<?xml version="1.0"?>
<!-- Time step: 140 | Time: 5.000000000000e+02 -->
<VTKFile type="UnstructuredGrid" version="0.1" byte_order="LittleEndian">
  <UnstructuredGrid>
    <Piece NumberOfPoints="529" NumberOfCells="484">
      <Points>
        <DataArray type="Float64" NumberOfComponents="3" format="ascii">
          0.000000000000e+00 0.000000000000e+00 0.000000000000e+00
          1.650000000000e-03 0.000000000000e+00 0.000000000000e+00
          1.650000000000e-03 1.650000000000e-03 0.000000000000e+00
          0.000000000000e+00 1.650000000000e-03 0.000000000000e+00
          1.650000000000e-03 5.000000000000e-03 0.000000000000e+00
          0.000000000000e+00 5.000000000000e-03 0.000000000000e+00
          5.000000000000e-03 0.000000000000e+00 0.000000000000e+00
          5.000000000000e-03 1.650000000000e-03 0.000000000000e+00
          5.000000000000e-03 5.000000000000e-03 0.000000000000e+00
          1.650000000000e-03 1.000000000000e-02 0.000000000000e+00
          0.000000000000e+00 1.000000000000e-02 0.000000000000e+00
          5.000000000000e-03 1.000000000000e-02 0.000000000000e+00
          1.650000000000e-03 1.500000000000e-02 0.000000000000e+00
          0.000000000000e+00 1.500000000000e-02 0.000000000000e+00
          5.000000000000e-03 1.500000000000e-02 0.000000000000e+00
          1.650000000000e-03 2.000000000000e-02 0.000000000000e+00
          0.000000000000e+00 2.000000000000e-02 0.000000000000e+00
          5.000000000000e-03 2.000000000000e-02 0.000000000000e+00
          1.650000000000e-03 2.500000000000e-02 0.000000000000e+00
          0.000000000000e+00 2.500000000000e-02 0.000000000000e+00
          5.000000000000e-03 2.500000000000e-02 0.000000000000e+00
          1.650000000000e-03 3.000000000000e-02 0.000000000000e+00
          0.000000000000e+00 3.000000000000e-02 0.000000000000e+00
          5.000000000000e-03 3.000000000000e-02 0.000000000000e+00
          1.650000000000e-03 3.500000000000e-02 0.000000000000e+00
          0.000000000000e+00 3.500000000000e-02 0.000000000000e+00
          5.000000000000e-03 3.500000000000e-02 0.000000000000e+00
          1.650000000000e-03 4.000000000000e-02 0.000000000000e+00
          0.000000000000e+00 4.000000000000e-02 0.000000000000e+00
          5.000000000000e-03 4.000000000000e-02 0.000000000000e+00
          1.650000000000e-03 4.500000000000e-02 0.000000000000e+00
          0.000000000000e+00 4.500000000000e-02 0.000000000000e+00
          5.000000000000e-03 4.500000000000e-02 0.000000000000e+00
          1.650000000000e-03 5.000000000000e-02 0.000000000000e+00
          0.000000000000e+00 5.000000000000e-02 0.000000000000e+00
          5.000000000000e-03 5.000000000000e-02 0.000000000000e+00
          1.650000000000e-03 5.500000000000e-02 0.000000000000e+00
          0.000000000000e+00 5.500000000000e-02 0.000000000000e+00
          5.000000000000e-03 5.500000000000e-02 0.000000000000e+00
          1.650000000000e-03 6.000000000000e-02 0.000000000000e+00
          0.000000000000e+00 6.000000000000e-02 0.000000000000e+00
          5.000000000000e-03 6.000000000000e-02 0.000000000000e+00
          1.650000000000e-03 6.500000000000e-02 0.000000000000e+00
          0.000000000000e+00 6.500000000000e-02 0.000000000000e+00
          5.000000000000e-03 6.500000000000e-02 0.000000000000e+00
          1.650000000000e-03 7.000000000000e-02 0.000000000000e+00
          0.000000000000e+00 7.000000000000e-02 0.000000000000e+00
          5.000000000000e-03 7.000000000000e-02 0.000000000000e+00
          1.650000000000e-03 7.500000000000e-02 0.000000000000e+00
          0.000000000000e+00 7.500000000000e-02 0.000000000000e+00
          5.000000000000e-03 7.500000000000e-02 0.000000000000e+00
          1.650000000000e-03 8.000000000000e-02 0.000000000000e+00
          0.000000000000e+00 8.000000000000e-02 0.000000000000e+00
          5.000000000000e-03 8.000000000000e-02 0.000000000000e+00
          1.650000000000e-03 8.500000000000e-02 0.000000000000e+00
          0.000000000000e+00 8.500000000000e-02 0.000000000000e+00
          5.000000000000e-03 8.500000000000e-02 0.000000000000e+00
          1.650000000000e-03 9.000000000000e-02 0.000000000000e+00
          0.000000000000e+00 9.000000000000e-02 0.000000000000e+00
          5.000000000000e-03 9.000000000000e-02 0.000000000000e+00
          1.650000000000e-03 9.500000000000e-02 0.000000000000e+00
          0.000000000000e+00 9.500000000000e-02 0.000000000000e+00
          5.000000000000e-03 9.500000000000e-02 0.000000000000e+00
          0.000000000000e+00 1.000000000000e-01 0.000000000000e+00
          1.650000000000e-03 1.000000000000e-01 0.000000000000e+00
          1.650000000000e-03 9.835000000000e-02 0.000000000000e+00
          0.000000000000e+00 9.835000000000e-02 0.000000000000e+00
          5.000000000000e-03 1.000000000000e-01 0.000000000000e+00
          5.000000000000e-03 9.835000000000e-02 0.000000000000e+00
          1.000000000000e-02 0.000000000000e+00 0.000000000000e+00
          1.000000000000e-02 1.650000000000e-03 0.000000000000e+00
          1.000000000000e-02 5.000000000000e-03 0.000000000000e+00
          1.000000000000e-02 1.000000000000e-02 0.000000000000e+00
          1.000000000000e-02 1.500000000000e-02 0.000000000000e+00
          1.000000000000e-02 2.000000000000e-02 0.000000000000e+00
          1.000000000000e-02 2.500000000000e-02 0.000000000000e+00
          1.000000000000e-02 3.000000000000e-02 0.000000000000e+00
          1.000000000000e-02 3.500000000000e-02 0.000000000000e+00
          1.000000000000e-02 4.000000000000e-02 0.000000000000e+00
          1.000000000000e-02 4.500000000000e-02 0.000000000000e+00
          1.000000000000e-02 5.000000000000e-02 0.000000000000e+00
          1.000000000000e-02 5.500000000000e-02 0.000000000000e+00
          1.000000000000e-02 6.000000000000e-02 0.000000000000e+00
          1.000000000000e-02 6.500000000000e-02 0.000000000000e+00
          1.000000000000e-02 7.000000000000e-02 0.000000000000e+00
          1.000000000000e-02 7.500000000000e-02 0.000000000000e+00
          1.000000000000e-02 8.000000000000e-02 0.000000000000e+00
          1.000000000000e-02 8.500000000000e-02 0.000000000000e+00
          1.000000000000e-02 9.000000000000e-02 0.000000000000e+00
          1.000000000000e-02 9.500000000000e-02 0.000000000000e+00
          1.000000000000e-02 1.000000000000e-01 0.000000000000e+00
          1.000000000000e-02 9.835000000000e-02 0.000000000000e+00
          1.500000000000e-02 0.000000000000e+00 0.000000000000e+00
          1.500000000000e-02 1.650000000000e-03 0.000000000000e+00
          1.500000000000e-02 5.000000000000e-03 0.000000000000e+00
          1.500000000000e-02 1.000000000000e-02 0.000000000000e+00
          1.500000000000e-02 1.500000000000e-02 0.000000000000e+00
          1.500000000000e-02 2.000000000000e-02 0.000000000000e+00
          1.500000000000e-02 2.500000000000e-02 0.000000000000e+00
          1.500000000000e-02 3.000000000000e-02 0.000000000000e+00
          1.500000000000e-02 3.500000000000e-02 0.000000000000e+00
          1.500000000000e-02 4.000000000000e-02 0.000000000000e+00
          1.500000000000e-02 4.500000000000e-02 0.000000000000e+00
          1.500000000000e-02 5.000000000000e-02 0.000000000000e+00
          1.500000000000e-02 5.500000000000e-02 0.000000000000e+00
          1.500000000000e-02 6.000000000000e-02 0.000000000000e+00
          1.500000000000e-02 6.500000000000e-02 0.000000000000e+00
          1.500000000000e-02 7.000000000000e-02 0.000000000000e+00
          1.500000000000e-02 7.500000000000e-02 0.000000000000e+00
          1.500000000000e-02 8.000000000000e-02 0.000000000000e+00
          1.500000000000e-02 8.500000000000e-02 0.000000000000e+00
          1.500000000000e-02 9.000000000000e-02 0.000000000000e+00
          1.500000000000e-02 9.500000000000e-02 0.000000000000e+00
          1.500000000000e-02 1.000000000000e-01 0.000000000000e+00
          1.500000000000e-02 9.835000000000e-02 0.000000000000e+00
          2.000000000000e-02 0.000000000000e+00 0.000000000000e+00
          2.000000000000e-02 1.650000000000e-03 0.000000000000e+00
          2.000000000000e-02 5.000000000000e-03 0.000000000000e+00
          2.000000000000e-02 1.000000000000e-02 0.000000000000e+00
          2.000000000000e-02 1.500000000000e-02 0.000000000000e+00
          2.000000000000e-02 2.000000000000e-02 0.000000000000e+00
          2.000000000000e-02 2.500000000000e-02 0.000000000000e+00
          2.000000000000e-02 3.000000000000e-02 0.000000000000e+00
          2.000000000000e-02 3.500000000000e-02 0.000000000000e+00
          2.000000000000e-02 4.000000000000e-02 0.000000000000e+00
          2.000000000000e-02 4.500000000000e-02 0.000000000000e+00
          2.000000000000e-02 5.000000000000e-02 0.000000000000e+00
          2.000000000000e-02 5.500000000000e-02 0.000000000000e+00
          2.000000000000e-02 6.000000000000e-02 0.000000000000e+00
          2.000000000000e-02 6.500000000000e-02 0.000000000000e+00
          2.000000000000e-02 7.000000000000e-02 0.000000000000e+00
          2.000000000000e-02 7.500000000000e-02 0.000000000000e+00
          2.000000000000e-02 8.000000000000e-02 0.000000000000e+00
          2.000000000000e-02 8.500000000000e-02 0.000000000000e+00
          2.000000000000e-02 9.000000000000e-02 0.000000000000e+00
          2.000000000000e-02 9.500000000000e-02 0.000000000000e+00
          2.000000000000e-02 1.000000000000e-01 0.000000000000e+00
          2.000000000000e-02 9.835000000000e-02 0.000000000000e+00
          2.500000000000e-02 0.000000000000e+00 0.000000000000e+00
          2.500000000000e-02 1.650000000000e-03 0.000000000000e+00
          2.500000000000e-02 5.000000000000e-03 0.000000000000e+00
          2.500000000000e-02 1.000000000000e-02 0.000000000000e+00
          2.500000000000e-02 1.500000000000e-02 0.000000000000e+00
          2.500000000000e-02 2.000000000000e-02 0.000000000000e+00
[...]
      <PointData Scalars="PRESSURE1">
        <DataArray type="Float64" Name="PRESSURE1" format="ascii">
          2.000000000000e+05 1.991750000000e+05 1.983687519709e+05 1.991750000000e+05 1.967197549209e+05 1.975000000000e+05 1.975000000000e+05 1.967197549209e+05 1.951176968146e+05 1.942467832791e+05 1.950000000000e+05 1.926986979070e+05 1.917677915490e+05 1.925000000000e+05 1.902617368482e+05 1.892846667605e+05 1.900000000000e+05 1.878126245943e+05 1.867984433922e+05 1.875000000000e+05 1.853541911959e+05 1.843096780532e+05 1.850000000000e+05 1.828880786729e+05 1.818187088435e+05 1.825000000000e+05 1.804152823823e+05 1.793257353117e+05 1.800000000000e+05 1.779363948918e+05 1.768308593913e+05 1.775000000000e+05 1.754517179731e+05 1.743341035580e+05 1.750000000000e+05 1.729613149447e+05 1.718354171745e+05 1.725000000000e+05 1.704650283995e+05 1.693346742140e+05 1.700000000000e+05 1.679624728138e+05 1.668316625338e+05 1.675000000000e+05 1.654530023604e+05 1.643260620860e+05 1.650000000000e+05 1.629356457362e+05 1.618174030604e+05 1.625000000000e+05 1.604089871202e+05 1.593049933606e+05 1.600000000000e+05 1.578709359120e+05 1.567877038659e+05 1.575000000000e+05 1.553182744376e+05 1.542637985149e+05 1.550000000000e+05 1.527453154096e+05 1.517265838054e+05 1.525000000000e+05 1.501400034697e+05 1.500000000000e+05 1.491750000000e+05 1.500234766456e+05 1.508250000000e+05 1.475000000000e+05 1.483806068210e+05 1.950000000000e+05 1.942467832791e+05 1.926986979070e+05 1.903510674614e+05 1.879730317443e+05 1.855725059172e+05 1.831541389943e+05 1.807207973661e+05 1.782742866098e+05 1.758156985436e+05 1.733455873302e+05 1.708640533644e+05 1.683707702968e+05 1.658649683761e+05 1.633453739453e+05 1.608100920784e+05 1.582563993948e+05 1.556803773397e+05 1.530762107307e+05 1.504348226123e+05 1.477417608163e+05 1.450000000000e+05 1.459151762441e+05 1.925000000000e+05 1.917677915490e+05 1.902617368482e+05 1.879730317443e+05 1.856468193050e+05 1.832904861059e+05 1.809092099518e+05 1.785064902708e+05 1.760846387162e+05 1.736450850824e+05 1.711885497350e+05 1.687151290233e+05 1.662243189027e+05 1.637149870913e+05 1.611852922940e+05 1.586325369685e+05 1.560529239790e+05 1.534411615527e+05 1.507898341748e+05 1.480885041503e+05 1.453227574621e+05 1.425000000000e+05 1.434428665700e+05 1.900000000000e+05 1.892846667605e+05 1.878126245943e+05 1.855725059172e+05 1.832904861059e+05 1.809729612498e+05 1.786248945349e+05 1.762499218415e+05 1.738505646282e+05 1.714284172569e+05 1.689842697392e+05 1.665181694316e+05 1.640294299633e+05 1.615165910329e+05 1.589773260682e+05 1.564082871351e+05 1.538048680076e+05 1.511608605676e+05 1.484679924388e+05 1.457153939938e+05 1.428891564430e+05 1.400000000000e+05 1.409655105141e+05 1.875000000000e+05 1.867984433922e+05 1.853541911959e+05 1.831541389943e+05 1.809092099518e+05 1.786248945349e+05 1.763057115444e+05 1.739551559496e+05 1.715757467905e+05 1.691691023567e+05 1.667359992215e+05 1.642763981751e+05 1.617894322021e+05 1.592733539845e+05 1.567254388115e+05 1.541418360971e+05 1.515173612687e+05 1.488452240785e+05 1.461167069238e+05 1.433208420754e+05 1.404441748977e+05 1.375000000000e+05 1.384843064662e+05 1.850000000000e+05 1.843096780532e+05 1.828880786729e+05 1.807207973661e+05 1.785064902708e+05 1.762499218415e+05 1.739551559496e+05 1.716254452734e+05 1.692631939162e+05 1.668699558418e+05 1.644464386649e+05 1.619924938310e+05 1.595070829106e+05 1.569882140180e+05 1.544328438423e+05 1.518367415511e+05 1.491943130629e+05 1.464983904495e+05 1.437400035422e+05 1.409081671555e+05 1.379897291037e+05 1.350000000000e+05 1.359999108813e+05 1.825000000000e+05 1.818187088435e+05 1.804152823823e+05 1.782742866098e+05 1.760846387162e+05 1.738505646282e+05 1.715757467905e+05 1.692631939162e+05 1.669151608241e+05 1.645330999483e+05 1.621176253143e+05 1.596684736534e+05 1.571844520328e+05 1.546633650648e+05 1.521019173500e+05 1.494955892054e+05 1.468384870573e+05 1.441231751284e+05 1.413405020967e+05 1.384794429904e+05 1.355269777719e+05 1.325000000000e+05 1.335127232971e+05 1.800000000000e+05 1.793257353117e+05 1.779363948918e+05 1.758156985436e+05 1.736450850824e+05 1.714284172569e+05 1.691691023567e+05 1.668699558418e+05 1.645330999483e+05 1.621598881069e+05 1.597508431793e+05 1.573055980214e+05 1.548228290899e+05 1.523001764695e+05 1.497341463578e+05 1.471199948417e+05 1.444515950511e+05 1.417212935802e+05 1.389197657569e+05 1.360358811982e+05 1.330565885830e+05 1.300000000000e+05 1.310229710698e+05 1.775000000000e+05 1.768308593913e+05 1.754517179731e+05 1.733455873302e+05 1.711885497350e+05 1.689842697392e+05 1.667359992215e+05 1.644464386649e+05 1.621176253143e+05 1.597508431793e+05 1.573465466004e+05 1.549042883150e+05 1.524226439304e+05 1.498991266687e+05 1.473300886865e+05 1.447106079878e+05 1.420343628519e+05 1.392934984901e+05 1.364784925754e+05 1.335780260941e+05 1.305788621389e+05 1.275000000000e+05 1.285307556475e+05 1.750000000000e+05 1.743341035580e+05 1.729613149447e+05 1.708640533644e+05 1.687151290233e+05 1.665181694316e+05 1.642763981751e+05 1.619924938310e+05 1.596684736534e+05 1.573055980214e+05 1.549042883150e+05 1.524640497830e+05 1.499833916131e+05 1.474597381502e+05 1.448893275182e+05 1.422670965160e+05 1.395865533477e+05 1.368396421532e+05 1.340166046831e+05 1.311058436814e+05 1.280937883230e+05 1.250000000000e+05 1.260360722368e+05 1.725000000000e+05 1.718354171745e+05 1.704650283995e+05 1.683707702968e+05 1.662243189027e+05 1.640294299633e+05 1.617894322021e+05 1.595070829106e+05 1.571844520328e+05 1.548228290899e+05 1.524226439304e+05 1.499833916131e+05 1.475035528547e+05 1.449805034969e+05 1.424104088539e+05 1.397881013849e+05 1.371069428655e+05 1.343586748814e+05 1.315332633547e+05 1.286187426698e+05 1.256010610360e+05 1.225000000000e+05 1.235388150773e+05 1.700000000000e+05 1.693346742140e+05 1.679624728138e+05 1.658649683761e+05 1.637149870913e+05 1.615165910329e+05 1.592733539845e+05 1.569882140180e+05 1.546633650648e+05 1.523001764695e+05 1.498991266687e+05 1.474597381502e+05 1.449805034969e+05 1.424587951428e+05 1.398907540231e+05 1.372711547718e+05 1.345932479381e+05 1.318485831248e+05 1.290268205792e+05 1.261155410014e+05 1.231000611121e+05 1.200000000000e+05 1.210387715304e+05 1.675000000000e+05 1.668316625338e+05 1.654530023604e+05 1.633453739453e+05 1.611852922940e+05 1.589773260682e+05 1.567254388115e+05 1.544328438423e+05 1.521019173500e+05 1.497341463578e+05 1.473300886865e+05 1.448893275182e+05 1.424104088539e+05 1.398907540231e+05 1.373265416973e+05 1.347125556205e+05 1.320419967068e+05 1.293062624879e+05 1.264947037494e+05 1.235943759518e+05 1.205898066132e+05 1.175000000000e+05 1.185356047313e+05 1.650000000000e+05 1.643260620860e+05 1.629356457362e+05 1.608100920784e+05 1.586325369685e+05 1.564082871351e+05 1.541418360971e+05 1.518367415511e+05 1.494955892054e+05 1.471199948417e+05 1.447106079878e+05 1.422670965160e+05 1.397881013849e+05 1.372711547718e+05 1.347125556205e+05 1.321071963228e+05 1.294483348859e+05 1.267273110190e+05 1.239332153783e+05 1.210525403396e+05 1.180688592897e+05 1.150000000000e+05 1.160288210971e+05 1.625000000000e+05 1.618174030604e+05 1.604089871202e+05 1.582563993948e+05 1.560529239790e+05 1.538048680076e+05 1.515173612687e+05 1.491943130629e+05 1.468384870573e+05 1.444515950511e+05 1.420343628519e+05 1.395865533477e+05 1.371069428655e+05 1.345932479381e+05 1.320419967068e+05 1.294483348859e+05 1.268057523166e+05 1.241057163795e+05 1.213372096045e+05 1.184862030247e+05 1.155351604389e+05 1.125000000000e+05 1.135177107275e+05 1.600000000000e+05 1.593049933606e+05 1.578709359120e+05 1.556803773397e+05 1.534411615527e+05 1.511608605676e+05 1.488452240785e+05 1.464983904495e+05 1.441231751284e+05 1.417212935802e+05 1.392934984901e+05 1.368396421532e+05 1.343586748814e+05 1.318485831248e+05 1.293062624879e+05 1.267273110190e+05 1.241057163795e+05 1.214333989320e+05 1.186995740278e+05 1.158899276396e+05 1.129857247950e+05 1.100000000000e+05 1.110012480406e+05 1.575000000000e+05 1.567877038659e+05 1.553182744376e+05 1.530762107307e+05 1.507898341748e+05 1.484679924388e+05 1.461167069238e+05 1.437400035422e+05 1.413405020967e+05 1.389197657569e+05 1.364784925754e+05 1.340166046831e+05 1.315332633547e+05 1.290268205792e+05 1.264947037494e+05 1.239332153783e+05 1.213372096045e+05 1.186995740278e+05 1.160104046723e+05 1.132557784797e+05 1.104160636451e+05 1.075000000000e+05 1.084778089068e+05 1.550000000000e+05 1.542637985149e+05 1.527453154096e+05 1.504348226123e+05 1.480885041503e+05 1.457153939938e+05 1.433208420754e+05 1.409081671555e+05 1.384794429904e+05 1.360358811982e+05 1.335780260941e+05 1.311058436814e+05 1.286187426698e+05 1.261155410014e+05 1.235943759518e+05 1.210525403396e+05 1.184862030247e+05 1.158899276396e+05 1.132557784797e+05 1.105716239467e+05 1.078185390282e+05 1.050000000000e+05 1.059449852729e+05 1.525000000000e+05 1.517265838054e+05 1.501400034697e+05 1.477417608163e+05 1.453227574621e+05 1.428891564430e+05 1.404441748977e+05 1.379897291037e+05 1.355269777719e+05 1.330565885830e+05 1.305788621389e+05 1.280937883230e+05 1.256010610360e+05 1.231000611121e+05 1.205898066132e+05 1.180688592897e+05 1.155351604389e+05 1.129857247950e+05 1.104160636451e+05 1.078185390282e+05 1.051778846154e+05 1.025000000000e+05 1.033940901419e+05 1.500000000000e+05 1.508250000000e+05 1.500234766456e+05 1.491750000000e+05 1.483806068210e+05 1.475000000000e+05 1.459151762441e+05 1.450000000000e+05 1.434428665700e+05 1.425000000000e+05 1.409655105141e+05 1.400000000000e+05 1.384843064662e+05 1.375000000000e+05 1.359999108813e+05 1.350000000000e+05 1.335127232971e+05 1.325000000000e+05 1.310229710698e+05 1.300000000000e+05 1.285307556475e+05 1.275000000000e+05 1.260360722368e+05 1.250000000000e+05 1.235388150773e+05 1.225000000000e+05 1.210387715304e+05 1.200000000000e+05 1.185356047313e+05 1.175000000000e+05 1.160288210971e+05 1.150000000000e+05 1.135177107275e+05 1.125000000000e+05 1.110012480406e+05 1.100000000000e+05 1.084778089068e+05 1.075000000000e+05 1.059449852729e+05 1.050000000000e+05 1.033940901419e+05 1.025000000000e+05 1.000000000000e+05 1.008250000000e+05 1.016823349491e+05 1.008250000000e+05 
        </DataArray>
        <DataArray type="Float64" Name="TEMPERATURE1" format="ascii">