 TITLE = "Time curves in points"
 VARIABLES = "TIME "  "PRESSURE1"  "HEAD"  "VELOCITY_X1"  "VELOCITY_Y1"  "VELOCITY_Z1"  "TEMPERATURE1" 
 ZONE T="POINT=POINTP13"
0.000000000000e+00 1.000000000000e+05 0.000000000000e+00 0.000000000000e+00 0.000000000000e+00 0.000000000000e+00 2.830000000000e+02 
1.000000000000e+01 9.998595991195e+04 0.000000000000e+00 7.691376705691e-10 2.808524095932e-03 0.000000000000e+00 2.830000000002e+02 
2.000000000000e+01 9.998595991195e+04 0.000000000000e+00 7.691376705691e-10 2.808524095932e-03 0.000000000000e+00 2.830000002162e+02 
3.000000000000e+01 9.998595991195e+04 0.000000000000e+00 7.691376705691e-10 2.808524095932e-03 0.000000000000e+00 2.829999983668e+02 
4.000000000000e+01 9.998595991195e+04 0.000000000000e+00 7.691376705691e-10 2.808524095932e-03 0.000000000000e+00 2.830000037558e+02 
5.000000000000e+01 9.998595991195e+04 0.000000000000e+00 7.691376705691e-10 2.808524095932e-03 0.000000000000e+00 2.829999993719e+02 
6.000000000000e+01 9.998595991195e+04 0.000000000000e+00 7.691376705691e-10 2.808524095932e-03 0.000000000000e+00 2.829999954999e+02 
7.000000000000e+01 9.998595991195e+04 0.000000000000e+00 7.691376705691e-10 2.808524095932e-03 0.000000000000e+00 2.829999975099e+02 
8.000000000000e+01 9.998595991195e+04 0.000000000000e+00 7.691376705691e-10 2.808524095932e-03 0.000000000000e+00 2.830000034791e+02 
9.000000000000e+01 9.998595991195e+04 0.000000000000e+00 7.691376705691e-10 2.808524095932e-03 0.000000000000e+00 2.830000078462e+02 
1.000000000000e+02 9.998595991195e+04 0.000000000000e+00 7.691376705691e-10 2.808524095932e-03 0.000000000000e+00 2.830000064055e+02 
1.100000000000e+02 9.998595991195e+04 0.000000000000e+00 7.691376705691e-10 2.808524095932e-03 0.000000000000e+00 2.829999990467e+02 
1.200000000000e+02 9.998595991195e+04 0.000000000000e+00 7.691376705691e-10 2.808524095932e-03 0.000000000000e+00 2.829999897289e+02 
1.300000000000e+02 9.998595991195e+04 0.000000000000e+00 7.691376705691e-10 2.808524095932e-03 0.000000000000e+00 2.829999835504e+02 
1.400000000000e+02 9.998595991195e+04 0.000000000000e+00 7.691376705691e-10 2.808524095932e-03 0.000000000000e+00 2.829999853496e+02 
1.500000000000e+02 9.998595991195e+04 0.000000000000e+00 7.691376705691e-10 2.808524095932e-03 0.000000000000e+00 2.829999972961e+02 
1.600000000000e+02 9.998595991195e+04 0.000000000000e+00 7.691376705691e-10 2.808524095932e-03 0.000000000000e+00 2.830000177151e+02 
1.700000000000e+02 9.998595991195e+04 0.000000000000e+00 7.691376705691e-10 2.808524095932e-03 0.000000000000e+00 2.830000416265e+02 
1.800000000000e+02 9.998595991195e+04 0.000000000000e+00 7.691376705691e-10 2.808524095932e-03 0.000000000000e+00 2.830000623364e+02 
1.900000000000e+02 9.998595991195e+04 0.000000000000e+00 7.691376705691e-10 2.808524095932e-03 0.000000000000e+00 2.830000712487e+02 
2.000000000000e+02 9.998595991195e+04 0.000000000000e+00 7.691376705691e-10 2.808524095932e-03 0.000000000000e+00 2.830000690347e+02 
2.100000000000e+02 9.998595991195e+04 0.000000000000e+00 7.691376705691e-10 2.808524095932e-03 0.000000000000e+00 2.830000543341e+02 
2.200000000000e+02 9.998595991195e+04 0.000000000000e+00 7.691376705691e-10 2.808524095932e-03 0.000000000000e+00 2.830000325399e+02 
2.300000000000e+02 9.998595991195e+04 0.000000000000e+00 7.691376705691e-10 2.808524095932e-03 0.000000000000e+00 2.830000163177e+02 
2.400000000000e+02 9.998595991195e+04 0.000000000000e+00 7.691376705691e-10 2.808524095932e-03 0.000000000000e+00 2.830000205584e+02 
2.500000000000e+02 9.998595991195e+04 0.000000000000e+00 7.691376705691e-10 2.808524095932e-03 0.000000000000e+00 2.830000661365e+02 
2.600000000000e+02 9.998595991195e+04 0.000000000000e+00 7.691376705691e-10 2.808524095932e-03 0.000000000000e+00 2.830001717970e+02 
2.700000000000e+02 9.998595991195e+04 0.000000000000e+00 7.691376705691e-10 2.808524095932e-03 0.000000000000e+00 2.830003498442e+02 
2.800000000000e+02 9.998595991195e+04 0.000000000000e+00 7.691376705691e-10 2.808524095932e-03 0.000000000000e+00 2.830006101724e+02 
2.900000000000e+02 9.998595991195e+04 0.000000000000e+00 7.691376705691e-10 2.808524095932e-03 0.000000000000e+00 2.830009531831e+02 
3.000000000000e+02 9.998595991195e+04 0.000000000000e+00 7.691376705691e-10 2.808524095932e-03 0.000000000000e+00 2.830013673360e+02 
3.100000000000e+02 9.998595991195e+04 0.000000000000e+00 7.691376705691e-10 2.808524095932e-03 0.000000000000e+00 2.830018254854e+02 
3.200000000000e+02 9.998595991195e+04 0.000000000000e+00 7.691376705691e-10 2.808524095932e-03 0.000000000000e+00 2.830022946635e+02 
3.300000000000e+02 9.998595991195e+04 0.000000000000e+00 7.691376705691e-10 2.808524095932e-03 0.000000000000e+00 2.830027228688e+02 
3.400000000000e+02 9.998595991195e+04 0.000000000000e+00 7.691376705691e-10 2.808524095932e-03 0.000000000000e+00 2.830030549243e+02 
3.500000000000e+02 9.998595991195e+04 0.000000000000e+00 7.691376705691e-10 2.808524095932e-03 0.000000000000e+00 2.830032415542e+02 
3.600000000000e+02 9.998595991195e+04 0.000000000000e+00 7.691376705691e-10 2.808524095932e-03 0.000000000000e+00 2.830032211609e+02 
3.700000000000e+02 9.998595991195e+04 0.000000000000e+00 7.691376705691e-10 2.808524095932e-03 0.000000000000e+00 2.830029605804e+02 
3.800000000000e+02 9.998595991195e+04 0.000000000000e+00 7.691376705691e-10 2.808524095932e-03 0.000000000000e+00 2.830024290027e+02 
3.900000000000e+02 9.998595991195e+04 0.000000000000e+00 7.691376705691e-10 2.808524095932e-03 0.000000000000e+00 2.830016327823e+02 
4.000000000000e+02 9.998595991195e+04 0.000000000000e+00 7.691376705691e-10 2.808524095932e-03 0.000000000000e+00 2.830006152455e+02 
4.100000000000e+02 9.998595991195e+04 0.000000000000e+00 7.691376705691e-10 2.808524095932e-03 0.000000000000e+00 2.829994604720e+02 
4.200000000000e+02 9.998595991195e+04 0.000000000000e+00 7.691376705691e-10 2.808524095932e-03 0.000000000000e+00 2.829983057823e+02 
4.300000000000e+02 9.998595991195e+04 0.000000000000e+00 7.691376705691e-10 2.808524095932e-03 0.000000000000e+00 2.829973391561e+02 
4.400000000000e+02 9.998595991195e+04 0.000000000000e+00 7.691376705691e-10 2.808524095932e-03 0.000000000000e+00 2.829968146353e+02 
4.500000000000e+02 9.998595991195e+04 0.000000000000e+00 7.691376705691e-10 2.808524095932e-03 0.000000000000e+00 2.829970470219e+02 
4.600000000000e+02 9.998595991195e+04 0.000000000000e+00 7.691376705691e-10 2.808524095932e-03 0.000000000000e+00 2.829984142827e+02 
4.700000000000e+02 9.998595991195e+04 0.000000000000e+00 7.691376705691e-10 2.808524095932e-03 0.000000000000e+00 2.830013633692e+02 
4.800000000000e+02 9.998595991195e+04 0.000000000000e+00 7.691376705691e-10 2.808524095932e-03 0.000000000000e+00 2.830063803943e+02 
4.900000000000e+02 9.998595991195e+04 0.000000000000e+00 7.691376705691e-10 2.808524095932e-03 0.000000000000e+00 2.830140210063e+02 
5.000000000000e+02 9.998595991195e+04 0.000000000000e+00 7.691376705691e-10 2.808524095932e-03 0.000000000000e+00 2.830248772736e+02 
5.100000000000e+02 9.998595991195e+04 0.000000000000e+00 7.691376705691e-10 2.808524095932e-03 0.000000000000e+00 2.830395738183e+02 
5.200000000000e+02 9.998595991195e+04 0.000000000000e+00 7.691376705691e-10 2.808524095932e-03 0.000000000000e+00 2.830587640973e+02 
5.300000000000e+02 9.998595991195e+04 0.000000000000e+00 7.691376705691e-10 2.808524095932e-03 0.000000000000e+00 2.830831006149e+02 
5.400000000000e+02 9.998595991195e+04 0.000000000000e+00 7.691376705691e-10 2.808524095932e-03 0.000000000000e+00 2.831132332370e+02 
5.500000000000e+02 9.998595991195e+04 0.000000000000e+00 7.691376705691e-10 2.808524095932e-03 0.000000000000e+00 2.831498088916e+02 
5.600000000000e+02 9.998595991195e+04 0.000000000000e+00 7.691376705691e-10 2.808524095932e-03 0.000000000000e+00 2.831934355732e+02 
5.700000000000e+02 9.998595991195e+04 0.000000000000e+00 7.691376705691e-10 2.808524095932e-03 0.000000000000e+00 2.832446808452e+02 
5.800000000000e+02 9.998595991195e+04 0.000000000000e+00 7.691376705691e-10 2.808524095932e-03 0.000000000000e+00 2.833040515919e+02 
5.900000000000e+02 9.998595991195e+04 0.000000000000e+00 7.691376705691e-10 2.808524095932e-03 0.000000000000e+00 2.833720029614e+02 
6.000000000000e+02 9.998595991195e+04 0.000000000000e+00 7.691376705691e-10 2.808524095932e-03 0.000000000000e+00 2.834488936137e+02 
6.100000000000e+02 9.998595991195e+04 0.000000000000e+00 7.691376705691e-10 2.808524095932e-03 0.000000000000e+00 2.835349968195e+02 
6.200000000000e+02 9.998595991195e+04 0.000000000000e+00 7.691376705691e-10 2.808524095932e-03 0.000000000000e+00 2.836305255009e+02 
6.300000000000e+02 9.998595991195e+04 0.000000000000e+00 7.691376705691e-10 2.808524095932e-03 0.000000000000e+00 2.837355609408e+02 
6.400000000000e+02 9.998595991195e+04 0.000000000000e+00 7.691376705691e-10 2.808524095932e-03 0.000000000000e+00 2.838500853428e+02 
6.500000000000e+02 9.998595991195e+04 0.000000000000e+00 7.691376705691e-10 2.808524095932e-03 0.000000000000e+00 2.839740061649e+02 
6.600000000000e+02 9.998595991195e+04 0.000000000000e+00 7.691376705691e-10 2.808524095932e-03 0.000000000000e+00 2.841071361333e+02 
6.700000000000e+02 9.998595991195e+04 0.000000000000e+00 7.691376705691e-10 2.808524095932e-03 0.000000000000e+00 2.842491632997e+02 
6.800000000000e+02 9.998595991195e+04 0.000000000000e+00 7.691376705691e-10 2.808524095932e-03 0.000000000000e+00 2.843996725017e+02 
6.900000000000e+02 9.998595991195e+04 0.000000000000e+00 7.691376705691e-10 2.808524095932e-03 0.000000000000e+00 2.845582530068e+02 
7.000000000000e+02 9.998595991195e+04 0.000000000000e+00 7.691376705691e-10 2.808524095932e-03 0.000000000000e+00 2.847242967007e+02 
7.100000000000e+02 9.998595991195e+04 0.000000000000e+00 7.691376705691e-10 2.808524095932e-03 0.000000000000e+00 2.848972204361e+02 
7.200000000000e+02 9.998595991195e+04 0.000000000000e+00 7.691376705691e-10 2.808524095932e-03 0.000000000000e+00 2.850763525544e+02 
7.300000000000e+02 9.998595991195e+04 0.000000000000e+00 7.691376705691e-10 2.808524095932e-03 0.000000000000e+00 2.852609369604e+02 
7.400000000000e+02 9.998595991195e+04 0.000000000000e+00 7.691376705691e-10 2.808524095932e-03 0.000000000000e+00 2.854502376959e+02 
7.500000000000e+02 9.998595991195e+04 0.000000000000e+00 7.691376705691e-10 2.808524095932e-03 0.000000000000e+00 2.856434581169e+02 
7.600000000000e+02 9.998595991195e+04 0.000000000000e+00 7.691376705691e-10 2.808524095932e-03 0.000000000000e+00 2.858397950569e+02 
7.700000000000e+02 9.998595991195e+04 0.000000000000e+00 7.691376705691e-10 2.808524095932e-03 0.000000000000e+00 2.860384340098e+02 
7.800000000000e+02 9.998595991195e+04 0.000000000000e+00 7.691376705691e-10 2.808524095932e-03 0.000000000000e+00 2.862385622581e+02 
7.900000000000e+02 9.998595991195e+04 0.000000000000e+00 7.691376705691e-10 2.808524095932e-03 0.000000000000e+00 2.864394472438e+02 
8.000000000000e+02 9.998595991195e+04 0.000000000000e+00 7.691376705691e-10 2.808524095932e-03 0.000000000000e+00 2.866403445025e+02 
8.100000000000e+02 9.998595991195e+04 0.000000000000e+00 7.691376705691e-10 2.808524095932e-03 0.000000000000e+00 2.868404893991e+02 
8.200000000000e+02 9.998595991195e+04 0.000000000000e+00 7.691376705691e-10 2.808524095932e-03 0.000000000000e+00 2.870392417908e+02 
8.300000000000e+02 9.998595991195e+04 0.000000000000e+00 7.691376705691e-10 2.808524095932e-03 0.000000000000e+00 2.872359408393e+02 
8.400000000000e+02 9.998595991195e+04 0.000000000000e+00 7.691376705691e-10 2.808524095932e-03 0.000000000000e+00 2.874300002480e+02 
8.500000000000e+02 9.998595991195e+04 0.000000000000e+00 7.691376705691e-10 2.808524095932e-03 0.000000000000e+00 2.876208862725e+02 
8.600000000000e+02 9.998595991195e+04 0.000000000000e+00 7.691376705691e-10 2.808524095932e-03 0.000000000000e+00 2.878081353092e+02 
8.700000000000e+02 9.998595991195e+04 0.000000000000e+00 7.691376705691e-10 2.808524095932e-03 0.000000000000e+00 2.879913345801e+02 
8.800000000000e+02 9.998595991195e+04 0.000000000000e+00 7.691376705691e-10 2.808524095932e-03 0.000000000000e+00 2.881701261606e+02 
8.900000000000e+02 9.998595991195e+04 0.000000000000e+00 7.691376705691e-10 2.808524095932e-03 0.000000000000e+00 2.883442205254e+02 
9.000000000000e+02 9.998595991195e+04 0.000000000000e+00 7.691376705691e-10 2.808524095932e-03 0.000000000000e+00 2.885134034179e+02 
9.100000000000e+02 9.998595991195e+04 0.000000000000e+00 7.691376705691e-10 2.808524095932e-03 0.000000000000e+00 2.886775038377e+02 
9.200000000000e+02 9.998595991195e+04 0.000000000000e+00 7.691376705691e-10 2.808524095932e-03 0.000000000000e+00 2.888363842912e+02 
9.300000000000e+02 9.998595991195e+04 0.000000000000e+00 7.691376705691e-10 2.808524095932e-03 0.000000000000e+00 2.889899526054e+02 
9.400000000000e+02 9.998595991195e+04 0.000000000000e+00 7.691376705691e-10 2.808524095932e-03 0.000000000000e+00 2.891382031982e+02 
9.500000000000e+02 9.998595991195e+04 0.000000000000e+00 7.691376705691e-10 2.808524095932e-03 0.000000000000e+00 2.892810831406e+02 
9.600000000000e+02 9.998595991195e+04 0.000000000000e+00 7.691376705691e-10 2.808524095932e-03 0.000000000000e+00 2.894187145712e+02 
9.700000000000e+02 9.998595991195e+04 0.000000000000e+00 7.691376705691e-10 2.808524095932e-03 0.000000000000e+00 2.895512274781e+02 
9.800000000000e+02 9.998595991195e+04 0.000000000000e+00 7.691376705691e-10 2.808524095932e-03 0.000000000000e+00 2.896785911356e+02 
9.900000000000e+02 9.998595991195e+04 0.000000000000e+00 7.691376705691e-10 2.808524095932e-03 0.000000000000e+00 2.898010893408e+02 
1.000000000000e+03 9.998595991195e+04 0.000000000000e+00 7.691376705691e-10 2.808524095932e-03 0.000000000000e+00 2.899187931085e+02 
