 TITLE = "Time curves in points"
 VARIABLES = "TIME "  "PRESSURE1"  "HEAD"  "VELOCITY_X1"  "VELOCITY_Y1"  "VELOCITY_Z1"  "TEMPERATURE1" 
 ZONE T="POINT=POINTP12"
0.000000000000e+00 1.000000000000e+05 0.000000000000e+00 0.000000000000e+00 0.000000000000e+00 0.000000000000e+00 2.830000000000e+02 
1.000000000000e+01 1.098100000000e+05 0.000000000000e+00 -5.102323262153e-14 2.808020326841e-03 0.000000000000e+00 2.830000000000e+02 
2.000000000000e+01 1.098100000000e+05 0.000000000000e+00 -5.102323262153e-14 2.808020326841e-03 0.000000000000e+00 2.829979841226e+02 
3.000000000000e+01 1.098100000000e+05 0.000000000000e+00 -5.102323262153e-14 2.808020326841e-03 0.000000000000e+00 2.830070157200e+02 
4.000000000000e+01 1.098100000000e+05 0.000000000000e+00 -5.102323262153e-14 2.808020326841e-03 0.000000000000e+00 2.830004911340e+02 
5.000000000000e+01 1.098100000000e+05 0.000000000000e+00 -5.102323262153e-14 2.808020326841e-03 0.000000000000e+00 2.829931980438e+02 
6.000000000000e+01 1.098100000000e+05 0.000000000000e+00 -5.102323262153e-14 2.808020326841e-03 0.000000000000e+00 2.829912969214e+02 
7.000000000000e+01 1.098100000000e+05 0.000000000000e+00 -5.102323262153e-14 2.808020326841e-03 0.000000000000e+00 2.829955315898e+02 
8.000000000000e+01 1.098100000000e+05 0.000000000000e+00 -5.102323262153e-14 2.808020326841e-03 0.000000000000e+00 2.830039394737e+02 
9.000000000000e+01 1.098100000000e+05 0.000000000000e+00 -5.102323262153e-14 2.808020326841e-03 0.000000000000e+00 2.830132285771e+02 
1.000000000000e+02 1.098100000000e+05 0.000000000000e+00 -5.102323262153e-14 2.808020326841e-03 0.000000000000e+00 2.830199599357e+02 
1.100000000000e+02 1.098100000000e+05 0.000000000000e+00 -5.102323262153e-14 2.808020326841e-03 0.000000000000e+00 2.830213301373e+02 
1.200000000000e+02 1.098100000000e+05 0.000000000000e+00 -5.102323262153e-14 2.808020326841e-03 0.000000000000e+00 2.830157486215e+02 
1.300000000000e+02 1.098100000000e+05 0.000000000000e+00 -5.102323262153e-14 2.808020326841e-03 0.000000000000e+00 2.830027919206e+02 
1.400000000000e+02 1.098100000000e+05 0.000000000000e+00 -5.102323262153e-14 2.808020326841e-03 0.000000000000e+00 2.829834177621e+02 
1.500000000000e+02 1.098100000000e+05 0.000000000000e+00 -5.102323262153e-14 2.808020326841e-03 0.000000000000e+00 2.829597041424e+02 
1.600000000000e+02 1.098100000000e+05 0.000000000000e+00 -5.102323262153e-14 2.808020326841e-03 0.000000000000e+00 2.829348031625e+02 
1.700000000000e+02 1.098100000000e+05 0.000000000000e+00 -5.102323262153e-14 2.808020326841e-03 0.000000000000e+00 2.829125586630e+02 
1.800000000000e+02 1.098100000000e+05 0.000000000000e+00 -5.102323262153e-14 2.808020326841e-03 0.000000000000e+00 2.828974388075e+02 
1.900000000000e+02 1.098100000000e+05 0.000000000000e+00 -5.102323262153e-14 2.808020326841e-03 0.000000000000e+00 2.828941236219e+02 
2.000000000000e+02 1.098100000000e+05 0.000000000000e+00 -5.102323262153e-14 2.808020326841e-03 0.000000000000e+00 2.829073449741e+02 
2.100000000000e+02 1.098100000000e+05 0.000000000000e+00 -5.102323262153e-14 2.808020326841e-03 0.000000000000e+00 2.829414671708e+02 
2.200000000000e+02 1.098100000000e+05 0.000000000000e+00 -5.102323262153e-14 2.808020326841e-03 0.000000000000e+00 2.830005770579e+02 
2.300000000000e+02 1.098100000000e+05 0.000000000000e+00 -5.102323262153e-14 2.808020326841e-03 0.000000000000e+00 2.830881264834e+02 
2.400000000000e+02 1.098100000000e+05 0.000000000000e+00 -5.102323262153e-14 2.808020326841e-03 0.000000000000e+00 2.832068749196e+02 
2.500000000000e+02 1.098100000000e+05 0.000000000000e+00 -5.102323262153e-14 2.808020326841e-03 0.000000000000e+00 2.833588240513e+02 
2.600000000000e+02 1.098100000000e+05 0.000000000000e+00 -5.102323262153e-14 2.808020326841e-03 0.000000000000e+00 2.835451566938e+02 
2.700000000000e+02 1.098100000000e+05 0.000000000000e+00 -5.102323262153e-14 2.808020326841e-03 0.000000000000e+00 2.837662565702e+02 
2.800000000000e+02 1.098100000000e+05 0.000000000000e+00 -5.102323262153e-14 2.808020326841e-03 0.000000000000e+00 2.840217048710e+02 
2.900000000000e+02 1.098100000000e+05 0.000000000000e+00 -5.102323262153e-14 2.808020326841e-03 0.000000000000e+00 2.843102762029e+02 
3.000000000000e+02 1.098100000000e+05 0.000000000000e+00 -5.102323262153e-14 2.808020326841e-03 0.000000000000e+00 2.846301571531e+02 
3.100000000000e+02 1.098100000000e+05 0.000000000000e+00 -5.102323262153e-14 2.808020326841e-03 0.000000000000e+00 2.849788970354e+02 
3.200000000000e+02 1.098100000000e+05 0.000000000000e+00 -5.102323262153e-14 2.808020326841e-03 0.000000000000e+00 2.853535277518e+02 
3.300000000000e+02 1.098100000000e+05 0.000000000000e+00 -5.102323262153e-14 2.808020326841e-03 0.000000000000e+00 2.857507169006e+02 
3.400000000000e+02 1.098100000000e+05 0.000000000000e+00 -5.102323262153e-14 2.808020326841e-03 0.000000000000e+00 2.861668257969e+02 
3.500000000000e+02 1.098100000000e+05 0.000000000000e+00 -5.102323262153e-14 2.808020326841e-03 0.000000000000e+00 2.865980015124e+02 
3.600000000000e+02 1.098100000000e+05 0.000000000000e+00 -5.102323262153e-14 2.808020326841e-03 0.000000000000e+00 2.870403302472e+02 
3.700000000000e+02 1.098100000000e+05 0.000000000000e+00 -5.102323262153e-14 2.808020326841e-03 0.000000000000e+00 2.874899085523e+02 
3.800000000000e+02 1.098100000000e+05 0.000000000000e+00 -5.102323262153e-14 2.808020326841e-03 0.000000000000e+00 2.879428509660e+02 
3.900000000000e+02 1.098100000000e+05 0.000000000000e+00 -5.102323262153e-14 2.808020326841e-03 0.000000000000e+00 2.883955214254e+02 
4.000000000000e+02 1.098100000000e+05 0.000000000000e+00 -5.102323262153e-14 2.808020326841e-03 0.000000000000e+00 2.888444604859e+02 
4.100000000000e+02 1.098100000000e+05 0.000000000000e+00 -5.102323262153e-14 2.808020326841e-03 0.000000000000e+00 2.892864918379e+02 
4.200000000000e+02 1.098100000000e+05 0.000000000000e+00 -5.102323262153e-14 2.808020326841e-03 0.000000000000e+00 2.897187701759e+02 
4.300000000000e+02 1.098100000000e+05 0.000000000000e+00 -5.102323262153e-14 2.808020326841e-03 0.000000000000e+00 2.901387764499e+02 
4.400000000000e+02 1.098100000000e+05 0.000000000000e+00 -5.102323262153e-14 2.808020326841e-03 0.000000000000e+00 2.905443674278e+02 
4.500000000000e+02 1.098100000000e+05 0.000000000000e+00 -5.102323262153e-14 2.808020326841e-03 0.000000000000e+00 2.909337591174e+02 
4.600000000000e+02 1.098100000000e+05 0.000000000000e+00 -5.102323262153e-14 2.808020326841e-03 0.000000000000e+00 2.913055207242e+02 
4.700000000000e+02 1.098100000000e+05 0.000000000000e+00 -5.102323262153e-14 2.808020326841e-03 0.000000000000e+00 2.916585960234e+02 
4.800000000000e+02 1.098100000000e+05 0.000000000000e+00 -5.102323262153e-14 2.808020326841e-03 0.000000000000e+00 2.919922617340e+02 
4.900000000000e+02 1.098100000000e+05 0.000000000000e+00 -5.102323262153e-14 2.808020326841e-03 0.000000000000e+00 2.923061126663e+02 
5.000000000000e+02 1.098100000000e+05 0.000000000000e+00 -5.102323262153e-14 2.808020326841e-03 0.000000000000e+00 2.926000380510e+02 
5.100000000000e+02 1.098100000000e+05 0.000000000000e+00 -5.102323262153e-14 2.808020326841e-03 0.000000000000e+00 2.928741849140e+02 
5.200000000000e+02 1.098100000000e+05 0.000000000000e+00 -5.102323262153e-14 2.808020326841e-03 0.000000000000e+00 2.931289356905e+02 
5.300000000000e+02 1.098100000000e+05 0.000000000000e+00 -5.102323262153e-14 2.808020326841e-03 0.000000000000e+00 2.933648703477e+02 
5.400000000000e+02 1.098100000000e+05 0.000000000000e+00 -5.102323262153e-14 2.808020326841e-03 0.000000000000e+00 2.935827241812e+02 
5.500000000000e+02 1.098100000000e+05 0.000000000000e+00 -5.102323262153e-14 2.808020326841e-03 0.000000000000e+00 2.937833783268e+02 
5.600000000000e+02 1.098100000000e+05 0.000000000000e+00 -5.102323262153e-14 2.808020326841e-03 0.000000000000e+00 2.939678134110e+02 
5.700000000000e+02 1.098100000000e+05 0.000000000000e+00 -5.102323262153e-14 2.808020326841e-03 0.000000000000e+00 2.941370782159e+02 
5.800000000000e+02 1.098100000000e+05 0.000000000000e+00 -5.102323262153e-14 2.808020326841e-03 0.000000000000e+00 2.942922605195e+02 
5.900000000000e+02 1.098100000000e+05 0.000000000000e+00 -5.102323262153e-14 2.808020326841e-03 0.000000000000e+00 2.944344805765e+02 
6.000000000000e+02 1.098100000000e+05 0.000000000000e+00 -5.102323262153e-14 2.808020326841e-03 0.000000000000e+00 2.945648248928e+02 
6.100000000000e+02 1.098100000000e+05 0.000000000000e+00 -5.102323262153e-14 2.808020326841e-03 0.000000000000e+00 2.946844111318e+02 
6.200000000000e+02 1.098100000000e+05 0.000000000000e+00 -5.102323262153e-14 2.808020326841e-03 0.000000000000e+00 2.947943055385e+02 
6.300000000000e+02 1.098100000000e+05 0.000000000000e+00 -5.102323262153e-14 2.808020326841e-03 0.000000000000e+00 2.948954876950e+02 
6.400000000000e+02 1.098100000000e+05 0.000000000000e+00 -5.102323262153e-14 2.808020326841e-03 0.000000000000e+00 2.949889262476e+02 
6.500000000000e+02 1.098100000000e+05 0.000000000000e+00 -5.102323262153e-14 2.808020326841e-03 0.000000000000e+00 2.950755174196e+02 
6.600000000000e+02 1.098100000000e+05 0.000000000000e+00 -5.102323262153e-14 2.808020326841e-03 0.000000000000e+00 2.951560654396e+02 
6.700000000000e+02 1.098100000000e+05 0.000000000000e+00 -5.102323262153e-14 2.808020326841e-03 0.000000000000e+00 2.952313001872e+02 
6.800000000000e+02 1.098100000000e+05 0.000000000000e+00 -5.102323262153e-14 2.808020326841e-03 0.000000000000e+00 2.953019066153e+02 
6.900000000000e+02 1.098100000000e+05 0.000000000000e+00 -5.102323262153e-14 2.808020326841e-03 0.000000000000e+00 2.953684903872e+02 
7.000000000000e+02 1.098100000000e+05 0.000000000000e+00 -5.102323262153e-14 2.808020326841e-03 0.000000000000e+00 2.954315349938e+02 
7.100000000000e+02 1.098100000000e+05 0.000000000000e+00 -5.102323262153e-14 2.808020326841e-03 0.000000000000e+00 2.954915426059e+02 
7.200000000000e+02 1.098100000000e+05 0.000000000000e+00 -5.102323262153e-14 2.808020326841e-03 0.000000000000e+00 2.955488836490e+02 
7.300000000000e+02 1.098100000000e+05 0.000000000000e+00 -5.102323262153e-14 2.808020326841e-03 0.000000000000e+00 2.956038923490e+02 
7.400000000000e+02 1.098100000000e+05 0.000000000000e+00 -5.102323262153e-14 2.808020326841e-03 0.000000000000e+00 2.956568709112e+02 
7.500000000000e+02 1.098100000000e+05 0.000000000000e+00 -5.102323262153e-14 2.808020326841e-03 0.000000000000e+00 2.957080368801e+02 
7.600000000000e+02 1.098100000000e+05 0.000000000000e+00 -5.102323262153e-14 2.808020326841e-03 0.000000000000e+00 2.957575977234e+02 
7.700000000000e+02 1.098100000000e+05 0.000000000000e+00 -5.102323262153e-14 2.808020326841e-03 0.000000000000e+00 2.958057010211e+02 
7.800000000000e+02 1.098100000000e+05 0.000000000000e+00 -5.102323262153e-14 2.808020326841e-03 0.000000000000e+00 2.958524787724e+02 
7.900000000000e+02 1.098100000000e+05 0.000000000000e+00 -5.102323262153e-14 2.808020326841e-03 0.000000000000e+00 2.958980340053e+02 
8.000000000000e+02 1.098100000000e+05 0.000000000000e+00 -5.102323262153e-14 2.808020326841e-03 0.000000000000e+00 2.959424296351e+02 
8.100000000000e+02 1.098100000000e+05 0.000000000000e+00 -5.102323262153e-14 2.808020326841e-03 0.000000000000e+00 2.959857230720e+02 
8.200000000000e+02 1.098100000000e+05 0.000000000000e+00 -5.102323262153e-14 2.808020326841e-03 0.000000000000e+00 2.960279795694e+02 
8.300000000000e+02 1.098100000000e+05 0.000000000000e+00 -5.102323262153e-14 2.808020326841e-03 0.000000000000e+00 2.960692160354e+02 
8.400000000000e+02 1.098100000000e+05 0.000000000000e+00 -5.102323262153e-14 2.808020326841e-03 0.000000000000e+00 2.961094754126e+02 
8.500000000000e+02 1.098100000000e+05 0.000000000000e+00 -5.102323262153e-14 2.808020326841e-03 0.000000000000e+00 2.961487868696e+02 
8.600000000000e+02 1.098100000000e+05 0.000000000000e+00 -5.102323262153e-14 2.808020326841e-03 0.000000000000e+00 2.961871801298e+02 
8.700000000000e+02 1.098100000000e+05 0.000000000000e+00 -5.102323262153e-14 2.808020326841e-03 0.000000000000e+00 2.962246514768e+02 
8.800000000000e+02 1.098100000000e+05 0.000000000000e+00 -5.102323262153e-14 2.808020326841e-03 0.000000000000e+00 2.962612448390e+02 
8.900000000000e+02 1.098100000000e+05 0.000000000000e+00 -5.102323262153e-14 2.808020326841e-03 0.000000000000e+00 2.962969705871e+02 
9.000000000000e+02 1.098100000000e+05 0.000000000000e+00 -5.102323262153e-14 2.808020326841e-03 0.000000000000e+00 2.963318730255e+02 
9.100000000000e+02 1.098100000000e+05 0.000000000000e+00 -5.102323262153e-14 2.808020326841e-03 0.000000000000e+00 2.963659831975e+02 
9.200000000000e+02 1.098100000000e+05 0.000000000000e+00 -5.102323262153e-14 2.808020326841e-03 0.000000000000e+00 2.963993245171e+02 
9.300000000000e+02 1.098100000000e+05 0.000000000000e+00 -5.102323262153e-14 2.808020326841e-03 0.000000000000e+00 2.964319181894e+02 
9.400000000000e+02 1.098100000000e+05 0.000000000000e+00 -5.102323262153e-14 2.808020326841e-03 0.000000000000e+00 2.964637928291e+02 
9.500000000000e+02 1.098100000000e+05 0.000000000000e+00 -5.102323262153e-14 2.808020326841e-03 0.000000000000e+00 2.964949875686e+02 
9.600000000000e+02 1.098100000000e+05 0.000000000000e+00 -5.102323262153e-14 2.808020326841e-03 0.000000000000e+00 2.965255158942e+02 
9.700000000000e+02 1.098100000000e+05 0.000000000000e+00 -5.102323262153e-14 2.808020326841e-03 0.000000000000e+00 2.965554415164e+02 
9.800000000000e+02 1.098100000000e+05 0.000000000000e+00 -5.102323262153e-14 2.808020326841e-03 0.000000000000e+00 2.965848128825e+02 
9.900000000000e+02 1.098100000000e+05 0.000000000000e+00 -5.102323262153e-14 2.808020326841e-03 0.000000000000e+00 2.966136207306e+02 
1.000000000000e+03 1.098100000000e+05 0.000000000000e+00 -5.102323262153e-14 2.808020326841e-03 0.000000000000e+00 2.966419442710e+02 
