 TITLE = "Time curves in points"
 VARIABLES = "TIME " leavingParticles 
 ZONE T="POINT=POINTBC_DOWN"
0.000000000000e+00 0 
5.100000000000e+01 0 
1.020000000000e+02 0 
1.530000000000e+02 0 
2.040000000000e+02 0 
2.550000000000e+02 0 
3.060000000000e+02 1 
3.570000000000e+02 3 
4.080000000000e+02 8 
4.590000000000e+02 13 
5.100000000000e+02 25 
5.610000000000e+02 29 
6.120000000000e+02 27 
6.630000000000e+02 36 
7.140000000000e+02 35 
7.650000000000e+02 42 
8.160000000000e+02 45 
8.670000000000e+02 49 
9.180000000000e+02 39 
9.690000000000e+02 41 
1.020000000000e+03 41 
1.071000000000e+03 43 
1.122000000000e+03 39 
1.173000000000e+03 45 
1.224000000000e+03 50 
1.275000000000e+03 42 
1.326000000000e+03 41 
1.377000000000e+03 57 
1.428000000000e+03 43 
1.479000000000e+03 37 
1.530000000000e+03 42 
1.581000000000e+03 37 
1.632000000000e+03 33 
1.683000000000e+03 28 
1.734000000000e+03 26 
1.785000000000e+03 20 
1.836000000000e+03 13 
1.887000000000e+03 14 
1.938000000000e+03 10 
1.989000000000e+03 6 
2.040000000000e+03 6 
2.091000000000e+03 4 
2.142000000000e+03 2 
2.193000000000e+03 0 
2.244000000000e+03 0 
2.295000000000e+03 1 
2.346000000000e+03 0 
2.397000000000e+03 1 
2.448000000000e+03 0 
2.499000000000e+03 0 
2.550000000000e+03 0 
2.601000000000e+03 0 
2.652000000000e+03 0 
2.703000000000e+03 0 
2.754000000000e+03 0 
2.805000000000e+03 0 
2.856000000000e+03 0 
2.907000000000e+03 0 
2.958000000000e+03 0 
3.009000000000e+03 0 
3.060000000000e+03 0 
