<?xml version="1.0"?>
<!-- Time step: 60 | Time: 3.060000000000e+03 -->
<VTKFile type="UnstructuredGrid" version="0.1" byte_order="LittleEndian">
  <UnstructuredGrid>
    <Piece NumberOfPoints="101" NumberOfCells="100">
      <Points>
        <DataArray type="Float64" NumberOfComponents="3" format="ascii">
          0.000000000000e+00 0.000000000000e+00 0.000000000000e+00
          1.000000000000e-03 0.000000000000e+00 0.000000000000e+00
          2.000000000000e-03 0.000000000000e+00 0.000000000000e+00
          3.000000000000e-03 0.000000000000e+00 0.000000000000e+00
          4.000000000000e-03 0.000000000000e+00 0.000000000000e+00
          5.000000000000e-03 0.000000000000e+00 0.000000000000e+00
          6.000000000000e-03 0.000000000000e+00 0.000000000000e+00
          7.000000000000e-03 0.000000000000e+00 0.000000000000e+00
          8.000000000000e-03 0.000000000000e+00 0.000000000000e+00
          9.000000000000e-03 0.000000000000e+00 0.000000000000e+00
          1.000000000000e-02 0.000000000000e+00 0.000000000000e+00
          1.100000000000e-02 0.000000000000e+00 0.000000000000e+00
          1.200000000000e-02 0.000000000000e+00 0.000000000000e+00
          1.300000000000e-02 0.000000000000e+00 0.000000000000e+00
          1.400000000000e-02 0.000000000000e+00 0.000000000000e+00
          1.500000000000e-02 0.000000000000e+00 0.000000000000e+00
          1.600000000000e-02 0.000000000000e+00 0.000000000000e+00
          1.700000000000e-02 0.000000000000e+00 0.000000000000e+00
          1.800000000000e-02 0.000000000000e+00 0.000000000000e+00
          1.900000000000e-02 0.000000000000e+00 0.000000000000e+00
          2.000000000000e-02 0.000000000000e+00 0.000000000000e+00
          2.100000000000e-02 0.000000000000e+00 0.000000000000e+00
          2.200000000000e-02 0.000000000000e+00 0.000000000000e+00
          2.300000000000e-02 0.000000000000e+00 0.000000000000e+00
          2.400000000000e-02 0.000000000000e+00 0.000000000000e+00
          2.500000000000e-02 0.000000000000e+00 0.000000000000e+00
          2.600000000000e-02 0.000000000000e+00 0.000000000000e+00
          2.700000000000e-02 0.000000000000e+00 0.000000000000e+00
          2.800000000000e-02 0.000000000000e+00 0.000000000000e+00
          2.900000000000e-02 0.000000000000e+00 0.000000000000e+00
          3.000000000000e-02 0.000000000000e+00 0.000000000000e+00
          3.100000000000e-02 0.000000000000e+00 0.000000000000e+00
          3.200000000000e-02 0.000000000000e+00 0.000000000000e+00
          3.300000000000e-02 0.000000000000e+00 0.000000000000e+00
          3.400000000000e-02 0.000000000000e+00 0.000000000000e+00
          3.500000000000e-02 0.000000000000e+00 0.000000000000e+00
          3.600000000000e-02 0.000000000000e+00 0.000000000000e+00
          3.700000000000e-02 0.000000000000e+00 0.000000000000e+00
          3.800000000000e-02 0.000000000000e+00 0.000000000000e+00
          3.900000000000e-02 0.000000000000e+00 0.000000000000e+00
          4.000000000000e-02 0.000000000000e+00 0.000000000000e+00
          4.100000000000e-02 0.000000000000e+00 0.000000000000e+00
          4.200000000000e-02 0.000000000000e+00 0.000000000000e+00
          4.300000000000e-02 0.000000000000e+00 0.000000000000e+00
          4.400000000000e-02 0.000000000000e+00 0.000000000000e+00
          4.500000000000e-02 0.000000000000e+00 0.000000000000e+00
          4.600000000000e-02 0.000000000000e+00 0.000000000000e+00
          4.700000000000e-02 0.000000000000e+00 0.000000000000e+00
          4.800000000000e-02 0.000000000000e+00 0.000000000000e+00
          4.900000000000e-02 0.000000000000e+00 0.000000000000e+00
          5.000000000000e-02 0.000000000000e+00 0.000000000000e+00
          5.100000000000e-02 0.000000000000e+00 0.000000000000e+00
          5.200000000000e-02 0.000000000000e+00 0.000000000000e+00
          5.300000000000e-02 0.000000000000e+00 0.000000000000e+00
          5.400000000000e-02 0.000000000000e+00 0.000000000000e+00
          5.500000000000e-02 0.000000000000e+00 0.000000000000e+00
          5.600000000000e-02 0.000000000000e+00 0.000000000000e+00
          5.700000000000e-02 0.000000000000e+00 0.000000000000e+00
          5.800000000000e-02 0.000000000000e+00 0.000000000000e+00
          5.900000000000e-02 0.000000000000e+00 0.000000000000e+00
          6.000000000000e-02 0.000000000000e+00 0.000000000000e+00
          6.100000000000e-02 0.000000000000e+00 0.000000000000e+00
          6.200000000000e-02 0.000000000000e+00 0.000000000000e+00
          6.300000000000e-02 0.000000000000e+00 0.000000000000e+00
          6.400000000000e-02 0.000000000000e+00 0.000000000000e+00
          6.500000000000e-02 0.000000000000e+00 0.000000000000e+00
          6.600000000000e-02 0.000000000000e+00 0.000000000000e+00
          6.700000000000e-02 0.000000000000e+00 0.000000000000e+00
          6.800000000000e-02 0.000000000000e+00 0.000000000000e+00
          6.900000000000e-02 0.000000000000e+00 0.000000000000e+00
          7.000000000000e-02 0.000000000000e+00 0.000000000000e+00
          7.100000000000e-02 0.000000000000e+00 0.000000000000e+00
          7.200000000000e-02 0.000000000000e+00 0.000000000000e+00
          7.300000000000e-02 0.000000000000e+00 0.000000000000e+00
          7.400000000000e-02 0.000000000000e+00 0.000000000000e+00
          7.500000000000e-02 0.000000000000e+00 0.000000000000e+00
          7.600000000000e-02 0.000000000000e+00 0.000000000000e+00
          7.700000000000e-02 0.000000000000e+00 0.000000000000e+00
          7.800000000000e-02 0.000000000000e+00 0.000000000000e+00
          7.900000000000e-02 0.000000000000e+00 0.000000000000e+00
          8.000000000000e-02 0.000000000000e+00 0.000000000000e+00
          8.100000000000e-02 0.000000000000e+00 0.000000000000e+00
          8.200000000000e-02 0.000000000000e+00 0.000000000000e+00
          8.300000000000e-02 0.000000000000e+00 0.000000000000e+00
          8.400000000000e-02 0.000000000000e+00 0.000000000000e+00
          8.500000000000e-02 0.000000000000e+00 0.000000000000e+00
          8.600000000000e-02 0.000000000000e+00 0.000000000000e+00
          8.700000000000e-02 0.000000000000e+00 0.000000000000e+00
          8.800000000000e-02 0.000000000000e+00 0.000000000000e+00
          8.900000000000e-02 0.000000000000e+00 0.000000000000e+00
          9.000000000000e-02 0.000000000000e+00 0.000000000000e+00
          9.100000000000e-02 0.000000000000e+00 0.000000000000e+00
          9.200000000000e-02 0.000000000000e+00 0.000000000000e+00
          9.300000000000e-02 0.000000000000e+00 0.000000000000e+00
          9.400000000000e-02 0.000000000000e+00 0.000000000000e+00
          9.500000000000e-02 0.000000000000e+00 0.000000000000e+00
          9.600000000000e-02 0.000000000000e+00 0.000000000000e+00
          9.700000000000e-02 0.000000000000e+00 0.000000000000e+00
          9.800000000000e-02 0.000000000000e+00 0.000000000000e+00
          9.900000000000e-02 0.000000000000e+00 0.000000000000e+00
          1.000000000000e-01 0.000000000000e+00 0.000000000000e+00
        </DataArray>
      </Points>
      <Cells>
        <DataArray type="Int64" Name="connectivity" format="ascii">
          0 1 
          1 2 
          2 3 
          3 4 
          4 5 
          5 6 
          6 7 
          7 8 
          8 9 
          9 10 
          10 11 
          11 12 
          12 13 
          13 14 
          14 15 
          15 16 
          16 17 
          17 18 
          18 19 
          19 20 
          20 21 
          21 22 
          22 23 
          23 24 
          24 25 
          25 26 
          26 27 
          27 28 
          28 29 
          29 30 
          30 31 
          31 32 
          32 33 
          33 34 
          34 35 
          35 36 
          36 37 
          37 38 
          38 39 
          39 40 
          40 41 
          41 42 
          42 43 
          43 44 
          44 45 
          45 46 
          46 47 
          47 48 
          48 49 
          49 50 
          50 51 
          51 52 
          52 53 
          53 54 
          54 55 
          55 56 
          56 57 
          57 58 
          58 59 
          59 60 
          60 61 
          61 62 
          62 63 
          63 64 
          64 65 
          65 66 
          66 67 
          67 68 
          68 69 
          69 70 
          70 71 
          71 72 
          72 73 
          73 74 
          74 75 
          75 76 
          76 77 
          77 78 
          78 79 
          79 80 
          80 81 
          81 82 
          82 83 
          83 84 
          84 85 
          85 86 
          86 87 
          87 88 
          88 89 
          89 90 
          90 91 
          91 92 
          92 93 
          93 94 
          94 95 
          95 96 
          96 97 
          97 98 
          98 99 
          99 100 
        </DataArray>
        <DataArray type="Int64" Name="offsets" format="ascii">
          2 4 6 8 10 12 14 16 18 20 22 24 26 28 30 32 34 36 38 40 42 44 46 48 50 52 54 56 58 60 62 64 66 68 70 72 74 76 78 80 82 84 86 88 90 92 94 96 98 100 102 104 106 108 110 112 114 116 118 120 122 124 126 128 130 132 134 136 138 140 142 144 146 148 150 152 154 156 158 160 162 164 166 168 170 172 174 176 178 180 182 184 186 188 190 192 194 196 198 200 
        </DataArray>
        <DataArray type="UInt8" Name="types" format="ascii">
          3 3 3 3 3 3 3 3 3 3 3 3 3 3 3 3 3 3 3 3 3 3 3 3 3 3 3 3 3 3 3 3 3 3 3 3 3 3 3 3 3 3 3 3 3 3 3 3 3 3 3 3 3 3 3 3 3 3 3 3 3 3 3 3 3 3 3 3 3 3 3 3 3 3 3 3 3 3 3 3 3 3 3 3 3 3 3 3 3 3 3 3 3 3 3 3 3 3 3 3 
        </DataArray>
      </Cells>
      <PointData Scalars="PRESSURE1">
        <DataArray type="Float64" Name="PRESSURE1" format="ascii">
          9.373500000000e+02 9.299765000000e+02 9.226030000000e+02 9.152295000001e+02 9.078560000001e+02 9.004825000001e+02 8.931090000001e+02 8.857355000001e+02 8.783620000002e+02 8.709885000002e+02 8.636150000002e+02 8.562415000002e+02 8.488680000003e+02 8.414945000003e+02 8.341210000003e+02 8.267475000003e+02 8.193740000003e+02 8.120005000004e+02 8.046270000004e+02 7.972535000004e+02 7.898800000004e+02 7.825065000005e+02 7.751330000005e+02 7.677595000005e+02 7.603860000005e+02 7.530125000005e+02 7.456390000006e+02 7.382655000006e+02 7.308920000006e+02 7.235185000006e+02 7.161450000006e+02 7.087715000007e+02 7.013980000007e+02 6.940245000007e+02 6.866510000007e+02 6.792775000007e+02 6.719040000008e+02 6.645305000008e+02 6.571570000008e+02 6.497835000008e+02 6.424100000008e+02 6.350365000008e+02 6.276630000009e+02 6.202895000009e+02 6.129160000009e+02 6.055425000009e+02 5.981690000009e+02 5.907955000009e+02 5.834220000009e+02 5.760485000010e+02 5.686750000010e+02 5.613015000010e+02 5.539280000010e+02 5.465545000010e+02 5.391810000010e+02 5.318075000010e+02 5.244340000010e+02 5.170605000010e+02 5.096870000010e+02 5.023135000010e+02 4.949400000010e+02 4.875665000010e+02 4.801930000010e+02 4.728195000010e+02 4.654460000010e+02 4.580725000010e+02 4.506990000010e+02 4.433255000010e+02 4.359520000010e+02 4.285785000010e+02 4.212050000009e+02 4.138315000009e+02 4.064580000009e+02 3.990845000009e+02 3.917110000009e+02 3.843375000009e+02 3.769640000008e+02 3.695905000008e+02 3.622170000008e+02 3.548435000008e+02 3.474700000007e+02 3.400965000007e+02 3.327230000007e+02 3.253495000006e+02 3.179760000006e+02 3.106025000006e+02 3.032290000005e+02 2.958555000005e+02 2.884820000005e+02 2.811085000004e+02 2.737350000004e+02 2.663615000004e+02 2.589880000003e+02 2.516145000003e+02 2.442410000002e+02 2.368675000002e+02 2.294940000002e+02 2.221205000001e+02 2.147470000001e+02 2.073735000000e+02 2.000000000000e+02 
        </DataArray>
        <DataArray type="Float64" Name="NODAL_VELOCITY1" NumberOfComponents="3" format="ascii">
          8.217588785977e-05 0.000000000000e+00 0.000000000000e+00 8.217588785977e-05 0.000000000000e+00 0.000000000000e+00 8.217588785976e-05 0.000000000000e+00 0.000000000000e+00 8.217588785976e-05 0.000000000000e+00 0.000000000000e+00 8.217588785976e-05 0.000000000000e+00 0.000000000000e+00 8.217588785977e-05 0.000000000000e+00 0.000000000000e+00 8.217588785977e-05 0.000000000000e+00 0.000000000000e+00 8.217588785976e-05 0.000000000000e+00 0.000000000000e+00 8.217588785977e-05 0.000000000000e+00 0.000000000000e+00 8.217588785977e-05 0.000000000000e+00 0.000000000000e+00 8.217588785976e-05 0.000000000000e+00 0.000000000000e+00 8.217588785976e-05 0.000000000000e+00 0.000000000000e+00 8.217588785976e-05 0.000000000000e+00 0.000000000000e+00 8.217588785976e-05 0.000000000000e+00 0.000000000000e+00 8.217588785975e-05 0.000000000000e+00 0.000000000000e+00 8.217588785976e-05 0.000000000000e+00 0.000000000000e+00 8.217588785976e-05 0.000000000000e+00 0.000000000000e+00 8.217588785976e-05 0.000000000000e+00 0.000000000000e+00 8.217588785976e-05 0.000000000000e+00 0.000000000000e+00 8.217588785975e-05 0.000000000000e+00 0.000000000000e+00 8.217588785975e-05 0.000000000000e+00 0.000000000000e+00 8.217588785976e-05 0.000000000000e+00 0.000000000000e+00 8.217588785975e-05 0.000000000000e+00 0.000000000000e+00 8.217588785976e-05 0.000000000000e+00 0.000000000000e+00 8.217588785976e-05 0.000000000000e+00 0.000000000000e+00 8.217588785976e-05 0.000000000000e+00 0.000000000000e+00 8.217588785976e-05 0.000000000000e+00 0.000000000000e+00 8.217588785977e-05 0.000000000000e+00 0.000000000000e+00 8.217588785977e-05 0.000000000000e+00 0.000000000000e+00 8.217588785977e-05 0.000000000000e+00 0.000000000000e+00 8.217588785977e-05 0.000000000000e+00 0.000000000000e+00 8.217588785977e-05 0.000000000000e+00 0.000000000000e+00 8.217588785978e-05 0.000000000000e+00 0.000000000000e+00 8.217588785978e-05 0.000000000000e+00 0.000000000000e+00 8.217588785978e-05 0.000000000000e+00 0.000000000000e+00 8.217588785978e-05 0.000000000000e+00 0.000000000000e+00 8.217588785979e-05 0.000000000000e+00 0.000000000000e+00 8.217588785980e-05 0.000000000000e+00 0.000000000000e+00 8.217588785980e-05 0.000000000000e+00 0.000000000000e+00 8.217588785980e-05 0.000000000000e+00 0.000000000000e+00 8.217588785981e-05 0.000000000000e+00 0.000000000000e+00 8.217588785982e-05 0.000000000000e+00 0.000000000000e+00 8.217588785982e-05 0.000000000000e+00 0.000000000000e+00 8.217588785983e-05 0.000000000000e+00 0.000000000000e+00 8.217588785984e-05 0.000000000000e+00 0.000000000000e+00 8.217588785984e-05 0.000000000000e+00 0.000000000000e+00 8.217588785985e-05 0.000000000000e+00 0.000000000000e+00 8.217588785986e-05 0.000000000000e+00 0.000000000000e+00 8.217588785987e-05 0.000000000000e+00 0.000000000000e+00 8.217588785988e-05 0.000000000000e+00 0.000000000000e+00 8.217588785989e-05 0.000000000000e+00 0.000000000000e+00 8.217588785990e-05 0.000000000000e+00 0.000000000000e+00 8.217588785991e-05 0.000000000000e+00 0.000000000000e+00 8.217588785992e-05 0.000000000000e+00 0.000000000000e+00 8.217588785994e-05 0.000000000000e+00 0.000000000000e+00 8.217588785995e-05 0.000000000000e+00 0.000000000000e+00 8.217588785996e-05 0.000000000000e+00 0.000000000000e+00 8.217588785997e-05 0.000000000000e+00 0.000000000000e+00 8.217588785998e-05 0.000000000000e+00 0.000000000000e+00 8.217588786000e-05 0.000000000000e+00 0.000000000000e+00 8.217588786001e-05 0.000000000000e+00 0.000000000000e+00 8.217588786002e-05 0.000000000000e+00 0.000000000000e+00 8.217588786004e-05 0.000000000000e+00 0.000000000000e+00 8.217588786005e-05 0.000000000000e+00 0.000000000000e+00 8.217588786007e-05 0.000000000000e+00 0.000000000000e+00 8.217588786008e-05 0.000000000000e+00 0.000000000000e+00 8.217588786010e-05 0.000000000000e+00 0.000000000000e+00 8.217588786011e-05 0.000000000000e+00 0.000000000000e+00 8.217588786013e-05 0.000000000000e+00 0.000000000000e+00 8.217588786014e-05 0.000000000000e+00 0.000000000000e+00 8.217588786016e-05 0.000000000000e+00 0.000000000000e+00 8.217588786018e-05 0.000000000000e+00 0.000000000000e+00 8.217588786019e-05 0.000000000000e+00 0.000000000000e+00 8.217588786020e-05 0.000000000000e+00 0.000000000000e+00 8.217588786022e-05 0.000000000000e+00 0.000000000000e+00 8.217588786024e-05 0.000000000000e+00 0.000000000000e+00 8.217588786025e-05 0.000000000000e+00 0.000000000000e+00 8.217588786027e-05 0.000000000000e+00 0.000000000000e+00 8.217588786028e-05 0.000000000000e+00 0.000000000000e+00 8.217588786030e-05 0.000000000000e+00 0.000000000000e+00 8.217588786031e-05 0.000000000000e+00 0.000000000000e+00 8.217588786032e-05 0.000000000000e+00 0.000000000000e+00 8.217588786033e-05 0.000000000000e+00 0.000000000000e+00 8.217588786035e-05 0.000000000000e+00 0.000000000000e+00 8.217588786036e-05 0.000000000000e+00 0.000000000000e+00 8.217588786037e-05 0.000000000000e+00 0.000000000000e+00 8.217588786038e-05 0.000000000000e+00 0.000000000000e+00 8.217588786039e-05 0.000000000000e+00 0.000000000000e+00 8.217588786040e-05 0.000000000000e+00 0.000000000000e+00 8.217588786041e-05 0.000000000000e+00 0.000000000000e+00 8.217588786042e-05 0.000000000000e+00 0.000000000000e+00 8.217588786043e-05 0.000000000000e+00 0.000000000000e+00 8.217588786043e-05 0.000000000000e+00 0.000000000000e+00 8.217588786044e-05 0.000000000000e+00 0.000000000000e+00 8.217588786045e-05 0.000000000000e+00 0.000000000000e+00 8.217588786045e-05 0.000000000000e+00 0.000000000000e+00 8.217588786046e-05 0.000000000000e+00 0.000000000000e+00 8.217588786046e-05 0.000000000000e+00 0.000000000000e+00 8.217588786046e-05 0.000000000000e+00 0.000000000000e+00 8.217588786046e-05 0.000000000000e+00 0.000000000000e+00 8.217588786046e-05 0.000000000000e+00 0.000000000000e+00 
        </DataArray>
      </PointData>
      <CellData>
      </CellData>
    </Piece>
  </UnstructuredGrid>
</VTKFile>
