 TITLE = "Profiles along polylines"
 VARIABLES = "DIST" "PRESSURE1" "SATURATION1" "TCE" "NAPL_TCE" "TEMPERATURE1" 
 ZONE T="TIME=0.000000000000e+00"
0.000000000000e+00 9.806700000000e+04 1.000000000000e+00 1.000000000000e-10 0.000000000000e+00 2.831500000000e+02 
3.300000000000e-01 9.806700000000e+04 1.000000000000e+00 1.000000000000e-10 0.000000000000e+00 2.831500000000e+02 
6.700000000000e-01 9.806700000000e+04 1.000000000000e+00 1.000000000000e-10 0.000000000000e+00 2.831500000000e+02 
1.000000000000e+00 9.806700000000e+04 1.000000000000e+00 1.000000000000e-10 0.000000000000e+00 2.831500000000e+02 
1.330000000000e+00 9.806700000000e+04 1.000000000000e+00 1.000000000000e-10 0.000000000000e+00 2.831500000000e+02 
1.670000000000e+00 9.806700000000e+04 1.000000000000e+00 1.000000000000e-10 0.000000000000e+00 2.831500000000e+02 
2.000000000000e+00 9.806700000000e+04 1.000000000000e+00 1.000000000000e-10 0.000000000000e+00 2.831500000000e+02 
2.330000000000e+00 9.806700000000e+04 1.000000000000e+00 1.000000000000e-10 0.000000000000e+00 2.831500000000e+02 
2.670000000000e+00 9.806700000000e+04 1.000000000000e+00 1.000000000000e-10 0.000000000000e+00 2.831500000000e+02 
3.000000000000e+00 9.806700000000e+04 1.000000000000e+00 1.000000000000e-10 0.000000000000e+00 2.831500000000e+02 
3.330000000000e+00 9.806700000000e+04 1.000000000000e+00 1.000000000000e-10 0.000000000000e+00 2.831500000000e+02 
3.670000000000e+00 9.806700000000e+04 1.000000000000e+00 1.000000000000e-10 0.000000000000e+00 2.831500000000e+02 
4.000000000000e+00 9.806700000000e+04 1.000000000000e+00 1.000000000000e-10 0.000000000000e+00 2.831500000000e+02 
4.330000000000e+00 9.806700000000e+04 1.000000000000e+00 1.000000000000e-10 0.000000000000e+00 2.831500000000e+02 
4.670000000000e+00 9.806700000000e+04 1.000000000000e+00 1.000000000000e-10 0.000000000000e+00 2.831500000000e+02 
5.000000000000e+00 9.806700000000e+04 9.500000000000e-01 1.206500000000e+01 1.944442500000e+02 2.831500000000e+02 
5.330000000000e+00 9.806700000000e+04 9.500000000000e-01 1.206500000000e+01 1.944442500000e+02 2.831500000000e+02 
5.670000000000e+00 9.806700000000e+04 9.500000000000e-01 1.206500000000e+01 1.944442500000e+02 2.831500000000e+02 
6.000000000000e+00 9.806700000000e+04 9.500000000000e-01 1.206500000000e+01 1.944442500000e+02 2.831500000000e+02 
6.330000000000e+00 9.806700000000e+04 9.500000000000e-01 1.206500000000e+01 1.944442500000e+02 2.831500000000e+02 
6.670000000000e+00 9.806700000000e+04 9.500000000000e-01 1.206500000000e+01 1.944442500000e+02 2.831500000000e+02 
7.000000000000e+00 9.806700000000e+04 9.500000000000e-01 1.206500000000e+01 1.944442500000e+02 2.831500000000e+02 
7.330000000000e+00 9.806700000000e+04 9.500000000000e-01 1.206500000000e+01 1.944442500000e+02 2.831500000000e+02 
7.670000000000e+00 9.806700000000e+04 9.500000000000e-01 1.206500000000e+01 1.944442500000e+02 2.831500000000e+02 
8.000000000000e+00 9.806700000000e+04 9.500000000000e-01 1.206500000000e+01 1.944442500000e+02 2.831500000000e+02 
8.330000000000e+00 9.806700000000e+04 9.500000000000e-01 1.206500000000e+01 1.944442500000e+02 2.831500000000e+02 
8.670000000000e+00 9.806700000000e+04 9.500000000000e-01 1.206500000000e+01 1.944442500000e+02 2.831500000000e+02 
9.000000000000e+00 9.806700000000e+04 9.500000000000e-01 1.206500000000e+01 1.944442500000e+02 2.831500000000e+02 
9.330000000000e+00 9.806700000000e+04 9.500000000000e-01 1.206500000000e+01 1.944442500000e+02 2.831500000000e+02 
9.670000000000e+00 9.806700000000e+04 9.500000000000e-01 1.206500000000e+01 1.944442500000e+02 2.831500000000e+02 
1.000000000000e+01 9.806700000000e+04 9.500000000000e-01 1.206500000000e+01 1.944442500000e+02 2.831500000000e+02 
1.033000000000e+01 9.806700000000e+04 9.500000000000e-01 1.206500000000e+01 1.944442500000e+02 2.831500000000e+02 
1.067000000000e+01 9.806700000000e+04 9.500000000000e-01 1.206500000000e+01 1.944442500000e+02 2.831500000000e+02 
1.100000000000e+01 9.806700000000e+04 9.500000000000e-01 1.206500000000e+01 1.944442500000e+02 2.831500000000e+02 
1.133000000000e+01 9.806700000000e+04 9.500000000000e-01 1.206500000000e+01 1.944442500000e+02 2.831500000000e+02 
1.167000000000e+01 9.806700000000e+04 9.500000000000e-01 1.206500000000e+01 1.944442500000e+02 2.831500000000e+02 
1.200000000000e+01 9.806700000000e+04 9.500000000000e-01 1.206500000000e+01 1.944442500000e+02 2.831500000000e+02 
1.233000000000e+01 9.806700000000e+04 9.500000000000e-01 1.206500000000e+01 1.944442500000e+02 2.831500000000e+02 
1.267000000000e+01 9.806700000000e+04 9.500000000000e-01 1.206500000000e+01 1.944442500000e+02 2.831500000000e+02 
1.300000000000e+01 9.806700000000e+04 9.500000000000e-01 1.206500000000e+01 1.944442500000e+02 2.831500000000e+02 
1.333000000000e+01 9.806700000000e+04 9.500000000000e-01 1.206500000000e+01 1.944442500000e+02 2.831500000000e+02 
1.367000000000e+01 9.806700000000e+04 9.500000000000e-01 1.206500000000e+01 1.944442500000e+02 2.831500000000e+02 
1.400000000000e+01 9.806700000000e+04 9.500000000000e-01 1.206500000000e+01 1.944442500000e+02 2.831500000000e+02 
1.433000000000e+01 9.806700000000e+04 9.500000000000e-01 1.206500000000e+01 1.944442500000e+02 2.831500000000e+02 
1.467000000000e+01 9.806700000000e+04 9.500000000000e-01 1.206500000000e+01 1.944442500000e+02 2.831500000000e+02 
1.500000000000e+01 9.806700000000e+04 9.500000000000e-01 1.206500000000e+01 1.944442500000e+02 2.831500000000e+02 
1.533000000000e+01 9.806700000000e+04 9.500000000000e-01 1.206500000000e+01 1.944442500000e+02 2.831500000000e+02 
1.567000000000e+01 9.806700000000e+04 9.500000000000e-01 1.206500000000e+01 1.944442500000e+02 2.831500000000e+02 
1.600000000000e+01 9.806700000000e+04 9.500000000000e-01 1.206500000000e+01 1.944442500000e+02 2.831500000000e+02 
1.633000000000e+01 9.806700000000e+04 9.500000000000e-01 1.206500000000e+01 1.944442500000e+02 2.831500000000e+02 
1.667000000000e+01 9.806700000000e+04 9.500000000000e-01 1.206500000000e+01 1.944442500000e+02 2.831500000000e+02 
1.700000000000e+01 9.806700000000e+04 9.500000000000e-01 1.206500000000e+01 1.944442500000e+02 2.831500000000e+02 
1.733000000000e+01 9.806700000000e+04 9.500000000000e-01 1.206500000000e+01 1.944442500000e+02 2.831500000000e+02 
1.767000000000e+01 9.806700000000e+04 9.500000000000e-01 1.206500000000e+01 1.944442500000e+02 2.831500000000e+02 
1.800000000000e+01 9.806700000000e+04 9.500000000000e-01 1.206500000000e+01 1.944442500000e+02 2.831500000000e+02 
1.833000000000e+01 9.806700000000e+04 9.500000000000e-01 1.206500000000e+01 1.944442500000e+02 2.831500000000e+02 
1.867000000000e+01 9.806700000000e+04 9.500000000000e-01 1.206500000000e+01 1.944442500000e+02 2.831500000000e+02 
1.900000000000e+01 9.806700000000e+04 9.500000000000e-01 1.206500000000e+01 1.944442500000e+02 2.831500000000e+02 
1.933000000000e+01 9.806700000000e+04 9.500000000000e-01 1.206500000000e+01 1.944442500000e+02 2.831500000000e+02 
1.967000000000e+01 9.806700000000e+04 9.500000000000e-01 1.206500000000e+01 1.944442500000e+02 2.831500000000e+02 
2.000000000000e+01 9.806700000000e+04 9.500000000000e-01 1.206500000000e+01 1.944442500000e+02 2.831500000000e+02 
2.033000000000e+01 9.806700000000e+04 9.500000000000e-01 1.206500000000e+01 1.944442500000e+02 2.831500000000e+02 
2.067000000000e+01 9.806700000000e+04 9.500000000000e-01 1.206500000000e+01 1.944442500000e+02 2.831500000000e+02 
2.100000000000e+01 9.806700000000e+04 9.500000000000e-01 1.206500000000e+01 1.944442500000e+02 2.831500000000e+02 
2.133000000000e+01 9.806700000000e+04 9.500000000000e-01 1.206500000000e+01 1.944442500000e+02 2.831500000000e+02 
2.167000000000e+01 9.806700000000e+04 9.500000000000e-01 1.206500000000e+01 1.944442500000e+02 2.831500000000e+02 
2.200000000000e+01 9.806700000000e+04 9.500000000000e-01 1.206500000000e+01 1.944442500000e+02 2.831500000000e+02 
2.233000000000e+01 9.806700000000e+04 9.500000000000e-01 1.206500000000e+01 1.944442500000e+02 2.831500000000e+02 
2.267000000000e+01 9.806700000000e+04 9.500000000000e-01 1.206500000000e+01 1.944442500000e+02 2.831500000000e+02 
2.300000000000e+01 9.806700000000e+04 9.500000000000e-01 1.206500000000e+01 1.944442500000e+02 2.831500000000e+02 
2.333000000000e+01 9.806700000000e+04 9.500000000000e-01 1.206500000000e+01 1.944442500000e+02 2.831500000000e+02 
2.367000000000e+01 9.806700000000e+04 9.500000000000e-01 1.206500000000e+01 1.944442500000e+02 2.831500000000e+02 
2.400000000000e+01 9.806700000000e+04 9.500000000000e-01 1.206500000000e+01 1.944442500000e+02 2.831500000000e+02 
2.433000000000e+01 9.806700000000e+04 9.500000000000e-01 1.206500000000e+01 1.944442500000e+02 2.831500000000e+02 
2.467000000000e+01 9.806700000000e+04 9.500000000000e-01 1.206500000000e+01 1.944442500000e+02 2.831500000000e+02 
2.500000000000e+01 9.806700000000e+04 9.500000000000e-01 1.206500000000e+01 1.944442500000e+02 2.831500000000e+02 
2.533000000000e+01 9.806700000000e+04 9.500000000000e-01 1.206500000000e+01 1.944442500000e+02 2.831500000000e+02 
2.567000000000e+01 9.806700000000e+04 9.500000000000e-01 1.206500000000e+01 1.944442500000e+02 2.831500000000e+02 
2.600000000000e+01 9.806700000000e+04 9.500000000000e-01 1.206500000000e+01 1.944442500000e+02 2.831500000000e+02 
2.633000000000e+01 9.806700000000e+04 9.500000000000e-01 1.206500000000e+01 1.944442500000e+02 2.831500000000e+02 
2.667000000000e+01 9.806700000000e+04 9.500000000000e-01 1.206500000000e+01 1.944442500000e+02 2.831500000000e+02 
2.700000000000e+01 9.806700000000e+04 9.500000000000e-01 1.206500000000e+01 1.944442500000e+02 2.831500000000e+02 
2.733000000000e+01 9.806700000000e+04 9.500000000000e-01 1.206500000000e+01 1.944442500000e+02 2.831500000000e+02 
2.767000000000e+01 9.806700000000e+04 9.500000000000e-01 1.206500000000e+01 1.944442500000e+02 2.831500000000e+02 
2.800000000000e+01 9.806700000000e+04 9.500000000000e-01 1.206500000000e+01 1.944442500000e+02 2.831500000000e+02 
2.833000000000e+01 9.806700000000e+04 9.500000000000e-01 1.206500000000e+01 1.944442500000e+02 2.831500000000e+02 
2.867000000000e+01 9.806700000000e+04 9.500000000000e-01 1.206500000000e+01 1.944442500000e+02 2.831500000000e+02 
2.900000000000e+01 9.806700000000e+04 9.500000000000e-01 1.206500000000e+01 1.944442500000e+02 2.831500000000e+02 
2.933000000000e+01 9.806700000000e+04 9.500000000000e-01 1.206500000000e+01 1.944442500000e+02 2.831500000000e+02 
2.967000000000e+01 9.806700000000e+04 9.500000000000e-01 1.206500000000e+01 1.944442500000e+02 2.831500000000e+02 
3.000000000000e+01 9.806700000000e+04 9.500000000000e-01 1.206500000000e+01 0.000000000000e+00 2.831500000000e+02 
3.033000000000e+01 9.806700000000e+04 1.000000000000e+00 1.000000000000e-10 0.000000000000e+00 2.831500000000e+02 
3.067000000000e+01 9.806700000000e+04 1.000000000000e+00 1.000000000000e-10 0.000000000000e+00 2.831500000000e+02 
3.100000000000e+01 9.806700000000e+04 1.000000000000e+00 1.000000000000e-10 0.000000000000e+00 2.831500000000e+02 
3.133000000000e+01 9.806700000000e+04 1.000000000000e+00 1.000000000000e-10 0.000000000000e+00 2.831500000000e+02 
3.167000000000e+01 9.806700000000e+04 1.000000000000e+00 1.000000000000e-10 0.000000000000e+00 2.831500000000e+02 
3.200000000000e+01 9.806700000000e+04 1.000000000000e+00 1.000000000000e-10 0.000000000000e+00 2.831500000000e+02 
3.233000000000e+01 9.806700000000e+04 1.000000000000e+00 1.000000000000e-10 0.000000000000e+00 2.831500000000e+02 
3.267000000000e+01 9.806700000000e+04 1.000000000000e+00 1.000000000000e-10 0.000000000000e+00 2.831500000000e+02 
3.300000000000e+01 9.806700000000e+04 1.000000000000e+00 1.000000000000e-10 0.000000000000e+00 2.831500000000e+02 
3.333000000000e+01 9.806700000000e+04 1.000000000000e+00 1.000000000000e-10 0.000000000000e+00 2.831500000000e+02 
3.367000000000e+01 9.806700000000e+04 1.000000000000e+00 1.000000000000e-10 0.000000000000e+00 2.831500000000e+02 
3.400000000000e+01 9.806700000000e+04 1.000000000000e+00 1.000000000000e-10 0.000000000000e+00 2.831500000000e+02 
3.433000000000e+01 9.806700000000e+04 1.000000000000e+00 1.000000000000e-10 0.000000000000e+00 2.831500000000e+02 
3.467000000000e+01 9.806700000000e+04 1.000000000000e+00 1.000000000000e-10 0.000000000000e+00 2.831500000000e+02 
3.500000000000e+01 9.806700000000e+04 1.000000000000e+00 1.000000000000e-10 0.000000000000e+00 2.831500000000e+02 
3.533000000000e+01 9.806700000000e+04 1.000000000000e+00 1.000000000000e-10 0.000000000000e+00 2.831500000000e+02 
3.567000000000e+01 9.806700000000e+04 1.000000000000e+00 1.000000000000e-10 0.000000000000e+00 2.831500000000e+02 
3.600000000000e+01 9.806700000000e+04 1.000000000000e+00 1.000000000000e-10 0.000000000000e+00 2.831500000000e+02 
3.633000000000e+01 9.806700000000e+04 1.000000000000e+00 1.000000000000e-10 0.000000000000e+00 2.831500000000e+02 
3.667000000000e+01 9.806700000000e+04 1.000000000000e+00 1.000000000000e-10 0.000000000000e+00 2.831500000000e+02 
3.700000000000e+01 9.806700000000e+04 1.000000000000e+00 1.000000000000e-10 0.000000000000e+00 2.831500000000e+02 
3.733000000000e+01 9.806700000000e+04 1.000000000000e+00 1.000000000000e-10 0.000000000000e+00 2.831500000000e+02 
3.767000000000e+01 9.806700000000e+04 1.000000000000e+00 1.000000000000e-10 0.000000000000e+00 2.831500000000e+02 
3.800000000000e+01 9.806700000000e+04 1.000000000000e+00 1.000000000000e-10 0.000000000000e+00 2.831500000000e+02 
3.833000000000e+01 9.806700000000e+04 1.000000000000e+00 1.000000000000e-10 0.000000000000e+00 2.831500000000e+02 
3.867000000000e+01 9.806700000000e+04 1.000000000000e+00 1.000000000000e-10 0.000000000000e+00 2.831500000000e+02 
3.900000000000e+01 9.806700000000e+04 1.000000000000e+00 1.000000000000e-10 0.000000000000e+00 2.831500000000e+02 
3.933000000000e+01 9.806700000000e+04 1.000000000000e+00 1.000000000000e-10 0.000000000000e+00 2.831500000000e+02 
3.967000000000e+01 9.806700000000e+04 1.000000000000e+00 1.000000000000e-10 0.000000000000e+00 2.831500000000e+02 
4.000000000000e+01 9.806700000000e+04 1.000000000000e+00 1.000000000000e-10 0.000000000000e+00 2.831500000000e+02 
4.033000000000e+01 9.806700000000e+04 1.000000000000e+00 1.000000000000e-10 0.000000000000e+00 2.831500000000e+02 
4.067000000000e+01 9.806700000000e+04 1.000000000000e+00 1.000000000000e-10 0.000000000000e+00 2.831500000000e+02 
4.100000000000e+01 9.806700000000e+04 1.000000000000e+00 1.000000000000e-10 0.000000000000e+00 2.831500000000e+02 
4.133000000000e+01 9.806700000000e+04 1.000000000000e+00 1.000000000000e-10 0.000000000000e+00 2.831500000000e+02 
4.167000000000e+01 9.806700000000e+04 1.000000000000e+00 1.000000000000e-10 0.000000000000e+00 2.831500000000e+02 
4.200000000000e+01 9.806700000000e+04 1.000000000000e+00 1.000000000000e-10 0.000000000000e+00 2.831500000000e+02 
4.233000000000e+01 9.806700000000e+04 1.000000000000e+00 1.000000000000e-10 0.000000000000e+00 2.831500000000e+02 
4.267000000000e+01 9.806700000000e+04 1.000000000000e+00 1.000000000000e-10 0.000000000000e+00 2.831500000000e+02 
4.300000000000e+01 9.806700000000e+04 1.000000000000e+00 1.000000000000e-10 0.000000000000e+00 2.831500000000e+02 
4.333000000000e+01 9.806700000000e+04 1.000000000000e+00 1.000000000000e-10 0.000000000000e+00 2.831500000000e+02 
4.367000000000e+01 9.806700000000e+04 1.000000000000e+00 1.000000000000e-10 0.000000000000e+00 2.831500000000e+02 
4.400000000000e+01 9.806700000000e+04 1.000000000000e+00 1.000000000000e-10 0.000000000000e+00 2.831500000000e+02 
4.433000000000e+01 9.806700000000e+04 1.000000000000e+00 1.000000000000e-10 0.000000000000e+00 2.831500000000e+02 
4.467000000000e+01 9.806700000000e+04 1.000000000000e+00 1.000000000000e-10 0.000000000000e+00 2.831500000000e+02 
4.500000000000e+01 9.806700000000e+04 1.000000000000e+00 1.000000000000e-10 0.000000000000e+00 2.831500000000e+02 
4.533000000000e+01 9.806700000000e+04 1.000000000000e+00 1.000000000000e-10 0.000000000000e+00 2.831500000000e+02 
4.567000000000e+01 9.806700000000e+04 1.000000000000e+00 1.000000000000e-10 0.000000000000e+00 2.831500000000e+02 
4.600000000000e+01 9.806700000000e+04 1.000000000000e+00 1.000000000000e-10 0.000000000000e+00 2.831500000000e+02 
4.633000000000e+01 9.806700000000e+04 1.000000000000e+00 1.000000000000e-10 0.000000000000e+00 2.831500000000e+02 
4.667000000000e+01 9.806700000000e+04 1.000000000000e+00 1.000000000000e-10 0.000000000000e+00 2.831500000000e+02 
4.700000000000e+01 9.806700000000e+04 1.000000000000e+00 1.000000000000e-10 0.000000000000e+00 2.831500000000e+02 
4.733000000000e+01 9.806700000000e+04 1.000000000000e+00 1.000000000000e-10 0.000000000000e+00 2.831500000000e+02 
4.767000000000e+01 9.806700000000e+04 1.000000000000e+00 1.000000000000e-10 0.000000000000e+00 2.831500000000e+02 
4.800000000000e+01 9.806700000000e+04 1.000000000000e+00 1.000000000000e-10 0.000000000000e+00 2.831500000000e+02 
4.833000000000e+01 9.806700000000e+04 1.000000000000e+00 1.000000000000e-10 0.000000000000e+00 2.831500000000e+02 
4.867000000000e+01 9.806700000000e+04 1.000000000000e+00 1.000000000000e-10 0.000000000000e+00 2.831500000000e+02 
4.900000000000e+01 9.806700000000e+04 1.000000000000e+00 1.000000000000e-10 0.000000000000e+00 2.831500000000e+02 
4.933000000000e+01 9.806700000000e+04 1.000000000000e+00 1.000000000000e-10 0.000000000000e+00 2.831500000000e+02 
4.967000000000e+01 9.806700000000e+04 1.000000000000e+00 1.000000000000e-10 0.000000000000e+00 2.831500000000e+02 
5.000000000000e+01 9.806700000000e+04 1.000000000000e+00 1.000000000000e-10 0.000000000000e+00 2.831500000000e+02 
 ZONE T="TIME=8.640000000000e+06"
0.000000000000e+00 9.810000000000e+04 1.000000000000e+00 1.000000000000e-10 0.000000000000e+00 2.831500000000e+02 
3.300000000000e-01 9.783300235252e+04 1.000000000000e+00 1.000000000000e-10 0.000000000000e+00 2.831500000000e+02 
6.700000000000e-01 9.755791386724e+04 1.000000000000e+00 1.000000000000e-10 0.000000000000e+00 2.831500000000e+02 
1.000000000000e+00 9.729091621978e+04 1.000000000000e+00 1.000000000000e-10 0.000000000000e+00 2.831500000000e+02 
1.330000000000e+00 9.702391857233e+04 1.000000000000e+00 9.999999999995e-11 0.000000000000e+00 2.831500000000e+02 
1.670000000000e+00 9.674883008710e+04 1.000000000000e+00 1.000000000006e-10 0.000000000000e+00 2.831500000000e+02 
2.000000000000e+00 9.648183243970e+04 1.000000000000e+00 9.999999999075e-11 0.000000000000e+00 2.831500000000e+02 
2.330000000000e+00 9.621483479233e+04 1.000000000000e+00 1.000000001367e-10 0.000000000000e+00 2.831500000000e+02 
2.670000000000e+00 9.593974630720e+04 1.000000000000e+00 9.999999835989e-11 0.000000000000e+00 2.831500000000e+02 
3.000000000000e+00 9.567274865991e+04 1.000000000000e+00 1.000000229126e-10 0.000000000000e+00 2.831500000000e+02 
3.330000000000e+00 9.540575101265e+04 1.000000000000e+00 9.999968949097e-11 0.000000000000e+00 2.831500000000e+02 
3.670000000000e+00 9.513066252764e+04 1.000000000000e+00 1.000034747452e-10 0.000000000000e+00 2.831500000000e+02 
4.000000000000e+00 9.486366488047e+04 1.000000000000e+00 9.995574138642e-11 0.000000000000e+00 2.831500000000e+02 
4.330000000000e+00 9.459666723335e+04 1.000000000000e+00 1.005387796603e-10 0.000000000000e+00 2.831500000000e+02 
4.670000000000e+00 9.432157874849e+04 1.000000000000e+00 9.457227794273e-11 0.000000000000e+00 2.831500000000e+02 
5.000000000000e+00 9.405458110146e+04 1.000000000000e+00 1.580731689053e-10 7.959905438007e-26 2.831500000000e+02 
5.330000000000e+00 9.378758345449e+04 1.000000000000e+00 -4.405160751871e-10 9.165404462916e-26 2.831500000000e+02 
5.670000000000e+00 9.351249496980e+04 1.000000000000e+00 3.818884146027e-09 1.603030805037e-16 2.831500000000e+02 
6.000000000000e+00 9.324549732294e+04 1.000000000000e+00 -8.824341998348e-09 1.643126105261e-16 2.831500000000e+02 
6.330000000000e+00 9.297849967615e+04 1.000000000000e+00 -3.572134504007e-07 7.747087405813e-26 2.831500000000e+02 
6.670000000000e+00 9.270341119164e+04 1.000000000000e+00 7.084978695027e-06 8.797858759734e-26 2.831500000000e+02 
7.000000000000e+00 9.243641354499e+04 1.000000000000e+00 -8.537210537466e-05 8.142274498892e-17 2.831500000000e+02 
7.330000000000e+00 9.216941589842e+04 1.000000000000e+00 -5.084957432999e-04 1.448953300832e-13 2.831500000000e+02 
7.670000000000e+00 9.189432741416e+04 1.000000000000e+00 3.838673913105e-02 1.188947322993e-07 2.831500000000e+02 
8.000000000000e+00 9.162732976775e+04 1.000000000000e+00 9.111358992912e-01 5.865545578772e-02 2.831500000000e+02 
8.330000000000e+00 9.135620139564e+04 9.930202398284e-01 1.206513253299e+01 2.624483530649e+01 2.831500000000e+02 
8.670000000000e+00 9.106776368097e+04 9.855587682419e-01 1.206513253277e+01 5.507802070023e+01 2.831500000000e+02 
9.000000000000e+00 9.077927015140e+04 9.796010299624e-01 1.206513253274e+01 7.825568097406e+01 2.831500000000e+02 
9.330000000000e+00 9.048360568007e+04 9.746766490114e-01 1.206513253266e+01 9.748392221249e+01 2.831500000000e+02 
9.670000000000e+00 9.017261096865e+04 9.704855820451e-01 1.206513235679e+01 1.138880476741e+02 2.831500000000e+02 
1.000000000000e+01 8.986550671168e+04 9.671143804369e-01 1.206513251119e+01 1.271055800793e+02 2.831500000000e+02 
1.033000000000e+01 8.955401944023e+04 9.643054527639e-01 1.206513245720e+01 1.381320529474e+02 2.831500000000e+02 
1.067000000000e+01 8.922922010865e+04 9.619020143784e-01 1.207166505490e+01 1.475739759024e+02 2.831500000000e+02 
1.100000000000e+01 8.891079569800e+04 9.599608346336e-01 1.206540807819e+01 1.552083885466e+02 2.831500000000e+02 
1.133000000000e+01 8.858973324937e+04 9.583375175410e-01 1.206547093471e+01 1.615949233737e+02 2.831500000000e+02 
1.167000000000e+01 8.825662033125e+04 9.569461362756e-01 1.206365473443e+01 1.670719681725e+02 2.831500000000e+02 
1.200000000000e+01 8.793140689661e+04 9.558188164221e-01 1.206387424135e+01 1.715107915299e+02 2.831500000000e+02 
1.233000000000e+01 8.760462185641e+04 9.548747199820e-01 1.206406583421e+01 1.752292690429e+02 2.831500000000e+02 
1.267000000000e+01 8.726655480254e+04 9.540642005049e-01 1.206379774458e+01 1.784225225939e+02 2.831500000000e+02 
1.300000000000e+01 8.693730531339e+04 9.534067213560e-01 1.206402773871e+01 1.810132459786e+02 2.831500000000e+02 
1.333000000000e+01 8.660712531636e+04 9.528554643890e-01 1.206421622431e+01 1.831857658806e+02 2.831500000000e+02 
1.367000000000e+01 8.626612407844e+04 9.523816088880e-01 1.206437516651e+01 1.850535009553e+02 2.831500000000e+02 
1.400000000000e+01 8.593448715956e+04 9.519967736769e-01 1.206473731857e+01 1.865704698281e+02 2.831500000000e+02 
1.433000000000e+01 8.560230080907e+04 9.516739462805e-01 1.206501605004e+01 1.878431414945e+02 2.831500000000e+02 
1.467000000000e+01 8.525956686081e+04 9.513962192840e-01 1.206503615759e+01 1.889381463720e+02 2.831500000000e+02 
1.500000000000e+01 8.492652118887e+04 9.511707073890e-01 1.206505225021e+01 1.898273383685e+02 2.831500000000e+02 
1.533000000000e+01 8.459315191386e+04 9.509814992825e-01 1.206506559184e+01 1.905734243931e+02 2.831500000000e+02 
1.567000000000e+01 8.424939727282e+04 9.508187634093e-01 1.206507695185e+01 1.912151538714e+02 2.831500000000e+02 
1.600000000000e+01 8.391552245916e+04 9.506865922433e-01 1.206508610086e+01 1.917363746111e+02 2.831500000000e+02 
1.633000000000e+01 8.358145741021e+04 9.505756771032e-01 1.206509372521e+01 1.921737850864e+02 2.831500000000e+02 
1.667000000000e+01 8.323710270421e+04 9.504802647203e-01 1.206510024547e+01 1.925500679444e+02 2.831500000000e+02 
1.700000000000e+01 8.290274058847e+04 9.504027618367e-01 1.206510551584e+01 1.928557268287e+02 2.831500000000e+02 
1.733000000000e+01 8.256826672434e+04 9.503377157721e-01 1.206510992114e+01 1.931122626317e+02 2.831500000000e+02 
1.767000000000e+01 8.222355951520e+04 9.502817559759e-01 1.206511369806e+01 1.933329663755e+02 2.831500000000e+02 
1.800000000000e+01 8.188891118965e+04 9.502362965229e-01 1.206511675745e+01 1.935122593659e+02 2.831500000000e+02 
1.833000000000e+01 8.155419724976e+04 9.501981411141e-01 1.206511931917e+01 1.936627466383e+02 2.831500000000e+02 
1.867000000000e+01 8.120928306029e+04 9.501653138005e-01 1.206512151873e+01 1.937922207300e+02 2.831500000000e+02 
1.900000000000e+01 8.087446669791e+04 9.501386449731e-01 1.206512330263e+01 1.938974059408e+02 2.831500000000e+02 
1.933000000000e+01 8.053961181933e+04 9.501162602012e-01 1.206512479788e+01 1.939856948396e+02 2.831500000000e+02 
1.967000000000e+01 8.019457612924e+04 9.500970006546e-01 1.206512608285e+01 1.940616577770e+02 2.831500000000e+02 
2.000000000000e+01 7.985966113278e+04 9.500813538142e-01 1.206512712576e+01 1.941233718536e+02 2.831500000000e+02 
2.033000000000e+01 7.952472353045e+04 9.500682201688e-01 1.206512800043e+01 1.941751736034e+02 2.831500000000e+02 
2.067000000000e+01 7.917961652886e+04 9.500569199469e-01 1.206512875248e+01 1.942197440968e+02 2.831500000000e+02 
2.100000000000e+01 7.884464364396e+04 9.500477392718e-01 1.206512936312e+01 1.942559547360e+02 2.831500000000e+02 
2.133000000000e+01 7.850965749242e+04 9.500400330936e-01 1.206512987544e+01 1.942863496931e+02 2.831500000000e+02 
2.167000000000e+01 7.816450864041e+04 9.500334026039e-01 1.206513031606e+01 1.943125019315e+02 2.831500000000e+02 
2.200000000000e+01 7.782950178335e+04 9.500280157230e-01 1.206513067392e+01 1.943337491113e+02 2.831500000000e+02 
2.233000000000e+01 7.749448714101e+04 9.500234939869e-01 1.206513097422e+01 1.943515839694e+02 2.831500000000e+02 
2.267000000000e+01 7.714931372968e+04 9.500196034044e-01 1.206513123255e+01 1.943669294157e+02 2.831500000000e+02 
2.300000000000e+01 7.681428693686e+04 9.500164425184e-01 1.206513144238e+01 1.943793967643e+02 2.831500000000e+02 
2.333000000000e+01 7.647925557550e+04 9.500137892655e-01 1.206513161848e+01 1.943898618851e+02 2.831500000000e+02 
2.367000000000e+01 7.613406775244e+04 9.500115063504e-01 1.206513176998e+01 1.943988663021e+02 2.831500000000e+02 
2.400000000000e+01 7.579902926108e+04 9.500096516005e-01 1.206513189306e+01 1.944061819272e+02 2.831500000000e+02 
2.433000000000e+01 7.546398808895e+04 9.500080947161e-01 1.206513199636e+01 1.944123226943e+02 2.831500000000e+02 
2.467000000000e+01 7.511879180902e+04 9.500067551367e-01 1.206513208523e+01 1.944176063541e+02 2.831500000000e+02 
2.500000000000e+01 7.478374645303e+04 9.500056667959e-01 1.206513215743e+01 1.944218990630e+02 2.831500000000e+02 
2.533000000000e+01 7.444869952396e+04 9.500047532369e-01 1.206513221803e+01 1.944255023863e+02 2.831500000000e+02 
2.567000000000e+01 7.410349828169e+04 9.500039671886e-01 1.206513227017e+01 1.944286027737e+02 2.831500000000e+02 
2.600000000000e+01 7.376844889760e+04 9.500033285632e-01 1.206513231253e+01 1.944311216857e+02 2.831500000000e+02 
2.633000000000e+01 7.343339859057e+04 9.500027924972e-01 1.206513234808e+01 1.944332360759e+02 2.831500000000e+02 
2.667000000000e+01 7.308819443649e+04 9.500023312526e-01 1.206513237868e+01 1.944350553502e+02 2.831500000000e+02 
2.700000000000e+01 7.275314268901e+04 9.500019565139e-01 1.206513240353e+01 1.944365334218e+02 2.831500000000e+02 
2.733000000000e+01 7.241809039994e+04 9.500016419559e-01 1.206513242439e+01 1.944377741247e+02 2.831500000000e+02 
2.767000000000e+01 7.207288453759e+04 9.500013713020e-01 1.206513244234e+01 1.944388416576e+02 2.831500000000e+02 
2.800000000000e+01 7.173783140348e+04 9.500011514112e-01 1.206513245692e+01 1.944397089671e+02 2.831500000000e+02 
2.833000000000e+01 7.140277795176e+04 9.500009667997e-01 1.206513246917e+01 1.944404371235e+02 2.831500000000e+02 
2.867000000000e+01 7.105757108752e+04 9.500008083659e-01 1.206513247970e+01 1.944410620512e+02 2.831500000000e+02 
2.900000000000e+01 7.072251713656e+04 9.500006739352e-01 1.206513248825e+01 1.944415919809e+02 2.831500000000e+02 
2.933000000000e+01 7.038746305553e+04 9.500006426703e-01 1.206513249548e+01 1.944417196067e+02 2.831500000000e+02 
2.967000000000e+01 7.004225496773e+04 9.499996201460e-01 1.206513250108e+01 1.944457008539e+02 2.831500000000e+02 
3.000000000000e+01 6.970719955416e+04 9.500000000000e-01 1.206502561457e+01 0.000000000000e+00 2.831500000000e+02 
3.033000000000e+01 6.940910798284e+04 1.000000000000e+00 1.206502657491e+01 0.000000000000e+00 2.831500000000e+02 
3.067000000000e+01 6.913401950319e+04 1.000000000000e+00 1.206502762906e+01 0.000000000000e+00 2.831500000000e+02 
3.100000000000e+01 6.886702186168e+04 1.000000000000e+00 1.206502865327e+01 0.000000000000e+00 2.831500000000e+02 
3.133000000000e+01 6.860002422042e+04 1.000000000000e+00 1.206502965661e+01 0.000000000000e+00 2.831500000000e+02 
3.167000000000e+01 6.832493574216e+04 1.000000000000e+00 1.206503065100e+01 0.000000000000e+00 2.831500000000e+02 
3.200000000000e+01 6.805793810179e+04 1.000000000000e+00 1.206503156747e+01 0.000000000000e+00 2.831500000000e+02 
3.233000000000e+01 6.779094046204e+04 1.000000000000e+00 1.206503242897e+01 0.000000000000e+00 2.831500000000e+02 
3.267000000000e+01 6.751585198510e+04 1.000000000000e+00 1.206503325377e+01 0.000000000000e+00 2.831500000000e+02 
3.300000000000e+01 6.724885434638e+04 1.000000000000e+00 1.206503399258e+01 0.000000000000e+00 2.831500000000e+02 
3.333000000000e+01 6.698185670806e+04 1.000000000000e+00 1.206503467069e+01 0.000000000000e+00 2.831500000000e+02 
3.367000000000e+01 6.670676823298e+04 1.000000000000e+00 1.206503530629e+01 0.000000000000e+00 2.831500000000e+02 
3.400000000000e+01 6.643977059578e+04 1.000000000000e+00 1.206503586528e+01 0.000000000000e+00 2.831500000000e+02 
3.433000000000e+01 6.617277295942e+04 1.000000000000e+00 1.206503637023e+01 0.000000000000e+00 2.831500000000e+02 
3.467000000000e+01 6.589768448603e+04 1.000000000000e+00 1.206503683664e+01 0.000000000000e+00 2.831500000000e+02 
3.500000000000e+01 6.563068685091e+04 1.000000000000e+00 1.206503724156e+01 0.000000000000e+00 2.831500000000e+02 
3.533000000000e+01 6.536368921629e+04 1.000000000000e+00 1.206503760316e+01 0.000000000000e+00 2.831500000000e+02 
3.567000000000e+01 6.508860074514e+04 1.000000000000e+00 1.206503793366e+01 0.000000000000e+00 2.831500000000e+02 