 TITLE = "Profiles along polylines"
 VARIABLES = "DIST" "PRESSURE1" "SATURATION1" "TCE" "NAPL_TCE" "TEMPERATURE1" 
 ZONE T="TIME=0.000000000000e+00"
0.000000000000e+00 9.806700000000e+04 1.000000000000e+00 1.000000000000e-10 0.000000000000e+00 2.831500000000e+02 
3.300000000000e-01 9.806700000000e+04 1.000000000000e+00 1.000000000000e-10 0.000000000000e+00 2.831500000000e+02 
6.700000000000e-01 9.806700000000e+04 1.000000000000e+00 1.000000000000e-10 0.000000000000e+00 2.831500000000e+02 
1.000000000000e+00 9.806700000000e+04 1.000000000000e+00 1.000000000000e-10 0.000000000000e+00 2.831500000000e+02 
1.330000000000e+00 9.806700000000e+04 1.000000000000e+00 1.000000000000e-10 0.000000000000e+00 2.831500000000e+02 
1.670000000000e+00 9.806700000000e+04 1.000000000000e+00 1.000000000000e-10 0.000000000000e+00 2.831500000000e+02 
2.000000000000e+00 9.806700000000e+04 1.000000000000e+00 1.000000000000e-10 0.000000000000e+00 2.831500000000e+02 
2.330000000000e+00 9.806700000000e+04 1.000000000000e+00 1.000000000000e-10 0.000000000000e+00 2.831500000000e+02 
2.670000000000e+00 9.806700000000e+04 1.000000000000e+00 1.000000000000e-10 0.000000000000e+00 2.831500000000e+02 
3.000000000000e+00 9.806700000000e+04 1.000000000000e+00 1.000000000000e-10 0.000000000000e+00 2.831500000000e+02 
3.330000000000e+00 9.806700000000e+04 1.000000000000e+00 1.000000000000e-10 0.000000000000e+00 2.831500000000e+02 
3.670000000000e+00 9.806700000000e+04 1.000000000000e+00 1.000000000000e-10 0.000000000000e+00 2.831500000000e+02 
4.000000000000e+00 9.806700000000e+04 1.000000000000e+00 1.000000000000e-10 0.000000000000e+00 2.831500000000e+02 
4.330000000000e+00 9.806700000000e+04 1.000000000000e+00 1.000000000000e-10 0.000000000000e+00 2.831500000000e+02 
4.670000000000e+00 9.806700000000e+04 1.000000000000e+00 1.000000000000e-10 0.000000000000e+00 2.831500000000e+02 
5.000000000000e+00 9.806700000000e+04 9.500000000000e-01 1.206500000000e+01 1.944442500000e+02 2.831500000000e+02 
5.330000000000e+00 9.806700000000e+04 9.500000000000e-01 1.206500000000e+01 1.944442500000e+02 2.831500000000e+02 
5.670000000000e+00 9.806700000000e+04 9.500000000000e-01 1.206500000000e+01 1.944442500000e+02 2.831500000000e+02 
6.000000000000e+00 9.806700000000e+04 9.500000000000e-01 1.206500000000e+01 1.944442500000e+02 2.831500000000e+02 
6.330000000000e+00 9.806700000000e+04 9.500000000000e-01 1.206500000000e+01 1.944442500000e+02 2.831500000000e+02 
6.670000000000e+00 9.806700000000e+04 9.500000000000e-01 1.206500000000e+01 1.944442500000e+02 2.831500000000e+02 
7.000000000000e+00 9.806700000000e+04 9.500000000000e-01 1.206500000000e+01 1.944442500000e+02 2.831500000000e+02 
7.330000000000e+00 9.806700000000e+04 9.500000000000e-01 1.206500000000e+01 1.944442500000e+02 2.831500000000e+02 
7.670000000000e+00 9.806700000000e+04 9.500000000000e-01 1.206500000000e+01 1.944442500000e+02 2.831500000000e+02 
8.000000000000e+00 9.806700000000e+04 9.500000000000e-01 1.206500000000e+01 1.944442500000e+02 2.831500000000e+02 
8.330000000000e+00 9.806700000000e+04 9.500000000000e-01 1.206500000000e+01 1.944442500000e+02 2.831500000000e+02 
8.670000000000e+00 9.806700000000e+04 9.500000000000e-01 1.206500000000e+01 1.944442500000e+02 2.831500000000e+02 
9.000000000000e+00 9.806700000000e+04 9.500000000000e-01 1.206500000000e+01 1.944442500000e+02 2.831500000000e+02 
9.330000000000e+00 9.806700000000e+04 9.500000000000e-01 1.206500000000e+01 1.944442500000e+02 2.831500000000e+02 
9.670000000000e+00 9.806700000000e+04 9.500000000000e-01 1.206500000000e+01 1.944442500000e+02 2.831500000000e+02 
1.000000000000e+01 9.806700000000e+04 9.500000000000e-01 1.206500000000e+01 1.944442500000e+02 2.831500000000e+02 
1.033000000000e+01 9.806700000000e+04 9.500000000000e-01 1.206500000000e+01 1.944442500000e+02 2.831500000000e+02 
1.067000000000e+01 9.806700000000e+04 9.500000000000e-01 1.206500000000e+01 1.944442500000e+02 2.831500000000e+02 
1.100000000000e+01 9.806700000000e+04 9.500000000000e-01 1.206500000000e+01 1.944442500000e+02 2.831500000000e+02 
1.133000000000e+01 9.806700000000e+04 9.500000000000e-01 1.206500000000e+01 1.944442500000e+02 2.831500000000e+02 
1.167000000000e+01 9.806700000000e+04 9.500000000000e-01 1.206500000000e+01 1.944442500000e+02 2.831500000000e+02 
1.200000000000e+01 9.806700000000e+04 9.500000000000e-01 1.206500000000e+01 1.944442500000e+02 2.831500000000e+02 
1.233000000000e+01 9.806700000000e+04 9.500000000000e-01 1.206500000000e+01 1.944442500000e+02 2.831500000000e+02 
1.267000000000e+01 9.806700000000e+04 9.500000000000e-01 1.206500000000e+01 1.944442500000e+02 2.831500000000e+02 
1.300000000000e+01 9.806700000000e+04 9.500000000000e-01 1.206500000000e+01 1.944442500000e+02 2.831500000000e+02 
1.333000000000e+01 9.806700000000e+04 9.500000000000e-01 1.206500000000e+01 1.944442500000e+02 2.831500000000e+02 
1.367000000000e+01 9.806700000000e+04 9.500000000000e-01 1.206500000000e+01 1.944442500000e+02 2.831500000000e+02 
1.400000000000e+01 9.806700000000e+04 9.500000000000e-01 1.206500000000e+01 1.944442500000e+02 2.831500000000e+02 
1.433000000000e+01 9.806700000000e+04 9.500000000000e-01 1.206500000000e+01 1.944442500000e+02 2.831500000000e+02 
1.467000000000e+01 9.806700000000e+04 9.500000000000e-01 1.206500000000e+01 1.944442500000e+02 2.831500000000e+02 
1.500000000000e+01 9.806700000000e+04 9.500000000000e-01 1.206500000000e+01 1.944442500000e+02 2.831500000000e+02 
1.533000000000e+01 9.806700000000e+04 9.500000000000e-01 1.206500000000e+01 1.944442500000e+02 2.831500000000e+02 
1.567000000000e+01 9.806700000000e+04 9.500000000000e-01 1.206500000000e+01 1.944442500000e+02 2.831500000000e+02 
1.600000000000e+01 9.806700000000e+04 9.500000000000e-01 1.206500000000e+01 1.944442500000e+02 2.831500000000e+02 
1.633000000000e+01 9.806700000000e+04 9.500000000000e-01 1.206500000000e+01 1.944442500000e+02 2.831500000000e+02 
1.667000000000e+01 9.806700000000e+04 9.500000000000e-01 1.206500000000e+01 1.944442500000e+02 2.831500000000e+02 
1.700000000000e+01 9.806700000000e+04 9.500000000000e-01 1.206500000000e+01 1.944442500000e+02 2.831500000000e+02 
1.733000000000e+01 9.806700000000e+04 9.500000000000e-01 1.206500000000e+01 1.944442500000e+02 2.831500000000e+02 
1.767000000000e+01 9.806700000000e+04 9.500000000000e-01 1.206500000000e+01 1.944442500000e+02 2.831500000000e+02 
1.800000000000e+01 9.806700000000e+04 9.500000000000e-01 1.206500000000e+01 1.944442500000e+02 2.831500000000e+02 
1.833000000000e+01 9.806700000000e+04 9.500000000000e-01 1.206500000000e+01 1.944442500000e+02 2.831500000000e+02 
1.867000000000e+01 9.806700000000e+04 9.500000000000e-01 1.206500000000e+01 1.944442500000e+02 2.831500000000e+02 
1.900000000000e+01 9.806700000000e+04 9.500000000000e-01 1.206500000000e+01 1.944442500000e+02 2.831500000000e+02 
1.933000000000e+01 9.806700000000e+04 9.500000000000e-01 1.206500000000e+01 1.944442500000e+02 2.831500000000e+02 
1.967000000000e+01 9.806700000000e+04 9.500000000000e-01 1.206500000000e+01 1.944442500000e+02 2.831500000000e+02 
2.000000000000e+01 9.806700000000e+04 9.500000000000e-01 1.206500000000e+01 1.944442500000e+02 2.831500000000e+02 
2.033000000000e+01 9.806700000000e+04 9.500000000000e-01 1.206500000000e+01 1.944442500000e+02 2.831500000000e+02 
2.067000000000e+01 9.806700000000e+04 9.500000000000e-01 1.206500000000e+01 1.944442500000e+02 2.831500000000e+02 
2.100000000000e+01 9.806700000000e+04 9.500000000000e-01 1.206500000000e+01 1.944442500000e+02 2.831500000000e+02 
2.133000000000e+01 9.806700000000e+04 9.500000000000e-01 1.206500000000e+01 1.944442500000e+02 2.831500000000e+02 
2.167000000000e+01 9.806700000000e+04 9.500000000000e-01 1.206500000000e+01 1.944442500000e+02 2.831500000000e+02 
2.200000000000e+01 9.806700000000e+04 9.500000000000e-01 1.206500000000e+01 1.944442500000e+02 2.831500000000e+02 
2.233000000000e+01 9.806700000000e+04 9.500000000000e-01 1.206500000000e+01 1.944442500000e+02 2.831500000000e+02 
2.267000000000e+01 9.806700000000e+04 9.500000000000e-01 1.206500000000e+01 1.944442500000e+02 2.831500000000e+02 
2.300000000000e+01 9.806700000000e+04 9.500000000000e-01 1.206500000000e+01 1.944442500000e+02 2.831500000000e+02 
2.333000000000e+01 9.806700000000e+04 9.500000000000e-01 1.206500000000e+01 1.944442500000e+02 2.831500000000e+02 
2.367000000000e+01 9.806700000000e+04 9.500000000000e-01 1.206500000000e+01 1.944442500000e+02 2.831500000000e+02 
2.400000000000e+01 9.806700000000e+04 9.500000000000e-01 1.206500000000e+01 1.944442500000e+02 2.831500000000e+02 
2.433000000000e+01 9.806700000000e+04 9.500000000000e-01 1.206500000000e+01 1.944442500000e+02 2.831500000000e+02 
2.467000000000e+01 9.806700000000e+04 9.500000000000e-01 1.206500000000e+01 1.944442500000e+02 2.831500000000e+02 
2.500000000000e+01 9.806700000000e+04 9.500000000000e-01 1.206500000000e+01 1.944442500000e+02 2.831500000000e+02 
2.533000000000e+01 9.806700000000e+04 9.500000000000e-01 1.206500000000e+01 1.944442500000e+02 2.831500000000e+02 
2.567000000000e+01 9.806700000000e+04 9.500000000000e-01 1.206500000000e+01 1.944442500000e+02 2.831500000000e+02 
2.600000000000e+01 9.806700000000e+04 9.500000000000e-01 1.206500000000e+01 1.944442500000e+02 2.831500000000e+02 
2.633000000000e+01 9.806700000000e+04 9.500000000000e-01 1.206500000000e+01 1.944442500000e+02 2.831500000000e+02 
2.667000000000e+01 9.806700000000e+04 9.500000000000e-01 1.206500000000e+01 1.944442500000e+02 2.831500000000e+02 
2.700000000000e+01 9.806700000000e+04 9.500000000000e-01 1.206500000000e+01 1.944442500000e+02 2.831500000000e+02 
2.733000000000e+01 9.806700000000e+04 9.500000000000e-01 1.206500000000e+01 1.944442500000e+02 2.831500000000e+02 
2.767000000000e+01 9.806700000000e+04 9.500000000000e-01 1.206500000000e+01 1.944442500000e+02 2.831500000000e+02 
2.800000000000e+01 9.806700000000e+04 9.500000000000e-01 1.206500000000e+01 1.944442500000e+02 2.831500000000e+02 
2.833000000000e+01 9.806700000000e+04 9.500000000000e-01 1.206500000000e+01 1.944442500000e+02 2.831500000000e+02 
2.867000000000e+01 9.806700000000e+04 9.500000000000e-01 1.206500000000e+01 1.944442500000e+02 2.831500000000e+02 
2.900000000000e+01 9.806700000000e+04 9.500000000000e-01 1.206500000000e+01 1.944442500000e+02 2.831500000000e+02 
2.933000000000e+01 9.806700000000e+04 9.500000000000e-01 1.206500000000e+01 1.944442500000e+02 2.831500000000e+02 
2.967000000000e+01 9.806700000000e+04 9.500000000000e-01 1.206500000000e+01 1.944442500000e+02 2.831500000000e+02 
3.000000000000e+01 9.806700000000e+04 9.500000000000e-01 1.206500000000e+01 1.944442500000e+02 2.831500000000e+02 
3.033000000000e+01 9.806700000000e+04 1.000000000000e+00 1.000000000000e-10 0.000000000000e+00 2.831500000000e+02 
3.067000000000e+01 9.806700000000e+04 1.000000000000e+00 1.000000000000e-10 0.000000000000e+00 2.831500000000e+02 
3.100000000000e+01 9.806700000000e+04 1.000000000000e+00 1.000000000000e-10 0.000000000000e+00 2.831500000000e+02 
3.133000000000e+01 9.806700000000e+04 1.000000000000e+00 1.000000000000e-10 0.000000000000e+00 2.831500000000e+02 
3.167000000000e+01 9.806700000000e+04 1.000000000000e+00 1.000000000000e-10 0.000000000000e+00 2.831500000000e+02 
3.200000000000e+01 9.806700000000e+04 1.000000000000e+00 1.000000000000e-10 0.000000000000e+00 2.831500000000e+02 
3.233000000000e+01 9.806700000000e+04 1.000000000000e+00 1.000000000000e-10 0.000000000000e+00 2.831500000000e+02 
3.267000000000e+01 9.806700000000e+04 1.000000000000e+00 1.000000000000e-10 0.000000000000e+00 2.831500000000e+02 
3.300000000000e+01 9.806700000000e+04 1.000000000000e+00 1.000000000000e-10 0.000000000000e+00 2.831500000000e+02 
3.333000000000e+01 9.806700000000e+04 1.000000000000e+00 1.000000000000e-10 0.000000000000e+00 2.831500000000e+02 
3.367000000000e+01 9.806700000000e+04 1.000000000000e+00 1.000000000000e-10 0.000000000000e+00 2.831500000000e+02 
3.400000000000e+01 9.806700000000e+04 1.000000000000e+00 1.000000000000e-10 0.000000000000e+00 2.831500000000e+02 
3.433000000000e+01 9.806700000000e+04 1.000000000000e+00 1.000000000000e-10 0.000000000000e+00 2.831500000000e+02 
3.467000000000e+01 9.806700000000e+04 1.000000000000e+00 1.000000000000e-10 0.000000000000e+00 2.831500000000e+02 
3.500000000000e+01 9.806700000000e+04 1.000000000000e+00 1.000000000000e-10 0.000000000000e+00 2.831500000000e+02 
3.533000000000e+01 9.806700000000e+04 1.000000000000e+00 1.000000000000e-10 0.000000000000e+00 2.831500000000e+02 
3.567000000000e+01 9.806700000000e+04 1.000000000000e+00 1.000000000000e-10 0.000000000000e+00 2.831500000000e+02 
3.600000000000e+01 9.806700000000e+04 1.000000000000e+00 1.000000000000e-10 0.000000000000e+00 2.831500000000e+02 
3.633000000000e+01 9.806700000000e+04 1.000000000000e+00 1.000000000000e-10 0.000000000000e+00 2.831500000000e+02 
3.667000000000e+01 9.806700000000e+04 1.000000000000e+00 1.000000000000e-10 0.000000000000e+00 2.831500000000e+02 
3.700000000000e+01 9.806700000000e+04 1.000000000000e+00 1.000000000000e-10 0.000000000000e+00 2.831500000000e+02 
3.733000000000e+01 9.806700000000e+04 1.000000000000e+00 1.000000000000e-10 0.000000000000e+00 2.831500000000e+02 
3.767000000000e+01 9.806700000000e+04 1.000000000000e+00 1.000000000000e-10 0.000000000000e+00 2.831500000000e+02 
3.800000000000e+01 9.806700000000e+04 1.000000000000e+00 1.000000000000e-10 0.000000000000e+00 2.831500000000e+02 
3.833000000000e+01 9.806700000000e+04 1.000000000000e+00 1.000000000000e-10 0.000000000000e+00 2.831500000000e+02 
3.867000000000e+01 9.806700000000e+04 1.000000000000e+00 1.000000000000e-10 0.000000000000e+00 2.831500000000e+02 
3.900000000000e+01 9.806700000000e+04 1.000000000000e+00 1.000000000000e-10 0.000000000000e+00 2.831500000000e+02 
3.933000000000e+01 9.806700000000e+04 1.000000000000e+00 1.000000000000e-10 0.000000000000e+00 2.831500000000e+02 
3.967000000000e+01 9.806700000000e+04 1.000000000000e+00 1.000000000000e-10 0.000000000000e+00 2.831500000000e+02 
4.000000000000e+01 9.806700000000e+04 1.000000000000e+00 1.000000000000e-10 0.000000000000e+00 2.831500000000e+02 
4.033000000000e+01 9.806700000000e+04 1.000000000000e+00 1.000000000000e-10 0.000000000000e+00 2.831500000000e+02 
4.067000000000e+01 9.806700000000e+04 1.000000000000e+00 1.000000000000e-10 0.000000000000e+00 2.831500000000e+02 
4.100000000000e+01 9.806700000000e+04 1.000000000000e+00 1.000000000000e-10 0.000000000000e+00 2.831500000000e+02 
4.133000000000e+01 9.806700000000e+04 1.000000000000e+00 1.000000000000e-10 0.000000000000e+00 2.831500000000e+02 
4.167000000000e+01 9.806700000000e+04 1.000000000000e+00 1.000000000000e-10 0.000000000000e+00 2.831500000000e+02 
4.200000000000e+01 9.806700000000e+04 1.000000000000e+00 1.000000000000e-10 0.000000000000e+00 2.831500000000e+02 
4.233000000000e+01 9.806700000000e+04 1.000000000000e+00 1.000000000000e-10 0.000000000000e+00 2.831500000000e+02 
4.267000000000e+01 9.806700000000e+04 1.000000000000e+00 1.000000000000e-10 0.000000000000e+00 2.831500000000e+02 
4.300000000000e+01 9.806700000000e+04 1.000000000000e+00 1.000000000000e-10 0.000000000000e+00 2.831500000000e+02 
4.333000000000e+01 9.806700000000e+04 1.000000000000e+00 1.000000000000e-10 0.000000000000e+00 2.831500000000e+02 
4.367000000000e+01 9.806700000000e+04 1.000000000000e+00 1.000000000000e-10 0.000000000000e+00 2.831500000000e+02 
4.400000000000e+01 9.806700000000e+04 1.000000000000e+00 1.000000000000e-10 0.000000000000e+00 2.831500000000e+02 
4.433000000000e+01 9.806700000000e+04 1.000000000000e+00 1.000000000000e-10 0.000000000000e+00 2.831500000000e+02 
4.467000000000e+01 9.806700000000e+04 1.000000000000e+00 1.000000000000e-10 0.000000000000e+00 2.831500000000e+02 
4.500000000000e+01 9.806700000000e+04 1.000000000000e+00 1.000000000000e-10 0.000000000000e+00 2.831500000000e+02 
4.533000000000e+01 9.806700000000e+04 1.000000000000e+00 1.000000000000e-10 0.000000000000e+00 2.831500000000e+02 
4.567000000000e+01 9.806700000000e+04 1.000000000000e+00 1.000000000000e-10 0.000000000000e+00 2.831500000000e+02 
4.600000000000e+01 9.806700000000e+04 1.000000000000e+00 1.000000000000e-10 0.000000000000e+00 2.831500000000e+02 
4.633000000000e+01 9.806700000000e+04 1.000000000000e+00 1.000000000000e-10 0.000000000000e+00 2.831500000000e+02 
4.667000000000e+01 9.806700000000e+04 1.000000000000e+00 1.000000000000e-10 0.000000000000e+00 2.831500000000e+02 
4.700000000000e+01 9.806700000000e+04 1.000000000000e+00 1.000000000000e-10 0.000000000000e+00 2.831500000000e+02 
4.733000000000e+01 9.806700000000e+04 1.000000000000e+00 1.000000000000e-10 0.000000000000e+00 2.831500000000e+02 
4.767000000000e+01 9.806700000000e+04 1.000000000000e+00 1.000000000000e-10 0.000000000000e+00 2.831500000000e+02 
4.800000000000e+01 9.806700000000e+04 1.000000000000e+00 1.000000000000e-10 0.000000000000e+00 2.831500000000e+02 
4.833000000000e+01 9.806700000000e+04 1.000000000000e+00 1.000000000000e-10 0.000000000000e+00 2.831500000000e+02 
4.867000000000e+01 9.806700000000e+04 1.000000000000e+00 1.000000000000e-10 0.000000000000e+00 2.831500000000e+02 
4.900000000000e+01 9.806700000000e+04 1.000000000000e+00 1.000000000000e-10 0.000000000000e+00 2.831500000000e+02 
4.933000000000e+01 9.806700000000e+04 1.000000000000e+00 1.000000000000e-10 0.000000000000e+00 2.831500000000e+02 
4.967000000000e+01 9.806700000000e+04 1.000000000000e+00 1.000000000000e-10 0.000000000000e+00 2.831500000000e+02 
5.000000000000e+01 9.806700000000e+04 1.000000000000e+00 1.000000000000e-10 0.000000000000e+00 2.831500000000e+02 
 ZONE T="TIME=8.640000000000e+06"
0.000000000000e+00 9.810000000000e+04 1.000000000000e+00 1.000000000000e-10 0.000000000000e+00 2.831500000000e+02 
3.300000000000e-01 9.783300242421e+04 1.000000000000e+00 1.000000000000e-10 0.000000000000e+00 2.831500000000e+02 
6.700000000000e-01 9.755791401275e+04 1.000000000000e+00 1.000000000000e-10 0.000000000000e+00 2.831500000000e+02 
1.000000000000e+00 9.729091643698e+04 1.000000000000e+00 1.000000000000e-10 0.000000000000e+00 2.831500000000e+02 
1.330000000000e+00 9.702391886110e+04 1.000000000000e+00 9.999999999995e-11 0.000000000000e+00 2.831500000000e+02 
1.670000000000e+00 9.674883044968e+04 1.000000000000e+00 1.000000000006e-10 0.000000000000e+00 2.831500000000e+02 
2.000000000000e+00 9.648183287375e+04 1.000000000000e+00 9.999999999075e-11 0.000000000000e+00 2.831500000000e+02 
2.330000000000e+00 9.621483529795e+04 1.000000000000e+00 1.000000001367e-10 0.000000000000e+00 2.831500000000e+02 
2.670000000000e+00 9.593974688636e+04 1.000000000000e+00 9.999999835988e-11 0.000000000000e+00 2.831500000000e+02 
3.000000000000e+00 9.567274931055e+04 1.000000000000e+00 1.000000229127e-10 0.000000000000e+00 2.831500000000e+02 
3.330000000000e+00 9.540575173457e+04 1.000000000000e+00 9.999968948927e-11 0.000000000000e+00 2.831500000000e+02 
3.670000000000e+00 9.513066332309e+04 1.000000000000e+00 1.000034747606e-10 0.000000000000e+00 2.831500000000e+02 
4.000000000000e+00 9.486366574706e+04 1.000000000000e+00 9.995574123209e-11 0.000000000000e+00 2.831500000000e+02 
4.330000000000e+00 9.459666817111e+04 1.000000000000e+00 1.005387811572e-10 0.000000000000e+00 2.831500000000e+02 
4.670000000000e+00 9.432157975939e+04 1.000000000000e+00 9.457226535857e-11 0.000000000000e+00 2.831500000000e+02 
5.000000000000e+00 9.405458218334e+04 1.000000000000e+00 1.580732803135e-10 7.959895577246e-26 2.831500000000e+02 
5.330000000000e+00 9.378758460723e+04 1.000000000000e+00 -4.405169745329e-10 9.165419870356e-26 2.831500000000e+02 
5.670000000000e+00 9.351249619545e+04 1.000000000000e+00 3.818890071973e-09 1.603031386024e-16 2.831500000000e+02 
6.000000000000e+00 9.324549861934e+04 1.000000000000e+00 -8.824372506150e-09 1.643126612771e-16 2.831500000000e+02 
6.330000000000e+00 9.297850104311e+04 1.000000000000e+00 -3.572134198596e-07 7.747080626540e-26 2.831500000000e+02 
6.670000000000e+00 9.270341263131e+04 1.000000000000e+00 7.084979716626e-06 8.797858759734e-26 2.831500000000e+02 
7.000000000000e+00 9.243641505497e+04 1.000000000000e+00 -8.537209533777e-05 8.142277369672e-17 2.831500000000e+02 
7.330000000000e+00 9.216941747874e+04 1.000000000000e+00 -5.084969096535e-04 1.448953854993e-13 2.831500000000e+02 
7.670000000000e+00 9.189432906665e+04 1.000000000000e+00 3.838676785449e-02 1.188947905197e-07 2.831500000000e+02 
8.000000000000e+00 9.162733149034e+04 1.000000000000e+00 9.111364343209e-01 5.865550118400e-02 2.831500000000e+02 
8.330000000000e+00 9.135620318857e+04 9.930202389620e-01 1.206513253299e+01 2.624483871722e+01 2.831500000000e+02 
8.670000000000e+00 9.106776555011e+04 9.855587703681e-01 1.206513253277e+01 5.507801282471e+01 2.831500000000e+02 
9.000000000000e+00 9.077927209629e+04 9.796010287428e-01 1.206513253274e+01 7.825568588992e+01 2.831500000000e+02 
9.330000000000e+00 9.048360770042e+04 9.746766479363e-01 1.206513253266e+01 9.748392660858e+01 2.831500000000e+02 
9.670000000000e+00 9.017261306832e+04 9.704855810595e-01 1.206513235679e+01 1.138880517422e+02 2.831500000000e+02 
1.000000000000e+01 8.986550888970e+04 9.671143795497e-01 1.206513251119e+01 1.271055837714e+02 2.831500000000e+02 
1.033000000000e+01 8.955402169770e+04 9.643054519730e-01 1.206513245720e+01 1.381320562622e+02 2.831500000000e+02 
1.067000000000e+01 8.922922244895e+04 9.619020136785e-01 1.207166506279e+01 1.475739788522e+02 2.831500000000e+02 
1.100000000000e+01 8.891079811953e+04 9.599608340119e-01 1.206540807786e+01 1.552083911819e+02 2.831500000000e+02 
1.133000000000e+01 8.858973575270e+04 9.583375169895e-01 1.206547093424e+01 1.615949257211e+02 2.831500000000e+02 
1.167000000000e+01 8.825662291958e+04 9.569461357893e-01 1.206365473537e+01 1.670719702496e+02 2.831500000000e+02 
1.200000000000e+01 8.793140956775e+04 9.558188159928e-01 1.206387424219e+01 1.715107933689e+02 2.831500000000e+02 
1.233000000000e+01 8.760462461096e+04 9.548747196038e-01 1.206406583495e+01 1.752292706676e+02 2.831500000000e+02 
1.267000000000e+01 8.726655764321e+04 9.540642001734e-01 1.206379774515e+01 1.784225240212e+02 2.831500000000e+02 
1.300000000000e+01 8.693730823809e+04 9.534067210649e-01 1.206402773923e+01 1.810132472344e+02 2.831500000000e+02 
1.333000000000e+01 8.660712832515e+04 9.528554641337e-01 1.206421622477e+01 1.831857669837e+02 2.831500000000e+02 
1.367000000000e+01 8.626612717422e+04 9.523816086655e-01 1.206437516693e+01 1.850535019184e+02 2.831500000000e+02 
1.400000000000e+01 8.593449033978e+04 9.519967734825e-01 1.206473731877e+01 1.865704706707e+02 2.831500000000e+02 
1.433000000000e+01 8.560230407399e+04 9.516739461110e-01 1.206501605010e+01 1.878431422304e+02 2.831500000000e+02 
1.467000000000e+01 8.525957021300e+04 9.513962191370e-01 1.206503615764e+01 1.889381470112e+02 2.831500000000e+02 
1.500000000000e+01 8.492652462593e+04 9.511707072611e-01 1.206505225025e+01 1.898273389251e+02 2.831500000000e+02 
1.533000000000e+01 8.459315543585e+04 9.509814991714e-01 1.206506559188e+01 1.905734248773e+02 2.831500000000e+02 
1.567000000000e+01 8.424940088237e+04 9.508187633132e-01 1.206507695189e+01 1.912151542903e+02 2.831500000000e+02 
1.600000000000e+01 8.391552615379e+04 9.506865921600e-01 1.206508610089e+01 1.917363749746e+02 2.831500000000e+02 
1.633000000000e+01 8.358146118989e+04 9.505756770311e-01 1.206509372524e+01 1.921737854015e+02 2.831500000000e+02 
1.667000000000e+01 8.323710657162e+04 9.504802646581e-01 1.206510024550e+01 1.925500682160e+02 2.831500000000e+02 
1.700000000000e+01 8.290274454096e+04 9.504027617830e-01 1.206510551586e+01 1.928557270635e+02 2.831500000000e+02 
1.733000000000e+01 8.256827076202e+04 9.503377157258e-01 1.206510992116e+01 1.931122628345e+02 2.831500000000e+02 
1.767000000000e+01 8.222356364055e+04 9.502817559361e-01 1.206511369808e+01 1.933329665497e+02 2.831500000000e+02 
1.800000000000e+01 8.188891540023e+04 9.502362964886e-01 1.206511675746e+01 1.935122595161e+02 2.831500000000e+02 
1.833000000000e+01 8.155420154547e+04 9.501981410846e-01 1.206511931918e+01 1.936627467676e+02 2.831500000000e+02 
1.867000000000e+01 8.120928744386e+04 9.501653137752e-01 1.206512151874e+01 1.937922208408e+02 2.831500000000e+02 
1.900000000000e+01 8.087447116669e+04 9.501386449514e-01 1.206512330264e+01 1.938974060361e+02 2.831500000000e+02 
1.933000000000e+01 8.053961637343e+04 9.501162601826e-01 1.206512479789e+01 1.939856949214e+02 2.831500000000e+02 
1.967000000000e+01 8.019458077124e+04 9.500970006387e-01 1.206512608286e+01 1.940616578469e+02 2.831500000000e+02 
2.000000000000e+01 7.985966586013e+04 9.500813538006e-01 1.206512712576e+01 1.941233719136e+02 2.831500000000e+02 
2.033000000000e+01 7.952472834317e+04 9.500682201571e-01 1.206512800044e+01 1.941751736548e+02 2.831500000000e+02 
2.067000000000e+01 7.917962142952e+04 9.500569199369e-01 1.206512875249e+01 1.942197441406e+02 2.831500000000e+02 
2.100000000000e+01 7.884464863005e+04 9.500477392633e-01 1.206512936313e+01 1.942559547735e+02 2.831500000000e+02 
2.133000000000e+01 7.850966256388e+04 9.500400330864e-01 1.206512987544e+01 1.942863497252e+02 2.831500000000e+02 
2.167000000000e+01 7.816451379997e+04 9.500334025978e-01 1.206513031607e+01 1.943125019588e+02 2.831500000000e+02 
2.200000000000e+01 7.782950702831e+04 9.500280157177e-01 1.206513067393e+01 1.943337491346e+02 2.831500000000e+02 
2.233000000000e+01 7.749449247154e+04 9.500234939824e-01 1.206513097423e+01 1.943515839892e+02 2.831500000000e+02 
2.267000000000e+01 7.714931914823e+04 9.500196034006e-01 1.206513123255e+01 1.943669294325e+02 2.831500000000e+02 
2.300000000000e+01 7.681429244097e+04 9.500164425152e-01 1.206513144238e+01 1.943793967787e+02 2.831500000000e+02 
2.333000000000e+01 7.647926116503e+04 9.500137892627e-01 1.206513161848e+01 1.943898618974e+02 2.831500000000e+02 
2.367000000000e+01 7.613407343007e+04 9.500115063481e-01 1.206513176999e+01 1.943988663124e+02 2.831500000000e+02 
2.400000000000e+01 7.579903502413e+04 9.500096515985e-01 1.206513189306e+01 1.944061819361e+02 2.831500000000e+02 
2.433000000000e+01 7.546399393744e+04 9.500080947144e-01 1.206513199636e+01 1.944123227018e+02 2.831500000000e+02 
2.467000000000e+01 7.511879774554e+04 9.500067551353e-01 1.206513208523e+01 1.944176063605e+02 2.831500000000e+02 
2.500000000000e+01 7.478375247494e+04 9.500056667947e-01 1.206513215743e+01 1.944218990684e+02 2.831500000000e+02 
2.533000000000e+01 7.444870563134e+04 9.500047532359e-01 1.206513221803e+01 1.944255023909e+02 2.831500000000e+02 
2.567000000000e+01 7.410350447695e+04 9.500039671877e-01 1.206513227017e+01 1.944286027776e+02 2.831500000000e+02 
2.600000000000e+01 7.376845517836e+04 9.500033285625e-01 1.206513231253e+01 1.944311216890e+02 2.831500000000e+02 
2.633000000000e+01 7.343340495647e+04 9.500027924966e-01 1.206513234808e+01 1.944332360787e+02 2.831500000000e+02 
2.667000000000e+01 7.308820089040e+04 9.500023312521e-01 1.206513237868e+01 1.944350553526e+02 2.831500000000e+02 
2.700000000000e+01 7.275314922786e+04 9.500019565135e-01 1.206513240353e+01 1.944365334238e+02 2.831500000000e+02 
2.733000000000e+01 7.241809702401e+04 9.500016419555e-01 1.206513242439e+01 1.944377741263e+02 2.831500000000e+02 
2.767000000000e+01 7.207289124894e+04 9.500013713016e-01 1.206513244234e+01 1.944388416593e+02 2.831500000000e+02 
2.800000000000e+01 7.173783819979e+04 9.500011514119e-01 1.206513245693e+01 1.944397089644e+02 2.831500000000e+02 
2.833000000000e+01 7.140278483249e+04 9.500009667851e-01 1.206513246917e+01 1.944404371804e+02 2.831500000000e+02 
2.867000000000e+01 7.105757805558e+04 9.500008085368e-01 1.206513247970e+01 1.944410613866e+02 2.831500000000e+02 
2.900000000000e+01 7.072252418692e+04 9.500006714935e-01 1.206513248826e+01 1.944416014792e+02 2.831500000000e+02 
2.933000000000e+01 7.038747021549e+04 9.500006775087e-01 1.206513249544e+01 1.944415840848e+02 2.831500000000e+02 
2.967000000000e+01 7.004226190619e+04 9.499992052839e-01 1.206513250165e+01 1.944473146753e+02 2.831500000000e+02 
3.000000000000e+01 6.970722083737e+04 9.500185629308e-01 1.206513250684e+01 1.943720577439e+02 2.831500000000e+02 
3.033000000000e+01 6.940914154883e+04 1.000000000000e+00 1.206504306175e+01 0.000000000000e+00 2.831500000000e+02 
3.067000000000e+01 6.913405313703e+04 1.000000000000e+00 1.206504391892e+01 0.000000000000e+00 2.831500000000e+02 
3.100000000000e+01 6.886705556109e+04 1.000000000000e+00 1.206504477574e+01 0.000000000000e+00 2.831500000000e+02 
3.133000000000e+01 6.860005798493e+04 1.000000000000e+00 1.206504563266e+01 0.000000000000e+00 2.831500000000e+02 
3.167000000000e+01 6.832496957346e+04 1.000000000000e+00 1.206504649600e+01 0.000000000000e+00 2.831500000000e+02 
3.200000000000e+01 6.805797199729e+04 1.000000000000e+00 1.206504730208e+01 0.000000000000e+00 2.831500000000e+02 
3.233000000000e+01 6.779097442152e+04 1.000000000000e+00 1.206504806780e+01 0.000000000000e+00 2.831500000000e+02 
3.267000000000e+01 6.751588600969e+04 1.000000000000e+00 1.206504880753e+01 0.000000000000e+00 2.831500000000e+02 
3.300000000000e+01 6.724888843393e+04 1.000000000000e+00 1.206504947520e+01 0.000000000000e+00 2.831500000000e+02 
3.333000000000e+01 6.698189085770e+04 1.000000000000e+00 1.206505009200e+01 0.000000000000e+00 2.831500000000e+02 
3.367000000000e+01 6.670680244627e+04 1.000000000000e+00 1.206505067352e+01 0.000000000000e+00 2.831500000000e+02 
3.400000000000e+01 6.643980487003e+04 1.000000000000e+00 1.206505118758e+01 0.000000000000e+00 2.831500000000e+02 
3.433000000000e+01 6.617280729418e+04 1.000000000000e+00 1.206505165402e+01 0.000000000000e+00 2.831500000000e+02 
3.467000000000e+01 6.589771888235e+04 1.000000000000e+00 1.206505208667e+01 0.000000000000e+00 2.831500000000e+02 
3.500000000000e+01 6.563072130643e+04 1.000000000000e+00 1.206505246366e+01 0.000000000000e+00 2.831500000000e+02 
3.533000000000e+01 6.536372373029e+04 1.000000000000e+00 1.206505280141e+01 0.000000000000e+00 2.831500000000e+02 
3.567000000000e+01 6.508863531862e+04 1.000000000000e+00 1.206505311103e+01 0.000000000000e+00 2.831500000000e+02 