 TITLE = "Time curves in points"
 VARIABLES = "TIME "  "TCE" 
 ZONE T="POINT=POINT4"
0.000000000000e+00 1.206500000000e+01 
4.320000000000e+04 1.206513253275e+01 
8.640000000000e+04 1.206513248137e+01 
1.296000000000e+05 1.206513084916e+01 
1.728000000000e+05 1.206513223201e+01 
2.160000000000e+05 1.206513247296e+01 
2.592000000000e+05 1.206513251739e+01 
3.024000000000e+05 1.206513252593e+01 
3.456000000000e+05 1.206513252763e+01 
3.888000000000e+05 1.206513252797e+01 
4.320000000000e+05 1.206513252805e+01 
4.752000000000e+05 1.206513252807e+01 
5.184000000000e+05 1.206513252807e+01 
5.616000000000e+05 1.206513252808e+01 
6.048000000000e+05 1.206513252808e+01 
6.480000000000e+05 1.206513252808e+01 
6.912000000000e+05 1.206513252808e+01 
7.344000000000e+05 1.206513252809e+01 
7.776000000000e+05 1.206513252809e+01 
8.208000000000e+05 1.206513252809e+01 
8.640000000000e+05 1.206513252810e+01 
9.072000000000e+05 1.206513252810e+01 
9.504000000000e+05 1.206513252810e+01 
9.936000000000e+05 1.206513252811e+01 
1.036800000000e+06 1.206513252811e+01 
1.080000000000e+06 1.206513252811e+01 
1.123200000000e+06 1.206513252811e+01 
1.166400000000e+06 1.206513252812e+01 
1.209600000000e+06 1.206513252812e+01 
1.252800000000e+06 1.206513252812e+01 
1.296000000000e+06 1.206513252813e+01 
1.339200000000e+06 1.206513252813e+01 
1.382400000000e+06 1.206513252813e+01 
1.425600000000e+06 1.206513252814e+01 
1.468800000000e+06 1.206513252814e+01 
1.512000000000e+06 1.206513252814e+01 
1.555200000000e+06 1.206513252814e+01 
1.598400000000e+06 1.206513252815e+01 
1.641600000000e+06 1.206513252815e+01 
1.684800000000e+06 1.206513252815e+01 
1.728000000000e+06 1.206513252816e+01 
1.771200000000e+06 1.206513252816e+01 
1.814400000000e+06 1.206513252816e+01 
1.857600000000e+06 1.206513252817e+01 
1.900800000000e+06 1.206513252817e+01 
1.944000000000e+06 1.206513252817e+01 
1.987200000000e+06 1.206513252817e+01 
2.030400000000e+06 1.206513252818e+01 
2.073600000000e+06 1.206513252818e+01 
2.116800000000e+06 1.206513252818e+01 
2.160000000000e+06 1.206513252818e+01 
2.203200000000e+06 1.206513252819e+01 
2.246400000000e+06 1.206513252819e+01 
2.289600000000e+06 1.206513252819e+01 
2.332800000000e+06 1.206513252820e+01 
2.376000000000e+06 1.206513252820e+01 
2.419200000000e+06 1.206513252820e+01 
2.462400000000e+06 1.206513252821e+01 
2.505600000000e+06 1.206513252821e+01 
2.548800000000e+06 1.206513252821e+01 
2.592000000000e+06 1.206513252821e+01 
2.635200000000e+06 1.206513252822e+01 
2.678400000000e+06 1.206513252822e+01 
2.721600000000e+06 1.206513252822e+01 
2.764800000000e+06 1.206513252823e+01 
2.808000000000e+06 1.206513252823e+01 
2.851200000000e+06 1.206513252823e+01 
2.894400000000e+06 1.206513252823e+01 
2.937600000000e+06 1.206513252824e+01 
2.980800000000e+06 1.206513252824e+01 
3.024000000000e+06 1.206513252824e+01 
3.067200000000e+06 1.206513252824e+01 
3.110400000000e+06 1.206513252825e+01 
3.153600000000e+06 1.206513252825e+01 
3.196800000000e+06 1.206513252825e+01 
3.240000000000e+06 1.206513252826e+01 
3.283200000000e+06 1.206513252826e+01 
3.326400000000e+06 1.206513252826e+01 
3.369600000000e+06 1.206513252827e+01 
3.412800000000e+06 1.206513252810e+01 
3.456000000000e+06 1.206513252771e+01 
3.499200000000e+06 1.206513252751e+01 
3.542400000000e+06 1.206513252743e+01 
3.585600000000e+06 1.206513252740e+01 
3.628800000000e+06 1.206513252739e+01 
3.672000000000e+06 1.206513252738e+01 
3.715200000000e+06 1.206513252739e+01 
3.758400000000e+06 1.206513252739e+01 
3.801600000000e+06 1.206513252740e+01 
3.844800000000e+06 1.206513252740e+01 
3.888000000000e+06 1.206513252740e+01 
3.931200000000e+06 1.206513252741e+01 
3.974400000000e+06 1.206513252726e+01 
4.017600000000e+06 1.206513252676e+01 
4.060800000000e+06 1.206513252650e+01 
4.104000000000e+06 1.206513252639e+01 
4.147200000000e+06 1.206513252635e+01 
4.190400000000e+06 1.206513252633e+01 
4.233600000000e+06 1.206513252634e+01 
4.276800000000e+06 1.206513252634e+01 
4.320000000000e+06 1.206513252634e+01 
4.363200000000e+06 1.206513252635e+01 
4.406400000000e+06 1.206513252635e+01 
4.449600000000e+06 1.206513252635e+01 
4.492800000000e+06 1.206513252636e+01 
4.536000000000e+06 1.206513252636e+01 
4.579200000000e+06 1.206513252584e+01 
4.622400000000e+06 1.206513252539e+01 
4.665600000000e+06 1.206513252520e+01 
4.708800000000e+06 1.206513252512e+01 
4.752000000000e+06 1.206513252509e+01 
4.795200000000e+06 1.206513252509e+01 
4.838400000000e+06 1.206513252508e+01 
4.881600000000e+06 1.206513252509e+01 
4.924800000000e+06 1.206513252509e+01 
4.968000000000e+06 1.206513252510e+01 
5.011200000000e+06 1.206513252511e+01 
5.054400000000e+06 1.206513252511e+01 
5.097600000000e+06 1.206513252511e+01 
5.140800000000e+06 1.206513252457e+01 
5.184000000000e+06 1.206513252402e+01 
5.227200000000e+06 1.206513252376e+01 
5.270400000000e+06 1.206513252366e+01 
5.313600000000e+06 1.206513252362e+01 
5.356800000000e+06 1.206513252361e+01 
5.400000000000e+06 1.206513252361e+01 
5.443200000000e+06 1.206513252361e+01 
5.486400000000e+06 1.206513252362e+01 
5.529600000000e+06 1.206513252363e+01 
5.572800000000e+06 1.206513252363e+01 
5.616000000000e+06 1.206513252364e+01 
5.659200000000e+06 1.206513253269e+01 
5.702400000000e+06 1.206513252313e+01 
5.745600000000e+06 1.206513252238e+01 
5.788800000000e+06 1.206513252203e+01 
5.832000000000e+06 1.206513252190e+01 
5.875200000000e+06 1.206513252184e+01 
5.918400000000e+06 1.206513252182e+01 
5.961600000000e+06 1.206513252182e+01 
6.004800000000e+06 1.206513252183e+01 
6.048000000000e+06 1.206513252183e+01 
6.091200000000e+06 1.206513252184e+01 
6.134400000000e+06 1.206513252185e+01 
6.177600000000e+06 1.206513252186e+01 
6.220800000000e+06 1.206513252186e+01 
6.264000000000e+06 1.206513252175e+01 
6.307200000000e+06 1.206513252065e+01 
6.350400000000e+06 1.206513252007e+01 
6.393600000000e+06 1.206513251982e+01 
6.436800000000e+06 1.206513251973e+01 
6.480000000000e+06 1.206513251970e+01 
6.523200000000e+06 1.206513251969e+01 
6.566400000000e+06 1.206513251969e+01 
6.609600000000e+06 1.206513251970e+01 
6.652800000000e+06 1.206513251970e+01 
6.696000000000e+06 1.206513251972e+01 
6.739200000000e+06 1.206513251973e+01 
6.782400000000e+06 1.206513251974e+01 
6.825600000000e+06 1.206513251972e+01 
6.868800000000e+06 1.206513251838e+01 
6.912000000000e+06 1.206513251766e+01 
6.955200000000e+06 1.206513251735e+01 
6.998400000000e+06 1.206513251723e+01 
7.041600000000e+06 1.206513251719e+01 
7.084800000000e+06 1.206513251717e+01 
7.128000000000e+06 1.206513251718e+01 
7.171200000000e+06 1.206513251718e+01 
7.214400000000e+06 1.206513251719e+01 
7.257600000000e+06 1.206513251721e+01 
7.300800000000e+06 1.206513251722e+01 
7.344000000000e+06 1.206513251723e+01 
7.387200000000e+06 1.206513251724e+01 
7.430400000000e+06 1.206513251571e+01 
7.473600000000e+06 1.206513251476e+01 
7.516800000000e+06 1.206513251436e+01 
7.560000000000e+06 1.206513251420e+01 
7.603200000000e+06 1.206513251414e+01 
7.646400000000e+06 1.206513251412e+01 
7.689600000000e+06 1.206513251413e+01 
7.732800000000e+06 1.206513251414e+01 
7.776000000000e+06 1.206513251415e+01 
7.819200000000e+06 1.206513251424e+01 
7.862400000000e+06 1.206513251417e+01 
7.905600000000e+06 1.206513251419e+01 
7.948800000000e+06 1.206513251420e+01 
7.992000000000e+06 1.206513251337e+01 
8.035200000000e+06 1.206513251180e+01 
8.078400000000e+06 1.206513251098e+01 
8.121600000000e+06 1.206513251067e+01 
8.164800000000e+06 1.206513251054e+01 
8.208000000000e+06 1.206513251051e+01 
8.251200000000e+06 1.206513251049e+01 
8.294400000000e+06 1.206513251050e+01 
8.337600000000e+06 1.206513251051e+01 
8.380800000000e+06 1.206513251053e+01 
8.424000000000e+06 1.206513251055e+01 
8.467200000000e+06 1.206513251056e+01 
8.510400000000e+06 1.206513251058e+01 
8.553600000000e+06 1.206513250984e+01 
8.596800000000e+06 1.206513250787e+01 
8.640000000000e+06 1.206513250684e+01 
8.683200000000e+06 1.206513250644e+01 
8.726400000000e+06 1.206513250628e+01 
8.769600000000e+06 1.206513250623e+01 
8.812800000000e+06 1.206513250621e+01 
8.856000000000e+06 1.206513250622e+01 
8.899200000000e+06 1.206513250623e+01 
8.942400000000e+06 1.206513250626e+01 
8.985600000000e+06 1.206513250628e+01 
9.028800000000e+06 1.206513250630e+01 
9.072000000000e+06 1.206513250631e+01 
9.115200000000e+06 1.206513250570e+01 
9.158400000000e+06 1.206513250317e+01 
9.201600000000e+06 1.206513250188e+01 
9.244800000000e+06 1.206513250132e+01 
9.288000000000e+06 1.206513250110e+01 
9.331200000000e+06 1.206513250098e+01 
9.374400000000e+06 1.206513250102e+01 
9.417600000000e+06 1.206513250103e+01 
9.460800000000e+06 1.206513250105e+01 
9.504000000000e+06 1.206513250107e+01 
9.547200000000e+06 1.206513250109e+01 
9.590400000000e+06 1.206513250111e+01 
9.633600000000e+06 1.206513250113e+01 
9.676800000000e+06 1.206513250115e+01 
9.720000000000e+06 1.206513249862e+01 
9.763200000000e+06 1.206513249642e+01 
9.806400000000e+06 1.206513249543e+01 
9.849600000000e+06 1.206513249502e+01 
9.892800000000e+06 1.206513249488e+01 
9.936000000000e+06 1.206513249484e+01 
9.979200000000e+06 1.206513249482e+01 
1.002240000000e+07 1.206513249484e+01 
1.006560000000e+07 1.206513249486e+01 
1.010880000000e+07 1.206513249490e+01 
1.015200000000e+07 1.206513249493e+01 
1.019520000000e+07 1.206513249495e+01 
1.023840000000e+07 1.206513249497e+01 
1.028160000000e+07 1.206513249241e+01 
1.032480000000e+07 1.206513248964e+01 
1.036800000000e+07 1.206513248831e+01 
1.041120000000e+07 1.206513248781e+01 
1.045440000000e+07 1.206513248760e+01 
1.049760000000e+07 1.206513248750e+01 
1.054080000000e+07 1.206513248752e+01 
1.058400000000e+07 1.206513248754e+01 
1.062720000000e+07 1.206513248757e+01 
1.067040000000e+07 1.206513248762e+01 
1.071360000000e+07 1.206513248765e+01 
1.075680000000e+07 1.206513248791e+01 
1.080000000000e+07 1.206513248771e+01 
1.084320000000e+07 1.206513248512e+01 
1.088640000000e+07 1.206513248151e+01 
1.092960000000e+07 1.206513247980e+01 
1.097280000000e+07 1.206513247906e+01 
1.101600000000e+07 1.206513247877e+01 
1.105920000000e+07 1.206513247867e+01 
1.110240000000e+07 1.206513247869e+01 
1.114560000000e+07 1.206513247871e+01 
1.118880000000e+07 1.206513247874e+01 
1.123200000000e+07 1.206513247877e+01 
1.127520000000e+07 1.206513247881e+01 
1.131840000000e+07 1.206513247884e+01 
1.136160000000e+07 1.206513247888e+01 
1.140480000000e+07 1.206513247854e+01 
1.144800000000e+07 1.206513247299e+01 
1.149120000000e+07 1.206513247007e+01 
1.153440000000e+07 1.206513246881e+01 
1.157760000000e+07 1.206513246832e+01 
1.162080000000e+07 1.206513246817e+01 
1.166400000000e+07 1.206513246810e+01 
1.170720000000e+07 1.206513246812e+01 
1.175040000000e+07 1.206513246815e+01 
1.179360000000e+07 1.206513246819e+01 
1.183680000000e+07 1.206513246826e+01 
1.188000000000e+07 1.206513246831e+01 
1.192320000000e+07 1.206513246835e+01 
1.196640000000e+07 1.206513246835e+01 
1.200960000000e+07 1.206513246187e+01 
1.205280000000e+07 1.206513245820e+01 
1.209600000000e+07 1.206513245659e+01 
1.213920000000e+07 1.206513245596e+01 
1.218240000000e+07 1.206513245575e+01 
1.222560000000e+07 1.206513245567e+01 
1.226880000000e+07 1.206513245568e+01 
1.231200000000e+07 1.206513245572e+01 
1.235520000000e+07 1.206513245577e+01 
1.239840000000e+07 1.206513245586e+01 
1.244160000000e+07 1.206513245591e+01 
1.248480000000e+07 1.206513245596e+01 
1.252800000000e+07 1.206513245600e+01 
1.257120000000e+07 1.206513244877e+01 
1.261440000000e+07 1.206513244393e+01 
1.265760000000e+07 1.206513244181e+01 
1.270080000000e+07 1.206513244097e+01 
1.274400000000e+07 1.206513244069e+01 
1.278720000000e+07 1.206513244057e+01 
1.283040000000e+07 1.206513244063e+01 
1.287360000000e+07 1.206513244067e+01 
1.291680000000e+07 1.206513244073e+01 
1.296000000000e+07 1.206513244078e+01 
1.300320000000e+07 1.206513244084e+01 
1.304640000000e+07 1.206513244090e+01 
1.308960000000e+07 1.206513244096e+01 
1.313280000000e+07 1.206513243715e+01 
1.317600000000e+07 1.206513242922e+01 
1.321920000000e+07 1.206513242511e+01 
1.326240000000e+07 1.206513242351e+01 
1.330560000000e+07 1.206513242286e+01 
1.334880000000e+07 1.206513242267e+01 
1.339200000000e+07 1.206513242259e+01 
1.343520000000e+07 1.206513242262e+01 
1.347840000000e+07 1.206513242268e+01 
1.352160000000e+07 1.206513242281e+01 
1.356480000000e+07 1.206513242288e+01 
1.360800000000e+07 1.206513242295e+01 
1.365120000000e+07 1.206513242302e+01 
1.369440000000e+07 1.206513241963e+01 
1.373760000000e+07 1.206513240977e+01 
1.378080000000e+07 1.206513240460e+01 
1.382400000000e+07 1.206513240257e+01 
1.386720000000e+07 1.206513240174e+01 
1.391040000000e+07 1.206513240150e+01 
1.395360000000e+07 1.206513240140e+01 
1.399680000000e+07 1.206513240143e+01 
1.404000000000e+07 1.206513240150e+01 
1.408320000000e+07 1.206513240165e+01 
1.412640000000e+07 1.206513240174e+01 
1.416960000000e+07 1.206513240182e+01 
1.421280000000e+07 1.206513240191e+01 
1.425600000000e+07 1.206513239916e+01 
1.429920000000e+07 1.206513238652e+01 
1.434240000000e+07 1.206513238002e+01 
1.438560000000e+07 1.206513237721e+01 
1.442880000000e+07 1.206513237613e+01 
1.447200000000e+07 1.206513237554e+01 
1.451520000000e+07 1.206513237573e+01 
1.455840000000e+07 1.206513237578e+01 
1.460160000000e+07 1.206513237586e+01 
1.464480000000e+07 1.206513237596e+01 
1.468800000000e+07 1.206513237605e+01 
1.473120000000e+07 1.206513237615e+01 
1.477440000000e+07 1.206513237625e+01 
1.481760000000e+07 1.206513237635e+01 
1.486080000000e+07 1.206513236437e+01 
1.490400000000e+07 1.206513235321e+01 
1.494720000000e+07 1.206513234815e+01 
1.499040000000e+07 1.206513234605e+01 
1.503360000000e+07 1.206513234532e+01 
1.507680000000e+07 1.206513234512e+01 
1.512000000000e+07 1.206513234502e+01 
1.516320000000e+07 1.206513234510e+01 
1.520640000000e+07 1.206513234520e+01 
1.524960000000e+07 1.206513234542e+01 
1.529280000000e+07 1.206513234554e+01 
1.533600000000e+07 1.206513234566e+01 
1.537920000000e+07 1.206513234578e+01 
1.542240000000e+07 1.206513233356e+01 
1.546560000000e+07 1.206513231961e+01 
1.550880000000e+07 1.206513231291e+01 
1.555200000000e+07 1.206513231036e+01 
1.559520000000e+07 1.206513230931e+01 
1.563840000000e+07 1.206513230880e+01 
1.568160000000e+07 1.206513230890e+01 
1.572480000000e+07 1.206513230899e+01 
1.576800000000e+07 1.206513230911e+01 
1.581120000000e+07 1.206513230937e+01 
1.585440000000e+07 1.206513230952e+01 
1.589760000000e+07 1.206513230967e+01 
1.594080000000e+07 1.206513230981e+01 
1.598400000000e+07 1.206513229749e+01 
1.602720000000e+07 1.206513227940e+01 
1.607040000000e+07 1.206513227077e+01 
1.611360000000e+07 1.206513226703e+01 
1.615680000000e+07 1.206513226560e+01 
1.620000000000e+07 1.206513226507e+01 
1.624320000000e+07 1.206513226518e+01 
1.628640000000e+07 1.206513226528e+01 
1.632960000000e+07 1.206513226542e+01 
1.637280000000e+07 1.206513226558e+01 
1.641600000000e+07 1.206513226575e+01 
1.645920000000e+07 1.206513226594e+01 
1.650240000000e+07 1.206513226610e+01 
1.654560000000e+07 1.206513226499e+01 
1.658880000000e+07 1.206513223720e+01 
1.663200000000e+07 1.206513222261e+01 
1.667520000000e+07 1.206513221631e+01 
1.671840000000e+07 1.206513221385e+01 
1.676160000000e+07 1.206513221309e+01 
1.680480000000e+07 1.206513221276e+01 
1.684800000000e+07 1.206513221283e+01 
1.689120000000e+07 1.206513221299e+01 
1.693440000000e+07 1.206513221318e+01 
1.697760000000e+07 1.206513221356e+01 
1.702080000000e+07 1.206513221378e+01 
1.706400000000e+07 1.206513221397e+01 
1.710720000000e+07 1.206513221404e+01 
1.715040000000e+07 1.206513218254e+01 
1.719360000000e+07 1.206513216409e+01 
1.723680000000e+07 1.206513215590e+01 
1.728000000000e+07 1.206513215270e+01 
1.732320000000e+07 1.206513215165e+01 
1.736640000000e+07 1.206513215121e+01 
1.740960000000e+07 1.206513215128e+01 
1.745280000000e+07 1.206513215146e+01 
1.749600000000e+07 1.206513215168e+01 
1.753920000000e+07 1.206513215213e+01 
1.758240000000e+07 1.206513215238e+01 
1.762560000000e+07 1.206513215262e+01 
1.766880000000e+07 1.206513215285e+01 
1.771200000000e+07 1.206513211844e+01 
1.775520000000e+07 1.206513209326e+01 
1.779840000000e+07 1.206513208293e+01 
1.784160000000e+07 1.206513207858e+01 
1.788480000000e+07 1.206513207708e+01 
1.792800000000e+07 1.206513207646e+01 
1.797120000000e+07 1.206513207675e+01 
1.801440000000e+07 1.206513207696e+01 
1.805760000000e+07 1.206513207722e+01 
1.810080000000e+07 1.206513207750e+01 
1.814400000000e+07 1.206513207779e+01 
1.818720000000e+07 1.206513207809e+01 
1.823040000000e+07 1.206513207838e+01 
1.827360000000e+07 1.206513206054e+01 
1.831680000000e+07 1.206513202079e+01 
1.836000000000e+07 1.206513200013e+01 
1.840320000000e+07 1.206513199208e+01 
1.844640000000e+07 1.206513198879e+01 
1.848960000000e+07 1.206513198785e+01 
1.853280000000e+07 1.206513198741e+01 
1.857600000000e+07 1.206513198758e+01 
1.861920000000e+07 1.206513198786e+01 
1.866240000000e+07 1.206513198850e+01 
1.870560000000e+07 1.206513198885e+01 
1.874880000000e+07 1.206513198920e+01 
1.879200000000e+07 1.206513198955e+01 
1.883520000000e+07 1.206513197403e+01 
1.887840000000e+07 1.206513192468e+01 
1.892160000000e+07 1.206513189863e+01 
1.896480000000e+07 1.206513188842e+01 
1.900800000000e+07 1.206513188425e+01 
1.905120000000e+07 1.206513188303e+01 
1.909440000000e+07 1.206513188248e+01 
1.913760000000e+07 1.206513188267e+01 
1.918080000000e+07 1.206513188300e+01 
1.922400000000e+07 1.206513188375e+01 
1.926720000000e+07 1.206513188416e+01 
1.931040000000e+07 1.206513188458e+01 
1.935360000000e+07 1.206513188500e+01 
1.939680000000e+07 1.206513187297e+01 
1.944000000000e+07 1.206513180968e+01 
1.948320000000e+07 1.206513177699e+01 
1.952640000000e+07 1.206513176287e+01 
1.956960000000e+07 1.206513175745e+01 
1.961280000000e+07 1.206513175530e+01 
1.965600000000e+07 1.206513175542e+01 
1.969920000000e+07 1.206513175563e+01 
1.974240000000e+07 1.206513175602e+01 
1.978560000000e+07 1.206513175648e+01 
1.982880000000e+07 1.206513175697e+01 
1.987200000000e+07 1.206513175747e+01 
1.991520000000e+07 1.206513175797e+01 
1.995840000000e+07 1.206513175845e+01 
2.000160000000e+07 1.206513170095e+01 
2.004480000000e+07 1.206513164487e+01 
2.008800000000e+07 1.206513161921e+01 
2.013120000000e+07 1.206513160859e+01 
2.017440000000e+07 1.206513160483e+01 
2.021760000000e+07 1.206513160382e+01 
2.026080000000e+07 1.206513160330e+01 
2.030400000000e+07 1.206513160366e+01 
2.034720000000e+07 1.206513160418e+01 
2.039040000000e+07 1.206513160526e+01 
2.043360000000e+07 1.206513160586e+01 
2.047680000000e+07 1.206513160646e+01 
2.052000000000e+07 1.206513160705e+01 
2.056320000000e+07 1.206513154877e+01 
2.060640000000e+07 1.206513147865e+01 
2.064960000000e+07 1.206513144478e+01 
2.069280000000e+07 1.206513143182e+01 
2.073600000000e+07 1.206513142649e+01 
2.077920000000e+07 1.206513142393e+01 
2.082240000000e+07 1.206513142439e+01 
2.086560000000e+07 1.206513142482e+01 
2.090880000000e+07 1.206513142543e+01 
2.095200000000e+07 1.206513142671e+01 
2.099520000000e+07 1.206513142742e+01 
2.103840000000e+07 1.206513142818e+01 
2.108160000000e+07 1.206513142887e+01 
2.112480000000e+07 1.206513137003e+01 
2.116800000000e+07 1.206513127944e+01 
2.121120000000e+07 1.206513123458e+01 
2.125440000000e+07 1.206513121714e+01 
2.129760000000e+07 1.206513120998e+01 
2.134080000000e+07 1.206513120728e+01 
2.138400000000e+07 1.206513120779e+01 
2.142720000000e+07 1.206513120826e+01 
2.147040000000e+07 1.206513120897e+01 
2.151360000000e+07 1.206513120977e+01 
2.155680000000e+07 1.206513121060e+01 
2.160000000000e+07 1.206513121149e+01 
2.164320000000e+07 1.206513121228e+01 
2.168640000000e+07 1.206513120979e+01 
2.172960000000e+07 1.206513107093e+01 
2.177280000000e+07 1.206513099769e+01 
2.181600000000e+07 1.206513096600e+01 
2.185920000000e+07 1.206513095359e+01 
2.190240000000e+07 1.206513094975e+01 
2.194560000000e+07 1.206513094809e+01 
2.198880000000e+07 1.206513094841e+01 
2.203200000000e+07 1.206513094917e+01 
2.207520000000e+07 1.206513095009e+01 
2.211840000000e+07 1.206513095196e+01 
2.216160000000e+07 1.206513095304e+01 
2.220480000000e+07 1.206513095398e+01 
2.224800000000e+07 1.206513095460e+01 
2.229120000000e+07 1.206513080221e+01 
2.233440000000e+07 1.206513070919e+01 
2.237760000000e+07 1.206513066691e+01 
2.242080000000e+07 1.206513065079e+01 
2.246400000000e+07 1.206513064535e+01 
2.250720000000e+07 1.206513064309e+01 
2.255040000000e+07 1.206513064337e+01 
2.259360000000e+07 1.206513064424e+01 
2.263680000000e+07 1.206513064532e+01 
2.268000000000e+07 1.206513064751e+01 
2.272320000000e+07 1.206513064872e+01 
2.276640000000e+07 1.206513064992e+01 
2.280960000000e+07 1.206513065104e+01 
2.285280000000e+07 1.206513048502e+01 
2.289600000000e+07 1.206513035839e+01 
2.293920000000e+07 1.206513030564e+01 
2.298240000000e+07 1.206513028344e+01 
2.302560000000e+07 1.206513027572e+01 
2.306880000000e+07 1.206513027253e+01 
2.311200000000e+07 1.206513027394e+01 
2.315520000000e+07 1.206513027493e+01 
2.319840000000e+07 1.206513027619e+01 
2.324160000000e+07 1.206513027756e+01 
2.328480000000e+07 1.206513027897e+01 
2.332800000000e+07 1.206513028040e+01 
2.337120000000e+07 1.206513028182e+01 
2.341440000000e+07 1.206513019879e+01 
2.345760000000e+07 1.206512999929e+01 
2.350080000000e+07 1.206512989529e+01 
2.354400000000e+07 1.206512985464e+01 
2.358720000000e+07 1.206512983798e+01 
2.363040000000e+07 1.206512983316e+01 
2.367360000000e+07 1.206512983094e+01 
2.371680000000e+07 1.206512983172e+01 
2.376000000000e+07 1.206512983308e+01 
2.380320000000e+07 1.206512983617e+01 
2.384640000000e+07 1.206512983786e+01 
2.388960000000e+07 1.206512983956e+01 
2.393280000000e+07 1.206512984126e+01 
2.397600000000e+07 1.206512977080e+01 
2.401920000000e+07 1.206512952315e+01 
2.406240000000e+07 1.206512939206e+01 
2.410560000000e+07 1.206512934056e+01 
2.414880000000e+07 1.206512931946e+01 
2.419200000000e+07 1.206512931324e+01 
2.423520000000e+07 1.206512931043e+01 
2.427840000000e+07 1.206512931127e+01 
2.432160000000e+07 1.206512931288e+01 
2.436480000000e+07 1.206512931651e+01 
2.440800000000e+07 1.206512931851e+01 
2.445120000000e+07 1.206512932053e+01 
2.449440000000e+07 1.206512932254e+01 
2.453760000000e+07 1.206512927254e+01 
2.458080000000e+07 1.206512895328e+01 
2.462400000000e+07 1.206512878879e+01 
2.466720000000e+07 1.206512871771e+01 
2.471040000000e+07 1.206512869032e+01 
2.475360000000e+07 1.206512867945e+01 
2.479680000000e+07 1.206512867989e+01 
2.484000000000e+07 1.206512868084e+01 
2.488320000000e+07 1.206512868269e+01 
2.492640000000e+07 1.206512868490e+01 
2.496960000000e+07 1.206512868723e+01 
2.501280000000e+07 1.206512868961e+01 
2.505600000000e+07 1.206512869200e+01 
2.509920000000e+07 1.206512869436e+01 
2.514240000000e+07 1.206512841922e+01 
2.518560000000e+07 1.206512813651e+01 
2.522880000000e+07 1.206512800605e+01 
2.527200000000e+07 1.206512795193e+01 
2.531520000000e+07 1.206512793263e+01 
2.535840000000e+07 1.206512792726e+01 
2.540160000000e+07 1.206512792451e+01 
2.544480000000e+07 1.206512792617e+01 
2.548800000000e+07 1.206512792863e+01 
2.553120000000e+07 1.206512793386e+01 
2.557440000000e+07 1.206512793671e+01 
2.561760000000e+07 1.206512793957e+01 
2.566080000000e+07 1.206512794239e+01 
2.570400000000e+07 1.206512766320e+01 
2.574720000000e+07 1.206512731068e+01 
2.579040000000e+07 1.206512713955e+01 
2.583360000000e+07 1.206512707380e+01 
2.587680000000e+07 1.206512704663e+01 
2.592000000000e+07 1.206512703934e+01 
2.596320000000e+07 1.206512703576e+01 
2.600640000000e+07 1.206512703759e+01 
2.604960000000e+07 1.206512704041e+01 
2.609280000000e+07 1.206512704661e+01 
2.613600000000e+07 1.206512704997e+01 
2.617920000000e+07 1.206512705356e+01 
2.622240000000e+07 1.206512705669e+01 
2.626560000000e+07 1.206512677820e+01 
2.630880000000e+07 1.206512632629e+01 
2.635200000000e+07 1.206512609559e+01 
2.639520000000e+07 1.206512600690e+01 
2.643840000000e+07 1.206512597042e+01 
2.648160000000e+07 1.206512595650e+01 
2.652480000000e+07 1.206512595873e+01 
2.656800000000e+07 1.206512596081e+01 
2.661120000000e+07 1.206512596408e+01 
2.665440000000e+07 1.206512596780e+01 
2.669760000000e+07 1.206512597169e+01 
2.674080000000e+07 1.206512597591e+01 
2.678400000000e+07 1.206512597961e+01 
2.682720000000e+07 1.206512597344e+01 
2.687040000000e+07 1.206512529043e+01 
2.691360000000e+07 1.206512492031e+01 
2.695680000000e+07 1.206512475894e+01 
2.700000000000e+07 1.206512469602e+01 
2.704320000000e+07 1.206512467536e+01 
2.708640000000e+07 1.206512466649e+01 
2.712960000000e+07 1.206512466766e+01 
2.717280000000e+07 1.206512467108e+01 
2.721600000000e+07 1.206512467532e+01 
2.725920000000e+07 1.206512468422e+01 
2.730240000000e+07 1.206512468930e+01 
2.734560000000e+07 1.206512469366e+01 
2.738880000000e+07 1.206512469712e+01 
2.743200000000e+07 1.206512395447e+01 
2.747520000000e+07 1.206512347654e+01 
2.751840000000e+07 1.206512326988e+01 
2.756160000000e+07 1.206512318746e+01 
2.760480000000e+07 1.206512315916e+01 
2.764800000000e+07 1.206512314717e+01 
2.769120000000e+07 1.206512314797e+01 
2.773440000000e+07 1.206512315177e+01 
2.777760000000e+07 1.206512315666e+01 
2.782080000000e+07 1.206512316710e+01 
2.786400000000e+07 1.206512317265e+01 
2.790720000000e+07 1.206512317815e+01 
2.795040000000e+07 1.206512318334e+01 
2.799360000000e+07 1.206512238085e+01 
2.803680000000e+07 1.206512174011e+01 
2.808000000000e+07 1.206512147059e+01 
2.812320000000e+07 1.206512135641e+01 
2.816640000000e+07 1.206512131613e+01 
2.820960000000e+07 1.206512129912e+01 
2.825280000000e+07 1.206512130526e+01 
2.829600000000e+07 1.206512130946e+01 
2.833920000000e+07 1.206512131508e+01 
2.838240000000e+07 1.206512132122e+01 
2.842560000000e+07 1.206512132757e+01 
2.846880000000e+07 1.206512133400e+01 
2.851200000000e+07 1.206512134044e+01 
2.855520000000e+07 1.206512095445e+01 
2.859840000000e+07 1.206511994839e+01 
2.864160000000e+07 1.206511942216e+01 
2.868480000000e+07 1.206511921537e+01 
2.872800000000e+07 1.206511913010e+01 
2.877120000000e+07 1.206511910459e+01 
2.881440000000e+07 1.206511909240e+01 
2.885760000000e+07 1.206511909522e+01 
2.890080000000e+07 1.206511910105e+01 
2.894400000000e+07 1.206511911545e+01 
2.898720000000e+07 1.206511912292e+01 
2.903040000000e+07 1.206511913042e+01 
2.907360000000e+07 1.206511913796e+01 
2.911680000000e+07 1.206511881104e+01 
2.916000000000e+07 1.206511756721e+01 
2.920320000000e+07 1.206511690602e+01 
2.924640000000e+07 1.206511664409e+01 
2.928960000000e+07 1.206511653600e+01 
2.933280000000e+07 1.206511650301e+01 
2.937600000000e+07 1.206511648745e+01 
2.941920000000e+07 1.206511649021e+01 
2.946240000000e+07 1.206511649679e+01 
2.950560000000e+07 1.206511651355e+01 
2.954880000000e+07 1.206511652138e+01 
2.959200000000e+07 1.206511653084e+01 
2.963520000000e+07 1.206511653957e+01 
2.967840000000e+07 1.206511632859e+01 
2.972160000000e+07 1.206511471758e+01 
2.976480000000e+07 1.206511388414e+01 
2.980800000000e+07 1.206511352284e+01 
2.985120000000e+07 1.206511338234e+01 
2.989440000000e+07 1.206511332546e+01 
2.993760000000e+07 1.206511332544e+01 
2.998080000000e+07 1.206511332810e+01 
3.002400000000e+07 1.206511333539e+01 
3.006720000000e+07 1.206511334444e+01 
3.011040000000e+07 1.206511335413e+01 
3.015360000000e+07 1.206511336405e+01 
3.019680000000e+07 1.206511337409e+01 
3.024000000000e+07 1.206511337294e+01 
3.028320000000e+07 1.206511205822e+01 
3.032640000000e+07 1.206511062279e+01 
3.036960000000e+07 1.206510995402e+01 
3.041280000000e+07 1.206510967438e+01 
3.045600000000e+07 1.206510957264e+01 
3.049920000000e+07 1.206510951748e+01 
3.054240000000e+07 1.206510952463e+01 
3.058560000000e+07 1.206510953047e+01 
3.062880000000e+07 1.206510953981e+01 
3.067200000000e+07 1.206510956334e+01 
3.071520000000e+07 1.206510957482e+01 
3.075840000000e+07 1.206510958637e+01 
3.080160000000e+07 1.206510959814e+01 
3.084480000000e+07 1.206510825429e+01 
3.088800000000e+07 1.206510646386e+01 
3.093120000000e+07 1.206510558831e+01 
3.097440000000e+07 1.206510524838e+01 
3.101760000000e+07 1.206510510568e+01 
3.106080000000e+07 1.206510506421e+01 
3.110400000000e+07 1.206510504189e+01 
3.114720000000e+07 1.206510504699e+01 
3.119040000000e+07 1.206510505708e+01 
3.123360000000e+07 1.206510508491e+01 
3.127680000000e+07 1.206510509700e+01 
3.132000000000e+07 1.206510511102e+01 
3.136320000000e+07 1.206510512277e+01 
3.140640000000e+07 1.206510380161e+01 
3.144960000000e+07 1.206510149789e+01 
3.149280000000e+07 1.206510031464e+01 
3.153600000000e+07 1.206509985453e+01 
3.157920000000e+07 1.206509966200e+01 
3.162240000000e+07 1.206509958501e+01 
3.166560000000e+07 1.206509958989e+01 
3.170880000000e+07 1.206509959441e+01 
3.175200000000e+07 1.206509960505e+01 
3.179520000000e+07 1.206509961802e+01 
3.183840000000e+07 1.206509963185e+01 
3.188160000000e+07 1.206509964741e+01 
3.192480000000e+07 1.206509966029e+01 
3.196800000000e+07 1.206509964896e+01 
3.201120000000e+07 1.206509627093e+01 
3.205440000000e+07 1.206509436773e+01 
3.209760000000e+07 1.206509352612e+01 
3.214080000000e+07 1.206509319159e+01 
3.218400000000e+07 1.206509307547e+01 
3.222720000000e+07 1.206509302113e+01 
3.227040000000e+07 1.206509301827e+01 
3.231360000000e+07 1.206509302708e+01 
3.235680000000e+07 1.206509304137e+01 
3.240000000000e+07 1.206509307682e+01 
3.244320000000e+07 1.206509309421e+01 
3.248640000000e+07 1.206509310800e+01 
3.252960000000e+07 1.206509311912e+01 
3.257280000000e+07 1.206508946524e+01 
3.261600000000e+07 1.206508694583e+01 
3.265920000000e+07 1.206508592632e+01 
3.270240000000e+07 1.206508548853e+01 
3.274560000000e+07 1.206508532948e+01 
3.278880000000e+07 1.206508525559e+01 
3.283200000000e+07 1.206508524719e+01 
3.287520000000e+07 1.206508525440e+01 
3.291840000000e+07 1.206508526732e+01 
3.296160000000e+07 1.206508530831e+01 
3.300480000000e+07 1.206508532463e+01 
3.304800000000e+07 1.206508534080e+01 
3.309120000000e+07 1.206508535574e+01 