 TITLE = "Time curves in points"
 VARIABLES = "TIME "  "TCE" 
 ZONE T="POINT=POINT4"
0.000000000000e+00 1.206500000000e+01 
4.320000000000e+04 1.181214192248e+01 
8.640000000000e+04 1.199500216217e+01 
1.296000000000e+05 1.204915598031e+01 
1.728000000000e+05 1.206164864549e+01 
2.160000000000e+05 1.206436838967e+01 
2.592000000000e+05 1.206495271944e+01 
3.024000000000e+05 1.206507834071e+01 
3.456000000000e+05 1.206510549277e+01 
3.888000000000e+05 1.206511140682e+01 
4.320000000000e+05 1.206511271123e+01 
4.752000000000e+05 1.206511300827e+01 
5.184000000000e+05 1.206511308384e+01 
5.616000000000e+05 1.206511311053e+01 
6.048000000000e+05 1.206511312636e+01 
6.480000000000e+05 1.206511313959e+01 
6.912000000000e+05 1.206511315223e+01 
7.344000000000e+05 1.206511316498e+01 
7.776000000000e+05 1.206511317763e+01 
8.208000000000e+05 1.206511319035e+01 
8.640000000000e+05 1.206511320299e+01 
9.072000000000e+05 1.206511321558e+01 
9.504000000000e+05 1.206511322794e+01 
9.936000000000e+05 1.206511324042e+01 
1.036800000000e+06 1.206511325306e+01 
1.080000000000e+06 1.206511326565e+01 
1.123200000000e+06 1.206511327813e+01 
1.166400000000e+06 1.206511329058e+01 
1.209600000000e+06 1.206511330314e+01 
1.252800000000e+06 1.206511331556e+01 
1.296000000000e+06 1.206511332807e+01 
1.339200000000e+06 1.206511334054e+01 
1.382400000000e+06 1.206511335296e+01 
1.425600000000e+06 1.206511336540e+01 
1.468800000000e+06 1.206511337796e+01 
1.512000000000e+06 1.206511339037e+01 
1.555200000000e+06 1.206511340291e+01 
1.598400000000e+06 1.206511341531e+01 
1.641600000000e+06 1.206511342784e+01 
1.684800000000e+06 1.206511344011e+01 
1.728000000000e+06 1.206511345264e+01 
1.771200000000e+06 1.206511346485e+01 
1.814400000000e+06 1.206511347727e+01 
1.857600000000e+06 1.206511348966e+01 
1.900800000000e+06 1.206511350214e+01 
1.944000000000e+06 1.206511351437e+01 
1.987200000000e+06 1.206511352672e+01 
2.030400000000e+06 1.206511353909e+01 
2.073600000000e+06 1.206511355143e+01 
2.116800000000e+06 1.206511355854e+01 
2.160000000000e+06 1.206511357007e+01 
2.203200000000e+06 1.206511358222e+01 
2.246400000000e+06 1.206511359441e+01 
2.289600000000e+06 1.206511360659e+01 
2.332800000000e+06 1.206511361833e+01 
2.376000000000e+06 1.206511363042e+01 
2.419200000000e+06 1.206511364275e+01 
2.462400000000e+06 1.206511365492e+01 
2.505600000000e+06 1.206511366712e+01 
2.548800000000e+06 1.206511367955e+01 
2.592000000000e+06 1.206511369183e+01 
2.635200000000e+06 1.206511370383e+01 
2.678400000000e+06 1.206511371602e+01 
2.721600000000e+06 1.206511372832e+01 
2.764800000000e+06 1.206511374339e+01 
2.808000000000e+06 1.206511375592e+01 
2.851200000000e+06 1.206511376815e+01 
2.894400000000e+06 1.206511377144e+01 
2.937600000000e+06 1.206511378236e+01 
2.980800000000e+06 1.206511379420e+01 
3.024000000000e+06 1.206511380634e+01 
3.067200000000e+06 1.206511381831e+01 
3.110400000000e+06 1.206511383046e+01 
3.153600000000e+06 1.206511384257e+01 
3.196800000000e+06 1.206511385446e+01 
3.240000000000e+06 1.206511387558e+01 
3.283200000000e+06 1.206511388902e+01 
3.326400000000e+06 1.206511390130e+01 
3.369600000000e+06 1.206511391342e+01 
3.412800000000e+06 1.206511331997e+01 
3.456000000000e+06 1.206511182859e+01 
3.499200000000e+06 1.206511091259e+01 
3.542400000000e+06 1.206511050380e+01 
3.585600000000e+06 1.206511033046e+01 
3.628800000000e+06 1.206511027292e+01 
3.672000000000e+06 1.206511024950e+01 
3.715200000000e+06 1.206511025216e+01 
3.758400000000e+06 1.206511026245e+01 
3.801600000000e+06 1.206511028655e+01 
3.844800000000e+06 1.206511030166e+01 
3.888000000000e+06 1.206511031593e+01 
3.931200000000e+06 1.206511033032e+01 
3.974400000000e+06 1.206510982451e+01 
4.017600000000e+06 1.206510795935e+01 
4.060800000000e+06 1.206510675915e+01 
4.104000000000e+06 1.206510621988e+01 
4.147200000000e+06 1.206510599338e+01 
4.190400000000e+06 1.206510587635e+01 
4.233600000000e+06 1.206510588942e+01 
4.276800000000e+06 1.206510589795e+01 
4.320000000000e+06 1.206510591112e+01 
4.363200000000e+06 1.206510592712e+01 
4.406400000000e+06 1.206510594327e+01 
4.449600000000e+06 1.206510596114e+01 
4.492800000000e+06 1.206510597750e+01 
4.536000000000e+06 1.206510599412e+01 
4.579200000000e+06 1.206510410327e+01 
4.622400000000e+06 1.206510225568e+01 
4.665600000000e+06 1.206510132758e+01 
4.708800000000e+06 1.206510091161e+01 
4.752000000000e+06 1.206510075268e+01 
4.795200000000e+06 1.206510070408e+01 
4.838400000000e+06 1.206510068336e+01 
4.881600000000e+06 1.206510069183e+01 
4.924800000000e+06 1.206510070914e+01 
4.968000000000e+06 1.206510074317e+01 
5.011200000000e+06 1.206510076698e+01 
5.054400000000e+06 1.206510078657e+01 
5.097600000000e+06 1.206510080692e+01 
5.140800000000e+06 1.206509884802e+01 
5.184000000000e+06 1.206509662006e+01 
5.227200000000e+06 1.206509539010e+01 
5.270400000000e+06 1.206509486964e+01 
5.313600000000e+06 1.206509465184e+01 
5.356800000000e+06 1.206509458488e+01 
5.400000000000e+06 1.206509455730e+01 
5.443200000000e+06 1.206509456618e+01 
5.486400000000e+06 1.206509458545e+01 
5.529600000000e+06 1.206509462649e+01 
5.572800000000e+06 1.206509465324e+01 
5.616000000000e+06 1.206509467958e+01 
5.659200000000e+06 1.206509470290e+01 
5.702400000000e+06 1.206509283758e+01 
5.745600000000e+06 1.206508989776e+01 
5.788800000000e+06 1.206508825117e+01 
5.832000000000e+06 1.206508754560e+01 
5.875200000000e+06 1.206508724922e+01 
5.918400000000e+06 1.206508713291e+01 
5.961600000000e+06 1.206508713400e+01 
6.004800000000e+06 1.206508714866e+01 
6.048000000000e+06 1.206508717223e+01 
6.091200000000e+06 1.206508719943e+01 
6.134400000000e+06 1.206508722791e+01 
6.177600000000e+06 1.206508725850e+01 
6.220800000000e+06 1.206508728662e+01 
6.264000000000e+06 1.206508688808e+01 
6.307200000000e+06 1.206508287268e+01 
6.350400000000e+06 1.206508027221e+01 
6.393600000000e+06 1.206507902567e+01 
6.436800000000e+06 1.206507850437e+01 
6.480000000000e+06 1.206507832523e+01 
6.523200000000e+06 1.206507825318e+01 
6.566400000000e+06 1.206507825389e+01 
6.609600000000e+06 1.206507827702e+01 
6.652800000000e+06 1.206507830803e+01 
6.696000000000e+06 1.206507836792e+01 
6.739200000000e+06 1.206507840840e+01 
6.782400000000e+06 1.206507844243e+01 
6.825600000000e+06 1.206507840447e+01 
6.868800000000e+06 1.206507355884e+01 
6.912000000000e+06 1.206507034150e+01 
6.955200000000e+06 1.206506878482e+01 
6.998400000000e+06 1.206506813031e+01 
7.041600000000e+06 1.206506790370e+01 
7.084800000000e+06 1.206506781295e+01 
7.128000000000e+06 1.206506781183e+01 
7.171200000000e+06 1.206506783882e+01 
7.214400000000e+06 1.206506787506e+01 
7.257600000000e+06 1.206506794619e+01 
7.300800000000e+06 1.206506799210e+01 
7.344000000000e+06 1.206506803471e+01 
7.387200000000e+06 1.206506806143e+01 
7.430400000000e+06 1.206506255759e+01 
7.473600000000e+06 1.206505843848e+01 
7.516800000000e+06 1.206505642790e+01 
7.560000000000e+06 1.206505557481e+01 
7.603200000000e+06 1.206505526073e+01 
7.646400000000e+06 1.206505513543e+01 
7.689600000000e+06 1.206505516433e+01 
7.732800000000e+06 1.206505520011e+01 
7.776000000000e+06 1.206505524385e+01 
7.819200000000e+06 1.206505554957e+01 
7.862400000000e+06 1.206505534290e+01 
7.905600000000e+06 1.206505539156e+01 
7.948800000000e+06 1.206505544106e+01 
7.992000000000e+06 1.206505244044e+01 
8.035200000000e+06 1.206504639461e+01 
8.078400000000e+06 1.206504267632e+01 
8.121600000000e+06 1.206504104147e+01 
8.164800000000e+06 1.206504035145e+01 
8.208000000000e+06 1.206504012452e+01 
8.251200000000e+06 1.206504003184e+01 
8.294400000000e+06 1.206504004436e+01 
8.337600000000e+06 1.206504008787e+01 
8.380800000000e+06 1.206504018696e+01 
8.424000000000e+06 1.206504025182e+01 
8.467200000000e+06 1.206504031223e+01 
8.510400000000e+06 1.206504037209e+01 
8.553600000000e+06 1.206503771009e+01 
8.596800000000e+06 1.206503029252e+01 
8.640000000000e+06 1.206502561457e+01 
8.683200000000e+06 1.206502353395e+01 
8.726400000000e+06 1.206502265325e+01 
8.769600000000e+06 1.206502235874e+01 
8.812800000000e+06 1.206502224019e+01 
8.856000000000e+06 1.206502225208e+01 
8.899200000000e+06 1.206502230256e+01 
8.942400000000e+06 1.206502242147e+01 
8.985600000000e+06 1.206502249707e+01 
9.028800000000e+06 1.206502256805e+01 
9.072000000000e+06 1.206502263996e+01 
9.115200000000e+06 1.206502043555e+01 
9.158400000000e+06 1.206501106455e+01 
9.201600000000e+06 1.206500516949e+01 
9.244800000000e+06 1.206500235654e+01 
9.288000000000e+06 1.206500119522e+01 
9.331200000000e+06 1.206500060313e+01 
9.374400000000e+06 1.206500066292e+01 
9.417600000000e+06 1.206500070434e+01 
9.460800000000e+06 1.206500076761e+01 
9.504000000000e+06 1.206500084688e+01 
9.547200000000e+06 1.206500092698e+01 
9.590400000000e+06 1.206500101185e+01 
9.633600000000e+06 1.206500109617e+01 
9.676800000000e+06 1.206500117972e+01 
9.720000000000e+06 1.206499208794e+01 
9.763200000000e+06 1.206498297813e+01 
9.806400000000e+06 1.206497818706e+01 
9.849600000000e+06 1.206497606281e+01 
9.892800000000e+06 1.206497525240e+01 
9.936000000000e+06 1.206497500265e+01 
9.979200000000e+06 1.206497489723e+01 
1.002240000000e+07 1.206497493774e+01 
1.006560000000e+07 1.206497501980e+01 
1.010880000000e+07 1.206497519135e+01 
1.015200000000e+07 1.206497530173e+01 
1.019520000000e+07 1.206497540513e+01 
1.023840000000e+07 1.206497550709e+01 
1.028160000000e+07 1.206496630933e+01 
1.032480000000e+07 1.206495511688e+01 
1.036800000000e+07 1.206494885474e+01 
1.041120000000e+07 1.206494618796e+01 
1.045440000000e+07 1.206494506856e+01 
1.049760000000e+07 1.206494454860e+01 
1.054080000000e+07 1.206494455205e+01 
1.058400000000e+07 1.206494461567e+01 
1.062720000000e+07 1.206494471507e+01 
1.067040000000e+07 1.206494491685e+01 
1.071360000000e+07 1.206494504973e+01 
1.075680000000e+07 1.206494517997e+01 
1.080000000000e+07 1.206494529540e+01 
1.084320000000e+07 1.206493600654e+01 
1.088640000000e+07 1.206492180856e+01 
1.092960000000e+07 1.206491374711e+01 
1.097280000000e+07 1.206490998064e+01 
1.101600000000e+07 1.206490844116e+01 
1.105920000000e+07 1.206490784246e+01 
1.110240000000e+07 1.206490783891e+01 
1.114560000000e+07 1.206490790960e+01 
1.118880000000e+07 1.206490802400e+01 
1.123200000000e+07 1.206490815855e+01 
1.127520000000e+07 1.206490830057e+01 
1.131840000000e+07 1.206490845237e+01 
1.136160000000e+07 1.206490859080e+01 
1.140480000000e+07 1.206490738381e+01 
1.144800000000e+07 1.206488725363e+01 
1.149120000000e+07 1.206487411287e+01 
1.153440000000e+07 1.206486780566e+01 
1.157760000000e+07 1.206486516414e+01 
1.162080000000e+07 1.206486425267e+01 
1.166400000000e+07 1.206486388691e+01 
1.170720000000e+07 1.206486388664e+01 
1.175040000000e+07 1.206486400016e+01 
1.179360000000e+07 1.206486415275e+01 
1.183680000000e+07 1.206486444876e+01 
1.188000000000e+07 1.206486465018e+01 
1.192320000000e+07 1.206486481786e+01 
1.196640000000e+07 1.206486483913e+01 
1.200960000000e+07 1.206484153379e+01 
1.205280000000e+07 1.206482528732e+01 
1.209600000000e+07 1.206481728597e+01 
1.213920000000e+07 1.206481391554e+01 
1.218240000000e+07 1.206481270445e+01 
1.222560000000e+07 1.206481222580e+01 
1.226880000000e+07 1.206481221091e+01 
1.231200000000e+07 1.206481233908e+01 
1.235520000000e+07 1.206481251839e+01 
1.239840000000e+07 1.206481286834e+01 
1.244160000000e+07 1.206481309585e+01 
1.248480000000e+07 1.206481330609e+01 
1.252800000000e+07 1.206481349121e+01 
1.257120000000e+07 1.206478792498e+01 
1.261440000000e+07 1.206476653850e+01 
1.265760000000e+07 1.206475634580e+01 
1.270080000000e+07 1.206475185809e+01 
1.274400000000e+07 1.206475017290e+01 
1.278720000000e+07 1.206474949686e+01 
1.283040000000e+07 1.206474962022e+01 
1.287360000000e+07 1.206474978718e+01 
1.291680000000e+07 1.206475000135e+01 
1.296000000000e+07 1.206475023623e+01 
1.300320000000e+07 1.206475047841e+01 
1.304640000000e+07 1.206475072540e+01 
1.308960000000e+07 1.206475097390e+01 
1.313280000000e+07 1.206473727340e+01 
1.317600000000e+07 1.206470695487e+01 
1.321920000000e+07 1.206468817243e+01 
1.326240000000e+07 1.206467986113e+01 
1.330560000000e+07 1.206467635317e+01 
1.334880000000e+07 1.206467519016e+01 
1.339200000000e+07 1.206467471779e+01 
1.343520000000e+07 1.206467477363e+01 
1.347840000000e+07 1.206467499029e+01 
1.352160000000e+07 1.206467547717e+01 
1.356480000000e+07 1.206467579819e+01 
1.360800000000e+07 1.206467609808e+01 
1.365120000000e+07 1.206467639351e+01 
1.369440000000e+07 1.206466424891e+01 
1.373760000000e+07 1.206462717452e+01 
1.378080000000e+07 1.206460367405e+01 
1.382400000000e+07 1.206459319018e+01 
1.386720000000e+07 1.206458874743e+01 
1.391040000000e+07 1.206458725944e+01 
1.395360000000e+07 1.206458665871e+01 
1.399680000000e+07 1.206458671223e+01 
1.404000000000e+07 1.206458696230e+01 
1.408320000000e+07 1.206458753804e+01 
1.412640000000e+07 1.206458791824e+01 
1.416960000000e+07 1.206458827416e+01 
1.421280000000e+07 1.206458862867e+01 
1.425600000000e+07 1.206457878402e+01 
1.429920000000e+07 1.206453203799e+01 
1.434240000000e+07 1.206450249072e+01 
1.438560000000e+07 1.206448837824e+01 
1.442880000000e+07 1.206448254836e+01 
1.447200000000e+07 1.206447958504e+01 
1.451520000000e+07 1.206447986775e+01 
1.455840000000e+07 1.206448006268e+01 
1.460160000000e+07 1.206448037635e+01 
1.464480000000e+07 1.206448076916e+01 
1.468800000000e+07 1.206448116706e+01 
1.473120000000e+07 1.206448158160e+01 
1.477440000000e+07 1.206448200271e+01 
1.481760000000e+07 1.206448241512e+01 
1.486080000000e+07 1.206443935223e+01 
1.490400000000e+07 1.206439357698e+01 
1.494720000000e+07 1.206436922722e+01 
1.499040000000e+07 1.206435836125e+01 
1.503360000000e+07 1.206435419302e+01 
1.507680000000e+07 1.206435289192e+01 
1.512000000000e+07 1.206435234427e+01 
1.516320000000e+07 1.206435253665e+01 
1.520640000000e+07 1.206435294333e+01 
1.524960000000e+07 1.206435378727e+01 
1.529280000000e+07 1.206435433574e+01 
1.533600000000e+07 1.206435484874e+01 
1.537920000000e+07 1.206435535609e+01 
1.542240000000e+07 1.206431144724e+01 
1.546560000000e+07 1.206425550475e+01 
1.550880000000e+07 1.206422395151e+01 
1.555200000000e+07 1.206421045064e+01 
1.559520000000e+07 1.206420478342e+01 
1.563840000000e+07 1.206420216105e+01 
1.568160000000e+07 1.206420215278e+01 
1.572480000000e+07 1.206420246408e+01 
1.576800000000e+07 1.206420294793e+01 
1.581120000000e+07 1.206420395195e+01 
1.585440000000e+07 1.206420461067e+01 
1.589760000000e+07 1.206420524819e+01 
1.594080000000e+07 1.206420582738e+01 
1.598400000000e+07 1.206416156686e+01 
1.602720000000e+07 1.206409071140e+01 
1.607040000000e+07 1.206405023477e+01 
1.611360000000e+07 1.206403126097e+01 
1.615680000000e+07 1.206402350173e+01 
1.620000000000e+07 1.206402048237e+01 
1.624320000000e+07 1.206402044864e+01 
1.628640000000e+07 1.206402078821e+01 
1.632960000000e+07 1.206402135163e+01 
1.637280000000e+07 1.206402201432e+01 
1.641600000000e+07 1.206402271683e+01 
1.645920000000e+07 1.206402347179e+01 
1.650240000000e+07 1.206402415325e+01 
1.654560000000e+07 1.206402023592e+01 
1.658880000000e+07 1.206391974147e+01 
1.663200000000e+07 1.206385411332e+01 
1.667520000000e+07 1.206382255235e+01 
1.671840000000e+07 1.206380932049e+01 
1.676160000000e+07 1.206380474806e+01 
1.680480000000e+07 1.206380291535e+01 
1.684800000000e+07 1.206380290055e+01 
1.689120000000e+07 1.206380345644e+01 
1.693440000000e+07 1.206380421135e+01 
1.697760000000e+07 1.206380567714e+01 
1.702080000000e+07 1.206380667266e+01 
1.706400000000e+07 1.206380750107e+01 
1.710720000000e+07 1.206380790693e+01 
1.715040000000e+07 1.206369480240e+01 
1.719360000000e+07 1.206361361231e+01 
1.723680000000e+07 1.206357304729e+01 
1.728000000000e+07 1.206355590175e+01 
1.732320000000e+07 1.206354969741e+01 
1.736640000000e+07 1.206354725693e+01 
1.740960000000e+07 1.206354714868e+01 
1.745280000000e+07 1.206354776642e+01 
1.749600000000e+07 1.206354864892e+01 
1.753920000000e+07 1.206355038052e+01 
1.758240000000e+07 1.206355150715e+01 
1.762560000000e+07 1.206355255628e+01 
1.766880000000e+07 1.206355349167e+01 
1.771200000000e+07 1.206342981191e+01 
1.775520000000e+07 1.206332304073e+01 
1.779840000000e+07 1.206327155692e+01 
1.784160000000e+07 1.206324880363e+01 
1.788480000000e+07 1.206324022352e+01 
1.792800000000e+07 1.206323678008e+01 
1.797120000000e+07 1.206323735958e+01 
1.801440000000e+07 1.206323817440e+01 
1.805760000000e+07 1.206323922782e+01 
1.810080000000e+07 1.206324039026e+01 
1.814400000000e+07 1.206324159182e+01 
1.818720000000e+07 1.206324281199e+01 
1.823040000000e+07 1.206324404102e+01 
1.827360000000e+07 1.206318000841e+01 
1.831680000000e+07 1.206302865504e+01 
1.836000000000e+07 1.206293432854e+01 
1.840320000000e+07 1.206289255615e+01 
1.844640000000e+07 1.206287489784e+01 
1.848960000000e+07 1.206286903804e+01 
1.853280000000e+07 1.206286664634e+01 
1.857600000000e+07 1.206286690628e+01 
1.861920000000e+07 1.206286796595e+01 
1.866240000000e+07 1.206287038007e+01 
1.870560000000e+07 1.206287195756e+01 
1.874880000000e+07 1.206287344339e+01 
1.879200000000e+07 1.206287491153e+01 
1.883520000000e+07 1.206281929635e+01 
1.887840000000e+07 1.206263449182e+01 
1.892160000000e+07 1.206251641684e+01 
1.896480000000e+07 1.206246368515e+01 
1.900800000000e+07 1.206244135008e+01 
1.905120000000e+07 1.206243383300e+01 
1.909440000000e+07 1.206243080541e+01 
1.913760000000e+07 1.206243104748e+01 
1.918080000000e+07 1.206243227525e+01 
1.922400000000e+07 1.206243512379e+01 
1.926720000000e+07 1.206243700922e+01 
1.931040000000e+07 1.206243876890e+01 
1.935360000000e+07 1.206244052278e+01 
1.939680000000e+07 1.206239750165e+01 
1.944000000000e+07 1.206216418570e+01 
1.948320000000e+07 1.206201594540e+01 
1.952640000000e+07 1.206194509608e+01 
1.956960000000e+07 1.206191576763e+01 
1.961280000000e+07 1.206190395386e+01 
1.965600000000e+07 1.206190271088e+01 
1.969920000000e+07 1.206190326408e+01 
1.974240000000e+07 1.206190474881e+01 
1.978560000000e+07 1.206190661211e+01 
1.982880000000e+07 1.206190862788e+01 
1.987200000000e+07 1.206191069228e+01 
1.991520000000e+07 1.206191277610e+01 
1.995840000000e+07 1.206191483592e+01 
2.000160000000e+07 1.206170828141e+01 
2.004480000000e+07 1.206147953904e+01 
2.008800000000e+07 1.206135669270e+01 
2.013120000000e+07 1.206130168706e+01 
2.017440000000e+07 1.206128052698e+01 
2.021760000000e+07 1.206127389157e+01 
2.026080000000e+07 1.206127108843e+01 
2.030400000000e+07 1.206127201846e+01 
2.034720000000e+07 1.206127399963e+01 
2.039040000000e+07 1.206127817021e+01 
2.043360000000e+07 1.206128089199e+01 
2.047680000000e+07 1.206128343714e+01 
2.052000000000e+07 1.206128592811e+01 
2.056320000000e+07 1.206107663173e+01 
2.060640000000e+07 1.206079707566e+01 
2.064960000000e+07 1.206063808547e+01 
2.069280000000e+07 1.206056978805e+01 
2.073600000000e+07 1.206054108792e+01 
2.077920000000e+07 1.206052789856e+01 
2.082240000000e+07 1.206052771916e+01 
2.086560000000e+07 1.206052921008e+01 
2.090880000000e+07 1.206053159957e+01 
2.095200000000e+07 1.206053655043e+01 
2.099520000000e+07 1.206053979976e+01 
2.103840000000e+07 1.206054297752e+01 
2.108160000000e+07 1.206054593670e+01 
2.112480000000e+07 1.206033473770e+01 
2.116800000000e+07 1.205998130892e+01 
2.121120000000e+07 1.205977317326e+01 
2.125440000000e+07 1.205968208760e+01 
2.129760000000e+07 1.205964370141e+01 
2.134080000000e+07 1.205962862495e+01 
2.138400000000e+07 1.205962837854e+01 
2.142720000000e+07 1.205963000584e+01 
2.147040000000e+07 1.205963278922e+01 
2.151360000000e+07 1.205963605337e+01 
2.155680000000e+07 1.205963952082e+01 
2.160000000000e+07 1.205964324983e+01 
2.164320000000e+07 1.205964663977e+01 
2.168640000000e+07 1.205963815381e+01 
2.172960000000e+07 1.205913774420e+01 
2.177280000000e+07 1.205880890084e+01 
2.181600000000e+07 1.205865048366e+01 
2.185920000000e+07 1.205858399779e+01 
2.190240000000e+07 1.205856093459e+01 
2.194560000000e+07 1.205855168208e+01 
2.198880000000e+07 1.205855156099e+01 
2.203200000000e+07 1.205855429594e+01 
2.207520000000e+07 1.205855802559e+01 
2.211840000000e+07 1.205856526303e+01 
2.216160000000e+07 1.205857018548e+01 
2.220480000000e+07 1.205857431402e+01 
2.224800000000e+07 1.205857717565e+01 
2.229120000000e+07 1.205802961684e+01 
2.233440000000e+07 1.205762357575e+01 
2.237760000000e+07 1.205741689522e+01 
2.242080000000e+07 1.205733056020e+01 
2.246400000000e+07 1.205729896341e+01 
2.250720000000e+07 1.205728644486e+01 
2.255040000000e+07 1.205728571331e+01 
2.259360000000e+07 1.205728875449e+01 
2.263680000000e+07 1.205729311598e+01 
2.268000000000e+07 1.205730167035e+01 
2.272320000000e+07 1.205730723357e+01 
2.276640000000e+07 1.205731238113e+01 
2.280960000000e+07 1.205731715363e+01 
2.285280000000e+07 1.205672102207e+01 
2.289600000000e+07 1.205618787959e+01 
2.293920000000e+07 1.205592684053e+01 
2.298240000000e+07 1.205581115248e+01 
2.302560000000e+07 1.205576735778e+01 
2.306880000000e+07 1.205574977997e+01 
2.311200000000e+07 1.205575244677e+01 
2.315520000000e+07 1.205575638087e+01 
2.319840000000e+07 1.205576157501e+01 
2.324160000000e+07 1.205576730543e+01 
2.328480000000e+07 1.205577325112e+01 
2.332800000000e+07 1.205577927686e+01 
2.337120000000e+07 1.205578534161e+01 
2.341440000000e+07 1.205548781495e+01 
2.345760000000e+07 1.205473187794e+01 
2.350080000000e+07 1.205425841968e+01 
2.354400000000e+07 1.205404817928e+01 
2.358720000000e+07 1.205395926313e+01 
2.363040000000e+07 1.205392961858e+01 
2.367360000000e+07 1.205391751019e+01 
2.371680000000e+07 1.205391874348e+01 
2.376000000000e+07 1.205392390436e+01 
2.380320000000e+07 1.205393582506e+01 
2.384640000000e+07 1.205394366365e+01 
2.388960000000e+07 1.205395098000e+01 
2.393280000000e+07 1.205395825777e+01 
2.397600000000e+07 1.205370615614e+01 
2.401920000000e+07 1.205278335622e+01 
2.406240000000e+07 1.205219101650e+01 
2.410560000000e+07 1.205192587368e+01 
2.414880000000e+07 1.205181344304e+01 
2.419200000000e+07 1.205177552382e+01 
2.423520000000e+07 1.205176020761e+01 
2.427840000000e+07 1.205176130397e+01 
2.432160000000e+07 1.205176735519e+01 
2.436480000000e+07 1.205178142257e+01 
2.440800000000e+07 1.205179074862e+01 
2.445120000000e+07 1.205179947019e+01 
2.449440000000e+07 1.205180808756e+01 
2.453760000000e+07 1.205162982881e+01 
2.458080000000e+07 1.205045975630e+01 
2.462400000000e+07 1.204971541913e+01 
2.466720000000e+07 1.204935951532e+01 
2.471040000000e+07 1.204921220702e+01 
2.475360000000e+07 1.204915278626e+01 
2.479680000000e+07 1.204914630438e+01 
2.484000000000e+07 1.204914893205e+01 
2.488320000000e+07 1.204915620809e+01 
2.492640000000e+07 1.204916539471e+01 
2.496960000000e+07 1.204917531861e+01 
2.501280000000e+07 1.204918550892e+01 
2.505600000000e+07 1.204919584121e+01 
2.509920000000e+07 1.204920603687e+01 
2.514240000000e+07 1.204821954677e+01 
2.518560000000e+07 1.204707544563e+01 
2.522880000000e+07 1.204645478517e+01 
2.527200000000e+07 1.204617588854e+01 
2.531520000000e+07 1.204606820742e+01 
2.535840000000e+07 1.204603416816e+01 
2.540160000000e+07 1.204601979776e+01 
2.544480000000e+07 1.204602420300e+01 
2.548800000000e+07 1.204603402999e+01 
2.553120000000e+07 1.204605460441e+01 
2.557440000000e+07 1.204606803096e+01 
2.561760000000e+07 1.204608060697e+01 
2.566080000000e+07 1.204609292475e+01 
2.570400000000e+07 1.204509264711e+01 
2.574720000000e+07 1.204369670903e+01 
2.579040000000e+07 1.204289739110e+01 
2.583360000000e+07 1.204255287623e+01 
2.587680000000e+07 1.204240798776e+01 
2.592000000000e+07 1.204236206608e+01 
2.596320000000e+07 1.204234327519e+01 
2.600640000000e+07 1.204234787702e+01 
2.604960000000e+07 1.204235919110e+01 
2.609280000000e+07 1.204238356722e+01 
2.613600000000e+07 1.204239959242e+01 
2.617920000000e+07 1.204241529944e+01 
2.622240000000e+07 1.204242931680e+01 
2.626560000000e+07 1.204143242704e+01 
2.630880000000e+07 1.203968106926e+01 
2.635200000000e+07 1.203862200878e+01 
2.639520000000e+07 1.203816058143e+01 
2.643840000000e+07 1.203796639784e+01 
2.648160000000e+07 1.203789012387e+01 
2.652480000000e+07 1.203788821832e+01 
2.656800000000e+07 1.203789604947e+01 
2.661120000000e+07 1.203790972818e+01 
2.665440000000e+07 1.203792588082e+01 
2.669760000000e+07 1.203794292727e+01 
2.674080000000e+07 1.203796134809e+01 
2.678400000000e+07 1.203797807676e+01 
2.682720000000e+07 1.203796173771e+01 
2.687040000000e+07 1.203556122981e+01 
2.691360000000e+07 1.203390383824e+01 
2.695680000000e+07 1.203311494606e+01 
2.700000000000e+07 1.203279312760e+01 
2.704320000000e+07 1.203267781534e+01 
2.708640000000e+07 1.203256970458e+01 
2.712960000000e+07 1.203255945913e+01 
2.717280000000e+07 1.203257127647e+01 
2.721600000000e+07 1.203258924682e+01 
2.725920000000e+07 1.203262501924e+01 
2.730240000000e+07 1.203264932832e+01 
2.734560000000e+07 1.203266961427e+01 
2.738880000000e+07 1.203268614212e+01 
2.743200000000e+07 1.203002784756e+01 
2.747520000000e+07 1.202796870259e+01 
2.751840000000e+07 1.202695266632e+01 
2.756160000000e+07 1.202651915782e+01 
2.760480000000e+07 1.202635901247e+01 
2.764800000000e+07 1.202629520573e+01 
2.769120000000e+07 1.202629105629e+01 
2.773440000000e+07 1.202630572230e+01 
2.777760000000e+07 1.202632711940e+01 
2.782080000000e+07 1.202636937318e+01 
2.786400000000e+07 1.202639680499e+01 
2.790720000000e+07 1.202642223874e+01 
2.795040000000e+07 1.202644620236e+01 
2.799360000000e+07 1.202357717727e+01 
2.803680000000e+07 1.202090943056e+01 
2.808000000000e+07 1.201958937937e+01 
2.812320000000e+07 1.201900153135e+01 
2.816640000000e+07 1.201877809607e+01 
2.820960000000e+07 1.201868832258e+01 
2.825280000000e+07 1.201870031518e+01 
2.829600000000e+07 1.201871942268e+01 
2.833920000000e+07 1.201874477719e+01 
2.838240000000e+07 1.201877299039e+01 
2.842560000000e+07 1.201880240029e+01 
2.846880000000e+07 1.201883209086e+01 
2.851200000000e+07 1.201886194031e+01 
2.855520000000e+07 1.201748762566e+01 
2.859840000000e+07 1.201371112847e+01 
2.864160000000e+07 1.201133384532e+01 
2.868480000000e+07 1.201027509231e+01 
2.872800000000e+07 1.200982690557e+01 
2.877120000000e+07 1.200967679493e+01 
2.881440000000e+07 1.200961564596e+01 
2.885760000000e+07 1.200962097942e+01 
2.890080000000e+07 1.200964634590e+01 
2.894400000000e+07 1.200970522326e+01 
2.898720000000e+07 1.200974375725e+01 
2.903040000000e+07 1.200977983002e+01 
2.907360000000e+07 1.200981570409e+01 
2.911680000000e+07 1.200865604813e+01 
2.916000000000e+07 1.200406298120e+01 
2.920320000000e+07 1.200110061646e+01 
2.924640000000e+07 1.199976856424e+01 
2.928960000000e+07 1.199920301731e+01 
2.933280000000e+07 1.199901144110e+01 
2.937600000000e+07 1.199893411133e+01 
2.941920000000e+07 1.199893873786e+01 
2.946240000000e+07 1.199896827103e+01 
2.950560000000e+07 1.199903774407e+01 
2.954880000000e+07 1.199908059670e+01 
2.959200000000e+07 1.199912601993e+01 
2.963520000000e+07 1.199916910607e+01 
2.967840000000e+07 1.199842747752e+01 
2.972160000000e+07 1.199258603868e+01 
2.976480000000e+07 1.198885194325e+01 
2.980800000000e+07 1.198706432252e+01 
2.985120000000e+07 1.198632374653e+01 
2.989440000000e+07 1.198602498126e+01 
2.993760000000e+07 1.198599083759e+01 
2.998080000000e+07 1.198600283787e+01 
3.002400000000e+07 1.198603837387e+01 
3.006720000000e+07 1.198608354290e+01 
3.011040000000e+07 1.198613240373e+01 
3.015360000000e+07 1.198618260486e+01 
3.019680000000e+07 1.198623334158e+01 
3.024000000000e+07 1.198624432493e+01 
3.028320000000e+07 1.198156839030e+01 
3.032640000000e+07 1.197585093064e+01 
3.036960000000e+07 1.197271713073e+01 
3.041280000000e+07 1.197130358086e+01 
3.045600000000e+07 1.197075609816e+01 
3.049920000000e+07 1.197049388801e+01 
3.054240000000e+07 1.197049452820e+01 
3.058560000000e+07 1.197052609140e+01 
3.062880000000e+07 1.197057517028e+01 
3.067200000000e+07 1.197067731091e+01 
3.071520000000e+07 1.197074345177e+01 
3.075840000000e+07 1.197080537161e+01 
3.080160000000e+07 1.197086725908e+01 
3.084480000000e+07 1.196612040973e+01 
3.088800000000e+07 1.195913833850e+01 
3.093120000000e+07 1.195510815389e+01 
3.097440000000e+07 1.195336409037e+01 
3.101760000000e+07 1.195262945270e+01 
3.106080000000e+07 1.195239512225e+01 
3.110400000000e+07 1.195229872056e+01 
3.114720000000e+07 1.195231987846e+01 
3.119040000000e+07 1.195237494692e+01 
3.123360000000e+07 1.195249787367e+01 
3.127680000000e+07 1.195257389661e+01 
3.132000000000e+07 1.195265081306e+01 
3.136320000000e+07 1.195271966884e+01 
3.140640000000e+07 1.194806230603e+01 
3.144960000000e+07 1.193929334689e+01 
3.149280000000e+07 1.193395356862e+01 
3.153600000000e+07 1.193161728332e+01 
3.157920000000e+07 1.193063245124e+01 
3.162240000000e+07 1.193024496054e+01 
3.166560000000e+07 1.193023137613e+01 
3.170880000000e+07 1.193026805488e+01 
3.175200000000e+07 1.193033442795e+01 
3.179520000000e+07 1.193041324364e+01 
3.183840000000e+07 1.193049689129e+01 
3.188160000000e+07 1.193058730981e+01 
3.192480000000e+07 1.193066916773e+01 
3.196800000000e+07 1.193066441632e+01 
3.201120000000e+07 1.191873371683e+01 
3.205440000000e+07 1.191046634880e+01 
3.209760000000e+07 1.190640401864e+01 
3.214080000000e+07 1.190469360664e+01 
3.218400000000e+07 1.190407728159e+01 
3.222720000000e+07 1.190383172745e+01 
3.227040000000e+07 1.190382121308e+01 
3.231360000000e+07 1.190388452493e+01 
3.235680000000e+07 1.190397767265e+01 
3.240000000000e+07 1.190414979233e+01 
3.244320000000e+07 1.190426855884e+01 
3.248640000000e+07 1.190436775709e+01 
3.252960000000e+07 1.190445489305e+01 
3.257280000000e+07 1.189160809111e+01 
3.261600000000e+07 1.188108306245e+01 
3.265920000000e+07 1.187611983194e+01 
3.270240000000e+07 1.187393926170e+01 
3.274560000000e+07 1.187312262661e+01 
3.278880000000e+07 1.187279544838e+01 
3.283200000000e+07 1.187276869978e+01 
3.287520000000e+07 1.187283848145e+01 
3.291840000000e+07 1.187294211134e+01 
3.296160000000e+07 1.187314939750e+01 
3.300480000000e+07 1.187328348354e+01 
3.304800000000e+07 1.187340768076e+01 
3.309120000000e+07 1.187352603424e+01 