<?xml version="1.0"?>
<!-- Time step: 1 | Time: 8.640000000000e+04 -->
<VTKFile type="UnstructuredGrid" version="0.1" byte_order="LittleEndian">
  <UnstructuredGrid>
    <Piece NumberOfPoints="1004" NumberOfCells="1200">
      <Points>
        <DataArray type="Float64" NumberOfComponents="3" format="ascii">
          0.000000000000e+00 0.000000000000e+00 5.000000000000e-01
          5.000000000000e-01 0.000000000000e+00 5.000000000000e-01
          1.000000000000e+00 0.000000000000e+00 5.000000000000e-01
          1.500000000000e+00 0.000000000000e+00 5.000000000000e-01
          2.000000000000e+00 0.000000000000e+00 5.000000000000e-01
          2.500000000000e+00 0.000000000000e+00 5.000000000000e-01
          3.000000000000e+00 0.000000000000e+00 5.000000000000e-01
          3.500000000000e+00 0.000000000000e+00 5.000000000000e-01
          4.000000000000e+00 0.000000000000e+00 5.000000000000e-01
          4.500000000000e+00 0.000000000000e+00 5.000000000000e-01
          5.000000000000e+00 0.000000000000e+00 5.000000000000e-01
          5.500000000000e+00 0.000000000000e+00 5.000000000000e-01
          6.000000000000e+00 0.000000000000e+00 5.000000000000e-01
          6.500000000000e+00 0.000000000000e+00 5.000000000000e-01
          7.000000000000e+00 0.000000000000e+00 5.000000000000e-01
          7.500000000000e+00 0.000000000000e+00 5.000000000000e-01
          8.000000000000e+00 0.000000000000e+00 5.000000000000e-01
          8.500000000000e+00 0.000000000000e+00 5.000000000000e-01
          9.000000000000e+00 0.000000000000e+00 5.000000000000e-01
          9.500000000000e+00 0.000000000000e+00 5.000000000000e-01
          1.000000000000e+01 0.000000000000e+00 5.000000000000e-01
          1.050000000000e+01 0.000000000000e+00 5.000000000000e-01
          1.100000000000e+01 0.000000000000e+00 5.000000000000e-01
          1.150000000000e+01 0.000000000000e+00 5.000000000000e-01
          1.200000000000e+01 0.000000000000e+00 5.000000000000e-01
          1.250000000000e+01 0.000000000000e+00 5.000000000000e-01
          1.300000000000e+01 0.000000000000e+00 5.000000000000e-01
          1.350000000000e+01 0.000000000000e+00 5.000000000000e-01
          1.400000000000e+01 0.000000000000e+00 5.000000000000e-01
          1.450000000000e+01 0.000000000000e+00 5.000000000000e-01
          1.500000000000e+01 0.000000000000e+00 5.000000000000e-01
          1.550000000000e+01 0.000000000000e+00 5.000000000000e-01
          1.600000000000e+01 0.000000000000e+00 5.000000000000e-01
          1.650000000000e+01 0.000000000000e+00 5.000000000000e-01
          1.700000000000e+01 0.000000000000e+00 5.000000000000e-01
          1.750000000000e+01 0.000000000000e+00 5.000000000000e-01
          1.800000000000e+01 0.000000000000e+00 5.000000000000e-01
          1.850000000000e+01 0.000000000000e+00 5.000000000000e-01
          1.900000000000e+01 0.000000000000e+00 5.000000000000e-01
          1.950000000000e+01 0.000000000000e+00 5.000000000000e-01
          2.000000000000e+01 0.000000000000e+00 5.000000000000e-01
          2.050000000000e+01 0.000000000000e+00 5.000000000000e-01
          2.100000000000e+01 0.000000000000e+00 5.000000000000e-01
          2.150000000000e+01 0.000000000000e+00 5.000000000000e-01
          2.200000000000e+01 0.000000000000e+00 5.000000000000e-01
          2.250000000000e+01 0.000000000000e+00 5.000000000000e-01
          2.300000000000e+01 0.000000000000e+00 5.000000000000e-01
          2.350000000000e+01 0.000000000000e+00 5.000000000000e-01
          2.400000000000e+01 0.000000000000e+00 5.000000000000e-01
          2.450000000000e+01 0.000000000000e+00 5.000000000000e-01
          2.500000000000e+01 0.000000000000e+00 5.000000000000e-01
          2.550000000000e+01 0.000000000000e+00 5.000000000000e-01
          2.600000000000e+01 0.000000000000e+00 5.000000000000e-01
          2.650000000000e+01 0.000000000000e+00 5.000000000000e-01
          2.700000000000e+01 0.000000000000e+00 5.000000000000e-01
          2.750000000000e+01 0.000000000000e+00 5.000000000000e-01
          2.800000000000e+01 0.000000000000e+00 5.000000000000e-01
          2.850000000000e+01 0.000000000000e+00 5.000000000000e-01
          2.900000000000e+01 0.000000000000e+00 5.000000000000e-01
          2.950000000000e+01 0.000000000000e+00 5.000000000000e-01
          3.000000000000e+01 0.000000000000e+00 5.000000000000e-01
          3.050000000000e+01 0.000000000000e+00 5.000000000000e-01
          3.100000000000e+01 0.000000000000e+00 5.000000000000e-01
          3.150000000000e+01 0.000000000000e+00 5.000000000000e-01
          3.200000000000e+01 0.000000000000e+00 5.000000000000e-01
          3.250000000000e+01 0.000000000000e+00 5.000000000000e-01
          3.300000000000e+01 0.000000000000e+00 5.000000000000e-01
          3.350000000000e+01 0.000000000000e+00 5.000000000000e-01
          3.400000000000e+01 0.000000000000e+00 5.000000000000e-01
          3.450000000000e+01 0.000000000000e+00 5.000000000000e-01
          3.500000000000e+01 0.000000000000e+00 5.000000000000e-01
          3.550000000000e+01 0.000000000000e+00 5.000000000000e-01
          3.600000000000e+01 0.000000000000e+00 5.000000000000e-01
          3.650000000000e+01 0.000000000000e+00 5.000000000000e-01
          3.700000000000e+01 0.000000000000e+00 5.000000000000e-01
          3.750000000000e+01 0.000000000000e+00 5.000000000000e-01
          3.800000000000e+01 0.000000000000e+00 5.000000000000e-01
          3.850000000000e+01 0.000000000000e+00 5.000000000000e-01
          3.900000000000e+01 0.000000000000e+00 5.000000000000e-01
          3.950000000000e+01 0.000000000000e+00 5.000000000000e-01
          4.000000000000e+01 0.000000000000e+00 5.000000000000e-01
          4.050000000000e+01 0.000000000000e+00 5.000000000000e-01
          4.100000000000e+01 0.000000000000e+00 5.000000000000e-01
          4.150000000000e+01 0.000000000000e+00 5.000000000000e-01
          4.200000000000e+01 0.000000000000e+00 5.000000000000e-01
          4.250000000000e+01 0.000000000000e+00 5.000000000000e-01
          4.300000000000e+01 0.000000000000e+00 5.000000000000e-01
          4.350000000000e+01 0.000000000000e+00 5.000000000000e-01
          4.400000000000e+01 0.000000000000e+00 5.000000000000e-01
          4.450000000000e+01 0.000000000000e+00 5.000000000000e-01
          4.500000000000e+01 0.000000000000e+00 5.000000000000e-01
          4.550000000000e+01 0.000000000000e+00 5.000000000000e-01
          4.600000000000e+01 0.000000000000e+00 5.000000000000e-01
          4.650000000000e+01 0.000000000000e+00 5.000000000000e-01
          4.700000000000e+01 0.000000000000e+00 5.000000000000e-01
          4.750000000000e+01 0.000000000000e+00 5.000000000000e-01
          4.800000000000e+01 0.000000000000e+00 5.000000000000e-01
          4.850000000000e+01 0.000000000000e+00 5.000000000000e-01
          4.900000000000e+01 0.000000000000e+00 5.000000000000e-01
          4.950000000000e+01 0.000000000000e+00 5.000000000000e-01
          5.000000000000e+01 0.000000000000e+00 5.000000000000e-01
          5.050000000000e+01 0.000000000000e+00 5.000000000000e-01
          5.100000000000e+01 0.000000000000e+00 5.000000000000e-01
          5.150000000000e+01 0.000000000000e+00 5.000000000000e-01
          5.200000000000e+01 0.000000000000e+00 5.000000000000e-01
          5.250000000000e+01 0.000000000000e+00 5.000000000000e-01
          5.300000000000e+01 0.000000000000e+00 5.000000000000e-01
          5.350000000000e+01 0.000000000000e+00 5.000000000000e-01
          5.400000000000e+01 0.000000000000e+00 5.000000000000e-01
          5.450000000000e+01 0.000000000000e+00 5.000000000000e-01
          5.500000000000e+01 0.000000000000e+00 5.000000000000e-01
          5.550000000000e+01 0.000000000000e+00 5.000000000000e-01
          5.600000000000e+01 0.000000000000e+00 5.000000000000e-01
          5.650000000000e+01 0.000000000000e+00 5.000000000000e-01
          5.700000000000e+01 0.000000000000e+00 5.000000000000e-01
          5.750000000000e+01 0.000000000000e+00 5.000000000000e-01
          5.800000000000e+01 0.000000000000e+00 5.000000000000e-01
          5.850000000000e+01 0.000000000000e+00 5.000000000000e-01
          5.900000000000e+01 0.000000000000e+00 5.000000000000e-01
          5.950000000000e+01 0.000000000000e+00 5.000000000000e-01
          6.000000000000e+01 0.000000000000e+00 5.000000000000e-01
          6.050000000000e+01 0.000000000000e+00 5.000000000000e-01
          6.100000000000e+01 0.000000000000e+00 5.000000000000e-01
          6.150000000000e+01 0.000000000000e+00 5.000000000000e-01
          6.200000000000e+01 0.000000000000e+00 5.000000000000e-01
          6.250000000000e+01 0.000000000000e+00 5.000000000000e-01
          6.300000000000e+01 0.000000000000e+00 5.000000000000e-01
          6.350000000000e+01 0.000000000000e+00 5.000000000000e-01
          6.400000000000e+01 0.000000000000e+00 5.000000000000e-01
          6.450000000000e+01 0.000000000000e+00 5.000000000000e-01
          6.500000000000e+01 0.000000000000e+00 5.000000000000e-01
          6.550000000000e+01 0.000000000000e+00 5.000000000000e-01
          6.600000000000e+01 0.000000000000e+00 5.000000000000e-01
          6.650000000000e+01 0.000000000000e+00 5.000000000000e-01
          6.700000000000e+01 0.000000000000e+00 5.000000000000e-01
          6.750000000000e+01 0.000000000000e+00 5.000000000000e-01
          6.800000000000e+01 0.000000000000e+00 5.000000000000e-01
          6.850000000000e+01 0.000000000000e+00 5.000000000000e-01
          6.900000000000e+01 0.000000000000e+00 5.000000000000e-01
          6.950000000000e+01 0.000000000000e+00 5.000000000000e-01
          7.000000000000e+01 0.000000000000e+00 5.000000000000e-01
          7.050000000000e+01 0.000000000000e+00 5.000000000000e-01
          7.100000000000e+01 0.000000000000e+00 5.000000000000e-01
          7.150000000000e+01 0.000000000000e+00 5.000000000000e-01
[...]
      <PointData Scalars="HEAD">
        <DataArray type="Float64" Name="HEAD" format="ascii">
          1.000000000000e+00 9.950000000000e-01 9.900000000000e-01 9.850000000001e-01 9.800000000001e-01 9.750000000001e-01 9.700000000001e-01 9.650000000001e-01 9.600000000001e-01 9.550000000002e-01 9.500000000002e-01 9.450000000002e-01 9.400000000002e-01 9.350000000002e-01 9.300000000002e-01 9.250000000002e-01 9.200000000003e-01 9.150000000003e-01 9.100000000003e-01 9.050000000003e-01 9.000000000003e-01 8.950000000003e-01 8.900000000003e-01 8.850000000004e-01 8.800000000004e-01 8.750000000004e-01 8.700000000004e-01 8.650000000004e-01 8.600000000004e-01 8.550000000004e-01 8.500000000005e-01 8.450000000005e-01 8.400000000005e-01 8.350000000005e-01 8.300000000005e-01 8.250000000005e-01 8.200000000005e-01 8.150000000005e-01 8.100000000006e-01 8.050000000006e-01 8.000000000006e-01 7.950000000006e-01 7.900000000006e-01 7.850000000006e-01 7.800000000006e-01 7.750000000006e-01 7.700000000007e-01 7.650000000007e-01 7.600000000007e-01 7.550000000007e-01 7.500000000007e-01 7.450000000007e-01 7.400000000007e-01 7.350000000007e-01 7.300000000008e-01 7.250000000008e-01 7.200000000008e-01 7.150000000008e-01 7.100000000008e-01 7.050000000008e-01 7.000000000008e-01 6.950000000008e-01 6.900000000008e-01 6.850000000008e-01 6.800000000009e-01 6.750000000009e-01 6.700000000009e-01 6.650000000009e-01 6.600000000009e-01 6.550000000009e-01 6.500000000009e-01 6.450000000009e-01 6.400000000009e-01 6.350000000009e-01 6.300000000009e-01 6.250000000009e-01 6.200000000009e-01 6.150000000009e-01 6.100000000009e-01 6.050000000009e-01 6.000000000009e-01 5.950000000009e-01 5.900000000009e-01 5.850000000009e-01 5.800000000009e-01 5.750000000009e-01 5.700000000009e-01 5.650000000009e-01 5.600000000009e-01 5.550000000009e-01 5.500000000009e-01 5.450000000009e-01 5.400000000009e-01 5.350000000009e-01 5.300000000009e-01 5.250000000009e-01 5.200000000009e-01 5.150000000009e-01 5.100000000009e-01 5.050000000009e-01 5.000000000009e-01 4.950000000009e-01 4.900000000009e-01 4.850000000009e-01 4.800000000009e-01 4.750000000009e-01 4.700000000009e-01 4.650000000009e-01 4.600000000009e-01 4.550000000009e-01 4.500000000009e-01 4.450000000009e-01 4.400000000009e-01 4.350000000009e-01 4.300000000009e-01 4.250000000009e-01 4.200000000009e-01 4.150000000009e-01 4.100000000008e-01 4.050000000008e-01 4.000000000008e-01 3.950000000008e-01 3.900000000008e-01 3.850000000008e-01 3.800000000008e-01 3.750000000008e-01 3.700000000008e-01 3.650000000008e-01 3.600000000008e-01 3.550000000008e-01 3.500000000008e-01 3.450000000008e-01 3.400000000007e-01 3.350000000007e-01 3.300000000007e-01 3.250000000007e-01 3.200000000007e-01 3.150000000007e-01 3.100000000007e-01 3.050000000007e-01 3.000000000007e-01 2.950000000007e-01 2.900000000007e-01 2.850000000006e-01 2.800000000006e-01 2.750000000006e-01 2.700000000006e-01 2.650000000006e-01 2.600000000006e-01 2.550000000006e-01 2.500000000006e-01 2.450000000006e-01 2.400000000006e-01 2.350000000006e-01 2.300000000005e-01 2.250000000005e-01 2.200000000005e-01 2.150000000005e-01 2.100000000005e-01 2.050000000005e-01 2.000000000005e-01 1.950000000005e-01 1.900000000005e-01 1.850000000004e-01 1.800000000004e-01 1.750000000004e-01 1.700000000004e-01 1.650000000004e-01 1.600000000004e-01 1.550000000004e-01 1.500000000004e-01 1.450000000004e-01 1.400000000003e-01 1.350000000003e-01 1.300000000003e-01 1.250000000003e-01 1.200000000003e-01 1.150000000003e-01 1.100000000003e-01 1.050000000003e-01 1.000000000002e-01 9.500000000023e-02 9.000000000022e-02 8.500000000021e-02 8.000000000020e-02 7.500000000018e-02 7.000000000017e-02 6.500000000016e-02 6.000000000015e-02 5.500000000014e-02 5.000000000012e-02 4.500000000011e-02 4.000000000010e-02 3.500000000009e-02 3.000000000007e-02 2.500000000006e-02 2.000000000005e-02 1.500000000004e-02 1.000000000002e-02 5.000000000012e-03 0.000000000000e+00 1.000000000000e+00 9.950000000000e-01 9.900000000000e-01 9.850000000001e-01 9.800000000001e-01 9.750000000001e-01 9.700000000001e-01 9.650000000001e-01 9.600000000001e-01 9.550000000002e-01 9.500000000002e-01 9.450000000002e-01 9.400000000002e-01 9.350000000002e-01 9.300000000002e-01 9.250000000002e-01 9.200000000003e-01 9.150000000003e-01 9.100000000003e-01 9.050000000003e-01 9.000000000003e-01 8.950000000003e-01 8.900000000003e-01 8.850000000004e-01 8.800000000004e-01 8.750000000004e-01 8.700000000004e-01 8.650000000004e-01 8.600000000004e-01 8.550000000004e-01 8.500000000005e-01 8.450000000005e-01 8.400000000005e-01 8.350000000005e-01 8.300000000005e-01 8.250000000005e-01 8.200000000005e-01 8.150000000005e-01 8.100000000006e-01 8.050000000006e-01 8.000000000006e-01 7.950000000006e-01 7.900000000006e-01 7.850000000006e-01 7.800000000006e-01 7.750000000006e-01 7.700000000007e-01 7.650000000007e-01 7.600000000007e-01 7.550000000007e-01 7.500000000007e-01 7.450000000007e-01 7.400000000007e-01 7.350000000007e-01 7.300000000008e-01 7.250000000008e-01 7.200000000008e-01 7.150000000008e-01 7.100000000008e-01 7.050000000008e-01 7.000000000008e-01 6.950000000008e-01 6.900000000008e-01 6.850000000008e-01 6.800000000009e-01 6.750000000009e-01 6.700000000009e-01 6.650000000009e-01 6.600000000009e-01 6.550000000009e-01 6.500000000009e-01 6.450000000009e-01 6.400000000009e-01 6.350000000009e-01 6.300000000009e-01 6.250000000009e-01 6.200000000009e-01 6.150000000009e-01 6.100000000009e-01 6.050000000009e-01 6.000000000009e-01 5.950000000009e-01 5.900000000009e-01 5.850000000009e-01 5.800000000009e-01 5.750000000009e-01 5.700000000009e-01 5.650000000009e-01 5.600000000009e-01 5.550000000009e-01 5.500000000009e-01 5.450000000009e-01 5.400000000009e-01 5.350000000009e-01 5.300000000009e-01 5.250000000009e-01 5.200000000009e-01 5.150000000009e-01 5.100000000009e-01 5.050000000009e-01 5.000000000009e-01 4.950000000009e-01 4.900000000009e-01 4.850000000009e-01 4.800000000009e-01 4.750000000009e-01 4.700000000009e-01 4.650000000009e-01 4.600000000009e-01 4.550000000009e-01 4.500000000009e-01 4.450000000009e-01 4.400000000009e-01 4.350000000009e-01 4.300000000009e-01 4.250000000009e-01 4.200000000009e-01 4.150000000009e-01 4.100000000008e-01 4.050000000008e-01 4.000000000008e-01 3.950000000008e-01 3.900000000008e-01 3.850000000008e-01 3.800000000008e-01 3.750000000008e-01 3.700000000008e-01 3.650000000008e-01 3.600000000008e-01 3.550000000008e-01 3.500000000008e-01 3.450000000008e-01 3.400000000007e-01 3.350000000007e-01 3.300000000007e-01 3.250000000007e-01 3.200000000007e-01 3.150000000007e-01 3.100000000007e-01 3.050000000007e-01 3.000000000007e-01 2.950000000007e-01 2.900000000007e-01 2.850000000006e-01 2.800000000006e-01 2.750000000006e-01 2.700000000006e-01 2.650000000006e-01 2.600000000006e-01 2.550000000006e-01 2.500000000006e-01 2.450000000006e-01 2.400000000006e-01 2.350000000006e-01 2.300000000005e-01 2.250000000005e-01 2.200000000005e-01 2.150000000005e-01 2.100000000005e-01 2.050000000005e-01 2.000000000005e-01 1.950000000005e-01 1.900000000005e-01 1.850000000004e-01 1.800000000004e-01 1.750000000004e-01 1.700000000004e-01 1.650000000004e-01 1.600000000004e-01 1.550000000004e-01 1.500000000004e-01 1.450000000004e-01 1.400000000003e-01 1.350000000003e-01 1.300000000003e-01 1.250000000003e-01 1.200000000003e-01 1.150000000003e-01 1.100000000003e-01 1.050000000003e-01 1.000000000002e-01 9.500000000023e-02 9.000000000022e-02 8.500000000021e-02 8.000000000020e-02 7.500000000018e-02 7.000000000017e-02 6.500000000016e-02 6.000000000015e-02 5.500000000014e-02 5.000000000012e-02 4.500000000011e-02 4.000000000010e-02 3.500000000009e-02 3.000000000007e-02 2.500000000006e-02 2.000000000005e-02 1.500000000004e-02 1.000000000002e-02 5.000000000012e-03 0.000000000000e+00 1.000000000000e+00 9.950000000000e-01 9.900000000000e-01 9.850000000001e-01 9.800000000001e-01 9.750000000001e-01 9.700000000001e-01 9.650000000001e-01 9.600000000001e-01 9.550000000002e-01 9.500000000002e-01 9.450000000002e-01 9.400000000002e-01 9.350000000002e-01 9.300000000002e-01 9.250000000002e-01 9.200000000003e-01 9.150000000003e-01 9.100000000003e-01 9.050000000003e-01 9.000000000003e-01 8.950000000003e-01 8.900000000003e-01 8.850000000004e-01 8.800000000004e-01 8.750000000004e-01 8.700000000004e-01 8.650000000004e-01 8.600000000004e-01 8.550000000004e-01 8.500000000005e-01 8.450000000005e-01 8.400000000005e-01 8.350000000005e-01 8.300000000005e-01 8.250000000005e-01 8.200000000005e-01 8.150000000005e-01 8.100000000006e-01 8.050000000006e-01 8.000000000006e-01 7.950000000006e-01 7.900000000006e-01 7.850000000006e-01 7.800000000006e-01 7.750000000006e-01 7.700000000007e-01 7.650000000007e-01 7.600000000007e-01 7.550000000007e-01 7.500000000007e-01 7.450000000007e-01 7.400000000007e-01 7.350000000007e-01 7.300000000008e-01 7.250000000008e-01 7.200000000008e-01 7.150000000008e-01 7.100000000008e-01 7.050000000008e-01 7.000000000008e-01 6.950000000008e-01 6.900000000008e-01 6.850000000008e-01 6.800000000009e-01 6.750000000009e-01 6.700000000009e-01 6.650000000009e-01 6.600000000009e-01 6.550000000009e-01 6.500000000009e-01 6.450000000009e-01 6.400000000009e-01 6.350000000009e-01 6.300000000009e-01 6.250000000009e-01 6.200000000009e-01 6.150000000009e-01 6.100000000009e-01 6.050000000009e-01 6.000000000009e-01 5.950000000009e-01 5.900000000009e-01 5.850000000009e-01 5.800000000009e-01 5.750000000009e-01 5.700000000009e-01 5.650000000009e-01 5.600000000009e-01 5.550000000009e-01 5.500000000009e-01 5.450000000009e-01 5.400000000009e-01 5.350000000009e-01 5.300000000009e-01 5.250000000009e-01 5.200000000009e-01 5.150000000009e-01 5.100000000009e-01 5.050000000009e-01 5.000000000009e-01 4.950000000009e-01 4.900000000009e-01 4.850000000009e-01 4.800000000009e-01 4.750000000009e-01 4.700000000009e-01 4.650000000009e-01 4.600000000009e-01 4.550000000009e-01 4.500000000009e-01 4.450000000009e-01 4.400000000009e-01 4.350000000009e-01 4.300000000009e-01 4.250000000009e-01 4.200000000009e-01 4.150000000009e-01 4.100000000008e-01 4.050000000008e-01 4.000000000008e-01 3.950000000008e-01 3.900000000008e-01 3.850000000008e-01 3.800000000008e-01 3.750000000008e-01 3.700000000008e-01 3.650000000008e-01 3.600000000008e-01 3.550000000008e-01 3.500000000008e-01 3.450000000008e-01 3.400000000007e-01 3.350000000007e-01 3.300000000007e-01 3.250000000007e-01 3.200000000007e-01 3.150000000007e-01 3.100000000007e-01 3.050000000007e-01 3.000000000007e-01 2.950000000007e-01 2.900000000007e-01 2.850000000006e-01 2.800000000006e-01 2.750000000006e-01 2.700000000006e-01 2.650000000006e-01 2.600000000006e-01 2.550000000006e-01 2.500000000006e-01 2.450000000006e-01 2.400000000006e-01 2.350000000006e-01 2.300000000005e-01 2.250000000005e-01 2.200000000005e-01 2.150000000005e-01 2.100000000005e-01 2.050000000005e-01 2.000000000005e-01 1.950000000005e-01 1.900000000005e-01 1.850000000004e-01 1.800000000004e-01 1.750000000004e-01 1.700000000004e-01 1.650000000004e-01 1.600000000004e-01 1.550000000004e-01 1.500000000004e-01 1.450000000004e-01 1.400000000003e-01 1.350000000003e-01 1.300000000003e-01 1.250000000003e-01 1.200000000003e-01 1.150000000003e-01 1.100000000003e-01 1.050000000003e-01 1.000000000002e-01 9.500000000023e-02 9.000000000022e-02 8.500000000021e-02 8.000000000020e-02 7.500000000019e-02 7.000000000017e-02 6.500000000016e-02 6.000000000015e-02 5.500000000014e-02 5.000000000012e-02 4.500000000011e-02 4.000000000010e-02 3.500000000009e-02 3.000000000007e-02 2.500000000006e-02 2.000000000005e-02 1.500000000004e-02 1.000000000002e-02 5.000000000012e-03 0.000000000000e+00 1.000000000000e+00 9.950000000000e-01 9.900000000000e-01 9.850000000001e-01 9.800000000001e-01 9.750000000001e-01 9.700000000001e-01 9.650000000001e-01 9.600000000001e-01 9.550000000002e-01 9.500000000002e-01 9.450000000002e-01 9.400000000002e-01 9.350000000002e-01 9.300000000002e-01 9.250000000002e-01 9.200000000003e-01 9.150000000003e-01 9.100000000003e-01 9.050000000003e-01 9.000000000003e-01 8.950000000003e-01 8.900000000003e-01 8.850000000004e-01 8.800000000004e-01 8.750000000004e-01 8.700000000004e-01 8.650000000004e-01 8.600000000004e-01 8.550000000004e-01 8.500000000005e-01 8.450000000005e-01 8.400000000005e-01 8.350000000005e-01 8.300000000005e-01 8.250000000005e-01 8.200000000005e-01 8.150000000005e-01 8.100000000006e-01 8.050000000006e-01 8.000000000006e-01 7.950000000006e-01 7.900000000006e-01 7.850000000006e-01 7.800000000006e-01 7.750000000006e-01 7.700000000007e-01 7.650000000007e-01 7.600000000007e-01 7.550000000007e-01 7.500000000007e-01 7.450000000007e-01 7.400000000007e-01 7.350000000007e-01 7.300000000008e-01 7.250000000008e-01 7.200000000008e-01 7.150000000008e-01 7.100000000008e-01 7.050000000008e-01 7.000000000008e-01 6.950000000008e-01 6.900000000008e-01 6.850000000008e-01 6.800000000009e-01 6.750000000009e-01 6.700000000009e-01 6.650000000009e-01 6.600000000009e-01 6.550000000009e-01 6.500000000009e-01 6.450000000009e-01 6.400000000009e-01 6.350000000009e-01 6.300000000009e-01 6.250000000009e-01 6.200000000009e-01 6.150000000009e-01 6.100000000009e-01 6.050000000009e-01 6.000000000009e-01 5.950000000009e-01 5.900000000009e-01 5.850000000009e-01 5.800000000009e-01 5.750000000009e-01 5.700000000009e-01 5.650000000009e-01 5.600000000009e-01 5.550000000009e-01 5.500000000009e-01 5.450000000009e-01 5.400000000009e-01 5.350000000009e-01 5.300000000009e-01 5.250000000009e-01 5.200000000009e-01 5.150000000009e-01 5.100000000009e-01 5.050000000009e-01 5.000000000009e-01 4.950000000009e-01 4.900000000009e-01 4.850000000009e-01 4.800000000009e-01 4.750000000009e-01 4.700000000009e-01 4.650000000009e-01 4.600000000009e-01 4.550000000009e-01 4.500000000009e-01 4.450000000009e-01 4.400000000009e-01 4.350000000009e-01 4.300000000009e-01 4.250000000009e-01 4.200000000009e-01 4.150000000009e-01 4.100000000008e-01 4.050000000008e-01 4.000000000008e-01 3.950000000008e-01 3.900000000008e-01 3.850000000008e-01 3.800000000008e-01 3.750000000008e-01 3.700000000008e-01 3.650000000008e-01 3.600000000008e-01 3.550000000008e-01 3.500000000008e-01 3.450000000008e-01 3.400000000007e-01 3.350000000007e-01 3.300000000007e-01 3.250000000007e-01 3.200000000007e-01 3.150000000007e-01 3.100000000007e-01 3.050000000007e-01 3.000000000007e-01 2.950000000007e-01 2.900000000007e-01 2.850000000006e-01 2.800000000006e-01 2.750000000006e-01 2.700000000006e-01 2.650000000006e-01 2.600000000006e-01 2.550000000006e-01 2.500000000006e-01 2.450000000006e-01 2.400000000006e-01 2.350000000006e-01 2.300000000005e-01 2.250000000005e-01 2.200000000005e-01 2.150000000005e-01 2.100000000005e-01 2.050000000005e-01 2.000000000005e-01 1.950000000005e-01 1.900000000005e-01 1.850000000004e-01 1.800000000004e-01 1.750000000004e-01 1.700000000004e-01 1.650000000004e-01 1.600000000004e-01 1.550000000004e-01 1.500000000004e-01 1.450000000004e-01 1.400000000003e-01 1.350000000003e-01 1.300000000003e-01 1.250000000003e-01 1.200000000003e-01 1.150000000003e-01 1.100000000003e-01 1.050000000003e-01 1.000000000002e-01 9.500000000023e-02 9.000000000022e-02 8.500000000021e-02 8.000000000020e-02 7.500000000018e-02 7.000000000017e-02 6.500000000016e-02 6.000000000015e-02 5.500000000014e-02 5.000000000012e-02 4.500000000011e-02 4.000000000010e-02 3.500000000009e-02 3.000000000007e-02 2.500000000006e-02 2.000000000005e-02 1.500000000004e-02 1.000000000002e-02 5.000000000012e-03 0.000000000000e+00 9.975000000000e-01 9.925000000000e-01 9.875000000000e-01 9.825000000001e-01 9.775000000001e-01 9.725000000001e-01 9.675000000001e-01 9.625000000001e-01 9.575000000001e-01 9.525000000002e-01 9.475000000002e-01 9.425000000002e-01 9.375000000002e-01 9.325000000002e-01 9.275000000002e-01 9.225000000003e-01 9.175000000003e-01 9.125000000003e-01 9.075000000003e-01 9.025000000003e-01 8.975000000003e-01 8.925000000003e-01 8.875000000004e-01 8.825000000004e-01 8.775000000004e-01 8.725000000004e-01 8.675000000004e-01 8.625000000004e-01 8.575000000004e-01 8.525000000004e-01 8.475000000005e-01 8.425000000005e-01 8.375000000005e-01 8.325000000005e-01 8.275000000005e-01 8.225000000005e-01 8.175000000005e-01 8.125000000005e-01 8.075000000006e-01 8.025000000006e-01 7.975000000006e-01 7.925000000006e-01 7.875000000006e-01 7.825000000006e-01 7.775000000006e-01 7.725000000007e-01 7.675000000007e-01 7.625000000007e-01 7.575000000007e-01 7.525000000007e-01 7.475000000007e-01 7.425000000007e-01 7.375000000007e-01 7.325000000007e-01 7.275000000008e-01 7.225000000008e-01 7.175000000008e-01 7.125000000008e-01 7.075000000008e-01 7.025000000008e-01 6.975000000008e-01 6.925000000008e-01 6.875000000008e-01 6.825000000008e-01 6.775000000009e-01 6.725000000009e-01 6.675000000009e-01 6.625000000009e-01 6.575000000009e-01 6.525000000009e-01 6.475000000009e-01 6.425000000009e-01 6.375000000009e-01 6.325000000009e-01 6.275000000009e-01 6.225000000009e-01 6.175000000009e-01 6.125000000009e-01 6.075000000009e-01 6.025000000009e-01 5.975000000009e-01 5.925000000009e-01 5.875000000009e-01 5.825000000009e-01 5.775000000009e-01 5.725000000009e-01 5.675000000009e-01 5.625000000009e-01 5.575000000009e-01 5.525000000009e-01 5.475000000009e-01 5.425000000009e-01 5.375000000009e-01 5.325000000009e-01 5.275000000009e-01 5.225000000009e-01 5.175000000009e-01 5.125000000009e-01 5.075000000009e-01 5.025000000009e-01 4.975000000009e-01 4.925000000009e-01 4.875000000009e-01 4.825000000009e-01 4.775000000009e-01 4.725000000009e-01 4.675000000009e-01 4.625000000009e-01 4.575000000009e-01 4.525000000009e-01 4.475000000009e-01 4.425000000009e-01 4.375000000009e-01 4.325000000009e-01 4.275000000009e-01 4.225000000009e-01 4.175000000009e-01 4.125000000008e-01 4.075000000008e-01 4.025000000008e-01 3.975000000008e-01 3.925000000008e-01 3.875000000008e-01 3.825000000008e-01 3.775000000008e-01 3.725000000008e-01 3.675000000008e-01 3.625000000008e-01 3.575000000008e-01 3.525000000008e-01 3.475000000008e-01 3.425000000007e-01 3.375000000007e-01 3.325000000007e-01 3.275000000007e-01 3.225000000007e-01 3.175000000007e-01 3.125000000007e-01 3.075000000007e-01 3.025000000007e-01 2.975000000007e-01 2.925000000007e-01 2.875000000007e-01 2.825000000006e-01 2.775000000006e-01 2.725000000006e-01 2.675000000006e-01 2.625000000006e-01 2.575000000006e-01 2.525000000006e-01 2.475000000006e-01 2.425000000006e-01 2.375000000006e-01 2.325000000005e-01 2.275000000005e-01 2.225000000005e-01 2.175000000005e-01 2.125000000005e-01 2.075000000005e-01 2.025000000005e-01 1.975000000005e-01 1.925000000005e-01 1.875000000004e-01 1.825000000004e-01 1.775000000004e-01 1.725000000004e-01 1.675000000004e-01 1.625000000004e-01 1.575000000004e-01 1.525000000004e-01 1.475000000004e-01 1.425000000003e-01 1.375000000003e-01 1.325000000003e-01 1.275000000003e-01 1.225000000003e-01 1.175000000003e-01 1.125000000003e-01 1.075000000003e-01 1.025000000003e-01 9.750000000024e-02 9.250000000023e-02 8.750000000021e-02 8.250000000020e-02 7.750000000019e-02 7.250000000018e-02 6.750000000017e-02 6.250000000015e-02 5.750000000014e-02 5.250000000013e-02 4.750000000012e-02 4.250000000010e-02 3.750000000009e-02 3.250000000008e-02 2.750000000007e-02 2.250000000006e-02 1.750000000004e-02 1.250000000003e-02 7.500000000018e-03 2.500000000006e-03 
        </DataArray>
        <DataArray type="Float64" Name="GL_NODAL_VELOCITY1" NumberOfComponents="3" format="ascii">