<?xml version="1.0"?>
<!-- Time step: 1 | Time: 8.640000000000e+04 -->
<VTKFile type="UnstructuredGrid" version="0.1" byte_order="LittleEndian">
  <UnstructuredGrid>
    <Piece NumberOfPoints="804" NumberOfCells="400">
      <Points>
        <DataArray type="Float64" NumberOfComponents="3" format="ascii">
          0.000000000000e+00 0.000000000000e+00 0.000000000000e+00
          1.000000000000e+02 0.000000000000e+00 0.000000000000e+00
          1.000000000000e+02 5.000000000000e-01 0.000000000000e+00
          0.000000000000e+00 5.000000000000e-01 0.000000000000e+00
          5.000000000000e+01 0.000000000000e+00 0.000000000000e+00
          5.000000000000e+01 5.000000000000e-01 0.000000000000e+00
          5.000000000000e-01 0.000000000000e+00 0.000000000000e+00
          1.000000000000e+00 0.000000000000e+00 0.000000000000e+00
          1.500000000000e+00 0.000000000000e+00 0.000000000000e+00
          2.000000000000e+00 0.000000000000e+00 0.000000000000e+00
          2.500000000000e+00 0.000000000000e+00 0.000000000000e+00
          3.000000000000e+00 0.000000000000e+00 0.000000000000e+00
          3.500000000000e+00 0.000000000000e+00 0.000000000000e+00
          4.000000000000e+00 0.000000000000e+00 0.000000000000e+00
          4.500000000000e+00 0.000000000000e+00 0.000000000000e+00
          5.000000000000e+00 0.000000000000e+00 0.000000000000e+00
          5.500000000000e+00 0.000000000000e+00 0.000000000000e+00
          6.000000000000e+00 0.000000000000e+00 0.000000000000e+00
          6.500000000000e+00 0.000000000000e+00 0.000000000000e+00
          7.000000000000e+00 0.000000000000e+00 0.000000000000e+00
          7.500000000000e+00 0.000000000000e+00 0.000000000000e+00
          8.000000000000e+00 0.000000000000e+00 0.000000000000e+00
          8.500000000000e+00 0.000000000000e+00 0.000000000000e+00
          9.000000000000e+00 0.000000000000e+00 0.000000000000e+00
          9.500000000000e+00 0.000000000000e+00 0.000000000000e+00
          1.000000000000e+01 0.000000000000e+00 0.000000000000e+00
          1.050000000000e+01 0.000000000000e+00 0.000000000000e+00
          1.100000000000e+01 0.000000000000e+00 0.000000000000e+00
          1.150000000000e+01 0.000000000000e+00 0.000000000000e+00
          1.200000000000e+01 0.000000000000e+00 0.000000000000e+00
          1.250000000000e+01 0.000000000000e+00 0.000000000000e+00
          1.300000000000e+01 0.000000000000e+00 0.000000000000e+00
          1.350000000000e+01 0.000000000000e+00 0.000000000000e+00
          1.400000000000e+01 0.000000000000e+00 0.000000000000e+00
          1.450000000000e+01 0.000000000000e+00 0.000000000000e+00
          1.500000000000e+01 0.000000000000e+00 0.000000000000e+00
          1.550000000000e+01 0.000000000000e+00 0.000000000000e+00
          1.600000000000e+01 0.000000000000e+00 0.000000000000e+00
          1.650000000000e+01 0.000000000000e+00 0.000000000000e+00
          1.700000000000e+01 0.000000000000e+00 0.000000000000e+00
          1.750000000000e+01 0.000000000000e+00 0.000000000000e+00
          1.800000000000e+01 0.000000000000e+00 0.000000000000e+00
          1.850000000000e+01 0.000000000000e+00 0.000000000000e+00
          1.900000000000e+01 0.000000000000e+00 0.000000000000e+00
          1.950000000000e+01 0.000000000000e+00 0.000000000000e+00
          2.000000000000e+01 0.000000000000e+00 0.000000000000e+00
          2.050000000000e+01 0.000000000000e+00 0.000000000000e+00
          2.100000000000e+01 0.000000000000e+00 0.000000000000e+00
          2.150000000000e+01 0.000000000000e+00 0.000000000000e+00
          2.200000000000e+01 0.000000000000e+00 0.000000000000e+00
          2.250000000000e+01 0.000000000000e+00 0.000000000000e+00
          2.300000000000e+01 0.000000000000e+00 0.000000000000e+00
          2.350000000000e+01 0.000000000000e+00 0.000000000000e+00
          2.400000000000e+01 0.000000000000e+00 0.000000000000e+00
          2.450000000000e+01 0.000000000000e+00 0.000000000000e+00
          2.500000000000e+01 0.000000000000e+00 0.000000000000e+00
          2.550000000000e+01 0.000000000000e+00 0.000000000000e+00
          2.600000000000e+01 0.000000000000e+00 0.000000000000e+00
          2.650000000000e+01 0.000000000000e+00 0.000000000000e+00
          2.700000000000e+01 0.000000000000e+00 0.000000000000e+00
          2.750000000000e+01 0.000000000000e+00 0.000000000000e+00
          2.800000000000e+01 0.000000000000e+00 0.000000000000e+00
          2.850000000000e+01 0.000000000000e+00 0.000000000000e+00
          2.900000000000e+01 0.000000000000e+00 0.000000000000e+00
          2.950000000000e+01 0.000000000000e+00 0.000000000000e+00
          3.000000000000e+01 0.000000000000e+00 0.000000000000e+00
          3.050000000000e+01 0.000000000000e+00 0.000000000000e+00
          3.100000000000e+01 0.000000000000e+00 0.000000000000e+00
          3.150000000000e+01 0.000000000000e+00 0.000000000000e+00
          3.200000000000e+01 0.000000000000e+00 0.000000000000e+00
          3.250000000000e+01 0.000000000000e+00 0.000000000000e+00
          3.300000000000e+01 0.000000000000e+00 0.000000000000e+00
          3.350000000000e+01 0.000000000000e+00 0.000000000000e+00
          3.400000000000e+01 0.000000000000e+00 0.000000000000e+00
          3.450000000000e+01 0.000000000000e+00 0.000000000000e+00
          3.500000000000e+01 0.000000000000e+00 0.000000000000e+00
          3.550000000000e+01 0.000000000000e+00 0.000000000000e+00
          3.600000000000e+01 0.000000000000e+00 0.000000000000e+00
          3.650000000000e+01 0.000000000000e+00 0.000000000000e+00
          3.700000000000e+01 0.000000000000e+00 0.000000000000e+00
          3.750000000000e+01 0.000000000000e+00 0.000000000000e+00
          3.800000000000e+01 0.000000000000e+00 0.000000000000e+00
          3.850000000000e+01 0.000000000000e+00 0.000000000000e+00
          3.900000000000e+01 0.000000000000e+00 0.000000000000e+00
          3.950000000000e+01 0.000000000000e+00 0.000000000000e+00
          4.000000000000e+01 0.000000000000e+00 0.000000000000e+00
          4.050000000000e+01 0.000000000000e+00 0.000000000000e+00
          4.100000000000e+01 0.000000000000e+00 0.000000000000e+00
          4.150000000000e+01 0.000000000000e+00 0.000000000000e+00
          4.200000000000e+01 0.000000000000e+00 0.000000000000e+00
          4.250000000000e+01 0.000000000000e+00 0.000000000000e+00
          4.300000000000e+01 0.000000000000e+00 0.000000000000e+00
          4.350000000000e+01 0.000000000000e+00 0.000000000000e+00
          4.400000000000e+01 0.000000000000e+00 0.000000000000e+00
          4.450000000000e+01 0.000000000000e+00 0.000000000000e+00
          4.500000000000e+01 0.000000000000e+00 0.000000000000e+00
          4.550000000000e+01 0.000000000000e+00 0.000000000000e+00
          4.600000000000e+01 0.000000000000e+00 0.000000000000e+00
          4.650000000000e+01 0.000000000000e+00 0.000000000000e+00
          4.700000000000e+01 0.000000000000e+00 0.000000000000e+00
          4.750000000000e+01 0.000000000000e+00 0.000000000000e+00
          4.800000000000e+01 0.000000000000e+00 0.000000000000e+00
          4.850000000000e+01 0.000000000000e+00 0.000000000000e+00
          4.900000000000e+01 0.000000000000e+00 0.000000000000e+00
          4.950000000000e+01 0.000000000000e+00 0.000000000000e+00
          5.000000000000e-01 5.000000000000e-01 0.000000000000e+00
          1.000000000000e+00 5.000000000000e-01 0.000000000000e+00
          1.500000000000e+00 5.000000000000e-01 0.000000000000e+00
          2.000000000000e+00 5.000000000000e-01 0.000000000000e+00
          2.500000000000e+00 5.000000000000e-01 0.000000000000e+00
          3.000000000000e+00 5.000000000000e-01 0.000000000000e+00
          3.500000000000e+00 5.000000000000e-01 0.000000000000e+00
          4.000000000000e+00 5.000000000000e-01 0.000000000000e+00
          4.500000000000e+00 5.000000000000e-01 0.000000000000e+00
          5.000000000000e+00 5.000000000000e-01 0.000000000000e+00
          5.500000000000e+00 5.000000000000e-01 0.000000000000e+00
          6.000000000000e+00 5.000000000000e-01 0.000000000000e+00
          6.500000000000e+00 5.000000000000e-01 0.000000000000e+00
          7.000000000000e+00 5.000000000000e-01 0.000000000000e+00
          7.500000000000e+00 5.000000000000e-01 0.000000000000e+00
          8.000000000000e+00 5.000000000000e-01 0.000000000000e+00
          8.500000000000e+00 5.000000000000e-01 0.000000000000e+00
          9.000000000000e+00 5.000000000000e-01 0.000000000000e+00
          9.500000000000e+00 5.000000000000e-01 0.000000000000e+00
          1.000000000000e+01 5.000000000000e-01 0.000000000000e+00
          1.050000000000e+01 5.000000000000e-01 0.000000000000e+00
          1.100000000000e+01 5.000000000000e-01 0.000000000000e+00
          1.150000000000e+01 5.000000000000e-01 0.000000000000e+00
          1.200000000000e+01 5.000000000000e-01 0.000000000000e+00
          1.250000000000e+01 5.000000000000e-01 0.000000000000e+00
          1.300000000000e+01 5.000000000000e-01 0.000000000000e+00
          1.350000000000e+01 5.000000000000e-01 0.000000000000e+00
          1.400000000000e+01 5.000000000000e-01 0.000000000000e+00
          1.450000000000e+01 5.000000000000e-01 0.000000000000e+00
          1.500000000000e+01 5.000000000000e-01 0.000000000000e+00
          1.550000000000e+01 5.000000000000e-01 0.000000000000e+00
          1.600000000000e+01 5.000000000000e-01 0.000000000000e+00
          1.650000000000e+01 5.000000000000e-01 0.000000000000e+00
          1.700000000000e+01 5.000000000000e-01 0.000000000000e+00
          1.750000000000e+01 5.000000000000e-01 0.000000000000e+00
          1.800000000000e+01 5.000000000000e-01 0.000000000000e+00
          1.850000000000e+01 5.000000000000e-01 0.000000000000e+00
          1.900000000000e+01 5.000000000000e-01 0.000000000000e+00
          1.950000000000e+01 5.000000000000e-01 0.000000000000e+00
[...]
      <PointData Scalars="HEAD">
        <DataArray type="Float64" Name="HEAD" format="ascii">
          1.000000000000e+00 0.000000000000e+00 0.000000000000e+00 1.000000000000e+00 4.999999999867e-01 4.999999999867e-01 9.949999999999e-01 9.899999999997e-01 9.849999999996e-01 9.799999999994e-01 9.749999999993e-01 9.699999999991e-01 9.649999999990e-01 9.599999999988e-01 9.549999999987e-01 9.499999999985e-01 9.449999999984e-01 9.399999999982e-01 9.349999999981e-01 9.299999999979e-01 9.249999999978e-01 9.199999999976e-01 9.149999999975e-01 9.099999999973e-01 9.049999999972e-01 8.999999999970e-01 8.949999999968e-01 8.899999999967e-01 8.849999999965e-01 8.799999999964e-01 8.749999999962e-01 8.699999999961e-01 8.649999999959e-01 8.599999999958e-01 8.549999999956e-01 8.499999999955e-01 8.449999999953e-01 8.399999999952e-01 8.349999999950e-01 8.299999999948e-01 8.249999999947e-01 8.199999999945e-01 8.149999999944e-01 8.099999999942e-01 8.049999999941e-01 7.999999999939e-01 7.949999999938e-01 7.899999999936e-01 7.849999999935e-01 7.799999999933e-01 7.749999999932e-01 7.699999999930e-01 7.649999999929e-01 7.599999999927e-01 7.549999999926e-01 7.499999999924e-01 7.449999999923e-01 7.399999999921e-01 7.349999999920e-01 7.299999999918e-01 7.249999999917e-01 7.199999999915e-01 7.149999999914e-01 7.099999999912e-01 7.049999999911e-01 6.999999999909e-01 6.949999999908e-01 6.899999999907e-01 6.849999999905e-01 6.799999999904e-01 6.749999999902e-01 6.699999999901e-01 6.649999999900e-01 6.599999999898e-01 6.549999999897e-01 6.499999999896e-01 6.449999999894e-01 6.399999999893e-01 6.349999999892e-01 6.299999999891e-01 6.249999999889e-01 6.199999999888e-01 6.149999999887e-01 6.099999999886e-01 6.049999999885e-01 5.999999999883e-01 5.949999999882e-01 5.899999999881e-01 5.849999999880e-01 5.799999999879e-01 5.749999999878e-01 5.699999999877e-01 5.649999999876e-01 5.599999999875e-01 5.549999999874e-01 5.499999999873e-01 5.449999999873e-01 5.399999999872e-01 5.349999999871e-01 5.299999999870e-01 5.249999999870e-01 5.199999999869e-01 5.149999999868e-01 5.099999999868e-01 5.049999999867e-01 9.949999999999e-01 9.899999999997e-01 9.849999999996e-01 9.799999999994e-01 9.749999999993e-01 9.699999999991e-01 9.649999999990e-01 9.599999999988e-01 9.549999999987e-01 9.499999999985e-01 9.449999999984e-01 9.399999999982e-01 9.349999999981e-01 9.299999999979e-01 9.249999999978e-01 9.199999999976e-01 9.149999999975e-01 9.099999999973e-01 9.049999999972e-01 8.999999999970e-01 8.949999999968e-01 8.899999999967e-01 8.849999999965e-01 8.799999999964e-01 8.749999999962e-01 8.699999999961e-01 8.649999999959e-01 8.599999999958e-01 8.549999999956e-01 8.499999999955e-01 8.449999999953e-01 8.399999999951e-01 8.349999999950e-01 8.299999999948e-01 8.249999999947e-01 8.199999999945e-01 8.149999999944e-01 8.099999999942e-01 8.049999999941e-01 7.999999999939e-01 7.949999999938e-01 7.899999999936e-01 7.849999999935e-01 7.799999999933e-01 7.749999999932e-01 7.699999999930e-01 7.649999999929e-01 7.599999999927e-01 7.549999999926e-01 7.499999999924e-01 7.449999999923e-01 7.399999999921e-01 7.349999999920e-01 7.299999999918e-01 7.249999999917e-01 7.199999999915e-01 7.149999999914e-01 7.099999999912e-01 7.049999999911e-01 6.999999999909e-01 6.949999999908e-01 6.899999999907e-01 6.849999999905e-01 6.799999999904e-01 6.749999999902e-01 6.699999999901e-01 6.649999999900e-01 6.599999999898e-01 6.549999999897e-01 6.499999999896e-01 6.449999999894e-01 6.399999999893e-01 6.349999999892e-01 6.299999999891e-01 6.249999999889e-01 6.199999999888e-01 6.149999999887e-01 6.099999999886e-01 6.049999999885e-01 5.999999999883e-01 5.949999999882e-01 5.899999999881e-01 5.849999999880e-01 5.799999999879e-01 5.749999999878e-01 5.699999999877e-01 5.649999999876e-01 5.599999999875e-01 5.549999999874e-01 5.499999999873e-01 5.449999999873e-01 5.399999999872e-01 5.349999999871e-01 5.299999999870e-01 5.249999999870e-01 5.199999999869e-01 5.149999999868e-01 5.099999999868e-01 5.049999999867e-01 4.949999999867e-01 4.899999999866e-01 4.849999999866e-01 4.799999999866e-01 4.749999999865e-01 4.699999999865e-01 4.649999999865e-01 4.599999999865e-01 4.549999999865e-01 4.499999999865e-01 4.449999999865e-01 4.399999999865e-01 4.349999999865e-01 4.299999999865e-01 4.249999999866e-01 4.199999999866e-01 4.149999999866e-01 4.099999999867e-01 4.049999999867e-01 3.999999999868e-01 3.949999999868e-01 3.899999999869e-01 3.849999999869e-01 3.799999999870e-01 3.749999999871e-01 3.699999999872e-01 3.649999999873e-01 3.599999999874e-01 3.549999999875e-01 3.499999999876e-01 3.449999999877e-01 3.399999999878e-01 3.349999999879e-01 3.299999999880e-01 3.249999999881e-01 3.199999999883e-01 3.149999999884e-01 3.099999999885e-01 3.049999999887e-01 2.999999999888e-01 2.949999999890e-01 2.899999999891e-01 2.849999999893e-01 2.799999999895e-01 2.749999999896e-01 2.699999999898e-01 2.649999999899e-01 2.599999999901e-01 2.549999999903e-01 2.499999999905e-01 2.449999999906e-01 2.399999999908e-01 2.349999999910e-01 2.299999999912e-01 2.249999999914e-01 2.199999999916e-01 2.149999999918e-01 2.099999999919e-01 2.049999999921e-01 1.999999999923e-01 1.949999999925e-01 1.899999999927e-01 1.849999999929e-01 1.799999999931e-01 1.749999999933e-01 1.699999999935e-01 1.649999999937e-01 1.599999999939e-01 1.549999999941e-01 1.499999999943e-01 1.449999999945e-01 1.399999999947e-01 1.349999999949e-01 1.299999999951e-01 1.249999999953e-01 1.199999999954e-01 1.149999999956e-01 1.099999999958e-01 1.049999999960e-01 9.999999999622e-02 9.499999999642e-02 8.999999999661e-02 8.499999999680e-02 7.999999999699e-02 7.499999999718e-02 6.999999999738e-02 6.499999999757e-02 5.999999999775e-02 5.499999999794e-02 4.999999999813e-02 4.499999999832e-02 3.999999999851e-02 3.499999999870e-02 2.999999999888e-02 2.499999999907e-02 1.999999999926e-02 1.499999999944e-02 9.999999999628e-03 4.999999999814e-03 4.949999999867e-01 4.899999999866e-01 4.849999999866e-01 4.799999999866e-01 4.749999999865e-01 4.699999999865e-01 4.649999999865e-01 4.599999999865e-01 4.549999999865e-01 4.499999999865e-01 4.449999999865e-01 4.399999999865e-01 4.349999999865e-01 4.299999999865e-01 4.249999999866e-01 4.199999999866e-01 4.149999999866e-01 4.099999999867e-01 4.049999999867e-01 3.999999999868e-01 3.949999999868e-01 3.899999999869e-01 3.849999999869e-01 3.799999999870e-01 3.749999999871e-01 3.699999999872e-01 3.649999999873e-01 3.599999999874e-01 3.549999999875e-01 3.499999999876e-01 3.449999999877e-01 3.399999999878e-01 3.349999999879e-01 3.299999999880e-01 3.249999999881e-01 3.199999999883e-01 3.149999999884e-01 3.099999999885e-01 3.049999999887e-01 2.999999999888e-01 2.949999999890e-01 2.899999999891e-01 2.849999999893e-01 2.799999999895e-01 2.749999999896e-01 2.699999999898e-01 2.649999999899e-01 2.599999999901e-01 2.549999999903e-01 2.499999999905e-01 2.449999999906e-01 2.399999999908e-01 2.349999999910e-01 2.299999999912e-01 2.249999999914e-01 2.199999999916e-01 2.149999999918e-01 2.099999999919e-01 2.049999999921e-01 1.999999999923e-01 1.949999999925e-01 1.899999999927e-01 1.849999999929e-01 1.799999999931e-01 1.749999999933e-01 1.699999999935e-01 1.649999999937e-01 1.599999999939e-01 1.549999999941e-01 1.499999999943e-01 1.449999999945e-01 1.399999999947e-01 1.349999999949e-01 1.299999999951e-01 1.249999999953e-01 1.199999999954e-01 1.149999999956e-01 1.099999999958e-01 1.049999999960e-01 9.999999999622e-02 9.499999999642e-02 8.999999999661e-02 8.499999999680e-02 7.999999999699e-02 7.499999999718e-02 6.999999999738e-02 6.499999999757e-02 5.999999999775e-02 5.499999999794e-02 4.999999999813e-02 4.499999999832e-02 3.999999999851e-02 3.499999999870e-02 2.999999999888e-02 2.499999999907e-02 1.999999999926e-02 1.499999999944e-02 9.999999999628e-03 4.999999999814e-03 1.000000000000e+00 0.000000000000e+00 0.000000000000e+00 1.000000000000e+00 4.999999999867e-01 4.999999999867e-01 9.949999999999e-01 9.899999999997e-01 9.849999999996e-01 9.799999999994e-01 9.749999999993e-01 9.699999999991e-01 9.649999999990e-01 9.599999999988e-01 9.549999999987e-01 9.499999999985e-01 9.449999999984e-01 9.399999999982e-01 9.349999999981e-01 9.299999999979e-01 9.249999999978e-01 9.199999999976e-01 9.149999999975e-01 9.099999999973e-01 9.049999999972e-01 8.999999999970e-01 8.949999999968e-01 8.899999999967e-01 8.849999999965e-01 8.799999999964e-01 8.749999999962e-01 8.699999999961e-01 8.649999999959e-01 8.599999999958e-01 8.549999999956e-01 8.499999999955e-01 8.449999999953e-01 8.399999999952e-01 8.349999999950e-01 8.299999999948e-01 8.249999999947e-01 8.199999999945e-01 8.149999999944e-01 8.099999999942e-01 8.049999999941e-01 7.999999999939e-01 7.949999999938e-01 7.899999999936e-01 7.849999999935e-01 7.799999999933e-01 7.749999999932e-01 7.699999999930e-01 7.649999999929e-01 7.599999999927e-01 7.549999999926e-01 7.499999999924e-01 7.449999999923e-01 7.399999999921e-01 7.349999999920e-01 7.299999999918e-01 7.249999999917e-01 7.199999999915e-01 7.149999999914e-01 7.099999999912e-01 7.049999999911e-01 6.999999999909e-01 6.949999999908e-01 6.899999999907e-01 6.849999999905e-01 6.799999999904e-01 6.749999999902e-01 6.699999999901e-01 6.649999999900e-01 6.599999999898e-01 6.549999999897e-01 6.499999999896e-01 6.449999999894e-01 6.399999999893e-01 6.349999999892e-01 6.299999999891e-01 6.249999999889e-01 6.199999999888e-01 6.149999999887e-01 6.099999999886e-01 6.049999999885e-01 5.999999999883e-01 5.949999999882e-01 5.899999999881e-01 5.849999999880e-01 5.799999999879e-01 5.749999999878e-01 5.699999999877e-01 5.649999999876e-01 5.599999999875e-01 5.549999999874e-01 5.499999999873e-01 5.449999999873e-01 5.399999999872e-01 5.349999999871e-01 5.299999999870e-01 5.249999999870e-01 5.199999999869e-01 5.149999999868e-01 5.099999999868e-01 5.049999999867e-01 9.949999999999e-01 9.899999999997e-01 9.849999999996e-01 9.799999999994e-01 9.749999999993e-01 9.699999999991e-01 9.649999999990e-01 9.599999999988e-01 9.549999999987e-01 9.499999999985e-01 9.449999999984e-01 9.399999999982e-01 9.349999999981e-01 9.299999999979e-01 9.249999999978e-01 9.199999999976e-01 9.149999999975e-01 9.099999999973e-01 9.049999999972e-01 8.999999999970e-01 8.949999999968e-01 8.899999999967e-01 8.849999999965e-01 8.799999999964e-01 8.749999999962e-01 8.699999999961e-01 8.649999999959e-01 8.599999999958e-01 8.549999999956e-01 8.499999999955e-01 8.449999999953e-01 8.399999999952e-01 8.349999999950e-01 8.299999999948e-01 8.249999999947e-01 8.199999999945e-01 8.149999999944e-01 8.099999999942e-01 8.049999999941e-01 7.999999999939e-01 7.949999999938e-01 7.899999999936e-01 7.849999999935e-01 7.799999999933e-01 7.749999999932e-01 7.699999999930e-01 7.649999999929e-01 7.599999999927e-01 7.549999999926e-01 7.499999999924e-01 7.449999999923e-01 7.399999999921e-01 7.349999999920e-01 7.299999999918e-01 7.249999999917e-01 7.199999999915e-01 7.149999999914e-01 7.099999999912e-01 7.049999999911e-01 6.999999999909e-01 6.949999999908e-01 6.899999999907e-01 6.849999999905e-01 6.799999999904e-01 6.749999999902e-01 6.699999999901e-01 6.649999999900e-01 6.599999999898e-01 6.549999999897e-01 6.499999999896e-01 6.449999999894e-01 6.399999999893e-01 6.349999999892e-01 6.299999999891e-01 6.249999999889e-01 6.199999999888e-01 6.149999999887e-01 6.099999999886e-01 6.049999999885e-01 5.999999999883e-01 5.949999999882e-01 5.899999999881e-01 5.849999999880e-01 5.799999999879e-01 5.749999999878e-01 5.699999999877e-01 5.649999999876e-01 5.599999999875e-01 5.549999999874e-01 5.499999999873e-01 5.449999999873e-01 5.399999999872e-01 5.349999999871e-01 5.299999999870e-01 5.249999999870e-01 5.199999999869e-01 5.149999999868e-01 5.099999999868e-01 5.049999999867e-01 4.949999999867e-01 4.899999999866e-01 4.849999999866e-01 4.799999999866e-01 4.749999999865e-01 4.699999999865e-01 4.649999999865e-01 4.599999999865e-01 4.549999999865e-01 4.499999999865e-01 4.449999999865e-01 4.399999999865e-01 4.349999999865e-01 4.299999999865e-01 4.249999999866e-01 4.199999999866e-01 4.149999999866e-01 4.099999999867e-01 4.049999999867e-01 3.999999999868e-01 3.949999999868e-01 3.899999999869e-01 3.849999999869e-01 3.799999999870e-01 3.749999999871e-01 3.699999999872e-01 3.649999999873e-01 3.599999999874e-01 3.549999999875e-01 3.499999999876e-01 3.449999999877e-01 3.399999999878e-01 3.349999999879e-01 3.299999999880e-01 3.249999999881e-01 3.199999999883e-01 3.149999999884e-01 3.099999999885e-01 3.049999999887e-01 2.999999999888e-01 2.949999999890e-01 2.899999999891e-01 2.849999999893e-01 2.799999999895e-01 2.749999999896e-01 2.699999999898e-01 2.649999999899e-01 2.599999999901e-01 2.549999999903e-01 2.499999999905e-01 2.449999999906e-01 2.399999999908e-01 2.349999999910e-01 2.299999999912e-01 2.249999999914e-01 2.199999999916e-01 2.149999999918e-01 2.099999999919e-01 2.049999999921e-01 1.999999999923e-01 1.949999999925e-01 1.899999999927e-01 1.849999999929e-01 1.799999999931e-01 1.749999999933e-01 1.699999999935e-01 1.649999999937e-01 1.599999999939e-01 1.549999999941e-01 1.499999999943e-01 1.449999999945e-01 1.399999999947e-01 1.349999999949e-01 1.299999999951e-01 1.249999999953e-01 1.199999999954e-01 1.149999999956e-01 1.099999999958e-01 1.049999999960e-01 9.999999999622e-02 9.499999999642e-02 8.999999999661e-02 8.499999999680e-02 7.999999999699e-02 7.499999999718e-02 6.999999999738e-02 6.499999999757e-02 5.999999999775e-02 5.499999999794e-02 4.999999999813e-02 4.499999999832e-02 3.999999999851e-02 3.499999999870e-02 2.999999999888e-02 2.499999999907e-02 1.999999999926e-02 1.499999999944e-02 9.999999999628e-03 4.999999999814e-03 4.949999999867e-01 4.899999999866e-01 4.849999999866e-01 4.799999999866e-01 4.749999999865e-01 4.699999999865e-01 4.649999999865e-01 4.599999999865e-01 4.549999999865e-01 4.499999999865e-01 4.449999999865e-01 4.399999999865e-01 4.349999999865e-01 4.299999999865e-01 4.249999999866e-01 4.199999999866e-01 4.149999999866e-01 4.099999999867e-01 4.049999999867e-01 3.999999999868e-01 3.949999999868e-01 3.899999999869e-01 3.849999999869e-01 3.799999999870e-01 3.749999999871e-01 3.699999999872e-01 3.649999999873e-01 3.599999999874e-01 3.549999999875e-01 3.499999999876e-01 3.449999999877e-01 3.399999999878e-01 3.349999999879e-01 3.299999999880e-01 3.249999999881e-01 3.199999999883e-01 3.149999999884e-01 3.099999999885e-01 3.049999999887e-01 2.999999999888e-01 2.949999999890e-01 2.899999999891e-01 2.849999999893e-01 2.799999999895e-01 2.749999999896e-01 2.699999999898e-01 2.649999999899e-01 2.599999999901e-01 2.549999999903e-01 2.499999999905e-01 2.449999999906e-01 2.399999999908e-01 2.349999999910e-01 2.299999999912e-01 2.249999999914e-01 2.199999999916e-01 2.149999999918e-01 2.099999999919e-01 2.049999999921e-01 1.999999999923e-01 1.949999999925e-01 1.899999999927e-01 1.849999999929e-01 1.799999999931e-01 1.749999999933e-01 1.699999999935e-01 1.649999999937e-01 1.599999999939e-01 1.549999999941e-01 1.499999999943e-01 1.449999999945e-01 1.399999999947e-01 1.349999999949e-01 1.299999999951e-01 1.249999999953e-01 1.199999999954e-01 1.149999999956e-01 1.099999999958e-01 1.049999999960e-01 9.999999999622e-02 9.499999999642e-02 8.999999999661e-02 8.499999999680e-02 7.999999999699e-02 7.499999999718e-02 6.999999999738e-02 6.499999999757e-02 5.999999999775e-02 5.499999999794e-02 4.999999999813e-02 4.499999999832e-02 3.999999999851e-02 3.499999999870e-02 2.999999999888e-02 2.499999999907e-02 1.999999999926e-02 1.499999999944e-02 9.999999999628e-03 4.999999999814e-03 
        </DataArray>
        <DataArray type="Float64" Name="GL_NODAL_VELOCITY1" NumberOfComponents="3" format="ascii">