<?xml version="1.0"?>
<!-- Time step: 1 | Time: 8.640000000000e+04 -->
<VTKFile type="UnstructuredGrid" version="0.1" byte_order="LittleEndian">
  <UnstructuredGrid>
    <Piece NumberOfPoints="804" NumberOfCells="400">
      <Points>
        <DataArray type="Float64" NumberOfComponents="3" format="ascii">
          0.000000000000e+00 0.000000000000e+00 0.000000000000e+00
          1.000000000000e+02 0.000000000000e+00 0.000000000000e+00
          1.000000000000e+02 5.000000000000e-01 0.000000000000e+00
          0.000000000000e+00 5.000000000000e-01 0.000000000000e+00
          5.000000000000e+01 0.000000000000e+00 0.000000000000e+00
          5.000000000000e+01 5.000000000000e-01 0.000000000000e+00
          5.000000000000e-01 0.000000000000e+00 0.000000000000e+00
          1.000000000000e+00 0.000000000000e+00 0.000000000000e+00
          1.500000000000e+00 0.000000000000e+00 0.000000000000e+00
          2.000000000000e+00 0.000000000000e+00 0.000000000000e+00
          2.500000000000e+00 0.000000000000e+00 0.000000000000e+00
          3.000000000000e+00 0.000000000000e+00 0.000000000000e+00
          3.500000000000e+00 0.000000000000e+00 0.000000000000e+00
          4.000000000000e+00 0.000000000000e+00 0.000000000000e+00
          4.500000000000e+00 0.000000000000e+00 0.000000000000e+00
          5.000000000000e+00 0.000000000000e+00 0.000000000000e+00
          5.500000000000e+00 0.000000000000e+00 0.000000000000e+00
          6.000000000000e+00 0.000000000000e+00 0.000000000000e+00
          6.500000000000e+00 0.000000000000e+00 0.000000000000e+00
          7.000000000000e+00 0.000000000000e+00 0.000000000000e+00
          7.500000000000e+00 0.000000000000e+00 0.000000000000e+00
          8.000000000000e+00 0.000000000000e+00 0.000000000000e+00
          8.500000000000e+00 0.000000000000e+00 0.000000000000e+00
          9.000000000000e+00 0.000000000000e+00 0.000000000000e+00
          9.500000000000e+00 0.000000000000e+00 0.000000000000e+00
          1.000000000000e+01 0.000000000000e+00 0.000000000000e+00
          1.050000000000e+01 0.000000000000e+00 0.000000000000e+00
          1.100000000000e+01 0.000000000000e+00 0.000000000000e+00
          1.150000000000e+01 0.000000000000e+00 0.000000000000e+00
          1.200000000000e+01 0.000000000000e+00 0.000000000000e+00
          1.250000000000e+01 0.000000000000e+00 0.000000000000e+00
          1.300000000000e+01 0.000000000000e+00 0.000000000000e+00
          1.350000000000e+01 0.000000000000e+00 0.000000000000e+00
          1.400000000000e+01 0.000000000000e+00 0.000000000000e+00
          1.450000000000e+01 0.000000000000e+00 0.000000000000e+00
          1.500000000000e+01 0.000000000000e+00 0.000000000000e+00
          1.550000000000e+01 0.000000000000e+00 0.000000000000e+00
          1.600000000000e+01 0.000000000000e+00 0.000000000000e+00
          1.650000000000e+01 0.000000000000e+00 0.000000000000e+00
          1.700000000000e+01 0.000000000000e+00 0.000000000000e+00
          1.750000000000e+01 0.000000000000e+00 0.000000000000e+00
          1.800000000000e+01 0.000000000000e+00 0.000000000000e+00
          1.850000000000e+01 0.000000000000e+00 0.000000000000e+00
          1.900000000000e+01 0.000000000000e+00 0.000000000000e+00
          1.950000000000e+01 0.000000000000e+00 0.000000000000e+00
          2.000000000000e+01 0.000000000000e+00 0.000000000000e+00
          2.050000000000e+01 0.000000000000e+00 0.000000000000e+00
          2.100000000000e+01 0.000000000000e+00 0.000000000000e+00
          2.150000000000e+01 0.000000000000e+00 0.000000000000e+00
          2.200000000000e+01 0.000000000000e+00 0.000000000000e+00
          2.250000000000e+01 0.000000000000e+00 0.000000000000e+00
          2.300000000000e+01 0.000000000000e+00 0.000000000000e+00
          2.350000000000e+01 0.000000000000e+00 0.000000000000e+00
          2.400000000000e+01 0.000000000000e+00 0.000000000000e+00
          2.450000000000e+01 0.000000000000e+00 0.000000000000e+00
          2.500000000000e+01 0.000000000000e+00 0.000000000000e+00
          2.550000000000e+01 0.000000000000e+00 0.000000000000e+00
          2.600000000000e+01 0.000000000000e+00 0.000000000000e+00
          2.650000000000e+01 0.000000000000e+00 0.000000000000e+00
          2.700000000000e+01 0.000000000000e+00 0.000000000000e+00
          2.750000000000e+01 0.000000000000e+00 0.000000000000e+00
          2.800000000000e+01 0.000000000000e+00 0.000000000000e+00
          2.850000000000e+01 0.000000000000e+00 0.000000000000e+00
          2.900000000000e+01 0.000000000000e+00 0.000000000000e+00
          2.950000000000e+01 0.000000000000e+00 0.000000000000e+00
          3.000000000000e+01 0.000000000000e+00 0.000000000000e+00
          3.050000000000e+01 0.000000000000e+00 0.000000000000e+00
          3.100000000000e+01 0.000000000000e+00 0.000000000000e+00
          3.150000000000e+01 0.000000000000e+00 0.000000000000e+00
          3.200000000000e+01 0.000000000000e+00 0.000000000000e+00
          3.250000000000e+01 0.000000000000e+00 0.000000000000e+00
          3.300000000000e+01 0.000000000000e+00 0.000000000000e+00
          3.350000000000e+01 0.000000000000e+00 0.000000000000e+00
          3.400000000000e+01 0.000000000000e+00 0.000000000000e+00
          3.450000000000e+01 0.000000000000e+00 0.000000000000e+00
          3.500000000000e+01 0.000000000000e+00 0.000000000000e+00
          3.550000000000e+01 0.000000000000e+00 0.000000000000e+00
          3.600000000000e+01 0.000000000000e+00 0.000000000000e+00
          3.650000000000e+01 0.000000000000e+00 0.000000000000e+00
          3.700000000000e+01 0.000000000000e+00 0.000000000000e+00
          3.750000000000e+01 0.000000000000e+00 0.000000000000e+00
          3.800000000000e+01 0.000000000000e+00 0.000000000000e+00
          3.850000000000e+01 0.000000000000e+00 0.000000000000e+00
          3.900000000000e+01 0.000000000000e+00 0.000000000000e+00
          3.950000000000e+01 0.000000000000e+00 0.000000000000e+00
          4.000000000000e+01 0.000000000000e+00 0.000000000000e+00
          4.050000000000e+01 0.000000000000e+00 0.000000000000e+00
          4.100000000000e+01 0.000000000000e+00 0.000000000000e+00
          4.150000000000e+01 0.000000000000e+00 0.000000000000e+00
          4.200000000000e+01 0.000000000000e+00 0.000000000000e+00
          4.250000000000e+01 0.000000000000e+00 0.000000000000e+00
          4.300000000000e+01 0.000000000000e+00 0.000000000000e+00
          4.350000000000e+01 0.000000000000e+00 0.000000000000e+00
          4.400000000000e+01 0.000000000000e+00 0.000000000000e+00
          4.450000000000e+01 0.000000000000e+00 0.000000000000e+00
          4.500000000000e+01 0.000000000000e+00 0.000000000000e+00
          4.550000000000e+01 0.000000000000e+00 0.000000000000e+00
          4.600000000000e+01 0.000000000000e+00 0.000000000000e+00
          4.650000000000e+01 0.000000000000e+00 0.000000000000e+00
          4.700000000000e+01 0.000000000000e+00 0.000000000000e+00
          4.750000000000e+01 0.000000000000e+00 0.000000000000e+00
          4.800000000000e+01 0.000000000000e+00 0.000000000000e+00
          4.850000000000e+01 0.000000000000e+00 0.000000000000e+00
          4.900000000000e+01 0.000000000000e+00 0.000000000000e+00
          4.950000000000e+01 0.000000000000e+00 0.000000000000e+00
          5.000000000000e-01 5.000000000000e-01 0.000000000000e+00
          1.000000000000e+00 5.000000000000e-01 0.000000000000e+00
          1.500000000000e+00 5.000000000000e-01 0.000000000000e+00
          2.000000000000e+00 5.000000000000e-01 0.000000000000e+00
          2.500000000000e+00 5.000000000000e-01 0.000000000000e+00
          3.000000000000e+00 5.000000000000e-01 0.000000000000e+00
          3.500000000000e+00 5.000000000000e-01 0.000000000000e+00
          4.000000000000e+00 5.000000000000e-01 0.000000000000e+00
          4.500000000000e+00 5.000000000000e-01 0.000000000000e+00
          5.000000000000e+00 5.000000000000e-01 0.000000000000e+00
          5.500000000000e+00 5.000000000000e-01 0.000000000000e+00
          6.000000000000e+00 5.000000000000e-01 0.000000000000e+00
          6.500000000000e+00 5.000000000000e-01 0.000000000000e+00
          7.000000000000e+00 5.000000000000e-01 0.000000000000e+00
          7.500000000000e+00 5.000000000000e-01 0.000000000000e+00
          8.000000000000e+00 5.000000000000e-01 0.000000000000e+00
          8.500000000000e+00 5.000000000000e-01 0.000000000000e+00
          9.000000000000e+00 5.000000000000e-01 0.000000000000e+00
          9.500000000000e+00 5.000000000000e-01 0.000000000000e+00
          1.000000000000e+01 5.000000000000e-01 0.000000000000e+00
          1.050000000000e+01 5.000000000000e-01 0.000000000000e+00
          1.100000000000e+01 5.000000000000e-01 0.000000000000e+00
          1.150000000000e+01 5.000000000000e-01 0.000000000000e+00
          1.200000000000e+01 5.000000000000e-01 0.000000000000e+00
          1.250000000000e+01 5.000000000000e-01 0.000000000000e+00
          1.300000000000e+01 5.000000000000e-01 0.000000000000e+00
          1.350000000000e+01 5.000000000000e-01 0.000000000000e+00
          1.400000000000e+01 5.000000000000e-01 0.000000000000e+00
          1.450000000000e+01 5.000000000000e-01 0.000000000000e+00
          1.500000000000e+01 5.000000000000e-01 0.000000000000e+00
          1.550000000000e+01 5.000000000000e-01 0.000000000000e+00
          1.600000000000e+01 5.000000000000e-01 0.000000000000e+00
          1.650000000000e+01 5.000000000000e-01 0.000000000000e+00
          1.700000000000e+01 5.000000000000e-01 0.000000000000e+00
          1.750000000000e+01 5.000000000000e-01 0.000000000000e+00
          1.800000000000e+01 5.000000000000e-01 0.000000000000e+00
          1.850000000000e+01 5.000000000000e-01 0.000000000000e+00
          1.900000000000e+01 5.000000000000e-01 0.000000000000e+00
          1.950000000000e+01 5.000000000000e-01 0.000000000000e+00
[...]
      <PointData Scalars="HEAD">
        <DataArray type="Float64" Name="HEAD" format="ascii">
          1.000000000000e+00 0.000000000000e+00 0.000000000000e+00 1.000000000000e+00 4.999999999654e-01 4.999999999654e-01 9.949999999993e-01 9.899999999985e-01 9.849999999978e-01 9.799999999971e-01 9.749999999964e-01 9.699999999957e-01 9.649999999950e-01 9.599999999943e-01 9.549999999937e-01 9.499999999930e-01 9.449999999924e-01 9.399999999917e-01 9.349999999911e-01 9.299999999905e-01 9.249999999898e-01 9.199999999892e-01 9.149999999886e-01 9.099999999880e-01 9.049999999875e-01 8.999999999869e-01 8.949999999863e-01 8.899999999858e-01 8.849999999852e-01 8.799999999847e-01 8.749999999841e-01 8.699999999836e-01 8.649999999831e-01 8.599999999826e-01 8.549999999821e-01 8.499999999816e-01 8.449999999811e-01 8.399999999806e-01 8.349999999802e-01 8.299999999797e-01 8.249999999793e-01 8.199999999788e-01 8.149999999784e-01 8.099999999780e-01 8.049999999775e-01 7.999999999771e-01 7.949999999767e-01 7.899999999763e-01 7.849999999759e-01 7.799999999755e-01 7.749999999752e-01 7.699999999748e-01 7.649999999744e-01 7.599999999741e-01 7.549999999737e-01 7.499999999734e-01 7.449999999731e-01 7.399999999727e-01 7.349999999724e-01 7.299999999721e-01 7.249999999718e-01 7.199999999715e-01 7.149999999712e-01 7.099999999710e-01 7.049999999707e-01 6.999999999704e-01 6.949999999702e-01 6.899999999699e-01 6.849999999697e-01 6.799999999694e-01 6.749999999692e-01 6.699999999690e-01 6.649999999688e-01 6.599999999686e-01 6.549999999684e-01 6.499999999682e-01 6.449999999680e-01 6.399999999678e-01 6.349999999676e-01 6.299999999674e-01 6.249999999673e-01 6.199999999671e-01 6.149999999670e-01 6.099999999668e-01 6.049999999667e-01 5.999999999666e-01 5.949999999664e-01 5.899999999663e-01 5.849999999662e-01 5.799999999661e-01 5.749999999660e-01 5.699999999659e-01 5.649999999658e-01 5.599999999658e-01 5.549999999657e-01 5.499999999656e-01 5.449999999656e-01 5.399999999655e-01 5.349999999655e-01 5.299999999655e-01 5.249999999654e-01 5.199999999654e-01 5.149999999654e-01 5.099999999654e-01 5.049999999654e-01 9.949999999993e-01 9.899999999985e-01 9.849999999978e-01 9.799999999971e-01 9.749999999964e-01 9.699999999957e-01 9.649999999950e-01 9.599999999943e-01 9.549999999937e-01 9.499999999930e-01 9.449999999924e-01 9.399999999917e-01 9.349999999911e-01 9.299999999905e-01 9.249999999898e-01 9.199999999892e-01 9.149999999886e-01 9.099999999880e-01 9.049999999875e-01 8.999999999869e-01 8.949999999863e-01 8.899999999858e-01 8.849999999852e-01 8.799999999847e-01 8.749999999841e-01 8.699999999836e-01 8.649999999831e-01 8.599999999826e-01 8.549999999821e-01 8.499999999816e-01 8.449999999811e-01 8.399999999807e-01 8.349999999802e-01 8.299999999797e-01 8.249999999793e-01 8.199999999788e-01 8.149999999784e-01 8.099999999780e-01 8.049999999775e-01 7.999999999771e-01 7.949999999767e-01 7.899999999763e-01 7.849999999759e-01 7.799999999755e-01 7.749999999752e-01 7.699999999748e-01 7.649999999744e-01 7.599999999741e-01 7.549999999737e-01 7.499999999734e-01 7.449999999731e-01 7.399999999728e-01 7.349999999724e-01 7.299999999721e-01 7.249999999718e-01 7.199999999715e-01 7.149999999712e-01 7.099999999710e-01 7.049999999707e-01 6.999999999704e-01 6.949999999702e-01 6.899999999699e-01 6.849999999697e-01 6.799999999694e-01 6.749999999692e-01 6.699999999690e-01 6.649999999688e-01 6.599999999686e-01 6.549999999684e-01 6.499999999682e-01 6.449999999680e-01 6.399999999678e-01 6.349999999676e-01 6.299999999674e-01 6.249999999673e-01 6.199999999671e-01 6.149999999670e-01 6.099999999668e-01 6.049999999667e-01 5.999999999666e-01 5.949999999664e-01 5.899999999663e-01 5.849999999662e-01 5.799999999661e-01 5.749999999660e-01 5.699999999659e-01 5.649999999659e-01 5.599999999658e-01 5.549999999657e-01 5.499999999656e-01 5.449999999656e-01 5.399999999655e-01 5.349999999655e-01 5.299999999655e-01 5.249999999654e-01 5.199999999654e-01 5.149999999654e-01 5.099999999654e-01 5.049999999654e-01 4.949999999654e-01 4.899999999654e-01 4.849999999654e-01 4.799999999655e-01 4.749999999655e-01 4.699999999656e-01 4.649999999656e-01 4.599999999657e-01 4.549999999658e-01 4.499999999658e-01 4.449999999659e-01 4.399999999660e-01 4.349999999661e-01 4.299999999662e-01 4.249999999663e-01 4.199999999664e-01 4.149999999666e-01 4.099999999667e-01 4.049999999668e-01 3.999999999670e-01 3.949999999671e-01 3.899999999673e-01 3.849999999675e-01 3.799999999676e-01 3.749999999678e-01 3.699999999680e-01 3.649999999682e-01 3.599999999684e-01 3.549999999686e-01 3.499999999689e-01 3.449999999691e-01 3.399999999693e-01 3.349999999696e-01 3.299999999698e-01 3.249999999701e-01 3.199999999703e-01 3.149999999706e-01 3.099999999709e-01 3.049999999712e-01 2.999999999715e-01 2.949999999718e-01 2.899999999721e-01 2.849999999724e-01 2.799999999727e-01 2.749999999731e-01 2.699999999734e-01 2.649999999738e-01 2.599999999741e-01 2.549999999745e-01 2.499999999748e-01 2.449999999752e-01 2.399999999756e-01 2.349999999760e-01 2.299999999764e-01 2.249999999768e-01 2.199999999772e-01 2.149999999776e-01 2.099999999780e-01 2.049999999785e-01 1.999999999789e-01 1.949999999793e-01 1.899999999798e-01 1.849999999802e-01 1.799999999807e-01 1.749999999812e-01 1.699999999816e-01 1.649999999821e-01 1.599999999826e-01 1.549999999831e-01 1.499999999836e-01 1.449999999841e-01 1.399999999846e-01 1.349999999851e-01 1.299999999856e-01 1.249999999861e-01 1.199999999866e-01 1.149999999871e-01 1.099999999877e-01 1.049999999882e-01 9.999999998873e-02 9.499999998927e-02 8.999999998982e-02 8.499999999037e-02 7.999999999092e-02 7.499999999147e-02 6.999999999203e-02 6.499999999258e-02 5.999999999314e-02 5.499999999371e-02 4.999999999427e-02 4.499999999484e-02 3.999999999541e-02 3.499999999598e-02 2.999999999655e-02 2.499999999713e-02 1.999999999770e-02 1.499999999827e-02 9.999999998849e-03 4.999999999424e-03 4.949999999654e-01 4.899999999654e-01 4.849999999655e-01 4.799999999655e-01 4.749999999655e-01 4.699999999656e-01 4.649999999656e-01 4.599999999657e-01 4.549999999658e-01 4.499999999658e-01 4.449999999659e-01 4.399999999660e-01 4.349999999661e-01 4.299999999662e-01 4.249999999663e-01 4.199999999664e-01 4.149999999666e-01 4.099999999667e-01 4.049999999668e-01 3.999999999670e-01 3.949999999671e-01 3.899999999673e-01 3.849999999675e-01 3.799999999676e-01 3.749999999678e-01 3.699999999680e-01 3.649999999682e-01 3.599999999684e-01 3.549999999686e-01 3.499999999689e-01 3.449999999691e-01 3.399999999693e-01 3.349999999696e-01 3.299999999698e-01 3.249999999701e-01 3.199999999704e-01 3.149999999706e-01 3.099999999709e-01 3.049999999712e-01 2.999999999715e-01 2.949999999718e-01 2.899999999721e-01 2.849999999724e-01 2.799999999727e-01 2.749999999731e-01 2.699999999734e-01 2.649999999738e-01 2.599999999741e-01 2.549999999745e-01 2.499999999748e-01 2.449999999752e-01 2.399999999756e-01 2.349999999760e-01 2.299999999764e-01 2.249999999768e-01 2.199999999772e-01 2.149999999776e-01 2.099999999780e-01 2.049999999785e-01 1.999999999789e-01 1.949999999793e-01 1.899999999798e-01 1.849999999802e-01 1.799999999807e-01 1.749999999812e-01 1.699999999816e-01 1.649999999821e-01 1.599999999826e-01 1.549999999831e-01 1.499999999836e-01 1.449999999841e-01 1.399999999846e-01 1.349999999851e-01 1.299999999856e-01 1.249999999861e-01 1.199999999866e-01 1.149999999871e-01 1.099999999877e-01 1.049999999882e-01 9.999999998873e-02 9.499999998928e-02 8.999999998982e-02 8.499999999037e-02 7.999999999092e-02 7.499999999147e-02 6.999999999203e-02 6.499999999259e-02 5.999999999315e-02 5.499999999371e-02 4.999999999428e-02 4.499999999484e-02 3.999999999541e-02 3.499999999598e-02 2.999999999655e-02 2.499999999713e-02 1.999999999770e-02 1.499999999827e-02 9.999999998849e-03 4.999999999424e-03 1.000000000000e+00 0.000000000000e+00 0.000000000000e+00 1.000000000000e+00 4.999999999654e-01 4.999999999654e-01 9.949999999993e-01 9.899999999985e-01 9.849999999978e-01 9.799999999971e-01 9.749999999964e-01 9.699999999957e-01 9.649999999950e-01 9.599999999943e-01 9.549999999937e-01 9.499999999930e-01 9.449999999924e-01 9.399999999917e-01 9.349999999911e-01 9.299999999905e-01 9.249999999898e-01 9.199999999892e-01 9.149999999886e-01 9.099999999880e-01 9.049999999875e-01 8.999999999869e-01 8.949999999863e-01 8.899999999858e-01 8.849999999852e-01 8.799999999847e-01 8.749999999841e-01 8.699999999836e-01 8.649999999831e-01 8.599999999826e-01 8.549999999821e-01 8.499999999816e-01 8.449999999811e-01 8.399999999806e-01 8.349999999802e-01 8.299999999797e-01 8.249999999793e-01 8.199999999788e-01 8.149999999784e-01 8.099999999780e-01 8.049999999775e-01 7.999999999771e-01 7.949999999767e-01 7.899999999763e-01 7.849999999759e-01 7.799999999755e-01 7.749999999752e-01 7.699999999748e-01 7.649999999744e-01 7.599999999741e-01 7.549999999737e-01 7.499999999734e-01 7.449999999731e-01 7.399999999727e-01 7.349999999724e-01 7.299999999721e-01 7.249999999718e-01 7.199999999715e-01 7.149999999712e-01 7.099999999710e-01 7.049999999707e-01 6.999999999704e-01 6.949999999702e-01 6.899999999699e-01 6.849999999697e-01 6.799999999694e-01 6.749999999692e-01 6.699999999690e-01 6.649999999688e-01 6.599999999686e-01 6.549999999684e-01 6.499999999682e-01 6.449999999680e-01 6.399999999678e-01 6.349999999676e-01 6.299999999674e-01 6.249999999673e-01 6.199999999671e-01 6.149999999670e-01 6.099999999668e-01 6.049999999667e-01 5.999999999666e-01 5.949999999664e-01 5.899999999663e-01 5.849999999662e-01 5.799999999661e-01 5.749999999660e-01 5.699999999659e-01 5.649999999658e-01 5.599999999658e-01 5.549999999657e-01 5.499999999656e-01 5.449999999656e-01 5.399999999655e-01 5.349999999655e-01 5.299999999655e-01 5.249999999654e-01 5.199999999654e-01 5.149999999654e-01 5.099999999654e-01 5.049999999654e-01 9.949999999993e-01 9.899999999985e-01 9.849999999978e-01 9.799999999971e-01 9.749999999964e-01 9.699999999957e-01 9.649999999950e-01 9.599999999943e-01 9.549999999937e-01 9.499999999930e-01 9.449999999924e-01 9.399999999917e-01 9.349999999911e-01 9.299999999905e-01 9.249999999898e-01 9.199999999892e-01 9.149999999886e-01 9.099999999881e-01 9.049999999875e-01 8.999999999869e-01 8.949999999863e-01 8.899999999858e-01 8.849999999852e-01 8.799999999847e-01 8.749999999841e-01 8.699999999836e-01 8.649999999831e-01 8.599999999826e-01 8.549999999821e-01 8.499999999816e-01 8.449999999811e-01 8.399999999807e-01 8.349999999802e-01 8.299999999797e-01 8.249999999793e-01 8.199999999788e-01 8.149999999784e-01 8.099999999780e-01 8.049999999775e-01 7.999999999771e-01 7.949999999767e-01 7.899999999763e-01 7.849999999759e-01 7.799999999755e-01 7.749999999752e-01 7.699999999748e-01 7.649999999744e-01 7.599999999741e-01 7.549999999737e-01 7.499999999734e-01 7.449999999731e-01 7.399999999728e-01 7.349999999724e-01 7.299999999721e-01 7.249999999718e-01 7.199999999715e-01 7.149999999713e-01 7.099999999710e-01 7.049999999707e-01 6.999999999704e-01 6.949999999702e-01 6.899999999699e-01 6.849999999697e-01 6.799999999694e-01 6.749999999692e-01 6.699999999690e-01 6.649999999688e-01 6.599999999686e-01 6.549999999684e-01 6.499999999682e-01 6.449999999680e-01 6.399999999678e-01 6.349999999676e-01 6.299999999674e-01 6.249999999673e-01 6.199999999671e-01 6.149999999670e-01 6.099999999668e-01 6.049999999667e-01 5.999999999666e-01 5.949999999664e-01 5.899999999663e-01 5.849999999662e-01 5.799999999661e-01 5.749999999660e-01 5.699999999659e-01 5.649999999659e-01 5.599999999658e-01 5.549999999657e-01 5.499999999656e-01 5.449999999656e-01 5.399999999655e-01 5.349999999655e-01 5.299999999655e-01 5.249999999654e-01 5.199999999654e-01 5.149999999654e-01 5.099999999654e-01 5.049999999654e-01 4.949999999654e-01 4.899999999654e-01 4.849999999654e-01 4.799999999655e-01 4.749999999655e-01 4.699999999656e-01 4.649999999656e-01 4.599999999657e-01 4.549999999658e-01 4.499999999658e-01 4.449999999659e-01 4.399999999660e-01 4.349999999661e-01 4.299999999662e-01 4.249999999663e-01 4.199999999664e-01 4.149999999666e-01 4.099999999667e-01 4.049999999668e-01 3.999999999670e-01 3.949999999671e-01 3.899999999673e-01 3.849999999675e-01 3.799999999676e-01 3.749999999678e-01 3.699999999680e-01 3.649999999682e-01 3.599999999684e-01 3.549999999686e-01 3.499999999689e-01 3.449999999691e-01 3.399999999693e-01 3.349999999696e-01 3.299999999698e-01 3.249999999701e-01 3.199999999703e-01 3.149999999706e-01 3.099999999709e-01 3.049999999712e-01 2.999999999715e-01 2.949999999718e-01 2.899999999721e-01 2.849999999724e-01 2.799999999727e-01 2.749999999731e-01 2.699999999734e-01 2.649999999738e-01 2.599999999741e-01 2.549999999745e-01 2.499999999748e-01 2.449999999752e-01 2.399999999756e-01 2.349999999760e-01 2.299999999764e-01 2.249999999768e-01 2.199999999772e-01 2.149999999776e-01 2.099999999780e-01 2.049999999785e-01 1.999999999789e-01 1.949999999793e-01 1.899999999798e-01 1.849999999802e-01 1.799999999807e-01 1.749999999812e-01 1.699999999816e-01 1.649999999821e-01 1.599999999826e-01 1.549999999831e-01 1.499999999836e-01 1.449999999841e-01 1.399999999846e-01 1.349999999851e-01 1.299999999856e-01 1.249999999861e-01 1.199999999866e-01 1.149999999871e-01 1.099999999877e-01 1.049999999882e-01 9.999999998873e-02 9.499999998927e-02 8.999999998982e-02 8.499999999037e-02 7.999999999092e-02 7.499999999147e-02 6.999999999203e-02 6.499999999258e-02 5.999999999314e-02 5.499999999371e-02 4.999999999427e-02 4.499999999484e-02 3.999999999541e-02 3.499999999598e-02 2.999999999655e-02 2.499999999713e-02 1.999999999770e-02 1.499999999827e-02 9.999999998849e-03 4.999999999424e-03 4.949999999654e-01 4.899999999654e-01 4.849999999655e-01 4.799999999655e-01 4.749999999655e-01 4.699999999656e-01 4.649999999656e-01 4.599999999657e-01 4.549999999658e-01 4.499999999658e-01 4.449999999659e-01 4.399999999660e-01 4.349999999661e-01 4.299999999662e-01 4.249999999663e-01 4.199999999664e-01 4.149999999666e-01 4.099999999667e-01 4.049999999668e-01 3.999999999670e-01 3.949999999671e-01 3.899999999673e-01 3.849999999675e-01 3.799999999676e-01 3.749999999678e-01 3.699999999680e-01 3.649999999682e-01 3.599999999684e-01 3.549999999686e-01 3.499999999689e-01 3.449999999691e-01 3.399999999693e-01 3.349999999696e-01 3.299999999698e-01 3.249999999701e-01 3.199999999704e-01 3.149999999706e-01 3.099999999709e-01 3.049999999712e-01 2.999999999715e-01 2.949999999718e-01 2.899999999721e-01 2.849999999724e-01 2.799999999727e-01 2.749999999731e-01 2.699999999734e-01 2.649999999738e-01 2.599999999741e-01 2.549999999745e-01 2.499999999748e-01 2.449999999752e-01 2.399999999756e-01 2.349999999760e-01 2.299999999764e-01 2.249999999768e-01 2.199999999772e-01 2.149999999776e-01 2.099999999780e-01 2.049999999785e-01 1.999999999789e-01 1.949999999793e-01 1.899999999798e-01 1.849999999802e-01 1.799999999807e-01 1.749999999812e-01 1.699999999816e-01 1.649999999821e-01 1.599999999826e-01 1.549999999831e-01 1.499999999836e-01 1.449999999841e-01 1.399999999846e-01 1.349999999851e-01 1.299999999856e-01 1.249999999861e-01 1.199999999866e-01 1.149999999871e-01 1.099999999877e-01 1.049999999882e-01 9.999999998873e-02 9.499999998928e-02 8.999999998982e-02 8.499999999037e-02 7.999999999092e-02 7.499999999147e-02 6.999999999203e-02 6.499999999259e-02 5.999999999315e-02 5.499999999371e-02 4.999999999428e-02 4.499999999484e-02 3.999999999541e-02 3.499999999598e-02 2.999999999655e-02 2.499999999713e-02 1.999999999770e-02 1.499999999827e-02 9.999999998849e-03 4.999999999424e-03 
        </DataArray>
        <DataArray type="Float64" Name="GL_NODAL_VELOCITY1" NumberOfComponents="3" format="ascii">