 TITLE = "Time curves in points"
 VARIABLES = "TIME "  "DISPLACEMENT_X1"  "DISPLACEMENT_Y1"  "STRESS_XX"  "STRESS_XY"  "STRESS_YY"  "STRESS_ZZ"  "STRAIN_XX"  "STRAIN_XY"  "STRAIN_YY"  p_(1st_Invariant)  q_(2nd_Invariant)   Effective_Strain
 ZONE T="POINT=POINT4"
0.000000000000e+00 0.000000000000e+00 0.000000000000e+00 -1.000000000000e+05 0.000000000000e+00 -1.000000000000e+05 -1.000000000000e+05 0.000000000000e+00 0.000000000000e+00 0.000000000000e+00 1.000000000000e+05 0.000000000000e+00  0.000000000000e+00
1.000000000000e-03 -3.459693557944e-07 0.000000000000e+00 2.647846480565e+05 -1.040940000744e+04 5.335098654979e+05 2.835865166867e+05 5.520522917889e-02 -1.019608612474e-02 3.558217422795e-01 -3.606270100804e+05 2.604597537864e+05  3.321526596235e-01
2.000000000000e-03 1.069126717206e-06 0.000000000000e+00 5.535567508517e+05 -2.522721373485e+04 9.755739355686e+05 5.758631009810e+05 1.721101648571e-01 4.416635283917e-02 1.111505066515e+00 -7.016645958004e+05 4.136322657966e+05  1.039045764954e+00
3.000000000000e-03 5.089100562420e-05 0.000000000000e+00 1.366226762116e+06 -2.065593144349e+04 2.140309344416e+06 1.366486172361e+06 2.491163400548e-01 1.533561732692e-02 1.413592554119e+00 -1.624340759631e+06 7.747793938107e+05  1.307233491006e+00
4.000000000000e-03 1.016297984493e-04 0.000000000000e+00 4.257849903643e+06 -1.938915017067e+05 8.029234840474e+06 4.875669919928e+06 2.891888722479e-01 -2.674360100820e-02 1.543386328559e+00 -5.720918221348e+06 3.519629320609e+06  1.421790094142e+00
5.000000000000e-03 1.088440020148e-04 0.000000000000e+00 9.737020373157e+06 1.592109116821e+05 1.426149860520e+07 9.585769978854e+06 3.062193743092e-01 -3.821688067830e-02 1.571966615365e+00 -1.119476298574e+07 4.610222707613e+06  1.444944393927e+00
6.000000000000e-03 1.145248458578e-04 0.000000000000e+00 1.711703146015e+07 -1.003020750865e+06 3.374840788148e+07 1.976569626710e+07 3.097178892364e-01 -4.425423939727e-02 1.581417197244e+00 -2.354371186958e+07 1.557515063777e+07  1.453577531277e+00
7.000000000000e-03 1.151592483401e-04 0.000000000000e+00 1.650478118584e+07 -6.902910338929e+05 3.175552913338e+07 1.798745010939e+07 3.100283847599e-01 -4.375855883567e-02 1.582397673838e+00 -2.208258680953e+07 1.461510571935e+07  1.454392050677e+00
8.000000000000e-03 1.150574432665e-04 0.000000000000e+00 1.527576073472e+07 -7.763217116311e+05 3.166064645775e+07 1.683347590434e+07 3.098780110704e-01 -4.386073750389e-02 1.583084914212e+00 -2.125662769894e+07 1.572183188637e+07  1.455125532613e+00
9.000000000000e-03 1.150807429632e-04 0.000000000000e+00 1.422421072407e+07 -7.602279691069e+05 3.154731965571e+07 1.572095210836e+07 3.097920603122e-01 -4.378588175180e-02 1.583860272049e+00 -2.049749416271e+07 1.667740877599e+07  1.455908223551e+00
1.000000000000e-02 1.150054298991e-04 0.000000000000e+00 1.328226001811e+07 -7.421340494597e+05 3.148542763188e+07 1.473231953990e+07 3.097111802118e-01 -4.373282782781e-02 1.584643958252e+00 -1.983333572996e+07 1.757027592580e+07  1.456699426696e+00
2.000000000000e-02 1.278184760146e-04 0.000000000000e+00 2.691459491945e+07 -1.508342949910e+07 9.711769423839e+07 4.488593132102e+07 3.747766288633e-01 -5.336751360325e-02 1.689652843262e+00 -5.630607349295e+07 6.835444468440e+07  1.539703260458e+00
3.000000000000e-02 1.544992486820e-04 0.000000000000e+00 -1.897626770847e+07 -4.839426925084e+06 2.274968674588e+07 -4.905463620875e+06 1.910292391980e-02 1.147311798255e-02 1.659031533566e+00 3.773481944893e+05 3.771187122370e+07  1.649682725621e+00
4.000000000000e-02 -5.056779239840e-05 0.000000000000e+00 3.395412498518e+06 1.834751244427e+06 4.122132934864e+07 1.065120799028e+07 6.622756053155e-01 8.449924926588e-02 1.649607334022e+00 -1.842264994581e+07 3.491544605478e+07  1.445247040323e+00
5.000000000000e-02 2.611690799233e-05 0.000000000000e+00 -1.601648956350e+07 -5.035403903008e+06 1.948363717882e+07 -6.750031628159e+06 6.397666365429e-01 1.912304548176e-02 1.637300101163e+00 1.094294670947e+06 3.306405431326e+07  1.429566390335e+00
6.000000000000e-02 -8.807277039556e-05 0.000000000000e+00 -7.843117473644e+06 -1.670212046246e+06 3.433293688090e+07 1.860946750997e+06 8.410979866436e-01 2.655024337469e-01 1.682855094492e+00 -9.450255386086e+06 3.836767008868e+07  1.528226320733e+00
7.000000000000e-02 2.909936050709e-05 0.000000000000e+00 -1.757440362678e+05 -3.668190191435e+06 3.447433386926e+07 4.182468445758e+06 8.132978408907e-01 3.555251594992e-01 1.690112578143e+00 -1.282701942625e+07 3.330129683223e+07  1.588257980065e+00
8.000000000000e-02 -8.477089090272e-05 0.000000000000e+00 -7.465207880103e+06 -8.653867109130e+05 2.975365703483e+07 -1.403680168478e+06 8.359848763740e-01 3.215899581205e-01 1.694766649561e+00 -6.961589662081e+06 3.462122939983e+07  1.569893539533e+00
9.000000000000e-02 1.908407644420e-05 0.000000000000e+00 -8.549495885229e+06 -3.184420329244e+06 2.975191582185e+07 -2.386838660974e+06 7.669041934445e-01 3.800109375400e-01 1.700522746164e+00 -6.271860425218e+06 3.604663104596e+07  1.615241952468e+00
1.000000000000e-01 -1.349275936677e-05 0.000000000000e+00 -1.217502772070e+07 -2.404541216795e+06 2.785720965851e+07 -4.773959627032e+06 7.414791552072e-01 3.629470210943e-01 1.702341495776e+00 -3.636074103593e+06 3.712707878513e+07  1.606455350158e+00
1.100000000000e-01 -3.367237435854e-05 0.000000000000e+00 -1.154179952937e+07 -2.098160202545e+06 2.714226081156e+07 -4.889764613315e+06 7.520536101354e-01 3.699745540504e-01 1.701901301086e+00 -3.570232222958e+06 3.600812688282e+07  1.610209665080e+00
1.200000000000e-01 -8.149354664112e-06 0.000000000000e+00 -1.360246067681e+07 -2.392629871731e+06 2.618690984871e+07 -6.426041163083e+06 7.588409608343e-01 3.832966520713e-01 1.703502551733e+00 -2.052802669605e+06 3.696381773959e+07  1.620438830973e+00
1.300000000000e-01 -5.766112789917e-06 0.000000000000e+00 -1.202461517223e+07 -2.624986783661e+06 2.853414283880e+07 -5.257882822104e+06 7.579143695955e-01 3.798948722989e-01 1.706694661777e+00 -3.750548281487e+06 3.790808521971e+07  1.620701327667e+00
1.400000000000e-01 -5.895155794273e-06 0.000000000000e+00 -1.175692078895e+07 -2.768698815650e+06 2.902314119849e+07 -5.293488849254e+06 7.606497493315e-01 3.799900479338e-01 1.709731656510e+00 -3.990910520095e+06 3.826496220279e+07  1.623096032917e+00
1.500000000000e-01 -5.594064230389e-06 0.000000000000e+00 -1.165791576764e+07 -2.823538321242e+06 2.926849284879e+07 -5.456789398040e+06 7.629385696695e-01 3.786944834611e-01 1.712854048493e+00 -4.051262561038e+06 3.851690751814e+07  1.624613914175e+00
1.600000000000e-01 -5.130051125299e-06 0.000000000000e+00 -1.176358652192e+07 -2.851154940937e+06 2.925920122617e+07 -5.768420347789e+06 7.648741093872e-01 3.762267236442e-01 1.715436428001e+00 -3.909064785486e+06 3.869444347830e+07  1.624900389070e+00
1.700000000000e-01 -3.470909069665e-06 0.000000000000e+00 -1.192119762874e+07 -2.899769655145e+06 2.920526780693e+07 -6.187277744344e+06 7.666709621676e-01 3.737962479261e-01 1.717695580811e+00 -3.698930811280e+06 3.890596523278e+07  1.624969554732e+00
1.800000000000e-01 -7.136178791303e-07 0.000000000000e+00 -1.202890554796e+07 -2.934564149281e+06 2.915932006552e+07 -6.474208092532e+06 7.665860121718e-01 3.729144272758e-01 1.719705880798e+00 -3.552068808342e+06 3.904319993594e+07  1.626018286321e+00
1.900000000000e-01 1.643092460339e-06 0.000000000000e+00 -1.226743213567e+07 -2.970179104455e+06 2.901712614701e+07 -6.905586932957e+06 7.662041177922e-01 3.718329305397e-01 1.721538769490e+00 -3.281369026129e+06 3.922076768165e+07  1.626804713405e+00
2.000000000000e-01 4.787769592583e-06 0.000000000000e+00 -1.239752592156e+07 -3.010979346437e+06 2.893722509859e+07 -7.217845518978e+06 7.661231874068e-01 3.708776902955e-01 1.723381437743e+00 -3.107284552685e+06 3.935083126237e+07  1.627672148043e+00
2.100000000000e-01 6.888373680536e-06 0.000000000000e+00 -1.257148623156e+07 -3.037546310917e+06 2.884125426987e+07 -7.489395501739e+06 7.656912625629e-01 3.696951557899e-01 1.725024932167e+00 -2.926790845524e+06 3.947226216216e+07  1.628244801172e+00
2.200000000000e-01 9.505710583642e-06 0.000000000000e+00 -1.280120562308e+07 -3.071067770937e+06 2.866292662547e+07 -7.879207275621e+06 7.653171611297e-01 3.685046059560e-01 1.726590620723e+00 -2.660837908921e+06 3.959429646063e+07  1.628748915652e+00
2.300000000000e-01 1.235465680329e-05 0.000000000000e+00 -1.292202615431e+07 -3.100854724871e+06 2.858857122073e+07 -8.118068345163e+06 7.649557422383e-01 3.670705341303e-01 1.728129676064e+00 -2.516158907084e+06 3.969431252355e+07  1.629070003689e+00
2.400000000000e-01 1.557297969225e-05 0.000000000000e+00 -1.314547137470e+07 -3.141158198423e+06 2.843035707857e+07 -8.451528220308e+06 7.648270578886e-01 3.659256000694e-01 1.729588578980e+00 -2.277785827856e+06 3.981241845252e+07  1.629510837999e+00
2.500000000000e-01 1.790602952358e-05 0.000000000000e+00 -1.323961853278e+07 -3.164830360387e+06 2.838379153078e+07 -8.626259008567e+06 7.644693469179e-01 3.644703915429e-01 1.730989522416e+00 -2.172637996478e+06 3.989756947236e+07  1.629713373051e+00
2.600000000000e-01 1.993176706221e-05 0.000000000000e+00 -1.340451196804e+07 -3.192674637273e+06 2.829810124579e+07 -8.815189226780e+06 7.639893280402e-01 3.631165742593e-01 1.732317931180e+00 -2.026133350322e+06 3.999203164272e+07  1.629936696733e+00
2.700000000000e-01 2.154791176181e-05 0.000000000000e+00 -1.356467350945e+07 -3.215066810266e+06 2.819513185775e+07 -9.009752280798e+06 7.635016705553e-01 3.618038921401e-01 1.733579369652e+00 -1.873568689168e+06 4.006776748857e+07  1.630137312056e+00
2.800000000000e-01 2.332049027466e-05 0.000000000000e+00 -1.371629573691e+07 -3.244029090350e+06 2.812011937581e+07 -9.176186313966e+06 7.629745789000e-01 3.603197702603e-01 1.734812246959e+00 -1.742545774979e+06 4.015628835934e+07  1.630207688356e+00
2.900000000000e-01 2.444818441421e-05 0.000000000000e+00 -1.387949001323e+07 -3.272339158823e+06 2.805113991776e+07 -9.332690896946e+06 7.624034972046e-01 3.590378597634e-01 1.736015635489e+00 -1.612986335864e+06 4.025326779541e+07  1.630395516966e+00
3.000000000000e-01 2.506527344970e-05 0.000000000000e+00 -1.400987359325e+07 -3.288945167977e+06 2.798074697800e+07 -9.462870830214e+06 7.618077586514e-01 3.579362107369e-01 1.737215367255e+00 -1.502667518176e+06 4.031634238470e+07  1.630705105473e+00
3.100000000000e-01 2.579972659519e-05 0.000000000000e+00 -1.413288766863e+07 -3.309129196256e+06 2.792584547622e+07 -9.573349406027e+06 7.611156388415e-01 3.566452710507e-01 1.738360825264e+00 -1.406536133854e+06 4.038327658797e+07  1.630855392894e+00
3.200000000000e-01 2.627521339873e-05 0.000000000000e+00 -1.424776143431e+07 -3.327986229812e+06 2.787798860378e+07 -9.668621191952e+06 7.603618017144e-01 3.554622359926e-01 1.739453885781e+00 -1.320535325839e+06 4.044594048145e+07  1.631041324836e+00
3.300000000000e-01 2.635312029902e-05 0.000000000000e+00 -1.435278124033e+07 -3.344800377599e+06 2.784255870077e+07 -9.747206740031e+06 7.595341183008e-01 3.544151466438e-01 1.740516258043e+00 -1.247523573469e+06 4.050786733779e+07  1.631299398775e+00
3.400000000000e-01 2.587878103080e-05 0.000000000000e+00 -1.444438934443e+07 -3.358967344959e+06 2.781890513347e+07 -9.809144576347e+06 7.586757517974e-01 3.536414823223e-01 1.741490378288e+00 -1.188457070898e+06 4.056622763394e+07  1.631667247357e+00
3.500000000000e-01 2.479728053575e-05 0.000000000000e+00 -1.451334557045e+07 -3.368428560525e+06 2.780533913981e+07 -9.851551425726e+06 7.577520414344e-01 3.531421356348e-01 1.742385278392e+00 -1.146814047878e+06 4.061232985881e+07  1.632154011382e+00
3.600000000000e-01 2.320561478434e-05 0.000000000000e+00 -1.455776176671e+07 -3.376675428095e+06 2.780834312170e+07 -9.873654595145e+06 7.567632575295e-01 3.528710078992e-01 1.743177604415e+00 -1.125642253282e+06 4.065201272399e+07  1.632709365061e+00
3.700000000000e-01 2.091088550330e-05 0.000000000000e+00 -1.458851930912e+07 -3.378000529524e+06 2.782220636459e+07 -9.882716274854e+06 7.556269265247e-01 3.530042267929e-01 1.743898821904e+00 -1.116990260206e+06 4.068747197282e+07  1.633479169920e+00
3.800000000000e-01 1.834799206525e-05 0.000000000000e+00 -1.459838529566e+07 -3.378369895370e+06 2.784951201544e+07 -9.876064473531e+06 7.545003006006e-01 3.532644900418e-01 1.744538250996e+00 -1.125020748750e+06 4.071746382332e+07  1.634263497048e+00
3.900000000000e-01 1.580493049826e-05 0.000000000000e+00 -1.460977140463e+07 -3.375780714529e+06 2.787690842386e+07 -9.870824694002e+06 7.532691747690e-01 3.536547517338e-01 1.745195657467e+00 -1.132104108408e+06 4.074826564964e+07  1.635156044560e+00
4.000000000000e-01 1.361453147100e-05 0.000000000000e+00 -1.462290714917e+07 -3.372013887881e+06 2.790165729865e+07 -9.866828777147e+06 7.520669094533e-01 3.540725585901e-01 1.745841425333e+00 -1.137307124110e+06 4.077769163020e+07  1.636056075994e+00
4.100000000000e-01 1.149258498136e-05 0.000000000000e+00 -1.463714434900e+07 -3.369278217336e+06 2.793030385474e+07 -9.862067372535e+06 7.508857980497e-01 3.543870192677e-01 1.746514524649e+00 -1.143697377733e+06 4.081154581687e+07  1.636911723995e+00
4.200000000000e-01 9.482166751427e-06 0.000000000000e+00 -1.465573587020e+07 -3.366526184405e+06 2.795181267263e+07 -9.862190331545e+06 7.497528314792e-01 3.547655499248e-01 1.747135156027e+00 -1.144628823631e+06 4.084287628316e+07  1.637762747705e+00
4.300000000000e-01 7.626059134102e-06 0.000000000000e+00 -1.467732599913e+07 -3.362814238829e+06 2.796964477588e+07 -9.865363624720e+06 7.486333524252e-01 3.551811237934e-01 1.747733784754e+00 -1.142318384008e+06 4.087332917980e+07  1.638619653368e+00
4.400000000000e-01 5.828511079836e-06 0.000000000000e+00 -1.470071789138e+07 -3.360726829313e+06 2.798971580435e+07 -9.868841652516e+06 7.475972744822e-01 3.554858154292e-01 1.748352663248e+00 -1.140052086816e+06 4.090756310732e+07  1.639416215894e+00
4.500000000000e-01 4.146729296187e-06 0.000000000000e+00 -1.472681295214e+07 -3.358432155813e+06 2.800596871824e+07 -9.875958161648e+06 7.465822721250e-01 3.558254235491e-01 1.748939183296e+00 -1.134399201486e+06 4.094103201491e+07  1.640207780367e+00
4.600000000000e-01 2.603667003335e-06 0.000000000000e+00 -1.475528822653e+07 -3.355067911882e+06 2.801965102552e+07 -9.885408567072e+06 7.455870111822e-01 3.561992705143e-01 1.749512842017e+00 -1.126318077308e+06 4.097403801673e+07  1.641010324668e+00
4.700000000000e-01 1.142545459111e-06 0.000000000000e+00 -1.478611220742e+07 -3.352278399387e+06 2.803264842584e+07 -9.897058584053e+06 7.446233366418e-01 3.565444326764e-01 1.750077879281e+00 -1.116492544790e+06 4.100876981915e+07  1.641785450229e+00
4.800000000000e-01 -1.952614312943e-07 0.000000000000e+00 -1.481804850542e+07 -3.347960781258e+06 2.804458740173e+07 -9.908861089469e+06 7.436821353305e-01 3.569091829538e-01 1.750637647162e+00 -1.105892602281e+06 4.104280070076e+07  1.642568062842e+00
4.900000000000e-01 -1.525968869298e-06 0.000000000000e+00 -1.485609211902e+07 -3.345611151302e+06 2.805018686653e+07 -9.926495659991e+06 7.427903574240e-01 3.572240938700e-01 1.751157842707e+00 -1.089199695841e+06 4.107698137162e+07  1.643281870219e+00
5.000000000000e-01 -2.714220569610e-06 0.000000000000e+00 -1.489611935939e+07 -3.342521103991e+06 2.806105346128e+07 -9.943409589534e+06 7.419143639674e-01 3.575045504211e-01 1.751711995682e+00 -1.073841504119e+06 4.111703981669e+07  1.644001234447e+00
5.100000000000e-01 -3.838317676533e-06 0.000000000000e+00 -1.493977927256e+07 -3.341320537368e+06 2.806879738005e+07 -9.963643367260e+06 7.410986989817e-01 3.577414997017e-01 1.752241059721e+00 -1.055124913410e+06 4.115794383244e+07  1.644666952660e+00
5.200000000000e-01 -4.889214421220e-06 0.000000000000e+00 -1.498809524887e+07 -3.340143891793e+06 2.807484883336e+07 -9.987447671441e+06 7.403074918326e-01 3.579628841447e-01 1.752767224032e+00 -1.033101971014e+06 4.120134349599e+07  1.645318721704e+00
5.300000000000e-01 -5.826489995465e-06 0.000000000000e+00 -1.503909782274e+07 -3.338652763316e+06 2.808157422528e+07 -1.001267258057e+07 7.395420824618e-01 3.581710021482e-01 1.753294163438e+00 -1.009934607328e+06 4.124747605574e+07  1.645960965157e+00
5.400000000000e-01 -6.702362758979e-06 0.000000000000e+00 -1.509202559165e+07 -3.337813099861e+06 2.808804562835e+07 -1.003921953353e+07 7.388125175957e-01 3.583584786726e-01 1.753810081403e+00 -9.856001677209e+05 4.129517965869e+07  1.646578055809e+00
5.500000000000e-01 -7.480266037115e-06 0.000000000000e+00 -1.514792744281e+07 -3.336597586187e+06 2.809441605269e+07 -1.006789975412e+07 7.381150312218e-01 3.585355908081e-01 1.754325078530e+00 -9.595296185859e+05 4.134529356984e+07  1.647185441895e+00
5.600000000000e-01 -8.202577070753e-06 0.000000000000e+00 -1.520527407214e+07 -3.336300733160e+06 2.810001966501e+07 -1.009794408893e+07 7.374629032440e-01 3.586922171338e-01 1.754826224922e+00 -9.322671679786e+05 4.139627480618e+07  1.647764452436e+00
5.700000000000e-01 -8.851091020719e-06 0.000000000000e+00 -1.526500382121e+07 -3.335084566056e+06 2.810658939584e+07 -1.012917906335e+07 7.368158173522e-01 3.588475981951e-01 1.755327289841e+00 -9.041355037594e+05 4.144986440370e+07  1.648342600180e+00
5.800000000000e-01 -9.449863431443e-06 0.000000000000e+00 -1.532691261872e+07 -3.335058302602e+06 2.811129168440e+07 -1.016306083886e+07 7.362138731225e-01 3.589829034303e-01 1.755813295124e+00 -8.737727422717e+05 4.150424497957e+07  1.648891525448e+00
5.900000000000e-01 -9.944800114693e-06 0.000000000000e+00 -1.538721119646e+07 -3.333876137559e+06 2.811783095992e+07 -1.019602883220e+07 7.356496297989e-01 3.591222541326e-01 1.756290565372e+00 -8.448636437518e+05 4.155885766080e+07  1.649432873397e+00
6.000000000000e-01 -1.039210162147e-05 0.000000000000e+00 -1.544799039563e+07 -3.332631151745e+06 2.812449688122e+07 -1.022909685911e+07 7.351081533333e-01 3.592502534921e-01 1.756757460253e+00 -8.158032088295e+05 4.161391133021e+07  1.649956445696e+00
6.100000000000e-01 -1.084829249996e-05 0.000000000000e+00 -1.551372294643e+07 -3.332609632530e+06 2.812945073315e+07 -1.026575940731e+07 7.345715668499e-01 3.593575582614e-01 1.757219944174e+00 -7.833227931356e+05 4.167191868418e+07  1.650462685241e+00
6.200000000000e-01 -1.119802750123e-05 0.000000000000e+00 -1.557616666122e+07 -3.331245262012e+06 2.813522707047e+07 -1.030117937402e+07 7.340829944235e-01 3.594687259347e-01 1.757664695966e+00 -7.526270117412e+05 4.172799985134e+07  1.650952621281e+00
6.300000000000e-01 -1.151331841537e-05 0.000000000000e+00 -1.563938699473e+07 -3.329954551445e+06 2.814049552150e+07 -1.033740676786e+07 7.336138209735e-01 3.595706835700e-01 1.758099071553e+00 -7.212339196397e+05 4.178438497776e+07  1.651426363976e+00
6.400000000000e-01 -1.176874932546e-05 0.000000000000e+00 -1.570157220884e+07 -3.328496304272e+06 2.814351892695e+07 -1.037450401490e+07 7.331818791344e-01 3.596616233174e-01 1.758510602276e+00 -6.891475677352e+05 4.183826651214e+07  1.651870620907e+00
6.500000000000e-01 -1.198508802130e-05 0.000000000000e+00 -1.576389930893e+07 -3.327558831898e+06 2.814224093603e+07 -1.041402400089e+07 7.327949045785e-01 3.597409963604e-01 1.758899335316e+00 -6.547725420710e+05 4.188909028366e+07  1.652284335928e+00
6.600000000000e-01 -1.215285848288e-05 0.000000000000e+00 -1.582655050553e+07 -3.325096734465e+06 2.814355364306e+07 -1.045277817029e+07 7.324048622303e-01 3.598283378789e-01 1.759290423191e+00 -6.214083224134e+05 4.194199522649e+07  1.652705694778e+00
6.700000000000e-01 -1.229648539619e-05 0.000000000000e+00 -1.588958008435e+07 -3.322932434102e+06 2.814103994402e+07 -1.049370500812e+07 7.320439299040e-01 3.599028291106e-01 1.759660477730e+00 -5.859182838502e+05 4.199229551482e+07  1.653098508857e+00
6.800000000000e-01 -1.245151097380e-05 0.000000000000e+00 -1.595381386708e+07 -3.321890233305e+06 2.813928058993e+07 -1.053502077123e+07 7.316965070164e-01 3.599686052701e-01 1.760030542274e+00 -5.501486505410e+05 4.204447414059e+07  1.653484586694e+00
6.900000000000e-01 -1.258174425696e-05 0.000000000000e+00 -1.601624955966e+07 -3.320803306223e+06 2.813510386707e+07 -1.057672837893e+07 7.313778228673e-01 3.600268481134e-01 1.760379400377e+00 -5.140419761618e+05 4.209336505627e+07  1.653845426233e+00
7.000000000000e-01 -1.268884842686e-05 0.000000000000e+00 -1.608168107302e+07 -3.318592071176e+06 2.813099113531e+07 -1.062008811981e+07 7.310493128219e-01 3.600884762960e-01 1.760729919257e+00 -4.764073141581e+05 4.214447677238e+07  1.654210893777e+00
7.100000000000e-01 -1.278283161842e-05 0.000000000000e+00 -1.614522289291e+07 -3.317145215880e+06 2.812626010215e+07 -1.066293656697e+07 7.307508935202e-01 3.601427349384e-01 1.761067556348e+00 -4.393668807566e+05 4.219385122548e+07  1.654558093461e+00
7.200000000000e-01 -1.291324087741e-05 0.000000000000e+00 -1.621265380281e+07 -3.316921723141e+06 2.812025814311e+07 -1.070821789728e+07 7.304452113141e-01 3.601860007201e-01 1.761405062993e+00 -3.997954810059e+05 4.224552204771e+07  1.654898780761e+00
7.300000000000e-01 -1.298173183280e-05 0.000000000000e+00 -1.627948468329e+07 -3.314368798850e+06 2.811504083683e+07 -1.075326678606e+07 7.301480944906e-01 3.602418376884e-01 1.761737136017e+00 -3.607631224918e+05 4.229697720335e+07  1.655242431886e+00
7.400000000000e-01 -1.307027894569e-05 0.000000000000e+00 -1.634563807290e+07 -3.313617792592e+06 2.810717362621e+07 -1.079917500332e+07 7.298745897331e-01 3.602806869978e-01 1.762053746193e+00 -3.207868499975e+05 4.234619263567e+07  1.655559901179e+00
7.500000000000e-01 -1.313866358260e-05 0.000000000000e+00 -1.641248356801e+07 -3.312282905881e+06 2.809971054534e+07 -1.084554902817e+07 7.296090359966e-01 3.603229323686e-01 1.762368332455e+00 -2.805593163880e+05 4.239626597057e+07  1.655877251280e+00
7.600000000000e-01 -1.320263647975e-05 0.000000000000e+00 -1.647907230685e+07 -3.311062207260e+06 2.809226089182e+07 -1.089187503842e+07 7.293522160972e-01 3.603616268120e-01 1.762676529165e+00 -2.404378488509e+05 4.244621401428e+07  1.656186183683e+00
7.700000000000e-01 -1.327207953605e-05 0.000000000000e+00 -1.654704144680e+07 -3.310270468042e+06 2.808262413030e+07 -1.093996766427e+07 7.291026311868e-01 3.603933938338e-01 1.762976537692e+00 -1.985383397414e+05 4.249562530262e+07  1.656483106422e+00
7.800000000000e-01 -1.332573960296e-05 0.000000000000e+00 -1.661448314992e+07 -3.309085489343e+06 2.807407473491e+07 -1.098747517463e+07 7.288606920620e-01 3.604277077953e-01 1.763273340388e+00 -1.573721367878e+05 4.254547794166e+07  1.656778365330e+00
7.900000000000e-01 -1.338672723935e-05 0.000000000000e+00 -1.668315901698e+07 -3.308401231994e+06 2.806334873381e+07 -1.103667032572e+07 7.286254062831e-01 3.604548509612e-01 1.763562168256e+00 -1.145064637029e+05 4.259470268213e+07  1.657061676999e+00
8.000000000000e-01 -1.343230013605e-05 0.000000000000e+00 -1.675181619500e+07 -3.307297449890e+06 2.805324404440e+07 -1.108579516242e+07 7.283973364387e-01 3.604850450804e-01 1.763848177547e+00 -7.187756232852e+04 4.264440705394e+07  1.657344008327e+00
8.100000000000e-01 -1.347490426473e-05 0.000000000000e+00 -1.682015305022e+07 -3.306271802811e+06 2.804315951494e+07 -1.113482113060e+07 7.281759186115e-01 3.605130281299e-01 1.764128757100e+00 -2.939511137511e+04 4.269392568166e+07  1.657619767069e+00
8.200000000000e-01 -1.352363091306e-05 0.000000000000e+00 -1.689008232103e+07 -3.305672568997e+06 2.803052762561e+07 -1.118589230446e+07 7.279607393919e-01 3.605349858640e-01 1.764402024215e+00 1.514899996257e+04 4.274278535996e+07  1.657884907680e+00
8.300000000000e-01 -1.354326543160e-05 0.000000000000e+00 -1.695811579100e+07 -3.304039015861e+06 2.801755041001e+07 -1.123650399039e+07 7.277634895447e-01 3.605626717052e-01 1.764666319438e+00 5.902312379456e+04 4.278976642610e+07  1.658144601004e+00
8.400000000000e-01 -1.359535190063e-05 0.000000000000e+00 -1.702637428994e+07 -3.304578926930e+06 2.800373274046e+07 -1.128748786568e+07 7.275722640333e-01 3.605755066935e-01 1.764925184016e+00 1.033764717202e+05 4.283670636607e+07  1.658389514156e+00
8.500000000000e-01 -1.362379643985e-05 0.000000000000e+00 -1.709596143741e+07 -3.303561525617e+06 2.799142586213e+07 -1.133870249234e+07 7.273770499889e-01 3.605980090324e-01 1.765186190378e+00 1.477460225414e+05 4.288565397053e+07  1.658642971850e+00
8.600000000000e-01 -1.365328321909e-05 0.000000000000e+00 -1.716596139389e+07 -3.302794822759e+06 2.797861083150e+07 -1.139044146258e+07 7.271867334269e-01 3.606177814484e-01 1.765442847107e+00 1.925973416563e+05 4.293461326408e+07  1.658890571293e+00
8.700000000000e-01 -1.367922817106e-05 0.000000000000e+00 -1.723592098127e+07 -3.301930068324e+06 2.796584116858e+07 -1.144223147422e+07 7.270006918362e-01 3.606369834250e-01 1.765695614577e+00 2.374370956373e+05 4.298359444039e+07  1.659134164960e+00
8.800000000000e-01 -1.369790264674e-05 0.000000000000e+00 -1.730515744177e+07 -3.300844258636e+06 2.794968088474e+07 -1.149536574360e+07 7.268303258655e-01 3.606539636996e-01 1.765935947344e+00 2.836141002067e+05 4.302928776988e+07  1.659364377480e+00
8.900000000000e-01 -1.372800565356e-05 0.000000000000e+00 -1.737458544523e+07 -3.301056294578e+06 2.793431709816e+07 -1.154832660544e+07 7.266647947942e-01 3.606659319809e-01 1.766175546978e+00 3.295316508370e+05 4.307611247281e+07  1.659590292450e+00
9.000000000000e-01 -1.374855257530e-05 0.000000000000e+00 -1.744564124169e+07 -3.300244506769e+06 2.791959958036e+07 -1.160189204674e+07 7.264932895017e-01 3.606823157740e-01 1.766415759098e+00 3.759779026877e+05 4.312454325993e+07  1.659820212241e+00
9.100000000000e-01 -1.376305857487e-05 0.000000000000e+00 -1.751458825220e+07 -3.299229271471e+06 2.790298060926e+07 -1.165536237248e+07 7.263361430805e-01 3.606965248490e-01 1.766644443915e+00 4.223233384743e+05 4.316976992856e+07  1.660037656648e+00
9.200000000000e-01 -1.378759535189e-05 0.000000000000e+00 -1.758422499384e+07 -3.299491158972e+06 2.788700486240e+07 -1.170904528924e+07 7.261835291552e-01 3.607060426755e-01 1.766872965612e+00 4.687551402279e+05 4.321641771515e+07  1.660251516054e+00
9.300000000000e-01 -1.380405203110e-05 0.000000000000e+00 -1.765545542269e+07 -3.298742317396e+06 2.787180383679e+07 -1.176325418180e+07 7.260251293245e-01 3.607195665006e-01 1.767102221911e+00 5.156352559006e+05 4.326475124475e+07  1.660469195399e+00
9.400000000000e-01 -1.380713313194e-05 0.000000000000e+00 -1.772499039475e+07 -3.297358345357e+06 2.785493697090e+07 -1.181756673535e+07 7.258810471936e-01 3.607353196508e-01 1.767321987139e+00 5.625400530662e+05 4.331033603897e+07  1.660678981223e+00
9.500000000000e-01 -1.382928737967e-05 0.000000000000e+00 -1.779472853404e+07 -3.297769020581e+06 2.783819329211e+07 -1.187189450584e+07 7.257399273835e-01 3.607421269838e-01 1.767539753441e+00 6.094765825876e+05 4.335658123813e+07  1.660881000079e+00
9.600000000000e-01 -1.383826067562e-05 0.000000000000e+00 -1.786493154725e+07 -3.296733359900e+06 2.781948743183e+07 -1.192743745009e+07 7.256022855902e-01 3.607531276388e-01 1.767751165774e+00 6.576271885050e+05 4.340131746996e+07  1.661080079952e+00
9.700000000000e-01 -1.385772873308e-05 0.000000000000e+00 -1.793556638944e+07 -3.297162223609e+06 2.780141280641e+07 -1.198301142074e+07 7.254683741254e-01 3.607589506336e-01 1.767962180849e+00 7.057216679240e+05 4.344727989228e+07  1.661275126913e+00
9.800000000000e-01 -1.385758761525e-05 0.000000000000e+00 -1.800567960725e+07 -3.295737387347e+06 2.778314522952e+07 -1.203855798007e+07 7.253380079068e-01 3.607726444311e-01 1.768168658495e+00 7.536974525988e+05 4.349231182931e+07  1.661471155667e+00
9.900000000000e-01 -1.387552610750e-05 0.000000000000e+00 -1.807648875053e+07 -3.296235923655e+06 2.776430614779e+07 -1.209471320006e+07 7.252108622972e-01 3.607771073444e-01 1.768373034912e+00 8.022986009327e+05 4.353787182790e+07  1.661659115294e+00
1.000000000000e+00 -1.387421820398e-05 0.000000000000e+00 -1.814675875869e+07 -3.294836359032e+06 2.774536504651e+07 -1.215079159804e+07 7.250871199728e-01 3.607897655962e-01 1.768573183462e+00 8.507284367391e+05 4.358255180888e+07  1.661848538716e+00
1.050000000000e+00 -1.390720310863e-05 0.000000000000e+00 -1.841783618478e+07 -3.293483938370e+06 2.766314596049e+07 -1.236586327777e+07 7.245340952806e-01 3.608177433773e-01 1.769498976309e+00 1.040184500686e+06 4.374635465299e+07  1.662703303146e+00
1.100000000000e+00 -1.389850345749e-05 0.000000000000e+00 -1.874248726928e+07 -3.300563545116e+06 2.760112187969e+07 -1.260394516102e+07 7.239154786935e-01 3.608191228302e-01 1.770455060641e+00 1.248436850202e+06 4.397284128987e+07  1.663573333975e+00
1.150000000000e+00 -1.394132788080e-05 0.000000000000e+00 -1.906622398342e+07 -3.292008409593e+06 2.749809032160e+07 -1.286508790616e+07 7.234507850858e-01 3.608659238768e-01 1.771299370581e+00 1.477740522659e+06 4.416389661366e+07  1.664363909558e+00
1.200000000000e+00 -1.382271158033e-05 0.000000000000e+00 -1.938867990316e+07 -3.286467588136e+06 2.739151780281e+07 -1.312669635200e+07 7.229984097385e-01 3.608519001930e-01 1.772088168096e+00 1.707952817453e+06 4.435160780032e+07  1.665067124821e+00
1.250000000000e+00 -1.366763337202e-05 0.000000000000e+00 -1.974023543240e+07 -3.293464548445e+06 2.727250282805e+07 -1.341711685349e+07 7.226404505648e-01 3.608162861371e-01 1.772797066031e+00 1.961616485945e+06 4.455842226520e+07  1.665679730497e+00
1.300000000000e+00 -1.359467057888e-05 0.000000000000e+00 -2.008125282563e+07 -3.287018797295e+06 2.714337452124e+07 -1.371211375286e+07 7.223687227329e-01 3.608555105294e-01 1.773456914801e+00 2.216664019086e+06 4.474778898525e+07  1.666291178729e+00
1.350000000000e+00 -1.358419022643e-05 0.000000000000e+00 -2.041594215006e+07 -3.286414332482e+06 2.701231397500e+07 -1.400642050306e+07 7.221105081616e-01 3.608641323760e-01 1.774083823165e+00 2.470016226041e+06 4.493251128068e+07  1.666853680637e+00