 TITLE = "Profiles along polylines"
 VARIABLES = "DIST" "DISPLACEMENT_X1" "DISPLACEMENT_Y1" "STRESS_XX" "STRESS_XY" "STRESS_YY" "STRESS_ZZ" "STRAIN_XX" "STRAIN_XY" "STRAIN_YY"  p_(1st_Invariant)  q_(2nd_Invariant)   Effective_Strain
 ZONE T="TIME=0.000000000000e+00"
0.000000000000e+00 0.000000000000e+00 0.000000000000e+00 -1.000000000000e+05 0.000000000000e+00 -1.000000000000e+05 -1.000000000000e+05 0.000000000000e+00 0.000000000000e+00 0.000000000000e+00 1.000000000000e+05 0.000000000000e+00  0.000000000000e+00
5.000000000000e-03 0.000000000000e+00 0.000000000000e+00 -1.000000000000e+05 0.000000000000e+00 -1.000000000000e+05 -1.000000000000e+05 0.000000000000e+00 0.000000000000e+00 0.000000000000e+00 1.000000000000e+05 0.000000000000e+00  0.000000000000e+00
1.000000000000e-02 0.000000000000e+00 0.000000000000e+00 -1.000000000000e+05 0.000000000000e+00 -1.000000000000e+05 -1.000000000000e+05 0.000000000000e+00 0.000000000000e+00 0.000000000000e+00 1.000000000000e+05 0.000000000000e+00  0.000000000000e+00
1.500000000000e-02 0.000000000000e+00 0.000000000000e+00 -1.000000000000e+05 0.000000000000e+00 -1.000000000000e+05 -1.000000000000e+05 0.000000000000e+00 0.000000000000e+00 0.000000000000e+00 1.000000000000e+05 0.000000000000e+00  0.000000000000e+00
2.000000000000e-02 0.000000000000e+00 0.000000000000e+00 -1.000000000000e+05 0.000000000000e+00 -1.000000000000e+05 -1.000000000000e+05 0.000000000000e+00 0.000000000000e+00 0.000000000000e+00 1.000000000000e+05 0.000000000000e+00  0.000000000000e+00
2.500000000000e-02 0.000000000000e+00 0.000000000000e+00 -1.000000000000e+05 0.000000000000e+00 -1.000000000000e+05 -1.000000000000e+05 0.000000000000e+00 0.000000000000e+00 0.000000000000e+00 1.000000000000e+05 0.000000000000e+00  0.000000000000e+00
3.000000000000e-02 0.000000000000e+00 0.000000000000e+00 -1.000000000000e+05 0.000000000000e+00 -1.000000000000e+05 -1.000000000000e+05 0.000000000000e+00 0.000000000000e+00 0.000000000000e+00 1.000000000000e+05 0.000000000000e+00  0.000000000000e+00
3.500000000000e-02 0.000000000000e+00 0.000000000000e+00 -1.000000000000e+05 0.000000000000e+00 -1.000000000000e+05 -1.000000000000e+05 0.000000000000e+00 0.000000000000e+00 0.000000000000e+00 1.000000000000e+05 0.000000000000e+00  0.000000000000e+00
4.000000000000e-02 0.000000000000e+00 0.000000000000e+00 -1.000000000000e+05 0.000000000000e+00 -1.000000000000e+05 -1.000000000000e+05 0.000000000000e+00 0.000000000000e+00 0.000000000000e+00 1.000000000000e+05 0.000000000000e+00  0.000000000000e+00
4.500000000000e-02 0.000000000000e+00 0.000000000000e+00 -1.000000000000e+05 0.000000000000e+00 -1.000000000000e+05 -1.000000000000e+05 0.000000000000e+00 0.000000000000e+00 0.000000000000e+00 1.000000000000e+05 0.000000000000e+00  0.000000000000e+00
5.000000000000e-02 0.000000000000e+00 0.000000000000e+00 -1.000000000000e+05 0.000000000000e+00 -1.000000000000e+05 -1.000000000000e+05 0.000000000000e+00 0.000000000000e+00 0.000000000000e+00 1.000000000000e+05 0.000000000000e+00  0.000000000000e+00
 TITLE = "Profiles along polylines"
 VARIABLES = "DIST" "DISPLACEMENT_X1" "DISPLACEMENT_Y1" "STRESS_XX" "STRESS_XY" "STRESS_YY" "STRESS_ZZ" "STRAIN_XX" "STRAIN_XY" "STRAIN_YY"  p_(1st_Invariant)  q_(2nd_Invariant)   Effective_Strain
 ZONE T="TIME=1.000000000000e-02"
0.000000000000e+00 0.000000000000e+00 0.000000000000e+00 -1.538560326960e+06 5.594607880425e+02 -2.263602379907e+06 -1.540865060643e+06 1.179350528712e-05 7.074849089519e-06 -4.067224084547e-02 1.781009255837e+06 7.238930863659e+05  4.067814072603e-02
5.000000000000e-03 0.000000000000e+00 2.033183509530e-04 -1.533246966432e+06 2.012252840462e+03 -2.256034651965e+06 -1.535712681614e+06 9.914064061891e-06 2.083751847095e-05 -4.067508484175e-02 1.774998100004e+06 7.215664051388e+05  4.068005879021e-02
1.000000000000e-02 0.000000000000e+00 4.069435379379e-04 -1.535244060381e+06 -1.017999167701e+03 -2.266053741127e+06 -1.540519017382e+06 5.160786492048e-05 -6.755383766129e-05 -4.060030637556e-02 1.780605606297e+06 7.281886664656e+05  4.062630338649e-02
1.500000000000e-02 0.000000000000e+00 6.102447874268e-04 -1.529289021655e+06 -6.190918816489e+03 -2.274283019738e+06 -1.541428668643e+06 1.855666729403e-04 -2.867678691361e-04 -4.080694655633e-02 1.781666903345e+06 7.390767527749e+05  4.090306148663e-02
2.000000000000e-02 0.000000000000e+00 8.116701279493e-04 -1.547444683744e+06 -1.205118709920e+04 -2.301248764558e+06 -1.559478802157e+06 -3.413113426988e-04 -4.591722898571e-05 -3.955656244277e-02 1.802724083486e+06 7.481508791817e+05  3.938709620494e-02
2.500000000000e-02 0.000000000000e+00 1.012412907788e-03 -1.593792478627e+06 -3.762306577136e+04 -2.164808317394e+06 -1.523429814791e+06 -2.873011356307e-03 5.525944648766e-04 -3.819386207103e-02 1.760676870270e+06 6.127272421944e+05  3.685390042602e-02
3.000000000000e-02 0.000000000000e+00 1.191479295524e-03 -1.382397964926e+06 1.334110037666e+04 -1.777780434692e+06 -1.284093949775e+06 -9.130021713976e-03 3.343199221815e-03 -4.788571097653e-02 1.481424116465e+06 4.532026213172e+05  4.441544747418e-02
3.500000000000e-02 0.000000000000e+00 1.445338199126e-03 -1.468082887517e+06 6.176032934986e+04 -2.735245673682e+06 -1.701467853404e+06 1.653369344626e-02 -1.491126427155e-02 -6.766483866710e-02 1.968265471534e+06 1.172977553137e+06  8.147196153868e-02
4.000000000000e-02 0.000000000000e+00 1.436536677662e-03 -7.003968424768e+05 8.724006835446e+05 1.882432715083e+06 4.536452858834e+05 -3.980913586813e-02 3.237894225478e-02 1.494112918952e-01 -5.452270528299e+05 2.702845999236e+06  1.816634899155e-01
4.500000000000e-02 0.000000000000e+00 2.358243523297e-03 -7.340829506037e+06 -4.776652072219e+05 -8.727575026977e+06 -5.325159592369e+06 -6.746009209890e-01 1.336176001020e-01 -3.651049865754e-01 7.131188041794e+06 3.076638054071e+06  6.290062660984e-01
5.000000000000e-02 0.000000000000e+00 0.000000000000e+00 2.167137779120e+06 3.274804375794e+06 4.396662992380e+07 1.233256324634e+07 -1.089840135690e-01 -2.006351248032e-02 1.140652708754e+00 -1.948877698309e+07 3.818110563639e+07  1.199369276365e+00
 TITLE = "Profiles along polylines"
 VARIABLES = "DIST" "DISPLACEMENT_X1" "DISPLACEMENT_Y1" "STRESS_XX" "STRESS_XY" "STRESS_YY" "STRESS_ZZ" "STRAIN_XX" "STRAIN_XY" "STRAIN_YY"  p_(1st_Invariant)  q_(2nd_Invariant)   Effective_Strain
 ZONE T="TIME=1.000000000000e-01"
0.000000000000e+00 0.000000000000e+00 0.000000000000e+00 -3.954780638761e+06 2.139349727340e+03 -5.964254902025e+06 -3.987613894384e+06 8.706446374909e-05 1.587097287950e-05 -4.335543566839e-02 4.635549811723e+06 1.993263902672e+06  4.339904210507e-02
5.000000000000e-03 0.000000000000e+00 2.163573129326e-04 -3.962058372472e+06 8.712781508959e+03 -5.896541296496e+06 -3.963440320101e+06 3.271361859357e-06 5.874706601954e-05 -4.329149804968e-02 4.607346663023e+06 1.933851203354e+06  4.329325339930e-02
1.000000000000e-02 0.000000000000e+00 4.330376290873e-04 -3.954079782300e+06 1.218913299336e+04 -5.915001222309e+06 -3.967631536987e+06 6.796681158986e-05 6.660961515805e-06 -4.315834943229e-02 4.612237513865e+06 1.954294845338e+06  4.319237448574e-02
1.500000000000e-02 0.000000000000e+00 6.493432628785e-04 -3.936455927248e+06 -8.485270722791e+03 -5.883869857532e+06 -3.948115078893e+06 1.715834841800e-04 -2.659950742623e-04 -4.342153090974e-02 4.589480287891e+06 1.941666232082e+06  4.351001568763e-02
2.000000000000e-02 0.000000000000e+00 8.647370812015e-04 -3.931591743462e+06 -7.832885547408e+04 -5.990310466521e+06 -3.988834979744e+06 -2.107716207855e-04 -4.029275460356e-04 -4.231544416248e-02 4.636912396576e+06 2.035229243911e+06  4.221622195810e-02
2.500000000000e-02 0.000000000000e+00 1.081251393508e-03 -4.110888330032e+06 -4.641242377248e+05 -6.747873471191e+06 -4.363102889441e+06 -1.843947631089e-03 -2.292053956928e-03 -4.165239201156e-02 5.073954896888e+06 2.645458504164e+06  4.095457981223e-02
3.000000000000e-02 0.000000000000e+00 1.278921279378e-03 -4.073817517011e+06 3.823614205384e+05 -6.186806975191e+06 -4.125015031643e+06 -8.692330088991e-03 5.767291406141e-03 -5.125393327762e-02 4.795213174615e+06 2.190380468076e+06  4.854679312668e-02
3.500000000000e-02 0.000000000000e+00 1.551899851503e-03 -5.073010784298e+06 8.652772338094e+05 -5.466871166534e+06 -4.238378919593e+06 1.253885731174e-02 -9.236541751562e-03 -6.513159488535e-02 4.926086956808e+06 1.851102063524e+06  7.397272794978e-02
4.000000000000e-02 0.000000000000e+00 1.638974292874e-03 -2.458017899896e+06 -2.178568338770e+05 2.168105721817e+06 -1.243548026808e+05 -5.126062118713e-02 4.913077361720e-03 1.246043617777e-01 1.380889935864e+05 4.024124008493e+06  1.568872532533e-01
4.500000000000e-02 0.000000000000e+00 2.622770868060e-03 5.748801493608e+05 -8.456015071335e+05 -1.338410467079e+07 -2.213937594068e+06 -5.732444089969e-01 2.360259002914e-01 -3.024803314869e-01 5.007720705164e+06 1.287815292637e+07  6.432985476055e-01
5.000000000000e-02 0.000000000000e+00 0.000000000000e+00 -2.278434357882e+07 9.363478574976e+06 4.836419062461e+07 -2.289015517540e+06 -1.224191723245e+00 1.291053157908e-01 1.055205714519e+00 -7.763610509417e+06 6.547506422394e+07  1.988437357561e+00
 TITLE = "Profiles along polylines"
 VARIABLES = "DIST" "DISPLACEMENT_X1" "DISPLACEMENT_Y1" "STRESS_XX" "STRESS_XY" "STRESS_YY" "STRESS_ZZ" "STRAIN_XX" "STRAIN_XY" "STRAIN_YY"  p_(1st_Invariant)  q_(2nd_Invariant)   Effective_Strain
 ZONE T="TIME=1.000000000000e+00"
0.000000000000e+00 0.000000000000e+00 0.000000000000e+00 -1.239909932410e+07 2.292217118328e+03 -1.859392446180e+07 -1.241720902402e+07 5.958958197891e-05 1.565107157216e-05 -4.815434339001e-02 1.447007760331e+07 6.185791443811e+06  4.818417344214e-02
5.000000000000e-03 0.000000000000e+00 2.404099583062e-04 -1.238123741728e+07 1.889324122900e+04 -1.853586087843e+07 -1.238683961687e+07 5.192702824521e-06 9.117705319842e-05 -4.807330294126e-02 1.443464597086e+07 6.151911310137e+06  4.807615888138e-02
1.000000000000e-02 0.000000000000e+00 4.810092670755e-04 -1.236568477614e+07 8.026098658203e+03 -1.852580006418e+07 -1.237659333208e+07 5.914097674210e-05 -1.007682801512e-05 -4.795267323966e-02 1.442269272413e+07 6.154683960294e+06  4.798227423794e-02
1.500000000000e-02 0.000000000000e+00 7.209351296216e-04 -1.237089142224e+07 -3.171635663261e+04 -1.849256452559e+07 -1.236536831948e+07 1.411573497463e-04 -2.983030159727e-04 -4.817835290548e-02 1.440960808910e+07 6.124682889786e+06  4.825185278061e-02
2.000000000000e-02 0.000000000000e+00 9.607467515325e-04 -1.231123403931e+07 -2.008288706932e+05 -1.860491113353e+07 -1.238652194840e+07 -1.945281364544e-04 -6.758406297149e-04 -4.716920066547e-02 1.443422237375e+07 6.266035313706e+06  4.708679090342e-02
2.500000000000e-02 0.000000000000e+00 1.201637811515e-03 -1.260055555960e+07 -8.980166546533e+05 -1.984353061214e+07 -1.299739728028e+07 -1.683437417216e-03 -3.287249814114e-03 -4.642284411884e-02 1.514716115067e+07 7.222406663743e+06  4.595848669003e-02
3.000000000000e-02 0.000000000000e+00 1.422512443908e-03 -1.276142562480e+07 8.888676599596e+05 -1.920855260165e+07 -1.280746415439e+07 -8.652065046915e-03 6.925039204059e-03 -5.617262473466e-02 1.492581412695e+07 6.606134021236e+06  5.374087178330e-02
3.500000000000e-02 0.000000000000e+00 1.719330580092e-03 -1.366285272843e+07 1.272021178637e+06 -1.718982410445e+07 -1.237985985049e+07 1.175748794055e-02 -7.942321930398e-03 -6.865978665661e-02 1.441084556112e+07 4.844046924312e+06  7.647818560190e-02
4.000000000000e-02 0.000000000000e+00 1.851897538360e-03 -1.299466103777e+07 -1.741020011134e+06 -1.337066440902e+07 -1.045551950922e+07 -5.222362485721e-02 -1.208022565010e-03 1.124195996357e-01 1.227361498534e+07 4.078822875475e+06  1.457422736512e-01
4.500000000000e-02 0.000000000000e+00 2.850126351045e-03 4.275155491086e+06 -8.778718771327e+05 -7.086841978005e+06 2.346381880418e+06 -5.621366704732e-01 2.508573593696e-01 -2.543798533380e-01 1.551015355003e+05 1.064013206422e+07  6.530687150169e-01
5.000000000000e-02 0.000000000000e+00 0.000000000000e+00 -3.602247041406e+07 1.054462337360e+07 3.419039455994e+07 -1.620223088042e+07 -1.269266533850e+00 1.418083147242e-01 1.056969557162e+00 6.011435578177e+06 6.530405613110e+07  2.032271403946e+00
 TITLE = "Profiles along polylines"
 VARIABLES = "DIST" "DISPLACEMENT_X1" "DISPLACEMENT_Y1" "STRESS_XX" "STRESS_XY" "STRESS_YY" "STRESS_ZZ" "STRAIN_XX" "STRAIN_XY" "STRAIN_YY"  p_(1st_Invariant)  q_(2nd_Invariant)   Effective_Strain
 ZONE T="TIME=5.000000000000e+00"
0.000000000000e+00 0.000000000000e+00 0.000000000000e+00 -2.390750180198e+07 2.712096786900e+03 -3.585979076338e+07 -2.392691589831e+07 5.950643388114e-05 1.604421572534e-05 -5.081531337342e-02 2.789806948789e+07 1.194259467206e+07  5.084510030072e-02
5.000000000000e-03 0.000000000000e+00 2.537197141619e-04 -2.388223991779e+07 2.462242918846e+04 -3.578850016735e+07 -2.388829660434e+07 4.715943343076e-06 9.718562483392e-05 -5.073712866205e-02 2.785301222982e+07 1.190330946079e+07  5.073976601908e-02
1.000000000000e-02 0.000000000000e+00 5.076540015467e-04 -2.386746476427e+07 4.376591480626e+03 -3.580491913319e+07 -2.388894805169e+07 6.454247157076e-05 -1.095094859598e-05 -5.062454242451e-02 2.785377731638e+07 1.192672964572e+07  5.065684804922e-02
1.500000000000e-02 0.000000000000e+00 7.609250890310e-04 -2.386735053028e+07 -7.528163504101e+04 -3.572020702076e+07 -2.385502149788e+07 1.370413727411e-04 -3.394536810589e-04 -5.082763283461e-02 2.781419301631e+07 1.185974262850e+07  5.089968776809e-02
2.000000000000e-02 0.000000000000e+00 1.014131792201e-03 -2.376753676334e+07 -3.735196725179e+05 -3.588057995251e+07 -2.387943257616e+07 -1.753931613758e-04 -8.374160195113e-04 -4.982658864556e-02 2.784251643067e+07 1.207482869442e+07  4.976026781159e-02
2.500000000000e-02 0.000000000000e+00 1.268479050074e-03 -2.425783877457e+07 -1.344476718906e+06 -3.770033709831e+07 -2.480126877265e+07 -1.610564224737e-03 -3.700875890035e-03 -4.906506600904e-02 2.891981488184e+07 1.338334313434e+07  4.870360999613e-02
3.000000000000e-02 0.000000000000e+00 1.501972188117e-03 -2.457093374472e+07 1.410651757494e+06 -3.677829316924e+07 -2.455711841743e+07 -8.672472828709e-03 7.406188636100e-03 -5.877936232581e-02 2.863544844380e+07 1.245625460526e+07  5.643596094756e-02
3.500000000000e-02 0.000000000000e+00 1.812093330031e-03 -2.420533671122e+07 1.647125443276e+06 -3.279479263768e+07 -2.293617255641e+07 1.176141048629e-02 -7.607364710279e-03 -7.111263498293e-02 2.664543396844e+07 9.717511359044e+06  7.877397105101e-02
4.000000000000e-02 0.000000000000e+00 1.952706797153e-03 -1.715906553223e+07 -1.367340652798e+06 -1.898675322151e+07 -1.539921904159e+07 -5.177593449582e-02 -7.828117535087e-04 1.114394561685e-01 1.718167926511e+07 3.906765043932e+06  1.444687514641e-01
4.500000000000e-02 0.000000000000e+00 2.937184551429e-03 6.366067865660e+06 -1.090301515847e+06 -5.421034304177e+06 5.096885839278e+06 -5.602865107373e-01 2.490537713897e-01 -2.345089751946e-01 -2.013973133587e+06 1.136454550554e+07  6.508506443439e-01
5.000000000000e-02 0.000000000000e+00 0.000000000000e+00 -6.143447130049e+07 1.086994772831e+07 1.968709869670e+07 -4.298491271894e+07 -1.266996778849e+00 1.425147685186e-01 1.064484064276e+00 2.824409510758e+07 7.601911248904e+07  2.036672879729e+00
 TITLE = "Profiles along polylines"
 VARIABLES = "DIST" "DISPLACEMENT_X1" "DISPLACEMENT_Y1" "STRESS_XX" "STRESS_XY" "STRESS_YY" "STRESS_ZZ" "STRAIN_XX" "STRAIN_XY" "STRAIN_YY"  p_(1st_Invariant)  q_(2nd_Invariant)   Effective_Strain
 ZONE T="TIME=1.000000000000e+01"
0.000000000000e+00 0.000000000000e+00 0.000000000000e+00 -3.086552686694e+07 2.912412247760e+03 -4.630353073919e+07 -3.088762287739e+07 6.029634874007e-05 1.616207567938e-05 -5.183821048250e-02 3.601889349451e+07 1.542696855979e+07  5.186839249614e-02
5.000000000000e-03 0.000000000000e+00 2.588350532192e-04 -3.083775816732e+07 2.594364092408e+04 -4.622625526539e+07 -3.084560666394e+07 5.246991252247e-06 9.797206678461e-05 -5.176078586744e-02 3.596987336555e+07 1.538463997584e+07  5.176368770783e-02
1.000000000000e-02 0.000000000000e+00 5.178926055097e-04 -3.082576529042e+07 -2.809691901308e+03 -4.625197217863e+07 -3.085105187784e+07 6.567270823283e-05 -1.515511167469e-05 -5.164942322727e-02 3.597626311563e+07 1.541357991913e+07  5.168229754131e-02
1.500000000000e-02 0.000000000000e+00 7.762931173298e-04 -3.082667470622e+07 -9.860208334843e+04 -4.615183375245e+07 -3.081112382586e+07 1.361089101078e-04 -3.531932926198e-04 -5.185107882980e-02 3.592987742817e+07 1.533389149725e+07  5.192287098941e-02
2.000000000000e-02 0.000000000000e+00 1.034635096147e-03 -3.067696269072e+07 -4.633055568654e+05 -4.625300389025e+07 -3.079391750061e+07 -1.737250971647e-04 -8.902370168998e-04 -5.084486975947e-02 3.590796136053e+07 1.553862931718e+07  5.078164527826e-02
2.500000000000e-02 0.000000000000e+00 1.293982744935e-03 -3.088813008010e+07 -1.481860796060e+06 -4.765259172684e+07 -3.145687669982e+07 -1.602361275360e-03 -3.782213239541e-03 -5.001405042160e-02 3.666586616892e+07 1.668603159490e+07  4.966636321073e-02
3.000000000000e-02 0.000000000000e+00 1.531474638802e-03 -2.983127943434e+07 1.702535597833e+06 -4.429535387059e+07 -2.980541883841e+07 -8.675559531519e-03 7.582819873736e-03 -5.946390564084e-02 3.464401738111e+07 1.477430370738e+07  5.716499125861e-02
3.500000000000e-02 0.000000000000e+00 1.843728479455e-03 -2.687151306795e+07 1.797907976799e+06 -3.587983409251e+07 -2.578088415033e+07 1.182482165241e-02 -7.500011846646e-03 -7.121439111982e-02 2.951074377027e+07 1.009264453972e+07  7.888069419607e-02
4.000000000000e-02 0.000000000000e+00 1.981608097487e-03 -1.975430000798e+07 -1.194677951421e+06 -1.969802730366e+07 -1.834782534006e+07 -5.157173453082e-02 -6.165826749656e-04 1.125538454165e-01 1.926671755057e+07 2.486756461429e+06  1.453745145456e-01
4.500000000000e-02 0.000000000000e+00 2.955656065375e-03 1.041513650288e+06 -1.225228144883e+06 -9.112408772269e+06 1.165170063042e+05 -5.609568152709e-01 2.488769746297e-01 -2.294638033372e-01 2.651459371893e+06 9.953339500469e+06  6.514799665403e-01
5.000000000000e-02 0.000000000000e+00 0.000000000000e+00 -7.659621317122e+07 1.089951963598e+07 9.272710619364e+06 -5.760874347904e+07 -1.267119800385e+00 1.424920747790e-01 1.065568566485e+00 4.164408201030e+07 8.037388304154e+07  2.037681025528e+00
 ZONE T="TIME=1.800000000000e+01"
0.000000000000e+00 0.000000000000e+00 0.000000000000e+00 -3.765031434923e+07 3.106892438896e+03 -5.648772606095e+07 -3.767529615725e+07 6.096584927773e-05 1.625225432156e-05 -5.263388233384e-02 4.393777885581e+07 1.882493400899e+07  5.266439924762e-02
5.000000000000e-03 0.000000000000e+00 2.628115352379e-04 -3.761237053805e+07 2.599233585089e+04 -5.639023025887e+07 -3.762141659315e+07 5.531070351812e-06 9.800893171986e-05 -5.255564598755e-02 4.387467246335e+07 1.877339230871e+07  5.255868588529e-02
1.000000000000e-02 0.000000000000e+00 5.258329744028e-04 -3.754628847172e+07 -1.115715581865e+04 -5.633442107361e+07 -3.757456870410e+07 6.637914740047e-05 -1.907660756426e-05 -5.243805935698e-02 4.381842608314e+07 1.877401840651e+07  5.247129082402e-02
1.500000000000e-02 0.000000000000e+00 7.881178751352e-04 -3.735850179826e+07 -1.166653905126e+05 -5.591245623627e+07 -3.733794366340e+07 1.349508764469e-04 -3.617835878936e-04 -5.261407452885e-02 4.353630056598e+07 1.856534177069e+07  5.268540621302e-02
2.000000000000e-02 0.000000000000e+00 1.050079847305e-03 -3.654484499017e+07 -4.937991681715e+05 -5.493509079989e+07 -3.665446611983e+07 -1.753743080919e-04 -9.050416724831e-04 -5.152106663340e-02 4.271146730330e+07 1.835561797023e+07  5.145748626842e-02
2.500000000000e-02 0.000000000000e+00 1.312351345011e-03 -3.537667415809e+07 -1.417839950353e+06 -5.404699689883e+07 -3.592206774968e+07 -1.608030170025e-03 -3.749461489065e-03 -5.049161340717e-02 4.178191293553e+07 1.856681290399e+07  5.012955348065e-02
3.000000000000e-02 0.000000000000e+00 1.551505701064e-03 -3.271268485639e+07 1.814957502799e+06 -4.779879881129e+07 -3.270330598800e+07 -8.672190911358e-03 7.642692417383e-03 -5.962975583821e-02 3.773826321856e+07 1.541475348852e+07  5.735003306068e-02
3.500000000000e-02 0.000000000000e+00 1.863447262079e-03 -2.927650898246e+07 1.760650688934e+06 -3.750755720520e+07 -2.834910804011e+07 1.188570903291e-02 -7.525033634791e-03 -7.090732083824e-02 3.171105807592e+07 9.248966524791e+06  7.862429907525e-02
4.000000000000e-02 0.000000000000e+00 1.997389038520e-03 -2.435141310790e+07 -1.008487255667e+06 -2.227619012432e+07 -2.323542786574e+07 -5.141747063090e-02 -4.260714785718e-04 1.137095604223e-01 2.328767703265e+07 2.507427945718e+06  1.463585426673e-01
4.500000000000e-02 0.000000000000e+00 2.964743640122e-03 -8.315527198786e+06 -1.346588450661e+06 -1.539146923345e+07 -9.185264627730e+06 -5.610621440167e-01 2.487519753653e-01 -2.263419536353e-01 1.096408701999e+07 7.078918604353e+06  6.516610648036e-01
5.000000000000e-02 0.000000000000e+00 0.000000000000e+00 -8.632486089770e+07 1.099122743213e+07 -8.419950189891e+05 -6.700120642234e+07 -1.267189315483e+00 1.425111344888e-01 1.065035928113e+00 5.138935411301e+07 7.994563064178e+07  2.037302311519e+00
