VARIABLES  = "X","Y","Z", "DISPLACEMENT_X1", "DISPLACEMENT_Y1", "STRESS_XX", "STRESS_XY", "STRESS_YY", "STRESS_ZZ", "STRAIN_XX", "STRAIN_XY", "STRAIN_YY"
ZONE T="0.000000000000e+00s", N=32, E=38, F=FEPOINT, ET=QUADRILATERAL
STRANDID=1, SOLUTIONTIME=0.000000000000e+00
1.000000000000e-02 0.000000000000e+00 5.000000000000e-02 0.000000000000e+00 0.000000000000e+00 -1.000000000000e+05 0.000000000000e+00 -1.000000000000e+05 -1.000000000000e+05 0.000000000000e+00 0.000000000000e+00 0.000000000000e+00 
1.000000000000e-02 0.000000000000e+00 4.500000000000e-02 0.000000000000e+00 0.000000000000e+00 -1.000000000000e+05 0.000000000000e+00 -1.000000000000e+05 -1.000000000000e+05 0.000000000000e+00 0.000000000000e+00 0.000000000000e+00 
5.000000000000e-03 0.000000000000e+00 5.000000000000e-02 0.000000000000e+00 0.000000000000e+00 -1.000000000000e+05 0.000000000000e+00 -1.000000000000e+05 -1.000000000000e+05 0.000000000000e+00 0.000000000000e+00 0.000000000000e+00 
5.000000000000e-03 0.000000000000e+00 4.300000000000e-02 0.000000000000e+00 0.000000000000e+00 -1.000000000000e+05 0.000000000000e+00 -1.000000000000e+05 -1.000000000000e+05 0.000000000000e+00 0.000000000000e+00 0.000000000000e+00 
1.000000000000e-02 0.000000000000e+00 4.000000000000e-02 0.000000000000e+00 0.000000000000e+00 -1.000000000000e+05 0.000000000000e+00 -1.000000000000e+05 -1.000000000000e+05 0.000000000000e+00 0.000000000000e+00 0.000000000000e+00 
0.000000000000e+00 0.000000000000e+00 5.000000000000e-02 0.000000000000e+00 0.000000000000e+00 -1.000000000000e+05 0.000000000000e+00 -1.000000000000e+05 -1.000000000000e+05 0.000000000000e+00 0.000000000000e+00 0.000000000000e+00 
0.000000000000e+00 0.000000000000e+00 4.500000000000e-02 0.000000000000e+00 0.000000000000e+00 -1.000000000000e+05 0.000000000000e+00 -1.000000000000e+05 -1.000000000000e+05 0.000000000000e+00 0.000000000000e+00 0.000000000000e+00 
6.000000000000e-03 0.000000000000e+00 3.800000000000e-02 0.000000000000e+00 0.000000000000e+00 -1.000000000000e+05 0.000000000000e+00 -1.000000000000e+05 -1.000000000000e+05 0.000000000000e+00 0.000000000000e+00 0.000000000000e+00 
0.000000000000e+00 0.000000000000e+00 4.000000000000e-02 0.000000000000e+00 0.000000000000e+00 -1.000000000000e+05 0.000000000000e+00 -1.000000000000e+05 -1.000000000000e+05 0.000000000000e+00 0.000000000000e+00 0.000000000000e+00 
1.000000000000e-02 0.000000000000e+00 3.500000000000e-02 0.000000000000e+00 0.000000000000e+00 -1.000000000000e+05 0.000000000000e+00 -1.000000000000e+05 -1.000000000000e+05 0.000000000000e+00 0.000000000000e+00 0.000000000000e+00 
0.000000000000e+00 0.000000000000e+00 3.500000000000e-02 0.000000000000e+00 0.000000000000e+00 -1.000000000000e+05 0.000000000000e+00 -1.000000000000e+05 -1.000000000000e+05 0.000000000000e+00 0.000000000000e+00 0.000000000000e+00 
4.000000000000e-03 0.000000000000e+00 3.300000000000e-02 0.000000000000e+00 0.000000000000e+00 -1.000000000000e+05 0.000000000000e+00 -1.000000000000e+05 -1.000000000000e+05 0.000000000000e+00 0.000000000000e+00 0.000000000000e+00 
1.000000000000e-02 0.000000000000e+00 3.000000000000e-02 0.000000000000e+00 0.000000000000e+00 -1.000000000000e+05 0.000000000000e+00 -1.000000000000e+05 -1.000000000000e+05 0.000000000000e+00 0.000000000000e+00 0.000000000000e+00 
0.000000000000e+00 0.000000000000e+00 3.000000000000e-02 0.000000000000e+00 0.000000000000e+00 -1.000000000000e+05 0.000000000000e+00 -1.000000000000e+05 -1.000000000000e+05 0.000000000000e+00 0.000000000000e+00 0.000000000000e+00 
4.000000000000e-03 0.000000000000e+00 2.800000000000e-02 0.000000000000e+00 0.000000000000e+00 -1.000000000000e+05 0.000000000000e+00 -1.000000000000e+05 -1.000000000000e+05 0.000000000000e+00 0.000000000000e+00 0.000000000000e+00 
1.000000000000e-02 0.000000000000e+00 2.500000000000e-02 0.000000000000e+00 0.000000000000e+00 -1.000000000000e+05 0.000000000000e+00 -1.000000000000e+05 -1.000000000000e+05 0.000000000000e+00 0.000000000000e+00 0.000000000000e+00 
0.000000000000e+00 0.000000000000e+00 2.500000000000e-02 0.000000000000e+00 0.000000000000e+00 -1.000000000000e+05 0.000000000000e+00 -1.000000000000e+05 -1.000000000000e+05 0.000000000000e+00 0.000000000000e+00 0.000000000000e+00 
4.000000000000e-03 0.000000000000e+00 2.300000000000e-02 0.000000000000e+00 0.000000000000e+00 -1.000000000000e+05 0.000000000000e+00 -1.000000000000e+05 -1.000000000000e+05 0.000000000000e+00 0.000000000000e+00 0.000000000000e+00 
1.000000000000e-02 0.000000000000e+00 2.000000000000e-02 0.000000000000e+00 0.000000000000e+00 -1.000000000000e+05 0.000000000000e+00 -1.000000000000e+05 -1.000000000000e+05 0.000000000000e+00 0.000000000000e+00 0.000000000000e+00 
0.000000000000e+00 0.000000000000e+00 2.000000000000e-02 0.000000000000e+00 0.000000000000e+00 -1.000000000000e+05 0.000000000000e+00 -1.000000000000e+05 -1.000000000000e+05 0.000000000000e+00 0.000000000000e+00 0.000000000000e+00 
4.000000000000e-03 0.000000000000e+00 1.800000000000e-02 0.000000000000e+00 0.000000000000e+00 -1.000000000000e+05 0.000000000000e+00 -1.000000000000e+05 -1.000000000000e+05 0.000000000000e+00 0.000000000000e+00 0.000000000000e+00 
1.000000000000e-02 0.000000000000e+00 1.500000000000e-02 0.000000000000e+00 0.000000000000e+00 -1.000000000000e+05 0.000000000000e+00 -1.000000000000e+05 -1.000000000000e+05 0.000000000000e+00 0.000000000000e+00 0.000000000000e+00 
0.000000000000e+00 0.000000000000e+00 1.500000000000e-02 0.000000000000e+00 0.000000000000e+00 -1.000000000000e+05 0.000000000000e+00 -1.000000000000e+05 -1.000000000000e+05 0.000000000000e+00 0.000000000000e+00 0.000000000000e+00 
4.000000000000e-03 0.000000000000e+00 1.300000000000e-02 0.000000000000e+00 0.000000000000e+00 -1.000000000000e+05 0.000000000000e+00 -1.000000000000e+05 -1.000000000000e+05 0.000000000000e+00 0.000000000000e+00 0.000000000000e+00 
1.000000000000e-02 0.000000000000e+00 1.000000000000e-02 0.000000000000e+00 0.000000000000e+00 -1.000000000000e+05 0.000000000000e+00 -1.000000000000e+05 -1.000000000000e+05 0.000000000000e+00 0.000000000000e+00 0.000000000000e+00 
0.000000000000e+00 0.000000000000e+00 1.000000000000e-02 0.000000000000e+00 0.000000000000e+00 -1.000000000000e+05 0.000000000000e+00 -1.000000000000e+05 -1.000000000000e+05 0.000000000000e+00 0.000000000000e+00 0.000000000000e+00 
5.000000000000e-03 0.000000000000e+00 7.000000000000e-03 0.000000000000e+00 0.000000000000e+00 -1.000000000000e+05 0.000000000000e+00 -1.000000000000e+05 -1.000000000000e+05 0.000000000000e+00 0.000000000000e+00 0.000000000000e+00 
1.000000000000e-02 0.000000000000e+00 5.000000000000e-03 0.000000000000e+00 0.000000000000e+00 -1.000000000000e+05 0.000000000000e+00 -1.000000000000e+05 -1.000000000000e+05 0.000000000000e+00 0.000000000000e+00 0.000000000000e+00 
0.000000000000e+00 0.000000000000e+00 5.000000000000e-03 0.000000000000e+00 0.000000000000e+00 -1.000000000000e+05 0.000000000000e+00 -1.000000000000e+05 -1.000000000000e+05 0.000000000000e+00 0.000000000000e+00 0.000000000000e+00 
1.000000000000e-02 0.000000000000e+00 0.000000000000e+00 0.000000000000e+00 0.000000000000e+00 -1.000000000000e+05 0.000000000000e+00 -1.000000000000e+05 -1.000000000000e+05 0.000000000000e+00 0.000000000000e+00 0.000000000000e+00 
5.000000000000e-03 0.000000000000e+00 0.000000000000e+00 0.000000000000e+00 0.000000000000e+00 -1.000000000000e+05 0.000000000000e+00 -1.000000000000e+05 -1.000000000000e+05 0.000000000000e+00 0.000000000000e+00 0.000000000000e+00 
0.000000000000e+00 0.000000000000e+00 0.000000000000e+00 0.000000000000e+00 0.000000000000e+00 -1.000000000000e+05 0.000000000000e+00 -1.000000000000e+05 -1.000000000000e+05 0.000000000000e+00 0.000000000000e+00 0.000000000000e+00 
14  17  15  14
15  17  18  15
18  17  20  18
14  15  12  14
30  28  31  30
12  15  13  12
18  20  21  18
21  20  23  21
18  21  19  18
21  23  24  21
24  23  26  24
21  24  22  21
5  2  4  5
4  2  3  4
5  4  8  5
8  4  9  8
5  8  10  5
24  26  27  24
27  26  29  27
24  27  25  24
10  8  12  10
27  29  31  27
19  16  18  19
6  7  3  6
25  22  24  25
1  3  2  1
13  10  12  13
9  11  8  9
32  31  29  32
15  18  16  15
14  12  11  14
11  12  8  11
28  25  27  28
7  9  4  7
16  13  15  16
22  19  21  22
7  4  3  7
28  27  31  28
VARIABLES  = "X","Y","Z", "DISPLACEMENT_X1", "DISPLACEMENT_Y1", "STRESS_XX", "STRESS_XY", "STRESS_YY", "STRESS_ZZ", "STRAIN_XX", "STRAIN_XY", "STRAIN_YY"
ZONE T="1.000000000000e-03s", N=32, E=38, F=FEPOINT, ET=QUADRILATERAL
STRANDID=1, SOLUTIONTIME=1.000000000000e-03
1.000000000000e-02 0.000000000000e+00 5.000000000000e-02 0.000000000000e+00 0.000000000000e+00 -1.157019950871e+05 -3.953254659542e-01 -1.235552132293e+05 -1.157028990006e+05 8.731523210204e-08 -7.610126991712e-08 -7.573731025255e-04 
1.000000000000e-02 0.000000000000e+00 4.500000000000e-02 0.000000000000e+00 3.793098233667e-06 -1.156177417651e+05 -2.607320082727e+00 -1.234140786852e+05 -1.156127020024e+05 -4.833226930946e-07 -4.923299355650e-07 -7.597695469795e-04 
5.000000000000e-03 0.000000000000e+00 5.000000000000e-02 -4.437523894730e-11 0.000000000000e+00 -1.157019887241e+05 1.620619702351e-02 -1.235549059819e+05 -1.157027344520e+05 7.212054795732e-08 3.054303875645e-09 -7.579210642669e-04 
5.000000000000e-03 0.000000000000e+00 4.300000000000e-02 -1.346233607337e-10 5.312173763999e-06 -1.158275854752e+05 -2.343694049409e+00 -1.237317070565e+05 -1.158238262798e+05 -3.453441377046e-07 -4.407596466964e-07 -7.587001626888e-04 
1.000000000000e-02 0.000000000000e+00 4.000000000000e-02 0.000000000000e+00 7.606971698756e-06 -1.160675397728e+05 1.936247423829e+01 -1.241863459671e+05 -1.161015156853e+05 3.253178016351e-06 3.653734999408e-06 -7.667858048397e-04 
0.000000000000e+00 0.000000000000e+00 5.000000000000e-02 0.000000000000e+00 0.000000000000e+00 -1.157019907894e+05 4.584593621851e-01 -1.235550202041e+05 -1.157028244613e+05 8.057684340408e-08 8.823020820224e-08 -7.573001074415e-04 
0.000000000000e+00 0.000000000000e+00 4.500000000000e-02 0.000000000000e+00 3.793273861147e-06 -1.157016944584e+05 1.754684497850e+00 -1.235415394529e+05 -1.156972634372e+05 -4.290371908787e-07 3.397278082836e-07 -7.601543989934e-04 
6.000000000000e-03 0.000000000000e+00 3.800000000000e-02 -5.686562281886e-09 9.134059995157e-06 -1.163859009299e+05 3.809883512451e+00 -1.245208295196e+05 -1.163621297467e+05 -2.261959504392e-06 6.913190490017e-07 -7.711699175021e-04 
0.000000000000e+00 0.000000000000e+00 4.000000000000e-02 0.000000000000e+00 7.601631297200e-06 -1.160667522421e+05 -1.008116008157e+01 -1.241505331885e+05 -1.160869709194e+05 1.919367987746e-06 -1.931102051332e-06 -7.637323475509e-04 
1.000000000000e-02 0.000000000000e+00 3.500000000000e-02 0.000000000000e+00 1.138849701629e-05 -1.153673741040e+05 -8.597614511179e+01 -1.229876872312e+05 -1.153437254553e+05 -2.361900561351e-06 -1.644167212746e-05 -7.328365284489e-04 
0.000000000000e+00 0.000000000000e+00 3.500000000000e-02 0.000000000000e+00 1.138546708773e-05 -1.156578780703e+05 8.863530425450e+01 -1.232129319568e+05 -1.155494136903e+05 -1.017674053441e-05 1.695921305415e-05 -7.353066751216e-04 
4.000000000000e-03 0.000000000000e+00 3.300000000000e-02 -2.225720578391e-08 1.296181710326e-05 -1.152851848680e+05 9.516758159971e+01 -1.237621461382e+05 -1.156206432894e+05 3.182294888360e-05 1.808913196981e-05 -7.693592309922e-04 
1.000000000000e-02 0.000000000000e+00 3.000000000000e-02 0.000000000000e+00 1.545222093526e-05 -1.198857530104e+05 2.307750871688e+02 -1.297406953905e+05 -1.198417360785e+05 -5.998857639647e-06 4.029729836930e-05 -9.195005494485e-04 
0.000000000000e+00 0.000000000000e+00 3.000000000000e-02 0.000000000000e+00 1.529409314516e-05 -1.182010764437e+05 -8.465846625597e+01 -1.268242471342e+05 -1.180049168672e+05 -1.931192587148e-05 -1.464988890589e-05 -8.375651580152e-04 
4.000000000000e-03 0.000000000000e+00 2.800000000000e-02 -3.716583055996e-09 1.647000681221e-05 -1.158167544508e+05 -2.171982657933e+02 -1.197111410586e+05 -1.142156470363e+05 -1.515452809520e-04 -4.259877899181e-05 -5.202482234609e-04 
1.000000000000e-02 0.000000000000e+00 2.500000000000e-02 0.000000000000e+00 1.898059565957e-05 -1.030739948423e+05 9.225873236935e+02 -1.126857689251e+05 -1.063309419813e+05 3.152651882451e-04 1.831638576658e-04 -6.127263267873e-04 
0.000000000000e+00 0.000000000000e+00 2.500000000000e-02 0.000000000000e+00 1.919251662339e-05 -1.027183238237e+05 -2.056658922490e+03 -1.142303381394e+05 -1.068071465912e+05 3.984193802400e-04 -4.255159638681e-04 -6.814076247391e-04 
4.000000000000e-03 0.000000000000e+00 2.300000000000e-02 -8.524168538897e-08 2.243037012885e-05 -1.323529893339e+05 1.682851036501e+03 -1.565550504791e+05 -1.355058080327e+05 3.365885116689e-04 2.965897656133e-04 -2.371145279552e-03 
1.000000000000e-02 0.000000000000e+00 2.000000000000e-02 0.000000000000e+00 2.062772588694e-05 -1.361892963241e+05 -5.451852448636e+03 -1.206888081452e+05 -1.227151257061e+05 -1.782585525520e-03 -2.345273816798e-03 1.589469528618e-03 
0.000000000000e+00 0.000000000000e+00 2.000000000000e-02 0.000000000000e+00 1.874016924394e-05 -1.424162500614e+05 5.893468513479e+03 -1.159105161680e+05 -1.232770095744e+05 -3.166981682543e-03 2.882981174467e-03 2.327359837490e-03 
4.000000000000e-03 0.000000000000e+00 1.800000000000e-02 -1.846540986675e-06 1.917022602995e-05 -5.432727904514e+03 5.407072702758e+03 1.475212409951e+04 -1.655257198135e+04 1.381415393106e-03 8.842635313631e-04 5.073171275696e-03 
1.000000000000e-02 0.000000000000e+00 1.500000000000e-02 0.000000000000e+00 5.428145737798e-05 -9.152333472153e+04 2.859737623814e+04 -2.326492805559e+05 -1.484321069165e+05 6.477965599401e-03 1.326659111529e-02 -2.297243996293e-02 
0.000000000000e+00 0.000000000000e+00 1.500000000000e-02 0.000000000000e+00 5.140101268218e-05 -2.266226755283e+03 -1.596318746653e+04 -2.018911481323e+05 -1.015376094961e+05 1.161415281696e-02 -1.196343650612e-02 -2.536817836605e-02 
4.000000000000e-03 0.000000000000e+00 1.300000000000e-02 1.749397353151e-05 2.080244426199e-05 -2.088773124591e+05 -2.214541935611e+04 -1.718677974437e+05 -1.713138625100e+05 -2.199717003158e-02 -6.301583620444e-03 9.651201979074e-04 
1.000000000000e-02 0.000000000000e+00 1.000000000000e-02 0.000000000000e+00 -3.764035377045e-05 2.216623396595e+05 -3.511803104331e+04 3.411766391463e+05 1.998020756740e+05 4.376912224489e-03 -2.316678947539e-02 9.128948262724e-02 
0.000000000000e+00 0.000000000000e+00 1.000000000000e-02 0.000000000000e+00 -3.326971630663e-05 1.902574389200e+05 4.246175792175e+04 2.983133004270e+05 1.716767182597e+05 -4.674356907467e-03 6.570951978630e-03 9.280160276214e-02 
5.000000000000e-03 0.000000000000e+00 7.000000000000e-03 -6.523009420235e-06 3.128907928881e-04 7.625765103516e+03 1.292363314096e+03 -3.945948784139e+05 -1.741967255416e+05 1.542951085002e-01 -5.861880200778e-03 -1.740114319444e-01 
1.000000000000e-02 0.000000000000e+00 5.000000000000e-03 0.000000000000e+00 4.434171485785e-04 -2.245464391611e+05 5.029326323922e+03 -2.236214174254e+05 -1.965602282673e+05 -1.551702624166e-01 1.004488622072e-02 -2.148510060807e-01 
0.000000000000e+00 0.000000000000e+00 5.000000000000e-03 0.000000000000e+00 4.418716663953e-04 -2.918580460657e+05 -1.517852826282e+04 -2.408890613838e+05 -2.265070112849e+05 -2.080391240600e-01 -4.169551300856e-02 -2.171953976752e-01 
1.000000000000e-02 0.000000000000e+00 0.000000000000e+00 0.000000000000e+00 0.000000000000e+00 1.675769114945e+05 2.874171891757e+03 3.707656093364e+05 1.834824107330e+05 -2.072501455179e-02 7.666820471364e-03 3.434136815566e-01 
5.000000000000e-03 0.000000000000e+00 0.000000000000e+00 -3.459707763903e-07 0.000000000000e+00 2.647846395014e+05 -1.040940114847e+04 5.335098479390e+05 2.835865073275e+05 5.520522904695e-02 -1.019608734690e-02 3.558217420097e-01 
0.000000000000e+00 0.000000000000e+00 0.000000000000e+00 0.000000000000e+00 0.000000000000e+00 3.190606774518e+05 -5.534881204800e+03 6.866725468612e+05 3.494353658885e+05 -2.126460764114e-02 -7.773325397554e-03 3.440381453217e-01 
14  17  15  14
15  17  18  15
18  17  20  18
14  15  12  14
30  28  31  30
12  15  13  12
18  20  21  18
21  20  23  21
18  21  19  18
21  23  24  21
24  23  26  24
21  24  22  21
5  2  4  5
4  2  3  4
5  4  8  5
8  4  9  8
5  8  10  5
24  26  27  24
27  26  29  27
24  27  25  24
10  8  12  10
27  29  31  27
19  16  18  19
6  7  3  6
25  22  24  25
1  3  2  1
13  10  12  13
9  11  8  9
32  31  29  32
15  18  16  15
14  12  11  14
11  12  8  11
28  25  27  28
7  9  4  7
16  13  15  16
22  19  21  22
7  4  3  7
28  27  31  28
VARIABLES  = "X","Y","Z", "DISPLACEMENT_X1", "DISPLACEMENT_Y1", "STRESS_XX", "STRESS_XY", "STRESS_YY", "STRESS_ZZ", "STRAIN_XX", "STRAIN_XY", "STRAIN_YY"
ZONE T="1.000000000000e-02s", N=32, E=38, F=FEPOINT, ET=QUADRILATERAL
STRANDID=1, SOLUTIONTIME=1.000000000000e-02
1.000000000000e-02 0.000000000000e+00 5.000000000000e-02 0.000000000000e+00 0.000000000000e+00 -1.541355135291e+06 -4.286348333987e+02 -2.248463505760e+06 -1.535927437400e+06 -3.328233161677e-05 -5.662908334679e-06 -4.063625017662e-02 
1.000000000000e-02 0.000000000000e+00 4.500000000000e-02 0.000000000000e+00 2.031656607637e-04 -1.538419560002e+06 -5.787922268430e+03 -2.245750622751e+06 -1.533668118711e+06 -3.840715899313e-05 -5.640632156436e-05 -4.063427025648e-02 
5.000000000000e-03 0.000000000000e+00 5.000000000000e-02 3.112966334573e-08 0.000000000000e+00 -1.533861471051e+06 -5.267788323281e+02 -2.253971215453e+06 -1.535133076928e+06 1.104494574352e-05 -4.884784777330e-06 -4.070521068484e-02 
5.000000000000e-03 0.000000000000e+00 4.300000000000e-02 1.138927609547e-07 2.847820583556e-04 -1.539391839206e+06 -5.176074650573e+03 -2.267731517146e+06 -1.542849299582e+06 2.839907607690e-05 -6.997346323134e-05 -4.062475060246e-02 
1.000000000000e-02 0.000000000000e+00 4.000000000000e-02 0.000000000000e+00 4.061951706325e-04 -1.536243692678e+06 2.561128941926e+03 -2.224410232296e+06 -1.524261489313e+06 -8.667507412965e-05 -1.608856002767e-05 -4.058937469104e-02 
0.000000000000e+00 0.000000000000e+00 5.000000000000e-02 0.000000000000e+00 0.000000000000e+00 -1.538560128997e+06 5.594733946911e+02 -2.263602258129e+06 -1.540864932746e+06 1.179391453828e-05 7.074952383569e-06 -4.067223990879e-02 
0.000000000000e+00 0.000000000000e+00 4.500000000000e-02 0.000000000000e+00 2.033183440756e-04 -1.533246722226e+06 2.012373715183e+03 -2.256034225458e+06 -1.535712413328e+06 9.913905173933e-06 2.083858969205e-05 -4.067508434428e-02 
6.000000000000e-03 0.000000000000e+00 3.800000000000e-02 1.487194018879e-07 4.875998159133e-04 -1.537637070263e+06 -6.775201308524e+03 -2.265343637852e+06 -1.541192567631e+06 -1.072008988293e-05 -7.995509356930e-05 -4.052168988153e-02 
0.000000000000e+00 0.000000000000e+00 4.000000000000e-02 0.000000000000e+00 4.069435318107e-04 -1.535243903448e+06 -1.018043845153e+03 -2.266053344977e+06 -1.540518796149e+06 5.160745901749e-05 -6.755434676934e-05 -4.060030557934e-02 
1.000000000000e-02 0.000000000000e+00 3.500000000000e-02 0.000000000000e+00 6.095321256419e-04 -1.537845109793e+06 -4.946335713851e+03 -2.222740419753e+06 -1.524234384218e+06 -6.138406282627e-05 1.099575611839e-04 -4.080136319381e-02 
0.000000000000e+00 0.000000000000e+00 3.500000000000e-02 0.000000000000e+00 6.102447772003e-04 -1.529288827905e+06 -6.190966585913e+03 -2.274282567937e+06 -1.541428410420e+06 1.855659684910e-04 -2.867684582135e-04 -4.080694566404e-02 
4.000000000000e-03 0.000000000000e+00 3.300000000000e-02 8.200089291805e-08 6.902160220364e-04 -1.533764791916e+06 -4.503385806193e+03 -2.266133245596e+06 -1.539957889540e+06 6.304267902831e-05 -6.684443733792e-05 -4.070064094218e-02 
1.000000000000e-02 0.000000000000e+00 3.000000000000e-02 0.000000000000e+00 8.098636435375e-04 -1.552707317052e+06 -1.564051472522e+03 -2.215284770630e+06 -1.527197689562e+06 -3.622004881519e-04 -4.290112403581e-04 -3.892112638861e-02 
0.000000000000e+00 0.000000000000e+00 3.000000000000e-02 0.000000000000e+00 8.116701060247e-04 -1.547444579452e+06 -1.205113234721e+04 -2.301248077160e+06 -1.559478485485e+06 -3.413138183107e-04 -4.591607407330e-05 -3.955655999305e-02 
4.000000000000e-03 0.000000000000e+00 2.800000000000e-02 -2.198037036769e-06 8.977738434679e-04 -1.514434030767e+06 2.131081921369e+03 -2.296273336929e+06 -1.544287337246e+06 6.514722406461e-04 1.952891106504e-03 -4.323541465664e-02 
1.000000000000e-02 0.000000000000e+00 2.500000000000e-02 0.000000000000e+00 1.021350601354e-03 -1.509879730048e+06 -1.848079200086e+04 -2.066964753677e+06 -1.450728820735e+06 4.908010447944e-04 -1.185840356104e-03 -4.297586672728e-02 
0.000000000000e+00 0.000000000000e+00 2.500000000000e-02 0.000000000000e+00 1.012412865460e-03 -1.593792786309e+06 -3.762350334310e+04 -2.164807667975e+06 -1.523429678105e+06 -2.873016591616e-03 5.525839465515e-04 -3.819385251033e-02 
4.000000000000e-03 0.000000000000e+00 2.300000000000e-02 -6.284860308923e-06 1.095417142589e-03 -1.610352681530e+06 8.907140138268e+04 -2.582327321161e+06 -1.697058514812e+06 1.083952678221e-03 6.623522238458e-03 -3.531219268361e-02 
1.000000000000e-02 0.000000000000e+00 2.000000000000e-02 0.000000000000e+00 1.236591666258e-03 -1.359352734728e+06 -4.906422667926e+04 -1.725124938557e+06 -1.253816817142e+06 4.310228717558e-04 -1.792568296656e-03 -5.588305848411e-02 
0.000000000000e+00 0.000000000000e+00 2.000000000000e-02 0.000000000000e+00 1.191479305599e-03 -1.382396925457e+06 1.334133212505e+04 -1.777775739931e+06 -1.284091655977e+06 -9.130051364617e-03 3.343230953782e-03 -4.788577402481e-02 
4.000000000000e-03 0.000000000000e+00 1.800000000000e-02 -2.676026611879e-05 1.286694056466e-03 -1.295990503562e+06 1.653345207910e+04 -2.200079491559e+06 -1.418436189033e+06 -9.520171356866e-04 8.868124537848e-03 -3.418334305325e-02 
1.000000000000e-02 0.000000000000e+00 1.500000000000e-02 0.000000000000e+00 1.520413244960e-03 -2.206842968047e+06 -4.437006552013e+04 -2.777662057331e+06 -2.013834156644e+06 1.635265340616e-02 1.549720332249e-02 -8.261497355414e-02 
0.000000000000e+00 0.000000000000e+00 1.500000000000e-02 0.000000000000e+00 1.445338242547e-03 -1.468082458467e+06 6.176049025739e+04 -2.735244329785e+06 -1.701467144381e+06 1.653369350887e-02 -1.491124954635e-02 -6.766484149056e-02 
4.000000000000e-03 0.000000000000e+00 1.300000000000e-02 -2.109747510422e-07 1.486211613672e-03 -1.881728239214e+06 -1.445920969510e+05 -2.782056797268e+06 -1.886252165947e+06 -3.924216911533e-02 1.855469095033e-02 -4.459169211538e-02 
1.000000000000e-02 0.000000000000e+00 1.000000000000e-02 0.000000000000e+00 1.580276296157e-03 2.208617799389e+05 -3.100761372227e+05 1.315786054855e+06 5.939113696934e+05 1.380083756027e-02 -7.526101743231e-02 1.084997281494e-01 
0.000000000000e+00 0.000000000000e+00 1.000000000000e-02 0.000000000000e+00 1.436536716383e-03 -7.003975731687e+05 8.724066139274e+05 1.882434544564e+06 4.536457306449e+05 -3.980912477905e-02 3.237891923630e-02 1.494112891545e-01 
5.000000000000e-03 0.000000000000e+00 7.000000000000e-03 -1.201940945147e-04 2.274989100860e-03 3.470152788613e+06 1.489068622867e+05 -9.903233441012e+06 -2.572517361101e+06 3.566754874758e-01 9.309825036406e-02 -4.437142172849e-01 
1.000000000000e-02 0.000000000000e+00 5.000000000000e-03 0.000000000000e+00 3.047347930408e-03 -6.092985027617e+06 -4.577943688310e+05 -1.150415863353e+07 -6.193131320865e+06 -3.998923017976e-01 8.188945830768e-02 -7.215635592917e-01 
0.000000000000e+00 0.000000000000e+00 5.000000000000e-03 0.000000000000e+00 2.358243593269e-03 -7.340822799211e+06 -4.776705435833e+05 -8.727566937715e+06 -5.325153671898e+06 -6.746009367648e-01 1.336175764442e-01 -3.651049757402e-01 
1.000000000000e-02 0.000000000000e+00 0.000000000000e+00 0.000000000000e+00 0.000000000000e+00 1.294478988725e+06 1.310592732388e+06 3.741775810194e+07 1.163828821823e+07 -1.603787837866e-01 4.912656765147e-02 1.924388766361e+00 
5.000000000000e-03 0.000000000000e+00 0.000000000000e+00 1.150053829335e-04 0.000000000000e+00 1.328225867654e+07 -7.421353256949e+05 3.148542661740e+07 1.473231848915e+07 3.097112074768e-01 -4.373281083371e-02 1.584643983159e+00 
0.000000000000e+00 0.000000000000e+00 0.000000000000e+00 0.000000000000e+00 0.000000000000e+00 2.167132687089e+06 3.274803867293e+06 4.396663216500e+07 1.233256194036e+07 -1.089840216483e-01 -2.006351211764e-02 1.140652710223e+00 
14  17  15  14
15  17  18  15
18  17  20  18
14  15  12  14
30  28  31  30
12  15  13  12
18  20  21  18
21  20  23  21
18  21  19  18
21  23  24  21
24  23  26  24
21  24  22  21
5  2  4  5
4  2  3  4
5  4  8  5
8  4  9  8
5  8  10  5
24  26  27  24
27  26  29  27
24  27  25  24
10  8  12  10
27  29  31  27
19  16  18  19
6  7  3  6
25  22  24  25
1  3  2  1
13  10  12  13
9  11  8  9
32  31  29  32
15  18  16  15
14  12  11  14
11  12  8  11
28  25  27  28
7  9  4  7
16  13  15  16
22  19  21  22
7  4  3  7
28  27  31  28
VARIABLES  = "X","Y","Z", "DISPLACEMENT_X1", "DISPLACEMENT_Y1", "STRESS_XX", "STRESS_XY", "STRESS_YY", "STRESS_ZZ", "STRAIN_XX", "STRAIN_XY", "STRAIN_YY"
ZONE T="1.000000000000e-01s", N=32, E=38, F=FEPOINT, ET=QUADRILATERAL
STRANDID=1, SOLUTIONTIME=1.000000000000e-01
1.000000000000e-02 0.000000000000e+00 5.000000000000e-02 0.000000000000e+00 0.000000000000e+00 -3.968146176519e+06 -6.521077253917e+02 -5.865067464817e+06 -3.953285200956e+06 -6.425062860543e-05 -6.893355369288e-06 -4.327708390790e-02 
1.000000000000e-02 0.000000000000e+00 4.500000000000e-02 0.000000000000e+00 2.164014330452e-04 -3.962319539456e+06 -1.378676794835e+04 -5.886316881809e+06 -3.959454992198e+06 -3.792757706055e-05 -9.876859439785e-05 -4.336726018825e-02 
5.000000000000e-03 0.000000000000e+00 5.000000000000e-02 2.213914035249e-08 0.000000000000e+00 -3.951000210049e+06 -5.708654314559e+02 -5.864713726939e+06 -3.946285900762e+06 -2.060582134256e-06 -3.398853261813e-06 -4.339265445276e-02 
5.000000000000e-03 0.000000000000e+00 4.300000000000e-02 8.047196258438e-08 3.034682672572e-04 -3.982280915035e+06 -8.649139770256e+03 -5.944836717153e+06 -3.990845486297e+06 4.098406936032e-05 -8.732773733783e-05 -4.320698232746e-02 
1.000000000000e-02 0.000000000000e+00 4.000000000000e-02 0.000000000000e+00 4.325280834742e-04 -3.966502939648e+06 1.919568150681e+04 -5.839278926848e+06 -3.942313051382e+06 -1.141291376990e-04 8.086679653279e-05 -4.307360142041e-02 
0.000000000000e+00 0.000000000000e+00 5.000000000000e-02 0.000000000000e+00 0.000000000000e+00 -4.034079548338e+06 2.469116070676e+03 -6.082515017636e+06 -4.066637505582e+06 8.274875960588e-05 1.755416859571e-05 -4.335348151700e-02 
0.000000000000e+00 0.000000000000e+00 4.500000000000e-02 0.000000000000e+00 2.165908936736e-04 -3.951155622414e+06 8.730358981372e+03 -5.877347654859e+06 -3.951401760536e+06 2.922477289245e-06 5.240926316542e-05 -4.329924032062e-02 
6.000000000000e-03 0.000000000000e+00 3.800000000000e-02 1.919429848321e-07 5.188237560765e-04 -3.961272967624e+06 -2.557863332056e+04 -5.900047808022e+06 -3.964536394514e+06 -1.666022962445e-05 -1.806116913329e-04 -4.307372701040e-02 
0.000000000000e+00 0.000000000000e+00 4.000000000000e-02 0.000000000000e+00 4.332878527047e-04 -3.979640444256e+06 1.023702300236e+04 -5.963128413917e+06 -3.997106702794e+06 7.685849386274e-05 -9.127770053935e-06 -4.318799493931e-02 
1.000000000000e-02 0.000000000000e+00 3.500000000000e-02 0.000000000000e+00 6.485839293652e-04 -3.954586210473e+06 4.268677487982e+03 -5.874791785894e+06 -3.951730498990e+06 -2.082826125186e-05 1.726484769247e-04 -4.346886043180e-02 
0.000000000000e+00 0.000000000000e+00 3.500000000000e-02 0.000000000000e+00 6.494314992836e-04 -3.981981494727e+06 -6.462944666031e+03 -5.964146728305e+06 -3.998435649906e+06 1.819037509993e-04 -2.600340789352e-04 -4.342348075500e-02 
4.000000000000e-03 0.000000000000e+00 3.300000000000e-02 2.495932603756e-07 7.346944162994e-04 -3.981166294989e+06 -1.796073101636e+04 -5.923739712418e+06 -3.981935824754e+06 3.880129901564e-05 -1.190755338357e-04 -4.330243478565e-02 
1.000000000000e-02 0.000000000000e+00 3.000000000000e-02 0.000000000000e+00 8.624357369564e-04 -3.910161706346e+06 6.202605772242e+04 -5.800439258056e+06 -3.904352340936e+06 -2.744032880800e-04 -5.972714838935e-05 -4.146802744676e-02 
0.000000000000e+00 0.000000000000e+00 3.000000000000e-02 0.000000000000e+00 8.648806221072e-04 -3.961660818431e+06 -7.944349662348e+04 -6.041365686478e+06 -4.021284533295e+06 -2.058633538323e-04 -4.081277055642e-04 -4.232623651376e-02 
4.000000000000e-03 0.000000000000e+00 2.800000000000e-02 -2.167753087931e-06 9.552189755179e-04 -3.961071558387e+06 -4.152797388840e+04 -5.778568712553e+06 -3.915828092958e+06 3.560028209107e-04 1.632961099198e-03 -4.547088733065e-02 
1.000000000000e-02 0.000000000000e+00 2.500000000000e-02 0.000000000000e+00 1.091096567531e-03 -3.945959571468e+06 2.913294379309e+05 -5.829672801962e+06 -3.929857897596e+06 7.715049823278e-04 9.907839758077e-04 -4.623054538629e-02 
0.000000000000e+00 0.000000000000e+00 2.500000000000e-02 0.000000000000e+00 1.081514186284e-03 -4.076173723042e+06 -4.600946230840e+05 -6.686551241708e+06 -4.324692355582e+06 -1.854079155333e-03 -2.270983515617e-03 -4.170687138354e-02 
4.000000000000e-03 0.000000000000e+00 2.300000000000e-02 -6.068869217699e-06 1.172988571797e-03 -3.872908935969e+06 4.164955032362e+03 -5.633827280512e+06 -3.823240574166e+06 4.472990559523e-04 6.442929513470e-03 -4.132298033258e-02 
1.000000000000e-02 0.000000000000e+00 2.000000000000e-02 0.000000000000e+00 1.323429652223e-03 -3.799014532615e+06 -1.828642163703e+05 -5.692724966175e+06 -3.817204653150e+06 9.929248835568e-04 -2.629046411903e-03 -6.065996143121e-02 
0.000000000000e+00 0.000000000000e+00 2.000000000000e-02 0.000000000000e+00 1.279262641856e-03 -4.135146594726e+06 3.867545999145e+05 -6.301248400745e+06 -4.195359041964e+06 -8.689252243184e-03 5.774570278655e-03 -5.121106781755e-02 
4.000000000000e-03 0.000000000000e+00 1.800000000000e-02 -2.778064118073e-05 1.386662997070e-03 -3.435661505557e+06 5.268149704426e+04 -5.769367484701e+06 -3.698064104752e+06 -6.262236456631e-04 9.831796729996e-03 -4.103730820516e-02 