 TITLE = "Time curves in points"
 VARIABLES = "TIME "  "PRESSURE1"  "PRESSURE2"  "PRESSURE_W"  "SATURATION1" SATURATION2  "VELOCITY_X1"  "VELOCITY_Y1"  "VELOCITY_X2"  "VELOCITY_Y2"  p_(1st_Invariant)  q_(2nd_Invariant)   Effective_Strain
 ZONE T="POINT=POINT4"
0.000000000000e+00 8.400000000000e+07 1.000000000000e+05 -8.390000000000e+07 6.601393844892e-01 3.398606155108e-01 0.000000000000e+00 0.000000000000e+00 0.000000000000e+00 0.000000000000e+00 1.000000000000e+05 0.000000000000e+00  0.000000000000e+00
1.000000000000e-03 8.352577166387e-314 1.000000000000e+05 1.000000000000e+05 1.000000000000e+00 0.000000000000e+00 2.245939834686e-06 3.928132540998e-04 2.880190897202e-13 -6.005725438094e-14 -3.606269982559e+05 2.604597453155e+05  3.321526595181e-01
2.000000000000e-03 8.352577166387e-314 1.000000000000e+05 1.000000000000e+05 1.000000000000e+00 0.000000000000e+00 2.228286284990e-06 3.926518360357e-04 6.004459015444e-13 -1.178869167990e-13 -7.016645548775e+05 4.136322349952e+05  1.039045771427e+00
3.000000000000e-03 8.352577166387e-314 1.000000000000e+05 1.000000000000e+05 1.000000000000e+00 0.000000000000e+00 2.210776348957e-06 3.924904948887e-04 9.085145189003e-13 -1.737821479906e-13 -1.624340619950e+06 7.747793001381e+05  1.307233503880e+00
4.000000000000e-03 8.352577166387e-314 1.000000000000e+05 1.000000000000e+05 1.000000000000e+00 0.000000000000e+00 2.193408635950e-06 3.923292315385e-04 1.213792832724e-12 -2.279195907365e-13 -5.720918146050e+06 3.519629629475e+06  1.421790108625e+00
5.000000000000e-03 8.352577166387e-314 1.000000000000e+05 1.000000000000e+05 1.000000000000e+00 0.000000000000e+00 2.176182427859e-06 3.921680469031e-04 1.514365584579e-12 -2.802543219636e-13 -1.119476170161e+07 4.610221907620e+06  1.444944408749e+00
6.000000000000e-03 8.352577166387e-314 1.000000000000e+05 1.000000000000e+05 1.000000000000e+00 0.000000000000e+00 2.159096160922e-06 3.920069418289e-04 1.812571153983e-12 -3.307796288441e-13 -2.354371090478e+07 1.557515084451e+07  1.453577545187e+00
7.000000000000e-03 8.352577166387e-314 1.000000000000e+05 1.000000000000e+05 1.000000000000e+00 0.000000000000e+00 2.142039280724e-06 3.918458201604e-04 2.106898778520e-12 -3.794535427786e-13 -2.208258495556e+07 1.461510581957e+07  1.454392064032e+00
8.000000000000e-03 8.352577166387e-314 1.000000000000e+05 1.000000000000e+05 1.000000000000e+00 0.000000000000e+00 2.124232611070e-06 3.916839884554e-04 2.396921213295e-12 -4.261296076905e-13 -2.125662634769e+07 1.572183181910e+07  1.455125546118e+00
9.000000000000e-03 8.352577166387e-314 1.000000000000e+05 1.000000000000e+05 1.000000000000e+00 0.000000000000e+00 2.106868747042e-06 3.915219729314e-04 2.683601288127e-12 -4.711056157655e-13 -2.049749271877e+07 1.667740934108e+07  1.455908237886e+00
1.000000000000e-02 8.352577166387e-314 1.000000000000e+05 1.000000000000e+05 1.000000000000e+00 0.000000000000e+00 2.089684680294e-06 3.913600056596e-04 2.966802692080e-12 -5.140975921738e-13 -1.983333460728e+07 1.757027625484e+07  1.456699440535e+00
2.000000000000e-02 8.352577166387e-314 1.000000000000e+05 1.000000000000e+05 1.000000000000e+00 0.000000000000e+00 1.927855301449e-06 3.897526556426e-04 5.599043308280e-12 -7.868112707612e-13 -5.630622155086e+07 6.835480848206e+07  1.539703284065e+00
3.000000000000e-02 8.352577166387e-314 1.000000000000e+05 1.000000000000e+05 1.000000000000e+00 0.000000000000e+00 1.778616811740e-06 3.881460008991e-04 7.876476831897e-12 -9.106429036110e-13 3.772986245750e+05 3.771195905807e+07  1.649682764151e+00
4.000000000000e-02 8.352577166387e-314 1.000000000000e+05 1.000000000000e+05 1.000000000000e+00 0.000000000000e+00 1.638067586844e-06 3.865413870872e-04 1.004302460936e-11 -9.626049179287e-13 -1.842253770667e+07 3.491512891701e+07  1.445245250686e+00
5.000000000000e-02 8.352577166387e-314 1.000000000000e+05 1.000000000000e+05 1.000000000000e+00 0.000000000000e+00 1.505917478568e-06 3.849286726502e-04 1.224468319121e-11 -1.027213620942e-12 1.092459191965e+06 3.306487737267e+07  1.429565576619e+00
6.000000000000e-02 8.352577166387e-314 1.000000000000e+05 1.000000000000e+05 1.000000000000e+00 0.000000000000e+00 1.384176405527e-06 3.833083525437e-04 1.432872653836e-11 -1.050007177074e-12 -9.450581877422e+06 3.836783885992e+07  1.528234636121e+00
7.000000000000e-02 8.352577166387e-314 1.000000000000e+05 1.000000000000e+05 1.000000000000e+00 0.000000000000e+00 1.269524212571e-06 3.816815042714e-04 1.629575032418e-11 -1.042778158688e-12 -1.282797057041e+07 3.330343518876e+07  1.588282641991e+00
8.000000000000e-02 8.352577166387e-314 1.000000000000e+05 1.000000000000e+05 1.000000000000e+00 0.000000000000e+00 1.162089060465e-06 3.800599234299e-04 1.814720655111e-11 -9.977904371116e-13 -6.961152182051e+06 3.462111860931e+07  1.569899764006e+00
9.000000000000e-02 8.352577166387e-314 1.000000000000e+05 1.000000000000e+05 1.000000000000e+00 0.000000000000e+00 1.062765631888e-06 3.784592490985e-04 1.989848163130e-11 -9.278314068564e-13 -6.271485962375e+06 3.599637737720e+07  1.615242931146e+00
1.000000000000e-01 8.352577166387e-314 1.000000000000e+05 1.000000000000e+05 1.000000000000e+00 0.000000000000e+00 9.699484296328e-07 3.768598783258e-04 2.154405034441e-11 -8.486616175525e-13 -3.648761789688e+06 3.710797651865e+07  1.605965000287e+00
1.100000000000e-01 8.352577166387e-314 1.000000000000e+05 1.000000000000e+05 1.000000000000e+00 0.000000000000e+00 8.819705691359e-07 3.752670979066e-04 2.306443177674e-11 -7.395185771965e-13 -3.473449909911e+06 3.614486603337e+07  1.610644211322e+00
1.200000000000e-01 8.352577166387e-314 1.000000000000e+05 1.000000000000e+05 1.000000000000e+00 0.000000000000e+00 8.011393535612e-07 3.736809225529e-04 2.449356731590e-11 -6.362453922090e-13 -4.440428678124e+06 3.677855940136e+07  1.618887717547e+00
1.300000000000e-01 8.352577166387e-314 1.000000000000e+05 1.000000000000e+05 1.000000000000e+00 0.000000000000e+00 7.269231551115e-07 3.721052323548e-04 2.583976738388e-11 -5.346164321995e-13 -4.173429632016e+06 3.757201618551e+07  1.620517466161e+00
1.400000000000e-01 8.352577166387e-314 1.000000000000e+05 1.000000000000e+05 1.000000000000e+00 0.000000000000e+00 6.552730503280e-07 3.705337761790e-04 2.706074564172e-11 -3.963469512345e-13 -4.194684989572e+06 3.804335454697e+07  1.623834864879e+00
1.500000000000e-01 8.352577166387e-314 1.000000000000e+05 1.000000000000e+05 1.000000000000e+00 0.000000000000e+00 5.896046653962e-07 3.689457765718e-04 2.818352861391e-11 -2.716063209093e-13 -4.005450839245e+06 3.836966642014e+07  1.626297806065e+00
1.600000000000e-01 8.352577166387e-314 1.000000000000e+05 1.000000000000e+05 1.000000000000e+00 0.000000000000e+00 5.294368659519e-07 3.673682378411e-04 2.923206115967e-11 -1.547872952458e-13 -3.820403948285e+06 3.855480803740e+07  1.627318204716e+00
1.700000000000e-01 8.352577166387e-314 1.000000000000e+05 1.000000000000e+05 1.000000000000e+00 0.000000000000e+00 4.728525306959e-07 3.658018551679e-04 3.019326571204e-11 -3.022129114418e-14 -3.622210496528e+06 3.872356576446e+07  1.628620002225e+00
1.800000000000e-01 8.352577166387e-314 1.000000000000e+05 1.000000000000e+05 1.000000000000e+00 0.000000000000e+00 4.196066204643e-07 3.642363519137e-04 3.105352864651e-11 5.546121463218e-14 -3.416389894796e+06 3.887741636838e+07  1.629306572755e+00
1.900000000000e-01 8.352577166387e-314 1.000000000000e+05 1.000000000000e+05 1.000000000000e+00 0.000000000000e+00 3.709409400915e-07 3.626899800501e-04 3.183410826842e-11 1.328170246171e-13 -3.153995124055e+06 3.904382689255e+07  1.630218279596e+00
2.000000000000e-01 8.352577166387e-314 1.000000000000e+05 1.000000000000e+05 1.000000000000e+00 0.000000000000e+00 3.265048196554e-07 3.611647204159e-04 3.253503835043e-11 1.998497040611e-13 -2.981972661805e+06 3.917824443539e+07  1.630824416001e+00
2.100000000000e-01 8.352577166387e-314 1.000000000000e+05 1.000000000000e+05 1.000000000000e+00 0.000000000000e+00 2.840283577103e-07 3.596392287520e-04 3.313245215781e-11 6.350535354907e-13 -2.695397956861e+06 3.932153283045e+07  1.631339588861e+00
2.200000000000e-01 8.352577166387e-314 1.000000000000e+05 1.000000000000e+05 1.000000000000e+00 0.000000000000e+00 2.447753381756e-07 3.581261680970e-04 3.363961237424e-11 1.473236999425e-12 -2.563137123794e+06 3.943666058703e+07  1.631824624396e+00
2.300000000000e-01 8.352577166387e-314 1.000000000000e+05 1.000000000000e+05 1.000000000000e+00 0.000000000000e+00 2.090607213079e-07 3.566285207319e-04 3.408774426007e-11 2.356220731766e-12 -2.301660059184e+06 3.955938667504e+07  1.632193774890e+00
2.400000000000e-01 8.352577166387e-314 1.000000000000e+05 1.000000000000e+05 1.000000000000e+00 0.000000000000e+00 1.766122877770e-07 3.551408571730e-04 3.446359331209e-11 3.260638631427e-12 -2.186804628862e+06 3.966564186954e+07  1.632380127065e+00
2.500000000000e-01 8.352577166387e-314 1.000000000000e+05 1.000000000000e+05 1.000000000000e+00 0.000000000000e+00 1.454344925961e-07 3.536573143538e-04 3.473812014993e-11 4.202246533005e-12 -2.014208192035e+06 3.977933367004e+07  1.632729877145e+00
2.600000000000e-01 8.352577166387e-314 1.000000000000e+05 1.000000000000e+05 1.000000000000e+00 0.000000000000e+00 1.169332773350e-07 3.521870614579e-04 3.494282244621e-11 5.183059270716e-12 -1.864297928166e+06 3.985662793957e+07  1.633012126808e+00
2.700000000000e-01 8.352577166387e-314 1.000000000000e+05 1.000000000000e+05 1.000000000000e+00 0.000000000000e+00 9.147185891439e-08 3.507272263782e-04 3.509617702293e-11 6.191349846362e-12 -1.725139590393e+06 3.993564814168e+07  1.633130761875e+00
2.800000000000e-01 8.352577166387e-314 1.000000000000e+05 1.000000000000e+05 1.000000000000e+00 0.000000000000e+00 6.850648475630e-08 3.492525166346e-04 3.518939780440e-11 7.149578654010e-12 -1.595287644731e+06 4.001100925340e+07  1.633221485287e+00
2.900000000000e-01 8.352577166387e-314 1.000000000000e+05 1.000000000000e+05 1.000000000000e+00 0.000000000000e+00 4.672921293981e-08 3.477874394554e-04 3.517804701311e-11 8.143554462435e-12 -1.474070346253e+06 4.008179201922e+07  1.633324938204e+00
3.000000000000e-01 8.352577166387e-314 1.000000000000e+05 1.000000000000e+05 1.000000000000e+00 0.000000000000e+00 2.656528418168e-08 3.463349277999e-04 3.509276529536e-11 9.164710110546e-12 -1.360488500537e+06 4.015521203781e+07  1.633436228843e+00
3.100000000000e-01 8.352577166387e-314 1.000000000000e+05 1.000000000000e+05 1.000000000000e+00 0.000000000000e+00 8.491462752860e-09 3.448946453631e-04 3.495589079673e-11 1.019138292896e-11 -1.262455803815e+06 4.022579070055e+07  1.633626087649e+00
3.200000000000e-01 8.352577166387e-314 1.000000000000e+05 1.000000000000e+05 1.000000000000e+00 0.000000000000e+00 -7.733191298681e-09 3.434706714427e-04 3.478732590664e-11 1.121725704090e-11 -1.176230999611e+06 4.029332879665e+07  1.633887223076e+00
3.300000000000e-01 8.352577166387e-314 1.000000000000e+05 1.000000000000e+05 1.000000000000e+00 0.000000000000e+00 -2.239386973325e-08 3.420603912862e-04 3.454045065905e-11 1.226109556315e-11 -1.105657267132e+06 4.034767868496e+07  1.634248313777e+00
3.400000000000e-01 8.352577166387e-314 1.000000000000e+05 1.000000000000e+05 1.000000000000e+00 0.000000000000e+00 -3.653154856108e-08 3.406582703686e-04 3.418967852635e-11 1.333303121960e-11 -1.051496039919e+06 4.039669935455e+07  1.634674580308e+00
3.500000000000e-01 8.352577166387e-314 1.000000000000e+05 1.000000000000e+05 1.000000000000e+00 0.000000000000e+00 -4.906136206663e-08 3.392677397184e-04 3.379154867362e-11 1.440157996131e-11 -1.011888241382e+06 4.044451103629e+07  1.635249463218e+00
3.600000000000e-01 8.352577166387e-314 1.000000000000e+05 1.000000000000e+05 1.000000000000e+00 0.000000000000e+00 -6.012457225477e-08 3.378879706723e-04 3.334989755253e-11 1.545912148112e-11 -9.928643999134e+05 4.047698396358e+07  1.635993526164e+00
3.700000000000e-01 8.352577166387e-314 1.000000000000e+05 1.000000000000e+05 1.000000000000e+00 0.000000000000e+00 -6.984031488540e-08 3.365221888400e-04 3.285434961485e-11 1.652528233217e-11 -9.968316913049e+05 4.049998362411e+07  1.636857226415e+00
3.800000000000e-01 8.352577166387e-314 1.000000000000e+05 1.000000000000e+05 1.000000000000e+00 0.000000000000e+00 -7.881127903681e-08 3.351663279890e-04 3.228074418744e-11 1.760519195888e-11 -1.001345300736e+06 4.052287735443e+07  1.637848722151e+00
3.900000000000e-01 8.352577166387e-314 1.000000000000e+05 1.000000000000e+05 1.000000000000e+00 0.000000000000e+00 -8.721367245708e-08 3.338193244077e-04 3.162786386601e-11 1.869456941504e-11 -1.004827710252e+06 4.054618122585e+07  1.638789826849e+00
4.000000000000e-01 8.352577166387e-314 1.000000000000e+05 1.000000000000e+05 1.000000000000e+00 0.000000000000e+00 -9.449677918337e-08 3.324810857924e-04 3.094428937270e-11 1.975514699324e-11 -1.003935947961e+06 4.056780431010e+07  1.639688837787e+00
4.100000000000e-01 8.352577166387e-314 1.000000000000e+05 1.000000000000e+05 1.000000000000e+00 0.000000000000e+00 -1.007510832004e-07 3.311560984429e-04 3.020924603574e-11 2.081702084198e-11 -9.987272595132e+05 4.058942572414e+07  1.640615224627e+00
4.200000000000e-01 8.352577166387e-314 1.000000000000e+05 1.000000000000e+05 1.000000000000e+00 0.000000000000e+00 -1.060373811273e-07 3.298440547629e-04 2.943717354001e-11 2.187982139748e-11 -9.937468433555e+05 4.061336441312e+07  1.641479390681e+00
4.300000000000e-01 8.352577166387e-314 1.000000000000e+05 1.000000000000e+05 1.000000000000e+00 0.000000000000e+00 -1.104767869774e-07 3.285391882026e-04 2.862528412940e-11 2.295221542182e-11 -9.834606291768e+05 4.063516381223e+07  1.642335428039e+00
4.400000000000e-01 8.352577166387e-314 1.000000000000e+05 1.000000000000e+05 1.000000000000e+00 0.000000000000e+00 -1.146643081860e-07 3.272404816458e-04 2.771926935841e-11 2.401427104817e-11 -9.701215409800e+05 4.065710532762e+07  1.643186114520e+00
4.500000000000e-01 8.352577166387e-314 1.000000000000e+05 1.000000000000e+05 1.000000000000e+00 0.000000000000e+00 -1.180896763543e-07 3.259518582397e-04 2.677320506611e-11 2.505324786894e-11 -9.539714191731e+05 4.067930431182e+07  1.644008041937e+00
4.600000000000e-01 8.352577166387e-314 1.000000000000e+05 1.000000000000e+05 1.000000000000e+00 0.000000000000e+00 -1.208547387548e-07 3.246763108869e-04 2.579956705191e-11 2.608851840644e-11 -9.343424570804e+05 4.070175018671e+07  1.644817449341e+00
4.700000000000e-01 8.352577166387e-314 1.000000000000e+05 1.000000000000e+05 1.000000000000e+00 0.000000000000e+00 -1.229559125598e-07 3.234157878017e-04 2.479116666936e-11 2.711981092116e-11 -9.173125799874e+05 4.073064611543e+07  1.645579435404e+00
4.800000000000e-01 8.352577166387e-314 1.000000000000e+05 1.000000000000e+05 1.000000000000e+00 0.000000000000e+00 -1.244635945937e-07 3.221516766889e-04 2.373766116890e-11 2.808475918660e-11 -8.957497974422e+05 4.075663674352e+07  1.646354046288e+00
4.900000000000e-01 8.352577166387e-314 1.000000000000e+05 1.000000000000e+05 1.000000000000e+00 0.000000000000e+00 -1.260913894778e-07 3.208868049775e-04 2.290726766794e-11 2.895655057174e-11 -8.696213353899e+05 4.078371688963e+07  1.647112226448e+00
5.000000000000e-01 8.352577166387e-314 1.000000000000e+05 1.000000000000e+05 1.000000000000e+00 0.000000000000e+00 -1.272398047153e-07 3.196316929244e-04 2.299166121137e-11 2.967709166476e-11 -8.403575208916e+05 4.081439304844e+07  1.647835204675e+00
5.100000000000e-01 8.352577166387e-314 1.000000000000e+05 1.000000000000e+05 1.000000000000e+00 0.000000000000e+00 -1.279183629645e-07 3.183887844281e-04 2.308785923117e-11 3.039073096470e-11 -8.105164812918e+05 4.084973800194e+07  1.648546652248e+00
5.200000000000e-01 8.352577166387e-314 1.000000000000e+05 1.000000000000e+05 1.000000000000e+00 0.000000000000e+00 -1.281734685309e-07 3.171578818832e-04 2.318875363955e-11 3.109547259490e-11 -7.793506302183e+05 4.088682362575e+07  1.649239314509e+00
5.300000000000e-01 8.352577166387e-314 1.000000000000e+05 1.000000000000e+05 1.000000000000e+00 0.000000000000e+00 -1.280421406233e-07 3.159388014930e-04 2.327469936583e-11 3.179307840409e-11 -7.430968224540e+05 4.092508001346e+07  1.649880536613e+00
5.400000000000e-01 8.352577166387e-314 1.000000000000e+05 1.000000000000e+05 1.000000000000e+00 0.000000000000e+00 -1.275962929131e-07 3.147305405541e-04 2.335864536678e-11 3.248127091500e-11 -7.052884630031e+05 4.096655096414e+07  1.650521320980e+00
5.500000000000e-01 8.352577166387e-314 1.000000000000e+05 1.000000000000e+05 1.000000000000e+00 0.000000000000e+00 -1.272713751555e-07 3.135251459238e-04 2.341378110628e-11 3.314023147971e-11 -6.653904350585e+05 4.100934952413e+07  1.651118927875e+00
5.600000000000e-01 8.352577166387e-314 1.000000000000e+05 1.000000000000e+05 1.000000000000e+00 0.000000000000e+00 -1.264252067935e-07 3.123278262082e-04 2.349921296344e-11 3.378720080004e-11 -6.245401748533e+05 4.105499981163e+07  1.651714215050e+00
5.700000000000e-01 8.352577166387e-314 1.000000000000e+05 1.000000000000e+05 1.000000000000e+00 0.000000000000e+00 -1.253111579682e-07 3.111416912858e-04 2.362420816990e-11 3.445583627742e-11 -5.829264831919e+05 4.110475066748e+07  1.652306087119e+00
5.800000000000e-01 8.352577166387e-314 1.000000000000e+05 1.000000000000e+05 1.000000000000e+00 0.000000000000e+00 -1.239640825831e-07 3.099665838639e-04 2.372909087230e-11 3.514245575092e-11 -5.400770405245e+05 4.115630482644e+07  1.652878546626e+00
5.900000000000e-01 8.352577166387e-314 1.000000000000e+05 1.000000000000e+05 1.000000000000e+00 0.000000000000e+00 -1.224054905671e-07 3.088023459480e-04 2.381905634241e-11 3.581398922122e-11 -4.969561371576e+05 4.120966510970e+07  1.653433152656e+00
6.000000000000e-01 8.352577166387e-314 1.000000000000e+05 1.000000000000e+05 1.000000000000e+00 0.000000000000e+00 -1.206671157649e-07 3.076488146133e-04 2.392297940020e-11 3.647297763996e-11 -4.522689303236e+05 4.126672300369e+07  1.653981306516e+00
6.100000000000e-01 8.352577166387e-314 1.000000000000e+05 1.000000000000e+05 1.000000000000e+00 0.000000000000e+00 -1.190384634319e-07 3.064990123688e-04 2.400512732222e-11 3.710037588637e-11 -4.119733935496e+05 4.132592844159e+07  1.654527157592e+00
6.200000000000e-01 8.352577166387e-314 1.000000000000e+05 1.000000000000e+05 1.000000000000e+00 0.000000000000e+00 -1.173331778380e-07 3.053578446925e-04 2.407726659131e-11 3.828618494055e-11 -3.681978183626e+05 4.138672979953e+07  1.655049070863e+00
6.300000000000e-01 8.352577166387e-314 1.000000000000e+05 1.000000000000e+05 1.000000000000e+00 0.000000000000e+00 -1.154793846647e-07 3.042270286040e-04 2.412866448609e-11 3.972784859617e-11 -3.227488765673e+05 4.144814574777e+07  1.655546675370e+00
6.400000000000e-01 8.352577166387e-314 1.000000000000e+05 1.000000000000e+05 1.000000000000e+00 0.000000000000e+00 -1.135000692795e-07 3.031077105649e-04 2.420983759417e-11 4.116978686622e-11 -2.803875444422e+05 4.151191350792e+07  1.656046913005e+00
6.500000000000e-01 8.352577166387e-314 1.000000000000e+05 1.000000000000e+05 1.000000000000e+00 0.000000000000e+00 -1.114101362096e-07 3.019984208755e-04 2.429107769688e-11 4.261316639403e-11 -2.385311339577e+05 4.157703124869e+07  1.656534437361e+00
6.600000000000e-01 8.352577166387e-314 1.000000000000e+05 1.000000000000e+05 1.000000000000e+00 0.000000000000e+00 -1.092304955099e-07 3.008990153163e-04 2.438506563882e-11 4.405559277978e-11 -1.958460777695e+05 4.164050815827e+07  1.656990951149e+00
6.700000000000e-01 8.352577166387e-314 1.000000000000e+05 1.000000000000e+05 1.000000000000e+00 0.000000000000e+00 -1.069302827021e-07 2.998087381094e-04 2.447736734881e-11 4.549802736364e-11 -1.532873292545e+05 4.170594879138e+07  1.657444566834e+00
6.800000000000e-01 8.352577166387e-314 1.000000000000e+05 1.000000000000e+05 1.000000000000e+00 0.000000000000e+00 -1.046994021188e-07 2.987182728347e-04 2.457393465150e-11 4.692807729216e-11 -1.111057328970e+05 4.176710487620e+07  1.657856956465e+00
6.900000000000e-01 8.352577166387e-314 1.000000000000e+05 1.000000000000e+05 1.000000000000e+00 0.000000000000e+00 -1.024141666855e-07 2.976369811653e-04 2.466522663081e-11 4.835316264424e-11 -6.997507934109e+04 4.182813587268e+07  1.658258729983e+00
7.000000000000e-01 8.352577166387e-314 1.000000000000e+05 1.000000000000e+05 1.000000000000e+00 0.000000000000e+00 -1.000827607426e-07 2.965650661766e-04 2.477260152184e-11 4.977646843720e-11 -2.866613627473e+04 4.188731268150e+07  1.658643181478e+00
7.100000000000e-01 8.352577166387e-314 1.000000000000e+05 1.000000000000e+05 1.000000000000e+00 0.000000000000e+00 -9.771456667626e-08 2.955024162450e-04 2.488345587803e-11 5.119599851830e-11 1.451527800127e+04 4.194514104935e+07  1.659007311337e+00
7.200000000000e-01 8.352577166387e-314 1.000000000000e+05 1.000000000000e+05 1.000000000000e+00 0.000000000000e+00 -9.531910639288e-08 2.944489139202e-04 2.499643247060e-11 5.261040722516e-11 5.599025098141e+04 4.200085048129e+07  1.659356092965e+00
7.300000000000e-01 8.352577166387e-314 1.000000000000e+05 1.000000000000e+05 1.000000000000e+00 0.000000000000e+00 -9.290528350329e-08 2.934044481059e-04 2.511193971703e-11 5.401889671323e-11 1.007603675717e+05 4.205878308811e+07  1.659702248172e+00
7.400000000000e-01 8.352577166387e-314 1.000000000000e+05 1.000000000000e+05 1.000000000000e+00 0.000000000000e+00 -9.048327220390e-08 2.923689053699e-04 2.523449283551e-11 5.542148983696e-11 1.437581986440e+05 4.211395118763e+07  1.660032005677e+00
7.500000000000e-01 8.352577166387e-314 1.000000000000e+05 1.000000000000e+05 1.000000000000e+00 0.000000000000e+00 -8.814767140861e-08 2.913388783956e-04 2.532836636499e-11 5.681444451110e-11 1.880040432301e+05 4.216869788287e+07  1.660349810145e+00
7.600000000000e-01 8.352577166387e-314 1.000000000000e+05 1.000000000000e+05 1.000000000000e+00 0.000000000000e+00 -8.588661198549e-08 2.903141875468e-04 2.541737984680e-11 5.819068534418e-11 2.311523188317e+05 4.222571379063e+07  1.660673083178e+00
7.700000000000e-01 8.352577166387e-314 1.000000000000e+05 1.000000000000e+05 1.000000000000e+00 0.000000000000e+00 -8.362131141051e-08 2.892981034942e-04 2.551125448921e-11 5.956009445330e-11 2.769446077385e+05 4.227985786020e+07  1.660973288493e+00
7.800000000000e-01 8.352577166387e-314 1.000000000000e+05 1.000000000000e+05 1.000000000000e+00 0.000000000000e+00 -8.135713873157e-08 2.882905273459e-04 2.560357576614e-11 6.092020411355e-11 3.227262164201e+05 4.233560445375e+07  1.661270818940e+00
7.900000000000e-01 8.352577166387e-314 1.000000000000e+05 1.000000000000e+05 1.000000000000e+00 0.000000000000e+00 -7.903943746481e-08 2.872893774895e-04 2.573572602873e-11 6.227331210609e-11 3.683805093648e+05 4.238974034250e+07  1.661559078059e+00
8.000000000000e-01 8.352577166387e-314 1.000000000000e+05 1.000000000000e+05 1.000000000000e+00 0.000000000000e+00 -7.670939136879e-08 2.862954253053e-04 2.563294877963e-11 6.360704799035e-11 4.145670631405e+05 4.244438146092e+07  1.661844313619e+00
8.100000000000e-01 8.352577166387e-314 1.000000000000e+05 1.000000000000e+05 1.000000000000e+00 0.000000000000e+00 -7.440805737297e-08 2.853096733007e-04 2.505992079945e-11 6.490983746544e-11 4.595887987941e+05 4.249595727115e+07  1.662115213061e+00
8.200000000000e-01 8.352577166387e-314 1.000000000000e+05 1.000000000000e+05 1.000000000000e+00 0.000000000000e+00 -7.213690877287e-08 2.843320260282e-04 2.447342288147e-11 6.620733610786e-11 5.070411234784e+05 4.254925196082e+07  1.662382911241e+00
8.300000000000e-01 8.352577166387e-314 1.000000000000e+05 1.000000000000e+05 1.000000000000e+00 0.000000000000e+00 -6.995570860695e-08 2.833601857044e-04 2.386752533004e-11 6.749896705561e-11 5.538980967918e+05 4.260310632834e+07  1.662648421487e+00
8.400000000000e-01 8.352577166387e-314 1.000000000000e+05 1.000000000000e+05 1.000000000000e+00 0.000000000000e+00 -6.784990530060e-08 2.823930133223e-04 2.321598670511e-11 6.877746446363e-11 6.002755126199e+05 4.265676241063e+07  1.662907778193e+00
8.500000000000e-01 8.352577166387e-314 1.000000000000e+05 1.000000000000e+05 1.000000000000e+00 0.000000000000e+00 -6.577440741294e-08 2.814328221593e-04 2.256572205701e-11 7.004306360399e-11 6.481966802119e+05 4.270944487956e+07  1.663157864542e+00
8.600000000000e-01 8.352577166387e-314 1.000000000000e+05 1.000000000000e+05 1.000000000000e+00 0.000000000000e+00 -6.372806724659e-08 2.804803718332e-04 2.189823755840e-11 7.129853412248e-11 6.957114715493e+05 4.276292053326e+07  1.663407168201e+00
8.700000000000e-01 8.352577166387e-314 1.000000000000e+05 1.000000000000e+05 1.000000000000e+00 0.000000000000e+00 -6.171220946310e-08 2.795355650768e-04 2.122248485063e-11 7.254695306749e-11 7.432943784880e+05 4.281638177616e+07  1.663651776744e+00
8.800000000000e-01 8.352577166387e-314 1.000000000000e+05 1.000000000000e+05 1.000000000000e+00 0.000000000000e+00 -5.973240533604e-08 2.785948860219e-04 2.054070764134e-11 7.375957484536e-11 7.926854588672e+05 4.286694786979e+07  1.663880054062e+00
8.900000000000e-01 8.352577166387e-314 1.000000000000e+05 1.000000000000e+05 1.000000000000e+00 0.000000000000e+00 -5.778705705731e-08 2.776523891661e-04 1.983931208936e-11 7.488719553504e-11 8.404689869953e+05 4.291713921546e+07  1.664109610575e+00
9.000000000000e-01 8.352577166387e-314 1.000000000000e+05 1.000000000000e+05 1.000000000000e+00 0.000000000000e+00 -5.587296995554e-08 2.767171248865e-04 1.913982613680e-11 7.600326812437e-11 8.887456497941e+05 4.296982763073e+07  1.664339490331e+00
9.100000000000e-01 8.352577166387e-314 1.000000000000e+05 1.000000000000e+05 1.000000000000e+00 0.000000000000e+00 -5.395905067313e-08 2.757869849515e-04 1.846084504593e-11 7.710961852950e-11 9.387340317379e+05 4.301969537466e+07  1.664554254448e+00
9.200000000000e-01 8.352577166387e-314 1.000000000000e+05 1.000000000000e+05 1.000000000000e+00 0.000000000000e+00 -5.213683617869e-08 2.748616898807e-04 1.775172785883e-11 7.820482445763e-11 9.869516423326e+05 4.306947644795e+07  1.664771101381e+00
9.300000000000e-01 8.352577166387e-314 1.000000000000e+05 1.000000000000e+05 1.000000000000e+00 0.000000000000e+00 -5.036602513535e-08 2.739429038851e-04 1.700332240240e-11 7.929024926957e-11 1.036592977428e+06 4.312179100783e+07  1.664988203762e+00
9.400000000000e-01 8.352577166387e-314 1.000000000000e+05 1.000000000000e+05 1.000000000000e+00 0.000000000000e+00 -4.863718136039e-08 2.730303522783e-04 1.625691354077e-11 8.035622040149e-11 1.084824327611e+06 4.316911431549e+07  1.665189119673e+00
9.500000000000e-01 8.352577166387e-314 1.000000000000e+05 1.000000000000e+05 1.000000000000e+00 0.000000000000e+00 -4.694438482723e-08 2.721248416369e-04 1.548512415876e-11 8.140761497399e-11 1.135289634482e+06 4.322021655999e+07  1.665395338203e+00
9.600000000000e-01 8.352577166387e-314 1.000000000000e+05 1.000000000000e+05 1.000000000000e+00 0.000000000000e+00 -4.529502952523e-08 2.712265099874e-04 1.472962645472e-11 8.244752239420e-11 1.185445832804e+06 4.326984289876e+07  1.665593584416e+00
9.700000000000e-01 8.352577166387e-314 1.000000000000e+05 1.000000000000e+05 1.000000000000e+00 0.000000000000e+00 -4.368018626832e-08 2.703352806444e-04 1.395221429985e-11 8.347554811294e-11 1.235174981525e+06 4.331848138293e+07  1.665791213265e+00
9.800000000000e-01 8.352577166387e-314 1.000000000000e+05 1.000000000000e+05 1.000000000000e+00 0.000000000000e+00 -4.210549620971e-08 2.694510712630e-04 1.317506077985e-11 8.449175311932e-11 1.285810051850e+06 4.336773610337e+07  1.665982226931e+00
9.900000000000e-01 8.352577166387e-314 1.000000000000e+05 1.000000000000e+05 1.000000000000e+00 0.000000000000e+00 -4.056588997714e-08 2.685738058357e-04 1.236834947634e-11 8.549506415062e-11 1.335312913082e+06 4.341584883229e+07  1.666172898254e+00
1.000000000000e+00 8.352577166387e-314 1.000000000000e+05 1.000000000000e+05 1.000000000000e+00 0.000000000000e+00 -3.907039775109e-08 2.677034082691e-04 1.157505397110e-11 8.648532648074e-11 1.386992107568e+06 4.346382925856e+07  1.666354061381e+00
1.050000000000e+00 8.352577166387e-314 1.000000000000e+05 1.000000000000e+05 1.000000000000e+00 0.000000000000e+00 -3.271643942111e-08 2.634950045351e-04 7.583966105288e-12 9.143722605457e-11 1.587389016536e+06 4.363693919906e+07  1.667209093389e+00
1.100000000000e+00 8.352577166387e-314 1.000000000000e+05 1.000000000000e+05 1.000000000000e+00 0.000000000000e+00 -2.707310345088e-08 2.594253644482e-04 3.403727602928e-12 9.599940352040e-11 1.808073237538e+06 4.387798494328e+07  1.668072717654e+00
1.150000000000e+00 8.352577166387e-314 1.000000000000e+05 1.000000000000e+05 1.000000000000e+00 0.000000000000e+00 -2.209449937661e-08 2.554813513650e-04 -9.972689080093e-13 1.016973342531e-10 2.041181465055e+06 4.408509060487e+07  1.668856710040e+00
1.200000000000e+00 8.352577166387e-314 1.000000000000e+05 1.000000000000e+05 1.000000000000e+00 0.000000000000e+00 -1.767293083676e-08 2.516605259702e-04 -5.553953012643e-12 1.090981670111e-10 2.278128433456e+06 4.429227283774e+07  1.669596328651e+00
1.250000000000e+00 8.352577166387e-314 1.000000000000e+05 1.000000000000e+05 1.000000000000e+00 0.000000000000e+00 -1.367085085517e-08 2.479661093772e-04 -1.043675437126e-11 1.162312767737e-10 2.551718611650e+06 4.448545035895e+07  1.670239318828e+00
1.300000000000e+00 8.352577166387e-314 1.000000000000e+05 1.000000000000e+05 1.000000000000e+00 0.000000000000e+00 -1.008422969952e-08 2.443800900594e-04 -1.072886310773e-11 1.234457770650e-10 2.808863858316e+06 4.467085036720e+07  1.670817362659e+00
1.350000000000e+00 8.352577166387e-314 1.000000000000e+05 1.000000000000e+05 1.000000000000e+00 0.000000000000e+00 -6.817037007925e-09 2.409105968707e-04 -1.056059718004e-11 1.305313408946e-10 3.068286487019e+06 4.485274359913e+07  1.671358639419e+00
1.400000000000e+00 8.352577166387e-314 1.000000000000e+05 1.000000000000e+05 1.000000000000e+00 0.000000000000e+00 -3.757598130746e-09 2.375454560006e-04 -1.030856661722e-11 1.374297572719e-10 3.327286425805e+06 4.503142554280e+07  1.671866214485e+00