 TITLE = "Time curves in points"
 VARIABLES = "TIME "  "PRESSURE1"  "PRESSURE2"  "PRESSURE_W"  "SATURATION1" SATURATION2  "VELOCITY_X1"  "VELOCITY_Y1"  "VELOCITY_X2"  "VELOCITY_Y2"  p_(1st_Invariant)  q_(2nd_Invariant)   Effective_Strain
 ZONE T="POINT=POINT5"
0.000000000000e+00 8.400000000000e+07 1.000000000000e+05 -8.390000000000e+07 6.601393844892e-01 3.398606155108e-01 0.000000000000e+00 0.000000000000e+00 0.000000000000e+00 0.000000000000e+00 1.000000000000e+05 0.000000000000e+00  0.000000000000e+00
1.000000000000e-03 8.398925712626e+07 9.999997496405e+04 -8.388925715130e+07 6.601661737227e-01 3.398338262773e-01 7.276329924984e-09 -3.333900970534e-08 -5.150332556543e-15 2.150531631792e-15 1.165811808486e+05 4.909852190835e+03  4.692834867313e-04
2.000000000000e-03 8.398926450631e+07 9.999995290876e+04 -8.388926455340e+07 6.601661937129e-01 3.398338062871e-01 7.105617424063e-09 -3.322924847817e-08 -1.024927346433e-14 6.173096935691e-15 2.210387399646e+05 5.008982232841e+04  2.828923091768e-02
3.000000000000e-03 8.398927351811e+07 9.999992942481e+04 -8.388927358869e+07 6.601662086116e-01 3.398337913884e-01 6.936777765834e-09 -3.311741713089e-08 -1.529070422966e-14 1.025936367105e-14 6.008103006632e+05 2.220676161994e+05  3.843700663523e-02
4.000000000000e-03 8.398928413995e+07 9.999990417821e+04 -8.388928423577e+07 6.601662184860e-01 3.398337815140e-01 6.769797052238e-09 -3.300354221164e-08 -2.027182446807e-14 1.440658265068e-14 1.359982554472e+06 5.765673755386e+05  4.241609906394e-02
5.000000000000e-03 8.398929635027e+07 9.999987752202e+04 -8.388929647275e+07 6.601662234022e-01 3.398337765978e-01 6.604661383800e-09 -3.288765045163e-08 -2.519174846042e-14 1.860197192025e-14 1.538495935518e+06 6.591608169284e+05  4.302830933537e-02
6.000000000000e-03 8.398931012772e+07 9.999984923994e+04 -8.388931027848e+07 6.601662234261e-01 3.398337765739e-01 6.441356316698e-09 -3.276976761585e-08 -3.006558105241e-14 2.285342901010e-14 1.707460705448e+06 7.360029647490e+05  4.352236539641e-02
7.000000000000e-03 8.398932545112e+07 9.999981960195e+04 -8.388932563152e+07 6.601662186229e-01 3.398337813771e-01 6.279868193954e-09 -3.264991992803e-08 -3.488190547702e-14 2.714868521834e-14 1.743411182726e+06 7.499853654121e+05  4.360231634395e-02
8.000000000000e-03 8.398934229913e+07 9.999978858748e+04 -8.388934251054e+07 6.601662090584e-01 3.398337909416e-01 6.120182267781e-09 -3.252813295062e-08 -3.964850142197e-14 3.150032012468e-14 1.753980160143e+06 7.535740707680e+05  4.362334434978e-02
9.000000000000e-03 8.398936065055e+07 9.999975610178e+04 -8.388936089445e+07 6.601661947979e-01 3.398338052021e-01 5.962285452368e-09 -3.240443234200e-08 -4.435997529188e-14 3.591146052825e-14 1.769383038795e+06 7.604857566440e+05  4.365978097479e-02
1.000000000000e-02 8.398938048471e+07 9.999972239137e+04 -8.388938076232e+07 6.601661759053e-01 3.398338240947e-01 5.806164347317e-09 -3.227884423469e-08 -4.901608681756e-14 4.035750290533e-14 1.784998234981e+06 7.673571897578e+05  4.369592109219e-02
2.000000000000e-02 8.398970795507e+07 9.999926314796e+04 -8.388970869192e+07 6.601655827067e-01 3.398344172933e-01 4.409736786837e-09 -3.085793211832e-08 -9.069793990002e-14 8.913789740624e-14 5.178602409772e+06 2.257543217449e+06  4.844834736737e-02
3.000000000000e-02 8.399014688725e+07 9.999870183416e+04 -8.389014818542e+07 6.601646396045e-01 3.398353603955e-01 3.166080359075e-09 -2.929408581496e-08 -1.278075482584e-13 1.415959098445e-13 2.916214553864e+06 1.263018077018e+06  4.427035922730e-02
4.000000000000e-02 8.399068110686e+07 9.999805460139e+04 -8.389068305226e+07 6.601633963217e-01 3.398366036783e-01 2.063897479129e-09 -2.760783399408e-08 -1.607741078604e-13 1.971408600480e-13 3.271176732657e+06 1.287432751155e+06  4.430417803092e-02
5.000000000000e-02 8.399129566889e+07 9.999733632998e+04 -8.389129833256e+07 6.601618987917e-01 3.398381012083e-01 1.092551444026e-09 -2.581835069711e-08 -1.899091158996e-13 2.553303483615e-13 2.843067781609e+06 1.098967159799e+06  4.360333680716e-02
6.000000000000e-02 8.399197698769e+07 9.999655981023e+04 -8.389198042788e+07 6.601601887300e-01 3.398398112700e-01 2.420907136518e-10 -2.394330157969e-08 -2.154120262396e-13 3.155247810474e-13 4.486611543881e+06 1.796800863581e+06  4.566226581108e-02
7.000000000000e-02 8.399271253184e+07 9.999573926115e+04 -8.389271679258e+07 6.601582848871e-01 3.398417151129e-01 -4.969084052011e-10 -2.199915328085e-08 -2.376514748877e-13 3.772985573843e-13 4.067289475769e+06 1.635604726962e+06  4.520530124609e-02
8.000000000000e-02 8.399349096738e+07 9.999488411754e+04 -8.389349608327e+07 6.601562303187e-01 3.398437696813e-01 -1.133238262115e-09 -2.000102437201e-08 -2.568136124285e-13 4.402369527451e-13 4.269810367459e+06 1.724021982288e+06  4.545100009554e-02
9.000000000000e-02 8.399430197145e+07 9.999400644048e+04 -8.389430796501e+07 6.601540695404e-01 3.398459304596e-01 -1.675142022355e-09 -1.796289915861e-08 -2.731817148502e-13 5.039075524157e-13 4.387900051811e+06 1.772688534102e+06  4.556855807541e-02
1.000000000000e-01 8.399513607739e+07 9.999311475145e+04 -8.389514296263e+07 6.601518315366e-01 3.398481684634e-01 -2.130382075765e-09 -1.589774688414e-08 -2.870172342772e-13 5.679799835419e-13 4.551822787966e+06 1.841940950214e+06  4.573746585305e-02
1.100000000000e-01 8.399598481144e+07 9.999221685342e+04 -8.389599259459e+07 6.601495422247e-01 3.398504577753e-01 -2.506198212128e-09 -1.381735363737e-08 -2.985236446173e-13 6.321695759171e-13 4.704892400116e+06 1.908458232877e+06  4.588888689170e-02
1.200000000000e-01 8.399684044078e+07 9.999132276969e+04 -8.389684911801e+07 6.601472252199e-01 3.398527747801e-01 -2.809388143674e-09 -1.173269989874e-08 -3.079214203961e-13 6.960690960976e-13 4.793623563670e+06 1.941644999266e+06  4.595659329630e-02
1.300000000000e-01 8.399769601956e+07 9.999043751118e+04 -8.389770558205e+07 6.601449017095e-01 3.398550982905e-01 -3.046303306957e-09 -9.653826929408e-09 -3.153364111626e-13 7.594215605045e-13 5.030665400496e+06 2.044175915638e+06  4.620148182475e-02
1.400000000000e-01 8.399854533722e+07 9.998956782257e+04 -8.389855576940e+07 6.601425906356e-01 3.398574093644e-01 -3.222919601512e-09 -7.589826999738e-09 -3.210331516876e-13 8.219820675667e-13 5.251808841435e+06 2.133627361680e+06  4.639134127442e-02
1.500000000000e-01 8.399938276172e+07 9.998871768786e+04 -8.389939404403e+07 6.601403091448e-01 3.398596908552e-01 -3.344829554078e-09 -5.549149821570e-09 -3.251290223299e-13 8.835302554684e-13 5.399520582275e+06 2.195275431099e+06  4.652278670094e-02
1.600000000000e-01 8.400020336593e+07 9.998789371787e+04 -8.390021547221e+07 6.601380722109e-01 3.398619277891e-01 -3.417220683175e-09 -3.539374831581e-09 -3.277791924417e-13 9.438696025210e-13 5.577266427267e+06 2.268637710971e+06  4.664669651964e-02
1.700000000000e-01 8.400100280009e+07 9.998709921659e+04 -8.390101570088e+07 6.601358930413e-01 3.398641069587e-01 -3.444950955266e-09 -1.567336717309e-09 -3.291576403342e-13 1.002835368133e-12 5.697463065265e+06 2.321291696553e+06  4.675018617233e-02
1.800000000000e-01 8.400177715386e+07 9.998633916497e+04 -8.390179081470e+07 6.601337835060e-01 3.398662164940e-01 -3.432591871047e-09 3.606907712939e-10 -3.293614733846e-13 1.060147936574e-12 5.826516990279e+06 2.378645421056e+06  4.687015278657e-02
1.900000000000e-01 8.400252309882e+07 9.998561430507e+04 -8.390253748451e+07 6.601317536770e-01 3.398682463230e-01 -3.384361160265e-09 2.239165856417e-09 -3.285148777988e-13 1.115777464156e-12 5.974748376641e+06 2.447462257849e+06  4.699879870253e-02
2.000000000000e-01 8.400323775964e+07 9.998492921656e+04 -8.390325283043e+07 6.601298122361e-01 3.398701877639e-01 -3.304184282298e-09 4.063120128051e-09 -3.267222723165e-13 1.169474503727e-12 6.122405542670e+06 2.503509446200e+06  4.709589229113e-02
2.100000000000e-01 8.400391862039e+07 9.998428591880e+04 -8.390393433447e+07 6.601279667811e-01 3.398720332189e-01 -3.195767020938e-09 5.828100850734e-09 -3.241584267303e-13 1.221180639841e-12 6.242483493678e+06 2.556413697371e+06  4.720236729030e-02
2.200000000000e-01 8.400456362268e+07 9.998368590934e+04 -8.390457993677e+07 6.601262235017e-01 3.398737764983e-01 -3.062509886569e-09 7.530245474122e-09 -3.208888144987e-13 1.270803367877e-12 6.388832847264e+06 2.614705402560e+06  4.730807049636e-02
2.300000000000e-01 8.400517104567e+07 9.998313077867e+04 -8.390518791489e+07 6.601245875569e-01 3.398754124431e-01 -2.907572905591e-09 9.166141794685e-09 -3.170051744459e-13 1.318235875687e-12 6.537493414511e+06 2.677013681978e+06  4.740910603473e-02
2.400000000000e-01 8.400573944987e+07 9.998262072269e+04 -8.390575682915e+07 6.601230632455e-01 3.398769367545e-01 -2.733906257969e-09 1.073275711616e-08 -3.125889750221e-13 1.363448999229e-12 6.666052797730e+06 2.731891423443e+06  4.750158096153e-02
2.500000000000e-01 8.400626774337e+07 9.998215743150e+04 -8.390628558594e+07 6.601216538173e-01 3.398783461827e-01 -2.544249142729e-09 1.222757621588e-08 -3.077463845674e-13 1.406346477395e-12 6.801832332105e+06 2.786706502543e+06  4.759207624835e-02
2.600000000000e-01 8.400675512466e+07 9.998174189530e+04 -8.390677338277e+07 6.601203616286e-01 3.398796383714e-01 -2.341113940232e-09 1.364846686916e-08 -3.025341806575e-13 1.446810481089e-12 6.943771379207e+06 2.844321331556e+06  4.768055613997e-02
2.700000000000e-01 8.400720103620e+07 9.998137369368e+04 -8.390721966251e+07 6.601191882966e-01 3.398808117034e-01 -2.126826751200e-09 1.499366014882e-08 -2.970125221691e-13 1.484890921702e-12 7.084533992038e+06 2.901965191320e+06  4.776452349596e-02
2.800000000000e-01 8.400760510317e+07 9.998105255593e+04 -8.390762405061e+07 6.601181348908e-01 3.398818651092e-01 -1.903562494800e-09 1.626166918428e-08 -2.912495630857e-13 1.520562709921e-12 7.225649087322e+06 2.961737800104e+06  4.784757335547e-02
2.900000000000e-01 8.400796724467e+07 9.998077941858e+04 -8.390798646525e+07 6.601172015907e-01 3.398827984093e-01 -1.673302028451e-09 1.745145202619e-08 -2.853309882573e-13 1.553732103619e-12 7.372298066182e+06 3.023661412900e+06  4.792643998519e-02
3.000000000000e-01 8.400828755830e+07 9.998055288408e+04 -8.390830700542e+07 6.601163880328e-01 3.398836119672e-01 -1.437863062842e-09 1.856223554325e-08 -2.792742103287e-13 1.584429656129e-12 7.510510861645e+06 3.082270178253e+06  4.799975563581e-02
3.100000000000e-01 8.400856628105e+07 9.998037273129e+04 -8.390858590832e+07 6.601156934344e-01 3.398843065656e-01 -1.198922934977e-09 1.959346589142e-08 -2.731289814524e-13 1.612652907267e-12 7.647819911088e+06 3.140473551667e+06  4.807122337413e-02
3.200000000000e-01 8.400880381667e+07 9.998023857718e+04 -8.390882357809e+07 6.601151165140e-01 3.398848834860e-01 -9.580267661574e-10 2.054486869064e-08 -2.669873052462e-13 1.638392921150e-12 7.781728481495e+06 3.197271612261e+06  4.813973103688e-02
3.300000000000e-01 8.400900074553e+07 9.998014907648e+04 -8.390902059645e+07 6.601146554588e-01 3.398853445412e-01 -7.165712685360e-10 2.141645998532e-08 -2.608453585951e-13 1.661673703606e-12 7.907351506065e+06 3.250520855064e+06  4.820291405181e-02
3.400000000000e-01 8.400915778783e+07 9.998010331687e+04 -8.390917768451e+07 6.601143080418e-01 3.398856919582e-01 -4.758374597430e-10 2.220850836284e-08 -2.547347772877e-13 1.682501380278e-12 8.032868437979e+06 3.303743767138e+06  4.826506369322e-02
3.500000000000e-01 8.400927573005e+07 9.998010060734e+04 -8.390929562944e+07 6.601140718353e-01 3.398859281647e-01 -2.369909828041e-10 2.292139301052e-08 -2.487207136357e-13 1.700892485747e-12 8.155030319474e+06 3.355537310671e+06  4.832462464413e-02
3.600000000000e-01 8.400935546009e+07 9.998013887237e+04 -8.390937532122e+07 6.601139441102e-01 3.398860558898e-01 -1.093606121114e-12 2.355568329904e-08 -2.428214778484e-13 1.716914980282e-12 8.270781082765e+06 3.404577879177e+06  4.838022823383e-02
3.700000000000e-01 8.400939798594e+07 9.998021707896e+04 -8.390941776886e+07 6.601139217784e-01 3.398860782216e-01 2.309107823598e-10 2.411215969405e-08 -2.370663078402e-13 1.730580352129e-12 8.382517550140e+06 3.451887911970e+06  4.843315017508e-02
3.800000000000e-01 8.400940441116e+07 9.998033427331e+04 -8.390942407689e+07 6.601140014754e-01 3.398859985246e-01 4.581688359747e-10 2.459180614983e-08 -2.314576885387e-13 1.741918707214e-12 8.495805583616e+06 3.499867780273e+06  4.848610548271e-02
3.900000000000e-01 8.400937590218e+07 9.998048902270e+04 -8.390939541316e+07 6.601141796536e-01 3.398858203464e-01 6.799115783438e-10 2.499574483279e-08 -2.260480284300e-13 1.750960593877e-12 8.608959238148e+06 3.547799754967e+06  4.853830377060e-02
4.000000000000e-01 8.400931363724e+07 9.998067935955e+04 -8.390933295788e+07 6.601144527346e-01 3.398855472654e-01 8.954428678171e-10 2.532515077455e-08 -2.208545832188e-13 1.757765385130e-12 8.722782365389e+06 3.595976767436e+06  4.859010750200e-02
4.100000000000e-01 8.400921888903e+07 9.998090431593e+04 -8.390923798471e+07 6.601148168584e-01 3.398851831416e-01 1.104165173462e-09 2.558137792096e-08 -2.158945480994e-13 1.762384760713e-12 8.834873657124e+06 3.643415474836e+06  4.864046396700e-02
4.200000000000e-01 8.400909297529e+07 9.998116149458e+04 -8.390911181379e+07 6.601152680375e-01 3.398847319625e-01 1.305555197187e-09 2.576589833799e-08 -2.111487571384e-13 1.764886415913e-12 8.947030964309e+06 3.690915037630e+06  4.869023242561e-02
4.300000000000e-01 8.400893728367e+07 9.998144993787e+04 -8.390895583373e+07 6.601158020876e-01 3.398841979124e-01 1.499151033059e-09 2.588035944143e-08 -2.066573744591e-13 1.765294077547e-12 9.059836184200e+06 3.738663371772e+06  4.873965324083e-02
4.400000000000e-01 8.400875319123e+07 9.998176788395e+04 -8.390877142334e+07 6.601164148638e-01 3.398835851362e-01 1.684543097030e-09 2.592644022544e-08 -2.024381305699e-13 1.763694097841e-12 9.170445878831e+06 3.785487002313e+06  4.878752037563e-02
4.500000000000e-01 8.400854207565e+07 9.998211352476e+04 -8.390855996213e+07 6.601171022203e-01 3.398828977797e-01 1.861386624120e-09 2.590584617000e-08 -1.984810238467e-13 1.760129139706e-12 9.280732308085e+06 3.832188421998e+06  4.883468418584e-02
4.600000000000e-01 8.400830535221e+07 9.998248516055e+04 -8.390832286705e+07 6.601178599047e-01 3.398821400953e-01 2.029401777209e-09 2.582038472809e-08 -1.948052972157e-13 1.754653773341e-12 9.392113683137e+06 3.879350118788e+06  4.888175210704e-02
4.700000000000e-01 8.400804445008e+07 9.998288187313e+04 -8.390806156821e+07 6.601186836317e-01 3.398813163683e-01 2.188357622509e-09 2.567193864346e-08 -1.914123213148e-13 1.747331390982e-12 9.503026853026e+06 3.926313256353e+06  4.892807202563e-02
4.800000000000e-01 8.400776079651e+07 9.998330143295e+04 -8.390777749507e+07 6.601195691286e-01 3.398804308714e-01 2.338071792081e-09 2.546243057201e-08 -1.882876230802e-13 1.738203391544e-12 9.612640490678e+06 3.972739954211e+06  4.897332843919e-02
4.900000000000e-01 8.400745583505e+07 9.998374157527e+04 -8.390747209347e+07 6.601205120906e-01 3.398794879094e-01 2.478393532366e-09 2.519388894134e-08 -1.854485940155e-13 1.727424426835e-12 9.723043807086e+06 4.019501386743e+06  4.901839449435e-02
5.000000000000e-01 8.400713096726e+07 9.998420196990e+04 -8.390714676529e+07 6.601215083390e-01 3.398784916610e-01 2.609211769295e-09 2.486829364177e-08 -1.829311656758e-13 1.714960520535e-12 9.832105804214e+06 4.065706691559e+06  4.906241943238e-02
5.100000000000e-01 8.400678760806e+07 9.998467976352e+04 -8.390680292830e+07 6.601225536605e-01 3.398774463395e-01 2.730466874349e-09 2.448769175676e-08 -1.807045544788e-13 1.700937008698e-12 9.940793643039e+06 4.111765144257e+06  4.910581624404e-02
5.200000000000e-01 8.400642716293e+07 9.998517400881e+04 -8.390644198892e+07 6.601236438758e-01 3.398763561242e-01 2.842135496208e-09 2.405415479646e-08 -1.787752528585e-13 1.685405138481e-12 1.005016426139e+07 4.158121337622e+06  4.914901475260e-02
5.300000000000e-01 8.400605101920e+07 9.998568304892e+04 -8.390606533615e+07 6.601247748688e-01 3.398752251312e-01 2.944221460422e-09 2.356977659702e-08 -1.771370283376e-13 1.668446022427e-12 1.015886675201e+07 4.204200110961e+06  4.919148987499e-02
5.400000000000e-01 8.400566055078e+07 9.998620483549e+04 -8.390567434595e+07 6.601259425729e-01 3.398740574271e-01 3.036757198039e-09 2.303667993079e-08 -1.757775038184e-13 1.650121670927e-12 1.026741915338e+07 4.250234437811e+06  4.923346461412e-02
5.500000000000e-01 8.400525711289e+07 9.998673867477e+04 -8.390527037421e+07 6.601271429928e-01 3.398728570072e-01 3.119786658224e-09 2.245702562961e-08 -1.747340568068e-13 1.630482994584e-12 1.037399990766e+07 4.295440945833e+06  4.927425145179e-02
5.600000000000e-01 8.400484205600e+07 9.998728274105e+04 -8.390485477326e+07 6.601283721472e-01 3.398716278528e-01 3.193395770409e-09 2.183299434365e-08 -1.739664068387e-13 1.609622251095e-12 1.048101322599e+07 4.340837671936e+06  4.931478928308e-02
5.700000000000e-01 8.400441667929e+07 9.998783490964e+04 -8.390442884438e+07 6.601296262131e-01 3.398703737869e-01 3.257693938320e-09 2.116671556124e-08 -1.734658517151e-13 1.587601790308e-12 1.058813360057e+07 4.386277963466e+06  4.935495600607e-02
5.800000000000e-01 8.400398225448e+07 9.998839431471e+04 -8.390399386017e+07 6.601309014564e-01 3.398690985436e-01 3.312807929494e-09 2.046031783508e-08 -1.732484553657e-13 1.564495623668e-12 1.069399592238e+07 4.431194912302e+06  4.939425900885e-02
5.900000000000e-01 8.400354002851e+07 9.998895906784e+04 -8.390355106944e+07 6.601321942228e-01 3.398678057772e-01 3.358889402008e-09 1.971592574065e-08 -1.732904500212e-13 1.540355698956e-12 1.079911187362e+07 4.475798697241e+06  4.943290481115e-02
6.000000000000e-01 8.400309122089e+07 9.998952820192e+04 -8.390310169269e+07 6.601335009444e-01 3.398664990556e-01 3.396102602615e-09 1.893565803604e-08 -1.735978446792e-13 1.515260141605e-12 1.090362220715e+07 4.520149191207e+06  4.947095968394e-02
6.100000000000e-01 8.400263702163e+07 9.999010072436e+04 -8.390264692091e+07 6.601348181588e-01 3.398651818412e-01 3.424613324074e-09 1.812165420055e-08 -1.742005061064e-13 1.489286804167e-12 1.100712425756e+07 4.564075253220e+06  4.950829208526e-02
6.200000000000e-01 8.400217857732e+07 9.999067506927e+04 -8.390218790225e+07 6.601361425320e-01 3.398638574680e-01 3.444608879196e-09 1.727599941783e-08 -1.750276375904e-13 1.462462312629e-12 1.110882144132e+07 4.607243007466e+06  4.954463704477e-02
6.300000000000e-01 8.400171700331e+07 9.999124954629e+04 -8.390172575377e+07 6.601374708278e-01 3.398625291722e-01 3.456291714325e-09 1.640076217403e-08 -1.760817410201e-13 1.434894021518e-12 1.121105302435e+07 4.650635166270e+06  4.958084003830e-02
6.400000000000e-01 8.400125338791e+07 9.999182399778e+04 -8.390126156391e+07 6.601387998981e-01 3.398612001019e-01 3.459873631310e-09 1.549800331682e-08 -1.773953244495e-13 1.406599940441e-12 1.131113762424e+07 4.693113960445e+06  4.961596464570e-02
6.500000000000e-01 8.400078877501e+07 9.999239575037e+04 -8.390079637926e+07 6.601401267318e-01 3.398598732682e-01 3.455577503610e-09 1.456974502556e-08 -1.789385002356e-13 1.377688669724e-12 1.140936190961e+07 4.734809616316e+06  4.965013865890e-02
6.600000000000e-01 8.400032417246e+07 9.999296432974e+04 -8.390033120813e+07 6.601414484304e-01 3.398585515696e-01 3.443632463433e-09 1.361798167299e-08 -1.807188506877e-13 1.348248747616e-12 1.150741938457e+07 4.776432535990e+06  4.968396361562e-02
6.700000000000e-01 8.399986055849e+07 9.999352846344e+04 -8.389986703003e+07 6.601427621881e-01 3.398572378119e-01 3.424282603800e-09 1.264468448365e-08 -1.826973323602e-13 1.318286942531e-12 1.160310157779e+07 4.817051578161e+06  4.971669479274e-02
6.800000000000e-01 8.399939890947e+07 9.999408812476e+04 -8.389940482135e+07 6.601440652175e-01 3.398559347825e-01 3.397765362558e-09 1.165188199354e-08 -1.848999068507e-13 1.287875603733e-12 1.169900153837e+07 4.857762200614e+06  4.974923189006e-02
6.900000000000e-01 8.399894012141e+07 9.999464151123e+04 -8.389894547990e+07 6.601453549671e-01 3.398546450329e-01 3.364327153098e-09 1.064147324391e-08 -1.872871862327e-13 1.257066935663e-12 1.179080311449e+07 4.896732623469e+06  4.978012993763e-02
7.000000000000e-01 8.399848505182e+07 9.999518752113e+04 -8.389848986430e+07 6.601466290052e-01 3.398533709948e-01 3.324217979999e-09 9.615322933967e-09 -1.898863702115e-13 1.225945572056e-12 1.188016154574e+07 4.934664247419e+06  4.980997576416e-02
7.100000000000e-01 8.399803452227e+07 9.999572533295e+04 -8.389803879694e+07 6.601478850118e-01 3.398521149882e-01 3.277693611695e-09 8.575262975944e-09 -1.926518935428e-13 1.194586571623e-12 1.196930212104e+07 4.972497439635e+06  4.983952513358e-02
7.200000000000e-01 8.399758931835e+07 9.999625456000e+04 -8.389759306379e+07 6.601491207784e-01 3.398508792216e-01 3.225010623609e-09 7.523087415052e-09 -1.955793632499e-13 1.162968738580e-12 1.205752251908e+07 5.009950818876e+06  4.986855835956e-02
7.300000000000e-01 8.399715019054e+07 9.999677429317e+04 -8.389715341624e+07 6.601503342046e-01 3.398496657954e-01 3.166428308730e-09 6.460559187950e-09 -1.986899322647e-13 1.131184889385e-12 1.214410089386e+07 5.046704985882e+06  4.989684549018e-02
7.400000000000e-01 8.399671785961e+07 9.999728319308e+04 -8.389672057641e+07 6.601515232799e-01 3.398484767201e-01 3.102209936430e-09 5.389409512899e-09 -2.019504988730e-13 1.099323238802e-12 1.222947154117e+07 5.082947605339e+06  4.992454250768e-02
7.500000000000e-01 8.399629301342e+07 9.999778097362e+04 -8.389629523245e+07 6.601526861005e-01 3.398473138995e-01 3.032613482891e-09 4.311347858797e-09 -2.053603759499e-13 1.067394667796e-12 1.231578512273e+07 5.119598989957e+06  4.995235387570e-02
7.600000000000e-01 8.399587629249e+07 9.999826677592e+04 -8.389587802572e+07 6.601538209037e-01 3.398461790963e-01 2.957898046557e-09 3.228017621014e-09 -2.088992592080e-13 1.035449843642e-12 1.239937183154e+07 5.155089486393e+06  4.997910110779e-02
7.700000000000e-01 8.399546830391e+07 9.999874026752e+04 -8.389546956364e+07 6.601549260262e-01 3.398450739738e-01 2.878321634789e-09 2.141019127652e-09 -2.125775918727e-13 1.003555300293e-12 1.248290491318e+07 5.190559658774e+06  5.000565328891e-02
7.800000000000e-01 8.399506961931e+07 9.999920022204e+04 -8.389507041908e+07 6.601559999148e-01 3.398440000852e-01 2.794140847675e-09 1.051914613275e-09 -2.163886947315e-13 9.717657942199e-13 1.256533637681e+07 5.225564210921e+06  5.003168355506e-02
7.900000000000e-01 8.399468079815e+07 9.999964670093e+04 -8.389468115145e+07 6.601570410562e-01 3.398429589438e-01 2.705612454211e-09 -3.773394655901e-11 -2.203107945978e-13 9.400816231173e-13 1.264759185346e+07 5.260496189564e+06  5.005749008003e-02
8.000000000000e-01 8.399430235391e+07 1.000000784795e+05 -8.389430227543e+07 6.601580480758e-01 3.398419519242e-01 2.612989339013e-09 -1.126425280876e-09 -2.243405025751e-13 9.086079451063e-13 1.272872118575e+07 5.294951662375e+06  5.008278094570e-02
8.100000000000e-01 8.399393475327e+07 1.000004961626e+05 -8.389393425710e+07 6.601590197390e-01 3.398409802610e-01 2.516520993443e-09 -2.212730439054e-09 -2.284684862046e-13 8.773289918379e-13 1.280969102435e+07 5.329341940268e+06  5.010786364802e-02
8.200000000000e-01 8.399357843088e+07 1.000008984538e+05 -8.389357753242e+07 6.601599549082e-01 3.398400450918e-01 2.416454281382e-09 -3.295258768561e-09 -2.326714507171e-13 8.463237205739e-13 1.288950986278e+07 5.363244725474e+06  5.013243631333e-02
8.300000000000e-01 8.399323380427e+07 1.000012846905e+05 -8.389323251958e+07 6.601608525002e-01 3.398391474998e-01 2.313029996520e-09 -4.372631605527e-09 -2.369995019633e-13 8.156436438899e-13 1.296749173793e+07 5.396366092164e+06  5.015629734279e-02
8.400000000000e-01 8.399290124964e+07 1.000016544541e+05 -8.389289959518e+07 6.601617115571e-01 3.398382884429e-01 2.206485566033e-09 -5.443526515354e-09 -2.413799605950e-13 7.853378790801e-13 1.304638672700e+07 5.429880470532e+06  5.018029472983e-02
8.500000000000e-01 8.399258110592e+07 1.000020078471e+05 -8.389257909808e+07 6.601625312299e-01 3.398374687701e-01 2.097058722084e-09 -6.506687541676e-09 -2.458328423408e-13 7.554066694092e-13 1.312406647069e+07 5.462879865480e+06  5.020378227304e-02
8.600000000000e-01 8.399227368645e+07 1.000023442776e+05 -8.389227134217e+07 6.601633107413e-01 3.398366892587e-01 1.984987343929e-09 -7.560904427343e-09 -2.503252044200e-13 7.258994669470e-13 1.320132091575e+07 5.495700245594e+06  5.022700506712e-02
8.700000000000e-01 8.399197927867e+07 1.000026636090e+05 -8.389197661506e+07 6.601640493951e-01 3.398359506049e-01 1.870504592229e-09 -8.604997444717e-09 -2.548947458651e-13 6.968462086251e-13 1.327852038696e+07 5.528499611076e+06  5.025007749269e-02
8.800000000000e-01 8.399169814026e+07 1.000029653663e+05 -8.389169517490e+07 6.601647465829e-01 3.398352534171e-01 1.753834168548e-09 -9.637830511781e-09 -2.595078701673e-13 6.682987631518e-13 1.335362982652e+07 5.560414725920e+06  5.027239875184e-02
8.900000000000e-01 8.399143049917e+07 1.000032498418e+05 -8.389142724933e+07 6.601654017870e-01 3.398345982130e-01 1.635196157180e-09 -1.065831127943e-08 -2.641479608879e-13 6.402591086081e-13 1.342810782862e+07 5.592058069664e+06  5.029440834610e-02
9.000000000000e-01 8.399117656081e+07 1.000035164184e+05 -8.389117304439e+07 6.601660145567e-01 3.398339854433e-01 1.514803318315e-09 -1.166537942659e-08 -2.688196751662e-13 6.127618237418e-13 1.350359337836e+07 5.624134231357e+06  5.031659377684e-02
9.100000000000e-01 8.399093652544e+07 1.000037652686e+05 -8.389093276017e+07 6.601665844588e-01 3.398334155412e-01 1.392865315419e-09 -1.265797345934e-08 -2.735186796706e-13 5.858401041524e-13 1.357698430760e+07 5.655323960618e+06  5.033804671633e-02
9.200000000000e-01 8.399071055295e+07 1.000039955592e+05 -8.389070655739e+07 6.601671111802e-01 3.398328888198e-01 1.269584595760e-09 -1.363509637662e-08 -2.782276334528e-13 5.595570682001e-13 1.364967195918e+07 5.686211681093e+06  5.035917989040e-02
9.300000000000e-01 8.399049876588e+07 1.000042079433e+05 -8.389049455794e+07 6.601675945169e-01 3.398324054831e-01 1.145157990557e-09 -1.459582154655e-08 -2.829650194814e-13 5.339114165363e-13 1.372297500670e+07 5.717365147882e+06  5.038038027084e-02
9.400000000000e-01 8.399030124809e+07 1.000044013293e+05 -8.389029684677e+07 6.601680343797e-01 3.398319656203e-01 1.019774372276e-09 -1.553928483680e-08 -2.877225774760e-13 5.089596850319e-13 1.379395265803e+07 5.747531225122e+06  5.040080121306e-02
9.500000000000e-01 8.399011807095e+07 1.000045762262e+05 -8.389011349473e+07 6.601684307143e-01 3.398315692857e-01 8.936237125305e-10 -1.646465131351e-08 -2.924441757357e-13 4.846911305505e-13 1.386616285016e+07 5.778223181899e+06  5.042147074331e-02
9.600000000000e-01 8.398994928675e+07 1.000047330718e+05 -8.388994455368e+07 6.601687835183e-01 3.398312164817e-01 7.669018651563e-10 -1.737113414301e-08 -2.971983467879e-13 4.611302879258e-13 1.393677031807e+07 5.808237287163e+06  5.044157913921e-02
9.700000000000e-01 8.398979492584e+07 1.000048709986e+05 -8.388979005485e+07 6.601690928556e-01 3.398309071444e-01 6.397871738396e-10 -1.825797291859e-08 -3.019116516898e-13 4.383332167608e-13 1.400678990656e+07 5.837998278813e+06  5.046141940763e-02
9.800000000000e-01 8.398965499838e+07 1.000049906439e+05 -8.388965000774e+07 6.601693588498e-01 3.398306411502e-01 5.124490500219e-10 -1.912444632217e-08 -3.066158847533e-13 4.162732724905e-13 1.407649630355e+07 5.867632064104e+06  5.048107493092e-02
9.900000000000e-01 8.398952949523e+07 1.000050921677e+05 -8.388952440306e+07 6.601695816789e-01 3.398304183211e-01 3.850517465975e-10 -1.996986976562e-08 -3.112927899630e-13 3.949919665593e-13 1.414596274303e+07 5.897160999901e+06  5.050056603348e-02
1.000000000000e+00 8.398941839001e+07 1.000051755012e+05 -8.388941321451e+07 6.601697615725e-01 3.398302384275e-01 2.577606544292e-10 -2.079359338914e-08 -3.159431216617e-13 3.744955247390e-13 1.421357229486e+07 5.925903702530e+06  5.051944577653e-02
1.050000000000e+00 8.398921067346e+07 1.000051516051e+05 -8.388920552186e+07 6.601696396725e-01 3.398303603275e-01 -3.592409452804e-10 -2.430729796372e-08 -3.380506620606e-13 2.935432739274e-13 1.449532838460e+07 6.045477559374e+06  5.061385548547e-02
1.100000000000e+00 8.398932930901e+07 1.000047168806e+05 -8.388932459213e+07 6.601685723423e-01 3.398314276577e-01 -9.427002989539e-10 -2.717668730942e-08 -3.584414593624e-13 2.350010533371e-13 1.480933468447e+07 6.171965990814e+06  5.070955213124e-02
1.150000000000e+00 8.398974729237e+07 1.000038988365e+05 -8.388974339353e+07 6.601666631749e-01 3.398333368251e-01 -1.481406480716e-09 -2.937895914417e-08 -3.769094636252e-13 1.995310378494e-13 1.515295457402e+07 6.311745738799e+06  5.079654517125e-02
1.200000000000e+00 8.399043328236e+07 1.000027434767e+05 -8.389043053889e+07 6.601640195096e-01 3.398359804904e-01 -1.966743125481e-09 -3.090664117091e-08 -3.930659663918e-13 1.867700825863e-13 1.546810529320e+07 6.441902527455e+06  5.087269689400e-02
1.250000000000e+00 8.399135255420e+07 1.000012907811e+05 -8.389135126342e+07 6.601607550066e-01 3.398392449934e-01 -2.392512933432e-09 -3.176645917681e-08 -4.067412976576e-13 1.963188264679e-13 1.574949656137e+07 6.565800532548e+06  5.094578372086e-02
1.300000000000e+00 8.399246933742e+07 9.999957890983e+04 -8.389246975851e+07 6.601569827812e-01 3.398430172188e-01 -2.754511111116e-09 -3.197528093071e-08 -4.179503954862e-13 2.277460356060e-13 1.602951475719e+07 6.684521844762e+06  5.101549105328e-02
1.350000000000e+00 8.399374671972e+07 9.999765602329e+04 -8.389374906370e+07 6.601528135354e-01 3.398471864646e-01 -3.050351748435e-09 -3.156048513288e-08 -4.264463145121e-13 2.798060506465e-13 1.630146169463e+07 6.800365224797e+06  5.108223660169e-02
1.400000000000e+00 8.399514828256e+07 9.999556947079e+04 -8.389515271309e+07 6.601483617866e-01 3.398516382134e-01 -3.279297175263e-09 -3.055661400510e-08 -4.323508599873e-13 3.509247751061e-13 1.657499386750e+07 6.916657461739e+06  5.114817743994e-02