 TITLE = "Time curves in points"
 VARIABLES = "TIME "  "DISPLACEMENT_X1"  "DISPLACEMENT_Y1"  "STRESS_XX"  "STRESS_XY"  "STRESS_YY"  "STRESS_ZZ"  "STRAIN_XX"  "STRAIN_XY"  "STRAIN_YY"  p_(1st_Invariant)  q_(2nd_Invariant)   Effective_Strain
 ZONE T="POINT=POINT5"
0.000000000000e+00 0.000000000000e+00 0.000000000000e+00 -1.000000000000e+05 0.000000000000e+00 -1.000000000000e+05 -1.000000000000e+05 0.000000000000e+00 0.000000000000e+00 0.000000000000e+00 1.000000000000e+05 0.000000000000e+00  0.000000000000e+00
1.000000000000e-03 -3.716583055996e-09 1.647000681221e-05 -1.158167544508e+05 -2.171982657933e+02 -1.197111410586e+05 -1.142156470363e+05 -1.515452809520e-04 -4.259877899181e-05 -5.202482234609e-04 1.165811808486e+05 4.909852190835e+03  4.692834867313e-04
2.000000000000e-03 -2.302437336910e-06 6.072545861292e-04 -2.049787834556e+05 1.373390363233e+03 -2.543867403951e+05 -2.037506960432e+05 2.373313766763e-05 1.889621722816e-03 -2.808738880745e-02 2.210387399646e+05 5.008982232841e+04  2.828923091768e-02
3.000000000000e-03 -2.355425747408e-06 7.920938708034e-04 -5.243387855922e+05 1.059392082615e+03 -7.488229544336e+05 -5.292691619638e+05 3.935704272125e-04 1.941204965120e-03 -3.809136537722e-02 6.008103006632e+05 2.220676161994e+05  3.843700663523e-02
4.000000000000e-03 -2.169248048486e-06 8.660270891320e-04 -1.155854676729e+06 1.404709489484e+03 -1.744104755852e+06 -1.179988230836e+06 6.107740930156e-04 1.958293965552e-03 -4.197156802704e-02 1.359982554472e+06 5.765673755386e+05  4.241609906394e-02
5.000000000000e-03 -2.181323323055e-06 8.829833803973e-04 -1.304877247755e+06 4.103013071445e+03 -1.977610865794e+06 -1.332999693005e+06 6.398473261241e-04 1.982369297021e-03 -4.256759184810e-02 1.538495935518e+06 6.591608169284e+05  4.302830933537e-02
6.000000000000e-03 -2.227417067842e-06 8.932880677188e-04 -1.446756778797e+06 1.402134899390e+03 -2.197798667153e+06 -1.477826670394e+06 6.575186451313e-04 1.946385903462e-03 -4.305910519467e-02 1.707460705448e+06 7.360029647490e+05  4.352236539641e-02
7.000000000000e-03 -2.203527425448e-06 8.955880170990e-04 -1.478494778787e+06 8.759020647664e+02 -2.243097365337e+06 -1.508641404054e+06 6.530407526521e-04 1.939387370794e-03 -4.314253153153e-02 1.743411182726e+06 7.499853654121e+05  4.360231634395e-02
8.000000000000e-03 -2.195103248290e-06 8.962325314830e-04 -1.488171982840e+06 2.039650312052e+03 -2.256068000961e+06 -1.517700496628e+06 6.497672317745e-04 1.951909743501e-03 -4.316361680926e-02 1.753980160143e+06 7.535740707680e+05  4.362334434978e-02
9.000000000000e-03 -2.197001930398e-06 8.969944575174e-04 -1.501168708377e+06 2.013509392424e+03 -2.276077481276e+06 -1.530902926733e+06 6.508506160818e-04 1.951639499039e-03 -4.319964884090e-02 1.769383038795e+06 7.604857566440e+05  4.365978097479e-02
1.000000000000e-02 -2.198037036769e-06 8.977738434679e-04 -1.514434030767e+06 2.131081921369e+03 -2.296273336929e+06 -1.544287337246e+06 6.514722406461e-04 1.952891106504e-03 -4.323541465664e-02 1.784998234981e+06 7.673571897578e+05  4.369592109219e-02
2.000000000000e-02 -2.286188340281e-06 1.000408763193e-03 -4.399507940864e+06 1.536546801863e+04 -6.683208634443e+06 -4.453090654009e+06 7.302418334638e-04 2.046539850109e-03 -4.794923975071e-02 5.178602409772e+06 2.257543217449e+06  4.844834736737e-02
3.000000000000e-02 -2.401405116039e-06 9.100694467796e-04 -2.477231594939e+06 2.378739045499e+04 -3.757512154513e+06 -2.513899912142e+06 6.563017007606e-04 2.105701926129e-03 -4.378805609636e-02 2.916214553864e+06 1.263018077018e+06  4.427035922730e-02
4.000000000000e-02 -2.323178601720e-06 9.237396573825e-04 -2.866450210627e+06 -1.037703637170e+04 -4.128928437121e+06 -2.818151550225e+06 3.565486396139e-04 1.825132158358e-03 -4.401190019455e-02 3.271176732657e+06 1.287432751155e+06  4.430417803092e-02
5.000000000000e-02 -2.306881738015e-06 9.079907132785e-04 -2.503099934343e+06 -1.461809602485e+04 -3.574904872145e+06 -2.451198538338e+06 3.432725363668e-04 1.792771782324e-03 -4.331997800057e-02 2.843067781609e+06 1.098967159799e+06  4.360333680716e-02
6.000000000000e-02 -2.310089503198e-06 9.524131421898e-04 -3.916190880189e+06 -2.478838394262e+04 -5.683696419529e+06 -3.859947331924e+06 3.299476698006e-04 1.730240409636e-03 -4.539794611408e-02 4.486611543881e+06 1.796800863581e+06  4.566226581108e-02
7.000000000000e-02 -2.097088519485e-06 9.429156283033e-04 -3.545108163896e+06 -4.341953001419e+04 -5.156235207700e+06 -3.500525055713e+06 3.577182021623e-04 1.622862987737e-03 -4.493790315182e-02 4.067289475769e+06 1.635604726962e+06  4.520530124609e-02
8.000000000000e-02 -2.156960833332e-06 9.488912788365e-04 -3.717297873499e+06 -3.861080785239e+04 -5.418022612183e+06 -3.674110616695e+06 3.612537724208e-04 1.648363639853e-03 -4.517953430620e-02 4.269810367459e+06 1.724021982288e+06  4.545100009554e-02
9.000000000000e-02 -2.181833147172e-06 9.515102459917e-04 -3.819835731245e+06 -3.938202012926e+04 -5.568537549972e+06 -3.775326874216e+06 3.578453219465e-04 1.643048435589e-03 -4.529962855420e-02 4.387900051811e+06 1.772688534102e+06  4.556855807541e-02
1.000000000000e-01 -2.167753087931e-06 9.552189755179e-04 -3.961071558387e+06 -4.152797388840e+04 -5.778568712553e+06 -3.915828092958e+06 3.560028209107e-04 1.632961099198e-03 -4.547088733065e-02 4.551822787966e+06 1.841940950214e+06  4.573746585305e-02
1.100000000000e-01 -2.140460290679e-06 9.585057441178e-04 -4.091645988483e+06 -4.215838402040e+04 -5.976005233577e+06 -4.047025978289e+06 3.570941208552e-04 1.631439711963e-03 -4.562221184594e-02 4.704892400116e+06 1.908458232877e+06  4.588888689170e-02
1.200000000000e-01 -2.189155894925e-06 9.600627080800e-04 -4.170718672195e+06 -3.645443421223e+04 -6.087076500285e+06 -4.123075518530e+06 3.510435060708e-04 1.653659749638e-03 -4.569072152065e-02 4.793623563670e+06 1.941644999266e+06  4.595659329630e-02
1.300000000000e-01 -2.166662516463e-06 9.655174560998e-04 -4.373347459413e+06 -3.989309461327e+04 -6.392399122580e+06 -4.326249619495e+06 3.523921104746e-04 1.637083996792e-03 -4.593718221632e-02 5.030665400496e+06 2.044175915638e+06  4.620148182475e-02
1.400000000000e-01 -2.161647678256e-06 9.699858112271e-04 -4.566539255545e+06 -4.217322219649e+04 -6.673091331648e+06 -4.515795937112e+06 3.443974967824e-04 1.627256026374e-03 -4.613248461611e-02 5.251808841435e+06 2.133627361680e+06  4.639134127442e-02
1.500000000000e-01 -2.151991086375e-06 9.732506576319e-04 -4.694351030303e+06 -4.494066855369e+04 -6.861809674585e+06 -4.642401041936e+06 3.418491761650e-04 1.615295659734e-03 -4.626671635730e-02 5.399520582275e+06 2.195275431099e+06  4.652278670094e-02
1.600000000000e-01 -2.154864405978e-06 9.760692263628e-04 -4.848591270729e+06 -4.550200923900e+04 -7.088458969726e+06 -4.794749041347e+06 3.384128335750e-04 1.613627979176e-03 -4.639276323652e-02 5.577266427267e+06 2.268637710971e+06  4.664669651964e-02
1.700000000000e-01 -2.157970443383e-06 9.782934593180e-04 -4.950884358631e+06 -4.698867549388e+04 -7.243735348540e+06 -4.897769488624e+06 3.395132548942e-04 1.607446482790e-03 -4.649652458956e-02 5.697463065265e+06 2.321291696553e+06  4.675018617233e-02
1.800000000000e-01 -2.151908784662e-06 9.806347203638e-04 -5.060138324067e+06 -4.798434919695e+04 -7.411030587236e+06 -5.008382059533e+06 3.418994938613e-04 1.602213444944e-03 -4.661603869023e-02 5.826516990279e+06 2.378645421056e+06  4.687015278657e-02
1.900000000000e-01 -2.140738552565e-06 9.830182620275e-04 -5.183689000697e+06 -5.014803159946e+04 -7.605123995862e+06 -5.135432133364e+06 3.471333971599e-04 1.593736908754e-03 -4.674313300719e-02 5.974748376641e+06 2.447462257849e+06  4.699879870253e-02
2.000000000000e-01 -2.168145010996e-06 9.849015588159e-04 -5.315213984049e+06 -5.285366084630e+04 -7.790012535159e+06 -5.261990108802e+06 3.391299267861e-04 1.585800933004e-03 -4.684524674600e-02 6.122405542670e+06 2.503509446200e+06  4.709589229113e-02
2.100000000000e-01 -2.166931858174e-06 9.869461781081e-04 -5.417064492906e+06 -5.097111128952e+04 -7.945476508667e+06 -5.364909479462e+06 3.410853362948e-04 1.592967661557e-03 -4.695019146759e-02 6.242483493678e+06 2.556413697371e+06  4.720236729030e-02
2.200000000000e-01 -2.184231594471e-06 9.889933144105e-04 -5.545328767150e+06 -4.736156197983e+04 -8.130822484610e+06 -5.490347290033e+06 3.365889054142e-04 1.604385588136e-03 -4.705719025284e-02 6.388832847264e+06 2.614705402560e+06  4.730807049636e-02
2.300000000000e-01 -2.176309003683e-06 9.911348151398e-04 -5.673639173585e+06 -4.635155635183e+04 -8.321074770426e+06 -5.617766299523e+06 3.351706789199e-04 1.607473498115e-03 -4.715880441649e-02 6.537493414511e+06 2.677013681978e+06  4.740910603473e-02
2.400000000000e-01 -2.179600428520e-06 9.930708732238e-04 -5.783927106225e+06 -4.530857624776e+04 -8.486275320376e+06 -5.727955966589e+06 3.349628114041e-04 1.610635435798e-03 -4.725122380923e-02 6.666052797730e+06 2.731891423443e+06  4.750158096153e-02
2.500000000000e-01 -2.177210220510e-06 9.949794631239e-04 -5.902551574512e+06 -4.484040294701e+04 -8.658610812855e+06 -5.844334608948e+06 3.315241690705e-04 1.611870378733e-03 -4.734348872064e-02 6.801832332105e+06 2.786706502543e+06  4.759207624835e-02
2.600000000000e-01 -2.175661737800e-06 9.968346016908e-04 -6.026353326342e+06 -4.454101092487e+04 -8.838967601754e+06 -5.965993209523e+06 3.284387914693e-04 1.613004089735e-03 -4.743356609064e-02 6.943771379207e+06 2.844321331556e+06  4.768055613997e-02
2.700000000000e-01 -2.178906467659e-06 9.986606268478e-04 -6.148772915070e+06 -4.374362766814e+04 -9.018185280232e+06 -6.086643780813e+06 3.260874033572e-04 1.614849666001e-03 -4.751867959687e-02 7.084533992038e+06 2.901965191320e+06  4.776452349596e-02
2.800000000000e-01 -2.177678144629e-06 1.000440933828e-03 -6.270151771857e+06 -4.255275191566e+04 -9.199199042776e+06 -6.207596447335e+06 3.256131578687e-04 1.618130664477e-03 -4.760177985828e-02 7.225649087322e+06 2.961737800104e+06  4.784757335547e-02
2.900000000000e-01 -2.172630337714e-06 1.002130084086e-03 -6.396460719754e+06 -4.264137407091e+04 -9.387140858279e+06 -6.333292620514e+06 3.248297514321e-04 1.617870051412e-03 -4.768120542385e-02 7.372298066182e+06 3.023661412900e+06  4.792643998519e-02
3.000000000000e-01 -2.173565933675e-06 1.003771583302e-03 -6.515342811809e+06 -4.292781113214e+04 -9.564431643626e+06 -6.451758129499e+06 3.242973707267e-04 1.617172381969e-03 -4.775498734101e-02 7.510510861645e+06 3.082270178253e+06  4.799975563581e-02
3.100000000000e-01 -2.173748220348e-06 1.005362981890e-03 -6.633462106030e+06 -4.320076678560e+04 -9.740548272263e+06 -6.569449354972e+06 3.237620157539e-04 1.616513395337e-03 -4.782691511821e-02 7.647819911088e+06 3.140473551667e+06  4.807122337413e-02
3.200000000000e-01 -2.173891377969e-06 1.006888946301e-03 -6.748632694365e+06 -4.349996678541e+04 -9.912326506884e+06 -6.684226243236e+06 3.232774669379e-04 1.615802801818e-03 -4.789585669627e-02 7.781728481495e+06 3.197271612261e+06  4.813973103688e-02
3.300000000000e-01 -2.174281474136e-06 1.008296722819e-03 -6.856698173723e+06 -4.370182665781e+04 -1.007345474900e+07 -6.791901595476e+06 3.228055982183e-04 1.615333681928e-03 -4.795943324707e-02 7.907351506065e+06 3.250520855064e+06  4.820291405181e-02
3.400000000000e-01 -2.174586844664e-06 1.009681294985e-03 -6.964660361710e+06 -4.392809161524e+04 -1.023445858153e+07 -6.899486370700e+06 3.223559418787e-04 1.614814702170e-03 -4.802196803187e-02 8.032868437979e+06 3.303743767138e+06  4.826506369322e-02
3.500000000000e-01 -2.174963787086e-06 1.011008295519e-03 -7.069740438377e+06 -4.412204077275e+04 -1.039115477435e+07 -7.004195745697e+06 3.219210464823e-04 1.614376992501e-03 -4.808189369273e-02 8.155030319474e+06 3.355537310671e+06  4.832462464413e-02
3.600000000000e-01 -2.175638749601e-06 1.012247406198e-03 -7.169326519108e+06 -4.420439726505e+04 -1.053960649903e+07 -7.103410230162e+06 3.214917413312e-04 1.614196161831e-03 -4.813782634950e-02 8.270781082765e+06 3.404577879177e+06  4.838022823383e-02
3.700000000000e-01 -2.176473207046e-06 1.013427288609e-03 -7.265477310834e+06 -4.422482081917e+04 -1.068289110182e+07 -7.199184237770e+06 3.210626033562e-04 1.614156323224e-03 -4.819105836276e-02 8.382517550140e+06 3.451887911970e+06  4.843315017508e-02
3.800000000000e-01 -2.177300027872e-06 1.014607704712e-03 -7.362954525788e+06 -4.424791505796e+04 -1.082817372458e+07 -7.296288500478e+06 3.206432195551e-04 1.614110577989e-03 -4.824431925193e-02 8.495805583616e+06 3.499867780273e+06  4.848610548271e-02
3.900000000000e-01 -2.178074934252e-06 1.015771215755e-03 -7.460310272205e+06 -4.428406220954e+04 -1.097328952755e+07 -7.393277914687e+06 3.202365671618e-04 1.614036928226e-03 -4.829681799716e-02 8.608959238148e+06 3.547799754967e+06  4.853830377060e-02
4.000000000000e-01 -2.179161694926e-06 1.016926286899e-03 -7.558265278530e+06 -4.421610648789e+04 -1.111924032979e+07 -7.490841487847e+06 3.198080133767e-04 1.614186719443e-03 -4.834891006752e-02 8.722782365389e+06 3.595976767436e+06  4.859010750200e-02
4.100000000000e-01 -2.180266148886e-06 1.018049203369e-03 -7.654733002534e+06 -4.413364175220e+04 -1.126296702262e+07 -7.586920946216e+06 3.193884256488e-04 1.614364765338e-03 -4.839954494321e-02 8.834873657124e+06 3.643415474836e+06  4.864046396700e-02
4.200000000000e-01 -2.181162281021e-06 1.019158762880e-03 -7.751236966974e+06 -4.411827992030e+04 -1.140679863142e+07 -7.683057294537e+06 3.189957522243e-04 1.614400386607e-03 -4.844959128546e-02 8.947030964309e+06 3.690915037630e+06  4.869023242561e-02
4.300000000000e-01 -2.182258921185e-06 1.020260795245e-03 -7.848313899424e+06 -4.403145986736e+04 -1.155144536257e+07 -7.779749290609e+06 3.185898952008e-04 1.614582422720e-03 -4.849928131800e-02 9.059836184200e+06 3.738663371772e+06  4.873965324083e-02
4.400000000000e-01 -2.183300035830e-06 1.021328207718e-03 -7.943498428764e+06 -4.395416171730e+04 -1.169327951737e+07 -7.874559690358e+06 3.182001978854e-04 1.614742422765e-03 -4.854740897944e-02 9.170445878831e+06 3.785487002313e+06  4.878752037563e-02
4.500000000000e-01 -2.184246691538e-06 1.022379822242e-03 -8.038395515587e+06 -4.390462604378e+04 -1.183470813263e+07 -7.969093276037e+06 3.178259075870e-04 1.614844450377e-03 -4.859482999742e-02 9.280732308085e+06 3.832188421998e+06  4.883468418584e-02
4.600000000000e-01 -2.185252366653e-06 1.023429334618e-03 -8.134236527199e+06 -4.383336230962e+04 -1.197753887742e+07 -8.064565644790e+06 3.174507611416e-04 1.614988188191e-03 -4.864215112048e-02 9.392113683137e+06 3.879350118788e+06  4.888175210704e-02
4.700000000000e-01 -2.186266992166e-06 1.024462177178e-03 -8.229674628754e+06 -4.375366847401e+04 -1.211976899021e+07 -8.159636940117e+06 3.170818218401e-04 1.615146511962e-03 -4.868871829283e-02 9.503026853026e+06 3.926313256353e+06  4.892807202563e-02
4.800000000000e-01 -2.187190611571e-06 1.025471216717e-03 -8.323985724511e+06 -4.370021008206e+04 -1.226034116477e+07 -8.253594582752e+06 3.167302145895e-04 1.615251832611e-03 -4.873421658403e-02 9.612640490678e+06 3.972739954211e+06  4.897332843919e-02
4.900000000000e-01 -2.188135081015e-06 1.026475988603e-03 -8.418975854357e+06 -4.363658900579e+04 -1.240192625545e+07 -8.348229311451e+06 3.163806264514e-04 1.615375211278e-03 -4.877952127057e-02 9.723043807086e+06 4.019501386743e+06  4.901839449435e-02
5.000000000000e-01 -2.188998128760e-06 1.027457475350e-03 -8.512804290121e+06 -4.359656816437e+04 -1.254179857937e+07 -8.441714543149e+06 3.160466509639e-04 1.615452163658e-03 -4.882377971774e-02 9.832105804214e+06 4.065706691559e+06  4.906241943238e-02
5.100000000000e-01 -2.189790167333e-06 1.028424871268e-03 -8.606303413742e+06 -4.357864734131e+04 -1.268119825620e+07 -8.534879259176e+06 3.157246557634e-04 1.615486479134e-03 -4.886740705187e-02 9.940793643039e+06 4.111765144257e+06  4.910581624404e-02
5.200000000000e-01 -2.190549045756e-06 1.029387767350e-03 -8.700384483340e+06 -4.357178185804e+04 -1.282147890835e+07 -8.628629392475e+06 3.154093289748e-04 1.615499670945e-03 -4.891083435297e-02 1.005016426139e+07 4.158121337622e+06  4.914901475260e-02
5.300000000000e-01 -2.191280038089e-06 1.030334483830e-03 -8.793887029599e+06 -4.357101498737e+04 -1.296090621767e+07 -8.721807008776e+06 3.151029484299e-04 1.615501303508e-03 -4.895353358135e-02 1.015886675201e+07 4.204200110961e+06  4.919148987499e-02
5.400000000000e-01 -2.191902827047e-06 1.031269887416e-03 -8.887248358863e+06 -4.360916213201e+04 -1.310015297410e+07 -8.814856127167e+06 3.148114282522e-04 1.615432060056e-03 -4.899573097125e-02 1.026741915338e+07 4.250234437811e+06  4.923346461412e-02
5.500000000000e-01 -2.192470741725e-06 1.032178781303e-03 -8.978908584058e+06 -4.366202859785e+04 -1.323687574045e+07 -8.906215398464e+06 3.145332112148e-04 1.615336868234e-03 -4.903673422971e-02 1.037399990766e+07 4.295440945833e+06  4.927425145179e-02
5.600000000000e-01 -2.193021669956e-06 1.033082042694e-03 -9.070936393578e+06 -4.372074919108e+04 -1.337415772337e+07 -8.997945561023e+06 3.142607211428e-04 1.615232035702e-03 -4.907748600430e-02 1.048101322599e+07 4.340837671936e+06  4.931478928308e-02
5.700000000000e-01 -2.193596863014e-06 1.033977028670e-03 -9.163057259844e+06 -4.376735850478e+04 -1.351157594719e+07 -9.089767594683e+06 3.139899079563e-04 1.615149392587e-03 -4.911786290917e-02 1.058813360057e+07 4.386277963466e+06  4.935495600607e-02
5.800000000000e-01 -2.194116690217e-06 1.034852678012e-03 -9.254089603597e+06 -4.383168737112e+04 -1.364738677100e+07 -9.180511392557e+06 3.137308609852e-04 1.615036492060e-03 -4.915737160235e-02 1.069399592238e+07 4.431194912302e+06  4.939425900885e-02
5.900000000000e-01 -2.194628273422e-06 1.035713617680e-03 -9.344477731092e+06 -4.389508831248e+04 -1.378224236378e+07 -9.270615526003e+06 3.134783057432e-04 1.614926129678e-03 -4.919621838130e-02 1.079911187362e+07 4.475798697241e+06  4.943290481115e-02
6.000000000000e-01 -2.195130766343e-06 1.036561373427e-03 -9.434342624627e+06 -4.395934141015e+04 -1.391632336966e+07 -9.360200627153e+06 3.132317992515e-04 1.614815200992e-03 -4.923447015879e-02 1.090362220715e+07 4.520149191207e+06  4.947095968394e-02
6.100000000000e-01 -2.195619311061e-06 1.037392999905e-03 -9.523338223338e+06 -4.402472685703e+04 -1.404911300803e+07 -9.448921541325e+06 3.129920077392e-04 1.614703250676e-03 -4.927199489398e-02 1.100712425756e+07 4.564075253220e+06  4.950829208526e-02
6.200000000000e-01 -2.196066403601e-06 1.038202554952e-03 -9.610776947717e+06 -4.410150467392e+04 -1.417959190630e+07 -9.536095469940e+06 3.127628560874e-04 1.614573083116e-03 -4.930852689819e-02 1.110882144132e+07 4.607243007466e+06  4.954463704477e-02
6.300000000000e-01 -2.196547664002e-06 1.039008917859e-03 -9.698676554247e+06 -4.416335846360e+04 -1.431075503303e+07 -9.623727485768e+06 3.125333870056e-04 1.614468740610e-03 -4.934491423304e-02 1.121105302435e+07 4.650635166270e+06  4.958084003830e-02
6.400000000000e-01 -2.197043839756e-06 1.039791267433e-03 -9.784731275141e+06 -4.421156278607e+04 -1.443916234866e+07 -9.709519248935e+06 3.123099023722e-04 1.614387698009e-03 -4.938021604729e-02 1.131113762424e+07 4.693113960445e+06  4.961596464570e-02
6.500000000000e-01 -2.197503364925e-06 1.040552394742e-03 -9.869182306501e+06 -4.426949701015e+04 -1.456518695881e+07 -9.793716463520e+06 3.120959550334e-04 1.614291361120e-03 -4.941456232877e-02 1.140936190961e+07 4.734809616316e+06  4.965013865890e-02
6.600000000000e-01 -2.197993235876e-06 1.041305709926e-03 -9.953490981824e+06 -4.431174026862e+04 -1.469099647878e+07 -9.877770693093e+06 3.118832872489e-04 1.614221115979e-03 -4.944855571030e-02 1.150741938457e+07 4.776432535990e+06  4.968396361562e-02
6.700000000000e-01 -2.198455375819e-06 1.042034637342e-03 -1.003575454823e+07 -4.435881796685e+04 -1.481376123403e+07 -9.959788951104e+06 3.116798902793e-04 1.614143608243e-03 -4.948144950629e-02 1.160310157779e+07 4.817051578161e+06  4.971669479274e-02
6.800000000000e-01 -2.198937070106e-06 1.042759202296e-03 -1.011820583497e+07 -4.439572594714e+04 -1.493680494020e+07 -1.004199383992e+07 3.114772489343e-04 1.614082794608e-03 -4.951414682224e-02 1.169900153837e+07 4.857762200614e+06  4.974923189006e-02
6.900000000000e-01 -2.199408871054e-06 1.043447273371e-03 -1.019713351533e+07 -4.442508812006e+04 -1.505459003764e+07 -1.012068579048e+07 3.112849000359e-04 1.614034338046e-03 -4.954519599721e-02 1.179080311449e+07 4.896732623469e+06  4.978012993763e-02
7.000000000000e-01 -2.199887419238e-06 1.044111906884e-03 -1.027396157110e+07 -4.444330050294e+04 -1.516923949671e+07 -1.019728356943e+07 3.110984298317e-04 1.614003665478e-03 -4.957518650712e-02 1.188016154574e+07 4.934664247419e+06  4.980997576416e-02
7.100000000000e-01 -2.200409862633e-06 1.044769944858e-03 -1.035060602325e+07 -4.443928978321e+04 -1.528360578215e+07 -1.027369455772e+07 3.109108440941e-04 1.614007674087e-03 -4.960487721410e-02 1.196930212104e+07 4.972497439635e+06  4.983952513358e-02
7.200000000000e-01 -2.200878463039e-06 1.045416383927e-03 -1.042645252477e+07 -4.445581546439e+04 -1.539679827582e+07 -1.034931675665e+07 3.107317861011e-04 1.613979867945e-03 -4.963404969035e-02 1.205752251908e+07 5.009950818876e+06  4.986855835956e-02
7.300000000000e-01 -2.201358792366e-06 1.046046210608e-03 -1.050088857408e+07 -4.446124392297e+04 -1.550788267515e+07 -1.042353143235e+07 3.105563480108e-04 1.613969204042e-03 -4.966247133520e-02 1.214410089386e+07 5.046704985882e+06  4.989684549018e-02
7.400000000000e-01 -2.201834531828e-06 1.046662862210e-03 -1.057428552047e+07 -4.446385159144e+04 -1.561741827313e+07 -1.049671082990e+07 3.103851216879e-04 1.613962842154e-03 -4.969029933401e-02 1.222947154117e+07 5.082947605339e+06  4.992454250768e-02
7.500000000000e-01 -2.202283763072e-06 1.047281952500e-03 -1.064848789463e+07 -4.447984995944e+04 -1.572816910781e+07 -1.057069836575e+07 3.102170768258e-04 1.613936173187e-03 -4.971824217952e-02 1.231578512273e+07 5.119598989957e+06  4.995235387570e-02
7.600000000000e-01 -2.202742584630e-06 1.047877367645e-03 -1.072034780125e+07 -4.448267308747e+04 -1.583541920981e+07 -1.064234848356e+07 3.100541283700e-04 1.613929439048e-03 -4.974511464572e-02 1.239937183154e+07 5.155089486393e+06  4.997910110779e-02
7.700000000000e-01 -2.203195203835e-06 1.048468386647e-03 -1.079216013574e+07 -4.448686928894e+04 -1.594260207426e+07 -1.071395252954e+07 3.098933884693e-04 1.613920612211e-03 -4.977179079370e-02 1.248290491318e+07 5.190559658774e+06  5.000565328891e-02
7.800000000000e-01 -2.203643047667e-06 1.049047743009e-03 -1.086302404161e+07 -4.448890695730e+04 -1.604837286965e+07 -1.078461221916e+07 3.097367813478e-04 1.613914993586e-03 -4.979794175929e-02 1.256533637681e+07 5.225564210921e+06  5.003168355506e-02
7.900000000000e-01 -2.204085542584e-06 1.049622071879e-03 -1.093373537441e+07 -4.449171619680e+04 -1.615391924202e+07 -1.085512094395e+07 3.095823831823e-04 1.613908190783e-03 -4.982386758622e-02 1.264759185346e+07 5.260496189564e+06  5.005749008003e-02
8.000000000000e-01 -2.204523020147e-06 1.050184885489e-03 -1.100347751989e+07 -4.449246248633e+04 -1.625802176008e+07 -1.092466427729e+07 3.094318120774e-04 1.613904406742e-03 -4.984927467390e-02 1.272872118575e+07 5.294951662375e+06  5.008278094570e-02
8.100000000000e-01 -2.204955754053e-06 1.050743008844e-03 -1.107308102618e+07 -4.449381425136e+04 -1.636192127543e+07 -1.099407077144e+07 3.092835018110e-04 1.613899690831e-03 -4.987447217808e-02 1.280969102435e+07 5.329341940268e+06  5.010786364802e-02
8.200000000000e-01 -2.205383007644e-06 1.051289751190e-03 -1.114169427775e+07 -4.449334281511e+04 -1.646434475194e+07 -1.106249055863e+07 3.091387423879e-04 1.613897601228e-03 -4.989915675620e-02 1.288950986278e+07 5.363244725474e+06  5.013243631333e-02
8.300000000000e-01 -2.205815343163e-06 1.051820634680e-03 -1.120872919269e+07 -4.448420233006e+04 -1.656441035554e+07 -1.112933566556e+07 3.089975842470e-04 1.613907943023e-03 -4.992312552215e-02 1.296749173793e+07 5.396366092164e+06  5.015629734279e-02
8.400000000000e-01 -2.206233731176e-06 1.052354487397e-03 -1.127654592064e+07 -4.448313796560e+04 -1.666565096347e+07 -1.119696329690e+07 3.088577291127e-04 1.613906613860e-03 -4.994723129432e-02 1.304638672700e+07 5.429880470532e+06  5.018029472983e-02
8.500000000000e-01 -2.206647257482e-06 1.052876958310e-03 -1.134331730486e+07 -4.447993957344e+04 -1.676533296645e+07 -1.126354914076e+07 3.087212966255e-04 1.613908287874e-03 -4.997082436885e-02 1.312406647069e+07 5.462879865480e+06  5.020378227304e-02
8.600000000000e-01 -2.207058018503e-06 1.053393496576e-03 -1.140972215593e+07 -4.447575369847e+04 -1.686447030063e+07 -1.132977029069e+07 3.085869804236e-04 1.613911291617e-03 -4.999415104795e-02 1.320132091575e+07 5.495700245594e+06  5.022700506712e-02
8.700000000000e-01 -2.207464460643e-06 1.053906642367e-03 -1.147607838858e+07 -4.447258894586e+04 -1.696353860768e+07 -1.139594416462e+07 3.084543847148e-04 1.613912785493e-03 -5.001732636644e-02 1.327852038696e+07 5.528499611076e+06  5.025007749269e-02
8.800000000000e-01 -2.207848856932e-06 1.054403030095e-03 -1.154063582688e+07 -4.447379110315e+04 -1.705992722838e+07 -1.146032642430e+07 3.083276744112e-04 1.613908199720e-03 -5.003974692662e-02 1.335362982652e+07 5.560414725920e+06  5.027239875184e-02
8.900000000000e-01 -2.208254000158e-06 1.054892479508e-03 -1.160465281622e+07 -4.446136847130e+04 -1.715550337898e+07 -1.152416729068e+07 3.082010368959e-04 1.613922467876e-03 -5.006185344818e-02 1.342810782862e+07 5.592058069664e+06  5.029440834610e-02
9.000000000000e-01 -2.208648896921e-06 1.055385773704e-03 -1.166953299791e+07 -4.445592710211e+04 -1.725237553135e+07 -1.158887160583e+07 3.080752198287e-04 1.613926952787e-03 -5.008413657985e-02 1.350359337836e+07 5.624134231357e+06  5.031659377684e-02
9.100000000000e-01 -2.209021460838e-06 1.055862731366e-03 -1.173261060589e+07 -4.445536269479e+04 -1.734656195066e+07 -1.165178036624e+07 3.079550270265e-04 1.613924756132e-03 -5.010568385260e-02 1.357698430760e+07 5.655323960618e+06  5.033804671633e-02
9.200000000000e-01 -2.209413984942e-06 1.056332566327e-03 -1.179508583013e+07 -4.444132156920e+04 -1.743984389769e+07 -1.171408614972e+07 3.078350975612e-04 1.613940904391e-03 -5.012690893279e-02 1.364967195918e+07 5.686211681093e+06  5.035917989040e-02
9.300000000000e-01 -2.209794731071e-06 1.056803840566e-03 -1.185808746615e+07 -4.443396978776e+04 -1.753391830732e+07 -1.177691924661e+07 3.077163846306e-04 1.613947832840e-03 -5.014820157051e-02 1.372297500670e+07 5.717365147882e+06  5.038038027084e-02
9.400000000000e-01 -2.210165274111e-06 1.057257751500e-03 -1.191909001085e+07 -4.442523927228e+04 -1.762500898613e+07 -1.183775897712e+07 3.076022850961e-04 1.613956607493e-03 -5.016871102399e-02 1.379395265803e+07 5.747531225122e+06  5.040080121306e-02
9.500000000000e-01 -2.210539828606e-06 1.057717147655e-03 -1.198115073009e+07 -4.441586138809e+04 -1.771768281957e+07 -1.189965500082e+07 3.074874376252e-04 1.613966124881e-03 -5.018946973214e-02 1.386616285016e+07 5.778223181899e+06  5.042147074331e-02
9.600000000000e-01 -2.210895381592e-06 1.058164021723e-03 -1.204183197997e+07 -4.441186815448e+04 -1.780830188415e+07 -1.196017709010e+07 3.073769675061e-04 1.613968417571e-03 -5.020966489396e-02 1.393677031807e+07 5.808237287163e+06  5.044157913921e-02
9.700000000000e-01 -2.211269016368e-06 1.058604927044e-03 -1.210201014764e+07 -4.439524636216e+04 -1.789816446032e+07 -1.202019511173e+07 3.072664209680e-04 1.613987431623e-03 -5.022958991840e-02 1.400678990656e+07 5.837998278813e+06  5.046141940763e-02
9.800000000000e-01 -2.211617973966e-06 1.059041666613e-03 -1.216191554567e+07 -4.439038525464e+04 -1.798762885241e+07 -1.207994451258e+07 3.071591899795e-04 1.613990793323e-03 -5.024932971848e-02 1.407649630355e+07 5.867632064104e+06  5.048107493092e-02
9.900000000000e-01 -2.211985972085e-06 1.059474736929e-03 -1.222161664016e+07 -4.437343365262e+04 -1.807678352397e+07 -1.213948806495e+07 3.070514723319e-04 1.614009987366e-03 -5.026890354416e-02 1.414596274303e+07 5.897160999901e+06  5.050056603348e-02
1.000000000000e+00 -2.212334489757e-06 1.059894180746e-03 -1.227972004139e+07 -4.436133598949e+04 -1.816355701394e+07 -1.219743982924e+07 3.069482478895e-04 1.614022773427e-03 -5.028786338913e-02 1.421357229486e+07 5.925903702530e+06  5.051944577653e-02
1.050000000000e+00 -2.214061381645e-06 1.061990919274e-03 -1.252200014866e+07 -4.406037322800e+04 -1.852504032979e+07 -1.243894467536e+07 3.064364213036e-04 1.614078510079e-03 -5.038267192036e-02 1.449532838460e+07 6.045477559374e+06  5.061385548547e-02
1.100000000000e+00 -2.204217479490e-06 1.064250463073e-03 -1.279655515686e+07 -4.319277016883e+04 -1.892335935473e+07 -1.270808954183e+07 3.025349005072e-04 1.614981478484e-03 -5.048039790157e-02 1.480933468447e+07 6.171965990814e+06  5.070955213124e-02
1.150000000000e+00 -2.197769387873e-06 1.066304831467e-03 -1.309618060909e+07 -4.823275416252e+04 -1.936006965665e+07 -1.300261345633e+07 2.993040064088e-04 1.608607991087e-03 -5.056976198357e-02 1.515295457402e+07 6.311745738799e+06  5.079654517125e-02
1.200000000000e+00 -2.212505434634e-06 1.068107769630e-03 -1.336966326035e+07 -5.212125636618e+04 -1.976192056393e+07 -1.327273205530e+07 2.972055248912e-04 1.604109063007e-03 -5.064751464103e-02 1.546810529320e+07 6.441902527455e+06  5.087269689400e-02
1.250000000000e+00 -2.218323468774e-06 1.069756521554e-03 -1.360874229750e+07 -5.834002253093e+04 -2.012583604021e+07 -1.351391134640e+07 2.984115817408e-04 1.596676998755e-03 -5.072080462306e-02 1.574949656137e+07 6.565800532548e+06  5.094578372086e-02
1.300000000000e+00 -2.218627600174e-06 1.071298495249e-03 -1.384961247760e+07 -5.780437921611e+04 -2.048502017872e+07 -1.375391161523e+07 2.978930694731e-04 1.597291728365e-03 -5.079081936186e-02 1.602951475719e+07 6.684521844762e+06  5.101549105328e-02
1.350000000000e+00 -2.219526730219e-06 1.072778210660e-03 -1.408319075658e+07 -5.807317198920e+04 -2.083420229630e+07 -1.398699203100e+07 2.975936866798e-04 1.596969802794e-03 -5.085784524449e-02 1.630146169463e+07 6.800365224797e+06  5.108223660169e-02