 TITLE = "Time curves in points"
 VARIABLES = "TIME "  "DISPLACEMENT_X1"  "DISPLACEMENT_Y1"  "STRESS_XX"  "STRESS_XY"  "STRESS_YY"  "STRESS_ZZ"  "STRAIN_XX"  "STRAIN_XY"  "STRAIN_YY"  p_(1st_Invariant)  q_(2nd_Invariant)   Effective_Strain
 ZONE T="POINT=POINT5"
0.000000000000e+00 0.000000000000e+00 0.000000000000e+00 -1.000000000000e+05 0.000000000000e+00 -1.000000000000e+05 -1.000000000000e+05 0.000000000000e+00 0.000000000000e+00 0.000000000000e+00 1.000000000000e+05 0.000000000000e+00  0.000000000000e+00
1.000000000000e-03 -3.716583056220e-09 1.647000681221e-05 -1.158167544508e+05 -2.171982657925e+02 -1.197111410586e+05 -1.142156470363e+05 -1.515452809519e-04 -4.259877899158e-05 -5.202482234609e-04 1.165811808486e+05 4.909852190835e+03  4.692834867313e-04
2.000000000000e-03 -2.302437336910e-06 6.072545861292e-04 -2.049787834556e+05 1.373390363233e+03 -2.543867403951e+05 -2.037506960432e+05 2.373313766836e-05 1.889621722815e-03 -2.808738880745e-02 2.210387399646e+05 5.008982232842e+04  2.828923091769e-02
3.000000000000e-03 -2.355425747420e-06 7.920938708035e-04 -5.243387855922e+05 1.059392082682e+03 -7.488229544336e+05 -5.292691619638e+05 3.935704272136e-04 1.941204965126e-03 -3.809136537723e-02 6.008103006632e+05 2.220676161994e+05  3.843700663523e-02
4.000000000000e-03 -2.169248048509e-06 8.660270891321e-04 -1.155854676729e+06 1.404709489942e+03 -1.744104755852e+06 -1.179988230836e+06 6.107740930164e-04 1.958293965568e-03 -4.197156802705e-02 1.359982554472e+06 5.765673755387e+05  4.241609906395e-02
5.000000000000e-03 -2.181323323081e-06 8.829833803973e-04 -1.304877247755e+06 4.103013072063e+03 -1.977610865794e+06 -1.332999693006e+06 6.398473261250e-04 1.982369297038e-03 -4.256759184810e-02 1.538495935518e+06 6.591608169285e+05  4.302830933537e-02
6.000000000000e-03 -2.227417067862e-06 8.932880677186e-04 -1.446756778791e+06 1.402134899619e+03 -2.197798667144e+06 -1.477826670389e+06 6.575186451324e-04 1.946385903473e-03 -4.305910519466e-02 1.707460705441e+06 7.360029647464e+05  4.352236539640e-02
7.000000000000e-03 -2.203527425451e-06 8.955880170991e-04 -1.478494778788e+06 8.759020650186e+02 -2.243097365338e+06 -1.508641404055e+06 6.530407526540e-04 1.939387370805e-03 -4.314253153153e-02 1.743411182727e+06 7.499853654127e+05  4.360231634396e-02
8.000000000000e-03 -2.195102986908e-06 8.962325312325e-04 -1.488171982666e+06 2.039647814763e+03 -2.256068014132e+06 -1.517700501827e+06 6.497672616593e-04 1.951909715288e-03 -4.316361685139e-02 1.753980166208e+06 7.535740815576e+05  4.362334440323e-02
9.000000000000e-03 -2.197001954454e-06 8.969944574854e-04 -1.501168712406e+06 2.013511144427e+03 -2.276077481290e+06 -1.530902928350e+06 6.508506034059e-04 1.951639517656e-03 -4.319964883275e-02 1.769383040682e+06 7.604857537792e+05  4.365978096270e-02
1.000000000000e-02 -2.198037044290e-06 8.977738434328e-04 -1.514434022793e+06 2.131085251146e+03 -2.296273339130e+06 -1.544287334937e+06 6.514722703736e-04 1.952891141333e-03 -4.323541467998e-02 1.784998232287e+06 7.673571972896e+05  4.369592113528e-02
2.000000000000e-02 -2.286188342966e-06 1.000408763089e-03 -4.399507960755e+06 1.536546512081e+04 -6.683208652046e+06 -4.453090669007e+06 7.302418274705e-04 2.046539842705e-03 -4.794923974309e-02 5.178602427269e+06 2.257543217461e+06  4.844834735578e-02
3.000000000000e-02 -2.401405121042e-06 9.100694471519e-04 -2.477231600751e+06 2.378738839412e+04 -3.757512154875e+06 -2.513899914612e+06 6.563017024286e-04 2.105701924904e-03 -4.378805611394e-02 2.916214556746e+06 1.263018073054e+06  4.427035924550e-02
4.000000000000e-02 -2.323178353252e-06 9.237396606741e-04 -2.866450433757e+06 -1.037709268247e+04 -4.128928751636e+06 -2.818151765283e+06 3.565486665971e-04 1.825131985263e-03 -4.401190035147e-02 3.271176983559e+06 1.287432848105e+06  4.430417817966e-02
5.000000000000e-02 -2.306881696491e-06 9.079907125774e-04 -2.503100036944e+06 -1.461812632026e+04 -3.574905025505e+06 -2.451198640722e+06 3.432725865188e-04 1.792771814381e-03 -4.331997778002e-02 2.843067901057e+06 1.098967211826e+06  4.360333661643e-02
6.000000000000e-02 -2.310089082591e-06 9.524131390285e-04 -3.916190992813e+06 -2.478852896900e+04 -5.683696566055e+06 -3.859947435585e+06 3.299476871038e-04 1.730239744590e-03 -4.539794556105e-02 4.486611664818e+06 1.796800908152e+06  4.566226519238e-02
7.000000000000e-02 -2.097088405188e-06 9.429155765567e-04 -3.545106861881e+06 -4.341965940097e+04 -5.156233282861e+06 -3.500523764911e+06 3.577184082705e-04 1.622862595779e-03 -4.493790055612e-02 4.067287969884e+06 1.635604109448e+06  4.520529871734e-02
8.000000000000e-02 -2.156960781755e-06 9.488912902677e-04 -3.717298637455e+06 -3.861129481544e+04 -5.418023318420e+06 -3.674111204738e+06 3.612534603145e-04 1.648361675656e-03 -4.517953510835e-02 4.269811053538e+06 1.724022048519e+06  4.545100052478e-02
9.000000000000e-02 -2.181833748441e-06 9.515101381692e-04 -3.819836898970e+06 -3.938237112127e+04 -5.568538582710e+06 -3.775327754466e+06 3.578448147024e-04 1.643047024399e-03 -4.529962418942e-02 4.387901078716e+06 1.772688571651e+06  4.556855331050e-02
1.000000000000e-01 -2.167756180469e-06 9.552188804666e-04 -3.961073219711e+06 -4.152750506307e+04 -5.778571500508e+06 -3.915829872856e+06 3.560033475776e-04 1.632964519005e-03 -4.547088255869e-02 4.551824864358e+06 1.841941982607e+06  4.573746172252e-02
1.100000000000e-01 -2.140466912319e-06 9.585055087375e-04 -4.091643006477e+06 -4.215826389104e+04 -5.976000935596e+06 -4.047023066524e+06 3.570944078374e-04 1.631441922675e-03 -4.562219879093e-02 4.704889002866e+06 1.908456873855e+06  4.588887424244e-02
1.200000000000e-01 -2.189166392930e-06 9.600619541583e-04 -4.170692843623e+06 -3.645473855541e+04 -6.087038338590e+06 -4.123049922675e+06 3.510440792777e-04 1.653660452876e-03 -4.569068683741e-02 4.793593701629e+06 1.941632572041e+06  4.595655904648e-02
1.300000000000e-01 -2.168131443538e-06 9.655192496883e-04 -4.373539399488e+06 -3.965066971707e+04 -6.392452490883e+06 -4.326347742855e+06 3.521655079366e-04 1.638240315736e-03 -4.593703959824e-02 5.030779877742e+06 2.044071795038e+06  4.620134805906e-02
1.400000000000e-01 -2.163457824529e-06 9.699684801878e-04 -4.565104510006e+06 -4.190112886663e+04 -6.670500160408e+06 -4.514185116138e+06 3.439106470389e-04 1.628850661344e-03 -4.613118339730e-02 5.249929928851e+06 2.132546884262e+06  4.638996469852e-02
1.500000000000e-01 -2.154639542826e-06 9.732495306456e-04 -4.694052370159e+06 -4.545107280354e+04 -6.862544526750e+06 -4.642574787753e+06 3.425876982160e-04 1.613781027191e-03 -4.626826017738e-02 5.399723894887e+06 2.196095241203e+06  4.652454266878e-02
1.600000000000e-01 -2.148133290909e-06 9.759948571756e-04 -4.841695928435e+06 -4.695077112083e+04 -7.081014680401e+06 -4.789012873452e+06 3.404848868117e-04 1.607680382237e-03 -4.639324238000e-02 5.570574494096e+06 2.267578279762e+06  4.664760417216e-02
1.700000000000e-01 -2.148883935678e-06 9.784735522235e-04 -4.972310834908e+06 -5.005272425316e+04 -7.284142849623e+06 -4.922502397821e+06 3.443248261290e-04 1.598670951752e-03 -4.649915547049e-02 5.726318694117e+06 2.338741693677e+06  4.675433754330e-02
1.800000000000e-01 -2.145905820935e-06 9.808862440888e-04 -5.067640286148e+06 -5.371805345334e+04 -7.430686420669e+06 -5.019244584457e+06 3.462521951655e-04 1.587461990810e-03 -4.658972781279e-02 5.839190430424e+06 2.389424060611e+06  4.684457845362e-02
1.900000000000e-01 -2.146780274251e-06 9.832081536141e-04 -5.222876428314e+06 -5.341878314898e+04 -7.656560535323e+06 -5.171680147755e+06 3.420706476519e-04 1.587115232877e-03 -4.669249581268e-02 6.017039037131e+06 2.461421472517e+06  4.694502225067e-02
2.000000000000e-01 -2.141920307222e-06 9.854291215793e-04 -5.310263811886e+06 -5.538515524002e+04 -7.789067769154e+06 -5.259630163507e+06 3.431118764835e-04 1.580247981782e-03 -4.677243231305e-02 6.119653914849e+06 2.506341209643e+06  4.702465181487e-02
2.100000000000e-01 -2.141885355653e-06 9.875358502321e-04 -5.448519319783e+06 -5.739880145676e+04 -7.996965903127e+06 -5.398084742949e+06 3.423937174402e-04 1.571955147296e-03 -4.687645950920e-02 6.281189988620e+06 2.575953673291e+06  4.712730656172e-02
2.200000000000e-01 -2.133384635104e-06 9.897128445480e-04 -5.585851606839e+06 -6.128253563255e+04 -8.202175559344e+06 -5.535094548865e+06 3.408681587224e-04 1.560634954900e-03 -4.696560840270e-02 6.441040571682e+06 2.644199473838e+06  4.721440869675e-02
2.300000000000e-01 -2.141671436088e-06 9.916097196770e-04 -5.695571115365e+06 -6.324551688712e+04 -8.367132201253e+06 -5.644958078126e+06 3.409283210081e-04 1.555003895362e-03 -4.704231538216e-02 6.569220464915e+06 2.699447373467e+06  4.729046243777e-02
2.400000000000e-01 -2.131738382934e-06 9.936807155851e-04 -5.820694535095e+06 -6.296956734790e+04 -8.563889665746e+06 -5.773704113098e+06 3.459966653279e-04 1.555888317511e-03 -4.713457825795e-02 6.719429437980e+06 2.769138317353e+06  4.738521872394e-02
2.500000000000e-01 -2.123377950566e-06 9.955816541869e-04 -5.932425961574e+06 -6.490711120632e+04 -8.736643880381e+06 -5.887492402603e+06 3.487830377731e-04 1.550465638814e-03 -4.721591027775e-02 6.852187414853e+06 2.829187065459e+06  4.746729160878e-02
2.600000000000e-01 -2.121175145698e-06 9.973915733876e-04 -6.050202693498e+06 -6.514621273424e+04 -8.911518642918e+06 -6.004547469206e+06 3.478096930520e-04 1.549864810165e-03 -4.729383421241e-02 6.988756268541e+06 2.886620770113e+06  4.754453935883e-02
2.700000000000e-01 -2.121876399293e-06 9.991735505230e-04 -6.170854326987e+06 -6.590461779631e+04 -9.092019648390e+06 -6.125003447870e+06 3.475295105361e-04 1.547874295038e-03 -4.737321688921e-02 7.129292474415e+06 2.946570445799e+06  4.762345840624e-02
2.800000000000e-01 -2.122766993364e-06 1.000896273786e-03 -6.289938995761e+06 -6.680885321378e+04 -9.269840078910e+06 -6.243760880293e+06 3.470890893796e-04 1.545550086486e-03 -4.744977949950e-02 7.267846651655e+06 3.005484880781e+06  4.769944990620e-02
2.900000000000e-01 -2.122125312808e-06 1.002560262826e-03 -6.408971951519e+06 -6.729142650034e+04 -9.447660102203e+06 -6.362497946405e+06 3.466966298508e-04 1.544328476882e-03 -4.752492043360e-02 7.406376666709e+06 3.064406945423e+06  4.777415453836e-02
3.000000000000e-01 -2.122241087201e-06 1.004188294020e-03 -6.527448272654e+06 -6.766324424852e+04 -9.624540878921e+06 -6.480637150959e+06 3.462598673062e-04 1.543405719145e-03 -4.759824515615e-02 7.544208767511e+06 3.122961289492e+06  4.784705323773e-02
3.100000000000e-01 -2.121588885418e-06 1.005775750025e-03 -6.645041050867e+06 -6.823732097211e+04 -9.800266196042e+06 -6.597961252375e+06 3.459150356372e-04 1.542005168236e-03 -4.766982834068e-02 7.681089499761e+06 3.181222812712e+06  4.791821408846e-02
3.200000000000e-01 -2.120923756389e-06 1.007275324430e-03 -6.758076002499e+06 -6.880359948792e+04 -9.969190809129e+06 -6.710742443964e+06 3.455948242978e-04 1.540647102206e-03 -4.773744928651e-02 7.812669751864e+06 3.237235558882e+06  4.798543629107e-02
3.300000000000e-01 -2.121297489695e-06 1.008721577062e-03 -6.869008886064e+06 -6.905614959466e+04 -1.013478972278e+07 -6.821353032494e+06 3.451986445177e-04 1.540051770332e-03 -4.780258215077e-02 7.941717213778e+06 3.292041218235e+06  4.805021006524e-02
3.400000000000e-01 -2.121387991369e-06 1.010106467717e-03 -6.976925840032e+06 -6.938204773933e+04 -1.029593920368e+07 -6.928977978701e+06 3.448445606308e-04 1.539295212116e-03 -4.786497114027e-02 8.067281007472e+06 3.345404295997e+06  4.811225045893e-02
3.500000000000e-01 -2.121577326349e-06 1.011427646835e-03 -7.081474017466e+06 -6.966545555654e+04 -1.045204168558e+07 -7.033237114358e+06 3.444996736504e-04 1.538647073294e-03 -4.792448007695e-02 8.188917605801e+06 3.397086807438e+06  4.817143077453e-02
3.600000000000e-01 -2.121963044034e-06 1.012657762610e-03 -7.180248525037e+06 -6.986704848954e+04 -1.059948678690e+07 -7.131724324430e+06 3.441623910502e-04 1.538192358017e-03 -4.797986903006e-02 8.303819878790e+06 3.445882311715e+06  4.822652023039e-02
3.700000000000e-01 -2.122528934265e-06 1.013818084921e-03 -7.274706571655e+06 -6.999572566640e+04 -1.074045130025e+07 -7.225893201887e+06 3.438280506946e-04 1.537905701198e-03 -4.803209851397e-02 8.413683691264e+06 3.492512298139e+06  4.827847294628e-02
3.800000000000e-01 -2.123163692906e-06 1.015006526617e-03 -7.372747311877e+06 -7.011076088314e+04 -1.088675576634e+07 -7.323631615113e+06 3.434831644594e-04 1.537652444324e-03 -4.808558839191e-02 8.527711564442e+06 3.540904870190e+06  4.833168222672e-02
3.900000000000e-01 -2.123859163977e-06 1.016159120024e-03 -7.469100858933e+06 -7.019770144375e+04 -1.103053287302e+07 -7.419684673559e+06 3.431449763692e-04 1.537463198762e-03 -4.813745800121e-02 8.639772801836e+06 3.588455863847e+06  4.838328345042e-02
4.000000000000e-01 -2.124569654146e-06 1.017297923747e-03 -7.565542351284e+06 -7.027710397916e+04 -1.117444133652e+07 -7.515825907471e+06 3.428113523470e-04 1.537292319719e-03 -4.818870498334e-02 8.751936531757e+06 3.636050308789e+06  4.843426726758e-02
4.100000000000e-01 -2.125474693339e-06 1.018430538184e-03 -7.662714859905e+06 -7.029027937256e+04 -1.131940802272e+07 -7.612683278248e+06 3.424660790384e-04 1.537263034569e-03 -4.823965953658e-02 8.864935386957e+06 3.683976161544e+06  4.848496689891e-02
4.200000000000e-01 -2.126192388658e-06 1.019533224941e-03 -7.758503432920e+06 -7.035875479541e+04 -1.146235027314e+07 -7.708177727301e+06 3.421472908474e-04 1.537118760784e-03 -4.828928066509e-02 8.976343811119e+06 3.731254998160e+06  4.853433774898e-02
4.300000000000e-01 -2.126959616939e-06 1.020623743375e-03 -7.854421342875e+06 -7.040752708071e+04 -1.160547485601e+07 -7.803797255050e+06 3.418280175918e-04 1.537016533717e-03 -4.833834838555e-02 9.087897817979e+06 3.778588437336e+06  4.858315996632e-02
4.400000000000e-01 -2.127778157133e-06 1.021698386742e-03 -7.950110798265e+06 -7.043406673554e+04 -1.174825019380e+07 -7.899186097803e+06 3.415103508356e-04 1.536960548675e-03 -4.838669704080e-02 9.199182363289e+06 3.825801638525e+06  4.863126957941e-02
4.500000000000e-01 -2.128676674790e-06 1.022758781247e-03 -8.045684679337e+06 -7.042899413718e+04 -1.189083556285e+07 -7.994453101677e+06 3.411901619067e-04 1.536968599995e-03 -4.843439580711e-02 9.310324447956e+06 3.872942533438e+06  4.867873524144e-02
4.600000000000e-01 -2.129577852801e-06 1.023805302819e-03 -8.141138447667e+06 -7.041904704540e+04 -1.203324490254e+07 -8.089602009604e+06 3.408757600891e-04 1.536986046146e-03 -4.848147101528e-02 9.421328453269e+06 3.920026848158e+06  4.872558224065e-02
4.700000000000e-01 -2.130457760755e-06 1.024827204734e-03 -8.235440583139e+06 -7.040913695820e+04 -1.217394075239e+07 -8.183605211258e+06 3.405709630452e-04 1.537003045305e-03 -4.852743877718e-02 9.530995515597e+06 3.966547169721e+06  4.877132840610e-02
4.800000000000e-01 -2.130964456560e-06 1.025847863077e-03 -8.330673923339e+06 -7.053379035487e+04 -1.231612040670e+07 -8.278574741025e+06 3.403037361169e-04 1.536758954887e-03 -4.857338121854e-02 9.641789690356e+06 4.013609540830e+06  4.881704371421e-02
4.900000000000e-01 -2.131618615013e-06 1.026843565397e-03 -8.424664971460e+06 -7.059795536368e+04 -1.245640830735e+07 -8.372290958079e+06 3.400290712834e-04 1.536633285460e-03 -4.861818777592e-02 9.751121412297e+06 4.060025635030e+06  4.886163244492e-02
5.000000000000e-01 -2.132210051413e-06 1.027827775850e-03 -8.518607576842e+06 -7.068265450944e+04 -1.259664213420e+07 -8.465966455360e+06 3.397647976664e-04 1.536469956476e-03 -4.866248198809e-02 9.860405388799e+06 4.106433655148e+06  4.890571144035e-02
5.100000000000e-01 -2.132799239249e-06 1.028793789941e-03 -8.611835111060e+06 -7.076347413896e+04 -1.273581163748e+07 -8.558930462402e+06 3.395068445779e-04 1.536315551891e-03 -4.870595762438e-02 9.968859070314e+06 4.152490966798e+06  4.894897726628e-02
5.200000000000e-01 -2.133374486051e-06 1.029751297635e-03 -8.705249542507e+06 -7.084730746908e+04 -1.287526766689e+07 -8.652084087097e+06 3.392541720031e-04 1.536157074324e-03 -4.874905250685e-02 1.007753376550e+07 4.198647003371e+06  4.899186533318e-02
5.300000000000e-01 -2.133882737583e-06 1.030698588449e-03 -8.798659838990e+06 -7.095440258227e+04 -1.301473644920e+07 -8.745241388030e+06 3.390113848582e-04 1.535957481640e-03 -4.879169336629e-02 1.018621255874e+07 4.244817472805e+06  4.903430132023e-02
5.400000000000e-01 -2.134389327576e-06 1.031638207831e-03 -8.892306194654e+06 -7.106102481003e+04 -1.315456238688e+07 -8.838636184565e+06 3.387724328506e-04 1.535760716571e-03 -4.883399013315e-02 1.029516825537e+07 4.291108558254e+06  4.907639607453e-02
5.500000000000e-01 -2.134824104399e-06 1.032550362498e-03 -8.984163579714e+06 -7.118816862972e+04 -1.329173475270e+07 -8.930254154481e+06 3.385470929174e-04 1.535529077640e-03 -4.887505504163e-02 1.040205082896e+07 4.336530593525e+06  4.911726454010e-02
5.600000000000e-01 -2.135251894396e-06 1.033454558991e-03 -9.076159658530e+06 -7.131652624389e+04 -1.342912037840e+07 -9.022013076550e+06 3.383260321125e-04 1.535297522110e-03 -4.891576433497e-02 1.050909770449e+07 4.382026353900e+06  4.915778022732e-02
5.700000000000e-01 -2.135701382360e-06 1.034349375611e-03 -9.168133590293e+06 -7.143423007579e+04 -1.356647212029e+07 -9.113749738090e+06 3.381070831180e-04 1.535086911783e-03 -4.895605082073e-02 1.061611848289e+07 4.427510199652e+06  4.919787689916e-02
5.800000000000e-01 -2.136103042061e-06 1.035223368258e-03 -9.258864889134e+06 -7.156545734178e+04 -1.370198157535e+07 -9.204252564720e+06 3.378981161014e-04 1.534854773783e-03 -4.899540362005e-02 1.072169967640e+07 4.472391101774e+06  4.923704441921e-02
5.900000000000e-01 -2.136496148195e-06 1.036087569736e-03 -9.349466826812e+06 -7.169828676504e+04 -1.383730420028e+07 -9.294629029140e+06 3.376937759844e-04 1.534622027543e-03 -4.903431865646e-02 1.082713335208e+07 4.517213358430e+06  4.927577723093e-02
6.000000000000e-01 -2.136880820924e-06 1.036936112996e-03 -9.439289709344e+06 -7.183057152337e+04 -1.397146748593e+07 -9.384230231731e+06 3.374947235156e-04 1.534392371873e-03 -4.907252872336e-02 1.093166247567e+07 4.561653776707e+06  4.931380919540e-02
6.100000000000e-01 -2.137285801595e-06 1.037760878530e-03 -9.527429149226e+06 -7.194779868485e+04 -1.410311360114e+07 -9.472151266816e+06 3.373004642878e-04 1.534190308585e-03 -4.910966737826e-02 1.103423133906e+07 4.605258673737e+06  4.935077643688e-02
6.200000000000e-01 -2.137654788109e-06 1.038580148014e-03 -9.615795548565e+06 -7.207876395955e+04 -1.423511150525e+07 -9.560303861365e+06 3.371118376922e-04 1.533966974481e-03 -4.914656312284e-02 1.113707030506e+07 4.648986869828e+06  4.938750209745e-02
6.300000000000e-01 -2.137989160075e-06 1.039378302364e-03 -9.702671730965e+06 -7.221839692112e+04 -1.436489420975e+07 -9.646974332196e+06 3.369318042575e-04 1.533731243848e-03 -4.918251106585e-02 1.123818009097e+07 4.691986870934e+06  4.942328463953e-02
6.400000000000e-01 -2.138383380674e-06 1.040163300919e-03 -9.788893357002e+06 -7.232871453151e+04 -1.449368672777e+07 -9.732986931763e+06 3.367506756340e-04 1.533545790795e-03 -4.921786361500e-02 1.133852233884e+07 4.734651908821e+06  4.945847689472e-02
6.500000000000e-01 -2.138769794027e-06 1.040930514631e-03 -9.873903725445e+06 -7.243710033800e+04 -1.462067365733e+07 -9.817792802375e+06 3.365749410252e-04 1.533365066050e-03 -4.925241614163e-02 1.143745672838e+07 4.776720660128e+06  4.949287355585e-02
6.600000000000e-01 -2.139123890228e-06 1.041679068602e-03 -9.957557702558e+06 -7.255401320802e+04 -1.474564400682e+07 -9.901249477890e+06 3.364066676722e-04 1.533172064817e-03 -4.928613123387e-02 1.153481706242e+07 4.818126395922e+06  4.952643672182e-02
6.700000000000e-01 -2.139510922609e-06 1.042421465640e-03 -1.004123092158e+07 -7.265489855336e+04 -1.487064001146e+07 -9.984724090179e+06 3.362387217121e-04 1.533006297353e-03 -4.931956915598e-02 1.163219834107e+07 4.859538659940e+06  4.955972590744e-02
6.800000000000e-01 -2.139884947747e-06 1.043127112993e-03 -1.012141636666e+07 -7.274913839044e+04 -1.499042598774e+07 -1.006471954382e+07 3.360793537334e-04 1.532852536970e-03 -4.935135118450e-02 1.172552063274e+07 4.899224827180e+06  4.959136713159e-02
6.900000000000e-01 -2.140267427623e-06 1.043815487139e-03 -1.020026210782e+07 -7.283341067428e+04 -1.510820990014e+07 -1.014337823788e+07 3.359236772075e-04 1.532715688747e-03 -4.938235600600e-02 1.181728341528e+07 4.938247106797e+06  4.962223578383e-02
7.000000000000e-01 -2.140691881643e-06 1.044492948800e-03 -1.027846407682e+07 -7.289535112931e+04 -1.522502292857e+07 -1.022139100324e+07 3.357675477942e-04 1.532614818273e-03 -4.941286646933e-02 1.190829266954e+07 4.976942668298e+06  4.965261397056e-02
7.100000000000e-01 -2.141080874573e-06 1.045152962993e-03 -1.035522932826e+07 -7.296736497895e+04 -1.533970008016e+07 -1.029797465129e+07 3.356186465693e-04 1.532499046037e-03 -4.944259503309e-02 1.199763468657e+07 5.014936066032e+06  4.968221372169e-02
7.200000000000e-01 -2.141483835532e-06 1.045790777881e-03 -1.042996219571e+07 -7.302485889549e+04 -1.545133668152e+07 -1.037252903324e+07 3.354734274939e-04 1.532406546812e-03 -4.947132235016e-02 1.208460930349e+07 5.051919595723e+06  4.971081774664e-02
7.300000000000e-01 -2.141864892602e-06 1.046432963875e-03 -1.050575339083e+07 -7.309443322711e+04 -1.556456536504e+07 -1.044814347459e+07 3.353304729393e-04 1.532296095539e-03 -4.950025149121e-02 1.217282074348e+07 5.089436473273e+06  4.973962284674e-02
7.400000000000e-01 -2.142255139215e-06 1.047050136432e-03 -1.057911554992e+07 -7.315047177075e+04 -1.567416112101e+07 -1.052133301429e+07 3.351919056233e-04 1.532207063199e-03 -4.952805240780e-02 1.225820322840e+07 5.125747342552e+06  4.976730559961e-02
7.500000000000e-01 -2.142640186334e-06 1.047661564915e-03 -1.065230346048e+07 -7.320700360613e+04 -1.578350086135e+07 -1.059435032084e+07 3.350558267466e-04 1.532117848508e-03 -4.955559705752e-02 1.234338488089e+07 5.161975603268e+06  4.979473374747e-02
7.600000000000e-01 -2.143049999850e-06 1.048266878815e-03 -1.072526491378e+07 -7.324935131233e+04 -1.589249785615e+07 -1.066713980843e+07 3.349196654203e-04 1.532050461490e-03 -4.958286605248e-02 1.242830085945e+07 5.198087837858e+06  4.982188866271e-02
7.700000000000e-01 -2.143428298423e-06 1.048858268115e-03 -1.079703049090e+07 -7.330171796043e+04 -1.599971765030e+07 -1.073873991754e+07 3.347893795796e-04 1.531968609804e-03 -4.960951106410e-02 1.251182935292e+07 5.233616198444e+06  4.984842217003e-02
7.800000000000e-01 -2.143769097479e-06 1.049439827347e-03 -1.086806946304e+07 -7.336836351369e+04 -1.610586452929e+07 -1.080962006144e+07 3.346649401280e-04 1.531866158552e-03 -4.963571731452e-02 1.259451801792e+07 5.268795709293e+06  4.987451864525e-02
7.900000000000e-01 -2.144139106245e-06 1.050015846892e-03 -1.093890019122e+07 -7.341908520577e+04 -1.621169406913e+07 -1.088028980584e+07 3.345397322825e-04 1.531787733377e-03 -4.966167344380e-02 1.267696135540e+07 5.303866704932e+06  4.990036723302e-02
8.000000000000e-01 -2.144503148966e-06 1.050579342340e-03 -1.100864068907e+07 -7.346765246130e+04 -1.631589662278e+07 -1.094987248898e+07 3.344177439366e-04 1.531712958312e-03 -4.968706652207e-02 1.275813660027e+07 5.338399536734e+06  4.992565558153e-02
8.100000000000e-01 -2.144875987270e-06 1.051127270141e-03 -1.107688675661e+07 -7.350582601849e+04 -1.641786433921e+07 -1.101796328273e+07 3.342984907102e-04 1.531653760896e-03 -4.971175866144e-02 1.283757145952e+07 5.372190594730e+06  4.995024684939e-02
8.200000000000e-01 -2.145234375896e-06 1.051678753410e-03 -1.114600300800e+07 -7.355283368657e+04 -1.652114024853e+07 -1.108692523774e+07 3.341805988556e-04 1.531582099990e-03 -4.973661417817e-02 1.291802283142e+07 5.406419491544e+06  4.997500084321e-02
8.300000000000e-01 -2.145588776608e-06 1.052217657834e-03 -1.121396315726e+07 -7.359667235364e+04 -1.662269028864e+07 -1.115473420801e+07 3.340657704417e-04 1.531515432734e-03 -4.976090418433e-02 1.299712921797e+07 5.440077194810e+06  4.999919217885e-02
8.400000000000e-01 -2.145939090894e-06 1.052748769383e-03 -1.128134910699e+07 -7.363952342452e+04 -1.672338485820e+07 -1.122197110790e+07 3.339532011701e-04 1.531450559858e-03 -4.978484461957e-02 1.307556835770e+07 5.473452694263e+06  5.002303578570e-02
8.500000000000e-01 -2.146286707171e-06 1.053275323421e-03 -1.134855992489e+07 -7.368211170661e+04 -1.682382057365e+07 -1.128903420556e+07 3.338422568797e-04 1.531386408264e-03 -4.980858158387e-02 1.315380490137e+07 5.506743908382e+06  5.004667713577e-02
8.600000000000e-01 -2.146631932444e-06 1.053792490004e-03 -1.141496581313e+07 -7.372191854356e+04 -1.692305515460e+07 -1.135529466459e+07 3.337336483059e-04 1.531326548252e-03 -4.983189682345e-02 1.323110521077e+07 5.539637860066e+06  5.006989897026e-02
8.700000000000e-01 -2.146973458173e-06 1.054303691031e-03 -1.148099067509e+07 -7.376142295187e+04 -1.702172305136e+07 -1.142117582181e+07 3.336269089889e-04 1.531267437268e-03 -4.985494491010e-02 1.330796318275e+07 5.572345414525e+06  5.009285507899e-02
8.800000000000e-01 -2.147295002624e-06 1.054803990532e-03 -1.154597827602e+07 -7.380676326570e+04 -1.711884781246e+07 -1.148602459855e+07 3.335242680754e-04 1.531200560271e-03 -4.987750425237e-02 1.338361689567e+07 5.604545088708e+06  5.011532452703e-02
8.900000000000e-01 -2.147638780599e-06 1.055294023159e-03 -1.160999668429e+07 -7.383624310903e+04 -1.721451686216e+07 -1.154990318817e+07 3.334215935114e-04 1.531156008561e-03 -4.989959992906e-02 1.345813891154e+07 5.636258354297e+06  5.013733302970e-02
9.000000000000e-01 -2.147970951291e-06 1.055785356999e-03 -1.167454225834e+07 -7.387241098161e+04 -1.731098077014e+07 -1.161431035869e+07 3.333204132631e-04 1.531102437490e-03 -4.992175718035e-02 1.353327779572e+07 5.668238860279e+06  5.015940297918e-02
9.100000000000e-01 -2.148285652232e-06 1.056266441448e-03 -1.173809093988e+07 -7.391375297481e+04 -1.740596097892e+07 -1.167772506068e+07 3.332229021250e-04 1.531042101412e-03 -4.994345497464e-02 1.360725899316e+07 5.699730739740e+06  5.018101538495e-02
9.200000000000e-01 -2.148619144664e-06 1.056736779257e-03 -1.180056092642e+07 -7.394021714933e+04 -1.749932301641e+07 -1.174006078181e+07 3.331258104657e-04 1.531002361369e-03 -4.996466746598e-02 1.367998157488e+07 5.730682945644e+06  5.020214530105e-02
9.300000000000e-01 -2.148941770544e-06 1.057208428925e-03 -1.186354033086e+07 -7.397326534276e+04 -1.759345250691e+07 -1.180290701513e+07 3.330299319765e-04 1.530953858152e-03 -4.998594181194e-02 1.375329995096e+07 5.761892887779e+06  5.022333682374e-02
9.400000000000e-01 -2.149255087335e-06 1.057660354092e-03 -1.192420573119e+07 -7.400302164936e+04 -1.768412455582e+07 -1.186344443281e+07 3.329382484991e-04 1.530910130262e-03 -5.000632794864e-02 1.382392490661e+07 5.791957034514e+06  5.024364397121e-02
9.500000000000e-01 -2.149573707331e-06 1.058123631880e-03 -1.198671853734e+07 -7.403451475422e+04 -1.777756104878e+07 -1.192582635212e+07 3.328449314845e-04 1.530864173683e-03 -5.002722789556e-02 1.389670197942e+07 5.822939569790e+06  5.026446320472e-02
9.600000000000e-01 -2.149873947592e-06 1.058571001302e-03 -1.204739839899e+07 -7.406928366157e+04 -1.786826258774e+07 -1.198638087308e+07 3.327559512807e-04 1.530814153964e-03 -5.004741251621e-02 1.396734728661e+07 5.853017730208e+06  5.028456996310e-02
9.700000000000e-01 -2.150194236928e-06 1.059013137272e-03 -1.210767716662e+07 -7.409072025213e+04 -1.795835881352e+07 -1.204653259194e+07 3.326663160953e-04 1.530782051412e-03 -5.006736077210e-02 1.403752285736e+07 5.882892157588e+06  5.030444202148e-02
9.800000000000e-01 -2.150489106615e-06 1.059450592096e-03 -1.216761389496e+07 -7.412422105330e+04 -1.804795307023e+07 -1.210634646832e+07 3.325799292760e-04 1.530734184622e-03 -5.008710101111e-02 1.410730447784e+07 5.912605091096e+06  5.032410657976e-02
9.900000000000e-01 -2.150803649146e-06 1.059882043640e-03 -1.222702537151e+07 -7.414420671703e+04 -1.813675658276e+07 -1.216563370760e+07 3.324930978070e-04 1.530704292321e-03 -5.010657009312e-02 1.417647188729e+07 5.942052864795e+06  5.034350180271e-02
1.000000000000e+00 -2.151095288800e-06 1.060311670814e-03 -1.228647386684e+07 -7.417606393085e+04 -1.822562446886e+07 -1.222496126588e+07 3.324088457745e-04 1.530659009214e-03 -5.012596017457e-02 1.424568653386e+07 5.971526818157e+06  5.036281805694e-02
1.050000000000e+00 -2.152570753461e-06 1.062404901324e-03 -1.252802913801e+07 -7.402010202735e+04 -1.858636883282e+07 -1.246588059169e+07 3.319967825016e-04 1.530480263091e-03 -5.022045841566e-02 1.452675952084e+07 6.091001250302e+06  5.045695993081e-02
1.100000000000e+00 -2.146052034640e-06 1.064614668581e-03 -1.280145436518e+07 -7.501508166538e+04 -1.898328592364e+07 -1.273401280370e+07 3.281907194161e-04 1.528660159160e-03 -5.031816329564e-02 1.483958436417e+07 6.217184567147e+06  5.055244431729e-02
1.150000000000e+00 -2.143834328097e-06 1.066646685162e-03 -1.309134925017e+07 -8.204448113058e+04 -1.940541116247e+07 -1.301881042405e+07 3.249025707995e-04 1.519724305337e-03 -5.040673222495e-02 1.517185694556e+07 6.352231752973e+06  5.063842590421e-02
1.200000000000e+00 -2.157428292239e-06 1.068463198517e-03 -1.335766929504e+07 -8.668242414995e+04 -1.980578751346e+07 -1.328547406005e+07 3.250494129301e-04 1.514314139807e-03 -5.048783624518e-02 1.548297695618e+07 6.486255132867e+06  5.071900777140e-02
1.250000000000e+00 -2.156989024180e-06 1.070110110021e-03 -1.360260021427e+07 -8.653359313396e+04 -2.017177778440e+07 -1.352982402740e+07 3.246897136717e-04 1.514451867577e-03 -5.056053087972e-02 1.576806734202e+07 6.607566435831e+06  5.079143514335e-02
1.300000000000e+00 -2.158061000235e-06 1.071655177870e-03 -1.384284694279e+07 -8.682956453042e+04 -2.053109164854e+07 -1.376962681335e+07 3.244118335606e-04 1.514096425042e-03 -5.063064209560e-02 1.604785513489e+07 6.726835117217e+06  5.086128002165e-02
1.350000000000e+00 -2.158894235077e-06 1.073137361258e-03 -1.407656334202e+07 -8.708093738308e+04 -2.088063272357e+07 -1.400290606855e+07 3.241437045243e-04 1.513794964482e-03 -5.069768701955e-02 1.632003404471e+07 6.842857883304e+06  5.092807280802e-02