 TITLE = "Profiles along polylines"
 VARIABLES = "DIST" "PRESSURE1" "PRESSURE2" "PRESSURE_W" "SATURATION1" SATURATION2 "VELOCITY_X1" "VELOCITY_Y1" "VELOCITY_X2" "VELOCITY_Y2"  p_(1st_Invariant)  q_(2nd_Invariant)   Effective_Strain
 ZONE T="TIME=0.000000000000e+00"
0.000000000000e+00 8.400000000000e+07 1.000000000000e+05 -8.390000000000e+07 6.601393844892e-01 3.398606155108e-01 0.000000000000e+00 0.000000000000e+00 0.000000000000e+00 0.000000000000e+00 1.000000000000e+05 0.000000000000e+00  0.000000000000e+00
5.000000000000e-03 8.400000000000e+07 1.000000000000e+05 -8.390000000000e+07 6.601393844892e-01 3.398606155108e-01 0.000000000000e+00 0.000000000000e+00 0.000000000000e+00 0.000000000000e+00 1.000000000000e+05 0.000000000000e+00  0.000000000000e+00
1.000000000000e-02 8.400000000000e+07 1.000000000000e+05 -8.390000000000e+07 6.601393844892e-01 3.398606155108e-01 0.000000000000e+00 0.000000000000e+00 0.000000000000e+00 0.000000000000e+00 1.000000000000e+05 0.000000000000e+00  0.000000000000e+00
1.500000000000e-02 8.400000000000e+07 1.000000000000e+05 -8.390000000000e+07 6.601393844892e-01 3.398606155108e-01 0.000000000000e+00 0.000000000000e+00 0.000000000000e+00 0.000000000000e+00 1.000000000000e+05 0.000000000000e+00  0.000000000000e+00
2.000000000000e-02 8.400000000000e+07 1.000000000000e+05 -8.390000000000e+07 6.601393844892e-01 3.398606155108e-01 0.000000000000e+00 0.000000000000e+00 0.000000000000e+00 0.000000000000e+00 1.000000000000e+05 0.000000000000e+00  0.000000000000e+00
2.500000000000e-02 8.400000000000e+07 1.000000000000e+05 -8.390000000000e+07 6.601393844892e-01 3.398606155108e-01 0.000000000000e+00 0.000000000000e+00 0.000000000000e+00 0.000000000000e+00 1.000000000000e+05 0.000000000000e+00  0.000000000000e+00
3.000000000000e-02 8.400000000000e+07 1.000000000000e+05 -8.390000000000e+07 6.601393844892e-01 3.398606155108e-01 0.000000000000e+00 0.000000000000e+00 0.000000000000e+00 0.000000000000e+00 1.000000000000e+05 0.000000000000e+00  0.000000000000e+00
3.500000000000e-02 8.400000000000e+07 1.000000000000e+05 -8.390000000000e+07 6.601393844892e-01 3.398606155108e-01 0.000000000000e+00 0.000000000000e+00 0.000000000000e+00 0.000000000000e+00 1.000000000000e+05 0.000000000000e+00  0.000000000000e+00
4.000000000000e-02 8.400000000000e+07 1.000000000000e+05 -8.390000000000e+07 6.601393844892e-01 3.398606155108e-01 0.000000000000e+00 0.000000000000e+00 0.000000000000e+00 0.000000000000e+00 1.000000000000e+05 0.000000000000e+00  0.000000000000e+00
4.500000000000e-02 8.400000000000e+07 1.000000000000e+05 -8.390000000000e+07 6.601393844892e-01 3.398606155108e-01 0.000000000000e+00 0.000000000000e+00 0.000000000000e+00 0.000000000000e+00 1.000000000000e+05 0.000000000000e+00  0.000000000000e+00
5.000000000000e-02 8.400000000000e+07 1.000000000000e+05 -8.390000000000e+07 6.601393844892e-01 3.398606155108e-01 0.000000000000e+00 0.000000000000e+00 0.000000000000e+00 0.000000000000e+00 1.000000000000e+05 0.000000000000e+00  0.000000000000e+00
 TITLE = "Profiles along polylines"
 VARIABLES = "DIST" "PRESSURE1" "PRESSURE2" "PRESSURE_W" "SATURATION1" SATURATION2 "VELOCITY_X1" "VELOCITY_Y1" "VELOCITY_X2" "VELOCITY_Y2"  p_(1st_Invariant)  q_(2nd_Invariant)   Effective_Strain
 ZONE T="TIME=1.000000000000e-02"
0.000000000000e+00 8.399996860436e+07 1.000000000000e+05 -8.389996860436e+07 6.601394589867e-01 3.398605410133e-01 7.254908957862e-11 -1.497342370977e-10 0.000000000000e+00 -1.326074276304e-15 1.781009106624e+06 7.238931277136e+05  4.067813999412e-02
5.000000000000e-03 8.400004005841e+07 1.000000209421e+05 -8.390004003747e+07 6.601392735272e-01 3.398607264728e-01 -8.946964842377e-11 -2.523911500059e-11 1.042511144281e-15 -2.831499688594e-15 1.774997787004e+06 7.215662358302e+05  4.068005821492e-02
1.000000000000e-02 8.399999352293e+07 9.999996415017e+04 -8.389999355878e+07 6.601395502267e-01 3.398604497733e-01 4.745353355613e-10 1.088728162421e-10 -4.965762567565e-15 -1.898918653064e-15 1.780605348192e+06 7.281884592409e+05  4.062630238947e-02
1.500000000000e-02 8.399886971754e+07 9.999977265324e+04 -8.389886994488e+07 6.601443350888e-01 3.398556649112e-01 -1.644806658845e-09 -3.300268372647e-09 2.106696379616e-14 1.529695194670e-14 1.781666602087e+06 7.390765274119e+05  4.090306025220e-02
2.000000000000e-02 8.400956910570e+07 1.000024596425e+05 -8.390956664606e+07 6.601164831098e-01 3.398835168902e-01 -1.219186719032e-08 1.755328865599e-08 3.044066343966e-14 -1.180580485425e-13 1.802723714032e+06 7.481503972899e+05  3.938709252958e-02
2.500000000000e-02 8.396564186852e+07 9.998952175377e+04 -8.386565234676e+07 6.602664499880e-01 3.397335500120e-01 1.340440267783e-07 -4.225476316019e-08 -5.284491925712e-13 4.041587499476e-13 1.760676710796e+06 6.127266339868e+05  3.685388811253e-02
3.000000000000e-02 8.397532882274e+07 1.000209017108e+05 -8.387530792103e+07 6.601234309268e-01 3.398765690732e-01 -7.167285209468e-07 -2.183132138058e-07 2.662612008805e-12 -6.159165665318e-13 1.481421440455e+06 4.531998756333e+05  4.441550624529e-02
3.500000000000e-02 8.531411863907e+07 1.000454380241e+05 -8.521407320105e+07 6.563194165747e-01 3.436805834253e-01 1.760649653948e-06 3.108891238523e-06 -7.073279209544e-12 -1.694658124603e-12 1.968264644211e+06 1.172976776782e+06  8.147195612368e-02
4.000000000000e-02 7.395228666521e+07 9.946658509600e+04 -7.385282008011e+07 6.905353841156e-01 3.094646158844e-01 1.172638865863e-06 -2.225727426278e-05 3.283984496683e-12 9.420178499631e-12 -5.452275673467e+05 2.702853581901e+06  1.816634680627e-01
4.500000000000e-02 1.358488715595e+08 1.016552228726e+05 -1.357472163366e+08 4.854376620526e-01 5.145623379474e-01 -1.292454995943e-05 -2.440523383402e-05 8.358191090892e-11 3.242992734994e-11 7.131181136275e+06 3.076638771219e+06  6.290062628837e-01
5.000000000000e-02 3.520628881626e-314 1.000000000000e+05 1.000000000000e+05 9.835511870692e-01 1.644881293084e-02 0.000000000000e+00 5.327550695556e-04 0.000000000000e+00 6.255026022177e-12 -1.948877559748e+07 3.818111149312e+07  1.199369282387e+00
 TITLE = "Profiles along polylines"
 VARIABLES = "DIST" "PRESSURE1" "PRESSURE2" "PRESSURE_W" "SATURATION1" SATURATION2 "VELOCITY_X1" "VELOCITY_Y1" "VELOCITY_X2" "VELOCITY_Y2"  p_(1st_Invariant)  q_(2nd_Invariant)   Effective_Strain
 ZONE T="TIME=1.000000000000e-01"
0.000000000000e+00 8.400002045983e+07 1.000000000000e+05 -8.390002045983e+07 6.601393318250e-01 3.398606681750e-01 -3.237441169093e-11 -5.027906217803e-12 0.000000000000e+00 1.077308797386e-15 4.727744023852e+06 2.032356589685e+06  4.339492572028e-02
5.000000000000e-03 8.399997554421e+07 1.000000886923e+05 -8.389997545552e+07 6.601394521226e-01 3.398605478774e-01 3.144367557325e-11 -8.739391249467e-11 5.715391417888e-15 -4.893614792722e-15 4.593301679270e+06 1.926128332862e+06  4.330079678393e-02
1.000000000000e-02 8.400004577141e+07 9.999991639834e+04 -8.390004585501e+07 6.601391971416e-01 3.398608028584e-01 -2.011951632603e-10 -1.721254510687e-11 -2.509613933878e-14 -6.226094307453e-15 4.646625186989e+06 1.974892369779e+06  4.322647832404e-02
1.500000000000e-02 8.400018621790e+07 9.999836166068e+04 -8.390018785624e+07 6.601383288290e-01 3.398616711710e-01 1.113996536936e-09 2.404405838072e-10 1.017458093750e-13 1.237093406479e-13 4.648187957646e+06 1.974021328923e+06  4.351704857929e-02
2.000000000000e-02 8.399762248907e+07 1.000150756818e+05 -8.389760741339e+07 6.601457683691e-01 3.398542316309e-01 -3.823890856629e-09 -3.679488349338e-09 2.956241335538e-13 -7.599161237200e-13 4.674770346068e+06 2.055154836738e+06  4.222959816062e-02
2.500000000000e-02 8.401494401170e+07 9.993791193638e+04 -8.391500609976e+07 6.600957764447e-01 3.399042235553e-01 2.498116677071e-08 3.062048525912e-08 -3.879162011050e-12 2.578069295810e-12 5.029139106777e+06 2.619573636281e+06  4.100054862603e-02
3.000000000000e-02 8.389324657784e+07 1.001026181693e+05 -8.379314395967e+07 6.604371421827e-01 3.395628578173e-01 -1.598130115405e-07 -3.064822775012e-07 1.978458366628e-11 -2.892610858155e-12 4.877251345812e+06 2.239181467367e+06  4.850904731449e-02
3.500000000000e-02 8.489945259215e+07 1.005228943088e+05 -8.479892969784e+07 6.575588018243e-01 3.424411981757e-01 1.842675300800e-07 2.610542779422e-06 -5.582136875571e-11 -1.967897330041e-11 4.896895957984e+06 1.838346993380e+06  7.398346328320e-02
4.000000000000e-02 7.762220020140e+07 9.521633586906e+04 -7.752698386553e+07 6.786441088509e-01 3.213558911491e-01 2.804874063162e-06 -1.792447908042e-05 3.401640468874e-11 1.027475904120e-10 1.121486686056e+05 4.025799943520e+06  1.568128170840e-01
4.500000000000e-02 1.199609693471e+08 1.162857359267e+05 -1.198446836111e+08 5.342592223988e-01 4.657407776012e-01 -1.285716987092e-05 -5.215845253868e-06 7.017659196115e-10 2.632120470384e-10 5.059712648287e+06 1.283686363944e+07  6.433451355891e-01
5.000000000000e-02 3.520628881626e-314 1.000000000000e+05 1.000000000000e+05 9.908030086732e-01 9.196991326809e-03 0.000000000000e+00 4.847358297623e-04 0.000000000000e+00 5.472246429487e-11 -7.844346738085e+06 6.548829170762e+07  1.988337552551e+00
 TITLE = "Profiles along polylines"
 VARIABLES = "DIST" "PRESSURE1" "PRESSURE2" "PRESSURE_W" "SATURATION1" SATURATION2 "VELOCITY_X1" "VELOCITY_Y1" "VELOCITY_X2" "VELOCITY_Y2"  p_(1st_Invariant)  q_(2nd_Invariant)   Effective_Strain
 ZONE T="TIME=1.000000000000e+00"
0.000000000000e+00 8.400002526668e+07 1.000000000000e+05 -8.390002526668e+07 6.601393102600e-01 3.398606897400e-01 -3.191377565922e-11 -2.172203644524e-11 0.000000000000e+00 7.221220757169e-16 1.445990069295e+07 6.276043302112e+06  4.830227497017e-02
5.000000000000e-03 8.399999377393e+07 1.000000786819e+05 -8.389999369525e+07 6.601393951241e-01 3.398606048759e-01 3.361675702087e-11 -6.970102028529e-11 5.157524124695e-15 -6.115899143973e-15 1.440662213696e+07 6.088564867863e+06  4.797094906918e-02
1.000000000000e-02 8.400000473192e+07 9.999983050698e+04 -8.390000490141e+07 6.601393451031e-01 3.398606548969e-01 -1.874116549122e-10 4.771723975883e-11 -2.970392944219e-14 1.023210170577e-15 1.441388733965e+07 6.190028728205e+06  4.795861373265e-02
1.500000000000e-02 8.400010966869e+07 9.999873835220e+04 -8.390011093034e+07 6.601386706867e-01 3.398613293133e-01 1.234314012425e-09 -9.349367660312e-10 1.620822766178e-13 8.071333560662e-14 1.441053770665e+07 6.187709114649e+06  4.830343101849e-02
2.000000000000e-02 8.399958051094e+07 1.000149010146e+05 -8.389956560992e+07 6.601425731803e-01 3.398574268197e-01 -6.678954527627e-09 5.821340564850e-09 1.727730992951e-14 -6.788823053849e-13 1.445100165021e+07 6.328226069147e+06  4.705528284285e-02
2.500000000000e-02 8.399826725339e+07 9.993055320435e+04 -8.389833670018e+07 6.601402825186e-01 3.398597174814e-01 3.122097233582e-08 -4.975627042696e-08 -4.493218635115e-12 1.660941197298e-12 1.520835190776e+07 7.335609393518e+06  4.611493966155e-02
3.000000000000e-02 8.405143568231e+07 1.000451748543e+05 -8.395139050746e+07 6.600356911240e-01 3.399643088760e-01 -9.844248500723e-08 4.315360616934e-07 3.559867923989e-11 1.624941837702e-11 1.497034832476e+07 6.711237185712e+06  5.369646487420e-02
3.500000000000e-02 8.329785509431e+07 1.023846062273e+05 -8.319547048808e+07 6.620629589682e-01 3.379370410318e-01 2.133818964102e-07 -2.741766060759e-06 -1.346487078950e-10 -2.104551724120e-10 1.438635986202e+07 4.889295821346e+06  7.655159347227e-02
4.000000000000e-02 8.934877922326e+07 7.721264323681e+04 -8.927156658003e+07 6.435804835460e-01 3.564195164540e-01 2.174594548753e-06 8.528049073242e-06 4.267393892971e-10 1.570569740557e-09 1.219107287421e+07 4.091170023400e+06  1.453600748378e-01
4.500000000000e-02 6.135815098523e+07 2.356811597090e+05 -6.112246982552e+07 7.603568773292e-01 2.396431226708e-01 6.184752287495e-06 9.005082886072e-05 2.652226579761e-09 1.527177079667e-09 4.322847518639e+04 1.067883083389e+07  6.550455253642e-01
5.000000000000e-02 3.520628881626e-314 1.000000000000e+05 1.000000000000e+05 1.000000000000e+00 0.000000000000e+00 0.000000000000e+00 2.651546318856e-04 0.000000000000e+00 1.670739008054e-10 6.391856408396e+06 6.554135590988e+07  2.033917038595e+00
 TITLE = "Profiles along polylines"
 VARIABLES = "DIST" "PRESSURE1" "PRESSURE2" "PRESSURE_W" "SATURATION1" SATURATION2 "VELOCITY_X1" "VELOCITY_Y1" "VELOCITY_X2" "VELOCITY_Y2"  p_(1st_Invariant)  q_(2nd_Invariant)   Effective_Strain
 ZONE T="TIME=5.000000000000e+00"
0.000000000000e+00 8.400005907801e+07 1.000000000000e+05 -8.390005907801e+07 6.601391983472e-01 3.398608016528e-01 -7.000594985414e-12 4.623620160940e-11 0.000000000000e+00 -5.373052910413e-15 2.792759112156e+07 1.211210354099e+07  5.099932800063e-02
5.000000000000e-03 8.399997273103e+07 9.999990685225e+04 -8.389997282417e+07 6.601394436000e-01 3.398605564000e-01 -5.073996992925e-11 -1.358647785726e-10 -4.630927855069e-15 -1.962089156983e-15 2.785516353939e+07 1.182486736050e+07  5.063017096890e-02
1.000000000000e-02 8.400030110695e+07 1.000000443096e+05 -8.390030106264e+07 6.601384189570e-01 3.398615810430e-01 2.739382450263e-10 -1.377321020020e-10 3.132046495719e-14 -1.809303283342e-14 2.786463067524e+07 1.197627522599e+07  5.063880058694e-02
1.500000000000e-02 8.399939975502e+07 1.000004097658e+05 -8.389939934526e+07 6.601410410593e-01 3.398589589407e-01 -1.652185504305e-10 7.233248524755e-09 -1.706276962694e-13 2.499809750538e-13 2.785601559394e+07 1.197029197065e+07  5.098307509706e-02
2.000000000000e-02 8.398853946582e+07 1.000060207757e+05 -8.388853344505e+07 6.601654168930e-01 3.398345831070e-01 -1.071919680654e-08 -4.083724328835e-08 4.755504811181e-13 -9.424325110955e-13 2.789237128391e+07 1.217098613865e+07  4.977386855883e-02
2.500000000000e-02 8.409366674526e+07 9.996337833547e+04 -8.399370336693e+07 6.597836044452e-01 3.402163955548e-01 4.465810023545e-08 -1.813201020415e-07 -2.772677253831e-12 -9.521394960748e-12 2.902572924131e+07 1.351436888117e+07  4.885931457310e-02
3.000000000000e-02 8.420688201454e+07 9.925641258033e+04 -8.410762560195e+07 6.599016610441e-01 3.400983389559e-01 4.861450701796e-07 2.284198059581e-06 3.504653245697e-11 1.110885269533e-10 2.875495494980e+07 1.262398130161e+07  5.642757747505e-02
3.500000000000e-02 7.930618290020e+07 1.093087196248e+05 -7.919687418058e+07 6.796392185089e-01 3.203607814911e-01 9.436818076346e-07 1.650919893094e-05 3.440917373257e-11 2.533210945146e-10 2.669772852505e+07 9.843101396814e+06  7.883957630718e-02
4.000000000000e-02 5.808291989301e+07 1.089628775953e+05 -5.797395701542e+07 7.685147226212e-01 2.314852773788e-01 7.719876772391e-07 5.149747788250e-05 9.922042513938e-10 5.133427334970e-09 1.711457416102e+07 3.912099459630e+06  1.440706923358e-01
4.500000000000e-02 2.798099135953e+07 6.107646715861e+05 -2.737022668795e+07 9.172694587154e-01 8.273054128461e-02 1.203856684091e-06 9.547266907937e-05 3.789361525922e-09 1.500770742595e-09 -2.084783280668e+06 1.146069237420e+07  6.527359982377e-01
5.000000000000e-02 3.520628881626e-314 1.000000000000e+05 1.000000000000e+05 1.000000000000e+00 0.000000000000e+00 0.000000000000e+00 1.190564186363e-04 0.000000000000e+00 4.224810907898e-10 2.863406798213e+07 7.635839554126e+07  2.038261025495e+00
 TITLE = "Profiles along polylines"
 VARIABLES = "DIST" "PRESSURE1" "PRESSURE2" "PRESSURE_W" "SATURATION1" SATURATION2 "VELOCITY_X1" "VELOCITY_Y1" "VELOCITY_X2" "VELOCITY_Y2"  p_(1st_Invariant)  q_(2nd_Invariant)   Effective_Strain
 ZONE T="TIME=1.000000000000e+01"
0.000000000000e+00 8.399999234282e+07 1.000000000000e+05 -8.389999234282e+07 6.601394691703e-01 3.398605308297e-01 -5.383949801454e-11 1.200247976171e-10 0.000000000000e+00 3.690347051855e-15 3.605671456453e+07 1.563222626755e+07  5.203205970022e-02
5.000000000000e-03 8.399984688042e+07 1.000001651112e+05 -8.389984671531e+07 6.601396188298e-01 3.398603811702e-01 -4.433367318227e-10 -1.224308783453e-09 -1.944625271391e-14 -4.128120041797e-14 3.597864466272e+07 1.529698944133e+07  5.165120650509e-02
1.000000000000e-02 8.400281518078e+07 9.999674503050e+04 -8.390281843575e+07 6.601281605622e-01 3.398718394378e-01 -6.106266307180e-10 -9.354068120717e-09 9.365250217297e-15 -2.677026160248e-13 3.598438870550e+07 1.546686277372e+07  5.166502192498e-02
1.500000000000e-02 8.401588494825e+07 9.998615114959e+04 -8.391589879710e+07 6.600719301444e-01 3.399280698556e-01 1.722921179352e-08 4.309549984678e-08 3.842737288418e-13 1.070849593205e-12 3.598064722208e+07 1.545726789008e+07  5.200847128780e-02
2.000000000000e-02 8.389871237363e+07 1.000823392214e+05 -8.379863003441e+07 6.606579057949e-01 3.393420942051e-01 1.089628491958e-07 7.573783168106e-07 3.153290164286e-12 2.515672352321e-11 3.596200939595e+07 1.564198843681e+07  5.079578683186e-02
2.500000000000e-02 8.256282506985e+07 1.017130199873e+05 -8.246111204986e+07 6.660537361941e-01 3.339462638059e-01 3.373192207283e-07 4.264220803429e-06 1.834903147886e-11 1.264633978868e-10 3.678152519936e+07 1.682157554060e+07  4.982059906071e-02
3.000000000000e-02 7.653391335198e+07 1.082565549395e+05 -7.642565679704e+07 6.895386664263e-01 3.104613335737e-01 5.357502286381e-07 1.423937602579e-05 -9.599801664019e-12 5.167865478884e-10 3.477804802217e+07 1.495981217633e+07  5.716121496669e-02
3.500000000000e-02 6.173079723190e+07 1.359102582991e+05 -6.159488697360e+07 7.513191294065e-01 2.486808705935e-01 4.628888698680e-07 3.320871131066e-05 3.566146756451e-10 1.098537663654e-09 2.956463701554e+07 1.022443654138e+07  7.894516812574e-02
4.000000000000e-02 4.038607896129e+07 2.104613009539e+05 -4.017561766033e+07 8.521482569538e-01 1.478517430462e-01 1.086894812497e-07 5.754189725432e-05 7.399230220296e-10 6.059960549647e-09 1.919816602051e+07 2.456158832211e+06  1.449764684997e-01
4.500000000000e-02 1.963441480999e+07 8.717566959053e+05 -1.876265811408e+07 9.526542300390e-01 4.734576996098e-02 1.468758543613e-07 7.399142599616e-05 3.636055594806e-09 5.665625522500e-10 2.630656466202e+06 1.003007350492e+07  6.533878448050e-01
5.000000000000e-02 3.520628881626e-314 1.000000000000e+05 1.000000000000e+05 1.000000000000e+00 0.000000000000e+00 0.000000000000e+00 8.162155563943e-05 0.000000000000e+00 5.024470518520e-10 4.201990545166e+07 8.067049662132e+07  2.039235123144e+00
 ZONE T="TIME=1.800000000000e+01"
0.000000000000e+00 8.398995472618e+07 1.000000000000e+05 -8.388995472618e+07 6.601822697751e-01 3.398177302249e-01 1.516922593758e-08 4.201481687381e-08 0.000000000000e+00 1.724270303389e-12 4.397626002497e+07 1.906012978119e+07  5.283432858589e-02
5.000000000000e-03 8.395615392793e+07 1.000486473478e+05 -8.385610528058e+07 6.603231689989e-01 3.396768310011e-01 1.750910204141e-08 1.326196688714e-07 4.234028310479e-13 4.170347966272e-12 4.388281586341e+07 1.867432129708e+07  5.244335514922e-02
1.000000000000e-02 8.373332447141e+07 1.002877996298e+05 -8.363303667178e+07 6.611807110934e-01 3.388192889066e-01 4.383262520700e-08 6.281852801587e-07 1.336150653619e-12 1.945700247598e-11 4.381653472318e+07 1.882672252398e+07  5.245380598597e-02
1.500000000000e-02 8.284092278702e+07 1.012689014039e+05 -8.273965388561e+07 6.641580386177e-01 3.358419613823e-01 1.321644382915e-07 2.236628136778e-06 4.964346288715e-12 7.030884914160e-11 4.358775565116e+07 1.869598698676e+07  5.277167381824e-02
2.000000000000e-02 7.999414319572e+07 1.045798948771e+05 -7.988956330084e+07 6.751489729598e-01 3.248510270402e-01 2.655627982261e-07 6.119550778088e-06 9.060111011272e-12 1.953195854425e-10 4.276127507063e+07 1.846038501513e+07  5.147110072602e-02
2.500000000000e-02 7.324506720792e+07 1.135047848876e+05 -7.313156242303e+07 7.025265278745e-01 2.974734721255e-01 3.502041403835e-07 1.371242210721e-05 3.358066854553e-11 4.492197393601e-10 4.189237622644e+07 1.870058234863e+07  5.028187583837e-02
3.000000000000e-02 6.135241353997e+07 1.371319973967e+05 -6.121528154257e+07 7.523238720762e-01 2.476761279238e-01 2.999974935122e-07 2.536029295823e-05 -1.612345190870e-11 9.031264569250e-10 3.786242673317e+07 1.560464500114e+07  5.734771968286e-02
3.500000000000e-02 4.568204134028e+07 1.815048729134e+05 -4.550053646737e+07 8.253302967596e-01 1.746697032404e-01 7.285257956053e-08 3.924992659304e-05 5.536895588582e-10 2.096117906946e-09 3.175335561067e+07 9.371566169071e+06  7.868710412441e-02
4.000000000000e-02 2.944400865629e+07 4.256552082617e+05 -2.901835344803e+07 9.052043794595e-01 9.479562054049e-02 -1.595113941756e-07 5.097111453250e-05 4.821727994116e-10 7.231547033750e-09 2.315145021099e+07 2.419055970055e+06  1.459552185426e-01
4.500000000000e-02 1.471406746298e+07 9.879687100831e+05 -1.372609875289e+07 9.704124496987e-01 2.958755030126e-02 -1.529065184290e-08 5.675417362650e-05 1.607405043411e-09 -1.050032957048e-09 1.101097588292e+07 7.121256882383e+06  6.535617198855e-01
5.000000000000e-02 3.520628881626e-314 1.000000000000e+05 1.000000000000e+05 1.000000000000e+00 0.000000000000e+00 0.000000000000e+00 5.982146178943e-05 0.000000000000e+00 3.957643381854e-10 5.169034505805e+07 8.008562172292e+07  2.038812689022e+00
