VARIABLES  = "X","Y","Z", "DISPLACEMENT_X1", "DISPLACEMENT_Y1", "STRESS_XX", "STRESS_XY", "STRESS_YY", "STRESS_ZZ", "STRAIN_XX", "STRAIN_XY", "STRAIN_YY"
ZONE T="0.000000000000e+00s", N=32, E=38, F=FEPOINT, ET=QUADRILATERAL
STRANDID=1, SOLUTIONTIME=0.000000000000e+00
1.000000000000e-02 0.000000000000e+00 5.000000000000e-02 0.000000000000e+00 0.000000000000e+00 -1.000000000000e+05 0.000000000000e+00 -1.000000000000e+05 -1.000000000000e+05 0.000000000000e+00 0.000000000000e+00 0.000000000000e+00 
1.000000000000e-02 0.000000000000e+00 4.500000000000e-02 0.000000000000e+00 0.000000000000e+00 -1.000000000000e+05 0.000000000000e+00 -1.000000000000e+05 -1.000000000000e+05 0.000000000000e+00 0.000000000000e+00 0.000000000000e+00 
5.000000000000e-03 0.000000000000e+00 5.000000000000e-02 0.000000000000e+00 0.000000000000e+00 -1.000000000000e+05 0.000000000000e+00 -1.000000000000e+05 -1.000000000000e+05 0.000000000000e+00 0.000000000000e+00 0.000000000000e+00 
5.000000000000e-03 0.000000000000e+00 4.300000000000e-02 0.000000000000e+00 0.000000000000e+00 -1.000000000000e+05 0.000000000000e+00 -1.000000000000e+05 -1.000000000000e+05 0.000000000000e+00 0.000000000000e+00 0.000000000000e+00 
1.000000000000e-02 0.000000000000e+00 4.000000000000e-02 0.000000000000e+00 0.000000000000e+00 -1.000000000000e+05 0.000000000000e+00 -1.000000000000e+05 -1.000000000000e+05 0.000000000000e+00 0.000000000000e+00 0.000000000000e+00 
0.000000000000e+00 0.000000000000e+00 5.000000000000e-02 0.000000000000e+00 0.000000000000e+00 -1.000000000000e+05 0.000000000000e+00 -1.000000000000e+05 -1.000000000000e+05 0.000000000000e+00 0.000000000000e+00 0.000000000000e+00 
0.000000000000e+00 0.000000000000e+00 4.500000000000e-02 0.000000000000e+00 0.000000000000e+00 -1.000000000000e+05 0.000000000000e+00 -1.000000000000e+05 -1.000000000000e+05 0.000000000000e+00 0.000000000000e+00 0.000000000000e+00 
6.000000000000e-03 0.000000000000e+00 3.800000000000e-02 0.000000000000e+00 0.000000000000e+00 -1.000000000000e+05 0.000000000000e+00 -1.000000000000e+05 -1.000000000000e+05 0.000000000000e+00 0.000000000000e+00 0.000000000000e+00 
0.000000000000e+00 0.000000000000e+00 4.000000000000e-02 0.000000000000e+00 0.000000000000e+00 -1.000000000000e+05 0.000000000000e+00 -1.000000000000e+05 -1.000000000000e+05 0.000000000000e+00 0.000000000000e+00 0.000000000000e+00 
1.000000000000e-02 0.000000000000e+00 3.500000000000e-02 0.000000000000e+00 0.000000000000e+00 -1.000000000000e+05 0.000000000000e+00 -1.000000000000e+05 -1.000000000000e+05 0.000000000000e+00 0.000000000000e+00 0.000000000000e+00 
0.000000000000e+00 0.000000000000e+00 3.500000000000e-02 0.000000000000e+00 0.000000000000e+00 -1.000000000000e+05 0.000000000000e+00 -1.000000000000e+05 -1.000000000000e+05 0.000000000000e+00 0.000000000000e+00 0.000000000000e+00 
4.000000000000e-03 0.000000000000e+00 3.300000000000e-02 0.000000000000e+00 0.000000000000e+00 -1.000000000000e+05 0.000000000000e+00 -1.000000000000e+05 -1.000000000000e+05 0.000000000000e+00 0.000000000000e+00 0.000000000000e+00 
1.000000000000e-02 0.000000000000e+00 3.000000000000e-02 0.000000000000e+00 0.000000000000e+00 -1.000000000000e+05 0.000000000000e+00 -1.000000000000e+05 -1.000000000000e+05 0.000000000000e+00 0.000000000000e+00 0.000000000000e+00 
0.000000000000e+00 0.000000000000e+00 3.000000000000e-02 0.000000000000e+00 0.000000000000e+00 -1.000000000000e+05 0.000000000000e+00 -1.000000000000e+05 -1.000000000000e+05 0.000000000000e+00 0.000000000000e+00 0.000000000000e+00 
4.000000000000e-03 0.000000000000e+00 2.800000000000e-02 0.000000000000e+00 0.000000000000e+00 -1.000000000000e+05 0.000000000000e+00 -1.000000000000e+05 -1.000000000000e+05 0.000000000000e+00 0.000000000000e+00 0.000000000000e+00 
1.000000000000e-02 0.000000000000e+00 2.500000000000e-02 0.000000000000e+00 0.000000000000e+00 -1.000000000000e+05 0.000000000000e+00 -1.000000000000e+05 -1.000000000000e+05 0.000000000000e+00 0.000000000000e+00 0.000000000000e+00 
0.000000000000e+00 0.000000000000e+00 2.500000000000e-02 0.000000000000e+00 0.000000000000e+00 -1.000000000000e+05 0.000000000000e+00 -1.000000000000e+05 -1.000000000000e+05 0.000000000000e+00 0.000000000000e+00 0.000000000000e+00 
4.000000000000e-03 0.000000000000e+00 2.300000000000e-02 0.000000000000e+00 0.000000000000e+00 -1.000000000000e+05 0.000000000000e+00 -1.000000000000e+05 -1.000000000000e+05 0.000000000000e+00 0.000000000000e+00 0.000000000000e+00 
1.000000000000e-02 0.000000000000e+00 2.000000000000e-02 0.000000000000e+00 0.000000000000e+00 -1.000000000000e+05 0.000000000000e+00 -1.000000000000e+05 -1.000000000000e+05 0.000000000000e+00 0.000000000000e+00 0.000000000000e+00 
0.000000000000e+00 0.000000000000e+00 2.000000000000e-02 0.000000000000e+00 0.000000000000e+00 -1.000000000000e+05 0.000000000000e+00 -1.000000000000e+05 -1.000000000000e+05 0.000000000000e+00 0.000000000000e+00 0.000000000000e+00 
4.000000000000e-03 0.000000000000e+00 1.800000000000e-02 0.000000000000e+00 0.000000000000e+00 -1.000000000000e+05 0.000000000000e+00 -1.000000000000e+05 -1.000000000000e+05 0.000000000000e+00 0.000000000000e+00 0.000000000000e+00 
1.000000000000e-02 0.000000000000e+00 1.500000000000e-02 0.000000000000e+00 0.000000000000e+00 -1.000000000000e+05 0.000000000000e+00 -1.000000000000e+05 -1.000000000000e+05 0.000000000000e+00 0.000000000000e+00 0.000000000000e+00 
0.000000000000e+00 0.000000000000e+00 1.500000000000e-02 0.000000000000e+00 0.000000000000e+00 -1.000000000000e+05 0.000000000000e+00 -1.000000000000e+05 -1.000000000000e+05 0.000000000000e+00 0.000000000000e+00 0.000000000000e+00 
4.000000000000e-03 0.000000000000e+00 1.300000000000e-02 0.000000000000e+00 0.000000000000e+00 -1.000000000000e+05 0.000000000000e+00 -1.000000000000e+05 -1.000000000000e+05 0.000000000000e+00 0.000000000000e+00 0.000000000000e+00 
1.000000000000e-02 0.000000000000e+00 1.000000000000e-02 0.000000000000e+00 0.000000000000e+00 -1.000000000000e+05 0.000000000000e+00 -1.000000000000e+05 -1.000000000000e+05 0.000000000000e+00 0.000000000000e+00 0.000000000000e+00 
0.000000000000e+00 0.000000000000e+00 1.000000000000e-02 0.000000000000e+00 0.000000000000e+00 -1.000000000000e+05 0.000000000000e+00 -1.000000000000e+05 -1.000000000000e+05 0.000000000000e+00 0.000000000000e+00 0.000000000000e+00 
5.000000000000e-03 0.000000000000e+00 7.000000000000e-03 0.000000000000e+00 0.000000000000e+00 -1.000000000000e+05 0.000000000000e+00 -1.000000000000e+05 -1.000000000000e+05 0.000000000000e+00 0.000000000000e+00 0.000000000000e+00 
1.000000000000e-02 0.000000000000e+00 5.000000000000e-03 0.000000000000e+00 0.000000000000e+00 -1.000000000000e+05 0.000000000000e+00 -1.000000000000e+05 -1.000000000000e+05 0.000000000000e+00 0.000000000000e+00 0.000000000000e+00 
0.000000000000e+00 0.000000000000e+00 5.000000000000e-03 0.000000000000e+00 0.000000000000e+00 -1.000000000000e+05 0.000000000000e+00 -1.000000000000e+05 -1.000000000000e+05 0.000000000000e+00 0.000000000000e+00 0.000000000000e+00 
1.000000000000e-02 0.000000000000e+00 0.000000000000e+00 0.000000000000e+00 0.000000000000e+00 -1.000000000000e+05 0.000000000000e+00 -1.000000000000e+05 -1.000000000000e+05 0.000000000000e+00 0.000000000000e+00 0.000000000000e+00 
5.000000000000e-03 0.000000000000e+00 0.000000000000e+00 0.000000000000e+00 0.000000000000e+00 -1.000000000000e+05 0.000000000000e+00 -1.000000000000e+05 -1.000000000000e+05 0.000000000000e+00 0.000000000000e+00 0.000000000000e+00 
0.000000000000e+00 0.000000000000e+00 0.000000000000e+00 0.000000000000e+00 0.000000000000e+00 -1.000000000000e+05 0.000000000000e+00 -1.000000000000e+05 -1.000000000000e+05 0.000000000000e+00 0.000000000000e+00 0.000000000000e+00 
14  17  15  14
15  17  18  15
18  17  20  18
14  15  12  14
30  28  31  30
12  15  13  12
18  20  21  18
21  20  23  21
18  21  19  18
21  23  24  21
24  23  26  24
21  24  22  21
5  2  4  5
4  2  3  4
5  4  8  5
8  4  9  8
5  8  10  5
24  26  27  24
27  26  29  27
24  27  25  24
10  8  12  10
27  29  31  27
19  16  18  19
6  7  3  6
25  22  24  25
1  3  2  1
13  10  12  13
9  11  8  9
32  31  29  32
15  18  16  15
14  12  11  14
11  12  8  11
28  25  27  28
7  9  4  7
16  13  15  16
22  19  21  22
7  4  3  7
28  27  31  28
VARIABLES  = "X","Y","Z", "DISPLACEMENT_X1", "DISPLACEMENT_Y1", "STRESS_XX", "STRESS_XY", "STRESS_YY", "STRESS_ZZ", "STRAIN_XX", "STRAIN_XY", "STRAIN_YY"
ZONE T="1.000000000000e-03s", N=32, E=38, F=FEPOINT, ET=QUADRILATERAL
STRANDID=1, SOLUTIONTIME=1.000000000000e-03
1.000000000000e-02 0.000000000000e+00 5.000000000000e-02 0.000000000000e+00 0.000000000000e+00 -1.157019950871e+05 -3.953254657189e-01 -1.235552132293e+05 -1.157028990006e+05 8.731523184888e-08 -7.610126987195e-08 -7.573731025254e-04 
1.000000000000e-02 0.000000000000e+00 4.500000000000e-02 0.000000000000e+00 3.793098233667e-06 -1.156177417651e+05 -2.607320081060e+00 -1.234140786852e+05 -1.156127020024e+05 -4.833226933198e-07 -4.923299352441e-07 -7.597695469797e-04 
5.000000000000e-03 0.000000000000e+00 5.000000000000e-02 -4.437523666508e-11 0.000000000000e+00 -1.157019887241e+05 1.620619757048e-02 -1.235549059819e+05 -1.157027344521e+05 7.212054798306e-08 3.054303981289e-09 -7.579210642671e-04 
5.000000000000e-03 0.000000000000e+00 4.300000000000e-02 -1.346233596047e-10 5.312173764002e-06 -1.158275854752e+05 -2.343694055684e+00 -1.237317070565e+05 -1.158238262798e+05 -3.453441377838e-07 -4.407596478991e-07 -7.587001626892e-04 
1.000000000000e-02 0.000000000000e+00 4.000000000000e-02 0.000000000000e+00 7.606971698756e-06 -1.160675397728e+05 1.936247423816e+01 -1.241863459671e+05 -1.161015156853e+05 3.253178016111e-06 3.653734999387e-06 -7.667858048398e-04 
0.000000000000e+00 0.000000000000e+00 5.000000000000e-02 0.000000000000e+00 0.000000000000e+00 -1.157019907894e+05 4.584593624552e-01 -1.235550202041e+05 -1.157028244613e+05 8.057684368498e-08 8.823020825424e-08 -7.573001074421e-04 
0.000000000000e+00 0.000000000000e+00 4.500000000000e-02 0.000000000000e+00 3.793273861149e-06 -1.157016944584e+05 1.754684498791e+00 -1.235415394529e+05 -1.156972634372e+05 -4.290371907861e-07 3.397278084660e-07 -7.601543989938e-04 
6.000000000000e-03 0.000000000000e+00 3.800000000000e-02 -5.686562282569e-09 9.134059995160e-06 -1.163859009300e+05 3.809883511810e+00 -1.245208295196e+05 -1.163621297467e+05 -2.261959504223e-06 6.913190488794e-07 -7.711699175025e-04 
0.000000000000e+00 0.000000000000e+00 4.000000000000e-02 0.000000000000e+00 7.601631297205e-06 -1.160667522421e+05 -1.008116007941e+01 -1.241505331885e+05 -1.160869709194e+05 1.919367988013e-06 -1.931102050923e-06 -7.637323475512e-04 
1.000000000000e-02 0.000000000000e+00 3.500000000000e-02 0.000000000000e+00 1.138849701629e-05 -1.153673741040e+05 -8.597614511484e+01 -1.229876872312e+05 -1.153437254553e+05 -2.361900560653e-06 -1.644167212804e-05 -7.328365284498e-04 
0.000000000000e+00 0.000000000000e+00 3.500000000000e-02 0.000000000000e+00 1.138546708774e-05 -1.156578780703e+05 8.863530425527e+01 -1.232129319568e+05 -1.155494136903e+05 -1.017674053510e-05 1.695921305432e-05 -7.353066751213e-04 
4.000000000000e-03 0.000000000000e+00 3.300000000000e-02 -2.225720578492e-08 1.296181710326e-05 -1.152851848680e+05 9.516758159731e+01 -1.237621461382e+05 -1.156206432894e+05 3.182294888350e-05 1.808913196936e-05 -7.693592309920e-04 
1.000000000000e-02 0.000000000000e+00 3.000000000000e-02 0.000000000000e+00 1.545222093526e-05 -1.198857530104e+05 2.307750871675e+02 -1.297406953906e+05 -1.198417360785e+05 -5.998857639582e-06 4.029729836902e-05 -9.195005494486e-04 
0.000000000000e+00 0.000000000000e+00 3.000000000000e-02 0.000000000000e+00 1.529409314516e-05 -1.182010764437e+05 -8.465846625566e+01 -1.268242471341e+05 -1.180049168672e+05 -1.931192587166e-05 -1.464988890587e-05 -8.375651580150e-04 
4.000000000000e-03 0.000000000000e+00 2.800000000000e-02 -3.716583056220e-09 1.647000681221e-05 -1.158167544508e+05 -2.171982657925e+02 -1.197111410586e+05 -1.142156470363e+05 -1.515452809519e-04 -4.259877899158e-05 -5.202482234609e-04 
1.000000000000e-02 0.000000000000e+00 2.500000000000e-02 0.000000000000e+00 1.898059565957e-05 -1.030739948423e+05 9.225873236930e+02 -1.126857689250e+05 -1.063309419813e+05 3.152651882451e-04 1.831638576657e-04 -6.127263267875e-04 
0.000000000000e+00 0.000000000000e+00 2.500000000000e-02 0.000000000000e+00 1.919251662339e-05 -1.027183238237e+05 -2.056658922491e+03 -1.142303381394e+05 -1.068071465912e+05 3.984193802402e-04 -4.255159638682e-04 -6.814076247393e-04 
4.000000000000e-03 0.000000000000e+00 2.300000000000e-02 -8.524168538975e-08 2.243037012885e-05 -1.323529893339e+05 1.682851036506e+03 -1.565550504791e+05 -1.355058080327e+05 3.365885116690e-04 2.965897656142e-04 -2.371145279553e-03 
1.000000000000e-02 0.000000000000e+00 2.000000000000e-02 0.000000000000e+00 2.062772588695e-05 -1.361892963241e+05 -5.451852448627e+03 -1.206888081452e+05 -1.227151257061e+05 -1.782585525520e-03 -2.345273816798e-03 1.589469528617e-03 
0.000000000000e+00 0.000000000000e+00 2.000000000000e-02 0.000000000000e+00 1.874016924394e-05 -1.424162500614e+05 5.893468513477e+03 -1.159105161680e+05 -1.232770095744e+05 -3.166981682544e-03 2.882981174467e-03 2.327359837490e-03 
4.000000000000e-03 0.000000000000e+00 1.800000000000e-02 -1.846540986675e-06 1.917022602996e-05 -5.432727904515e+03 5.407072702759e+03 1.475212409952e+04 -1.655257198135e+04 1.381415393106e-03 8.842635313634e-04 5.073171275696e-03 
1.000000000000e-02 0.000000000000e+00 1.500000000000e-02 0.000000000000e+00 5.428145737798e-05 -9.152333472152e+04 2.859737623814e+04 -2.326492805559e+05 -1.484321069165e+05 6.477965599401e-03 1.326659111529e-02 -2.297243996293e-02 
0.000000000000e+00 0.000000000000e+00 1.500000000000e-02 0.000000000000e+00 5.140101268218e-05 -2.266226755312e+03 -1.596318746653e+04 -2.018911481323e+05 -1.015376094961e+05 1.161415281696e-02 -1.196343650612e-02 -2.536817836605e-02 
4.000000000000e-03 0.000000000000e+00 1.300000000000e-02 1.749397353151e-05 2.080244426200e-05 -2.088773124591e+05 -2.214541935611e+04 -1.718677974437e+05 -1.713138625100e+05 -2.199717003158e-02 -6.301583620443e-03 9.651201979079e-04 
1.000000000000e-02 0.000000000000e+00 1.000000000000e-02 0.000000000000e+00 -3.764035377044e-05 2.216623396595e+05 -3.511803104332e+04 3.411766391463e+05 1.998020756739e+05 4.376912224489e-03 -2.316678947539e-02 9.128948262724e-02 
0.000000000000e+00 0.000000000000e+00 1.000000000000e-02 0.000000000000e+00 -3.326971630662e-05 1.902574389201e+05 4.246175792175e+04 2.983133004271e+05 1.716767182598e+05 -4.674356907467e-03 6.570951978630e-03 9.280160276214e-02 
5.000000000000e-03 0.000000000000e+00 7.000000000000e-03 -6.523009420234e-06 3.128907928881e-04 7.625765103528e+03 1.292363314114e+03 -3.945948784139e+05 -1.741967255416e+05 1.542951085002e-01 -5.861880200777e-03 -1.740114319444e-01 
1.000000000000e-02 0.000000000000e+00 5.000000000000e-03 0.000000000000e+00 4.434171485785e-04 -2.245464391611e+05 5.029326323920e+03 -2.236214174254e+05 -1.965602282673e+05 -1.551702624166e-01 1.004488622072e-02 -2.148510060807e-01 
0.000000000000e+00 0.000000000000e+00 5.000000000000e-03 0.000000000000e+00 4.418716663953e-04 -2.918580460657e+05 -1.517852826282e+04 -2.408890613838e+05 -2.265070112849e+05 -2.080391240600e-01 -4.169551300856e-02 -2.171953976752e-01 
1.000000000000e-02 0.000000000000e+00 0.000000000000e+00 0.000000000000e+00 0.000000000000e+00 1.675769114945e+05 2.874171891756e+03 3.707656093363e+05 1.834824107329e+05 -2.072501455179e-02 7.666820471364e-03 3.434136815566e-01 
5.000000000000e-03 0.000000000000e+00 0.000000000000e+00 -3.459707763904e-07 0.000000000000e+00 2.647846395014e+05 -1.040940114847e+04 5.335098479390e+05 2.835865073275e+05 5.520522904695e-02 -1.019608734690e-02 3.558217420097e-01 
0.000000000000e+00 0.000000000000e+00 0.000000000000e+00 0.000000000000e+00 0.000000000000e+00 3.190606774518e+05 -5.534881204800e+03 6.866725468612e+05 3.494353658885e+05 -2.126460764114e-02 -7.773325397554e-03 3.440381453217e-01 
14  17  15  14
15  17  18  15
18  17  20  18
14  15  12  14
30  28  31  30
12  15  13  12
18  20  21  18
21  20  23  21
18  21  19  18
21  23  24  21
24  23  26  24
21  24  22  21
5  2  4  5
4  2  3  4
5  4  8  5
8  4  9  8
5  8  10  5
24  26  27  24
27  26  29  27
24  27  25  24
10  8  12  10
27  29  31  27
19  16  18  19
6  7  3  6
25  22  24  25
1  3  2  1
13  10  12  13
9  11  8  9
32  31  29  32
15  18  16  15
14  12  11  14
11  12  8  11
28  25  27  28
7  9  4  7
16  13  15  16
22  19  21  22
7  4  3  7
28  27  31  28
VARIABLES  = "X","Y","Z", "DISPLACEMENT_X1", "DISPLACEMENT_Y1", "STRESS_XX", "STRESS_XY", "STRESS_YY", "STRESS_ZZ", "STRAIN_XX", "STRAIN_XY", "STRAIN_YY"
ZONE T="1.000000000000e-02s", N=32, E=38, F=FEPOINT, ET=QUADRILATERAL
STRANDID=1, SOLUTIONTIME=1.000000000000e-02
1.000000000000e-02 0.000000000000e+00 5.000000000000e-02 0.000000000000e+00 0.000000000000e+00 -1.541355126015e+06 -4.286350309847e+02 -2.248463501758e+06 -1.535927432089e+06 -3.328231073881e-05 -5.662910325309e-06 -4.063625018363e-02 
1.000000000000e-02 0.000000000000e+00 4.500000000000e-02 0.000000000000e+00 2.031656607540e-04 -1.538419554170e+06 -5.787922876957e+03 -2.245750616660e+06 -1.533668113942e+06 -3.840715326595e-05 -5.640632770180e-05 -4.063427024968e-02 
5.000000000000e-03 0.000000000000e+00 5.000000000000e-02 3.112963962496e-08 0.000000000000e+00 -1.533861480092e+06 -5.267791248028e+02 -2.253971223802e+06 -1.535133083884e+06 1.104493466049e-05 -4.884787975158e-06 -4.070521069201e-02 
5.000000000000e-03 0.000000000000e+00 4.300000000000e-02 1.138927580927e-07 2.847820582955e-04 -1.539391833580e+06 -5.176074263948e+03 -2.267731506133e+06 -1.542849292926e+06 2.839907082397e-05 -6.997345948784e-05 -4.062475057977e-02 
1.000000000000e-02 0.000000000000e+00 4.000000000000e-02 0.000000000000e+00 4.061951706291e-04 -1.536243695808e+06 2.561129460580e+03 -2.224410233950e+06 -1.524261491226e+06 -8.667508166367e-05 -1.608855641593e-05 -4.058937468854e-02 
0.000000000000e+00 0.000000000000e+00 5.000000000000e-02 0.000000000000e+00 0.000000000000e+00 -1.538560124781e+06 5.594734974942e+02 -2.263602256028e+06 -1.540864930219e+06 1.179392358416e-05 7.074953526562e-06 -4.067223991124e-02 
0.000000000000e+00 0.000000000000e+00 4.500000000000e-02 0.000000000000e+00 2.033183440281e-04 -1.533246716357e+06 2.012374593223e+03 -2.256034216158e+06 -1.535712407261e+06 9.913904060812e-06 2.083859958778e-05 -4.067508432719e-02 
6.000000000000e-03 0.000000000000e+00 3.800000000000e-02 1.487194008417e-07 4.875998159373e-04 -1.537637075174e+06 -6.775200792950e+03 -2.265343652249e+06 -1.541192575354e+06 -1.072007511513e-05 -7.995508601234e-05 -4.052168991653e-02 
0.000000000000e+00 0.000000000000e+00 4.000000000000e-02 0.000000000000e+00 4.069435317503e-04 -1.535243911157e+06 -1.018042589313e+03 -2.266053348973e+06 -1.540518800831e+06 5.160744392326e-05 -6.755433378160e-05 -4.060030557645e-02 
1.000000000000e-02 0.000000000000e+00 3.500000000000e-02 0.000000000000e+00 6.095321256954e-04 -1.537845112763e+06 -4.946334305391e+03 -2.222740434508e+06 -1.524234391308e+06 -6.138404008696e-05 1.099575755866e-04 -4.080136323539e-02 
0.000000000000e+00 0.000000000000e+00 3.500000000000e-02 0.000000000000e+00 6.102447771105e-04 -1.529288817403e+06 -6.190966086856e+03 -2.274282561017e+06 -1.541428403451e+06 1.855659871256e-04 -2.867684547181e-04 -4.080694566448e-02 
4.000000000000e-03 0.000000000000e+00 3.300000000000e-02 8.200087296108e-08 6.902160219750e-04 -1.533764796643e+06 -4.503382756260e+03 -2.266133238045e+06 -1.539957888411e+06 6.304264840288e-05 -6.684440478012e-05 -4.070064090859e-02 
1.000000000000e-02 0.000000000000e+00 3.000000000000e-02 0.000000000000e+00 8.098636436289e-04 -1.552707309316e+06 -1.564053388850e+03 -2.215284755595e+06 -1.527197680453e+06 -3.622004956852e-04 -4.290112592763e-04 -3.892112635691e-02 
0.000000000000e+00 0.000000000000e+00 3.000000000000e-02 0.000000000000e+00 8.116701059482e-04 -1.547444585126e+06 -1.205113169860e+04 -2.301248077448e+06 -1.559478487869e+06 -3.413138353012e-04 -4.591606616828e-05 -3.955655998206e-02 
4.000000000000e-03 0.000000000000e+00 2.800000000000e-02 -2.198037044290e-06 8.977738434328e-04 -1.514434022793e+06 2.131085251146e+03 -2.296273339130e+06 -1.544287334937e+06 6.514722703736e-04 1.952891141333e-03 -4.323541467998e-02 
1.000000000000e-02 0.000000000000e+00 2.500000000000e-02 0.000000000000e+00 1.021350601456e-03 -1.509879732699e+06 -1.848078749062e+04 -2.066964765063e+06 -1.450728826350e+06 4.908010610441e-04 -1.185840303238e-03 -4.297586675865e-02 
0.000000000000e+00 0.000000000000e+00 2.500000000000e-02 0.000000000000e+00 1.012412865316e-03 -1.593792783116e+06 -3.762350373725e+04 -2.164807664004e+06 -1.523429675239e+06 -2.873016590383e-03 5.525839461734e-04 -3.819385250454e-02 
4.000000000000e-03 0.000000000000e+00 2.300000000000e-02 -6.284860321335e-06 1.095417142484e-03 -1.610352681626e+06 8.907140348376e+04 -2.582327310139e+06 -1.697058510441e+06 1.083952655913e-03 6.623522258829e-03 -3.531219265121e-02 
1.000000000000e-02 0.000000000000e+00 2.000000000000e-02 0.000000000000e+00 1.236591666361e-03 -1.359352730445e+06 -4.906422567434e+04 -1.725124931666e+06 -1.253816812672e+06 4.310228735341e-04 -1.792568276111e-03 -5.588305847540e-02 
0.000000000000e+00 0.000000000000e+00 2.000000000000e-02 0.000000000000e+00 1.191479305440e-03 -1.382396930333e+06 1.334133326443e+04 -1.777775745524e+06 -1.284091660165e+06 -9.130051371781e-03 3.343230974405e-03 -4.788577403059e-02 
4.000000000000e-03 0.000000000000e+00 1.800000000000e-02 -2.676026614554e-05 1.286694056408e-03 -1.295990511086e+06 1.653345555048e+04 -2.200079506635e+06 -1.418436198073e+06 -9.520171280913e-04 8.868124571808e-03 -3.418334308486e-02 
1.000000000000e-02 0.000000000000e+00 1.500000000000e-02 0.000000000000e+00 1.520413245169e-03 -2.206842965747e+06 -4.437005784658e+04 -2.777662066351e+06 -2.013834159605e+06 1.635265342435e-02 1.549720339168e-02 -8.261497363143e-02 
0.000000000000e+00 0.000000000000e+00 1.500000000000e-02 0.000000000000e+00 1.445338242376e-03 -1.468082456074e+06 6.176049234852e+04 -2.735244322954e+06 -1.701467140692e+06 1.653369350451e-02 -1.491124952629e-02 -6.766484147527e-02 
4.000000000000e-03 0.000000000000e+00 1.300000000000e-02 -2.109747392579e-07 1.486211613618e-03 -1.881728235738e+06 -1.445920908625e+05 -2.782056783562e+06 -1.886252159215e+06 -3.924216913845e-02 1.855469100380e-02 -4.459169210043e-02 
1.000000000000e-02 0.000000000000e+00 1.000000000000e-02 0.000000000000e+00 1.580276295918e-03 2.208617724863e+05 -3.100761392890e+05 1.315786028090e+06 5.939113567367e+05 1.380083761812e-02 -7.526101746405e-02 1.084997281852e-01 
0.000000000000e+00 0.000000000000e+00 1.000000000000e-02 0.000000000000e+00 1.436536716078e-03 -7.003975738452e+05 8.724066165366e+05 1.882434548807e+06 4.536457320731e+05 -3.980912480270e-02 3.237891931513e-02 1.494112891945e-01 
5.000000000000e-03 0.000000000000e+00 7.000000000000e-03 -1.201940945755e-04 2.274989100765e-03 3.470152786957e+06 1.489068615849e+05 -9.903233431877e+06 -2.572517360018e+06 3.566754874639e-01 9.309825032529e-02 -4.437142172698e-01 
1.000000000000e-02 0.000000000000e+00 5.000000000000e-03 0.000000000000e+00 3.047347930400e-03 -6.092985080821e+06 -4.577943700179e+05 -1.150415864765e+07 -6.193131344102e+06 -3.998923017552e-01 8.188945829922e-02 -7.215635592582e-01 
0.000000000000e+00 0.000000000000e+00 5.000000000000e-03 0.000000000000e+00 2.358243592981e-03 -7.340822795139e+06 -4.776705550505e+05 -8.727566950482e+06 -5.325153697484e+06 -6.746009366947e-01 1.336175764421e-01 -3.651049758809e-01 
1.000000000000e-02 0.000000000000e+00 0.000000000000e+00 0.000000000000e+00 0.000000000000e+00 1.294479184331e+06 1.310592721099e+06 3.741775815964e+07 1.163828827646e+07 -1.603787836927e-01 4.912656763816e-02 1.924388766305e+00 
5.000000000000e-03 0.000000000000e+00 0.000000000000e+00 1.150053827794e-04 0.000000000000e+00 1.328225872791e+07 -7.421353359318e+05 3.148542661078e+07 1.473231848316e+07 3.097112074356e-01 -4.373281069286e-02 1.584643983113e+00 
0.000000000000e+00 0.000000000000e+00 0.000000000000e+00 0.000000000000e+00 0.000000000000e+00 2.167132822473e+06 3.274803848047e+06 4.396663217509e+07 1.233256221576e+07 -1.089840217453e-01 -2.006351211443e-02 1.140652710328e+00 
14  17  15  14
15  17  18  15
18  17  20  18
14  15  12  14
30  28  31  30
12  15  13  12
18  20  21  18
21  20  23  21
18  21  19  18
21  23  24  21
24  23  26  24
21  24  22  21
5  2  4  5
4  2  3  4
5  4  8  5
8  4  9  8
5  8  10  5
24  26  27  24
27  26  29  27
24  27  25  24
10  8  12  10
27  29  31  27
19  16  18  19
6  7  3  6
25  22  24  25
1  3  2  1
13  10  12  13
9  11  8  9
32  31  29  32
15  18  16  15
14  12  11  14
11  12  8  11
28  25  27  28
7  9  4  7
16  13  15  16
22  19  21  22
7  4  3  7
28  27  31  28
VARIABLES  = "X","Y","Z", "DISPLACEMENT_X1", "DISPLACEMENT_Y1", "STRESS_XX", "STRESS_XY", "STRESS_YY", "STRESS_ZZ", "STRAIN_XX", "STRAIN_XY", "STRAIN_YY"
ZONE T="1.000000000000e-01s", N=32, E=38, F=FEPOINT, ET=QUADRILATERAL
STRANDID=1, SOLUTIONTIME=1.000000000000e-01
1.000000000000e-02 0.000000000000e+00 5.000000000000e-02 0.000000000000e+00 0.000000000000e+00 -3.968145555216e+06 -6.521073426409e+02 -5.865068260345e+06 -3.953285270646e+06 -6.424935866187e-05 -6.893427831525e-06 -4.327707483583e-02 
1.000000000000e-02 0.000000000000e+00 4.500000000000e-02 0.000000000000e+00 2.164014049889e-04 -3.962323382861e+06 -1.378712937442e+04 -5.886329373936e+06 -3.959461526410e+06 -3.792153169590e-05 -9.877049861104e-05 -4.336725586641e-02 
5.000000000000e-03 0.000000000000e+00 5.000000000000e-02 2.212776484597e-08 0.000000000000e+00 -3.950995399642e+06 -5.713503119941e+02 -5.864703436319e+06 -3.946279860351e+06 -2.063973710943e-06 -3.401746201733e-06 -4.339265219096e-02 
5.000000000000e-03 0.000000000000e+00 4.300000000000e-02 8.046923362541e-08 3.034682366637e-04 -3.982283141310e+06 -8.650861989978e+03 -5.944837016144e+06 -3.990846496403e+06 4.098079192550e-05 -8.733495955918e-05 -4.320697195884e-02 
1.000000000000e-02 0.000000000000e+00 4.000000000000e-02 0.000000000000e+00 4.325280363467e-04 -3.966502881174e+06 1.919548507168e+04 -5.839280837055e+06 -3.942313792068e+06 -1.141268914569e-04 8.086583687688e-05 -4.307360008123e-02 
0.000000000000e+00 0.000000000000e+00 5.000000000000e-02 0.000000000000e+00 0.000000000000e+00 -4.034080192715e+06 2.469331612691e+03 -6.082522972233e+06 -4.066640945171e+06 8.275294910411e-05 1.755502570860e-05 -4.335347159814e-02 
0.000000000000e+00 0.000000000000e+00 4.500000000000e-02 0.000000000000e+00 2.165908834105e-04 -3.951151920911e+06 8.731533943275e+03 -5.877343457097e+06 -3.951398600831e+06 2.924145096307e-06 5.241594772663e-05 -4.329924629821e-02 
6.000000000000e-03 0.000000000000e+00 3.800000000000e-02 1.919386126345e-07 5.188237131126e-04 -3.961275675496e+06 -2.557875189691e+04 -5.900050617175e+06 -3.964538601300e+06 -1.666138897090e-05 -1.806121873459e-04 -4.307372099521e-02 
0.000000000000e+00 0.000000000000e+00 4.000000000000e-02 0.000000000000e+00 4.332878201148e-04 -3.979644546498e+06 1.023586498175e+04 -5.963137073065e+06 -3.997111807363e+06 7.686076978292e-05 -9.135732441484e-06 -4.318797836286e-02 
1.000000000000e-02 0.000000000000e+00 3.500000000000e-02 0.000000000000e+00 6.485838724870e-04 -3.954584597458e+06 4.269704500432e+03 -5.874790930817e+06 -3.951729511743e+06 -2.082702800577e-05 1.726530973066e-04 -4.346886119453e-02 
0.000000000000e+00 0.000000000000e+00 3.500000000000e-02 0.000000000000e+00 6.494314146173e-04 -3.981975344956e+06 -6.459935241923e+03 -5.964139189069e+06 -3.998430174130e+06 1.819052066479e-04 -2.600229543161e-04 -4.342348405134e-02 
4.000000000000e-03 0.000000000000e+00 3.300000000000e-02 2.495861858502e-07 7.346943560847e-04 -3.981165613002e+06 -1.796033630779e+04 -5.923737152276e+06 -3.981934527784e+06 3.880041692569e-05 -1.190730200664e-04 -4.330242424027e-02 
1.000000000000e-02 0.000000000000e+00 3.000000000000e-02 0.000000000000e+00 8.624356534993e-04 -3.910160025742e+06 6.202599078908e+04 -5.800437570093e+06 -3.904350993613e+06 -2.744024778538e-04 -5.972886353014e-05 -4.146801931518e-02 
0.000000000000e+00 0.000000000000e+00 3.000000000000e-02 0.000000000000e+00 8.648805243579e-04 -3.961666441079e+06 -7.944480210031e+04 -6.041373034678e+06 -4.021289721890e+06 -2.058652545142e-04 -4.081320753364e-04 -4.232623183114e-02 
4.000000000000e-03 0.000000000000e+00 2.800000000000e-02 -2.167756180469e-06 9.552188804666e-04 -3.961073219711e+06 -4.152750506307e+04 -5.778571500508e+06 -3.915829872856e+06 3.560033475776e-04 1.632964519005e-03 -4.547088255869e-02 
1.000000000000e-02 0.000000000000e+00 2.500000000000e-02 0.000000000000e+00 1.091096455427e-03 -3.945961746735e+06 2.913279418337e+05 -5.829674879335e+06 -3.929859598551e+06 7.715033128111e-04 9.907754786462e-04 -4.623053493537e-02 
0.000000000000e+00 0.000000000000e+00 2.500000000000e-02 0.000000000000e+00 1.081514075554e-03 -4.076169190560e+06 -4.600932481316e+05 -6.686543690311e+06 -4.324687523099e+06 -1.854078927730e-03 -2.270977042583e-03 -4.170687628141e-02 
4.000000000000e-03 0.000000000000e+00 2.300000000000e-02 -6.068868756777e-06 1.172988462255e-03 -3.872902261314e+06 4.163008477403e+03 -5.633819961945e+06 -3.823234977821e+06 4.473009132125e-04 6.442918513393e-03 -4.132298215751e-02 
1.000000000000e-02 0.000000000000e+00 2.000000000000e-02 0.000000000000e+00 1.323429485185e-03 -3.799013516780e+06 -1.828634677519e+05 -5.692723995038e+06 -3.817203857599e+06 9.929238402097e-04 -2.629041279200e-03 -6.065995406930e-02 
0.000000000000e+00 0.000000000000e+00 2.000000000000e-02 0.000000000000e+00 1.279262560867e-03 -4.135138884757e+06 3.867574971388e+05 -6.301234927355e+06 -4.195350566722e+06 -8.689251937518e-03 5.774583178011e-03 -5.121107587121e-02 
4.000000000000e-03 0.000000000000e+00 1.800000000000e-02 -2.778063442291e-05 1.386662914957e-03 -3.435662488985e+06 5.267840947926e+04 -5.769364339645e+06 -3.698063253625e+06 -6.262263166554e-04 9.831777983508e-03 -4.103731776127e-02 