 TITLE = "Profiles along polylines"
 VARIABLES = "DIST" "DISPLACEMENT_X1" "DISPLACEMENT_Y1" "STRESS_XX" "STRESS_XY" "STRESS_YY" "STRESS_ZZ" "STRAIN_XX" "STRAIN_XY" "STRAIN_YY"  p_(1st_Invariant)  q_(2nd_Invariant)   Effective_Strain
 ZONE T="TIME=0.000000000000e+00"
0.000000000000e+00 0.000000000000e+00 0.000000000000e+00 -1.000000000000e+05 0.000000000000e+00 -1.000000000000e+05 -1.000000000000e+05 0.000000000000e+00 0.000000000000e+00 0.000000000000e+00 1.000000000000e+05 0.000000000000e+00  0.000000000000e+00
5.000000000000e-03 0.000000000000e+00 0.000000000000e+00 -1.000000000000e+05 0.000000000000e+00 -1.000000000000e+05 -1.000000000000e+05 0.000000000000e+00 0.000000000000e+00 0.000000000000e+00 1.000000000000e+05 0.000000000000e+00  0.000000000000e+00
1.000000000000e-02 0.000000000000e+00 0.000000000000e+00 -1.000000000000e+05 0.000000000000e+00 -1.000000000000e+05 -1.000000000000e+05 0.000000000000e+00 0.000000000000e+00 0.000000000000e+00 1.000000000000e+05 0.000000000000e+00  0.000000000000e+00
1.500000000000e-02 0.000000000000e+00 0.000000000000e+00 -1.000000000000e+05 0.000000000000e+00 -1.000000000000e+05 -1.000000000000e+05 0.000000000000e+00 0.000000000000e+00 0.000000000000e+00 1.000000000000e+05 0.000000000000e+00  0.000000000000e+00
2.000000000000e-02 0.000000000000e+00 0.000000000000e+00 -1.000000000000e+05 0.000000000000e+00 -1.000000000000e+05 -1.000000000000e+05 0.000000000000e+00 0.000000000000e+00 0.000000000000e+00 1.000000000000e+05 0.000000000000e+00  0.000000000000e+00
2.500000000000e-02 0.000000000000e+00 0.000000000000e+00 -1.000000000000e+05 0.000000000000e+00 -1.000000000000e+05 -1.000000000000e+05 0.000000000000e+00 0.000000000000e+00 0.000000000000e+00 1.000000000000e+05 0.000000000000e+00  0.000000000000e+00
3.000000000000e-02 0.000000000000e+00 0.000000000000e+00 -1.000000000000e+05 0.000000000000e+00 -1.000000000000e+05 -1.000000000000e+05 0.000000000000e+00 0.000000000000e+00 0.000000000000e+00 1.000000000000e+05 0.000000000000e+00  0.000000000000e+00
3.500000000000e-02 0.000000000000e+00 0.000000000000e+00 -1.000000000000e+05 0.000000000000e+00 -1.000000000000e+05 -1.000000000000e+05 0.000000000000e+00 0.000000000000e+00 0.000000000000e+00 1.000000000000e+05 0.000000000000e+00  0.000000000000e+00
4.000000000000e-02 0.000000000000e+00 0.000000000000e+00 -1.000000000000e+05 0.000000000000e+00 -1.000000000000e+05 -1.000000000000e+05 0.000000000000e+00 0.000000000000e+00 0.000000000000e+00 1.000000000000e+05 0.000000000000e+00  0.000000000000e+00
4.500000000000e-02 0.000000000000e+00 0.000000000000e+00 -1.000000000000e+05 0.000000000000e+00 -1.000000000000e+05 -1.000000000000e+05 0.000000000000e+00 0.000000000000e+00 0.000000000000e+00 1.000000000000e+05 0.000000000000e+00  0.000000000000e+00
5.000000000000e-02 0.000000000000e+00 0.000000000000e+00 -1.000000000000e+05 0.000000000000e+00 -1.000000000000e+05 -1.000000000000e+05 0.000000000000e+00 0.000000000000e+00 0.000000000000e+00 1.000000000000e+05 0.000000000000e+00  0.000000000000e+00
 TITLE = "Profiles along polylines"
 VARIABLES = "DIST" "DISPLACEMENT_X1" "DISPLACEMENT_Y1" "STRESS_XX" "STRESS_XY" "STRESS_YY" "STRESS_ZZ" "STRAIN_XX" "STRAIN_XY" "STRAIN_YY"  p_(1st_Invariant)  q_(2nd_Invariant)   Effective_Strain
 ZONE T="TIME=1.000000000000e-02"
0.000000000000e+00 0.000000000000e+00 0.000000000000e+00 -1.538560124781e+06 5.594734974942e+02 -2.263602256028e+06 -1.540864930219e+06 1.179392358416e-05 7.074953526562e-06 -4.067223991124e-02 1.781009103676e+06 7.238931289885e+05  4.067814000109e-02
5.000000000000e-03 0.000000000000e+00 2.033183440281e-04 -1.533246716357e+06 2.012374593223e+03 -2.256034216158e+06 -1.535712407261e+06 9.913904060812e-06 2.083859958778e-05 -4.067508432719e-02 1.774997779925e+06 7.215662325049e+05  4.068005819729e-02
1.000000000000e-02 0.000000000000e+00 4.069435317503e-04 -1.535243911157e+06 -1.018042589313e+03 -2.266053348973e+06 -1.540518800831e+06 5.160744392326e-05 -6.755433378160e-05 -4.060030557645e-02 1.780605353654e+06 7.281884570201e+05  4.062630237896e-02
1.500000000000e-02 0.000000000000e+00 6.102447771105e-04 -1.529288817403e+06 -6.190966086856e+03 -2.274282561017e+06 -1.541428403451e+06 1.855659871256e-04 -2.867684547181e-04 -4.080694566448e-02 1.781666593957e+06 7.390765292581e+05  4.090306026196e-02
2.000000000000e-02 0.000000000000e+00 8.116701059482e-04 -1.547444585126e+06 -1.205113169860e+04 -2.301248077448e+06 -1.559478487869e+06 -3.413138353012e-04 -4.591606616828e-05 -3.955655998206e-02 1.802723716815e+06 7.481503934790e+05  3.938709251017e-02
2.500000000000e-02 0.000000000000e+00 1.012412865316e-03 -1.593792783116e+06 -3.762350373725e+04 -2.164807664004e+06 -1.523429675239e+06 -2.873016590383e-03 5.525839461734e-04 -3.819385250454e-02 1.760676707453e+06 6.127266330992e+05  3.685388810727e-02
3.000000000000e-02 0.000000000000e+00 1.191479305440e-03 -1.382396930333e+06 1.334133326443e+04 -1.777775745524e+06 -1.284091660165e+06 -9.130051371781e-03 3.343230974405e-03 -4.788577403059e-02 1.481421445341e+06 4.531998768873e+05  4.441550625320e-02
3.500000000000e-02 0.000000000000e+00 1.445338242376e-03 -1.468082456074e+06 6.176049234852e+04 -2.735244322954e+06 -1.701467140692e+06 1.653369350451e-02 -1.491124952629e-02 -6.766484147527e-02 1.968264639907e+06 1.172976773203e+06  8.147195609572e-02
4.000000000000e-02 0.000000000000e+00 1.436536716078e-03 -7.003975738452e+05 8.724066165366e+05 1.882434548807e+06 4.536457320731e+05 -3.980912480270e-02 3.237891931513e-02 1.494112891945e-01 -5.452275690117e+05 2.702853587972e+06  1.816634681570e-01
4.500000000000e-02 0.000000000000e+00 2.358243592981e-03 -7.340822795139e+06 -4.776705550505e+05 -8.727566950482e+06 -5.325153697484e+06 -6.746009366947e-01 1.336175764421e-01 -3.651049758809e-01 7.131181147702e+06 3.076638763551e+06  6.290062628336e-01
5.000000000000e-02 0.000000000000e+00 0.000000000000e+00 2.167132822473e+06 3.274803848047e+06 4.396663217509e+07 1.233256221576e+07 -1.089840217453e-01 -2.006351211443e-02 1.140652710328e+00 -1.948877573777e+07 3.818111132831e+07  1.199369282546e+00
 TITLE = "Profiles along polylines"
 VARIABLES = "DIST" "DISPLACEMENT_X1" "DISPLACEMENT_Y1" "STRESS_XX" "STRESS_XY" "STRESS_YY" "STRESS_ZZ" "STRAIN_XX" "STRAIN_XY" "STRAIN_YY"  p_(1st_Invariant)  q_(2nd_Invariant)   Effective_Strain
 ZONE T="TIME=1.000000000000e-01"
0.000000000000e+00 0.000000000000e+00 0.000000000000e+00 -4.034080192715e+06 2.469331612691e+03 -6.082522972233e+06 -4.066640945171e+06 8.275294910411e-05 1.755502570860e-05 -4.335347159814e-02 4.727748036706e+06 2.032362536087e+06  4.339491790322e-02
5.000000000000e-03 0.000000000000e+00 2.165908834105e-04 -3.951151920911e+06 8.731533943275e+03 -5.877343457097e+06 -3.951398600831e+06 2.924145096307e-06 5.241594772663e-05 -4.329924629821e-02 4.593297992946e+06 1.926127581757e+06  4.330080361976e-02
1.000000000000e-02 0.000000000000e+00 4.332878201148e-04 -3.979644546498e+06 1.023586498175e+04 -5.963137073065e+06 -3.997111807363e+06 7.686076978292e-05 -9.135732441484e-06 -4.318797836286e-02 4.646631142309e+06 1.974896413881e+06  4.322646289364e-02
1.500000000000e-02 0.000000000000e+00 6.494314146173e-04 -3.981975344956e+06 -6.459935241923e+03 -5.964139189069e+06 -3.998430174130e+06 1.819052066479e-04 -2.600229543161e-04 -4.342348405134e-02 4.648181569385e+06 1.974019577196e+06  4.351705240835e-02
2.000000000000e-02 0.000000000000e+00 8.648805243579e-04 -3.961666441079e+06 -7.944480210031e+04 -6.041373034678e+06 -4.021289721890e+06 -2.058652545142e-04 -4.081320753364e-04 -4.232623183114e-02 4.674776399216e+06 2.055156916292e+06  4.222959266215e-02
2.500000000000e-02 0.000000000000e+00 1.081514075554e-03 -4.076169190560e+06 -4.600932481316e+05 -6.686543690311e+06 -4.324687523099e+06 -1.854078927730e-03 -2.270977042583e-03 -4.170687628141e-02 5.029133467990e+06 2.619570167701e+06  4.100055252740e-02
3.000000000000e-02 0.000000000000e+00 1.279262560867e-03 -4.135138884757e+06 3.867574971388e+05 -6.301234927355e+06 -4.195350566722e+06 -8.689251937518e-03 5.774583178011e-03 -5.121107587121e-02 4.877241459611e+06 2.239177820353e+06  4.850905980870e-02
3.500000000000e-02 0.000000000000e+00 1.552043305942e-03 -5.049641002467e+06 8.604383523612e+05 -5.427704856009e+06 -4.213362695602e+06 1.252984222380e-02 -9.252986466487e-03 -6.514200953717e-02 4.896902851360e+06 1.838347833751e+06  7.398344902735e-02
4.000000000000e-02 0.000000000000e+00 1.639093571500e-03 -2.433746054540e+06 -1.899708714989e+05 2.199270643627e+06 -1.019382426406e+05 -5.121058979371e-02 4.938457899557e-03 1.245620953876e-01 1.121378845177e+05 4.025808448466e+06  1.568129573230e-01
4.500000000000e-02 0.000000000000e+00 2.622850124230e-03 4.961637738243e+05 -8.071285577034e+05 -1.341671431475e+07 -2.258524670869e+06 -5.733146643471e-01 2.360236677170e-01 -3.025806103370e-01 5.059691737264e+06 1.283686917273e+07  6.433446543042e-01
5.000000000000e-02 0.000000000000e+00 0.000000000000e+00 -2.270451020385e+07 9.368263660429e+06 4.845419109913e+07 -2.216153166737e+06 -1.223857526905e+00 1.290665040746e-01 1.055447622819e+00 -7.844509242847e+06 6.548818029728e+07  1.988338234693e+00
 TITLE = "Profiles along polylines"
 VARIABLES = "DIST" "DISPLACEMENT_X1" "DISPLACEMENT_Y1" "STRESS_XX" "STRESS_XY" "STRESS_YY" "STRESS_ZZ" "STRAIN_XX" "STRAIN_XY" "STRAIN_YY"  p_(1st_Invariant)  q_(2nd_Invariant)   Effective_Strain
 ZONE T="TIME=1.000000000000e+00"
0.000000000000e+00 0.000000000000e+00 0.000000000000e+00 -1.231492858567e+07 4.003091818874e+03 -1.857754876485e+07 -1.237699044408e+07 1.171915465628e-04 2.373065829369e-05 -4.823681291467e-02 1.442315593153e+07 6.231824886047e+06  4.829553281788e-02
5.000000000000e-03 0.000000000000e+00 2.406762498056e-04 -1.236268075457e+07 -3.896622684807e+03 -1.836840851343e+07 -1.231243600129e+07 -7.306470238471e-05 3.071716752080e-05 -4.807686700903e-02 1.434784175643e+07 6.031010886187e+06  4.804040579042e-02
1.000000000000e-02 0.000000000000e+00 4.813672730162e-04 -1.230464733845e+07 -2.749584483719e+03 -1.843723034849e+07 -1.231675045826e+07 6.638846413558e-05 -4.888480969216e-05 -4.788583242622e-02 1.435287604840e+07 6.126542267400e+06  4.791913595446e-02
1.500000000000e-02 0.000000000000e+00 7.213991929171e-04 -1.231143626603e+07 -3.935947116657e+04 -1.849780964329e+07 -1.234368429028e+07 2.031803852903e-04 -3.471576615436e-04 -4.822029909021e-02 1.438431006653e+07 6.170689157874e+06  4.832595059481e-02
2.000000000000e-02 0.000000000000e+00 9.605157192645e-04 -1.223412333406e+07 -1.996906918303e+05 -1.859048602445e+07 -1.234990708194e+07 -1.279221812559e-04 -6.783954946216e-04 -4.716365916201e-02 1.439150548015e+07 6.308757258768e+06  4.711448283511e-02
2.500000000000e-02 0.000000000000e+00 1.201810275770e-03 -1.255031107767e+07 -8.741724594761e+05 -1.976430868481e+07 -1.294561582580e+07 -1.681997128959e-03 -3.238985281525e-03 -4.637146677776e-02 1.508674519609e+07 7.186016440229e+06  4.589791333426e-02
3.000000000000e-02 0.000000000000e+00 1.422177369068e-03 -1.271354644755e+07 9.439029897056e+05 -1.922153926648e+07 -1.279353673067e+07 -8.613309670914e-03 7.022022626885e-03 -5.596763187543e-02 1.490954081490e+07 6.671780223479e+06  5.359500705903e-02
3.500000000000e-02 0.000000000000e+00 1.718423361277e-03 -1.361312713064e+07 1.216411725214e+06 -1.725879224417e+07 -1.238757228049e+07 1.183213897037e-02 -8.055278587474e-03 -6.873068869716e-02 1.441983055177e+07 4.868243402744e+06  7.662767568548e-02
4.000000000000e-02 0.000000000000e+00 1.851072437285e-03 -1.285070895948e+07 -1.717542184631e+06 -1.330712702757e+07 -1.037400935292e+07 -5.193577288713e-02 -1.426846672379e-03 1.121424926332e-01 1.217728177999e+07 4.040126521741e+06  1.452707054504e-01
4.500000000000e-02 0.000000000000e+00 2.850118988530e-03 4.380698875796e+06 -9.933628149741e+05 -6.959571122323e+06 2.476179074481e+06 -5.621269954605e-01 2.517645651051e-01 -2.557903849846e-01 3.423105734837e+04 1.065792942305e+07  6.540527411643e-01
5.000000000000e-02 0.000000000000e+00 0.000000000000e+00 -3.643384835220e+07 1.068495950062e+07 3.400628316428e+07 -1.658880151142e+07 -1.270760437096e+00 1.421087839537e-01 1.058523998491e+00 6.338788899782e+06 6.557633247861e+07  2.034949700189e+00
 TITLE = "Profiles along polylines"
 VARIABLES = "DIST" "DISPLACEMENT_X1" "DISPLACEMENT_Y1" "STRESS_XX" "STRESS_XY" "STRESS_YY" "STRESS_ZZ" "STRAIN_XX" "STRAIN_XY" "STRAIN_YY"  p_(1st_Invariant)  q_(2nd_Invariant)   Effective_Strain
 ZONE T="TIME=5.000000000000e+00"
0.000000000000e+00 0.000000000000e+00 0.000000000000e+00 -2.379796329229e+07 1.122003116092e+03 -3.592376580481e+07 -2.390869050485e+07 1.400553854866e-04 2.055319707392e-05 -5.093191335115e-02 2.787680653398e+07 1.207081996190e+07  5.100209769392e-02
5.000000000000e-03 0.000000000000e+00 2.541441248217e-04 -2.391326520136e+07 -2.950262725189e+04 -3.563907818070e+07 -2.384093793079e+07 -8.501043975704e-05 7.363184981374e-06 -5.076017466859e-02 2.779776043762e+07 1.176225439802e+07  5.071772448601e-02
1.000000000000e-02 0.000000000000e+00 5.081848860807e-04 -2.379264984372e+07 1.113475260121e+04 -3.572115143616e+07 -2.382551497727e+07 7.747283531385e-05 -3.174714118516e-05 -5.057169390669e-02 2.777977208572e+07 1.191211864061e+07  5.061050466839e-02
1.500000000000e-02 0.000000000000e+00 7.616215293664e-04 -2.381595768245e+07 -7.172744698773e+04 -3.577613989195e+07 -2.385683762768e+07 2.071043124099e-04 -3.787988598863e-04 -5.088931150144e-02 2.781631173403e+07 1.194044105302e+07  5.099739972669e-02
2.000000000000e-02 0.000000000000e+00 1.014278667874e-03 -2.369137790650e+07 -3.761325565568e+05 -3.589717265872e+07 -2.385560331904e+07 -1.021691445799e-04 -8.477704497239e-04 -4.985405967177e-02 2.781471796142e+07 1.214200646274e+07  4.982469570270e-02
2.500000000000e-02 0.000000000000e+00 1.269067185947e-03 -2.421628052654e+07 -1.294709551764e+06 -3.760066170563e+07 -2.474478081027e+07 -1.615398192902e-03 -3.630367793358e-03 -4.901521147890e-02 2.885390768082e+07 1.331826344974e+07  4.863599587282e-02
3.000000000000e-02 0.000000000000e+00 1.502091482760e-03 -2.454112759590e+07 1.507334446801e+06 -3.680172093358e+07 -2.455460321115e+07 -8.638220473721e-03 7.546547543419e-03 -5.859085064351e-02 2.863248391354e+07 1.252889791439e+07  5.632261611427e-02
3.500000000000e-02 0.000000000000e+00 1.811488579642e-03 -2.415166388153e+07 1.618620155141e+06 -3.282233045529e+07 -2.292597314600e+07 1.182520384429e-02 -7.699513929499e-03 -7.119917422807e-02 2.663332249427e+07 9.755517716794e+06  7.892369827727e-02
4.000000000000e-02 0.000000000000e+00 1.952328584255e-03 -1.699799750288e+07 -1.370719510658e+06 -1.891539402417e+07 -1.530740918806e+07 -5.148402794816e-02 -1.032686013313e-03 1.111785681731e-01 1.707360023837e+07 3.925893828742e+06  1.440083295753e-01
4.500000000000e-02 0.000000000000e+00 2.937656622491e-03 6.438662505814e+06 -1.219122487340e+06 -5.372788481027e+06 5.168605012281e+06 -5.601677914441e-01 2.499452391869e-01 -2.356748917342e-01 -2.078159679023e+06 1.142720339950e+07  6.517138891724e-01
5.000000000000e-02 0.000000000000e+00 0.000000000000e+00 -6.186692307954e+07 1.104145564541e+07 1.953057591621e+07 -4.345002858811e+07 -1.268552216286e+00 1.428414269715e-01 1.065875642804e+00 2.859545858381e+07 7.636351827221e+07  2.039275739107e+00
 TITLE = "Profiles along polylines"
 VARIABLES = "DIST" "DISPLACEMENT_X1" "DISPLACEMENT_Y1" "STRESS_XX" "STRESS_XY" "STRESS_YY" "STRESS_ZZ" "STRAIN_XX" "STRAIN_XY" "STRAIN_YY"  p_(1st_Invariant)  q_(2nd_Invariant)   Effective_Strain
 ZONE T="TIME=1.000000000000e+01"
0.000000000000e+00 0.000000000000e+00 0.000000000000e+00 -3.074157453298e+07 3.518866660161e+02 -4.640073711771e+07 -3.087692448944e+07 1.473151709782e-04 2.009035582236e-05 -5.196294210362e-02 3.600641204671e+07 1.559192822787e+07  5.203676771660e-02
5.000000000000e-03 0.000000000000e+00 2.592863320025e-04 -3.088664512490e+07 -4.550424815505e+04 -4.607458754603e+07 -3.080449439710e+07 -8.789964050347e-05 -2.036526910306e-06 -5.178302711126e-02 3.592190902268e+07 1.522938791163e+07  5.173913341106e-02
1.000000000000e-02 0.000000000000e+00 5.184387570452e-04 -3.074369479302e+07 1.079902487038e+04 -4.616286257603e+07 -3.078257968953e+07 7.924717085622e-05 -3.193134336845e-05 -5.159896183796e-02 3.589637901953e+07 1.539977351356e+07  5.163866064729e-02
1.500000000000e-02 0.000000000000e+00 7.770152112674e-04 -3.077808258844e+07 -8.936065705336e+04 -4.622734434904e+07 -3.082189176182e+07 2.079704375089e-04 -3.892083095422e-04 -5.191562622917e-02 3.594243956643e+07 1.542818021626e+07  5.202429108882e-02
2.000000000000e-02 0.000000000000e+00 1.034818338112e-03 -3.059869528155e+07 -4.642204812234e+05 -4.627895043891e+07 -3.077298179801e+07 -9.902273857845e-05 -8.997276228131e-04 -5.087509510777e-02 3.588354250616e+07 1.561455803110e+07  5.084954125526e-02
2.500000000000e-02 0.000000000000e+00 1.294610298311e-03 -3.084523117157e+07 -1.417702212234e+06 -4.753881327788e+07 -3.139417158823e+07 -1.608504287682e-03 -3.703548227054e-03 -4.996440568804e-02 3.659273867923e+07 1.660851817267e+07  4.959647134053e-02
3.000000000000e-02 0.000000000000e+00 1.531642067181e-03 -2.980731686085e+07 1.806588513100e+06 -4.432707779590e+07 -2.980889133503e+07 -8.641349060633e-03 7.727329927938e-03 -5.927524712821e-02 3.464776199726e+07 1.485233602058e+07  5.705387469799e-02
3.500000000000e-02 0.000000000000e+00 1.843176318845e-03 -2.682152353639e+07 1.768429103599e+06 -3.590917166341e+07 -2.577297241977e+07 1.188825496903e-02 -7.592670135785e-03 -7.130065606506e-02 2.950122253985e+07 1.012895335161e+07  7.902974414517e-02
4.000000000000e-02 0.000000000000e+00 1.981274377825e-03 -1.958843195353e+07 -1.193151826157e+06 -1.963047254440e+07 -1.825512557868e+07 -5.127675209584e-02 -8.581072095916e-04 1.122994941924e-01 1.915801002554e+07 2.471105042101e+06  1.449173697991e-01
4.500000000000e-02 0.000000000000e+00 2.956158739623e-03 1.056958815598e+06 -1.346699702530e+06 -9.101589068255e+06 1.087308464452e+05 -5.608286941524e-01 2.497893417674e-01 -2.305797890068e-01 2.645299802071e+06 9.995169454639e+06  6.523528547483e-01
5.000000000000e-02 0.000000000000e+00 0.000000000000e+00 -7.700441749430e+07 1.106442360244e+07 9.098359954162e+06 -5.802321291611e+07 -1.268680754489e+00 1.428150729696e-01 1.066910383133e+00 4.197642348542e+07 8.066538530895e+07  2.040246486946e+00
 ZONE T="TIME=1.800000000000e+01"
0.000000000000e+00 0.000000000000e+00 0.000000000000e+00 -3.750985861957e+07 -3.848707670071e+02 -5.661145930208e+07 -3.766860794916e+07 1.528068797592e-04 1.973609210022e-05 -5.276411026997e-02 4.392997529027e+07 1.902272283680e+07  5.284069047730e-02
5.000000000000e-03 0.000000000000e+00 2.632799843860e-04 -3.767491020274e+07 -6.180787952380e+04 -5.623266388956e+07 -3.758340494495e+07 -9.009079640298e-05 -9.671844067172e-06 -5.257671373070e-02 4.383032634575e+07 1.860398311625e+07  5.253172894254e-02
1.000000000000e-02 0.000000000000e+00 5.263843318771e-04 -3.745469598483e+07 9.274043523392e+03 -5.623530317850e+07 -3.749830303735e+07 8.035394365671e-05 -3.266944278200e-05 -5.238874499966e-02 4.372943406689e+07 1.875884855841e+07  5.242899868905e-02
1.500000000000e-02 0.000000000000e+00 7.888495717910e-04 -3.731049402401e+07 -1.007928520395e+05 -5.600020895287e+07 -3.735382434137e+07 2.078761343469e-04 -3.946909688315e-04 -5.267998981988e-02 4.355484243942e+07 1.866890376953e+07  5.278866161813e-02
2.000000000000e-02 0.000000000000e+00 1.050276544026e-03 -3.646378984452e+07 -4.897065920121e+05 -5.496220111603e+07 -3.663290521954e+07 -1.001488936501e-04 -9.121772535010e-04 -5.155219360134e-02 4.268629872669e+07 1.843396027606e+07  5.152642042469e-02
2.500000000000e-02 0.000000000000e+00 1.312992766281e-03 -3.533078864610e+07 -1.344380361422e+06 -5.392014332802e+07 -3.585309013611e+07 -1.614965357257e-03 -3.666213447212e-03 -5.044157305640e-02 4.170134070341e+07 1.848106421060e+07  5.005818989515e-02
3.000000000000e-02 0.000000000000e+00 1.551689599300e-03 -3.269131765785e+07 1.916792010167e+06 -4.783159289382e+07 -3.270869474543e+07 -8.638107959553e-03 7.785813425667e-03 -5.944054097079e-02 3.774386843237e+07 1.549152726900e+07  5.723807895133e-02
3.500000000000e-02 0.000000000000e+00 1.862903171227e-03 -2.922520450109e+07 1.736435507990e+06 -3.752635273645e+07 -2.833677572764e+07 1.194817862212e-02 -7.613479339115e-03 -7.099116188210e-02 3.169611098839e+07 9.280030790682e+06  7.876937427361e-02
4.000000000000e-02 0.000000000000e+00 1.997058141212e-03 -2.412875116826e+07 -1.009810185221e+06 -2.217914294825e+07 -2.309816841807e+07 -5.111579178443e-02 -6.692725750823e-04 1.134594646359e-01 2.313535417819e+07 2.431664089847e+06  1.458999260893e-01
4.500000000000e-02 0.000000000000e+00 2.965257194134e-03 -8.401475849640e+06 -1.478020672967e+06 -1.540794760904e+07 -9.299972985600e+06 -5.609260125342e-01 2.496573927418e-01 -2.274395838532e-01 1.103646548143e+07 7.082110147317e+06  6.525154543990e-01
5.000000000000e-02 0.000000000000e+00 0.000000000000e+00 -8.658711300606e+07 1.116622920546e+07 -1.049291985742e+06 -6.730094399936e+07 -1.268742286473e+00 1.428367395882e-01 1.066334853823e+00 5.164578299705e+07 8.008141039719e+07  2.039825515351e+00
