 TITLE = "Time curves in points"
 VARIABLES = "TIME "  "DISPLACEMENT_X1"  "DISPLACEMENT_Y1"  "STRESS_XX"  "STRESS_XY"  "STRESS_YY"  "STRESS_ZZ"  "STRAIN_XX"  "STRAIN_XY"  "STRAIN_YY"  p_(1st_Invariant)  q_(2nd_Invariant)   Effective_Strain
 ZONE T="POINT=POINT6"
0.000000000000e+00 0.000000000000e+00 0.000000000000e+00 -1.000000000000e+05 0.000000000000e+00 -1.000000000000e+05 -1.000000000000e+05 0.000000000000e+00 0.000000000000e+00 0.000000000000e+00 1.000000000000e+05 0.000000000000e+00  0.000000000000e+00
1.000000000000e-03 -4.437523894730e-11 0.000000000000e+00 -1.157019887241e+05 1.620619702351e-02 -1.235549059819e+05 -1.157027344520e+05 7.212054795732e-08 3.054303875645e-09 -7.579210642669e-04 1.183198763860e+05 7.852544420414e+03  7.579571271327e-04
2.000000000000e-03 -2.235600425932e-08 0.000000000000e+00 -2.243416936173e+05 4.572649767796e+00 -2.865275954752e+05 -2.243476922871e+05 2.664891798839e-06 4.500134492346e-06 -2.757204529752e-02 2.450723271266e+05 6.218290324438e+04  2.757337894167e-02
3.000000000000e-03 -2.176448288438e-08 0.000000000000e+00 -5.448643621104e+05 4.717830258595e+00 -7.672987412158e+05 -5.448652186273e+05 2.398222008122e-06 4.515548596758e-06 -3.586798637801e-02 6.190094406511e+05 2.224339509982e+05  3.586918640183e-02
4.000000000000e-03 2.801687977959e-08 0.000000000000e+00 -1.124700359125e+06 -2.112074390115e+02 -1.636990201063e+06 -1.124676203740e+06 2.169989523460e-06 -5.574988141221e-07 -3.925128347571e-02 1.295455587976e+06 5.123020506697e+05  3.925236852733e-02
5.000000000000e-03 7.882769708482e-08 0.000000000000e+00 -1.342213000800e+06 -7.392482982306e+02 -1.963485086508e+06 -1.342279218032e+06 2.934481159107e-06 -8.034331568856e-06 -4.003186684919e-02 1.549325768446e+06 6.212402992486e+05  4.003333658906e-02
6.000000000000e-03 1.274623624422e-08 0.000000000000e+00 -1.453339899111e+06 -5.312173043099e+02 -2.131695072851e+06 -1.454013975112e+06 6.455152854614e-06 -4.159301766715e-06 -4.044771621784e-02 1.679682982358e+06 6.780190113494e+05  4.045094482207e-02
7.000000000000e-03 2.431773013236e-08 0.000000000000e+00 -1.489529389406e+06 -8.867966295573e+02 -2.188571529718e+06 -1.491240357303e+06 1.340646282261e-05 -8.778354546668e-06 -4.059043447749e-02 1.723113758809e+06 6.981899182223e+05  4.059714221634e-02
8.000000000000e-03 3.156963818530e-08 0.000000000000e+00 -1.508323323747e+06 -4.858742086446e+02 -2.215506259686e+06 -1.509531827253e+06 1.070849230272e-05 -4.447111834802e-06 -4.063694347383e-02 1.744453803562e+06 7.065799604631e+05  4.064229950795e-02
9.000000000000e-03 3.096667989202e-08 0.000000000000e+00 -1.520416988267e+06 -5.307027875342e+02 -2.233797986728e+06 -1.521685988104e+06 1.103125552816e-05 -4.926416946234e-06 -4.066966128230e-02 1.758633654366e+06 7.127479385392e+05  4.067517892696e-02
1.000000000000e-02 3.112966334573e-08 0.000000000000e+00 -1.533861471051e+06 -5.267788323281e+02 -2.253971215453e+06 -1.535133076928e+06 1.104494574352e-05 -4.884784777330e-06 -4.070521068484e-02 1.774321921144e+06 7.194753627948e+05  4.071073516058e-02
2.000000000000e-02 4.332289979150e-08 0.000000000000e+00 -4.371471605963e+06 -6.973161560129e+02 -6.514817490373e+06 -4.374515692333e+06 1.685047768266e-05 -5.990453884120e-06 -4.536014203414e-02 5.086934929556e+06 2.141825804176e+06  4.536857080638e-02
3.000000000000e-02 3.437523943035e-08 0.000000000000e+00 -2.498728178754e+06 -6.644503227324e+02 -3.703391582430e+06 -2.500847991442e+06 1.281353542572e-05 -5.708089912927e-06 -4.126850228741e-02 2.900989250875e+06 1.203605447593e+06  4.127491173093e-02
4.000000000000e-02 1.560059390417e-08 0.000000000000e+00 -2.942095373707e+06 -3.497524963235e+02 -4.365190242660e+06 -2.942914380411e+06 8.895475017344e-06 -3.841793848464e-06 -4.192331861091e-02 3.416733332259e+06 1.422685671382e+06  4.192776758418e-02
5.000000000000e-02 2.068880461981e-08 0.000000000000e+00 -2.505468260871e+06 1.086996138985e+02 -3.719573175331e+06 -2.510016744186e+06 2.238337328617e-05 -2.238140356063e-07 -4.117625525024e-02 2.911686060129e+06 1.211837089512e+06  4.118745150031e-02
6.000000000000e-02 6.881216401320e-08 0.000000000000e+00 -3.801387569824e+06 -1.231060764285e+02 -5.666346187211e+06 -3.807093708781e+06 2.611046438365e-05 -1.442618612829e-06 -4.322837872632e-02 4.424942488605e+06 1.862112117203e+06  4.324143994306e-02
7.000000000000e-02 1.226730325847e-07 0.000000000000e+00 -3.523108761348e+06 -5.664260804311e+02 -5.251437383540e+06 -3.529818702498e+06 2.889679266644e-05 -4.164104079944e-06 -4.285115983432e-02 4.101454949129e+06 1.724983718407e+06  4.286561614245e-02
8.000000000000e-02 5.006426030467e-08 0.000000000000e+00 -3.712875504178e+06 -1.360515376562e+02 -5.520660965023e+06 -3.713414862398e+06 1.098148093018e-05 -1.497000031584e-06 -4.308877933294e-02 4.315650443866e+06 1.807515857450e+06  4.309427120079e-02
9.000000000000e-02 3.165078939089e-08 0.000000000000e+00 -3.811199374579e+06 -1.009637767302e+02 -5.658290931561e+06 -3.807796425107e+06 8.055994867864e-07 -1.363545012507e-06 -4.320726662627e-02 4.425762243749e+06 1.848795388830e+06  4.320766949619e-02
1.000000000000e-01 2.213914035249e-08 0.000000000000e+00 -3.951000210049e+06 -5.708654314559e+02 -5.864713726939e+06 -3.946285900762e+06 -2.060582134256e-06 -3.398853261813e-06 -4.339265445276e-02 4.587333279250e+06 1.916075276315e+06  4.339162459773e-02
1.100000000000e-01 9.402285345582e-09 0.000000000000e+00 -4.122331455271e+06 -1.847628957664e+03 -6.116837573504e+06 -4.115667957322e+06 -7.002551712212e-06 -9.083418318880e-06 -4.355145689847e-02 4.784945662032e+06 1.997848764671e+06  4.354795888686e-02
1.200000000000e-01 1.553168407819e-08 0.000000000000e+00 -4.175426798377e+06 -2.922455168535e+03 -6.198423089659e+06 -4.169540319545e+06 -5.899252782607e-06 -1.281540171530e-05 -4.360217685741e-02 4.847796735861e+06 2.025952268009e+06  4.359923318072e-02
1.300000000000e-01 1.635170675669e-08 0.000000000000e+00 -4.376785973374e+06 -2.798803783738e+03 -6.497687598377e+06 -4.369789805712e+06 -8.583501497010e-06 -1.224514373270e-05 -4.384320230823e-02 5.081421125821e+06 2.124413879773e+06  4.383891631821e-02
1.400000000000e-01 1.675266666357e-08 0.000000000000e+00 -4.553663397693e+06 -2.340597693713e+03 -6.763202381125e+06 -4.546746697992e+06 -8.432422173975e-06 -1.013508117579e-05 -4.405167259941e-02 5.287870825604e+06 2.213009153361e+06  4.404746049173e-02
1.500000000000e-01 1.217312503811e-08 0.000000000000e+00 -4.716708221281e+06 -3.879172651439e+03 -7.012915877117e+06 -4.711850032349e+06 -4.678690820194e-06 -1.419485797591e-05 -4.421269610468e-02 5.480491376915e+06 2.298650420416e+06  4.421036378137e-02
1.600000000000e-01 -7.644038416965e-09 0.000000000000e+00 -4.819049798545e+06 -3.594950357497e+03 -7.172905456722e+06 -4.816782498145e+06 2.797284673951e-07 -1.344032228070e-05 -4.433381998588e-02 5.602912584471e+06 2.354998358611e+06  4.433396596264e-02
1.700000000000e-01 -7.193364693449e-09 0.000000000000e+00 -4.940515547209e+06 -3.827051084678e+03 -7.345900953270e+06 -4.934566997681e+06 -7.297462471905e-06 -1.505057774509e-05 -4.445631242101e-02 5.740327832720e+06 2.408374312709e+06  4.445267178265e-02
1.800000000000e-01 1.689385016067e-08 0.000000000000e+00 -5.099628609329e+06 -4.645143576951e+03 -7.573740292251e+06 -5.089347956207e+06 -1.414847973047e-05 -1.625960001599e-05 -4.457641859051e-02 5.920905619262e+06 2.479281050521e+06  4.456935493257e-02
1.900000000000e-01 6.703085714758e-08 0.000000000000e+00 -5.234324781455e+06 -3.603147345538e+03 -7.777059864655e+06 -5.224554247736e+06 -1.205967530620e-05 -1.153884554774e-05 -4.467431347325e-02 6.078646297949e+06 2.547642045803e+06  4.466828932769e-02
2.000000000000e-01 6.051745992035e-08 0.000000000000e+00 -5.357352693770e+06 -9.422876973878e+03 -7.975683403762e+06 -5.353214819987e+06 -2.849495024322e-06 -2.466410288621e-05 -4.477420338889e-02 6.228750305840e+06 2.620452923202e+06  4.477279908956e-02
2.100000000000e-01 5.253783391961e-08 0.000000000000e+00 -5.473606401745e+06 -1.177389356054e+04 -8.153443233767e+06 -5.470820224237e+06 -1.043806554404e-06 -3.167873646838e-05 -4.486126640218e-02 6.365956619916e+06 2.681308558122e+06  4.486077806324e-02
2.200000000000e-01 5.595452836365e-08 0.000000000000e+00 -5.591057124255e+06 -1.149490333372e+04 -8.330014575352e+06 -5.588429037304e+06 -8.131146898639e-07 -3.089580405589e-05 -4.494730983943e-02 6.503166912303e+06 2.740344767088e+06  4.494693514354e-02
2.300000000000e-01 5.849695316062e-08 0.000000000000e+00 -5.716975487019e+06 -1.243467757133e+04 -8.519501673461e+06 -5.714591206299e+06 -5.506684631366e-07 -3.339787203742e-05 -4.503846339526e-02 6.650356122259e+06 2.803801808841e+06  4.503822521261e-02
2.400000000000e-01 5.665765227418e-08 0.000000000000e+00 -5.837011063047e+06 -1.252654134239e+04 -8.699208316554e+06 -5.834488075284e+06 -7.583852313349e-07 -3.362783872017e-05 -4.512164729284e-02 6.790235818295e+06 2.863541778080e+06  4.512130569807e-02
2.500000000000e-01 5.362104218913e-08 0.000000000000e+00 -5.957932602640e+06 -1.204573086706e+04 -8.879780341985e+06 -5.955085480837e+06 -1.207106615530e-06 -3.231824285123e-05 -4.520329033394e-02 6.930932808487e+06 2.923346793201e+06  4.520272145222e-02
2.600000000000e-01 5.072008629546e-08 0.000000000000e+00 -6.077501630133e+06 -1.160157420064e+04 -9.058383796564e+06 -6.074354451659e+06 -1.615362695630e-06 -3.113010126596e-05 -4.528245277298e-02 7.070079959452e+06 2.982524694388e+06  4.528167721508e-02
2.700000000000e-01 4.749900794459e-08 0.000000000000e+00 -6.197453072366e+06 -1.113153043961e+04 -9.237578134019e+06 -6.194012740212e+06 -2.006910306635e-06 -2.989782303648e-05 -4.536033149019e-02 7.209681315533e+06 3.041907789413e+06  4.535935762828e-02
2.800000000000e-01 4.711979779222e-08 0.000000000000e+00 -6.316566523011e+06 -1.115981005160e+04 -9.416753749089e+06 -6.313328342085e+06 -1.748477771281e-06 -2.997047017985e-05 -4.543714207790e-02 7.348882871395e+06 3.101867810493e+06  4.543629751772e-02
2.900000000000e-01 4.691926914955e-08 0.000000000000e+00 -6.437582697973e+06 -1.118324114648e+04 -9.597902136091e+06 -6.434194141587e+06 -1.941575333424e-06 -3.002536882728e-05 -4.551303021567e-02 7.489892991884e+06 3.162074405912e+06  4.551208917171e-02
3.000000000000e-01 4.669331726905e-08 0.000000000000e+00 -6.558128760517e+06 -1.120516991720e+04 -9.778446045949e+06 -6.554630104609e+06 -2.080959048341e-06 -3.007608138877e-05 -4.558728872665e-02 7.630401637025e+06 3.222126488678e+06  4.558627804733e-02
3.100000000000e-01 4.648111835586e-08 0.000000000000e+00 -6.677074961683e+06 -1.122635339568e+04 -9.956581767317e+06 -6.673462847234e+06 -2.221825929544e-06 -3.012411453018e-05 -4.565922297718e-02 7.769039858744e+06 3.281371966498e+06  4.565814191749e-02
3.200000000000e-01 4.627950240309e-08 0.000000000000e+00 -6.793171664927e+06 -1.124645871428e+04 -1.013045117819e+07 -6.789449266245e+06 -2.356319354774e-06 -3.016887361913e-05 -4.572820550875e-02 7.904357369788e+06 3.339199086499e+06  4.572705725093e-02
3.300000000000e-01 4.609455509768e-08 0.000000000000e+00 -6.902079325222e+06 -1.126482393595e+04 -1.029355368949e+07 -6.898253308192e+06 -2.480555987356e-06 -3.020905321089e-05 -4.579184782364e-02 8.031295440967e+06 3.393445082703e+06  4.579063749038e-02
3.400000000000e-01 4.591512368169e-08 0.000000000000e+00 -7.010897062216e+06 -1.128279972910e+04 -1.045652177409e+07 -7.006967610276e+06 -2.602595161806e-06 -3.024774471562e-05 -4.585444031450e-02 8.158128815529e+06 3.447646504082e+06  4.585316900240e-02
3.500000000000e-01 4.574358461670e-08 0.000000000000e+00 -7.116809216484e+06 -1.129981093914e+04 -1.061513783085e+07 -7.112778868433e+06 -2.719787498120e-06 -3.028376653614e-05 -4.591443210084e-02 8.281575305256e+06 3.500400245245e+06  4.591310222976e-02
3.600000000000e-01 4.557975896836e-08 0.000000000000e+00 -7.217172182457e+06 -1.131571082631e+04 -1.076544241237e+07 -7.213045861636e+06 -2.829617484702e-06 -3.031695294372e-05 -4.597045846171e-02 8.398553485487e+06 3.550389286861e+06  4.596907370969e-02
3.700000000000e-01 4.543081719200e-08 0.000000000000e+00 -7.314058171309e+06 -1.133030165256e+04 -1.091054059188e+07 -7.309839503805e+06 -2.933836934412e-06 -3.034690286407e-05 -4.602380761559e-02 8.511479422333e+06 3.598647119319e+06  4.602237078314e-02
3.800000000000e-01 4.527898787352e-08 0.000000000000e+00 -7.412294862697e+06 -1.134511883182e+04 -1.105766095192e+07 -7.407982299944e+06 -3.038371194131e-06 -3.037694743830e-05 -4.607718223532e-02 8.625979371520e+06 3.647577213415e+06  4.607569316540e-02
3.900000000000e-01 4.513171253599e-08 0.000000000000e+00 -7.510416930913e+06 -1.135949739110e+04 -1.120460962827e+07 -7.506010574210e+06 -3.141391889399e-06 -3.040568043297e-05 -4.612979156844e-02 8.740345711131e+06 3.696450208847e+06  4.612825101583e-02
4.000000000000e-01 4.498328435057e-08 0.000000000000e+00 -7.609125464154e+06 -1.137369058542e+04 -1.135243649007e+07 -7.604624709642e+06 -3.243703114092e-06 -3.043366227554e-05 -4.618202503579e-02 8.855395554623e+06 3.745615236520e+06  4.618043335411e-02
4.100000000000e-01 4.484223923698e-08 0.000000000000e+00 -7.706335363917e+06 -1.138724420739e+04 -1.149801926322e+07 -7.701741757298e+06 -3.343027448859e-06 -3.046000056138e-05 -4.623280589476e-02 8.968698794811e+06 3.794034054365e+06  4.623116457515e-02
4.200000000000e-01 4.470459465628e-08 0.000000000000e+00 -7.803605054559e+06 -1.140056466744e+04 -1.164369048537e+07 -7.798918102074e+06 -3.441597950834e-06 -3.048554344866e-05 -4.628297892085e-02 9.082071214000e+06 3.842481789160e+06  4.628128833916e-02
4.300000000000e-01 4.456665686314e-08 0.000000000000e+00 -7.901440433852e+06 -1.141367924183e+04 -1.179020894423e+07 -7.896659618238e+06 -3.539463804623e-06 -3.051036165362e-05 -4.633281575011e-02 9.196102998773e+06 3.891211339023e+06  4.633107625756e-02
4.400000000000e-01 4.443478311501e-08 0.000000000000e+00 -7.997373409860e+06 -1.142629400981e+04 -1.193387888822e+07 -7.992500768451e+06 -3.634019250385e-06 -3.053392736996e-05 -4.638108664058e-02 9.307917688843e+06 3.938993778107e+06  4.637929989087e-02
4.500000000000e-01 4.430692163853e-08 0.000000000000e+00 -8.093025110222e+06 -1.143853633323e+04 -1.207712738779e+07 -8.088060832009e+06 -3.727235643575e-06 -3.055649222767e-05 -4.642864165469e-02 9.419404443341e+06 3.986635964654e+06  4.642680831590e-02
4.600000000000e-01 4.417916184737e-08 0.000000000000e+00 -8.189632017932e+06 -1.145069319683e+04 -1.222180529393e+07 -8.184574742549e+06 -3.820693544136e-06 -3.057862314705e-05 -4.647610293572e-02 9.532004018138e+06 4.034753036990e+06  4.647422288645e-02
4.700000000000e-01 4.405452469455e-08 0.000000000000e+00 -8.285832320177e+06 -1.146254681186e+04 -1.236587513784e+07 -8.280682787465e+06 -3.912309432916e-06 -3.059993123409e-05 -4.652281075649e-02 9.644130081828e+06 4.082668293600e+06  4.652088491663e-02
4.800000000000e-01 4.393456691540e-08 0.000000000000e+00 -8.380908139991e+06 -1.147397621763e+04 -1.250826006195e+07 -8.375667072971e+06 -4.002140137421e-06 -3.062021362731e-05 -4.656844110729e-02 9.754945091638e+06 4.130022765184e+06  4.656647036812e-02
4.900000000000e-01 4.381509115565e-08 0.000000000000e+00 -8.476667459316e+06 -1.148530497906e+04 -1.265166936095e+07 -8.471334509739e+06 -4.091280786279e-06 -3.064008074918e-05 -4.661387886014e-02 9.866557110002e+06 4.177718292359e+06  4.661186356609e-02
5.000000000000e-01 4.370033601711e-08 0.000000000000e+00 -8.571265031987e+06 -1.149620579774e+04 -1.279333816989e+07 -8.565841053338e+06 -4.178585998523e-06 -3.065895503391e-05 -4.665826265997e-02 9.976814751738e+06 4.224834662344e+06  4.665620372747e-02
5.100000000000e-01 4.358868920631e-08 0.000000000000e+00 -8.665538082113e+06 -1.150682375833e+04 -1.293452073533e+07 -8.660023292038e+06 -4.264711066087e-06 -3.067711539900e-05 -4.670200848033e-02 1.008669403649e+07 4.271789211857e+06  4.669990649849e-02
5.200000000000e-01 4.347819156805e-08 0.000000000000e+00 -8.760403007681e+06 -1.151730708152e+04 -1.307658914945e+07 -8.754796621897e+06 -4.350619338648e-06 -3.069483509036e-05 -4.674555014045e-02 1.019726292634e+07 4.319038132691e+06  4.674340521705e-02
5.300000000000e-01 4.337067704643e-08 0.000000000000e+00 -8.854687398579e+06 -1.152750614000e+04 -1.321778870618e+07 -8.848990196440e+06 -4.434870485570e-06 -3.071187048764e-05 -4.678836004123e-02 1.030715543373e+07 4.365998350757e+06  4.678617300395e-02
5.400000000000e-01 4.326556807845e-08 0.000000000000e+00 -8.948838761351e+06 -1.153752582505e+04 -1.335878907557e+07 -8.943050886282e+06 -4.518083922766e-06 -3.072841764192e-05 -4.683065629211e-02 1.041689290774e+07 4.412892346115e+06  4.682842765922e-02
5.500000000000e-01 4.316510234043e-08 0.000000000000e+00 -9.041281758951e+06 -1.154715037703e+04 -1.349723099155e+07 -9.035404850149e+06 -4.598930754830e-06 -3.074412755835e-05 -4.687175330729e-02 1.052463920022e+07 4.458935446813e+06  4.686948426115e-02
5.600000000000e-01 4.306552855395e-08 0.000000000000e+00 -9.134100133758e+06 -1.155662671835e+04 -1.363623411434e+07 -9.128133449062e+06 -4.679603852132e-06 -3.075942138728e-05 -4.691259545845e-02 1.063282256572e+07 4.505164754062e+06  4.691028608536e-02
5.700000000000e-01 4.296777992515e-08 0.000000000000e+00 -9.227009922384e+06 -1.156588246728e+04 -1.377537499749e+07 -9.220953719042e+06 -4.759224049826e-06 -3.077418657196e-05 -4.695306407923e-02 1.074111287964e+07 4.551440284869e+06  4.695071490487e-02
5.800000000000e-01 4.287275734030e-08 0.000000000000e+00 -9.318826320407e+06 -1.157488627731e+04 -1.391287799709e+07 -9.312681480719e+06 -4.837259682474e-06 -3.078839645330e-05 -4.699265705595e-02 1.084812859941e+07 4.597170892207e+06  4.699026887206e-02
5.900000000000e-01 4.278031886948e-08 0.000000000000e+00 -9.409993093843e+06 -1.158363241285e+04 -1.404940861220e+07 -9.403760440078e+06 -4.913807300758e-06 -3.080204662401e-05 -4.703158533603e-02 1.095438738204e+07 4.642578336461e+06  4.702915888592e-02
6.000000000000e-01 4.269000133955e-08 0.000000000000e+00 -9.500638584808e+06 -1.159199610850e+04 -1.418515648933e+07 -9.494317792519e+06 -4.989878651794e-06 -3.081493257081e-05 -4.706991717674e-02 1.106003762222e+07 4.687724494671e+06  4.706745269748e-02
6.100000000000e-01 4.260192598694e-08 0.000000000000e+00 -9.590408599063e+06 -1.160028289354e+04 -1.431959496609e+07 -9.584001195342e+06 -5.063922386604e-06 -3.082759166835e-05 -4.710752020394e-02 1.116466825350e+07 4.732435974728e+06  4.710501870930e-02
6.200000000000e-01 4.251725723714e-08 0.000000000000e+00 -9.678611368409e+06 -1.160818770674e+04 -1.445168570261e+07 -9.672118605261e+06 -5.136208557925e-06 -3.083952817385e-05 -4.714412441228e-02 1.126747189209e+07 4.776366343465e+06  4.714158678020e-02
6.300000000000e-01 4.243318316984e-08 0.000000000000e+00 -9.767275339541e+06 -1.161592277238e+04 -1.458446687165e+07 -9.760696669999e+06 -5.208286394658e-06 -3.085107901172e-05 -4.718058477806e-02 1.137081296040e+07 4.820526219837e+06  4.717801111212e-02
6.400000000000e-01 4.235198845396e-08 0.000000000000e+00 -9.854077944761e+06 -1.162339797683e+04 -1.471446096781e+07 -9.847415360255e+06 -5.278055680399e-06 -3.086213659737e-05 -4.721595999511e-02 1.147198475761e+07 4.863759404368e+06  4.721335144920e-02
6.500000000000e-01 4.227377466678e-08 0.000000000000e+00 -9.939266758338e+06 -1.163060846260e+04 -1.484203828298e+07 -9.932521822425e+06 -5.345921443512e-06 -3.087269810729e-05 -4.725037519772e-02 1.157127562125e+07 4.906188827377e+06  4.724773272317e-02
6.600000000000e-01 4.219645447565e-08 0.000000000000e+00 -1.002431046495e+07 -1.163758490505e+04 -1.496939740701e+07 -1.001748296626e+07 -5.413370734141e-06 -3.088280234122e-05 -4.728443793812e-02 1.167039694608e+07 4.948545276548e+06  4.728176174254e-02
6.700000000000e-01 4.212241279592e-08 0.000000000000e+00 -1.010729457639e+07 -1.164432675744e+04 -1.509367230339e+07 -1.010038658180e+07 -5.478574260966e-06 -3.089248250597e-05 -4.731739774381e-02 1.176711782053e+07 4.989876070415e+06  4.731468894983e-02
6.800000000000e-01 4.204891875378e-08 0.000000000000e+00 -1.019046399327e+07 -1.165095070165e+04 -1.521822491597e+07 -1.018347540677e+07 -5.543315024739e-06 -3.090190259204e-05 -4.735016047429e-02 1.186405477200e+07 5.031299326442e+06  4.734741931295e-02
6.900000000000e-01 4.197982910957e-08 0.000000000000e+00 -1.027008156314e+07 -1.165707781910e+04 -1.533745821618e+07 -1.026301576868e+07 -5.604836157007e-06 -3.091051906252e-05 -4.738127366685e-02 1.195685184933e+07 5.070953438310e+06  4.737850174723e-02
7.000000000000e-01 4.191319529722e-08 0.000000000000e+00 -1.034758015410e+07 -1.166297363870e+04 -1.545351812689e+07 -1.034043918386e+07 -5.664274765000e-06 -3.091874241623e-05 -4.741132742651e-02 1.204717915495e+07 5.109552133156e+06  4.740852578965e-02
7.100000000000e-01 4.184714423370e-08 0.000000000000e+00 -1.042488874085e+07 -1.166874305314e+04 -1.556929354835e+07 -1.041767280220e+07 -5.723102227033e-06 -3.092671792487e-05 -4.744108377056e-02 1.213728503047e+07 5.148056243023e+06  4.743825272175e-02
7.200000000000e-01 4.178315897521e-08 0.000000000000e+00 -1.050139618235e+07 -1.167432646722e+04 -1.568386896829e+07 -1.049410596233e+07 -5.780955337551e-06 -3.093436397219e-05 -4.747031481096e-02 1.222645703766e+07 5.186161158397e+06  4.746745483704e-02
7.300000000000e-01 4.172085332683e-08 0.000000000000e+00 -1.057647989505e+07 -1.167971086168e+04 -1.579631220304e+07 -1.056911675728e+07 -5.837332319093e-06 -3.094167450634e-05 -4.749879512576e-02 1.231396961846e+07 5.223556942423e+06  4.749590696453e-02
7.400000000000e-01 4.166013409347e-08 0.000000000000e+00 -1.065051379122e+07 -1.168492314955e+04 -1.590718345894e+07 -1.064307883442e+07 -5.892465107933e-06 -3.094869114786e-05 -4.752667967544e-02 1.240025869486e+07 5.260430020277e+06  4.752376394874e-02
7.500000000000e-01 4.159987662713e-08 0.000000000000e+00 -1.072536117800e+07 -1.169009906460e+04 -1.601927279620e+07 -1.071785354062e+07 -5.947865243583e-06 -3.095559912870e-05 -4.755467401085e-02 1.248749583828e+07 5.297708120494e+06  4.755173058481e-02
7.600000000000e-01 4.154179842221e-08 0.000000000000e+00 -1.079784613816e+07 -1.169495384562e+04 -1.612782346522e+07 -1.079026780909e+07 -6.001372997244e-06 -3.096201254178e-05 -4.758159836448e-02 1.257197913749e+07 5.333808993207e+06  4.757862818487e-02
7.700000000000e-01 4.148467831141e-08 0.000000000000e+00 -1.087027864235e+07 -1.169980746982e+04 -1.623629689844e+07 -1.086263020099e+07 -6.054086853062e-06 -3.096838745250e-05 -4.760832363690e-02 1.265640191393e+07 5.369884799121e+06  4.760532710070e-02
7.800000000000e-01 4.142933505274e-08 0.000000000000e+00 -1.094175544546e+07 -1.170449537478e+04 -1.634333869998e+07 -1.093403765986e+07 -6.105873353433e-06 -3.097449075308e-05 -4.763452180098e-02 1.273971060176e+07 5.405484295305e+06  4.763149937163e-02
7.900000000000e-01 4.137392946823e-08 0.000000000000e+00 -1.101307673893e+07 -1.170901280135e+04 -1.645014686774e+07 -1.100528946138e+07 -6.157426576128e-06 -3.098031113093e-05 -4.766049238052e-02 1.282283768935e+07 5.441005743829e+06  4.765744417428e-02
8.000000000000e-01 4.132063699392e-08 0.000000000000e+00 -1.108341979948e+07 -1.171342909363e+04 -1.655549056801e+07 -1.107556418268e+07 -6.207796465607e-06 -3.098596184956e-05 -4.768594245531e-02 1.290482485005e+07 5.476040386159e+06  4.768286906376e-02
8.100000000000e-01 4.126744127254e-08 0.000000000000e+00 -1.115362091122e+07 -1.171773701755e+04 -1.666062132885e+07 -1.114569694857e+07 -6.257848292252e-06 -3.099142601641e-05 -4.771118027472e-02 1.298664639622e+07 5.511004043781e+06  4.770808185669e-02
8.200000000000e-01 4.121603693096e-08 0.000000000000e+00 -1.122282253492e+07 -1.172190308373e+04 -1.676425544823e+07 -1.121483126250e+07 -6.306830457560e-06 -3.099666695417e-05 -4.773590357056e-02 1.306730308188e+07 5.545470034384e+06  4.773278066071e-02
8.300000000000e-01 4.116582575497e-08 0.000000000000e+00 -1.129042927976e+07 -1.172591828128e+04 -1.686550108036e+07 -1.128237222975e+07 -6.354403160140e-06 -3.100168173402e-05 -4.775990996609e-02 1.314610086329e+07 5.579141656353e+06  4.775676326906e-02
8.400000000000e-01 4.111606612279e-08 0.000000000000e+00 -1.135882453149e+07 -1.172988846161e+04 -1.696792755106e+07 -1.135070093490e+07 -6.402239449091e-06 -3.100659737742e-05 -4.778405040043e-02 1.322581767249e+07 5.613205994616e+06  4.778087978422e-02
8.500000000000e-01 4.106746246831e-08 0.000000000000e+00 -1.142616349731e+07 -1.173371947879e+04 -1.706877206619e+07 -1.141797434312e+07 -6.449080294620e-06 -3.101130210728e-05 -4.780767612929e-02 1.330430330221e+07 5.646744173054e+06  4.780448209147e-02
8.600000000000e-01 4.101967299607e-08 0.000000000000e+00 -1.149313086650e+07 -1.173745097858e+04 -1.716906004447e+07 -1.148487649757e+07 -6.495399689394e-06 -3.101584688804e-05 -4.783103358699e-02 1.338235580285e+07 5.680097242533e+06  4.782781638813e-02
8.700000000000e-01 4.097245616667e-08 0.000000000000e+00 -1.156004712210e+07 -1.174112668301e+04 -1.726927155986e+07 -1.155172762099e+07 -6.541388804242e-06 -3.102029131265e-05 -4.785423753649e-02 1.346034876765e+07 5.713424923462e+06  4.785099734165e-02
8.800000000000e-01 4.092722422904e-08 0.000000000000e+00 -1.162514986664e+07 -1.174455403881e+04 -1.736676673214e+07 -1.161676680226e+07 -6.586009823426e-06 -3.102438729788e-05 -4.787668359829e-02 1.353622780035e+07 5.745848993267e+06  4.787342109120e-02
8.900000000000e-01 4.088204342719e-08 0.000000000000e+00 -1.168970232218e+07 -1.174803576994e+04 -1.746343855959e+07 -1.168125652948e+07 -6.629799293134e-06 -3.102854481319e-05 -4.789881628385e-02 1.361146580375e+07 5.777999593200e+06  4.789553188056e-02
9.000000000000e-01 4.083733167603e-08 0.000000000000e+00 -1.175512475919e+07 -1.175140675569e+04 -1.756141272628e+07 -1.174661518441e+07 -6.674073109093e-06 -3.103252113768e-05 -4.792112260267e-02 1.368771755663e+07 5.810583077278e+06  4.791781606063e-02
9.100000000000e-01 4.079427023256e-08 0.000000000000e+00 -1.181872865648e+07 -1.175462338770e+04 -1.765666362747e+07 -1.181015711666e+07 -6.716847556775e-06 -3.103628610086e-05 -4.794268996256e-02 1.376184980020e+07 5.842260932414e+06  4.793936203137e-02
9.200000000000e-01 4.075178967136e-08 0.000000000000e+00 -1.188172101855e+07 -1.175776375133e+04 -1.775099865996e+07 -1.187308808671e+07 -6.758997349029e-06 -3.103993633610e-05 -4.796393566714e-02 1.383526925508e+07 5.873634170458e+06  4.796058665909e-02
9.300000000000e-01 4.070952022512e-08 0.000000000000e+00 -1.194524303138e+07 -1.176088713087e+04 -1.784612694800e+07 -1.193654821860e+07 -6.801254826676e-06 -3.104354171651e-05 -4.798524618432e-02 1.390930606599e+07 5.905271258242e+06  4.798187604548e-02
9.400000000000e-01 4.066898681631e-08 0.000000000000e+00 -1.200674647351e+07 -1.176379358792e+04 -1.793823215335e+07 -1.199799168844e+07 -6.841992142418e-06 -3.104685912555e-05 -4.800577149481e-02 1.398099010510e+07 5.935902884920e+06  4.800238098507e-02
9.500000000000e-01 4.062805833530e-08 0.000000000000e+00 -1.206931611313e+07 -1.176676769376e+04 -1.803193407123e+07 -1.206050032156e+07 -6.883216120060e-06 -3.105024195900e-05 -4.802654496675e-02 1.405391683531e+07 5.967065543471e+06  4.802313384283e-02
9.600000000000e-01 4.058851770911e-08 0.000000000000e+00 -1.213049294100e+07 -1.176956145045e+04 -1.812354996105e+07 -1.212161741800e+07 -6.923369087107e-06 -3.105338339261e-05 -4.804675187100e-02 1.412522010668e+07 5.997534352018e+06  4.804332066821e-02
9.700000000000e-01 4.054952062007e-08 0.000000000000e+00 -1.219115794474e+07 -1.177230544229e+04 -1.821439964956e+07 -1.218222330348e+07 -6.962909278595e-06 -3.105645074641e-05 -4.806668930532e-02 1.419592696593e+07 6.027748479153e+06  4.806323833002e-02
9.800000000000e-01 4.051114150273e-08 0.000000000000e+00 -1.225154809759e+07 -1.177498221273e+04 -1.830483754822e+07 -1.224255453187e+07 -7.002121953954e-06 -3.105941901738e-05 -4.808643791750e-02 1.426631339256e+07 6.057825572302e+06  4.808296733338e-02
9.900000000000e-01 4.047324321225e-08 0.000000000000e+00 -1.231172773201e+07 -1.177758864405e+04 -1.839496026358e+07 -1.230267547875e+07 -7.040983335915e-06 -3.106228499759e-05 -4.810602099972e-02 1.433645449145e+07 6.087797883690e+06  4.810253098232e-02
1.000000000000e+00 4.043664788769e-08 0.000000000000e+00 -1.237029577072e+07 -1.178007177052e+04 -1.848266934503e+07 -1.236118633295e+07 -7.078664596976e-06 -3.106499318319e-05 -4.812498770024e-02 1.440471714957e+07 6.116967409650e+06  4.812147883961e-02
1.050000000000e+00 4.025428242941e-08 0.000000000000e+00 -1.261034274155e+07 -1.179115306412e+04 -1.884213498357e+07 -1.260099138454e+07 -7.266904223529e-06 -3.107849252520e-05 -4.821979784331e-02 1.468448970322e+07 6.236506618578e+06  4.821619485010e-02
1.100000000000e+00 4.014887933898e-08 0.000000000000e+00 -1.289952325144e+07 -1.299063377834e+04 -1.927961949026e+07 -1.289165738109e+07 -6.111539779823e-06 -3.282934309791e-05 -4.832677289153e-02 1.502360004093e+07 6.384072459500e+06  4.832375086604e-02
1.150000000000e+00 3.992028780046e-08 0.000000000000e+00 -1.320044995129e+07 -1.427246998106e+04 -1.973573792228e+07 -1.319447540326e+07 -4.949497536401e-06 -3.440730894374e-05 -4.842098268052e-02 1.537688775894e+07 6.538324025393e+06  4.841854479741e-02
1.200000000000e+00 3.879800566832e-08 0.000000000000e+00 -1.346034121532e+07 -1.409847716743e+04 -2.012433085231e+07 -1.345386903334e+07 -5.251587621729e-06 -3.419727503742e-05 -4.849869566996e-02 1.567951370032e+07 6.667272802726e+06  4.849610626099e-02
1.250000000000e+00 3.793055289608e-08 0.000000000000e+00 -1.370928612978e+07 -1.409131538090e+04 -2.049732162498e+07 -1.370264324644e+07 -5.354519807321e-06 -3.418809021900e-05 -4.857200837924e-02 1.596975033374e+07 6.791403230218e+06  4.856936743833e-02
1.300000000000e+00 3.783423098137e-08 0.000000000000e+00 -1.395096604602e+07 -1.411981769769e+04 -2.085927073092e+07 -1.394409478251e+07 -5.488764271293e-06 -3.421933523752e-05 -4.864186160861e-02 1.625144385315e+07 6.911786145663e+06  4.863915357049e-02