VARIABLES  = "X","Y","Z", "DISPLACEMENT_X1", "DISPLACEMENT_Y1", "STRESS_XX", "STRESS_XY", "STRESS_YY", "STRESS_ZZ", "STRAIN_XX", "STRAIN_XY", "STRAIN_YY"
ZONE T="0.000000000000e+00s", N=32, E=38, F=FEPOINT, ET=QUADRILATERAL
STRANDID=1, SOLUTIONTIME=0.000000000000e+00
1.000000000000e-02 0.000000000000e+00 5.000000000000e-02 0.000000000000e+00 0.000000000000e+00 -1.000000000000e+05 0.000000000000e+00 -1.000000000000e+05 -1.000000000000e+05 0.000000000000e+00 0.000000000000e+00 0.000000000000e+00 
1.000000000000e-02 0.000000000000e+00 4.500000000000e-02 0.000000000000e+00 0.000000000000e+00 -1.000000000000e+05 0.000000000000e+00 -1.000000000000e+05 -1.000000000000e+05 0.000000000000e+00 0.000000000000e+00 0.000000000000e+00 
5.000000000000e-03 0.000000000000e+00 5.000000000000e-02 0.000000000000e+00 0.000000000000e+00 -1.000000000000e+05 0.000000000000e+00 -1.000000000000e+05 -1.000000000000e+05 0.000000000000e+00 0.000000000000e+00 0.000000000000e+00 
5.000000000000e-03 0.000000000000e+00 4.300000000000e-02 0.000000000000e+00 0.000000000000e+00 -1.000000000000e+05 0.000000000000e+00 -1.000000000000e+05 -1.000000000000e+05 0.000000000000e+00 0.000000000000e+00 0.000000000000e+00 
1.000000000000e-02 0.000000000000e+00 4.000000000000e-02 0.000000000000e+00 0.000000000000e+00 -1.000000000000e+05 0.000000000000e+00 -1.000000000000e+05 -1.000000000000e+05 0.000000000000e+00 0.000000000000e+00 0.000000000000e+00 
0.000000000000e+00 0.000000000000e+00 5.000000000000e-02 0.000000000000e+00 0.000000000000e+00 -1.000000000000e+05 0.000000000000e+00 -1.000000000000e+05 -1.000000000000e+05 0.000000000000e+00 0.000000000000e+00 0.000000000000e+00 
0.000000000000e+00 0.000000000000e+00 4.500000000000e-02 0.000000000000e+00 0.000000000000e+00 -1.000000000000e+05 0.000000000000e+00 -1.000000000000e+05 -1.000000000000e+05 0.000000000000e+00 0.000000000000e+00 0.000000000000e+00 
6.000000000000e-03 0.000000000000e+00 3.800000000000e-02 0.000000000000e+00 0.000000000000e+00 -1.000000000000e+05 0.000000000000e+00 -1.000000000000e+05 -1.000000000000e+05 0.000000000000e+00 0.000000000000e+00 0.000000000000e+00 
0.000000000000e+00 0.000000000000e+00 4.000000000000e-02 0.000000000000e+00 0.000000000000e+00 -1.000000000000e+05 0.000000000000e+00 -1.000000000000e+05 -1.000000000000e+05 0.000000000000e+00 0.000000000000e+00 0.000000000000e+00 
1.000000000000e-02 0.000000000000e+00 3.500000000000e-02 0.000000000000e+00 0.000000000000e+00 -1.000000000000e+05 0.000000000000e+00 -1.000000000000e+05 -1.000000000000e+05 0.000000000000e+00 0.000000000000e+00 0.000000000000e+00 
0.000000000000e+00 0.000000000000e+00 3.500000000000e-02 0.000000000000e+00 0.000000000000e+00 -1.000000000000e+05 0.000000000000e+00 -1.000000000000e+05 -1.000000000000e+05 0.000000000000e+00 0.000000000000e+00 0.000000000000e+00 
4.000000000000e-03 0.000000000000e+00 3.300000000000e-02 0.000000000000e+00 0.000000000000e+00 -1.000000000000e+05 0.000000000000e+00 -1.000000000000e+05 -1.000000000000e+05 0.000000000000e+00 0.000000000000e+00 0.000000000000e+00 
1.000000000000e-02 0.000000000000e+00 3.000000000000e-02 0.000000000000e+00 0.000000000000e+00 -1.000000000000e+05 0.000000000000e+00 -1.000000000000e+05 -1.000000000000e+05 0.000000000000e+00 0.000000000000e+00 0.000000000000e+00 
0.000000000000e+00 0.000000000000e+00 3.000000000000e-02 0.000000000000e+00 0.000000000000e+00 -1.000000000000e+05 0.000000000000e+00 -1.000000000000e+05 -1.000000000000e+05 0.000000000000e+00 0.000000000000e+00 0.000000000000e+00 
4.000000000000e-03 0.000000000000e+00 2.800000000000e-02 0.000000000000e+00 0.000000000000e+00 -1.000000000000e+05 0.000000000000e+00 -1.000000000000e+05 -1.000000000000e+05 0.000000000000e+00 0.000000000000e+00 0.000000000000e+00 
1.000000000000e-02 0.000000000000e+00 2.500000000000e-02 0.000000000000e+00 0.000000000000e+00 -1.000000000000e+05 0.000000000000e+00 -1.000000000000e+05 -1.000000000000e+05 0.000000000000e+00 0.000000000000e+00 0.000000000000e+00 
0.000000000000e+00 0.000000000000e+00 2.500000000000e-02 0.000000000000e+00 0.000000000000e+00 -1.000000000000e+05 0.000000000000e+00 -1.000000000000e+05 -1.000000000000e+05 0.000000000000e+00 0.000000000000e+00 0.000000000000e+00 
4.000000000000e-03 0.000000000000e+00 2.300000000000e-02 0.000000000000e+00 0.000000000000e+00 -1.000000000000e+05 0.000000000000e+00 -1.000000000000e+05 -1.000000000000e+05 0.000000000000e+00 0.000000000000e+00 0.000000000000e+00 
1.000000000000e-02 0.000000000000e+00 2.000000000000e-02 0.000000000000e+00 0.000000000000e+00 -1.000000000000e+05 0.000000000000e+00 -1.000000000000e+05 -1.000000000000e+05 0.000000000000e+00 0.000000000000e+00 0.000000000000e+00 
0.000000000000e+00 0.000000000000e+00 2.000000000000e-02 0.000000000000e+00 0.000000000000e+00 -1.000000000000e+05 0.000000000000e+00 -1.000000000000e+05 -1.000000000000e+05 0.000000000000e+00 0.000000000000e+00 0.000000000000e+00 
4.000000000000e-03 0.000000000000e+00 1.800000000000e-02 0.000000000000e+00 0.000000000000e+00 -1.000000000000e+05 0.000000000000e+00 -1.000000000000e+05 -1.000000000000e+05 0.000000000000e+00 0.000000000000e+00 0.000000000000e+00 
1.000000000000e-02 0.000000000000e+00 1.500000000000e-02 0.000000000000e+00 0.000000000000e+00 -1.000000000000e+05 0.000000000000e+00 -1.000000000000e+05 -1.000000000000e+05 0.000000000000e+00 0.000000000000e+00 0.000000000000e+00 
0.000000000000e+00 0.000000000000e+00 1.500000000000e-02 0.000000000000e+00 0.000000000000e+00 -1.000000000000e+05 0.000000000000e+00 -1.000000000000e+05 -1.000000000000e+05 0.000000000000e+00 0.000000000000e+00 0.000000000000e+00 
4.000000000000e-03 0.000000000000e+00 1.300000000000e-02 0.000000000000e+00 0.000000000000e+00 -1.000000000000e+05 0.000000000000e+00 -1.000000000000e+05 -1.000000000000e+05 0.000000000000e+00 0.000000000000e+00 0.000000000000e+00 
1.000000000000e-02 0.000000000000e+00 1.000000000000e-02 0.000000000000e+00 0.000000000000e+00 -1.000000000000e+05 0.000000000000e+00 -1.000000000000e+05 -1.000000000000e+05 0.000000000000e+00 0.000000000000e+00 0.000000000000e+00 
0.000000000000e+00 0.000000000000e+00 1.000000000000e-02 0.000000000000e+00 0.000000000000e+00 -1.000000000000e+05 0.000000000000e+00 -1.000000000000e+05 -1.000000000000e+05 0.000000000000e+00 0.000000000000e+00 0.000000000000e+00 
5.000000000000e-03 0.000000000000e+00 7.000000000000e-03 0.000000000000e+00 0.000000000000e+00 -1.000000000000e+05 0.000000000000e+00 -1.000000000000e+05 -1.000000000000e+05 0.000000000000e+00 0.000000000000e+00 0.000000000000e+00 
1.000000000000e-02 0.000000000000e+00 5.000000000000e-03 0.000000000000e+00 0.000000000000e+00 -1.000000000000e+05 0.000000000000e+00 -1.000000000000e+05 -1.000000000000e+05 0.000000000000e+00 0.000000000000e+00 0.000000000000e+00 
0.000000000000e+00 0.000000000000e+00 5.000000000000e-03 0.000000000000e+00 0.000000000000e+00 -1.000000000000e+05 0.000000000000e+00 -1.000000000000e+05 -1.000000000000e+05 0.000000000000e+00 0.000000000000e+00 0.000000000000e+00 
1.000000000000e-02 0.000000000000e+00 0.000000000000e+00 0.000000000000e+00 0.000000000000e+00 -1.000000000000e+05 0.000000000000e+00 -1.000000000000e+05 -1.000000000000e+05 0.000000000000e+00 0.000000000000e+00 0.000000000000e+00 
5.000000000000e-03 0.000000000000e+00 0.000000000000e+00 0.000000000000e+00 0.000000000000e+00 -1.000000000000e+05 0.000000000000e+00 -1.000000000000e+05 -1.000000000000e+05 0.000000000000e+00 0.000000000000e+00 0.000000000000e+00 
0.000000000000e+00 0.000000000000e+00 0.000000000000e+00 0.000000000000e+00 0.000000000000e+00 -1.000000000000e+05 0.000000000000e+00 -1.000000000000e+05 -1.000000000000e+05 0.000000000000e+00 0.000000000000e+00 0.000000000000e+00 
14  17  15  14
15  17  18  15
18  17  20  18
14  15  12  14
30  28  31  30
12  15  13  12
18  20  21  18
21  20  23  21
18  21  19  18
21  23  24  21
24  23  26  24
21  24  22  21
5  2  4  5
4  2  3  4
5  4  8  5
8  4  9  8
5  8  10  5
24  26  27  24
27  26  29  27
24  27  25  24
10  8  12  10
27  29  31  27
19  16  18  19
6  7  3  6
25  22  24  25
1  3  2  1
13  10  12  13
9  11  8  9
32  31  29  32
15  18  16  15
14  12  11  14
11  12  8  11
28  25  27  28
7  9  4  7
16  13  15  16
22  19  21  22
7  4  3  7
28  27  31  28
VARIABLES  = "X","Y","Z", "DISPLACEMENT_X1", "DISPLACEMENT_Y1", "STRESS_XX", "STRESS_XY", "STRESS_YY", "STRESS_ZZ", "STRAIN_XX", "STRAIN_XY", "STRAIN_YY"
ZONE T="1.000000000000e-03s", N=32, E=38, F=FEPOINT, ET=QUADRILATERAL
STRANDID=1, SOLUTIONTIME=1.000000000000e-03
1.000000000000e-02 0.000000000000e+00 5.000000000000e-02 0.000000000000e+00 0.000000000000e+00 -1.157019950871e+05 -3.953255527584e-01 -1.235552132283e+05 -1.157028990002e+05 8.731518429651e-08 -7.610127667709e-08 -7.573730036544e-04 
1.000000000000e-02 0.000000000000e+00 4.500000000000e-02 0.000000000000e+00 3.793097739181e-06 -1.156177417650e+05 -2.607320593880e+00 -1.234140786803e+05 -1.156127020004e+05 -4.833228154569e-07 -4.923299691458e-07 -7.597694480051e-04 
5.000000000000e-03 0.000000000000e+00 5.000000000000e-02 -4.437512247882e-11 0.000000000000e+00 -1.157019887241e+05 1.620621315333e-02 -1.235549059827e+05 -1.157027344524e+05 7.212057018389e-08 3.054306630660e-09 -7.579209654622e-04 
5.000000000000e-03 0.000000000000e+00 4.300000000000e-02 -1.346228614058e-10 5.312173072106e-06 -1.158275854752e+05 -2.343696214995e+00 -1.237317070564e+05 -1.158238262798e+05 -3.453440923151e-07 -4.407600032690e-07 -7.587000637708e-04 
1.000000000000e-02 0.000000000000e+00 4.000000000000e-02 0.000000000000e+00 7.606970709826e-06 -1.160675397729e+05 1.936247750581e+01 -1.241863459740e+05 -1.161015156882e+05 3.253177854458e-06 3.653735143925e-06 -7.667857060610e-04 
0.000000000000e+00 0.000000000000e+00 5.000000000000e-02 0.000000000000e+00 0.000000000000e+00 -1.157019907894e+05 4.584594305230e-01 -1.235550202049e+05 -1.157028244616e+05 8.057686225856e-08 8.823020981058e-08 -7.573000086429e-04 
0.000000000000e+00 0.000000000000e+00 4.500000000000e-02 0.000000000000e+00 3.793273367238e-06 -1.157016944584e+05 1.754684726771e+00 -1.235415394524e+05 -1.156972634370e+05 -4.290371535364e-07 3.397278083777e-07 -7.601543002415e-04 
6.000000000000e-03 0.000000000000e+00 3.800000000000e-02 -5.686560914836e-09 9.134058808298e-06 -1.163859009294e+05 3.809879829513e+00 -1.245208294972e+05 -1.163621297375e+05 -2.261960040239e-06 6.913182632400e-07 -7.711698183733e-04 
0.000000000000e+00 0.000000000000e+00 4.000000000000e-02 0.000000000000e+00 7.601630309524e-06 -1.160667522425e+05 -1.008116183175e+01 -1.241505332064e+05 -1.160869709268e+05 1.919368394560e-06 -1.931102132644e-06 -7.637322489696e-04 
1.000000000000e-02 0.000000000000e+00 3.500000000000e-02 0.000000000000e+00 1.138849552989e-05 -1.153673741061e+05 -8.597615456366e+01 -1.229876872163e+05 -1.153437254503e+05 -2.361900902395e-06 -1.644167178250e-05 -7.328364275878e-04 
0.000000000000e+00 0.000000000000e+00 3.500000000000e-02 0.000000000000e+00 1.138546561025e-05 -1.156578780727e+05 8.863531213006e+01 -1.232129319591e+05 -1.155494136924e+05 -1.017673915796e-05 1.695921232719e-05 -7.353065779509e-04 
4.000000000000e-03 0.000000000000e+00 3.300000000000e-02 -2.225719680323e-08 1.296181542695e-05 -1.152851848727e+05 9.516755769107e+01 -1.237621462448e+05 -1.156206433341e+05 3.182294859132e-05 1.808912501730e-05 -7.693591328503e-04 
1.000000000000e-02 0.000000000000e+00 3.000000000000e-02 0.000000000000e+00 1.545221893883e-05 -1.198857529993e+05 2.307750671906e+02 -1.297406950614e+05 -1.198417359406e+05 -5.998862896459e-06 4.029729727690e-05 -9.195004448797e-04 
0.000000000000e+00 0.000000000000e+00 3.000000000000e-02 0.000000000000e+00 1.529409119310e-05 -1.182010764415e+05 -8.465847187664e+01 -1.268242472276e+05 -1.180049169028e+05 -1.931191743366e-05 -1.464989185500e-05 -8.375650669744e-04 
4.000000000000e-03 0.000000000000e+00 2.800000000000e-02 -3.716541260106e-09 1.647000464296e-05 -1.158167544377e+05 -2.171984534941e+02 -1.197111403952e+05 -1.142156467658e+05 -1.515452816920e-04 -4.259880797816e-05 -5.202481226701e-04 
1.000000000000e-02 0.000000000000e+00 2.500000000000e-02 0.000000000000e+00 1.898059311339e-05 -1.030739948587e+05 9.225873896254e+02 -1.126857695613e+05 -1.063309422469e+05 3.152651675448e-04 1.831638538962e-04 -6.127262064888e-04 
0.000000000000e+00 0.000000000000e+00 2.500000000000e-02 0.000000000000e+00 1.919251422744e-05 -1.027183238745e+05 -2.056659354908e+03 -1.142303417216e+05 -1.068071480503e+05 3.984194200998e-04 -4.255159736574e-04 -6.814075421496e-04 
4.000000000000e-03 0.000000000000e+00 2.300000000000e-02 -8.524154956237e-08 2.243036752746e-05 -1.323529889721e+05 1.682850189988e+03 -1.565550463835e+05 -1.355058062430e+05 3.365885313921e-04 2.965896948012e-04 -2.371145215456e-03 
1.000000000000e-02 0.000000000000e+00 2.000000000000e-02 0.000000000000e+00 2.062772266986e-05 -1.361892969741e+05 -5.451854504376e+03 -1.206888058789e+05 -1.227151250681e+05 -1.782585639293e-03 -2.345273868485e-03 1.589469714131e-03 
0.000000000000e+00 0.000000000000e+00 2.000000000000e-02 0.000000000000e+00 1.874016643022e-05 -1.424162515087e+05 5.893471295386e+03 -1.159105145473e+05 -1.232770095108e+05 -3.166981643879e-03 2.882981226421e-03 2.327359935353e-03 
4.000000000000e-03 0.000000000000e+00 1.800000000000e-02 -1.846540618146e-06 1.917022276146e-05 -5.432722636928e+03 5.407072009902e+03 1.475212956623e+04 -1.655256768808e+04 1.381415454468e-03 8.842633147060e-04 5.073171506856e-03 
1.000000000000e-02 0.000000000000e+00 1.500000000000e-02 0.000000000000e+00 5.428145296750e-05 -9.152332582427e+04 2.859737625405e+04 -2.326492682093e+05 -1.484320986491e+05 6.477965434848e-03 1.326659118568e-02 -2.297243971982e-02 
0.000000000000e+00 0.000000000000e+00 1.500000000000e-02 0.000000000000e+00 5.140100982666e-05 -2.266230468441e+03 -1.596318679319e+04 -2.018911578723e+05 -1.015376146608e+05 1.161415321394e-02 -1.196343663529e-02 -2.536817866462e-02 
4.000000000000e-03 0.000000000000e+00 1.300000000000e-02 1.749397489552e-05 2.080244070448e-05 -2.088773120933e+05 -2.214542089416e+04 -1.718677976369e+05 -1.713138624489e+05 -2.199717015889e-02 -6.301584525048e-03 9.651200891551e-04 
1.000000000000e-02 0.000000000000e+00 1.000000000000e-02 0.000000000000e+00 -3.764036120640e-05 2.216623162819e+05 -3.511803270028e+04 3.411766152903e+05 1.998020573903e+05 4.376911622470e-03 -2.316679010247e-02 9.128948397563e-02 
0.000000000000e+00 0.000000000000e+00 1.000000000000e-02 0.000000000000e+00 -3.326971693083e-05 1.902575131602e+05 4.246175765486e+04 2.983133772304e+05 1.716767765168e+05 -4.674355288315e-03 6.570951551998e-03 9.280160193047e-02 
5.000000000000e-03 0.000000000000e+00 7.000000000000e-03 -6.523003543765e-06 3.128907899175e-04 7.625765235659e+03 1.292362332600e+03 -3.945948818720e+05 -1.741967268753e+05 1.542951084407e-01 -5.861882671480e-03 -1.740114325928e-01 
1.000000000000e-02 0.000000000000e+00 5.000000000000e-03 0.000000000000e+00 4.434171435519e-04 -2.245464376666e+05 5.029326349541e+03 -2.236214139217e+05 -1.965602264848e+05 -1.551702643239e-01 1.004488639256e-02 -2.148510086791e-01 
0.000000000000e+00 0.000000000000e+00 5.000000000000e-03 0.000000000000e+00 4.418716674223e-04 -2.918580462072e+05 -1.517852830266e+04 -2.408890602418e+05 -2.265070108848e+05 -2.080391218985e-01 -4.169551225039e-02 -2.171953966873e-01 
1.000000000000e-02 0.000000000000e+00 0.000000000000e+00 0.000000000000e+00 0.000000000000e+00 1.675768893470e+05 2.874171247859e+03 3.707655660396e+05 1.834823875059e+05 -2.072501526100e-02 7.666820613311e-03 3.434136823873e-01 
5.000000000000e-03 0.000000000000e+00 0.000000000000e+00 -3.459693557944e-07 0.000000000000e+00 2.647846480565e+05 -1.040940000744e+04 5.335098654979e+05 2.835865166867e+05 5.520522917889e-02 -1.019608612474e-02 3.558217422795e-01 
0.000000000000e+00 0.000000000000e+00 0.000000000000e+00 0.000000000000e+00 0.000000000000e+00 3.190606780122e+05 -5.534881072827e+03 6.866725452394e+05 3.494353654815e+05 -2.126460692846e-02 -7.773325259282e-03 3.440381446484e-01 
14  17  15  14
15  17  18  15
18  17  20  18
14  15  12  14
30  28  31  30
12  15  13  12
18  20  21  18
21  20  23  21
18  21  19  18
21  23  24  21
24  23  26  24
21  24  22  21
5  2  4  5
4  2  3  4
5  4  8  5
8  4  9  8
5  8  10  5
24  26  27  24
27  26  29  27
24  27  25  24
10  8  12  10
27  29  31  27
19  16  18  19
6  7  3  6
25  22  24  25
1  3  2  1
13  10  12  13
9  11  8  9
32  31  29  32
15  18  16  15
14  12  11  14
11  12  8  11
28  25  27  28
7  9  4  7
16  13  15  16
22  19  21  22
7  4  3  7
28  27  31  28
VARIABLES  = "X","Y","Z", "DISPLACEMENT_X1", "DISPLACEMENT_Y1", "STRESS_XX", "STRESS_XY", "STRESS_YY", "STRESS_ZZ", "STRAIN_XX", "STRAIN_XY", "STRAIN_YY"
ZONE T="1.000000000000e-02s", N=32, E=38, F=FEPOINT, ET=QUADRILATERAL
STRANDID=1, SOLUTIONTIME=1.000000000000e-02
1.000000000000e-02 0.000000000000e+00 5.000000000000e-02 0.000000000000e+00 0.000000000000e+00 -1.541355236380e+06 -4.286117605285e+02 -2.248463641378e+06 -1.535927532083e+06 -3.328249510329e-05 -5.662714057379e-06 -4.063625233947e-02 
1.000000000000e-02 0.000000000000e+00 4.500000000000e-02 0.000000000000e+00 2.031656651461e-04 -1.538419818439e+06 -5.787857604157e+03 -2.245751059434e+06 -1.533668396759e+06 -3.840705975897e-05 -5.640565940658e-05 -4.063427060376e-02 
5.000000000000e-03 0.000000000000e+00 5.000000000000e-02 3.112894649818e-08 0.000000000000e+00 -1.533861750844e+06 -5.268066529824e+02 -2.253971746252e+06 -1.535133401165e+06 1.104516856838e-05 -4.885231644735e-06 -4.070521128161e-02 
5.000000000000e-03 0.000000000000e+00 4.300000000000e-02 1.138937553482e-07 2.847820640456e-04 -1.539392025967e+06 -5.176028049182e+03 -2.267731799173e+06 -1.542849487096e+06 2.839908643697e-05 -6.997305212660e-05 -4.062475147893e-02 
1.000000000000e-02 0.000000000000e+00 4.000000000000e-02 0.000000000000e+00 4.061951771490e-04 -1.536243869722e+06 2.561105051412e+03 -2.224410437839e+06 -1.524261642347e+06 -8.667535036836e-05 -1.608878320298e-05 -4.058937539078e-02 
0.000000000000e+00 0.000000000000e+00 5.000000000000e-02 0.000000000000e+00 0.000000000000e+00 -1.538560326960e+06 5.594607880425e+02 -2.263602379907e+06 -1.540865060643e+06 1.179350528712e-05 7.074849089519e-06 -4.067224084547e-02 
0.000000000000e+00 0.000000000000e+00 4.500000000000e-02 0.000000000000e+00 2.033183509530e-04 -1.533246966432e+06 2.012252840462e+03 -2.256034651965e+06 -1.535712681614e+06 9.914064061891e-06 2.083751847095e-05 -4.067508484175e-02 
6.000000000000e-03 0.000000000000e+00 3.800000000000e-02 1.487202492946e-07 4.875998224005e-04 -1.537637332628e+06 -6.775192051892e+03 -2.265344019412e+06 -1.541192825201e+06 -1.072024340711e-05 -7.995539323185e-05 -4.052168932816e-02 
0.000000000000e+00 0.000000000000e+00 4.000000000000e-02 0.000000000000e+00 4.069435379379e-04 -1.535244060381e+06 -1.017999167701e+03 -2.266053741127e+06 -1.540519017382e+06 5.160786492048e-05 -6.755383766129e-05 -4.060030637556e-02 
1.000000000000e-02 0.000000000000e+00 3.500000000000e-02 0.000000000000e+00 6.095321321041e-04 -1.537845435929e+06 -4.946319416778e+03 -2.222740779035e+06 -1.524234658383e+06 -6.138459854587e-05 1.099577875957e-04 -4.080136237367e-02 
0.000000000000e+00 0.000000000000e+00 3.500000000000e-02 0.000000000000e+00 6.102447874268e-04 -1.529289021655e+06 -6.190918816489e+03 -2.274283019738e+06 -1.541428668643e+06 1.855666729403e-04 -2.867678691361e-04 -4.080694655633e-02 
4.000000000000e-03 0.000000000000e+00 3.300000000000e-02 8.200350904806e-08 6.902160320997e-04 -1.533765012569e+06 -4.503503732212e+03 -2.266133461351e+06 -1.539958064104e+06 6.304244733571e-05 -6.684713745636e-05 -4.070064112377e-02 
1.000000000000e-02 0.000000000000e+00 3.000000000000e-02 0.000000000000e+00 8.098636441911e-04 -1.552707698550e+06 -1.564089598599e+03 -2.215285023669e+06 -1.527197943378e+06 -3.622020299839e-04 -4.290116394271e-04 -3.892112461509e-02 
0.000000000000e+00 0.000000000000e+00 3.000000000000e-02 0.000000000000e+00 8.116701279493e-04 -1.547444683744e+06 -1.205118709920e+04 -2.301248764558e+06 -1.559478802157e+06 -3.413113426988e-04 -4.591722898571e-05 -3.955656244277e-02 
4.000000000000e-03 0.000000000000e+00 2.800000000000e-02 -2.198026776785e-06 8.977738554090e-04 -1.514434248658e+06 2.130798119619e+03 -2.296273674047e+06 -1.544287559248e+06 6.514719327956e-04 1.952883209947e-03 -4.323541560519e-02 
1.000000000000e-02 0.000000000000e+00 2.500000000000e-02 0.000000000000e+00 1.021350582720e-03 -1.509880110026e+06 -1.848096233709e+04 -2.066964739901e+06 -1.450728967253e+06 4.907988583051e-04 -1.185841765527e-03 -4.297586155461e-02 
0.000000000000e+00 0.000000000000e+00 2.500000000000e-02 0.000000000000e+00 1.012412907788e-03 -1.593792478627e+06 -3.762306577136e+04 -2.164808317394e+06 -1.523429814791e+06 -2.873011356307e-03 5.525944648766e-04 -3.819386207103e-02 
4.000000000000e-03 0.000000000000e+00 2.300000000000e-02 -6.284832330525e-06 1.095417135299e-03 -1.610353265767e+06 8.907042736351e+04 -2.582327548368e+06 -1.697058839426e+06 1.083950634690e-03 6.623501538505e-03 -3.531218968418e-02 
1.000000000000e-02 0.000000000000e+00 2.000000000000e-02 0.000000000000e+00 1.236591670567e-03 -1.359352763511e+06 -4.906394629914e+04 -1.725124712451e+06 -1.253816738153e+06 4.310228215796e-04 -1.792568451344e-03 -5.588306622247e-02 
0.000000000000e+00 0.000000000000e+00 2.000000000000e-02 0.000000000000e+00 1.191479295524e-03 -1.382397964926e+06 1.334110037666e+04 -1.777780434692e+06 -1.284093949775e+06 -9.130021713976e-03 3.343199221815e-03 -4.788571097653e-02 
4.000000000000e-03 0.000000000000e+00 1.800000000000e-02 -2.676024608102e-05 1.286694059805e-03 -1.295990208513e+06 1.653409437597e+04 -2.200078573578e+06 -1.418435703912e+06 -9.520282658146e-04 8.868155471823e-03 -3.418334711593e-02 
1.000000000000e-02 0.000000000000e+00 1.500000000000e-02 0.000000000000e+00 1.520413233558e-03 -2.206843371733e+06 -4.437015427003e+04 -2.777662074940e+06 -2.013834325181e+06 1.635265392322e-02 1.549720359139e-02 -8.261497320204e-02 
0.000000000000e+00 0.000000000000e+00 1.500000000000e-02 0.000000000000e+00 1.445338199126e-03 -1.468082887517e+06 6.176032934986e+04 -2.735245673682e+06 -1.701467853404e+06 1.653369344626e-02 -1.491126427155e-02 -6.766483866710e-02 
4.000000000000e-03 0.000000000000e+00 1.300000000000e-02 -2.109572031519e-07 1.486211596287e-03 -1.881728337824e+06 -1.445922369201e+05 -2.782057469031e+06 -1.886252473688e+06 -3.924216811608e-02 1.855469636897e-02 -4.459169354102e-02 
1.000000000000e-02 0.000000000000e+00 1.000000000000e-02 0.000000000000e+00 1.580276293215e-03 2.208614430248e+05 -3.100762136164e+05 1.315785066759e+06 5.939108399205e+05 1.380084034701e-02 -7.526101447785e-02 1.084997225886e-01 
0.000000000000e+00 0.000000000000e+00 1.000000000000e-02 0.000000000000e+00 1.436536677662e-03 -7.003968424768e+05 8.724006835446e+05 1.882432715083e+06 4.536452858834e+05 -3.980913586813e-02 3.237894225478e-02 1.494112918952e-01 
5.000000000000e-03 0.000000000000e+00 7.000000000000e-03 -1.201940444009e-04 2.274989109081e-03 3.470152427443e+06 1.489071250793e+05 -9.903231599673e+06 -2.572516781130e+06 3.566754828225e-01 9.309822874036e-02 -4.437142142349e-01 
1.000000000000e-02 0.000000000000e+00 5.000000000000e-03 0.000000000000e+00 3.047348013544e-03 -6.092985418059e+06 -4.577938953977e+05 -1.150415876537e+07 -6.193131622744e+06 -3.998922968959e-01 8.188956188644e-02 -7.215635921018e-01 
0.000000000000e+00 0.000000000000e+00 5.000000000000e-03 0.000000000000e+00 2.358243523297e-03 -7.340829506037e+06 -4.776652072219e+05 -8.727575026977e+06 -5.325159592369e+06 -6.746009209890e-01 1.336176001020e-01 -3.651049865754e-01 
1.000000000000e-02 0.000000000000e+00 0.000000000000e+00 0.000000000000e+00 0.000000000000e+00 1.294477834950e+06 1.310592731510e+06 3.741775564043e+07 1.163828726993e+07 -1.603787333675e-01 4.912658666815e-02 1.924388852864e+00 
5.000000000000e-03 0.000000000000e+00 0.000000000000e+00 1.150054298991e-04 0.000000000000e+00 1.328226001811e+07 -7.421340494597e+05 3.148542763188e+07 1.473231953990e+07 3.097111802118e-01 -4.373282782781e-02 1.584643958252e+00 
0.000000000000e+00 0.000000000000e+00 0.000000000000e+00 0.000000000000e+00 0.000000000000e+00 2.167137779120e+06 3.274804375794e+06 4.396662992380e+07 1.233256324634e+07 -1.089840135690e-01 -2.006351248032e-02 1.140652708754e+00 
14  17  15  14
15  17  18  15
18  17  20  18
14  15  12  14
30  28  31  30
12  15  13  12
18  20  21  18
21  20  23  21
18  21  19  18
21  23  24  21
24  23  26  24
21  24  22  21
5  2  4  5
4  2  3  4
5  4  8  5
8  4  9  8
5  8  10  5
24  26  27  24
27  26  29  27
24  27  25  24
10  8  12  10
27  29  31  27
19  16  18  19
6  7  3  6
25  22  24  25
1  3  2  1
13  10  12  13
9  11  8  9
32  31  29  32
15  18  16  15
14  12  11  14
11  12  8  11
28  25  27  28
7  9  4  7
16  13  15  16
22  19  21  22
7  4  3  7
28  27  31  28
VARIABLES  = "X","Y","Z", "DISPLACEMENT_X1", "DISPLACEMENT_Y1", "STRESS_XX", "STRESS_XY", "STRESS_YY", "STRESS_ZZ", "STRAIN_XX", "STRAIN_XY", "STRAIN_YY"
ZONE T="1.000000000000e-01s", N=32, E=38, F=FEPOINT, ET=QUADRILATERAL
STRANDID=1, SOLUTIONTIME=1.000000000000e-01
1.000000000000e-02 0.000000000000e+00 5.000000000000e-02 0.000000000000e+00 0.000000000000e+00 -4.030190045472e+06 -1.793227654167e+02 -5.929706091082e+06 -4.003958196275e+06 -8.525500591313e-05 -4.969250706308e-06 -4.324972340577e-02 
1.000000000000e-02 0.000000000000e+00 4.500000000000e-02 0.000000000000e+00 2.163104981777e-04 -3.941765249067e+06 -9.181946681026e+03 -5.850920639040e+06 -3.937074780498e+06 -4.420118722565e-05 -7.444338575160e-05 -4.335040960285e-02 
5.000000000000e-03 0.000000000000e+00 5.000000000000e-02 -1.616585368837e-08 0.000000000000e+00 -3.974421834589e+06 -8.018791889002e+02 -5.905505307916e+06 -3.971971191998e+06 5.995886935702e-06 -4.979392846303e-06 -4.336581707251e-02 
5.000000000000e-03 0.000000000000e+00 4.300000000000e-02 5.039204178345e-08 3.033131685090e-04 -3.967836176651e+06 -1.044615352161e+04 -5.923203050927e+06 -3.976414125857e+06 4.231528610349e-05 -9.763498187302e-05 -4.319147068376e-02 
1.000000000000e-02 0.000000000000e+00 4.000000000000e-02 0.000000000000e+00 4.323820868050e-04 -3.967595284748e+06 1.906276545332e+04 -5.840774893635e+06 -3.943348372780e+06 -1.142503661819e-04 8.117395730852e-05 -4.307127454702e-02 
0.000000000000e+00 0.000000000000e+00 5.000000000000e-02 0.000000000000e+00 0.000000000000e+00 -3.954780638761e+06 2.139349727340e+03 -5.964254902025e+06 -3.987613894384e+06 8.706446374909e-05 1.587097287950e-05 -4.335543566839e-02 
0.000000000000e+00 0.000000000000e+00 4.500000000000e-02 0.000000000000e+00 2.163573129326e-04 -3.962058372472e+06 8.712781508959e+03 -5.896541296496e+06 -3.963440320101e+06 3.271361859357e-06 5.874706601954e-05 -4.329149804968e-02 
6.000000000000e-03 0.000000000000e+00 3.800000000000e-02 2.088211621880e-07 5.186372500596e-04 -3.973463254982e+06 -2.812257763023e+04 -5.918904269761e+06 -3.976955063384e+06 -1.198304783593e-05 -1.884298213583e-04 -4.306451235291e-02 
0.000000000000e+00 0.000000000000e+00 4.000000000000e-02 0.000000000000e+00 4.330376290873e-04 -3.954079782300e+06 1.218913299336e+04 -5.915001222309e+06 -3.967631536987e+06 6.796681158986e-05 6.660961515805e-06 -4.315834943229e-02 
1.000000000000e-02 0.000000000000e+00 3.500000000000e-02 0.000000000000e+00 6.484215603162e-04 -3.951381669748e+06 2.179567600029e+03 -5.866912125713e+06 -3.947297181254e+06 -2.435323510098e-05 1.591979746816e-04 -4.345642209928e-02 
0.000000000000e+00 0.000000000000e+00 3.500000000000e-02 0.000000000000e+00 6.493432628785e-04 -3.936455927248e+06 -8.485270722791e+03 -5.883869857532e+06 -3.948115078893e+06 1.715834841800e-04 -2.659950742623e-04 -4.342153090974e-02 
4.000000000000e-03 0.000000000000e+00 3.300000000000e-02 1.993698695431e-07 7.346158772581e-04 -3.975593753763e+06 -1.679376690286e+04 -5.922276362693e+06 -3.979122248898e+06 4.322747627198e-05 -1.110840353045e-04 -4.332793288490e-02 
1.000000000000e-02 0.000000000000e+00 3.000000000000e-02 0.000000000000e+00 8.623267962827e-04 -3.906361139323e+06 6.170172661987e+04 -5.794497284115e+06 -3.900455501592e+06 -2.746646908708e-04 -5.939041251916e-05 -4.148515607268e-02 
0.000000000000e+00 0.000000000000e+00 3.000000000000e-02 0.000000000000e+00 8.647370812015e-04 -3.931591743462e+06 -7.832885547408e+04 -5.990310466521e+06 -3.988834979744e+06 -2.107716207855e-04 -4.029275460356e-04 -4.231544416248e-02 
4.000000000000e-03 0.000000000000e+00 2.800000000000e-02 -2.173014490007e-06 9.549660884759e-04 -3.972363808325e+06 -4.175656122274e+04 -5.799806226598e+06 -3.928834759330e+06 3.606134571966e-04 1.630344058303e-03 -4.544468371407e-02 
1.000000000000e-02 0.000000000000e+00 2.500000000000e-02 0.000000000000e+00 1.090835547689e-03 -3.963107983002e+06 2.877727773509e+05 -5.841848571824e+06 -3.941579332645e+06 7.588551017842e-04 9.735168035491e-04 -4.620181639545e-02 
0.000000000000e+00 0.000000000000e+00 2.500000000000e-02 0.000000000000e+00 1.081251393508e-03 -4.110888330032e+06 -4.641242377248e+05 -6.747873471191e+06 -4.363102889441e+06 -1.843947631089e-03 -2.292053956928e-03 -4.165239201156e-02 
4.000000000000e-03 0.000000000000e+00 2.300000000000e-02 -6.048272000488e-06 1.172691036219e-03 -3.905168640986e+06 7.060316676805e+03 -5.682139992785e+06 -3.855482213329e+06 4.481804216575e-04 6.454243024390e-03 -4.127671578507e-02 
1.000000000000e-02 0.000000000000e+00 2.000000000000e-02 0.000000000000e+00 1.323184502836e-03 -3.772751906057e+06 -1.782835445939e+05 -5.658906851003e+06 -3.793148810027e+06 9.939450491221e-04 -2.615559377812e-03 -6.066849799860e-02 
0.000000000000e+00 0.000000000000e+00 2.000000000000e-02 0.000000000000e+00 1.278921279378e-03 -4.073817517011e+06 3.823614205384e+05 -6.186806975191e+06 -4.125015031643e+06 -8.692330088991e-03 5.767291406141e-03 -5.125393327762e-02 
4.000000000000e-03 0.000000000000e+00 1.800000000000e-02 -2.781672127325e-05 1.386495656328e-03 -3.415218424547e+06 5.049403786855e+04 -5.742057770301e+06 -3.679097133920e+06 -6.312737603983e-04 9.826058053384e-03 -4.108680599595e-02 