 TITLE = "Time curves in points"
 VARIABLES = "TIME "  "PRESSURE1"  "PRESSURE2"  "PRESSURE_W"  "SATURATION1" SATURATION2  "VELOCITY_X1"  "VELOCITY_Y1"  "VELOCITY_X2"  "VELOCITY_Y2"  p_(1st_Invariant)  q_(2nd_Invariant)   Effective_Strain
 ZONE T="POINT=POINT4"
0.000000000000e+00 8.400000000000e+07 1.000000000000e+05 -8.390000000000e+07 6.601393844892e-01 3.398606155108e-01 0.000000000000e+00 0.000000000000e+00 0.000000000000e+00 0.000000000000e+00 1.000000000000e+05 0.000000000000e+00  0.000000000000e+00
1.000000000000e-03 8.352577166387e-314 1.000000000000e+05 1.000000000000e+05 1.000000000000e+00 0.000000000000e+00 2.245939834686e-06 3.928132540998e-04 2.880190897202e-13 -6.005725438094e-14 -3.606269982560e+05 2.604597453155e+05  3.321526595181e-01
2.000000000000e-03 8.352577166387e-314 1.000000000000e+05 1.000000000000e+05 1.000000000000e+00 0.000000000000e+00 2.228286284990e-06 3.926518360357e-04 6.004459015444e-13 -1.178869167990e-13 -7.016645548775e+05 4.136322349952e+05  1.039045771427e+00
3.000000000000e-03 8.352577166387e-314 1.000000000000e+05 1.000000000000e+05 1.000000000000e+00 0.000000000000e+00 2.210776348957e-06 3.924904948887e-04 9.085145189003e-13 -1.737821479906e-13 -1.624340619950e+06 7.747793001380e+05  1.307233503880e+00
4.000000000000e-03 8.352577166387e-314 1.000000000000e+05 1.000000000000e+05 1.000000000000e+00 0.000000000000e+00 2.193408635950e-06 3.923292315385e-04 1.213792832724e-12 -2.279195907365e-13 -5.720918146048e+06 3.519629629472e+06  1.421790108625e+00
5.000000000000e-03 8.352577166387e-314 1.000000000000e+05 1.000000000000e+05 1.000000000000e+00 0.000000000000e+00 2.176182427859e-06 3.921680469031e-04 1.514365584579e-12 -2.802543219636e-13 -1.119476170160e+07 4.610221907618e+06  1.444944408749e+00
6.000000000000e-03 8.352577166387e-314 1.000000000000e+05 1.000000000000e+05 1.000000000000e+00 0.000000000000e+00 2.159096160922e-06 3.920069418289e-04 1.812571153983e-12 -3.307796288441e-13 -2.354371090480e+07 1.557515084456e+07  1.453577545187e+00
7.000000000000e-03 8.352577166387e-314 1.000000000000e+05 1.000000000000e+05 1.000000000000e+00 0.000000000000e+00 2.142039280724e-06 3.918458201604e-04 2.106898778520e-12 -3.794535427786e-13 -2.208258495560e+07 1.461510581959e+07  1.454392064032e+00
8.000000000000e-03 8.352577166387e-314 1.000000000000e+05 1.000000000000e+05 1.000000000000e+00 0.000000000000e+00 2.124232611070e-06 3.916839884554e-04 2.396921213295e-12 -4.261296076905e-13 -2.125662601079e+07 1.572183137148e+07  1.455125545770e+00
9.000000000000e-03 8.352577166387e-314 1.000000000000e+05 1.000000000000e+05 1.000000000000e+00 0.000000000000e+00 2.106868747042e-06 3.915219729314e-04 2.683601288127e-12 -4.711056157655e-13 -2.049749280646e+07 1.667740938849e+07  1.455908237943e+00
1.000000000000e-02 8.352577166387e-314 1.000000000000e+05 1.000000000000e+05 1.000000000000e+00 0.000000000000e+00 2.089684680294e-06 3.913600056596e-04 2.966802692080e-12 -5.140975921738e-13 -1.983333459436e+07 1.757027628625e+07  1.456699440579e+00
2.000000000000e-02 8.352577166387e-314 1.000000000000e+05 1.000000000000e+05 1.000000000000e+00 0.000000000000e+00 1.927855301449e-06 3.897526556426e-04 5.599043308280e-12 -7.868112707612e-13 -5.630622353162e+07 6.835481316122e+07  1.539703283987e+00
3.000000000000e-02 8.352577166387e-314 1.000000000000e+05 1.000000000000e+05 1.000000000000e+00 0.000000000000e+00 1.778616811740e-06 3.881460008991e-04 7.876476831897e-12 -9.106429036110e-13 3.772979499771e+05 3.771196019709e+07  1.649682765163e+00
4.000000000000e-02 8.352577166387e-314 1.000000000000e+05 1.000000000000e+05 1.000000000000e+00 0.000000000000e+00 1.638067586844e-06 3.865413870872e-04 1.004302460936e-11 -9.626049179287e-13 -1.842253628574e+07 3.491512517756e+07  1.445245231520e+00
5.000000000000e-02 8.352577166387e-314 1.000000000000e+05 1.000000000000e+05 1.000000000000e+00 0.000000000000e+00 1.505917478568e-06 3.849286726502e-04 1.224468319121e-11 -1.027213620942e-12 1.092443372234e+06 3.306488520574e+07  1.429565568877e+00
6.000000000000e-02 8.352577166387e-314 1.000000000000e+05 1.000000000000e+05 1.000000000000e+00 0.000000000000e+00 1.384176405527e-06 3.833083525437e-04 1.432872653836e-11 -1.050007177074e-12 -9.450585101420e+06 3.836783152005e+07  1.528234706527e+00
7.000000000000e-02 8.352577166387e-314 1.000000000000e+05 1.000000000000e+05 1.000000000000e+00 0.000000000000e+00 1.269524212571e-06 3.816815042714e-04 1.629575032418e-11 -1.042778158688e-12 -1.282798052158e+07 3.330345005469e+07  1.588282861757e+00
8.000000000000e-02 8.352577166387e-314 1.000000000000e+05 1.000000000000e+05 1.000000000000e+00 0.000000000000e+00 1.162089060465e-06 3.800599234299e-04 1.814720655111e-11 -9.977904371116e-13 -6.961148103797e+06 3.462110943741e+07  1.569899785993e+00
9.000000000000e-02 8.352577166387e-314 1.000000000000e+05 1.000000000000e+05 1.000000000000e+00 0.000000000000e+00 1.062765631888e-06 3.784592490985e-04 1.989848163130e-11 -9.278314068564e-13 -6.271564856764e+06 3.599631586729e+07  1.615243031003e+00
1.000000000000e-01 8.352577166387e-314 1.000000000000e+05 1.000000000000e+05 1.000000000000e+00 0.000000000000e+00 9.699484296328e-07 3.768598783258e-04 2.154405034441e-11 -8.486616175525e-13 -3.648842226714e+06 3.710796126015e+07  1.605964544326e+00
1.100000000000e-01 8.352577166387e-314 1.000000000000e+05 1.000000000000e+05 1.000000000000e+00 0.000000000000e+00 8.819705691359e-07 3.752670979066e-04 2.306443177674e-11 -7.395185771965e-13 -3.473485223058e+06 3.614488734399e+07  1.610643257446e+00
1.200000000000e-01 8.352577166387e-314 1.000000000000e+05 1.000000000000e+05 1.000000000000e+00 0.000000000000e+00 8.011393535612e-07 3.736809225529e-04 2.449356731590e-11 -6.362453922090e-13 -4.440574950999e+06 3.677854793797e+07  1.618890224762e+00
1.300000000000e-01 8.352577166387e-314 1.000000000000e+05 1.000000000000e+05 1.000000000000e+00 0.000000000000e+00 7.269231551115e-07 3.721052323548e-04 2.583976738388e-11 -5.346164321995e-13 -4.174326302585e+06 3.757218139410e+07  1.620517744555e+00
1.400000000000e-01 8.352577166387e-314 1.000000000000e+05 1.000000000000e+05 1.000000000000e+00 0.000000000000e+00 6.552730503280e-07 3.705337761790e-04 2.706074564172e-11 -3.963469512345e-13 -4.193697913006e+06 3.804031785547e+07  1.623776454641e+00
1.500000000000e-01 8.352577166387e-314 1.000000000000e+05 1.000000000000e+05 1.000000000000e+00 0.000000000000e+00 5.896046653962e-07 3.689457765718e-04 2.818352861391e-11 -2.716063209093e-13 -4.077624784134e+06 3.828486329364e+07  1.626227874117e+00
1.600000000000e-01 8.352577166387e-314 1.000000000000e+05 1.000000000000e+05 1.000000000000e+00 0.000000000000e+00 5.294368659519e-07 3.673682378411e-04 2.923206115967e-11 -1.547872952458e-13 -3.827649500331e+06 3.851004040201e+07  1.627409234903e+00
1.700000000000e-01 8.352577166387e-314 1.000000000000e+05 1.000000000000e+05 1.000000000000e+00 0.000000000000e+00 4.728525306959e-07 3.658018551679e-04 3.019326571204e-11 -3.022129114418e-14 -3.553309940695e+06 3.870989778596e+07  1.628552406566e+00
1.800000000000e-01 8.352577166387e-314 1.000000000000e+05 1.000000000000e+05 1.000000000000e+00 0.000000000000e+00 4.196066204643e-07 3.642363519137e-04 3.105352864651e-11 5.546121463218e-14 -3.380661103905e+06 3.886268525945e+07  1.629233738278e+00
1.900000000000e-01 8.352577166387e-314 1.000000000000e+05 1.000000000000e+05 1.000000000000e+00 0.000000000000e+00 3.709409400915e-07 3.626899800501e-04 3.183410826842e-11 1.328170246171e-13 -3.127825236423e+06 3.906196432229e+07  1.630197728008e+00
2.000000000000e-01 8.352577166387e-314 1.000000000000e+05 1.000000000000e+05 1.000000000000e+00 0.000000000000e+00 3.265048196554e-07 3.611647204159e-04 3.253503835043e-11 1.998497040611e-13 -2.966000960547e+06 3.916429362595e+07  1.630783055691e+00
2.100000000000e-01 8.352577166387e-314 1.000000000000e+05 1.000000000000e+05 1.000000000000e+00 0.000000000000e+00 2.840283577103e-07 3.596392287520e-04 3.313245215781e-11 6.350535354907e-13 -2.786080370112e+06 3.927174135520e+07  1.631264677568e+00
2.200000000000e-01 8.352577166387e-314 1.000000000000e+05 1.000000000000e+05 1.000000000000e+00 0.000000000000e+00 2.447753381756e-07 3.581261680970e-04 3.363961237424e-11 1.473236999425e-12 -2.504084741799e+06 3.940642322548e+07  1.631691341401e+00
2.300000000000e-01 8.352577166387e-314 1.000000000000e+05 1.000000000000e+05 1.000000000000e+00 0.000000000000e+00 2.090607213079e-07 3.566285207319e-04 3.408774426007e-11 2.356220731766e-12 -2.388635638293e+06 3.951598683844e+07  1.632090805445e+00
2.400000000000e-01 8.352577166387e-314 1.000000000000e+05 1.000000000000e+05 1.000000000000e+00 0.000000000000e+00 1.766122877770e-07 3.551408571730e-04 3.446359331209e-11 3.260638631427e-12 -2.212440096471e+06 3.961088251982e+07  1.632455768250e+00
2.500000000000e-01 8.352577166387e-314 1.000000000000e+05 1.000000000000e+05 1.000000000000e+00 0.000000000000e+00 1.454344925961e-07 3.536573143538e-04 3.473812014993e-11 4.202246533005e-12 -2.052325338686e+06 3.970184303298e+07  1.632652962474e+00
2.600000000000e-01 8.352577166387e-314 1.000000000000e+05 1.000000000000e+05 1.000000000000e+00 0.000000000000e+00 1.169332773350e-07 3.521870614579e-04 3.494282244621e-11 5.183059270716e-12 -1.900452396046e+06 3.978966534365e+07  1.632858522040e+00
2.700000000000e-01 8.352577166387e-314 1.000000000000e+05 1.000000000000e+05 1.000000000000e+00 0.000000000000e+00 9.147185891439e-08 3.507272263782e-04 3.509617702293e-11 6.191349846362e-12 -1.760207352137e+06 3.987232339664e+07  1.632997631082e+00
2.800000000000e-01 8.352577166387e-314 1.000000000000e+05 1.000000000000e+05 1.000000000000e+00 0.000000000000e+00 6.850648475630e-08 3.492525166346e-04 3.518939780440e-11 7.149578654010e-12 -1.625977751887e+06 3.995169696336e+07  1.633142404319e+00
2.900000000000e-01 8.352577166387e-314 1.000000000000e+05 1.000000000000e+05 1.000000000000e+00 0.000000000000e+00 4.672921293981e-08 3.477874394554e-04 3.517804701311e-11 8.143554462435e-12 -1.501980832659e+06 4.002894358087e+07  1.633248226236e+00
3.000000000000e-01 8.352577166387e-314 1.000000000000e+05 1.000000000000e+05 1.000000000000e+00 0.000000000000e+00 2.656528418168e-08 3.463349277999e-04 3.509276529536e-11 9.164710110546e-12 -1.388646596396e+06 4.010030541100e+07  1.633353970132e+00
3.100000000000e-01 8.352577166387e-314 1.000000000000e+05 1.000000000000e+05 1.000000000000e+00 0.000000000000e+00 8.491462752860e-09 3.448946453631e-04 3.495589079673e-11 1.019138292896e-11 -1.287966760231e+06 4.017235832504e+07  1.633538366157e+00
3.200000000000e-01 8.352577166387e-314 1.000000000000e+05 1.000000000000e+05 1.000000000000e+00 0.000000000000e+00 -7.733191298681e-09 3.434706714427e-04 3.478732590664e-11 1.121725704090e-11 -1.195478935140e+06 4.026423789495e+07  1.633772335052e+00
3.300000000000e-01 8.352577166387e-314 1.000000000000e+05 1.000000000000e+05 1.000000000000e+00 0.000000000000e+00 -2.239386973325e-08 3.420603912862e-04 3.454045065905e-11 1.226109556315e-11 -1.126457582192e+06 4.032375176281e+07  1.634227202061e+00
3.400000000000e-01 8.352577166387e-314 1.000000000000e+05 1.000000000000e+05 1.000000000000e+00 0.000000000000e+00 -3.653154856108e-08 3.406582703686e-04 3.418967852635e-11 1.333303121960e-11 -1.068768329998e+06 4.037292322086e+07  1.634677976363e+00
3.500000000000e-01 8.352577166387e-314 1.000000000000e+05 1.000000000000e+05 1.000000000000e+00 0.000000000000e+00 -4.906136206663e-08 3.392677397184e-04 3.379154867362e-11 1.440157996131e-11 -1.025810333829e+06 4.042188780148e+07  1.635226117133e+00
3.600000000000e-01 8.352577166387e-314 1.000000000000e+05 1.000000000000e+05 1.000000000000e+00 0.000000000000e+00 -6.012457225477e-08 3.378879706723e-04 3.334989755253e-11 1.545912148112e-11 -1.003956804502e+06 4.045600894622e+07  1.635947471028e+00
3.700000000000e-01 8.352577166387e-314 1.000000000000e+05 1.000000000000e+05 1.000000000000e+00 0.000000000000e+00 -6.984031488540e-08 3.365221888400e-04 3.285434961485e-11 1.652528233217e-11 -9.993343807605e+05 4.048020963236e+07  1.636784771186e+00
3.800000000000e-01 8.352577166387e-314 1.000000000000e+05 1.000000000000e+05 1.000000000000e+00 0.000000000000e+00 -7.881127903681e-08 3.351663279890e-04 3.228074418744e-11 1.760519195888e-11 -1.005249493704e+06 4.050391536892e+07  1.637730114764e+00
3.900000000000e-01 8.352577166387e-314 1.000000000000e+05 1.000000000000e+05 1.000000000000e+00 0.000000000000e+00 -8.721367245708e-08 3.338193244077e-04 3.162786386601e-11 1.869456941504e-11 -1.007600588086e+06 4.052665191359e+07  1.638680376056e+00
4.000000000000e-01 8.352577166387e-314 1.000000000000e+05 1.000000000000e+05 1.000000000000e+00 0.000000000000e+00 -9.449677918337e-08 3.324810857924e-04 3.094428937270e-11 1.975514699324e-11 -1.006845457336e+06 4.054887768608e+07  1.639624804110e+00
4.100000000000e-01 8.352577166387e-314 1.000000000000e+05 1.000000000000e+05 1.000000000000e+00 0.000000000000e+00 -1.007510832004e-07 3.311560984429e-04 3.020924603574e-11 2.081702084198e-11 -1.004587137056e+06 4.057282458092e+07  1.640499460824e+00
4.200000000000e-01 8.352577166387e-314 1.000000000000e+05 1.000000000000e+05 1.000000000000e+00 0.000000000000e+00 -1.060373811273e-07 3.298440547629e-04 2.943717354001e-11 2.187982139748e-11 -9.979948006366e+05 4.059506046557e+07  1.641356770839e+00
4.300000000000e-01 8.352577166387e-314 1.000000000000e+05 1.000000000000e+05 1.000000000000e+00 0.000000000000e+00 -1.104767869774e-07 3.285391882026e-04 2.862528412940e-11 2.295221542182e-11 -9.886437295755e+05 4.061770578727e+07  1.642225523125e+00
4.400000000000e-01 8.352577166387e-314 1.000000000000e+05 1.000000000000e+05 1.000000000000e+00 0.000000000000e+00 -1.146643081860e-07 3.272404816458e-04 2.771926935841e-11 2.401427104817e-11 -9.793555523915e+05 4.064440098582e+07  1.643027404411e+00
4.500000000000e-01 8.352577166387e-314 1.000000000000e+05 1.000000000000e+05 1.000000000000e+00 0.000000000000e+00 -1.180896763543e-07 3.259518582397e-04 2.677320506611e-11 2.505324786894e-11 -9.643246099807e+05 4.066761769043e+07  1.643828031058e+00
4.600000000000e-01 8.352577166387e-314 1.000000000000e+05 1.000000000000e+05 1.000000000000e+00 0.000000000000e+00 -1.208547387548e-07 3.246763108869e-04 2.579956705191e-11 2.608851840644e-11 -9.466246698804e+05 4.069128802955e+07  1.644635139649e+00
4.700000000000e-01 8.352577166387e-314 1.000000000000e+05 1.000000000000e+05 1.000000000000e+00 0.000000000000e+00 -1.229559125598e-07 3.234157878017e-04 2.479116666936e-11 2.711981092116e-11 -9.268000350592e+05 4.071739410253e+07  1.645421378656e+00
4.800000000000e-01 8.352577166387e-314 1.000000000000e+05 1.000000000000e+05 1.000000000000e+00 0.000000000000e+00 -1.244635945937e-07 3.221516766889e-04 2.373766116890e-11 2.808475918660e-11 -9.046401884601e+05 4.074344242835e+07  1.646196103754e+00
4.900000000000e-01 8.352577166387e-314 1.000000000000e+05 1.000000000000e+05 1.000000000000e+00 0.000000000000e+00 -1.260913894778e-07 3.208868049775e-04 2.290726766794e-11 2.895655057174e-11 -8.804516986888e+05 4.077232625575e+07  1.646970397591e+00
5.000000000000e-01 8.352577166387e-314 1.000000000000e+05 1.000000000000e+05 1.000000000000e+00 0.000000000000e+00 -1.272398047153e-07 3.196316929244e-04 2.299166121137e-11 2.967709166476e-11 -8.526216019842e+05 4.080322222577e+07  1.647699593711e+00
5.100000000000e-01 8.352577166387e-314 1.000000000000e+05 1.000000000000e+05 1.000000000000e+00 0.000000000000e+00 -1.279183629645e-07 3.183887844281e-04 2.308785923117e-11 3.039073096470e-11 -8.236384816013e+05 4.083729976814e+07  1.648404676084e+00
5.200000000000e-01 8.352577166387e-314 1.000000000000e+05 1.000000000000e+05 1.000000000000e+00 0.000000000000e+00 -1.281734685309e-07 3.171578818832e-04 2.318875363955e-11 3.109547259490e-11 -7.897770216322e+05 4.087337174069e+07  1.649065726260e+00
5.300000000000e-01 8.352577166387e-314 1.000000000000e+05 1.000000000000e+05 1.000000000000e+00 0.000000000000e+00 -1.280421406233e-07 3.159388014930e-04 2.327469936583e-11 3.179307840409e-11 -7.542529391782e+05 4.091230178831e+07  1.649723973215e+00
5.400000000000e-01 8.352577166387e-314 1.000000000000e+05 1.000000000000e+05 1.000000000000e+00 0.000000000000e+00 -1.275962929131e-07 3.147305405541e-04 2.335864536678e-11 3.248127091500e-11 -7.160927213363e+05 4.095391741944e+07  1.650357749703e+00
5.500000000000e-01 8.352577166387e-314 1.000000000000e+05 1.000000000000e+05 1.000000000000e+00 0.000000000000e+00 -1.272713751555e-07 3.135251459238e-04 2.341378110628e-11 3.314023147971e-11 -6.780767549149e+05 4.099809721199e+07  1.650973329561e+00
5.600000000000e-01 8.352577166387e-314 1.000000000000e+05 1.000000000000e+05 1.000000000000e+00 0.000000000000e+00 -1.264252067935e-07 3.123278262082e-04 2.349921296344e-11 3.378720080004e-11 -6.377762839588e+05 4.104358266891e+07  1.651562098507e+00
5.700000000000e-01 8.352577166387e-314 1.000000000000e+05 1.000000000000e+05 1.000000000000e+00 0.000000000000e+00 -1.253111579682e-07 3.111416912858e-04 2.362420816990e-11 3.445583627742e-11 -5.970880084158e+05 4.109376606692e+07  1.652159938425e+00
5.800000000000e-01 8.352577166387e-314 1.000000000000e+05 1.000000000000e+05 1.000000000000e+00 0.000000000000e+00 -1.239640825831e-07 3.099665838639e-04 2.372909087230e-11 3.514245575092e-11 -5.552941292259e+05 4.114476516531e+07  1.652725297353e+00
5.900000000000e-01 8.352577166387e-314 1.000000000000e+05 1.000000000000e+05 1.000000000000e+00 0.000000000000e+00 -1.224054905671e-07 3.088023459480e-04 2.381905634241e-11 3.581398922122e-11 -5.125611868707e+05 4.119890148160e+07  1.653285244635e+00
6.000000000000e-01 8.352577166387e-314 1.000000000000e+05 1.000000000000e+05 1.000000000000e+00 0.000000000000e+00 -1.206671157649e-07 3.076488146133e-04 2.392297940020e-11 3.647297763996e-11 -4.693243627412e+05 4.125532313617e+07  1.653832093624e+00
6.100000000000e-01 8.352577166387e-314 1.000000000000e+05 1.000000000000e+05 1.000000000000e+00 0.000000000000e+00 -1.190384634319e-07 3.064990123688e-04 2.400512732222e-11 3.710037588637e-11 -4.261899319976e+05 4.131421346300e+07  1.654365907475e+00
6.200000000000e-01 8.352577166387e-314 1.000000000000e+05 1.000000000000e+05 1.000000000000e+00 0.000000000000e+00 -1.173331778380e-07 3.053578446925e-04 2.407726659131e-11 3.828618494055e-11 -3.822847641130e+05 4.137353762101e+07  1.654875022515e+00
6.300000000000e-01 8.352577166387e-314 1.000000000000e+05 1.000000000000e+05 1.000000000000e+00 0.000000000000e+00 -1.154793846647e-07 3.042270286040e-04 2.412866448609e-11 3.972784859617e-11 -3.381443888417e+05 4.143662936985e+07  1.655385698158e+00
6.400000000000e-01 8.352577166387e-314 1.000000000000e+05 1.000000000000e+05 1.000000000000e+00 0.000000000000e+00 -1.135000692795e-07 3.031077105649e-04 2.420983759417e-11 4.116978686622e-11 -2.965103856482e+05 4.150022079196e+07  1.655883063483e+00
6.500000000000e-01 8.352577166387e-314 1.000000000000e+05 1.000000000000e+05 1.000000000000e+00 0.000000000000e+00 -1.114101362096e-07 3.019984208755e-04 2.429107769688e-11 4.261316639403e-11 -2.538577545522e+05 4.156313998978e+07  1.656353936450e+00
6.600000000000e-01 8.352577166387e-314 1.000000000000e+05 1.000000000000e+05 1.000000000000e+00 0.000000000000e+00 -1.092304955099e-07 3.008990153163e-04 2.438506563882e-11 4.405559277978e-11 -2.120316829258e+05 4.162892614363e+07  1.656826890476e+00
6.700000000000e-01 8.352577166387e-314 1.000000000000e+05 1.000000000000e+05 1.000000000000e+00 0.000000000000e+00 -1.069302827021e-07 2.998087381094e-04 2.447736734881e-11 4.549802736364e-11 -1.706015753008e+05 4.169187255435e+07  1.657265479341e+00
6.800000000000e-01 8.352577166387e-314 1.000000000000e+05 1.000000000000e+05 1.000000000000e+00 0.000000000000e+00 -1.046994021188e-07 2.987182728347e-04 2.457393465150e-11 4.692807729216e-11 -1.281480445119e+05 4.175752036360e+07  1.657702844113e+00
6.900000000000e-01 8.352577166387e-314 1.000000000000e+05 1.000000000000e+05 1.000000000000e+00 0.000000000000e+00 -1.024141666855e-07 2.976369811653e-04 2.466522663081e-11 4.835316264424e-11 -8.672810917949e+04 4.181736453566e+07  1.658096642980e+00
7.000000000000e-01 8.352577166387e-314 1.000000000000e+05 1.000000000000e+05 1.000000000000e+00 0.000000000000e+00 -1.000827607426e-07 2.965650661766e-04 2.477260152184e-11 4.977646843720e-11 -4.603100540302e+04 4.187547005929e+07  1.658474644690e+00
7.100000000000e-01 8.352577166387e-314 1.000000000000e+05 1.000000000000e+05 1.000000000000e+00 0.000000000000e+00 -9.771456667626e-08 2.955024162450e-04 2.488345587803e-11 5.119599851830e-11 -4.511291298317e+03 4.193212898454e+07  1.658838943649e+00
7.200000000000e-01 8.352577166387e-314 1.000000000000e+05 1.000000000000e+05 1.000000000000e+00 0.000000000000e+00 -9.531910639288e-08 2.944489139202e-04 2.499643247060e-11 5.261040722516e-11 3.813183188555e+04 4.199064507473e+07  1.659197954225e+00
7.300000000000e-01 8.352577166387e-314 1.000000000000e+05 1.000000000000e+05 1.000000000000e+00 0.000000000000e+00 -9.290528350329e-08 2.934044481059e-04 2.511193971703e-11 5.401889671323e-11 8.159078244846e+04 4.204544635155e+07  1.659533523935e+00
7.400000000000e-01 8.352577166387e-314 1.000000000000e+05 1.000000000000e+05 1.000000000000e+00 0.000000000000e+00 -9.048327220390e-08 2.923689053699e-04 2.523449283551e-11 5.542148983696e-11 1.238857897177e+05 4.210042689573e+07  1.659863080793e+00
7.500000000000e-01 8.352577166387e-314 1.000000000000e+05 1.000000000000e+05 1.000000000000e+00 0.000000000000e+00 -8.814767140861e-08 2.913388783956e-04 2.532836636499e-11 5.681444451110e-11 1.691379467736e+05 4.215785288784e+07  1.660189925501e+00
7.600000000000e-01 8.352577166387e-314 1.000000000000e+05 1.000000000000e+05 1.000000000000e+00 0.000000000000e+00 -8.588661198549e-08 2.903141875468e-04 2.541737984680e-11 5.819068534418e-11 2.125410108431e+05 4.221276109749e+07  1.660502956249e+00
7.700000000000e-01 8.352577166387e-314 1.000000000000e+05 1.000000000000e+05 1.000000000000e+00 0.000000000000e+00 -8.362131141051e-08 2.892981034942e-04 2.551125448921e-11 5.956009445330e-11 2.577656489869e+05 4.226702850715e+07  1.660804802442e+00
7.800000000000e-01 8.352577166387e-314 1.000000000000e+05 1.000000000000e+05 1.000000000000e+00 0.000000000000e+00 -8.135713873157e-08 2.882905273459e-04 2.560357576614e-11 6.092020411355e-11 3.021529800374e+05 4.232181132278e+07  1.661103468456e+00
7.900000000000e-01 8.352577166387e-314 1.000000000000e+05 1.000000000000e+05 1.000000000000e+00 0.000000000000e+00 -7.903943746481e-08 2.872893774895e-04 2.573572602873e-11 6.227331210609e-11 3.482143212408e+05 4.237568677814e+07  1.661390976259e+00
8.000000000000e-01 8.352577166387e-314 1.000000000000e+05 1.000000000000e+05 1.000000000000e+00 0.000000000000e+00 -7.670939136879e-08 2.862954253053e-04 2.563294877963e-11 6.360704799035e-11 3.939349314779e+05 4.243014027567e+07  1.661676037391e+00
8.100000000000e-01 8.352577166387e-314 1.000000000000e+05 1.000000000000e+05 1.000000000000e+00 0.000000000000e+00 -7.440805737297e-08 2.853096733007e-04 2.505992079945e-11 6.490983746544e-11 4.401340709368e+05 4.248357712857e+07  1.661950360978e+00
8.200000000000e-01 8.352577166387e-314 1.000000000000e+05 1.000000000000e+05 1.000000000000e+00 0.000000000000e+00 -7.213690877287e-08 2.843320260282e-04 2.447342288147e-11 6.620733610786e-11 4.869634552547e+05 4.253761844986e+07  1.662222752993e+00
8.300000000000e-01 8.352577166387e-314 1.000000000000e+05 1.000000000000e+05 1.000000000000e+00 0.000000000000e+00 -6.995570860695e-08 2.833601857044e-04 2.386752533004e-11 6.749896705561e-11 5.324348169481e+05 4.258881215248e+07  1.662482053800e+00
8.400000000000e-01 8.352577166387e-314 1.000000000000e+05 1.000000000000e+05 1.000000000000e+00 0.000000000000e+00 -6.784990530060e-08 2.823930133223e-04 2.321598670511e-11 6.877746446363e-11 5.800498874996e+05 4.264180805698e+07  1.662738076295e+00
8.500000000000e-01 8.352577166387e-314 1.000000000000e+05 1.000000000000e+05 1.000000000000e+00 0.000000000000e+00 -6.577440741294e-08 2.814328221593e-04 2.256572205701e-11 7.004306360399e-11 6.271761573837e+05 4.269506680476e+07  1.662991890044e+00
8.600000000000e-01 8.352577166387e-314 1.000000000000e+05 1.000000000000e+05 1.000000000000e+00 0.000000000000e+00 -6.372806724659e-08 2.804803718332e-04 2.189823755840e-11 7.129853412248e-11 6.739409495531e+05 4.274833878251e+07  1.663240940300e+00
8.700000000000e-01 8.352577166387e-314 1.000000000000e+05 1.000000000000e+05 1.000000000000e+00 0.000000000000e+00 -6.171220946310e-08 2.795355650768e-04 2.122248485063e-11 7.254695306749e-11 7.227498811660e+05 4.280091555647e+07  1.663481914956e+00
8.800000000000e-01 8.352577166387e-314 1.000000000000e+05 1.000000000000e+05 1.000000000000e+00 0.000000000000e+00 -5.973240533604e-08 2.785948860219e-04 2.054070764134e-11 7.375957484536e-11 7.713659544653e+05 4.285209782624e+07  1.663713785465e+00
8.900000000000e-01 8.352577166387e-314 1.000000000000e+05 1.000000000000e+05 1.000000000000e+00 0.000000000000e+00 -5.778705705731e-08 2.776523891661e-04 1.983931208936e-11 7.488719553504e-11 8.190924991189e+05 4.290209297844e+07  1.663943171970e+00
9.000000000000e-01 8.352577166387e-314 1.000000000000e+05 1.000000000000e+05 1.000000000000e+00 0.000000000000e+00 -5.587296995554e-08 2.767171248865e-04 1.913982613680e-11 7.600326812437e-11 8.679919011788e+05 4.295385841821e+07  1.664169561211e+00
9.100000000000e-01 8.352577166387e-314 1.000000000000e+05 1.000000000000e+05 1.000000000000e+00 0.000000000000e+00 -5.395905067313e-08 2.757869849515e-04 1.846084504593e-11 7.710961852950e-11 9.171086966192e+05 4.300442896814e+07  1.664388120854e+00
9.200000000000e-01 8.352577166387e-314 1.000000000000e+05 1.000000000000e+05 1.000000000000e+00 0.000000000000e+00 -5.213683617869e-08 2.748616898807e-04 1.775172785883e-11 7.820482445763e-11 9.652720305998e+05 4.305402280238e+07  1.664604784450e+00
9.300000000000e-01 8.352577166387e-314 1.000000000000e+05 1.000000000000e+05 1.000000000000e+00 0.000000000000e+00 -5.036602513535e-08 2.739429038851e-04 1.700332240240e-11 7.929024926957e-11 1.014160085008e+06 4.310639897089e+07  1.664822388830e+00
9.400000000000e-01 8.352577166387e-314 1.000000000000e+05 1.000000000000e+05 1.000000000000e+00 0.000000000000e+00 -4.863718136039e-08 2.730303522783e-04 1.625691354077e-11 8.035622040149e-11 1.063706453618e+06 4.315281073166e+07  1.665019969506e+00
9.500000000000e-01 8.352577166387e-314 1.000000000000e+05 1.000000000000e+05 1.000000000000e+00 0.000000000000e+00 -4.694438482723e-08 2.721248416369e-04 1.548512415876e-11 8.140761497399e-11 1.113344699822e+06 4.320458811908e+07  1.665229704703e+00
9.600000000000e-01 8.352577166387e-314 1.000000000000e+05 1.000000000000e+05 1.000000000000e+00 0.000000000000e+00 -4.529502952523e-08 2.712265099874e-04 1.472962645472e-11 8.244752239420e-11 1.163501552075e+06 4.325401242946e+07  1.665427678925e+00
9.700000000000e-01 8.352577166387e-314 1.000000000000e+05 1.000000000000e+05 1.000000000000e+00 0.000000000000e+00 -4.368018626832e-08 2.703352806444e-04 1.395221429985e-11 8.347554811294e-11 1.213214711671e+06 4.330235636782e+07  1.665624916328e+00
9.800000000000e-01 8.352577166387e-314 1.000000000000e+05 1.000000000000e+05 1.000000000000e+00 0.000000000000e+00 -4.210549620971e-08 2.694510712630e-04 1.317506077985e-11 8.449175311932e-11 1.263148988658e+06 4.335147814059e+07  1.665815941463e+00
9.900000000000e-01 8.352577166387e-314 1.000000000000e+05 1.000000000000e+05 1.000000000000e+00 0.000000000000e+00 -4.056588997714e-08 2.685738058357e-04 1.236834947634e-11 8.549506415062e-11 1.314355991677e+06 4.339854949904e+07  1.666003112697e+00
1.000000000000e+00 8.352577166387e-314 1.000000000000e+05 1.000000000000e+05 1.000000000000e+00 0.000000000000e+00 -3.907039775109e-08 2.677034082691e-04 1.157505397110e-11 8.648532648074e-11 1.364520718191e+06 4.344448294479e+07  1.666183542473e+00
1.050000000000e+00 8.352577166387e-314 1.000000000000e+05 1.000000000000e+05 1.000000000000e+00 0.000000000000e+00 -3.271643942111e-08 2.634950045351e-04 7.583966105288e-12 9.143722605457e-11 1.565098969197e+06 4.362797668145e+07  1.667041433287e+00
1.100000000000e+00 8.352577166387e-314 1.000000000000e+05 1.000000000000e+05 1.000000000000e+00 0.000000000000e+00 -2.707310345088e-08 2.594253644482e-04 3.403727602928e-12 9.599940352040e-11 1.789790168983e+06 4.383903219927e+07  1.667894753614e+00
1.150000000000e+00 8.352577166387e-314 1.000000000000e+05 1.000000000000e+05 1.000000000000e+00 0.000000000000e+00 -2.209449937661e-08 2.554813513650e-04 -9.972689080093e-13 1.016973342531e-10 2.029939770717e+06 4.403170061370e+07  1.668654342454e+00
1.200000000000e+00 8.352577166387e-314 1.000000000000e+05 1.000000000000e+05 1.000000000000e+00 0.000000000000e+00 -1.767293083676e-08 2.516605259702e-04 -5.553953012643e-12 1.090981670111e-10 2.273756851848e+06 4.423018879770e+07  1.669337280586e+00
1.250000000000e+00 8.352577166387e-314 1.000000000000e+05 1.000000000000e+05 1.000000000000e+00 0.000000000000e+00 -1.367085085517e-08 2.479661093772e-04 -1.043675437126e-11 1.162312767737e-10 2.552647373216e+06 4.442285397954e+07  1.669934994435e+00
1.300000000000e+00 8.352577166387e-314 1.000000000000e+05 1.000000000000e+05 1.000000000000e+00 0.000000000000e+00 -1.008422969952e-08 2.443800900594e-04 -1.072886310773e-11 1.234457770650e-10 2.810731924231e+06 4.460816399683e+07  1.670513582491e+00
1.350000000000e+00 8.352577166387e-314 1.000000000000e+05 1.000000000000e+05 1.000000000000e+00 0.000000000000e+00 -6.817037007925e-09 2.409105968707e-04 -1.056059718004e-11 1.305313408946e-10 3.068832340727e+06 4.478979298414e+07  1.671055605061e+00
1.400000000000e+00 8.352577166387e-314 1.000000000000e+05 1.000000000000e+05 1.000000000000e+00 0.000000000000e+00 -3.757598130746e-09 2.375454560006e-04 -1.030856661722e-11 1.374297572719e-10 3.328512480571e+06 4.498999719475e+07  1.671593841355e+00