 TITLE = "Time curves in points"
 VARIABLES = "TIME "  "DISPLACEMENT_X1"  "DISPLACEMENT_Y1"  "STRESS_XX"  "STRESS_XY"  "STRESS_YY"  "STRESS_ZZ"  "STRAIN_XX"  "STRAIN_XY"  "STRAIN_YY"  p_(1st_Invariant)  q_(2nd_Invariant)   Effective_Strain
 ZONE T="POINT=POINT4"
0.000000000000e+00 0.000000000000e+00 0.000000000000e+00 -1.000000000000e+05 0.000000000000e+00 -1.000000000000e+05 -1.000000000000e+05 0.000000000000e+00 0.000000000000e+00 0.000000000000e+00 1.000000000000e+05 0.000000000000e+00  0.000000000000e+00
1.000000000000e-03 -3.459707763903e-07 0.000000000000e+00 2.647846395014e+05 -1.040940114847e+04 5.335098479390e+05 2.835865073275e+05 5.520522904695e-02 -1.019608734690e-02 3.558217420097e-01 -3.606269982560e+05 2.604597453155e+05  3.321526595181e-01
2.000000000000e-03 1.069097702610e-06 0.000000000000e+00 5.535567241003e+05 -2.522721646705e+04 9.755738738421e+05 5.758630666900e+05 1.721101867134e-01 4.416635567070e-02 1.111505080885e+00 -7.016645548775e+05 4.136322349952e+05  1.039045771427e+00
3.000000000000e-03 5.089096584755e-05 0.000000000000e+00 1.366226664707e+06 -2.065594305767e+04 2.140309141604e+06 1.366486053539e+06 2.491163645536e-01 1.533562642645e-02 1.413592575548e+00 -1.624340619950e+06 7.747793001380e+05  1.307233503880e+00
4.000000000000e-03 1.016297536393e-04 0.000000000000e+00 4.257849639940e+06 -1.938916420912e+05 8.029234940812e+06 4.875669857393e+06 2.891888981916e-01 -2.674358835202e-02 1.543386352955e+00 -5.720918146048e+06 3.519629629472e+06  1.421790108625e+00
5.000000000000e-03 1.088439551904e-04 0.000000000000e+00 9.737019398079e+06 1.592105914957e+05 1.426149680702e+07 9.585768899719e+06 3.062194005791e-01 -3.821686648551e-02 1.571966640490e+00 -1.119476170160e+07 4.610221907618e+06  1.444944408749e+00
6.000000000000e-03 1.145247987805e-04 0.000000000000e+00 1.711703033624e+07 -1.003022460987e+06 3.374840679477e+07 1.976569558338e+07 3.097179158911e-01 -4.425422436756e-02 1.581417221803e+00 -2.354371090480e+07 1.557515084456e+07  1.453577545187e+00
7.000000000000e-03 1.151592022449e-04 0.000000000000e+00 1.650477924719e+07 -6.902924569190e+05 3.175552719856e+07 1.798744842107e+07 3.100284116767e-01 -4.375854172515e-02 1.582397698094e+00 -2.208258495560e+07 1.461510581959e+07  1.454392064032e+00
8.000000000000e-03 1.150573964551e-04 0.000000000000e+00 1.527575937155e+07 -7.763226971918e+05 3.166064433657e+07 1.683347432425e+07 3.098780384748e-01 -4.386071964346e-02 1.583084938506e+00 -2.125662601079e+07 1.572183137148e+07  1.455125545770e+00
9.000000000000e-03 1.150806966349e-04 0.000000000000e+00 1.422420901993e+07 -7.602293391013e+05 3.154731856523e+07 1.572095083421e+07 3.097920872180e-01 -4.378586462537e-02 1.583860297365e+00 -2.049749280646e+07 1.667740938849e+07  1.455908237943e+00
1.000000000000e-02 1.150053829335e-04 0.000000000000e+00 1.328225867654e+07 -7.421353256949e+05 3.148542661740e+07 1.473231848915e+07 3.097112074768e-01 -4.373281083371e-02 1.584643983159e+00 -1.983333459436e+07 1.757027628625e+07  1.456699440579e+00
2.000000000000e-02 1.278184478921e-04 0.000000000000e+00 2.691458718537e+07 -1.508357153366e+07 9.711802943688e+07 4.488605397261e+07 3.747766363626e-01 -5.336750115276e-02 1.689652871052e+00 -5.630622353162e+07 6.835481316122e+07  1.539703283987e+00
3.000000000000e-02 1.544992030534e-04 0.000000000000e+00 -1.897624872524e+07 -4.839470509061e+06 2.274978671663e+07 -4.905431841324e+06 1.910287839804e-02 1.147285043626e-02 1.659031556330e+00 3.772979499771e+05 3.771196019709e+07  1.649682765163e+00
4.000000000000e-02 -5.057880075847e-05 0.000000000000e+00 3.395531801139e+06 1.835039101775e+06 4.122099210058e+07 1.065108495550e+07 6.622816970829e-01 8.450306521416e-02 1.649605368512e+00 -1.842253628574e+07 3.491512517756e+07  1.445245231520e+00
5.000000000000e-02 2.612133107542e-05 0.000000000000e+00 -1.601488709239e+07 -5.035607400544e+06 1.948602061648e+07 -6.748463640788e+06 6.397672241235e-01 1.911964944057e-02 1.637299437433e+00 1.092443372234e+06 3.306488520574e+07  1.429565568877e+00
6.000000000000e-02 -8.812461558569e-05 0.000000000000e+00 -7.842900675215e+06 -1.669406252822e+06 3.433344288473e+07 1.861213094743e+06 8.411394517652e-01 2.655293886340e-01 1.682848247669e+00 -9.450585101420e+06 3.836783152005e+07  1.528234706527e+00
7.000000000000e-02 2.906852467322e-05 0.000000000000e+00 -1.762344079156e+05 -3.667981332090e+06 3.447671479495e+07 4.183461177707e+06 8.133603209660e-01 3.555684455675e-01 1.690108939851e+00 -1.282798052158e+07 3.330345005469e+07  1.588282861757e+00
8.000000000000e-02 -8.475895734066e-05 0.000000000000e+00 -7.465728830116e+06 -8.648136347770e+05 2.975314298825e+07 -1.403969846742e+06 8.360417310153e-01 3.216198717113e-01 1.694752231310e+00 -6.961148103797e+06 3.462110943741e+07  1.569899785993e+00
9.000000000000e-02 1.910570219143e-05 0.000000000000e+00 -8.543307286507e+06 -3.082459466360e+06 2.973514310239e+07 -2.377141245589e+06 7.669393977162e-01 3.800350442833e-01 1.700505429097e+00 -6.271564856764e+06 3.599631586729e+07  1.615243031003e+00
1.000000000000e-01 -1.114425988639e-05 0.000000000000e+00 -1.215079664016e+07 -2.375743540363e+06 2.786229596858e+07 -4.764972648282e+06 7.415210284893e-01 3.621211430412e-01 1.702427467409e+00 -3.648842226714e+06 3.710796126015e+07  1.605964544326e+00
1.100000000000e-01 -3.279615653706e-05 0.000000000000e+00 -1.169660383573e+07 -1.946095507198e+06 2.715506057252e+07 -5.038001067622e+06 7.511712609098e-01 3.701882797310e-01 1.702182750154e+00 -3.473485223058e+06 3.614488734399e+07  1.610643257446e+00
1.200000000000e-01 2.909825703687e-07 0.000000000000e+00 -1.072718639598e+07 -2.582518969861e+06 2.850693279581e+07 -4.458021546836e+06 7.625473369934e-01 3.795714714316e-01 1.705083784483e+00 -4.440574950999e+06 3.677854793797e+07  1.618890224762e+00
1.300000000000e-01 -1.239908707730e-05 0.000000000000e+00 -1.130723140544e+07 -2.339230181535e+06 2.880668003664e+07 -4.976469723442e+06 7.555867612012e-01 3.772610871992e-01 1.708551232877e+00 -4.174326302585e+06 3.757218139410e+07  1.620517744555e+00
1.400000000000e-01 -2.313963795389e-06 0.000000000000e+00 -1.133248750853e+07 -2.676716038210e+06 2.911469337414e+07 -5.201112126592e+06 7.608683314497e-01 3.782528974952e-01 1.712062397592e+00 -4.193697913006e+06 3.804031785547e+07  1.623776454641e+00
1.500000000000e-01 -1.869884643553e-06 0.000000000000e+00 -1.141443225807e+07 -2.648247261652e+06 2.918916026672e+07 -5.541853656244e+06 7.625127496818e-01 3.788506729849e-01 1.714659663880e+00 -4.077624784134e+06 3.828486329364e+07  1.626227874117e+00
1.600000000000e-01 1.864743496519e-06 0.000000000000e+00 -1.160309003938e+07 -2.752985774104e+06 2.909811391131e+07 -6.012075370935e+06 7.633191661954e-01 3.779707484739e-01 1.716906019389e+00 -3.827649500331e+06 3.851004040201e+07  1.627409234903e+00
1.700000000000e-01 3.802579782632e-06 0.000000000000e+00 -1.180632481845e+07 -2.757783584867e+06 2.897971122482e+07 -6.513456584280e+06 7.633327014145e-01 3.773646583716e-01 1.718813715429e+00 -3.553309940695e+06 3.870989778596e+07  1.628552406566e+00
1.800000000000e-01 6.850288243556e-06 0.000000000000e+00 -1.195095669308e+07 -2.809429477373e+06 2.891401962918e+07 -6.821079624382e+06 7.631278214901e-01 3.760683387748e-01 1.720723099828e+00 -3.380661103905e+06 3.886268525945e+07  1.629233738278e+00
1.900000000000e-01 9.458438937017e-06 0.000000000000e+00 -1.219125114186e+07 -2.854198046475e+06 2.880014582966e+07 -7.225418978537e+06 7.631087655080e-01 3.752203558467e-01 1.722607120375e+00 -3.127825236423e+06 3.906196432229e+07  1.630197728008e+00
2.000000000000e-01 1.169532216829e-05 0.000000000000e+00 -1.232255042082e+07 -2.877001216614e+06 2.871272519373e+07 -7.492171891266e+06 7.628976308563e-01 3.740977383023e-01 1.724243075523e+00 -2.966000960547e+06 3.916429362595e+07  1.630783055691e+00
2.100000000000e-01 1.394008786087e-05 0.000000000000e+00 -1.249065303978e+07 -2.907649853366e+06 2.860689807217e+07 -7.758003922049e+06 7.625892289606e-01 3.728235910588e-01 1.725867189330e+00 -2.786080370112e+06 3.927174135520e+07  1.631264677568e+00
2.200000000000e-01 1.614930291511e-05 0.000000000000e+00 -1.274131272230e+07 -2.940210822607e+06 2.842051508466e+07 -8.166948136957e+06 7.622657284934e-01 3.715081262520e-01 1.727451916092e+00 -2.504084741799e+06 3.940642322548e+07  1.631691341401e+00
2.300000000000e-01 1.929976381380e-05 0.000000000000e+00 -1.283780174939e+07 -2.980291725012e+06 2.837953018805e+07 -8.375821523775e+06 7.622892932851e-01 3.701374815250e-01 1.729069498605e+00 -2.388635638293e+06 3.951598683844e+07  1.632090805445e+00
2.400000000000e-01 2.094745835177e-05 0.000000000000e+00 -1.301426179427e+07 -3.002215527251e+06 2.826771887153e+07 -8.616136787845e+06 7.619039589484e-01 3.688685352227e-01 1.730524732039e+00 -2.212440096471e+06 3.961088251982e+07  1.632455768250e+00
2.500000000000e-01 2.303325953929e-05 0.000000000000e+00 -1.317191509179e+07 -3.032812254887e+06 2.816798685601e+07 -8.839095748159e+06 7.615203682094e-01 3.673716669391e-01 1.731957770496e+00 -2.052325338686e+06 3.970184303298e+07  1.632652962474e+00
2.600000000000e-01 2.467429436837e-05 0.000000000000e+00 -1.332931168978e+07 -3.058591151449e+06 2.807402217918e+07 -9.043353301270e+06 7.611139005042e-01 3.659458588317e-01 1.733334485938e+00 -1.900452396046e+06 3.978966534365e+07  1.632858522040e+00
2.700000000000e-01 2.626789567636e-05 0.000000000000e+00 -1.347946425419e+07 -3.086306099363e+06 2.798711383667e+07 -9.227027526070e+06 7.606600419504e-01 3.644548286023e-01 1.734673597133e+00 -1.760207352137e+06 3.987232339664e+07  1.632997631082e+00
2.800000000000e-01 2.755865276587e-05 0.000000000000e+00 -1.362983544979e+07 -3.112428112783e+06 2.790338686602e+07 -9.395618160571e+06 7.601549542677e-01 3.629963268034e-01 1.735982505922e+00 -1.625977751887e+06 3.995169696336e+07  1.633142404319e+00
2.900000000000e-01 2.878980408406e-05 0.000000000000e+00 -1.377546772800e+07 -3.139021658314e+06 2.782764329280e+07 -9.546233066832e+06 7.595915352553e-01 3.615420072026e-01 1.737229900197e+00 -1.501980832659e+06 4.002894358087e+07  1.633248226236e+00
3.000000000000e-01 2.968428754037e-05 0.000000000000e+00 -1.391292710643e+07 -3.164407666791e+06 2.775825829873e+07 -9.679391403118e+06 7.589632729104e-01 3.601239111222e-01 1.738436588041e+00 -1.388646596396e+06 4.010030541100e+07  1.633353970132e+00
3.100000000000e-01 3.023658292591e-05 0.000000000000e+00 -1.404357291627e+07 -3.187128387004e+06 2.770179219911e+07 -9.794319002143e+06 7.582652602237e-01 3.588151241288e-01 1.739639175538e+00 -1.287966760231e+06 4.017235832504e+07  1.633538366157e+00
3.200000000000e-01 3.036596732404e-05 0.000000000000e+00 -1.418217986526e+07 -3.213207821828e+06 2.766525490213e+07 -9.896638231455e+06 7.575547153718e-01 3.577088588604e-01 1.740734882564e+00 -1.195478935140e+06 4.026423789495e+07  1.633772335052e+00
3.300000000000e-01 2.950515065442e-05 0.000000000000e+00 -1.428152812243e+07 -3.225376425045e+06 2.763321835276e+07 -9.972317483751e+06 7.567928753319e-01 3.570257166615e-01 1.741754376275e+00 -1.126457582192e+06 4.032375176281e+07  1.634227202061e+00
3.400000000000e-01 2.848915371269e-05 0.000000000000e+00 -1.436569365871e+07 -3.238398572339e+06 2.760540744005e+07 -1.003340879134e+07 7.559442857193e-01 3.564084116034e-01 1.742707427260e+00 -1.068768329998e+06 4.037292322086e+07  1.634677976363e+00
3.500000000000e-01 2.708063621641e-05 0.000000000000e+00 -1.443620155203e+07 -3.249539792041e+06 2.759237140396e+07 -1.007873885044e+07 7.550206578498e-01 3.560206479864e-01 1.743588732033e+00 -1.025810333829e+06 4.042188780148e+07  1.635226117133e+00
3.600000000000e-01 2.484651336258e-05 0.000000000000e+00 -1.447736930222e+07 -3.253722853413e+06 2.759196929207e+07 -1.010272957634e+07 7.539704909734e-01 3.560182517468e-01 1.744363582044e+00 -1.003956804502e+06 4.045600894622e+07  1.635947471028e+00
3.700000000000e-01 2.211178975138e-05 0.000000000000e+00 -1.449560513713e+07 -3.253456387266e+06 2.760312799048e+07 -1.010951971108e+07 7.528211780675e-01 3.562836974998e-01 1.745057867650e+00 -9.993343807605e+05 4.048020963236e+07  1.636784771186e+00
3.800000000000e-01 1.933293000793e-05 0.000000000000e+00 -1.450292242689e+07 -3.249287283921e+06 2.762518568606e+07 -1.010651477806e+07 7.515431773327e-01 3.566744343536e-01 1.745770534612e+00 -1.005249493704e+06 4.050391536892e+07  1.637730114764e+00
3.900000000000e-01 1.664350496932e-05 0.000000000000e+00 -1.451344639039e+07 -3.244809130127e+06 2.764307779037e+07 -1.010682963573e+07 7.502815737827e-01 3.571152642043e-01 1.746449508193e+00 -1.007600588086e+06 4.052665191359e+07  1.638680376056e+00
4.000000000000e-01 1.420241552839e-05 0.000000000000e+00 -1.452732967147e+07 -3.239638238125e+06 2.765758442325e+07 -1.010971837977e+07 7.490542103438e-01 3.575635092581e-01 1.747116938760e+00 -1.006845457336e+06 4.054887768608e+07  1.639624804110e+00
4.100000000000e-01 1.181295311683e-05 0.000000000000e+00 -1.454403844267e+07 -3.236529343098e+06 2.767130822334e+07 -1.011350836950e+07 7.479132311937e-01 3.579128998279e-01 1.747784442629e+00 -1.004587137056e+06 4.057282458092e+07  1.640499460824e+00
4.200000000000e-01 9.526991703836e-06 0.000000000000e+00 -1.456420116766e+07 -3.233784047891e+06 2.767951150896e+07 -1.012132593939e+07 7.468021599783e-01 3.583006444850e-01 1.748402496008e+00 -9.979948006366e+05 4.059506046557e+07  1.641356770839e+00
4.300000000000e-01 7.380575638544e-06 0.000000000000e+00 -1.458766454228e+07 -3.229635598421e+06 2.768542271873e+07 -1.013182698773e+07 7.456938580440e-01 3.587052809369e-01 1.749019787221e+00 -9.886437295755e+05 4.061770578727e+07  1.642225523125e+00
4.400000000000e-01 5.304432003244e-06 0.000000000000e+00 -1.461291682367e+07 -3.227961544365e+06 2.769365293665e+07 -1.014266945580e+07 7.446678373910e-01 3.590021191216e-01 1.749647915578e+00 -9.793555523915e+05 4.064440098582e+07  1.643027404411e+00
4.500000000000e-01 3.344804837732e-06 0.000000000000e+00 -1.464206565437e+07 -3.226103779371e+06 2.769389642825e+07 -1.015885694394e+07 7.436757223092e-01 3.593688712233e-01 1.750221862047e+00 -9.643246099807e+05 4.066761769043e+07  1.643828031058e+00
4.600000000000e-01 1.509436570774e-06 0.000000000000e+00 -1.467426923743e+07 -3.223314458806e+06 2.769190652872e+07 -1.017776328166e+07 7.426771839545e-01 3.597595321802e-01 1.750783019967e+00 -9.466246698804e+05 4.069128802955e+07  1.644635139649e+00
4.700000000000e-01 -2.416298369109e-07 0.000000000000e+00 -1.470937318920e+07 -3.221200409344e+06 2.768932718433e+07 -1.019955388995e+07 7.417097745389e-01 3.601250054062e-01 1.751340820754e+00 -9.268000350592e+05 4.071739410253e+07  1.645421378656e+00
4.800000000000e-01 -1.870555606500e-06 0.000000000000e+00 -1.474677200489e+07 -3.219025891363e+06 2.768438397846e+07 -1.022369140819e+07 7.407972373318e-01 3.604926424167e-01 1.751887440979e+00 -9.046401884601e+05 4.074344242835e+07  1.646196103754e+00
4.900000000000e-01 -3.406194166723e-06 0.000000000000e+00 -1.478784861047e+07 -3.215848288412e+06 2.767941462027e+07 -1.025021091374e+07 7.398808170938e-01 3.608586390108e-01 1.752433410651e+00 -8.804516986888e+05 4.077232625575e+07  1.646970397591e+00
5.000000000000e-01 -4.822782676565e-06 0.000000000000e+00 -1.483375555620e+07 -3.214222720378e+06 2.767183713732e+07 -1.028021677517e+07 7.390334791641e-01 3.611755263825e-01 1.752969957457e+00 -8.526216019842e+05 4.080322222577e+07  1.647699593711e+00
5.100000000000e-01 -6.163329918201e-06 0.000000000000e+00 -1.488324944562e+07 -3.212589958854e+06 2.766509279223e+07 -1.031092790181e+07 7.382163163453e-01 3.614509690911e-01 1.753512387318e+00 -8.236384816013e+05 4.083729976814e+07  1.648404676084e+00
5.200000000000e-01 -7.479846283788e-06 0.000000000000e+00 -1.493882897634e+07 -3.212602548046e+06 2.765447227200e+07 -1.034631223076e+07 7.374078533597e-01 3.616865953645e-01 1.754033646667e+00 -7.897770216322e+05 4.087337174069e+07  1.649065726260e+00
5.300000000000e-01 -8.714971780629e-06 0.000000000000e+00 -1.499774905584e+07 -3.212392849939e+06 2.764406916611e+07 -1.038356129274e+07 7.366339642343e-01 3.619190548264e-01 1.754556782121e+00 -7.542529391782e+05 4.091230178831e+07  1.649723973215e+00
5.400000000000e-01 -9.866862395444e-06 0.000000000000e+00 -1.506057070233e+07 -3.212745913771e+06 2.763270293576e+07 -1.042385406942e+07 7.358841720603e-01 3.621301269299e-01 1.755069289821e+00 -7.160927213363e+05 4.095391741944e+07  1.650357749703e+00
5.500000000000e-01 -1.095174270404e-05 0.000000000000e+00 -1.512449696097e+07 -3.213902495911e+06 2.762302801112e+07 -1.046430078541e+07 7.351850370402e-01 3.623246226668e-01 1.755577662293e+00 -6.780767549149e+05 4.099809721199e+07  1.650973329561e+00
5.600000000000e-01 -1.199975117070e-05 0.000000000000e+00 -1.519121219398e+07 -3.215982458425e+06 2.761178325938e+07 -1.050724221353e+07 7.345073543879e-01 3.624974891632e-01 1.756072702855e+00 -6.377762839588e+05 4.104358266891e+07  1.651562098507e+00
5.700000000000e-01 -1.295837319972e-05 0.000000000000e+00 -1.526103802786e+07 -3.216799275066e+06 2.760339623058e+07 -1.055109417748e+07 7.338335655468e-01 3.626755602498e-01 1.756574294424e+00 -5.970880084158e+05 4.109376606692e+07  1.652159938425e+00
5.800000000000e-01 -1.387722101498e-05 0.000000000000e+00 -1.533211360317e+07 -3.219137801992e+06 2.759420922686e+07 -1.059621323601e+07 7.332023321454e-01 3.628291798057e-01 1.757060306953e+00 -5.552941292259e+05 4.114476516531e+07  1.652725297353e+00
5.900000000000e-01 -1.472917213229e-05 0.000000000000e+00 -1.540580555677e+07 -3.221063910491e+06 2.758619219765e+07 -1.064270308027e+07 7.325901808072e-01 3.629800555943e-01 1.757543543444e+00 -5.125611868707e+05 4.119890148160e+07  1.653285244635e+00
6.000000000000e-01 -1.552626708638e-05 0.000000000000e+00 -1.548114599000e+07 -3.223068585247e+06 2.757915115298e+07 -1.069003207476e+07 7.319992142913e-01 3.631219689306e-01 1.758019996237e+00 -4.693243627412e+05 4.125532313617e+07  1.653832093624e+00
6.100000000000e-01 -1.627031701741e-05 0.000000000000e+00 -1.555758631186e+07 -3.225111093377e+06 2.757382329821e+07 -1.073766719035e+07 7.314306785105e-01 3.632542065003e-01 1.758490472611e+00 -4.261899319976e+05 4.131421346300e+07  1.654365907475e+00
6.200000000000e-01 -1.697537826672e-05 0.000000000000e+00 -1.563470438556e+07 -3.228151838542e+06 2.756787378521e+07 -1.078631510731e+07 7.308994730698e-01 3.633717592341e-01 1.758946670194e+00 -3.822847641130e+05 4.137353762101e+07  1.654875022515e+00
6.300000000000e-01 -1.762098137220e-05 0.000000000000e+00 -1.571396984558e+07 -3.230206675243e+06 2.756431619669e+07 -1.083591318459e+07 7.303680743459e-01 3.634916521803e-01 1.759402500340e+00 -3.381443888417e+05 4.143662936985e+07  1.655385698158e+00
6.400000000000e-01 -1.816749188683e-05 0.000000000000e+00 -1.579053534777e+07 -3.231266107882e+06 2.756380970094e+07 -1.088374319623e+07 7.298781919251e-01 3.636111895719e-01 1.759846905497e+00 -2.965103856482e+05 4.150022079196e+07  1.655883063483e+00
6.500000000000e-01 -1.868301313983e-05 0.000000000000e+00 -1.586741465574e+07 -3.233379451094e+06 2.756170738139e+07 -1.093271946199e+07 7.294221026086e-01 3.637152212316e-01 1.760275318365e+00 -2.538577545522e+05 4.156313998978e+07  1.656353936450e+00
6.600000000000e-01 -1.913526214373e-05 0.000000000000e+00 -1.594511891083e+07 -3.234004201374e+06 2.756252725173e+07 -1.098131329212e+07 7.289681043208e-01 3.638242486239e-01 1.760702237297e+00 -2.120316829258e+05 4.162892614363e+07  1.656826890476e+00
6.700000000000e-01 -1.955093046680e-05 0.000000000000e+00 -1.602032386163e+07 -3.235705085711e+06 2.756178251698e+07 -1.102965392945e+07 7.285575548477e-01 3.639151391946e-01 1.761107006079e+00 -1.706015753008e+05 4.169187255435e+07  1.657265479341e+00
6.800000000000e-01 -1.993376457241e-05 0.000000000000e+00 -1.609816092159e+07 -3.236511081133e+06 2.756189615189e+07 -1.107929109676e+07 7.281438596356e-01 3.640049697096e-01 1.761510570766e+00 -1.281480445119e+05 4.175752036360e+07  1.657702844113e+00
6.900000000000e-01 -2.023888959469e-05 0.000000000000e+00 -1.617094709025e+07 -3.237798812517e+06 2.755929808533e+07 -1.112816666755e+07 7.277892279847e-01 3.640771268798e-01 1.761882505297e+00 -8.672810917949e+04 4.181736453566e+07  1.658096642980e+00
7.000000000000e-01 -2.047781532758e-05 0.000000000000e+00 -1.624172663629e+07 -3.238200297436e+06 2.755648161847e+07 -1.117666196597e+07 7.274640880028e-01 3.641481737102e-01 1.762239630799e+00 -4.603100540302e+04 4.187547005929e+07  1.658474644690e+00
7.100000000000e-01 -2.066367281795e-05 0.000000000000e+00 -1.631243575385e+07 -3.237322122454e+06 2.755212666901e+07 -1.122615704126e+07 7.271496135191e-01 3.642155272378e-01 1.762584409941e+00 -4.511291298317e+03 4.193212898454e+07  1.658838943649e+00
7.200000000000e-01 -2.087426981687e-05 0.000000000000e+00 -1.638528897842e+07 -3.237902302999e+06 2.754760581398e+07 -1.127671233122e+07 7.268422557205e-01 3.642768671809e-01 1.762928253561e+00 3.813183188555e+04 4.199064507473e+07  1.659197954225e+00
7.300000000000e-01 -2.104510375786e-05 0.000000000000e+00 -1.645654887863e+07 -3.238139269216e+06 2.753996145900e+07 -1.132818492772e+07 7.265612598301e-01 3.643302699301e-01 1.763253283965e+00 8.159078244846e+04 4.204544635155e+07  1.659533523935e+00
7.400000000000e-01 -2.119195354074e-05 0.000000000000e+00 -1.652670710451e+07 -3.238030196727e+06 2.753365667915e+07 -1.137860694380e+07 7.262908003602e-01 3.643833078184e-01 1.763572519638e+00 1.238857897177e+05 4.210042689573e+07  1.659863080793e+00
7.500000000000e-01 -2.137649268813e-05 0.000000000000e+00 -1.660131304299e+07 -3.239181228867e+06 2.752574853444e+07 -1.143184933176e+07 7.260120106733e-01 3.644286231545e-01 1.763893525761e+00 1.691379467736e+05 4.215785288784e+07  1.660189925501e+00
7.600000000000e-01 -2.150702922414e-05 0.000000000000e+00 -1.667238982293e+07 -3.239202758291e+06 2.751828076244e+07 -1.148351397204e+07 7.257599292319e-01 3.644749641684e-01 1.764200221743e+00 2.125410108431e+05 4.221276109749e+07  1.660502956249e+00
7.700000000000e-01 -2.164023338065e-05 0.000000000000e+00 -1.674485213454e+07 -3.239733499202e+06 2.750849967710e+07 -1.153694448953e+07 7.255136224912e-01 3.645140768651e-01 1.764499848610e+00 2.577656489869e+05 4.226702850715e+07  1.660804802442e+00
7.800000000000e-01 -2.175632642915e-05 0.000000000000e+00 -1.681675095542e+07 -3.239861009510e+06 2.749995551819e+07 -1.158966350288e+07 7.252749608343e-01 3.645546525430e-01 1.764795325395e+00 3.021529800374e+05 4.232181132278e+07  1.661103468456e+00
7.900000000000e-01 -2.187490279740e-05 0.000000000000e+00 -1.688971518223e+07 -3.240455029906e+06 2.748908383204e+07 -1.164401161354e+07 7.250427334945e-01 3.645885140351e-01 1.765083450311e+00 3.482143212408e+05 4.237568677814e+07  1.661390976259e+00
8.000000000000e-01 -2.197710016025e-05 0.000000000000e+00 -1.696263822279e+07 -3.240626801834e+06 2.747899738342e+07 -1.169816395507e+07 7.248176571787e-01 3.646243046841e-01 1.765367889083e+00 3.939349314779e+05 4.243014027567e+07  1.661676037391e+00
8.100000000000e-01 -2.208226954223e-05 0.000000000000e+00 -1.703538899398e+07 -3.241267567188e+06 2.746770574624e+07 -1.175271896507e+07 7.245987407984e-01 3.646537345378e-01 1.765645180470e+00 4.401340709368e+05 4.248357712857e+07  1.661950360978e+00
8.200000000000e-01 -2.217158258411e-05 0.000000000000e+00 -1.710908459293e+07 -3.241447682968e+06 2.745625172561e+07 -1.180805749844e+07 7.243866876251e-01 3.646855235485e-01 1.765919040808e+00 4.869634552547e+05 4.253761844986e+07  1.662222752993e+00
8.300000000000e-01 -2.223451501768e-05 0.000000000000e+00 -1.717958505255e+07 -3.241041319903e+06 2.744444154494e+07 -1.186216094323e+07 7.241934830660e-01 3.647155728203e-01 1.766180813570e+00 5.324348169481e+05 4.258881215248e+07  1.662482053800e+00
8.400000000000e-01 -2.232228366463e-05 0.000000000000e+00 -1.725332077622e+07 -3.241762115471e+06 2.743145374565e+07 -1.191828263193e+07 7.239935854376e-01 3.647385563036e-01 1.766443385930e+00 5.800498874996e+05 4.264180805698e+07  1.662738076295e+00
8.500000000000e-01 -2.239497672629e-05 0.000000000000e+00 -1.732667096221e+07 -3.241985461557e+06 2.741921042626e+07 -1.197406793620e+07 7.238012709684e-01 3.647641867634e-01 1.766702073633e+00 6.271761573837e+05 4.269506680476e+07  1.662991890044e+00
8.600000000000e-01 -2.246325907803e-05 0.000000000000e+00 -1.739964103391e+07 -3.242167266715e+06 2.740734526673e+07 -1.202952708148e+07 7.236129548627e-01 3.647882732957e-01 1.766956715361e+00 6.739409495531e+05 4.274833878251e+07  1.663240940300e+00
8.700000000000e-01 -2.253754939531e-05 0.000000000000e+00 -1.747419983953e+07 -3.242843162313e+06 2.739291225431e+07 -1.208696205828e+07 7.234284660396e-01 3.648072729600e-01 1.767206133766e+00 7.227498811660e+05 4.280091555647e+07  1.663481914956e+00
8.800000000000e-01 -2.260687093810e-05 0.000000000000e+00 -1.754751081967e+07 -3.244088963987e+06 2.737771283139e+07 -1.214429987511e+07 7.232596957706e-01 3.648242889056e-01 1.767448055896e+00 7.713659544653e+05 4.285209782624e+07  1.663713785465e+00
8.900000000000e-01 -2.264731080073e-05 0.000000000000e+00 -1.761930037920e+07 -3.243618613016e+06 2.736291125682e+07 -1.220088837498e+07 7.230971076884e-01 3.648462477704e-01 1.767683844507e+00 8.190924991189e+05 4.290209297844e+07  1.663943171970e+00
9.000000000000e-01 -2.271000770055e-05 0.000000000000e+00 -1.769334282806e+07 -3.244340162409e+06 2.734787141729e+07 -1.225850429277e+07 7.229271563785e-01 3.648612443519e-01 1.767920612904e+00 8.679919011788e+05 4.295385841821e+07  1.664169561211e+00
9.100000000000e-01 -2.276896406040e-05 0.000000000000e+00 -1.776665025866e+07 -3.245608392612e+06 2.733178984955e+07 -1.231646568074e+07 7.227716506733e-01 3.648750081505e-01 1.768150680548e+00 9.171086966192e+05 4.300442896814e+07  1.664388120854e+00
9.200000000000e-01 -2.280184325097e-05 0.000000000000e+00 -1.783850453320e+07 -3.245136828336e+06 2.731630744750e+07 -1.237361900610e+07 7.226217847596e-01 3.648937634568e-01 1.768375222725e+00 9.652720305998e+05 4.305402280238e+07  1.664604784450e+00
9.300000000000e-01 -2.284981109385e-05 0.000000000000e+00 -1.791276444969e+07 -3.245492137949e+06 2.730174395630e+07 -1.243145976164e+07 7.224644582802e-01 3.649091386780e-01 1.768602606038e+00 1.014160085008e+06 4.310639897089e+07  1.664822388830e+00
9.400000000000e-01 -2.289170211896e-05 0.000000000000e+00 -1.798384518382e+07 -3.246482353120e+06 2.728263261425e+07 -1.248990679129e+07 7.223319013231e-01 3.649180326899e-01 1.768814150800e+00 1.063706453618e+06 4.315281073166e+07  1.665019969506e+00
9.500000000000e-01 -2.293301748076e-05 0.000000000000e+00 -1.805844920974e+07 -3.246709260468e+06 2.726695978098e+07 -1.254854467070e+07 7.221827529853e-01 3.649322814350e-01 1.769033957989e+00 1.113344699822e+06 4.320458811908e+07  1.665229704703e+00
9.600000000000e-01 -2.297948340162e-05 0.000000000000e+00 -1.813193786307e+07 -3.248050704920e+06 2.724910900983e+07 -1.260767580298e+07 7.220472430167e-01 3.649410780127e-01 1.769245626948e+00 1.163501552075e+06 4.325401242946e+07  1.665427678925e+00
9.700000000000e-01 -2.300228475086e-05 0.000000000000e+00 -1.820445602178e+07 -3.247569688730e+06 2.723128901592e+07 -1.266647712915e+07 7.219164829910e-01 3.649557931011e-01 1.769452335494e+00 1.213214711671e+06 4.330235636782e+07  1.665624916328e+00
9.800000000000e-01 -2.304526702617e-05 0.000000000000e+00 -1.827748734332e+07 -3.248987551946e+06 2.721345975626e+07 -1.272541937892e+07 7.217871060725e-01 3.649629163488e-01 1.769657724229e+00 1.263148988658e+06 4.335147814059e+07  1.665815941463e+00
9.900000000000e-01 -2.307127707713e-05 0.000000000000e+00 -1.835069413456e+07 -3.248898123073e+06 2.719327065629e+07 -1.278564449676e+07 7.216626682302e-01 3.649730543231e-01 1.769856750966e+00 1.314355991677e+06 4.339854949904e+07  1.666003112697e+00
1.000000000000e+00 -2.309608727614e-05 0.000000000000e+00 -1.842195743445e+07 -3.249518457479e+06 2.717330936629e+07 -1.284491408641e+07 7.215496310684e-01 3.649814833204e-01 1.770050425604e+00 1.364520718191e+06 4.344448294479e+07  1.666183542473e+00
1.050000000000e+00 -2.321643310405e-05 0.000000000000e+00 -1.871091980351e+07 -3.250102432610e+06 2.709311050527e+07 -1.307748760935e+07 7.209946735029e-01 3.650193954772e-01 1.770970545876e+00 1.565098969197e+06 4.362797668145e+07  1.667041433287e+00
1.100000000000e+00 -2.335264975922e-05 0.000000000000e+00 -1.904111034433e+07 -3.255279574666e+06 2.700558402432e+07 -1.333384418693e+07 7.203730057472e-01 3.650204062699e-01 1.771905408178e+00 1.789790168983e+06 4.383903219927e+07  1.667894753614e+00
1.150000000000e+00 -2.341610063107e-05 0.000000000000e+00 -1.937349626004e+07 -3.252486300646e+06 2.689241061571e+07 -1.360873366782e+07 7.198865251642e-01 3.650209929279e-01 1.772745046953e+00 2.029939770717e+06 4.403170061370e+07  1.668654342454e+00
1.200000000000e+00 -2.335468650750e-05 0.000000000000e+00 -1.971201196836e+07 -3.252837395683e+06 2.677890687467e+07 -1.388816546185e+07 7.194216818601e-01 3.649844445211e-01 1.773524957029e+00 2.273756851848e+06 4.423018879770e+07  1.669337280586e+00
1.250000000000e+00 -2.326078140360e-05 0.000000000000e+00 -2.007684574529e+07 -3.261107077443e+06 2.662607949928e+07 -1.420717587364e+07 7.190666454931e-01 3.649464346641e-01 1.774217935875e+00 2.552647373216e+06 4.442285397954e+07  1.669934994435e+00
1.300000000000e+00 -2.327121681255e-05 0.000000000000e+00 -2.041434246861e+07 -3.264048453530e+06 2.649050646046e+07 -1.450835976454e+07 7.187712935130e-01 3.649393976713e-01 1.774871149361e+00 2.810731924231e+06 4.460816399683e+07  1.670513582491e+00
1.350000000000e+00 -2.327026014480e-05 0.000000000000e+00 -2.074940837261e+07 -3.267467496372e+06 2.635251731125e+07 -1.480960596082e+07 7.185041512926e-01 3.649278604436e-01 1.775487805902e+00 3.068832340727e+06 4.478979298414e+07  1.671055605061e+00