 TITLE = "Time curves in points"
 VARIABLES = "TIME "  "DISPLACEMENT_X1"  "DISPLACEMENT_Y1"  "STRESS_XX"  "STRESS_XY"  "STRESS_YY"  "STRESS_ZZ"  "STRAIN_XX"  "STRAIN_XY"  "STRAIN_YY"  p_(1st_Invariant)  q_(2nd_Invariant)   Effective_Strain
 ZONE T="POINT=POINT4"
0.000000000000e+00 0.000000000000e+00 0.000000000000e+00 -1.000000000000e+05 0.000000000000e+00 -1.000000000000e+05 -1.000000000000e+05 0.000000000000e+00 0.000000000000e+00 0.000000000000e+00 1.000000000000e+05 0.000000000000e+00  0.000000000000e+00
1.000000000000e-03 -3.459707763904e-07 0.000000000000e+00 2.647846395014e+05 -1.040940114847e+04 5.335098479390e+05 2.835865073275e+05 5.520522904695e-02 -1.019608734690e-02 3.558217420097e-01 -3.606269982559e+05 2.604597453155e+05  3.321526595181e-01
2.000000000000e-03 1.069097702601e-06 0.000000000000e+00 5.535567241003e+05 -2.522721646705e+04 9.755738738422e+05 5.758630666901e+05 1.721101867134e-01 4.416635567072e-02 1.111505080885e+00 -7.016645548775e+05 4.136322349952e+05  1.039045771427e+00
3.000000000000e-03 5.089096584753e-05 0.000000000000e+00 1.366226664707e+06 -2.065594305769e+04 2.140309141604e+06 1.366486053539e+06 2.491163645535e-01 1.533562642648e-02 1.413592575548e+00 -1.624340619950e+06 7.747793001381e+05  1.307233503880e+00
4.000000000000e-03 1.016297536393e-04 0.000000000000e+00 4.257849639940e+06 -1.938916420912e+05 8.029234940815e+06 4.875669857394e+06 2.891888981916e-01 -2.674358835198e-02 1.543386352955e+00 -5.720918146050e+06 3.519629629475e+06  1.421790108625e+00
5.000000000000e-03 1.088439551904e-04 0.000000000000e+00 9.737019398079e+06 1.592105914955e+05 1.426149680702e+07 9.585768899721e+06 3.062194005790e-01 -3.821686648546e-02 1.571966640490e+00 -1.119476170161e+07 4.610221907620e+06  1.444944408749e+00
6.000000000000e-03 1.145247987805e-04 0.000000000000e+00 1.711703033624e+07 -1.003022460996e+06 3.374840679472e+07 1.976569558337e+07 3.097179158911e-01 -4.425422436750e-02 1.581417221803e+00 -2.354371090478e+07 1.557515084451e+07  1.453577545187e+00
7.000000000000e-03 1.151592022449e-04 0.000000000000e+00 1.650477924715e+07 -6.902924569176e+05 3.175552719851e+07 1.798744842102e+07 3.100284116767e-01 -4.375854172506e-02 1.582397698094e+00 -2.208258495556e+07 1.461510581957e+07  1.454392064032e+00
8.000000000000e-03 1.150573961106e-04 0.000000000000e+00 1.527575945414e+07 -7.763226244815e+05 3.166064497079e+07 1.683347461815e+07 3.098780381860e-01 -4.386071938424e-02 1.583084938787e+00 -2.125662634769e+07 1.572183181910e+07  1.455125546118e+00
9.000000000000e-03 1.150806964465e-04 0.000000000000e+00 1.422420896702e+07 -7.602293601085e+05 3.154731844551e+07 1.572095074378e+07 3.097920871633e-01 -4.378586448215e-02 1.583860297301e+00 -2.049749271877e+07 1.667740934108e+07  1.455908237886e+00
1.000000000000e-02 1.150053827794e-04 0.000000000000e+00 1.328225872791e+07 -7.421353359318e+05 3.148542661078e+07 1.473231848316e+07 3.097112074356e-01 -4.373281069286e-02 1.584643983113e+00 -1.983333460728e+07 1.757027625484e+07  1.456699440535e+00
2.000000000000e-02 1.278184487298e-04 0.000000000000e+00 2.691458724540e+07 -1.508356980740e+07 9.711802507297e+07 4.488605233421e+07 3.747766356918e-01 -5.336750144556e-02 1.689652870891e+00 -5.630622155086e+07 6.835480848206e+07  1.539703284065e+00
3.000000000000e-02 1.544992027237e-04 0.000000000000e+00 -1.897624898266e+07 -4.839469987687e+06 2.274978540129e+07 -4.905432292353e+06 1.910288075247e-02 1.147285204274e-02 1.659031556441e+00 3.772986245750e+05 3.771195905807e+07  1.649682764151e+00
4.000000000000e-02 -5.057868936529e-05 0.000000000000e+00 3.395530649969e+06 1.835036704310e+06 4.122099604619e+07 1.065108642385e+07 6.622816440110e-01 8.450303210213e-02 1.649605389346e+00 -1.842253770667e+07 3.491512891701e+07  1.445245250686e+00
5.000000000000e-02 2.612130490186e-05 0.000000000000e+00 -1.601490032849e+07 -5.035605700192e+06 1.948599978042e+07 -6.748477027822e+06 6.397672204200e-01 1.911967780643e-02 1.637299444096e+00 1.092459191965e+06 3.306487737267e+07  1.429565576619e+00
6.000000000000e-02 -8.812414996892e-05 0.000000000000e+00 -7.842908097380e+06 -1.669411571329e+06 3.433344364094e+07 1.861210088706e+06 8.411390965636e-01 2.655291576605e-01 1.682848308109e+00 -9.450581877422e+06 3.836783885992e+07  1.528234636121e+00
7.000000000000e-02 2.906890289986e-05 0.000000000000e+00 -1.762347110836e+05 -3.667983886690e+06 3.447669471824e+07 4.183451704086e+06 8.133597987106e-01 3.555680770162e-01 1.690108961304e+00 -1.282797057041e+07 3.330343518876e+07  1.588282641991e+00
8.000000000000e-02 -8.475901587323e-05 0.000000000000e+00 -7.465729089017e+06 -8.648169870618e+05 2.975315283100e+07 -1.403967195833e+06 8.360412637747e-01 3.216196541801e-01 1.694752364520e+00 -6.961152182051e+06 3.462111860931e+07  1.569899764006e+00
9.000000000000e-02 1.910594324923e-05 0.000000000000e+00 -8.543413964247e+06 -3.082558232250e+06 2.973508587813e+07 -2.377214026755e+06 7.669390844552e-01 3.800348734353e-01 1.700505434710e+00 -6.271485962375e+06 3.599637737720e+07  1.615242931146e+00
1.000000000000e-01 -1.114471711753e-05 0.000000000000e+00 -1.215090550176e+07 -2.375910485074e+06 2.786219635344e+07 -4.765005482614e+06 7.415212526302e-01 3.621219531827e-01 1.702427374845e+00 -3.648761789688e+06 3.710797651865e+07  1.605965000287e+00
1.100000000000e-01 -3.280020476347e-05 0.000000000000e+00 -1.169667361779e+07 -1.946117771308e+06 2.715499948713e+07 -5.037976139611e+06 7.511713513375e-01 3.701898492411e-01 1.702182601159e+00 -3.473449909911e+06 3.614486603337e+07  1.610644211322e+00
1.200000000000e-01 2.842714882093e-07 0.000000000000e+00 -1.072738590320e+07 -2.582551336521e+06 2.850677985394e+07 -4.458107916373e+06 7.625420692688e-01 3.795676257787e-01 1.705083668225e+00 -4.440428678124e+06 3.677855940136e+07  1.618887717547e+00
1.300000000000e-01 -1.241981903086e-05 0.000000000000e+00 -1.130839515560e+07 -2.340543619127e+06 2.880542887409e+07 -4.976744822451e+06 7.555810532983e-01 3.772557333583e-01 1.708555023846e+00 -4.173429632016e+06 3.757201618551e+07  1.620517466161e+00
1.400000000000e-01 -2.422867438630e-06 0.000000000000e+00 -1.133277263063e+07 -2.679581127816e+06 2.911725015099e+07 -5.200422551646e+06 7.608621603144e-01 3.783043424109e-01 1.712089340256e+00 -4.194684989572e+06 3.804335454697e+07  1.623834864879e+00
1.500000000000e-01 -2.049265112704e-06 0.000000000000e+00 -1.146855128085e+07 -2.636102258546e+06 2.918410250172e+07 -5.699198703133e+06 7.624795997381e-01 3.789023025717e-01 1.714698586003e+00 -4.005450839245e+06 3.836966642014e+07  1.626297806065e+00
1.600000000000e-01 2.358041560056e-06 0.000000000000e+00 -1.158465911741e+07 -2.751539783820e+06 2.912785317595e+07 -6.081982213689e+06 7.633528530024e-01 3.778117210135e-01 1.716932494136e+00 -3.820403948285e+06 3.855480803740e+07  1.627318204716e+00
1.700000000000e-01 4.001757687542e-06 0.000000000000e+00 -1.176347434815e+07 -2.758397684648e+06 2.905455546112e+07 -6.424449623392e+06 7.633241224531e-01 3.773242543212e-01 1.718929628324e+00 -3.622210496528e+06 3.872356576446e+07  1.628620002225e+00
1.800000000000e-01 6.710062708306e-06 0.000000000000e+00 -1.195016089415e+07 -2.802812439491e+06 2.895642632145e+07 -6.757095742908e+06 7.631144063289e-01 3.761141615767e-01 1.720772130854e+00 -3.416389894796e+06 3.887741636838e+07  1.629306572755e+00
1.900000000000e-01 9.381959685310e-06 0.000000000000e+00 -1.217152042473e+07 -2.846294045019e+06 2.881356315899e+07 -7.180057362098e+06 7.631020668596e-01 3.752272261342e-01 1.722625845697e+00 -3.153995124055e+06 3.904382689255e+07  1.630218279596e+00
2.000000000000e-01 1.166295564380e-05 0.000000000000e+00 -1.230742187759e+07 -2.872962821169e+06 2.873928545969e+07 -7.485945596679e+06 7.628646383097e-01 3.740265877103e-01 1.724350324320e+00 -2.981972661805e+06 3.917824443539e+07  1.630824416001e+00
2.100000000000e-01 1.403665347867e-05 0.000000000000e+00 -1.255141504442e+07 -2.910434948276e+06 2.855543526206e+07 -7.917826347060e+06 7.625469528798e-01 3.727413029433e-01 1.726023351293e+00 -2.695397956861e+06 3.932153283045e+07  1.631339588861e+00
2.200000000000e-01 1.709066614925e-05 0.000000000000e+00 -1.265821537760e+07 -2.949487949912e+06 2.850275427697e+07 -8.155127527988e+06 7.625691587648e-01 3.714603948969e-01 1.727675807232e+00 -2.563137123794e+06 3.943666058703e+07  1.631824624396e+00
2.300000000000e-01 1.901774846078e-05 0.000000000000e+00 -1.290111772132e+07 -2.972495830008e+06 2.832774127775e+07 -8.521643378882e+06 7.622615371378e-01 3.702139999207e-01 1.729129030188e+00 -2.301660059184e+06 3.955938667504e+07  1.632193774890e+00
2.400000000000e-01 2.170331405774e-05 0.000000000000e+00 -1.300859588459e+07 -3.009679941470e+06 2.828372272629e+07 -8.714712955110e+06 7.620153101971e-01 3.686190552758e-01 1.730646257010e+00 -2.186804628862e+06 3.966564186954e+07  1.632380127065e+00
2.500000000000e-01 2.309929969414e-05 0.000000000000e+00 -1.320231974012e+07 -3.035180425239e+06 2.818576300675e+07 -8.940818690525e+06 7.616333380002e-01 3.674205510025e-01 1.732019563335e+00 -2.014208192035e+06 3.977933367004e+07  1.632729877145e+00
2.600000000000e-01 2.448035601432e-05 0.000000000000e+00 -1.335370607882e+07 -3.056873206178e+06 2.808731943234e+07 -9.140719569026e+06 7.612426564762e-01 3.661320719892e-01 1.733378785196e+00 -1.864297928166e+06 3.985662793957e+07  1.633012126808e+00
2.700000000000e-01 2.592091538104e-05 0.000000000000e+00 -1.350368958355e+07 -3.082510922060e+06 2.799910567449e+07 -9.319997319764e+06 7.607666798655e-01 3.646479230723e-01 1.734686594777e+00 -1.725139590393e+06 3.993564814168e+07  1.633130761875e+00
2.800000000000e-01 2.724124444478e-05 0.000000000000e+00 -1.364960118109e+07 -3.107704045396e+06 2.791704094614e+07 -9.481576830860e+06 7.602727979455e-01 3.631849389147e-01 1.735935600539e+00 -1.595287644731e+06 4.001100925340e+07  1.633221485287e+00
2.900000000000e-01 2.828904295097e-05 0.000000000000e+00 -1.379101034186e+07 -3.132437441323e+06 2.783993669477e+07 -9.626715314153e+06 7.597172184720e-01 3.617676499275e-01 1.737151933144e+00 -1.474070346253e+06 4.008179201922e+07  1.633324938204e+00
3.000000000000e-01 2.911059923435e-05 0.000000000000e+00 -1.393161477698e+07 -3.158375041035e+06 2.777136631434e+07 -9.758286035754e+06 7.590945479359e-01 3.603956115447e-01 1.738330009988e+00 -1.360488500537e+06 4.015521203781e+07  1.633436228843e+00
3.100000000000e-01 2.965062380418e-05 0.000000000000e+00 -1.405980045152e+07 -3.181416972955e+06 2.771643751930e+07 -9.869269656338e+06 7.584002453589e-01 3.591298299475e-01 1.739506445113e+00 -1.262455803815e+06 4.022579070055e+07  1.633626087649e+00
3.200000000000e-01 2.968470767639e-05 0.000000000000e+00 -1.417857578661e+07 -3.202136443453e+06 2.767125562356e+07 -9.963986838123e+06 7.577092867937e-01 3.581102829281e-01 1.740569008102e+00 -1.176230999611e+06 4.029332879665e+07  1.633887223076e+00
3.300000000000e-01 2.912996513444e-05 0.000000000000e+00 -1.427797427338e+07 -3.217179968028e+06 2.763368077526e+07 -1.003873470049e+07 7.569185169756e-01 3.572869620381e-01 1.741584858112e+00 -1.105657267132e+06 4.034767868496e+07  1.634248313777e+00
3.400000000000e-01 2.811677243756e-05 0.000000000000e+00 -1.435923171164e+07 -3.230753287513e+06 2.760914824898e+07 -1.009542841758e+07 7.560508541862e-01 3.566638936415e-01 1.742512112200e+00 -1.051496039919e+06 4.039669935455e+07  1.634674580308e+00
3.500000000000e-01 2.656939661118e-05 0.000000000000e+00 -1.442568443241e+07 -3.241162760202e+06 2.759886741012e+07 -1.013751825356e+07 7.550953916432e-01 3.563283369527e-01 1.743382373938e+00 -1.011888241382e+06 4.044451103629e+07  1.635249463218e+00
3.600000000000e-01 2.428640903661e-05 0.000000000000e+00 -1.446391912037e+07 -3.244250119159e+06 2.760033100936e+07 -1.015781868925e+07 7.540324675037e-01 3.563558723543e-01 1.744160181122e+00 -9.928643999134e+05 4.047698396358e+07  1.635993526164e+00
3.700000000000e-01 2.140072982512e-05 0.000000000000e+00 -1.447301357996e+07 -3.242921887026e+06 2.761947337790e+07 -1.015596472402e+07 7.528434209615e-01 3.566865055029e-01 1.744831692058e+00 -9.968316913049e+05 4.049998362411e+07  1.636857226415e+00
3.800000000000e-01 1.861479486884e-05 0.000000000000e+00 -1.448149033800e+07 -3.237495021333e+06 2.763979567689e+07 -1.015426943667e+07 7.515215122997e-01 3.571509302707e-01 1.745537978214e+00 -1.001345300736e+06 4.052287735443e+07  1.637848722151e+00
3.900000000000e-01 1.589961080754e-05 0.000000000000e+00 -1.449197738191e+07 -3.232834445626e+06 2.765913302236e+07 -1.015267250970e+07 7.502698004153e-01 3.575465661194e-01 1.746242071690e+00 -1.004827710252e+06 4.054618122585e+07  1.638789826849e+00
4.000000000000e-01 1.338729672030e-05 0.000000000000e+00 -1.450557328003e+07 -3.229759926014e+06 2.767276580496e+07 -1.015538468105e+07 7.490742314504e-01 3.579749915916e-01 1.746873462173e+00 -1.003935947961e+06 4.056780431010e+07  1.639688837787e+00
4.100000000000e-01 1.102032061707e-05 0.000000000000e+00 -1.452344480755e+07 -3.225222995900e+06 2.768233235294e+07 -1.016270576686e+07 7.478867878603e-01 3.584337497274e-01 1.747512857356e+00 -9.987272595132e+05 4.058942572414e+07  1.640615224627e+00
4.200000000000e-01 8.780330710051e-06 0.000000000000e+00 -1.454261964543e+07 -3.222435948419e+06 2.769330660366e+07 -1.016944642816e+07 7.467847412367e-01 3.587954413577e-01 1.748160167922e+00 -9.937468433555e+05 4.061336441312e+07  1.641479390681e+00
4.300000000000e-01 6.632994403816e-06 0.000000000000e+00 -1.456609247486e+07 -3.219821427106e+06 2.769752997048e+07 -1.018105560809e+07 7.456959622944e-01 3.592169351695e-01 1.748750734803e+00 -9.834606291768e+05 4.063516381223e+07  1.642335428039e+00
4.400000000000e-01 4.617015223415e-06 0.000000000000e+00 -1.459281637972e+07 -3.216862039785e+06 2.769883547999e+07 -1.019565447733e+07 7.446398434625e-01 3.596440848150e-01 1.749332133504e+00 -9.701215409800e+05 4.065710532762e+07  1.643186114520e+00
4.500000000000e-01 2.710443765082e-06 0.000000000000e+00 -1.462246539877e+07 -3.214278721625e+06 2.769743468122e+07 -1.021305502493e+07 7.436174904037e-01 3.600529054519e-01 1.749895436508e+00 -9.539714191731e+05 4.067930431182e+07  1.644008041937e+00
4.600000000000e-01 8.960331730400e-07 0.000000000000e+00 -1.465595081734e+07 -3.211015635335e+06 2.769280283574e+07 -1.023382464716e+07 7.426221531959e-01 3.604506995601e-01 1.750453772044e+00 -9.343424570804e+05 4.070175018671e+07  1.644817449341e+00
4.700000000000e-01 -8.720012078979e-07 0.000000000000e+00 -1.468997171627e+07 -3.209435755647e+06 2.769473156517e+07 -1.025282210894e+07 7.416772200479e-01 3.607407640804e-01 1.751043724332e+00 -9.173125799874e+05 4.073064611543e+07  1.645579435404e+00
4.800000000000e-01 -2.519256947151e-06 0.000000000000e+00 -1.472681902086e+07 -3.206866817827e+06 2.769041270109e+07 -1.027634428790e+07 7.407449543837e-01 3.611036365348e-01 1.751591801264e+00 -8.957497974422e+05 4.075663674352e+07  1.646354046288e+00
4.900000000000e-01 -4.069724105964e-06 0.000000000000e+00 -1.476896538539e+07 -3.204534365236e+06 2.768217932597e+07 -1.030434993441e+07 7.398512607604e-01 3.614645598885e-01 1.752124561906e+00 -8.696213353899e+05 4.078371688963e+07  1.647112226448e+00
5.000000000000e-01 -5.477832695804e-06 0.000000000000e+00 -1.481600047656e+07 -3.203302587077e+06 2.767299002921e+07 -1.033591698998e+07 7.390047532662e-01 3.617781874667e-01 1.752656190197e+00 -8.403575208916e+05 4.081439304844e+07  1.647835204675e+00
5.100000000000e-01 -6.792091800398e-06 0.000000000000e+00 -1.486618652826e+07 -3.202006603451e+06 2.766627025478e+07 -1.036853428264e+07 7.381945075125e-01 3.620593949220e-01 1.753202271482e+00 -8.105164812918e+05 4.084973800194e+07  1.648546652248e+00
5.200000000000e-01 -8.026980768805e-06 0.000000000000e+00 -1.491945780722e+07 -3.200385343743e+06 2.765931472736e+07 -1.040180502948e+07 7.374029000607e-01 3.623208529712e-01 1.753742545906e+00 -7.793506302183e+05 4.088682362575e+07  1.649239314509e+00
5.300000000000e-01 -9.245843804304e-06 0.000000000000e+00 -1.497849909128e+07 -3.200874422032e+06 2.764766963484e+07 -1.043988007619e+07 7.366330523046e-01 3.625397035393e-01 1.754256454452e+00 -7.430968224540e+05 4.092508001346e+07  1.649880536613e+00
5.400000000000e-01 -1.040778186681e-05 0.000000000000e+00 -1.504099991640e+07 -3.201034541609e+06 2.763659657792e+07 -1.047973127251e+07 7.358829843281e-01 3.627538101189e-01 1.754774872846e+00 -7.052884630031e+05 4.096655096414e+07  1.650521320980e+00
5.500000000000e-01 -1.150225128565e-05 0.000000000000e+00 -1.510594192820e+07 -3.203042304719e+06 2.762402814031e+07 -1.052191490693e+07 7.351859545999e-01 3.629334823589e-01 1.755273698956e+00 -6.653904350585e+05 4.100934952413e+07  1.651118927875e+00
5.600000000000e-01 -1.254770392244e-05 0.000000000000e+00 -1.517335929981e+07 -3.204848114397e+06 2.761239762188e+07 -1.056541779751e+07 7.345078851041e-01 3.631108518649e-01 1.755772938105e+00 -6.245401748533e+05 4.105499981163e+07  1.651714215050e+00
5.700000000000e-01 -1.349967865206e-05 0.000000000000e+00 -1.524380893371e+07 -3.205901728007e+06 2.760279058567e+07 -1.061020220238e+07 7.338372421747e-01 3.632833774457e-01 1.756272120037e+00 -5.829264831919e+05 4.110475066748e+07  1.652306087119e+00
5.800000000000e-01 -1.440425796019e-05 0.000000000000e+00 -1.531628681358e+07 -3.207833424279e+06 2.759299184691e+07 -1.065647391175e+07 7.332063598881e-01 3.634423478469e-01 1.756762449466e+00 -5.400770405245e+05 4.115630482644e+07  1.652878546626e+00
5.900000000000e-01 -1.526341183516e-05 0.000000000000e+00 -1.538988910371e+07 -3.210138417344e+06 2.758404495242e+07 -1.070328743723e+07 7.325954186299e-01 3.635883051368e-01 1.757243354500e+00 -4.969561371576e+05 4.120966510970e+07  1.653433152656e+00
6.000000000000e-01 -1.605854953084e-05 0.000000000000e+00 -1.546666521251e+07 -3.212441199779e+06 2.757598263906e+07 -1.075251063559e+07 7.320047699977e-01 3.637306901602e-01 1.757721063445e+00 -4.522689303236e+05 4.126672300369e+07  1.653981306516e+00
6.100000000000e-01 -1.674742364876e-05 0.000000000000e+00 -1.554014398876e+07 -3.213170137796e+06 2.757397628311e+07 -1.079791211371e+07 7.314530636639e-01 3.638776338510e-01 1.758196147192e+00 -4.119733935496e+05 4.132592844159e+07  1.654527157592e+00
6.200000000000e-01 -1.743709643088e-05 0.000000000000e+00 -1.561813419394e+07 -3.215244356423e+06 2.756927616525e+07 -1.084654851622e+07 7.309050027651e-01 3.640020577259e-01 1.758660432949e+00 -3.681978183626e+05 4.138672979953e+07  1.655049070863e+00
6.300000000000e-01 -1.809443618179e-05 0.000000000000e+00 -1.569756455230e+07 -3.218479981034e+06 2.756317210376e+07 -1.089736092176e+07 7.303916216879e-01 3.641128935864e-01 1.759109816702e+00 -3.227488765673e+05 4.144814574777e+07  1.655546675370e+00
6.400000000000e-01 -1.864100444694e-05 0.000000000000e+00 -1.577498391577e+07 -3.219409623528e+06 2.756209038341e+07 -1.094594383431e+07 7.298991484843e-01 3.642339658766e-01 1.759556205935e+00 -2.803875444422e+05 4.151191350792e+07  1.656046913005e+00
6.500000000000e-01 -1.913281419914e-05 0.000000000000e+00 -1.585251827635e+07 -3.220183539729e+06 2.756242516274e+07 -1.099431348452e+07 7.294280259611e-01 3.643490706242e-01 1.759994154234e+00 -2.385311339577e+05 4.157703124869e+07  1.656534437361e+00
6.600000000000e-01 -1.960746837604e-05 0.000000000000e+00 -1.592955970651e+07 -3.222336346654e+06 2.756068152690e+07 -1.104358358708e+07 7.289905413775e-01 3.644454990001e-01 1.760413262514e+00 -1.958460777695e+05 4.164050815827e+07  1.656990951149e+00
6.700000000000e-01 -2.002784882718e-05 0.000000000000e+00 -1.600759541216e+07 -3.223210018797e+06 2.756054186548e+07 -1.109308446555e+07 7.285566591691e-01 3.645432268172e-01 1.760828040572e+00 -1.532873292545e+05 4.170594879138e+07  1.657444566834e+00
6.800000000000e-01 -2.037588727540e-05 0.000000000000e+00 -1.608207922390e+07 -3.224679532913e+06 2.755799612131e+07 -1.114259969872e+07 7.281796211895e-01 3.646220670274e-01 1.761214630456e+00 -1.111057328970e+05 4.176710487620e+07  1.657856956465e+00
6.900000000000e-01 -2.067174994079e-05 0.000000000000e+00 -1.615528582739e+07 -3.225488220080e+06 2.755654569257e+07 -1.119133462715e+07 7.278219081205e-01 3.646998829617e-01 1.761591337486e+00 -6.997507934109e+04 4.182813587268e+07  1.658258729983e+00
7.000000000000e-01 -2.090269402857e-05 0.000000000000e+00 -1.622743728728e+07 -3.225047098923e+06 2.755394407280e+07 -1.124050837670e+07 7.274820263428e-01 3.647730191468e-01 1.761952929507e+00 -2.866613627473e+04 4.188731268150e+07  1.658643181478e+00
7.100000000000e-01 -2.113513792514e-05 0.000000000000e+00 -1.630043235649e+07 -3.225925101336e+06 2.754840820650e+07 -1.129152168402e+07 7.271653285194e-01 3.648342501751e-01 1.762302117016e+00 1.451527800127e+04 4.194514104935e+07  1.659007311337e+00
7.200000000000e-01 -2.130681654528e-05 0.000000000000e+00 -1.637027868528e+07 -3.225785079033e+06 2.754340483902e+07 -1.134109690669e+07 7.268751098707e-01 3.648946351597e-01 1.762636536475e+00 5.599025098141e+04 4.200085048129e+07  1.659356092965e+00
7.300000000000e-01 -2.151422580215e-05 0.000000000000e+00 -1.644483120183e+07 -3.226756642982e+06 2.753633685975e+07 -1.139378676064e+07 7.265753685158e-01 3.649478580673e-01 1.762972259676e+00 1.007603675717e+05 4.205878308811e+07  1.659702248172e+00
7.400000000000e-01 -2.166443010471e-05 0.000000000000e+00 -1.651574585123e+07 -3.226792344471e+06 2.752944394331e+07 -1.144497268801e+07 7.263054275587e-01 3.650006255382e-01 1.763292067332e+00 1.437581986440e+05 4.211395118763e+07  1.660032005677e+00
7.500000000000e-01 -2.181710433270e-05 0.000000000000e+00 -1.658759559242e+07 -3.227336615932e+06 2.752095299417e+07 -1.149736953143e+07 7.260419982530e-01 3.650451233175e-01 1.763604780432e+00 1.880040432301e+05 4.216869788287e+07  1.660349810145e+00
7.600000000000e-01 -2.193288958940e-05 0.000000000000e+00 -1.665982985104e+07 -3.226166572802e+06 2.751528140730e+07 -1.154890851276e+07 7.257756251970e-01 3.650967590736e-01 1.763917956863e+00 2.311523188317e+05 4.222571379063e+07  1.660673083178e+00
7.700000000000e-01 -2.206234274236e-05 0.000000000000e+00 -1.673273307068e+07 -3.226733952023e+06 2.750486443491e+07 -1.160296518745e+07 7.255305930997e-01 3.651341789262e-01 1.764217178736e+00 2.769446077385e+05 4.227985786020e+07  1.660973288493e+00
7.800000000000e-01 -2.221039226500e-05 0.000000000000e+00 -1.680650413902e+07 -3.228375701126e+06 2.749531807569e+07 -1.165699258592e+07 7.252896780108e-01 3.651690176148e-01 1.764515611157e+00 3.227262164201e+05 4.233560445375e+07  1.661270818940e+00
7.900000000000e-01 -2.232882721306e-05 0.000000000000e+00 -1.687920245226e+07 -3.228929615579e+06 2.748503915472e+07 -1.171097823055e+07 7.250561677141e-01 3.652028824490e-01 1.764804554129e+00 3.683805093648e+05 4.238974034250e+07  1.661559078059e+00
8.000000000000e-01 -2.242943014020e-05 0.000000000000e+00 -1.695265513564e+07 -3.229107381634e+06 2.747462232334e+07 -1.176566837713e+07 7.248312279228e-01 3.652384180891e-01 1.765089483695e+00 4.145670631405e+05 4.244438146092e+07  1.661844313619e+00
8.100000000000e-01 -2.250098501986e-05 0.000000000000e+00 -1.702298285146e+07 -3.228724825269e+06 2.746350873494e+07 -1.181929227986e+07 7.246260340575e-01 3.652717698062e-01 1.765361276039e+00 4.595887987941e+05 4.249595727115e+07  1.662115213061e+00
8.200000000000e-01 -2.259921348281e-05 0.000000000000e+00 -1.709681806660e+07 -3.229438366869e+06 2.745087910083e+07 -1.187518440467e+07 7.244132581997e-01 3.652982911882e-01 1.765633681875e+00 5.070411234784e+05 4.254925196082e+07  1.662382911241e+00
8.300000000000e-01 -2.268161704817e-05 0.000000000000e+00 -1.717033525454e+07 -3.229641570557e+06 2.743929318727e+07 -1.193065222311e+07 7.242081148165e-01 3.653271667517e-01 1.765902444641e+00 5.538980967918e+05 4.260310632834e+07  1.662648421487e+00
8.400000000000e-01 -2.275929286514e-05 0.000000000000e+00 -1.724318905866e+07 -3.229919986265e+06 2.742805353530e+07 -1.198569101450e+07 7.240094449499e-01 3.653537459527e-01 1.766166373585e+00 6.002755126199e+05 4.265676241063e+07  1.662907778193e+00
8.500000000000e-01 -2.283967387250e-05 0.000000000000e+00 -1.731694290598e+07 -3.230595661893e+06 2.741458623736e+07 -1.204223337202e+07 7.238165380465e-01 3.653751060524e-01 1.766423983588e+00 6.481966802119e+05 4.270944487956e+07  1.663157864542e+00
8.600000000000e-01 -2.290696416781e-05 0.000000000000e+00 -1.739074483334e+07 -3.230768240583e+06 2.740211718680e+07 -1.209850676811e+07 7.236281072198e-01 3.653991025504e-01 1.766679053038e+00 6.957114715493e+05 4.276292053326e+07  1.663407168201e+00
8.700000000000e-01 -2.297312437752e-05 0.000000000000e+00 -1.746457021400e+07 -3.231070314454e+06 2.738955218966e+07 -1.215486511112e+07 7.234437837020e-01 3.654213939593e-01 1.766930299042e+00 7.432943784880e+05 4.281638177616e+07  1.663651776744e+00
8.800000000000e-01 -2.304992981023e-05 0.000000000000e+00 -1.753824251145e+07 -3.232752558211e+06 2.737312525985e+07 -1.221293912500e+07 7.232744880162e-01 3.654343799062e-01 1.767171123889e+00 7.926854588672e+05 4.286694786979e+07  1.663880054062e+00
8.900000000000e-01 -2.308925876463e-05 0.000000000000e+00 -1.761016395229e+07 -3.232273766768e+06 2.735840594730e+07 -1.226964895600e+07 7.231118389948e-01 3.654562074444e-01 1.767407273147e+00 8.404689869953e+05 4.291713921546e+07  1.664109610575e+00
9.000000000000e-01 -2.314425401489e-05 0.000000000000e+00 -1.768409040843e+07 -3.232603700752e+06 2.734465874730e+07 -1.232680528826e+07 7.229420565946e-01 3.654744339291e-01 1.767645747389e+00 8.887456497941e+05 4.296982763073e+07  1.664339490331e+00
9.100000000000e-01 -2.321123741135e-05 0.000000000000e+00 -1.775781073704e+07 -3.234342553793e+06 2.732719084281e+07 -1.238558220098e+07 7.227859371109e-01 3.654839815642e-01 1.767874610987e+00 9.387340317379e+05 4.301969537466e+07  1.664554254448e+00
9.200000000000e-01 -2.324304329792e-05 0.000000000000e+00 -1.782979372367e+07 -3.233855101251e+06 2.731178774492e+07 -1.244284894825e+07 7.226360220648e-01 3.655026646996e-01 1.768099483400e+00 9.869516423326e+05 4.306947644795e+07  1.664771101381e+00
9.300000000000e-01 -2.328976218198e-05 0.000000000000e+00 -1.790472700937e+07 -3.234205348770e+06 2.729644578032e+07 -1.250149770323e+07 7.224792082396e-01 3.655176764765e-01 1.768326683324e+00 1.036592977428e+06 4.312179100783e+07  1.664988203762e+00
9.400000000000e-01 -2.332443607446e-05 0.000000000000e+00 -1.797499307869e+07 -3.234803761574e+06 2.727930883434e+07 -1.255878873849e+07 7.223468404046e-01 3.655297510598e-01 1.768539786564e+00 1.084824327611e+06 4.316911431549e+07  1.665189119673e+00
9.500000000000e-01 -2.337281746670e-05 0.000000000000e+00 -1.804998299010e+07 -3.235492393233e+06 2.726231340205e+07 -1.261819931539e+07 7.221971238170e-01 3.655400122347e-01 1.768758540965e+00 1.135289634482e+06 4.322021655999e+07  1.665395338203e+00
9.600000000000e-01 -2.341876977865e-05 0.000000000000e+00 -1.812355013980e+07 -3.236814311357e+06 2.724460833643e+07 -1.267739569504e+07 7.220614495596e-01 3.655488655891e-01 1.768970537535e+00 1.185445832804e+06 4.326984289876e+07  1.665593584416e+00
9.700000000000e-01 -2.344071069864e-05 0.000000000000e+00 -1.819622827892e+07 -3.236291415343e+06 2.722697733339e+07 -1.273627399905e+07 7.219299697818e-01 3.655634363769e-01 1.769177798066e+00 1.235174981525e+06 4.331848138293e+07  1.665791213265e+00
9.800000000000e-01 -2.348371845652e-05 0.000000000000e+00 -1.826999682998e+07 -3.237729490578e+06 2.720854159982e+07 -1.279597492540e+07 7.218004436784e-01 3.655703304161e-01 1.769383402654e+00 1.285810051850e+06 4.336773610337e+07  1.665982226931e+00
9.900000000000e-01 -2.350250388928e-05 0.000000000000e+00 -1.834209124402e+07 -3.237199102786e+06 2.719080425534e+07 -1.285465175056e+07 7.216757107571e-01 3.655836488113e-01 1.769584120829e+00 1.335312913082e+06 4.341584883229e+07  1.666172898254e+00
1.000000000000e+00 -2.354764819084e-05 0.000000000000e+00 -1.841608941192e+07 -3.239037169676e+06 2.717044821643e+07 -1.291533512721e+07 7.215524760373e-01 3.655861448698e-01 1.769782159994e+00 1.386992107568e+06 4.346382925856e+07  1.666354061381e+00
1.050000000000e+00 -2.365409655427e-05 0.000000000000e+00 -1.869924866667e+07 -3.238642729852e+06 2.708388011236e+07 -1.314679849530e+07 7.210058722402e-01 3.656264779802e-01 1.770698275789e+00 1.587389016536e+06 4.363693919906e+07  1.667209093389e+00
1.100000000000e+00 -2.373938635273e-05 0.000000000000e+00 -1.903994144956e+07 -3.251251904391e+06 2.701888724166e+07 -1.340316550471e+07 7.203856397546e-01 3.656226138290e-01 1.771649621086e+00 1.808073237538e+06 4.387798494328e+07  1.668072717654e+00
1.150000000000e+00 -2.385626757091e-05 0.000000000000e+00 -1.937027139963e+07 -3.256888800122e+06 2.692118098966e+07 -1.367445398520e+07 7.199220221084e-01 3.656664514185e-01 1.772487495453e+00 2.041181465055e+06 4.408509060487e+07  1.668856710040e+00
1.200000000000e+00 -2.404023766118e-05 0.000000000000e+00 -1.970517832356e+07 -3.261039702932e+06 2.681980755360e+07 -1.394901453041e+07 7.194620804044e-01 3.657085127973e-01 1.773274278944e+00 2.278128433456e+06 4.429227283774e+07  1.669596328651e+00
1.250000000000e+00 -2.418294798057e-05 0.000000000000e+00 -2.006557112146e+07 -3.260676667607e+06 2.667392719075e+07 -1.426351190424e+07 7.191097921062e-01 3.657340160980e-01 1.773972126130e+00 2.551718611650e+06 4.448545035895e+07  1.670239318828e+00
1.300000000000e+00 -2.418843666881e-05 0.000000000000e+00 -2.040205479784e+07 -3.263866971149e+06 2.653933789891e+07 -1.456387467602e+07 7.188145109803e-01 3.657238414877e-01 1.774627432271e+00 2.808863858316e+06 4.467085036720e+07  1.670817362659e+00
1.350000000000e+00 -2.418631588052e-05 0.000000000000e+00 -2.073852501044e+07 -3.267539407234e+06 2.640017291242e+07 -1.486650736303e+07 7.185462979449e-01 3.657093965980e-01 1.775245615712e+00 3.068286487019e+06 4.485274359913e+07  1.671358639419e+00