 TITLE = "Profiles along polylines"
 VARIABLES = "DIST" "PRESSURE1" "PRESSURE2" "PRESSURE_W" "SATURATION1" SATURATION2 "VELOCITY_X1" "VELOCITY_Y1" "VELOCITY_X2" "VELOCITY_Y2"  p_(1st_Invariant)  q_(2nd_Invariant)   Effective_Strain
 ZONE T="TIME=0.000000000000e+00"
0.000000000000e+00 8.400000000000e+07 1.000000000000e+05 -8.390000000000e+07 6.601393844892e-01 3.398606155108e-01 0.000000000000e+00 0.000000000000e+00 0.000000000000e+00 0.000000000000e+00 1.000000000000e+05 0.000000000000e+00  0.000000000000e+00
5.000000000000e-03 8.400000000000e+07 1.000000000000e+05 -8.390000000000e+07 6.601393844892e-01 3.398606155108e-01 0.000000000000e+00 0.000000000000e+00 0.000000000000e+00 0.000000000000e+00 1.000000000000e+05 0.000000000000e+00  0.000000000000e+00
1.000000000000e-02 8.400000000000e+07 1.000000000000e+05 -8.390000000000e+07 6.601393844892e-01 3.398606155108e-01 0.000000000000e+00 0.000000000000e+00 0.000000000000e+00 0.000000000000e+00 1.000000000000e+05 0.000000000000e+00  0.000000000000e+00
1.500000000000e-02 8.400000000000e+07 1.000000000000e+05 -8.390000000000e+07 6.601393844892e-01 3.398606155108e-01 0.000000000000e+00 0.000000000000e+00 0.000000000000e+00 0.000000000000e+00 1.000000000000e+05 0.000000000000e+00  0.000000000000e+00
2.000000000000e-02 8.400000000000e+07 1.000000000000e+05 -8.390000000000e+07 6.601393844892e-01 3.398606155108e-01 0.000000000000e+00 0.000000000000e+00 0.000000000000e+00 0.000000000000e+00 1.000000000000e+05 0.000000000000e+00  0.000000000000e+00
2.500000000000e-02 8.400000000000e+07 1.000000000000e+05 -8.390000000000e+07 6.601393844892e-01 3.398606155108e-01 0.000000000000e+00 0.000000000000e+00 0.000000000000e+00 0.000000000000e+00 1.000000000000e+05 0.000000000000e+00  0.000000000000e+00
3.000000000000e-02 8.400000000000e+07 1.000000000000e+05 -8.390000000000e+07 6.601393844892e-01 3.398606155108e-01 0.000000000000e+00 0.000000000000e+00 0.000000000000e+00 0.000000000000e+00 1.000000000000e+05 0.000000000000e+00  0.000000000000e+00
3.500000000000e-02 8.400000000000e+07 1.000000000000e+05 -8.390000000000e+07 6.601393844892e-01 3.398606155108e-01 0.000000000000e+00 0.000000000000e+00 0.000000000000e+00 0.000000000000e+00 1.000000000000e+05 0.000000000000e+00  0.000000000000e+00
4.000000000000e-02 8.400000000000e+07 1.000000000000e+05 -8.390000000000e+07 6.601393844892e-01 3.398606155108e-01 0.000000000000e+00 0.000000000000e+00 0.000000000000e+00 0.000000000000e+00 1.000000000000e+05 0.000000000000e+00  0.000000000000e+00
4.500000000000e-02 8.400000000000e+07 1.000000000000e+05 -8.390000000000e+07 6.601393844892e-01 3.398606155108e-01 0.000000000000e+00 0.000000000000e+00 0.000000000000e+00 0.000000000000e+00 1.000000000000e+05 0.000000000000e+00  0.000000000000e+00
5.000000000000e-02 8.400000000000e+07 1.000000000000e+05 -8.390000000000e+07 6.601393844892e-01 3.398606155108e-01 0.000000000000e+00 0.000000000000e+00 0.000000000000e+00 0.000000000000e+00 1.000000000000e+05 0.000000000000e+00  0.000000000000e+00
 TITLE = "Profiles along polylines"
 VARIABLES = "DIST" "PRESSURE1" "PRESSURE2" "PRESSURE_W" "SATURATION1" SATURATION2 "VELOCITY_X1" "VELOCITY_Y1" "VELOCITY_X2" "VELOCITY_Y2"  p_(1st_Invariant)  q_(2nd_Invariant)   Effective_Strain
 ZONE T="TIME=1.000000000000e-02"
0.000000000000e+00 8.399996860436e+07 1.000000000000e+05 -8.389996860436e+07 6.601394589867e-01 3.398605410133e-01 7.254908909269e-11 -1.497342432845e-10 0.000000000000e+00 -1.327419941735e-15 1.781009255837e+06 7.238930863659e+05  4.067814072603e-02
5.000000000000e-03 8.400004005841e+07 1.000000209367e+05 -8.390004003747e+07 6.601392735272e-01 3.398607264728e-01 -8.946965671430e-11 -2.523911436058e-11 1.042616561146e-15 -2.833138847915e-15 1.774998100004e+06 7.215664051388e+05  4.068005879021e-02
1.000000000000e-02 8.399999352293e+07 9.999996414732e+04 -8.389999355878e+07 6.601395502267e-01 3.398604497733e-01 4.745353555755e-10 1.088728329180e-10 -4.966843797883e-15 -1.899775400842e-15 1.780605606297e+06 7.281886664656e+05  4.062630338649e-02
1.500000000000e-02 8.399886971754e+07 9.999977272524e+04 -8.389886994481e+07 6.601443350888e-01 3.398556649112e-01 -1.644806454302e-09 -3.300268292729e-09 2.107991943684e-14 1.530351131674e-14 1.781666903345e+06 7.390767527749e+05  4.090306148663e-02
2.000000000000e-02 8.400956910569e+07 1.000024599238e+05 -8.390956664576e+07 6.601164831099e-01 3.398835168901e-01 -1.219186689872e-08 1.755329022745e-08 3.045890546473e-14 -1.180529465769e-13 1.802724083486e+06 7.481508791817e+05  3.938709620494e-02
2.500000000000e-02 8.396564186859e+07 9.998952474554e+04 -8.386565234384e+07 6.602664499878e-01 3.397335500122e-01 1.340440340427e-07 -4.225476272754e-08 -5.284163274905e-13 4.043064780730e-13 1.760676870270e+06 6.127272421944e+05  3.685390042602e-02
3.000000000000e-02 8.397532882278e+07 1.000209081015e+05 -8.387530791468e+07 6.601234309267e-01 3.398765690733e-01 -7.167285073154e-07 -2.183132118481e-07 2.663900656341e-12 -6.160699191586e-13 1.481424116465e+06 4.532026213172e+05  4.441544747418e-02
3.500000000000e-02 8.531411863878e+07 1.000454435474e+05 -8.521407319524e+07 6.563194165757e-01 3.436805834243e-01 1.760649690424e-06 3.108891273313e-06 -7.074610614839e-12 -1.694232250506e-12 1.968265471534e+06 1.172977553137e+06  8.147196153868e-02
4.000000000000e-02 7.395228666578e+07 9.946668263961e+04 -7.385281998314e+07 6.905353841126e-01 3.094646158874e-01 1.172639131498e-06 -2.225727408995e-05 3.290806754726e-12 9.427227698566e-12 -5.452270528299e+05 2.702845999236e+06  1.816634899155e-01
4.500000000000e-02 1.358488715667e+08 1.016556469810e+05 -1.357472159197e+08 4.854376620317e-01 5.145623379683e-01 -1.292454983295e-05 -2.440523370927e-05 8.363174778725e-11 3.244189304683e-11 7.131188041794e+06 3.076638054071e+06  6.290062660984e-01
5.000000000000e-02 2.274925069045e-313 1.000000000000e+05 1.000000000000e+05 9.835511870656e-01 1.644881293444e-02 0.000000000000e+00 5.327550679130e-04 0.000000000000e+00 6.258777948419e-12 -1.948877698309e+07 3.818110563639e+07  1.199369276365e+00
 TITLE = "Profiles along polylines"
 VARIABLES = "DIST" "PRESSURE1" "PRESSURE2" "PRESSURE_W" "SATURATION1" SATURATION2 "VELOCITY_X1" "VELOCITY_Y1" "VELOCITY_X2" "VELOCITY_Y2"  p_(1st_Invariant)  q_(2nd_Invariant)   Effective_Strain
 ZONE T="TIME=1.000000000000e-01"
0.000000000000e+00 8.400002045983e+07 1.000000000000e+05 -8.390002045983e+07 6.601393318250e-01 3.398606681750e-01 -3.237441064795e-11 -5.027897293183e-12 0.000000000000e+00 1.076889194145e-15 4.635549811723e+06 1.993263902672e+06  4.339904210507e-02
5.000000000000e-03 8.399997554420e+07 1.000000886900e+05 -8.389997545551e+07 6.601394521226e-01 3.398605478774e-01 3.144366824076e-11 -8.739390658048e-11 5.717260040511e-15 -4.895357755467e-15 4.607346663023e+06 1.933851203354e+06  4.329325339930e-02
1.000000000000e-02 8.400004577145e+07 9.999991644151e+04 -8.390004585501e+07 6.601391971415e-01 3.398608028585e-01 -2.011952192099e-10 -1.721263487655e-11 -2.510618394238e-14 -6.233790218285e-15 4.612237513865e+06 1.954294845338e+06  4.319237448574e-02
1.500000000000e-02 8.400018621768e+07 9.999836122190e+04 -8.390018785646e+07 6.601383288298e-01 3.398616711702e-01 1.113996494480e-09 2.404415655896e-10 1.017773322299e-13 1.237913373100e-13 4.589480287891e+06 1.941666232082e+06  4.351001568763e-02
2.000000000000e-02 8.399762248999e+07 1.000150785291e+05 -8.389760741146e+07 6.601457683668e-01 3.398542316332e-01 -3.823886079884e-09 -3.679488022517e-09 2.958878871891e-13 -7.602053606202e-13 4.636912396576e+06 2.035229243911e+06  4.221622195810e-02
2.500000000000e-02 8.401494400900e+07 9.993791288618e+04 -8.391500609611e+07 6.600957764539e-01 3.399042235461e-01 2.498114831826e-08 3.062051131479e-08 -3.881068589096e-12 2.579794783442e-12 5.073954896888e+06 2.645458504164e+06  4.095457981223e-02
3.000000000000e-02 8.389324658486e+07 1.001026508336e+05 -8.379314393403e+07 6.604371421605e-01 3.395628578395e-01 -1.598130368055e-07 -3.064823360986e-07 1.979061152343e-11 -2.895563940827e-12 4.795213174615e+06 2.190380468076e+06  4.854679312668e-02
3.500000000000e-02 8.489945256849e+07 1.005227639054e+05 -8.479892980458e+07 6.575588019128e-01 3.424411980872e-01 1.842675106559e-07 2.610542871441e-06 -5.584227651325e-11 -1.968352994505e-11 4.926086956808e+06 1.851102063524e+06  7.397272794978e-02
4.000000000000e-02 7.762220014724e+07 9.521656501280e+04 -7.752698358223e+07 6.786441090210e-01 3.213558909790e-01 2.804875117117e-06 -1.792447778798e-05 3.405233077487e-11 1.028158404826e-10 1.380889935864e+05 4.024124008493e+06  1.568872532533e-01
4.500000000000e-02 1.199609696001e+08 1.162888338460e+05 -1.198446807662e+08 5.342592215953e-01 4.657407784047e-01 -1.285716875360e-05 -5.215844658781e-06 7.021357173109e-10 2.633204473712e-10 5.007720705164e+06 1.287815292637e+07  6.432985476055e-01
5.000000000000e-02 2.274925069045e-313 1.000000000000e+05 1.000000000000e+05 9.908030085674e-01 9.196991432578e-03 0.000000000000e+00 4.847358180472e-04 0.000000000000e+00 5.475302998135e-11 -7.763610509417e+06 6.547506422394e+07  1.988437357561e+00
 TITLE = "Profiles along polylines"
 VARIABLES = "DIST" "PRESSURE1" "PRESSURE2" "PRESSURE_W" "SATURATION1" SATURATION2 "VELOCITY_X1" "VELOCITY_Y1" "VELOCITY_X2" "VELOCITY_Y2"  p_(1st_Invariant)  q_(2nd_Invariant)   Effective_Strain
 ZONE T="TIME=1.000000000000e+00"
0.000000000000e+00 8.400002526668e+07 1.000000000000e+05 -8.390002526668e+07 6.601393102600e-01 3.398606897400e-01 -3.191378332752e-11 -2.172203785564e-11 0.000000000000e+00 7.219192322773e-16 1.447007760331e+07 6.185791443811e+06  4.818417344214e-02
5.000000000000e-03 8.399999377394e+07 1.000000786891e+05 -8.389999369525e+07 6.601393951241e-01 3.398606048759e-01 3.361675881646e-11 -6.970099370895e-11 5.159196577689e-15 -6.118941126338e-15 1.443464597086e+07 6.151911310137e+06  4.807615888138e-02
1.000000000000e-02 8.400000473183e+07 9.999983048491e+04 -8.390000490135e+07 6.601393451035e-01 3.398606548965e-01 -1.874117464620e-10 4.771730016602e-11 -2.972340400186e-14 1.023645245295e-15 1.442269272413e+07 6.154683960294e+06  4.798227423794e-02
1.500000000000e-02 8.400010966842e+07 9.999873801674e+04 -8.390011093040e+07 6.601386706883e-01 3.398613293117e-01 1.234314108426e-09 -9.349371772053e-10 1.621780280404e-13 8.076915307142e-14 1.440960808910e+07 6.124682889786e+06  4.825185278061e-02
2.000000000000e-02 8.399958051560e+07 1.000149054096e+05 -8.389956561019e+07 6.601425731719e-01 3.398574268281e-01 -6.678956057560e-09 5.821352224952e-09 1.718994786405e-14 -6.793726306315e-13 1.443422237375e+07 6.266035313706e+06  4.708679090342e-02
2.500000000000e-02 8.399826720541e+07 9.993052592132e+04 -8.389833667949e+07 6.601402826715e-01 3.398597173285e-01 3.122097680350e-08 -4.975627674701e-08 -4.495842282680e-12 1.664153718671e-12 1.514716115067e+07 7.222406663743e+06  4.595848669003e-02
3.000000000000e-02 8.405143587747e+07 1.000453518409e+05 -8.395139052563e+07 6.600356905117e-01 3.399643094883e-01 -9.844252508224e-08 4.315361126146e-07 3.561512982593e-11 1.624497243606e-11 1.492581412695e+07 6.606134021236e+06  5.374087178330e-02
3.500000000000e-02 8.329785435610e+07 1.023839726894e+05 -8.319547038341e+07 6.620629614375e-01 3.379370385625e-01 2.133820213443e-07 -2.741765846909e-06 -1.347252038976e-10 -2.104922461352e-10 1.441084556112e+07 4.844046924312e+06  7.647818560190e-02
4.000000000000e-02 8.934878028151e+07 7.721425273601e+04 -8.927156602878e+07 6.435804799334e-01 3.564195200666e-01 2.174595387115e-06 8.528047708607e-06 4.269736680116e-10 1.571102086507e-09 1.227361498534e+07 4.078822875475e+06  1.457422736512e-01
4.500000000000e-02 6.135815307002e+07 2.356815311166e+05 -6.112247153891e+07 7.603568671606e-01 2.396431328394e-01 6.184752081875e-06 9.005082507484e-05 2.653254806090e-09 1.527717559164e-09 1.551015355003e+05 1.064013206422e+07  6.530687150169e-01
5.000000000000e-02 2.274925069045e-313 1.000000000000e+05 1.000000000000e+05 1.000000000000e+00 0.000000000000e+00 0.000000000000e+00 2.651546390965e-04 0.000000000000e+00 1.671313616688e-10 6.011435578177e+06 6.530405613110e+07  2.032271403946e+00
 TITLE = "Profiles along polylines"
 VARIABLES = "DIST" "PRESSURE1" "PRESSURE2" "PRESSURE_W" "SATURATION1" SATURATION2 "VELOCITY_X1" "VELOCITY_Y1" "VELOCITY_X2" "VELOCITY_Y2"  p_(1st_Invariant)  q_(2nd_Invariant)   Effective_Strain
 ZONE T="TIME=5.000000000000e+00"
0.000000000000e+00 8.400005907798e+07 1.000000000000e+05 -8.390005907798e+07 6.601391983473e-01 3.398608016527e-01 -7.000557817298e-12 4.623617958826e-11 0.000000000000e+00 -5.374111453481e-15 2.789806948789e+07 1.194259467206e+07  5.084510030072e-02
5.000000000000e-03 8.399997273106e+07 9.999990689352e+04 -8.389997282416e+07 6.601394436000e-01 3.398605564000e-01 -5.073985749048e-11 -1.358645534699e-10 -4.630492669370e-15 -1.964590064399e-15 2.785301222982e+07 1.190330946079e+07  5.073976601908e-02
1.000000000000e-02 8.400030110635e+07 1.000000442775e+05 -8.390030106207e+07 6.601384189591e-01 3.398615810409e-01 2.739379932721e-10 -1.377313475148e-10 3.132187316144e-14 -1.809920694832e-14 2.785377731638e+07 1.192672964572e+07  5.065684804922e-02
1.500000000000e-02 8.399939975404e+07 1.000004093377e+05 -8.389939934471e+07 6.601410410621e-01 3.398589589379e-01 -1.652175020477e-10 7.233248993045e-09 -1.707113619323e-13 2.500505300167e-13 2.781419301631e+07 1.185974262850e+07  5.089968776809e-02
2.000000000000e-02 8.398853946111e+07 1.000060197062e+05 -8.388853344140e+07 6.601654169225e-01 3.398345830775e-01 -1.071920283297e-08 -4.083718844198e-08 4.756447503820e-13 -9.425591067450e-13 2.784251643067e+07 1.207482869442e+07  4.976026781159e-02
2.500000000000e-02 8.409366666100e+07 9.996339008837e+04 -8.399370327091e+07 6.597836046449e-01 3.402163953551e-01 4.465806371879e-08 -1.813204623690e-07 -2.773957569706e-12 -9.521244014114e-12 2.891981488184e+07 1.338334313434e+07  4.870360999613e-02
3.000000000000e-02 8.420688299674e+07 9.925662338955e+04 -8.410762637335e+07 6.599016573816e-01 3.400983426184e-01 4.861442122818e-07 2.284195983701e-06 3.507286601513e-11 1.110926140758e-10 2.863544844380e+07 1.245625460526e+07  5.643596094756e-02
3.500000000000e-02 7.930618502911e+07 1.093068370463e+05 -7.919687819206e+07 6.796392089220e-01 3.203607910780e-01 9.436780504282e-07 1.650918412512e-05 3.422080366893e-11 2.533967595264e-10 2.664543396844e+07 9.717511359044e+06  7.877397105101e-02
4.000000000000e-02 5.808293888694e+07 1.089558605770e+05 -5.797398302636e+07 7.685146603643e-01 2.314853396357e-01 7.719731561502e-07 5.149741767815e-05 9.912650571226e-10 5.131959311620e-09 1.718167926511e+07 3.906765043932e+06  1.444687514641e-01
4.500000000000e-02 2.798081578173e+07 6.105369147135e+05 -2.737027886702e+07 9.172702666200e-01 8.272973338005e-02 1.203818816116e-06 9.547298180057e-05 3.786984075324e-09 1.499723362761e-09 -2.013973133587e+06 1.136454550554e+07  6.508506443439e-01
5.000000000000e-02 2.274925069045e-313 1.000000000000e+05 1.000000000000e+05 1.000000000000e+00 0.000000000000e+00 0.000000000000e+00 1.190566396464e-04 0.000000000000e+00 4.222410219898e-10 2.824409510758e+07 7.601911248904e+07  2.036672879729e+00
 TITLE = "Profiles along polylines"
 VARIABLES = "DIST" "PRESSURE1" "PRESSURE2" "PRESSURE_W" "SATURATION1" SATURATION2 "VELOCITY_X1" "VELOCITY_Y1" "VELOCITY_X2" "VELOCITY_Y2"  p_(1st_Invariant)  q_(2nd_Invariant)   Effective_Strain
 ZONE T="TIME=1.000000000000e+01"
0.000000000000e+00 8.399999234267e+07 1.000000000000e+05 -8.389999234267e+07 6.601394691710e-01 3.398605308290e-01 -5.383978286791e-11 1.200250954961e-10 0.000000000000e+00 3.692856696341e-15 3.601889349451e+07 1.542696855979e+07  5.186839249614e-02
5.000000000000e-03 8.399984688009e+07 1.000001651673e+05 -8.389984671492e+07 6.601396188315e-01 3.398603811685e-01 -4.433368875718e-10 -1.224307520108e-09 -1.948364916798e-14 -4.132533297827e-14 3.596987336555e+07 1.538463997584e+07  5.176368770783e-02
1.000000000000e-02 8.400281517498e+07 9.999674196280e+04 -8.390281843301e+07 6.601281605806e-01 3.398718394194e-01 -6.106266261798e-10 -9.354067719968e-09 9.310827880365e-15 -2.676264931979e-13 3.597626311563e+07 1.541357991913e+07  5.168229754131e-02
1.500000000000e-02 8.401588496245e+07 9.998616495965e+04 -8.391589879749e+07 6.600719301086e-01 3.399280698914e-01 1.722919926685e-08 4.309542334060e-08 3.852973415363e-13 1.070044148023e-12 3.592987742817e+07 1.533389149725e+07  5.192287098941e-02
2.000000000000e-02 8.389871247682e+07 1.000822936740e+05 -8.379863018314e+07 6.606579052107e-01 3.393420947893e-01 1.089627156527e-07 7.573775910289e-07 3.146650780371e-12 2.516907916263e-11 3.590796136053e+07 1.553862931718e+07  5.078164527826e-02
2.500000000000e-02 8.256282647064e+07 1.017130123380e+05 -8.246111345830e+07 6.660537305987e-01 3.339462694013e-01 3.373195175643e-07 4.264217774073e-06 1.837937697847e-11 1.265145053982e-10 3.666586616892e+07 1.668603159490e+07  4.966636321073e-02
3.000000000000e-02 7.653391958816e+07 1.082583857310e+05 -7.642566120243e+07 6.895386429352e-01 3.104613570648e-01 5.357502583072e-07 1.423937284150e-05 -9.596208271481e-12 5.169134821587e-10 3.464401738111e+07 1.477430370738e+07  5.716499125861e-02
3.500000000000e-02 6.173079380559e+07 1.359031984932e+05 -6.159489060710e+07 7.513191461605e-01 2.486808538395e-01 4.628882697359e-07 3.320872097926e-05 3.563505425372e-10 1.098856714543e-09 2.951074377027e+07 1.009264453972e+07  7.888069419607e-02
4.000000000000e-02 4.038606819070e+07 2.104545171844e+05 -4.017561367352e+07 8.521483293996e-01 1.478516706004e-01 1.087014318475e-07 5.754191831713e-05 7.402263946448e-10 6.060711416783e-09 1.926671755057e+07 2.486756461429e+06  1.453745145456e-01
4.500000000000e-02 1.963431601546e+07 8.716634154067e+05 -1.876265260005e+07 9.526546097252e-01 4.734539027477e-02 1.468932482012e-07 7.399151234419e-05 3.636780410219e-09 5.666850255218e-10 2.651459371893e+06 9.953339500469e+06  6.514799665403e-01
5.000000000000e-02 2.274925069045e-313 1.000000000000e+05 1.000000000000e+05 1.000000000000e+00 0.000000000000e+00 0.000000000000e+00 8.162153119588e-05 0.000000000000e+00 5.024878800789e-10 4.164408201030e+07 8.037388304154e+07  2.037681025528e+00
 ZONE T="TIME=1.800000000000e+01"
0.000000000000e+00 8.398995472718e+07 1.000000000000e+05 -8.388995472718e+07 6.601822697683e-01 3.398177302317e-01 1.516922138631e-08 4.201481370162e-08 0.000000000000e+00 1.725271666765e-12 4.393777885581e+07 1.882493400899e+07  5.266439924762e-02
5.000000000000e-03 8.395615394324e+07 1.000486591097e+05 -8.385610528413e+07 6.603231689132e-01 3.396768310868e-01 1.750911945718e-08 1.326196334541e-07 4.234751645969e-13 4.173765401244e-12 4.387467246335e+07 1.877339230871e+07  5.255868588529e-02
1.000000000000e-02 8.373332466141e+07 1.002879359493e+05 -8.363303672546e+07 6.611807103381e-01 3.388192896619e-01 4.383273354195e-08 6.281849805668e-07 1.341796818114e-12 1.946741295346e-11 4.381842608314e+07 1.877401840651e+07  5.247129082402e-02
1.500000000000e-02 8.284092367393e+07 1.012693302646e+05 -8.273965434367e+07 6.641580357568e-01 3.358419642432e-01 1.321646641600e-07 2.236627113149e-06 4.997517039645e-12 7.033246112087e-11 4.353630056598e+07 1.856534177069e+07  5.268540621302e-02
2.000000000000e-02 7.999414575906e+07 1.045808575389e+05 -7.988956490152e+07 6.751489643753e-01 3.248510356247e-01 2.655626801753e-07 6.119549371088e-06 9.119235407299e-12 1.953740182078e-10 4.271146730330e+07 1.835561797023e+07  5.145748626842e-02
2.500000000000e-02 7.324506897532e+07 1.135041770023e+05 -7.313156479832e+07 7.025265201834e-01 2.974734798166e-01 3.502037874923e-07 1.371242177751e-05 3.366984347044e-11 4.494172316786e-10 4.178191293553e+07 1.856681290399e+07  5.012955348065e-02
3.000000000000e-02 6.135242151719e+07 1.371388829655e+05 -6.121528263423e+07 7.523238400781e-01 2.476761599219e-01 3.000040505329e-07 2.536029556570e-05 -1.596414771946e-11 9.032975733891e-10 3.773826321856e+07 1.541475348852e+07  5.735003306068e-02
3.500000000000e-02 4.568201394960e+07 1.814863560505e+05 -4.550052759355e+07 8.253304378089e-01 1.746695621911e-01 7.286439272958e-08 3.924999290915e-05 5.531589729018e-10 2.096571051256e-09 3.171105807592e+07 9.248966524791e+06  7.862429907525e-02
4.000000000000e-02 2.944393966092e+07 4.256227494858e+05 -2.901831691144e+07 9.052047375732e-01 9.479526242677e-02 -1.595061386259e-07 5.097118785768e-05 4.825107973331e-10 7.232220608863e-09 2.328767703265e+07 2.507427945718e+06  1.463585426673e-01
4.500000000000e-02 1.471398905521e+07 9.878958826937e+05 -1.372609317252e+07 9.704126763574e-01 2.958732364255e-02 -1.533257142480e-08 5.675413636009e-05 1.608362742297e-09 -1.049963470322e-09 1.096408701999e+07 7.078918604353e+06  6.516610648036e-01
5.000000000000e-02 2.274925069045e-313 1.000000000000e+05 1.000000000000e+05 1.000000000000e+00 0.000000000000e+00 0.000000000000e+00 5.982143809400e-05 0.000000000000e+00 3.958270721127e-10 5.138935411301e+07 7.994563064178e+07  2.037302311519e+00
