 TITLE = "Time curves in points"
 VARIABLES = "TIME "  "DISPLACEMENT_X1"  "DISPLACEMENT_Y1"  "STRESS_XX"  "STRESS_XY"  "STRESS_YY"  "STRESS_ZZ"  "STRAIN_XX"  "STRAIN_XY"  "STRAIN_YY"  p_(1st_Invariant)  q_(2nd_Invariant)   Effective_Strain
 ZONE T="POINT=POINT5"
0.000000000000e+00 0.000000000000e+00 0.000000000000e+00 -1.000000000000e+05 0.000000000000e+00 -1.000000000000e+05 -1.000000000000e+05 0.000000000000e+00 0.000000000000e+00 0.000000000000e+00 1.000000000000e+05 0.000000000000e+00  0.000000000000e+00
1.000000000000e-03 -3.716541260106e-09 1.647000464296e-05 -1.158167544377e+05 -2.171984534941e+02 -1.197111403952e+05 -1.142156467658e+05 -1.515452816920e-04 -4.259880797816e-05 -5.202481226701e-04 1.165811805329e+05 4.909851780000e+03  4.692833989910e-04
2.000000000000e-03 -2.302437218815e-06 6.072545781009e-04 -2.049787815840e+05 1.373390136910e+03 -2.543867365358e+05 -2.037506937509e+05 2.373303664829e-05 1.889621642158e-03 -2.808738839525e-02 2.210387372902e+05 5.008982054256e+04  2.828923044186e-02
3.000000000000e-03 -2.355421547003e-06 7.920938582903e-04 -5.243387851413e+05 1.059365654360e+03 -7.488229364755e+05 -5.292691546002e+05 3.935700202427e-04 1.941201692920e-03 -3.809136455150e-02 6.008102920724e+05 2.220676016582e+05  3.843700511111e-02
4.000000000000e-03 -2.169240472058e-06 8.660270837077e-04 -1.155854661163e+06 1.404546617735e+03 -1.744104714269e+06 -1.179988207976e+06 6.107737319778e-04 1.958287653797e-03 -4.197156763158e-02 1.359982527803e+06 5.765673517638e+05  4.241609761173e-02
5.000000000000e-03 -2.181314701807e-06 8.829833777616e-04 -1.304877205880e+06 4.102796676319e+03 -1.977610760127e+06 -1.332999633988e+06 6.398468884915e-04 1.982362224432e-03 -4.256759160427e-02 1.538495866665e+06 6.591607571590e+05  4.302830789182e-02
6.000000000000e-03 -2.227407140595e-06 8.932880608381e-04 -1.446756660066e+06 1.401859070676e+03 -2.197798472828e+06 -1.477826545170e+06 6.575182780882e-04 1.946378066226e-03 -4.305910515990e-02 1.707460559354e+06 7.360028906689e+05  4.352236412315e-02
7.000000000000e-03 -2.203517695082e-06 8.955880249906e-04 -1.478494947152e+06 8.757002605778e+02 -2.243097662305e+06 -1.508641590186e+06 6.530405158807e-04 1.939380352887e-03 -4.314253246938e-02 1.743411399881e+06 7.499854848878e+05  4.360231622180e-02
8.000000000000e-03 -2.195092714156e-06 8.962325448896e-04 -1.488172199080e+06 2.039349871621e+03 -2.256068327270e+06 -1.517700713646e+06 6.497669084736e-04 1.951901668225e-03 -4.316361773781e-02 1.753980413332e+06 7.535741779665e+05  4.362334402673e-02
9.000000000000e-03 -2.196993257409e-06 8.969944806940e-04 -1.501168970661e+06 2.013238431005e+03 -2.276077852078e+06 -1.530903179966e+06 6.508502346840e-04 1.951631739817e-03 -4.319964980589e-02 1.769383334235e+06 7.604858672035e+05  4.365978070190e-02
1.000000000000e-02 -2.198026776785e-06 8.977738554090e-04 -1.514434248658e+06 2.130798119619e+03 -2.296273674047e+06 -1.544287559248e+06 6.514719327956e-04 1.952883209947e-03 -4.323541560519e-02 1.784998493984e+06 7.673573046168e+05  4.369592082217e-02
2.000000000000e-02 -2.286175643281e-06 1.000408777714e-03 -4.399508636278e+06 1.536489299194e+04 -6.683209559987e+06 -4.453091302391e+06 7.302413515987e-04 2.046530053535e-03 -4.794924064890e-02 5.178603166219e+06 2.257543458445e+06  4.844834677589e-02
3.000000000000e-02 -2.401394474440e-06 9.100694941228e-04 -2.477231431752e+06 2.378698807367e+04 -3.757511783904e+06 -2.513899698623e+06 6.563012509466e-04 2.105693587839e-03 -4.378805839851e-02 2.916214304760e+06 1.263017871087e+06  4.427036010249e-02
4.000000000000e-02 -2.323170772891e-06 9.237406966382e-04 -2.866519974958e+06 -1.038381128491e+04 -4.129024019262e+06 -2.818217688771e+06 3.565461240700e-04 1.825123715706e-03 -4.401194509560e-02 3.271253894330e+06 1.287460630468e+06  4.430422050331e-02
5.000000000000e-02 -2.306888979686e-06 9.079910665021e-04 -2.503136524620e+06 -1.462442954761e+04 -3.574961767416e+06 -2.451235932225e+06 3.432851813937e-04 1.792769509859e-03 -4.331994067761e-02 2.843111408087e+06 1.098987265372e+06  4.360330568051e-02
6.000000000000e-02 -2.310080140749e-06 9.524127980328e-04 -3.916214283764e+06 -2.480357286696e+04 -5.683759762449e+06 -3.859982030332e+06 3.299894546788e-04 1.730181647782e-03 -4.539780716343e-02 4.486652025515e+06 1.796835496794e+06  4.566214155644e-02
7.000000000000e-02 -2.097156090918e-06 9.429102128854e-04 -3.543988373437e+06 -4.344133218931e+04 -5.154753736916e+06 -3.499484499659e+06 3.577901676517e-04 1.622699032089e-03 -4.493760924814e-02 4.066075536670e+06 1.635204084332e+06  4.520502660032e-02
8.000000000000e-02 -2.148186905178e-06 9.488986103453e-04 -3.716296413484e+06 -4.031479210768e+04 -5.416868450097e+06 -3.673248359177e+06 3.614293912066e-04 1.639077240063e-03 -4.518158387940e-02 4.268804407586e+06 1.723914310940e+06  4.545212677101e-02
9.000000000000e-02 -2.173179361100e-06 9.515056419365e-04 -3.847168279098e+06 -4.182543427186e+04 -5.607616643647e+06 -3.801888441499e+06 3.562794682600e-04 1.631698364799e-03 -4.529952143588e-02 4.418891121415e+06 1.784990090964e+06  4.556643705021e-02
1.000000000000e-01 -2.173014490007e-06 9.549660884759e-04 -3.972363808325e+06 -4.175656122274e+04 -5.799806226598e+06 -3.928834759330e+06 3.606134571966e-04 1.630344058303e-03 -4.544468371407e-02 4.567001598084e+06 1.851004654772e+06  4.571336073500e-02
1.100000000000e-01 -2.174417983278e-06 9.582276047043e-04 -4.100327957570e+06 -4.210396025267e+04 -5.996562033325e+06 -4.058715446690e+06 3.645013277487e-04 1.626690667658e-03 -4.558139768917e-02 4.718535145862e+06 1.918765374566e+06  4.585138519259e-02
1.200000000000e-01 -2.184179419570e-06 9.582452055330e-04 -4.091292008964e+06 -3.962254066581e+04 -5.991671315967e+06 -4.053136778168e+06 3.713359105276e-04 1.636901972979e-03 -4.558219348238e-02 4.712033367700e+06 1.920967615648e+06  4.585672145445e-02
1.300000000000e-01 -2.167211971124e-06 9.649917104676e-04 -4.368809109749e+06 -4.327945822649e+04 -6.407265313158e+06 -4.330374661420e+06 3.704007468148e-04 1.621103847649e-03 -4.588815939055e-02 5.035483028109e+06 2.059307450132e+06  4.615995353690e-02
1.400000000000e-01 -2.170452792637e-06 9.689919010467e-04 -4.525649351089e+06 -4.367789138803e+04 -6.655724267512e+06 -4.492487285873e+06 3.813764238201e-04 1.620938858416e-03 -4.607057536167e-02 5.224620301491e+06 2.148180585990e+06  4.634755572578e-02
1.500000000000e-01 -2.175990575753e-06 9.724399562293e-04 -4.675869795647e+06 -4.743526118393e+04 -6.883975829343e+06 -4.643868414594e+06 3.834765559756e-04 1.606130999390e-03 -4.622502215731e-02 5.401238013195e+06 2.225796284262e+06  4.650123557897e-02
1.600000000000e-01 -2.174349627013e-06 9.752975173395e-04 -4.802302059155e+06 -4.692190776665e+04 -7.072032790308e+06 -4.769657027106e+06 3.822106050117e-04 1.608471164193e-03 -4.636204471913e-02 5.547997292190e+06 2.287672117854e+06  4.663761227920e-02
1.700000000000e-01 -2.186765671093e-06 9.781158661290e-04 -4.972612859305e+06 -4.987505085634e+04 -7.329131613766e+06 -4.940612985984e+06 3.833015562722e-04 1.599431795949e-03 -4.650346566451e-02 5.747452486351e+06 2.374252618349e+06  4.677839924435e-02
1.800000000000e-01 -2.178506234762e-06 9.804991598525e-04 -5.096825062725e+06 -5.175940791526e+04 -7.516151651933e+06 -5.065099223661e+06 3.844081498019e-04 1.591974135745e-03 -4.659971714710e-02 5.892691979440e+06 2.436994039600e+06  4.687427720842e-02
1.900000000000e-01 -2.163897611884e-06 9.828203974205e-04 -5.188846670940e+06 -5.134087005673e+04 -7.657774570495e+06 -5.158550613583e+06 3.862562033768e-04 1.594005208201e-03 -4.669310371532e-02 6.001723951673e+06 2.485805555622e+06  4.696864046574e-02
2.000000000000e-01 -2.157074777061e-06 9.851510693134e-04 -5.335392450229e+06 -5.249251304791e+04 -7.888774247180e+06 -5.309562204259e+06 3.934266238820e-04 1.592206342143e-03 -4.681795162527e-02 6.177909633889e+06 2.568004414766e+06  4.709671082621e-02
2.100000000000e-01 -2.176580587042e-06 9.874416903000e-04 -5.446335173823e+06 -5.167591897166e+04 -8.039310964950e+06 -5.414147491406e+06 3.839047026734e-04 1.594386252259e-03 -4.689212392635e-02 6.299931210060e+06 2.610753259762e+06  4.716616349251e-02
2.200000000000e-01 -2.178713565202e-06 9.894876587724e-04 -5.569889622721e+06 -5.260005409828e+04 -8.224266739259e+06 -5.537545488008e+06 3.837019538154e-04 1.591756656949e-03 -4.698545262068e-02 6.443900616662e+06 2.672249585641e+06  4.725896172046e-02
2.300000000000e-01 -2.181448447673e-06 9.916286404516e-04 -5.692623620549e+06 -5.212012125209e+04 -8.406944985442e+06 -5.659704394470e+06 3.829345493572e-04 1.593466499215e-03 -4.707570293363e-02 6.586424333487e+06 2.732421458550e+06  4.734884122241e-02
2.400000000000e-01 -2.195507427596e-06 9.936439711377e-04 -5.813009574818e+06 -4.932218254167e+04 -8.584528911872e+06 -5.778886830212e+06 3.811342204603e-04 1.602161866373e-03 -4.716191645385e-02 6.725475105634e+06 2.790045461447e+06  4.743487551470e-02
2.500000000000e-01 -2.199511711766e-06 9.956597108930e-04 -5.931617467401e+06 -4.792982817606e+04 -8.763845695861e+06 -5.898051348532e+06 3.819331104060e-04 1.606341314577e-03 -4.724948921219e-02 6.864504837265e+06 2.850368772122e+06  4.752312327015e-02
2.600000000000e-01 -2.202328026096e-06 9.975679747384e-04 -6.051391394389e+06 -4.738969250372e+04 -8.944456558327e+06 -6.018200082445e+06 3.824778522049e-04 1.607711561101e-03 -4.733386831647e-02 7.004682678387e+06 2.910960268224e+06  4.760776979433e-02
2.700000000000e-01 -2.197614357595e-06 9.993077831292e-04 -6.171034685559e+06 -4.651057434758e+04 -9.127692272834e+06 -6.139346598118e+06 3.844251297591e-04 1.609972717023e-03 -4.741565775250e-02 7.146024518837e+06 2.973719682151e+06  4.769062999810e-02
2.800000000000e-01 -2.197854366928e-06 1.001012438810e-03 -6.290459286916e+06 -4.711059380037e+04 -9.306347629418e+06 -6.258573965525e+06 3.841497162516e-04 1.608448787600e-03 -4.749252466918e-02 7.285126960620e+06 3.033054559579e+06  4.776707059094e-02
2.900000000000e-01 -2.197694054518e-06 1.002646641661e-03 -6.407151899946e+06 -4.748468265329e+04 -9.481391527516e+06 -6.375264438703e+06 3.841256006400e-04 1.607516748883e-03 -4.756657329022e-02 7.421269288722e+06 3.091401006040e+06  4.784088540025e-02
3.000000000000e-01 -2.197651026207e-06 1.004211476338e-03 -6.521191514816e+06 -4.781692954521e+04 -9.651900948267e+06 -6.489080415628e+06 3.838325150652e-04 1.606687380278e-03 -4.763722871832e-02 7.554057626237e+06 3.147977537530e+06  4.791118802206e-02
3.100000000000e-01 -2.197471041609e-06 1.005789154181e-03 -6.638168135030e+06 -4.819641130751e+04 -9.826919126033e+06 -6.605875197888e+06 3.835945214390e-04 1.605759528494e-03 -4.770850980877e-02 7.690320819650e+06 3.206106444570e+06  4.798213383030e-02
3.200000000000e-01 -2.197185579649e-06 1.007322363337e-03 -6.753860391167e+06 -4.860272966430e+04 -1.000002365187e+07 -6.721391277707e+06 3.833678679850e-04 1.604782550724e-03 -4.777778071634e-02 7.825091773582e+06 3.263604889948e+06  4.805107437026e-02
3.300000000000e-01 -2.197467008342e-06 1.008809277980e-03 -6.868038806816e+06 -4.883539969547e+04 -1.017077047966e+07 -6.835359247262e+06 3.831044571606e-04 1.604230847421e-03 -4.784491805516e-02 7.958056177914e+06 3.320269712182e+06  4.811790959637e-02
3.400000000000e-01 -2.197845089510e-06 1.010221724818e-03 -6.978298027551e+06 -4.902982044062e+04 -1.033563600115e+07 -6.945407520270e+06 3.828451053664e-04 1.603777199054e-03 -4.790867759071e-02 8.086447182991e+06 3.374972055202e+06  4.818138505168e-02
3.500000000000e-01 -2.198249947792e-06 1.011565916866e-03 -7.084882311383e+06 -4.920210268186e+04 -1.049500082029e+07 -7.051786038706e+06 3.825961876208e-04 1.603380642062e-03 -4.796935097572e-02 8.210556390128e+06 3.427846023501e+06  4.824179092997e-02
3.600000000000e-01 -2.198400168237e-06 1.012849115674e-03 -7.188132681783e+06 -4.944197521765e+04 -1.064942446545e+07 -7.154855018214e+06 3.823790062994e-04 1.602837541647e-03 -4.802728587629e-02 8.330804055148e+06 3.479104115254e+06  4.829946472530e-02
3.700000000000e-01 -2.199012106879e-06 1.014052861897e-03 -7.286404335343e+06 -4.952108085576e+04 -1.079631457593e+07 -7.252919585604e+06 3.821366661695e-04 1.602658438733e-03 -4.808159534537e-02 8.445212832291e+06 3.527814706554e+06  4.835354301549e-02
3.800000000000e-01 -2.199467482583e-06 1.015197791440e-03 -7.381112581389e+06 -4.963759767610e+04 -1.093790076280e+07 -7.347437699347e+06 3.819166530479e-04 1.602399669737e-03 -4.813325673752e-02 8.555483681179e+06 3.574778631032e+06  4.840498126132e-02
3.900000000000e-01 -2.199972949912e-06 1.016360386665e-03 -7.478540605615e+06 -4.974323672964e+04 -1.108355373874e+07 -7.444670907620e+06 3.816940145102e-04 1.602167524237e-03 -4.818571190159e-02 8.668921750657e+06 3.623091321139e+06  4.845721351800e-02
4.000000000000e-01 -2.200223352678e-06 1.017522309106e-03 -7.577173178394e+06 -4.993386450249e+04 -1.123106055306e+07 -7.543127926703e+06 3.814948486201e-04 1.601756889727e-03 -4.823815452070e-02 8.783787219386e+06 3.672047074005e+06  4.850942766865e-02
4.100000000000e-01 -2.200894730895e-06 1.018671923150e-03 -7.676083776133e+06 -4.998290736739e+04 -1.137890042607e+07 -7.641829821938e+06 3.812630631020e-04 1.601649050880e-03 -4.829000788261e-02 8.898938008048e+06 3.721069128822e+06  4.856106730906e-02
4.200000000000e-01 -2.201747926671e-06 1.019799524748e-03 -7.774375288811e+06 -4.996536981312e+04 -1.152577946818e+07 -7.739900179014e+06 3.810212584724e-04 1.601680462987e-03 -4.834085335272e-02 9.013351645335e+06 3.769753511265e+06  4.861170963632e-02
4.300000000000e-01 -2.202405907846e-06 1.020919173390e-03 -7.873201811261e+06 -5.001194464890e+04 -1.167349755337e+07 -7.838520569609e+06 3.807979917297e-04 1.601579601848e-03 -4.839135286353e-02 9.128406644745e+06 3.818737104696e+06  4.866200304883e-02
4.400000000000e-01 -2.203175962607e-06 1.022004940113e-03 -7.970250695950e+06 -5.001208297747e+04 -1.181853489480e+07 -7.935358003812e+06 3.805722161043e-04 1.601573945850e-03 -4.844031291638e-02 9.241381198188e+06 3.866819028123e+06  4.871076785677e-02
4.500000000000e-01 -2.204091709774e-06 1.023080064211e-03 -8.067542364981e+06 -4.995930446844e+04 -1.196390485780e+07 -8.032425979909e+06 3.803367741681e-04 1.601674107409e-03 -4.848877955916e-02 9.354624400898e+06 3.914995248778e+06  4.875904577654e-02
4.600000000000e-01 -2.204979423818e-06 1.024145014266e-03 -8.165082509556e+06 -4.991306116424e+04 -1.210965392052e+07 -8.129745348195e+06 3.801070238406e-04 1.601759868770e-03 -4.853678875378e-02 9.468160592759e+06 3.963301178144e+06  4.880686859685e-02
4.700000000000e-01 -2.205867525805e-06 1.025194891221e-03 -8.262398139933e+06 -4.986209343788e+04 -1.225506846342e+07 -8.226841446917e+06 3.798812286976e-04 1.601853628482e-03 -4.858411713823e-02 9.581436016757e+06 4.011496656929e+06  4.885401464674e-02
4.800000000000e-01 -2.206741214065e-06 1.026233492395e-03 -8.359809296119e+06 -4.981284602048e+04 -1.240063153089e+07 -8.324035491453e+06 3.796603971620e-04 1.601942746522e-03 -4.863093782112e-02 9.694825439488e+06 4.059744282876e+06  4.890065601028e-02
4.900000000000e-01 -2.207239068836e-06 1.027250436541e-03 -8.456260824439e+06 -4.989602600598e+04 -1.254484805613e+07 -8.420307374616e+06 3.794781679149e-04 1.601778363535e-03 -4.867681013279e-02 9.807138751730e+06 4.107591247661e+06  4.894634528635e-02
5.000000000000e-01 -2.207932398849e-06 1.028261166995e-03 -8.553251216412e+06 -4.990512079758e+04 -1.268982500715e+07 -8.517099261515e+06 3.792800538423e-04 1.601755074551e-03 -4.872238616763e-02 9.920058495026e+06 4.155666791555e+06  4.899174475799e-02
5.100000000000e-01 -2.208523309744e-06 1.029250350993e-03 -8.649242934339e+06 -4.994763947534e+04 -1.283333265123e+07 -8.612904224768e+06 3.790952806633e-04 1.601669634622e-03 -4.876699748712e-02 1.003182660345e+07 4.203267298415e+06  4.903618187212e-02
5.200000000000e-01 -2.209104420585e-06 1.030230686916e-03 -8.745438715555e+06 -4.999178799594e+04 -1.297715150204e+07 -8.708915545330e+06 3.789146301307e-04 1.601581935465e-03 -4.881121088332e-02 1.014383525431e+07 4.250974023946e+06  4.908022371790e-02
5.300000000000e-01 -2.209679068218e-06 1.031195457983e-03 -8.841153345598e+06 -5.003475712133e+04 -1.312025341096e+07 -8.804447858607e+06 3.787379537409e-04 1.601497182539e-03 -4.885472213242e-02 1.025528487172e+07 4.298444084168e+06  4.912356699428e-02
5.400000000000e-01 -2.210220298063e-06 1.032145164648e-03 -8.936396600343e+06 -5.008663643181e+04 -1.326266003759e+07 -8.899513719264e+06 3.785676739329e-04 1.601397127800e-03 -4.889755698529e-02 1.036619011906e+07 4.345688294006e+06  4.916623684304e-02
5.500000000000e-01 -2.210730153195e-06 1.033074708049e-03 -9.030607857133e+06 -5.014585050677e+04 -1.340353245659e+07 -8.993553288610e+06 3.784043985232e-04 1.601284944397e-03 -4.893948344022e-02 1.047589786744e+07 4.392427944402e+06  4.920800225064e-02
5.600000000000e-01 -2.211194209277e-06 1.033981598134e-03 -9.123479985822e+06 -5.021774257058e+04 -1.354241263710e+07 -9.086260482410e+06 3.782489309678e-04 1.601151472100e-03 -4.898039125127e-02 1.058405103511e+07 4.438511801475e+06  4.924875265548e-02
5.700000000000e-01 -2.211685540496e-06 1.034882169895e-03 -9.216653887610e+06 -5.027723607322e+04 -1.368174138418e+07 -9.179267964048e+06 3.780936806313e-04 1.601040832416e-03 -4.902101253938e-02 1.069255441195e+07 4.484742900166e+06  4.928921946550e-02
5.800000000000e-01 -2.212129038102e-06 1.035758261610e-03 -9.308206587361e+06 -5.034982009420e+04 -1.381865835624e+07 -9.270662387913e+06 3.779472046314e-04 1.600908617339e-03 -4.906053344863e-02 1.079917577717e+07 4.530180056048e+06  4.932859011802e-02
5.900000000000e-01 -2.212593814708e-06 1.036611403766e-03 -9.398240317736e+06 -5.040790340997e+04 -1.395329747745e+07 -9.360538197784e+06 3.778025911744e-04 1.600802489888e-03 -4.909901631167e-02 1.090402533099e+07 4.574857960609e+06  4.936692798821e-02
6.000000000000e-01 -2.213051405483e-06 1.037449371827e-03 -9.487522156419e+06 -5.046500496579e+04 -1.408681607845e+07 -9.449665138358e+06 3.776619825589e-04 1.600698953346e-03 -4.913681580501e-02 1.100800112441e+07 4.619165881233e+06  4.940458596851e-02
6.100000000000e-01 -2.213473237931e-06 1.038279807046e-03 -9.576836352933e+06 -5.053514948453e+04 -1.422039413327e+07 -9.538828880988e+06 3.775264393208e-04 1.600574327357e-03 -4.917427894942e-02 1.111201978906e+07 4.663499193021e+06  4.944190875541e-02
6.200000000000e-01 -2.213925250358e-06 1.039079359538e-03 -9.663631005641e+06 -5.058386900247e+04 -1.435019618569e+07 -9.625474464774e+06 3.773935056301e-04 1.600486577596e-03 -4.921034630558e-02 1.121310055203e+07 4.706575018806e+06  4.947784298384e-02
6.300000000000e-01 -2.214370933937e-06 1.039864791591e-03 -9.749659747741e+06 -5.063150896350e+04 -1.447885510314e+07 -9.711356472431e+06 3.772637552193e-04 1.600401326224e-03 -4.924577691870e-02 1.131329044110e+07 4.749272593906e+06  4.951314342891e-02
6.400000000000e-01 -2.214829480734e-06 1.040625140126e-03 -9.833675427657e+06 -5.066611388590e+04 -1.460449958764e+07 -9.795227507009e+06 3.771370192870e-04 1.600338169703e-03 -4.928007461204e-02 1.141113417410e+07 4.790967631089e+06  4.954731650979e-02
6.500000000000e-01 -2.215268299197e-06 1.041356449968e-03 -9.915166611354e+06 -5.070072485083e+04 -1.472637163249e+07 -9.876579775474e+06 3.770162402834e-04 1.600275616883e-03 -4.931306285127e-02 1.150603933977e+07 4.831412171236e+06  4.958018536393e-02
6.600000000000e-01 -2.215734836050e-06 1.042081590505e-03 -9.996641219157e+06 -5.072098561635e+04 -1.484821394100e+07 -9.957913511239e+06 3.768948544110e-04 1.600236558355e-03 -4.934577111445e-02 1.160092289046e+07 4.871844194668e+06  4.961277673099e-02
6.700000000000e-01 -2.216204168536e-06 1.042787719450e-03 -1.007663078255e+07 -5.073500273938e+04 -1.496783434625e+07 -1.003776444464e+07 3.767763642387e-04 1.600207781784e-03 -4.937762322217e-02 1.169407652448e+07 4.911538270832e+06  4.964451582689e-02
6.800000000000e-01 -2.216619566617e-06 1.043478594439e-03 -1.015550484811e+07 -5.076751280840e+04 -1.508580216963e+07 -1.011650810722e+07 3.766654409305e-04 1.600149956370e-03 -4.940879087568e-02 1.178593837499e+07 4.950691868070e+06  4.967557263183e-02
6.900000000000e-01 -2.217041735137e-06 1.044150233118e-03 -1.023277897205e+07 -5.079135611663e+04 -1.520137346357e+07 -1.019365312800e+07 3.765565346239e-04 1.600106215431e-03 -4.943908971998e-02 1.187593518787e+07 4.989048184939e+06  4.970576444605e-02
7.000000000000e-01 -2.217491336375e-06 1.044822543025e-03 -1.031072654184e+07 -5.080272126965e+04 -1.531794854907e+07 -1.027146897662e+07 3.764463223532e-04 1.600082111560e-03 -4.946941947975e-02 1.196671468918e+07 5.027735820438e+06  4.973598842709e-02
7.100000000000e-01 -2.217907368640e-06 1.045470523918e-03 -1.038641260121e+07 -5.082160851721e+04 -1.543114942148e+07 -1.034703045551e+07 3.763426707750e-04 1.600046640811e-03 -4.949865330129e-02 1.205486415940e+07 5.065307651797e+06  4.976512047196e-02
7.200000000000e-01 -2.218297605272e-06 1.046122599278e-03 -1.046313833061e+07 -5.085377774063e+04 -1.554591709990e+07 -1.042363443179e+07 3.762418571275e-04 1.599990867604e-03 -4.952807701700e-02 1.214422995410e+07 5.103405576080e+06  4.979444164707e-02
7.300000000000e-01 -2.218728719328e-06 1.046760257395e-03 -1.053872354102e+07 -5.086199823823e+04 -1.565896589563e+07 -1.049909454234e+07 3.761393089208e-04 1.599972014133e-03 -4.955684645549e-02 1.223226132633e+07 5.140926291399e+06  4.982311231456e-02
7.400000000000e-01 -2.219125660859e-06 1.047383238617e-03 -1.061309552905e+07 -5.088165853537e+04 -1.577021105476e+07 -1.057334779245e+07 3.760424189743e-04 1.599936002341e-03 -4.958495758599e-02 1.231888479209e+07 5.177853892022e+06  4.985112696555e-02
7.500000000000e-01 -2.219517992211e-06 1.047992966128e-03 -1.068639598716e+07 -5.089885071269e+04 -1.587985459159e+07 -1.064653165357e+07 3.759479065008e-04 1.599903959710e-03 -4.961247142258e-02 1.240426074411e+07 5.214250405030e+06  4.987854689436e-02
7.600000000000e-01 -2.219905751785e-06 1.048593034289e-03 -1.075903199826e+07 -5.091503775096e+04 -1.598850671191e+07 -1.071905303070e+07 3.758555582841e-04 1.599873619300e-03 -4.963955081063e-02 1.248886391362e+07 5.250319049510e+06  4.990553436201e-02
7.700000000000e-01 -2.220289099089e-06 1.049186985945e-03 -1.083141675788e+07 -5.093134445706e+04 -1.609678691411e+07 -1.079132499152e+07 3.757652066075e-04 1.599843258099e-03 -4.966635647967e-02 1.257317622117e+07 5.286266189616e+06  4.993224959394e-02
7.800000000000e-01 -2.220667104141e-06 1.049769330454e-03 -1.090286193944e+07 -5.094603998932e+04 -1.620366256187e+07 -1.086265914153e+07 3.756768408813e-04 1.599815478702e-03 -4.969263895186e-02 1.265639454761e+07 5.321747552907e+06  4.995844374480e-02
7.900000000000e-01 -2.221041284731e-06 1.050346226151e-03 -1.097410609664e+07 -5.096085445982e+04 -1.631024067326e+07 -1.093379370032e+07 3.755901135324e-04 1.599787658654e-03 -4.971867746495e-02 1.273938015674e+07 5.357131761220e+06  4.998439518659e-02
8.000000000000e-01 -2.221410465375e-06 1.050911595535e-03 -1.104438109965e+07 -5.097401440584e+04 -1.641537058155e+07 -1.100396114086e+07 3.755055084477e-04 1.599762439807e-03 -4.974419684329e-02 1.282123760735e+07 5.392035980190e+06  5.000982966868e-02
8.100000000000e-01 -2.221775523177e-06 1.051469087069e-03 -1.111412035774e+07 -5.098645549319e+04 -1.651970142598e+07 -1.107359447491e+07 3.754226656993e-04 1.599738403409e-03 -4.976936223252e-02 1.290247208621e+07 5.426676131247e+06  5.003491175896e-02
8.200000000000e-01 -2.222136983957e-06 1.052021153502e-03 -1.118361773062e+07 -5.099887325065e+04 -1.662367311427e+07 -1.114298720235e+07 3.753412753551e-04 1.599714514257e-03 -4.979428450826e-02 1.298342601575e+07 5.461198439566e+06  5.005975190306e-02
8.300000000000e-01 -2.222504106197e-06 1.052553851001e-03 -1.125109363455e+07 -5.100153228375e+04 -1.672461736880e+07 -1.121036017176e+07 3.752617706375e-04 1.599704803242e-03 -4.981833216024e-02 1.306202372504e+07 5.494713853207e+06  5.008372113306e-02
8.400000000000e-01 -2.222838968845e-06 1.053082544194e-03 -1.131846250016e+07 -5.101904409517e+04 -1.682541264214e+07 -1.127763053026e+07 3.751859055773e-04 1.599674050205e-03 -4.984220264311e-02 1.314050189085e+07 5.528185558302e+06  5.010751332800e-02
8.500000000000e-01 -2.223188307573e-06 1.053606952071e-03 -1.138569014260e+07 -5.102750793749e+04 -1.692599397783e+07 -1.134475861585e+07 3.751097500850e-04 1.599656189215e-03 -4.986588042694e-02 1.321881424543e+07 5.561584890198e+06  5.013111424848e-02
8.600000000000e-01 -2.223531685173e-06 1.054124883946e-03 -1.145248211535e+07 -5.103665001360e+04 -1.702592656041e+07 -1.141145271867e+07 3.750352600196e-04 1.599637469319e-03 -4.988926766858e-02 1.329662046481e+07 5.594770386309e+06  5.015442587175e-02
8.700000000000e-01 -2.223874086031e-06 1.054636373366e-03 -1.151883168553e+07 -5.104395463802e+04 -1.712519827673e+07 -1.147770529565e+07 3.749618486208e-04 1.599621402907e-03 -4.991236546360e-02 1.337391175264e+07 5.627737006031e+06  5.017744933016e-02
8.800000000000e-01 -2.224222061261e-06 1.055135941251e-03 -1.158400959327e+07 -5.104408196917e+04 -1.722271543325e+07 -1.154278716125e+07 3.748896069158e-04 1.599615421915e-03 -4.993492518538e-02 1.344983739592e+07 5.660120184395e+06  5.019993713597e-02
8.900000000000e-01 -2.224540539508e-06 1.055627067913e-03 -1.164844498851e+07 -5.105636606042e+04 -1.731913080555e+07 -1.160713108202e+07 3.748209905729e-04 1.599592748203e-03 -4.995710693936e-02 1.352490229203e+07 5.692142207958e+06  5.022204782479e-02
9.000000000000e-01 -2.224872567245e-06 1.056118731773e-03 -1.171331503349e+07 -5.106141357844e+04 -1.741619550149e+07 -1.167190836277e+07 3.747518244260e-04 1.599580035017e-03 -4.997931409750e-02 1.360047296592e+07 5.724379376167e+06  5.024418458482e-02
9.100000000000e-01 -2.225210544967e-06 1.056599090209e-03 -1.177704705472e+07 -5.105953214937e+04 -1.751155407763e+07 -1.173554775360e+07 3.746832191662e-04 1.599576879827e-03 -5.000101057166e-02 1.367471629532e+07 5.756048318848e+06  5.026581267509e-02
9.200000000000e-01 -2.225519430252e-06 1.057070244417e-03 -1.183989389122e+07 -5.106940645157e+04 -1.760559823966e+07 -1.179830706993e+07 3.746185271709e-04 1.599557856745e-03 -5.002229480744e-02 1.374793306694e+07 5.787285863552e+06  5.028702965239e-02
9.300000000000e-01 -2.225841230190e-06 1.057541983755e-03 -1.190315964747e+07 -5.107256743867e+04 -1.770026664806e+07 -1.186148341592e+07 3.745528652678e-04 1.599547902411e-03 -5.004360590522e-02 1.382163657048e+07 5.818729524536e+06  5.030827385533e-02
9.400000000000e-01 -2.226167581558e-06 1.058000265133e-03 -1.196494914609e+07 -5.106808823291e+04 -1.779272424693e+07 -1.192318469708e+07 3.744884633880e-04 1.599548329598e-03 -5.006430963757e-02 1.389361936337e+07 5.849437969589e+06  5.032891328113e-02
9.500000000000e-01 -2.226468824045e-06 1.058454151442e-03 -1.202646160030e+07 -5.107553709492e+04 -1.788477607811e+07 -1.198461261449e+07 3.744268811959e-04 1.599532836534e-03 -5.008481793576e-02 1.396528343096e+07 5.880016199758e+06  5.034935750542e-02
9.600000000000e-01 -2.226791951654e-06 1.058904268939e-03 -1.208778238296e+07 -5.106961309504e+04 -1.797653513513e+07 -1.204584651408e+07 3.743640610940e-04 1.599535141405e-03 -5.010515565559e-02 1.403672134406e+07 5.910494215612e+06  5.036963251086e-02
9.700000000000e-01 -2.227088329957e-06 1.059346692881e-03 -1.214835913921e+07 -5.107525929115e+04 -1.806718949563e+07 -1.210634068469e+07 3.743044661556e-04 1.599522192993e-03 -5.012514877038e-02 1.410729643984e+07 5.940609774173e+06  5.038956364045e-02
9.800000000000e-01 -2.227404023067e-06 1.059783304999e-03 -1.220844420743e+07 -5.106783905088e+04 -1.815710226043e+07 -1.216634130215e+07 3.742439725034e-04 1.599526476704e-03 -5.014487891290e-02 1.417729592333e+07 5.970476098710e+06  5.040923341288e-02
9.900000000000e-01 -2.227695489370e-06 1.060215257636e-03 -1.226818011767e+07 -5.107214940083e+04 -1.824650099059e+07 -1.222599640332e+07 3.741861939947e-04 1.599515407137e-03 -5.016440152890e-02 1.424689250386e+07 6.000176063978e+06  5.042869590973e-02
1.000000000000e+00 -2.228005258934e-06 1.060641364010e-03 -1.232740052284e+07 -5.106376975486e+04 -1.833512258049e+07 -1.228513420788e+07 3.741275635019e-04 1.599520906409e-03 -5.018365969517e-02 1.431588577040e+07 6.029615042581e+06  5.044789553147e-02
1.050000000000e+00 -2.229457566837e-06 1.062734302535e-03 -1.258118976505e+07 -5.101534518678e+04 -1.871474587392e+07 -1.253849821298e+07 3.738483717983e-04 1.599499599770e-03 -5.027828620619e-02 1.461147795065e+07 6.155647150029e+06  5.054223460415e-02
1.100000000000e+00 -2.226903754367e-06 1.064935584954e-03 -1.284608417545e+07 -5.232857246182e+04 -1.910205146732e+07 -1.279937261519e+07 3.710547585600e-04 1.597175567784e-03 -5.037325997299e-02 1.491583608599e+07 6.280107448000e+06  5.063543373114e-02
1.150000000000e+00 -2.226206136434e-06 1.066920912343e-03 -1.314640201931e+07 -5.725539142855e+04 -1.954649568625e+07 -1.309726670500e+07 3.695420709712e-04 1.591228414173e-03 -5.046350532041e-02 1.526338813685e+07 6.425567553005e+06  5.072421849993e-02
1.200000000000e+00 -2.229075452181e-06 1.068651877641e-03 -1.340383422902e+07 -5.903154746017e+04 -1.993256693756e+07 -1.335465313521e+07 3.694914146840e-04 1.589060480994e-03 -5.054146640203e-02 1.556368476726e+07 6.554259221762e+06  5.080183389929e-02
1.250000000000e+00 -2.229585908670e-06 1.070267819956e-03 -1.365123817762e+07 -5.909692754365e+04 -2.030289649299e+07 -1.360172799324e+07 3.692795315596e-04 1.588963384639e-03 -5.061469668718e-02 1.585195422128e+07 6.677335679220e+06  5.087483929708e-02
1.300000000000e+00 -2.230241316158e-06 1.071776579293e-03 -1.388606418324e+07 -5.939867625820e+04 -2.065462928307e+07 -1.383633002426e+07 3.691322304130e-04 1.588593606487e-03 -5.068306739339e-02 1.612567449686e+07 6.794347687471e+06  5.094299973163e-02
1.350000000000e+00 -2.231606482176e-06 1.073249243171e-03 -1.411940652082e+07 -5.918716989686e+04 -2.100373174803e+07 -1.406928417516e+07 3.688935831622e-04 1.588816797206e-03 -5.074972479890e-02 1.639747414800e+07 6.910283205155e+06  5.100945906310e-02