 TITLE = "Time curves in points"
 VARIABLES = "TIME "  "PRESSURE1"  "PRESSURE2"  "PRESSURE_W"  "SATURATION1" SATURATION2  "VELOCITY_X1"  "VELOCITY_Y1"  "VELOCITY_X2"  "VELOCITY_Y2"  p_(1st_Invariant)  q_(2nd_Invariant)   Effective_Strain
 ZONE T="POINT=POINT4"
0.000000000000e+00 8.400000000000e+07 1.000000000000e+05 -8.390000000000e+07 6.601393844892e-01 3.398606155108e-01 0.000000000000e+00 0.000000000000e+00 0.000000000000e+00 0.000000000000e+00 1.000000000000e+05 0.000000000000e+00  0.000000000000e+00
1.000000000000e-03 -1.244434314116e-313 1.000000000000e+05 1.000000000000e+05 1.000000000000e+00 0.000000000000e+00 2.245940086805e-06 3.928132542103e-04 2.868722598033e-13 -6.036658899473e-14 -3.606270100804e+05 2.604597537864e+05  3.321526596235e-01
2.000000000000e-03 -1.244434314116e-313 1.000000000000e+05 1.000000000000e+05 1.000000000000e+00 0.000000000000e+00 2.228286564512e-06 3.926518362089e-04 5.991790222671e-13 -1.181577695835e-13 -7.016645958004e+05 4.136322657966e+05  1.039045764954e+00
3.000000000000e-03 -1.244434314116e-313 1.000000000000e+05 1.000000000000e+05 1.000000000000e+00 0.000000000000e+00 2.210776655795e-06 3.924904951556e-04 9.071568225394e-13 -1.741853671347e-13 -1.624340759631e+06 7.747793938107e+05  1.307233491006e+00
4.000000000000e-03 -1.244434314116e-313 1.000000000000e+05 1.000000000000e+05 1.000000000000e+00 0.000000000000e+00 2.193409167145e-06 3.923292316165e-04 1.211623043898e-12 -2.282881264068e-13 -5.720918221348e+06 3.519629320609e+06  1.421790094142e+00
5.000000000000e-03 -1.244434314116e-313 1.000000000000e+05 1.000000000000e+05 1.000000000000e+00 0.000000000000e+00 2.176182751237e-06 3.921680469427e-04 1.513355768553e-12 -2.806458761225e-13 -1.119476298574e+07 4.610222707613e+06  1.444944393927e+00
6.000000000000e-03 -1.244434314116e-313 1.000000000000e+05 1.000000000000e+05 1.000000000000e+00 0.000000000000e+00 2.159096487992e-06 3.920069418772e-04 1.811649908114e-12 -3.312339744880e-13 -2.354371186958e+07 1.557515063777e+07  1.453577531277e+00
7.000000000000e-03 -1.244434314116e-313 1.000000000000e+05 1.000000000000e+05 1.000000000000e+00 0.000000000000e+00 2.142039756851e-06 3.918458202148e-04 2.105350474472e-12 -3.799556488898e-13 -2.208258680953e+07 1.461510571935e+07  1.454392050677e+00
8.000000000000e-03 -1.244434314116e-313 1.000000000000e+05 1.000000000000e+05 1.000000000000e+00 0.000000000000e+00 2.124233213100e-06 3.916839886931e-04 2.394739483786e-12 -4.268768576261e-13 -2.125662769894e+07 1.572183188637e+07  1.455125532613e+00
9.000000000000e-03 -1.244434314116e-313 1.000000000000e+05 1.000000000000e+05 1.000000000000e+00 0.000000000000e+00 2.106869592809e-06 3.915219730650e-04 2.680402381045e-12 -4.717867911257e-13 -2.049749416271e+07 1.667740877599e+07  1.455908223551e+00
1.000000000000e-02 -1.244434314116e-313 1.000000000000e+05 1.000000000000e+05 1.000000000000e+00 0.000000000000e+00 2.089685548304e-06 3.913600058151e-04 2.963570511529e-12 -5.148155403230e-13 -1.983333572996e+07 1.757027592580e+07  1.456699426696e+00
2.000000000000e-02 -1.244434314116e-313 1.000000000000e+05 1.000000000000e+05 1.000000000000e+00 0.000000000000e+00 1.927858121195e-06 3.897526576734e-04 5.585193040490e-12 -7.881242885886e-13 -5.630607349295e+07 6.835444468440e+07  1.539703260458e+00
3.000000000000e-02 -1.244434314116e-313 1.000000000000e+05 1.000000000000e+05 1.000000000000e+00 0.000000000000e+00 1.778617600576e-06 3.881460030389e-04 7.873406241049e-12 -9.126635251017e-13 3.773481944893e+05 3.771187122370e+07  1.649682725621e+00
4.000000000000e-02 -1.244434314116e-313 1.000000000000e+05 1.000000000000e+05 1.000000000000e+00 0.000000000000e+00 1.638068561652e-06 3.865413875611e-04 1.004102047931e-11 -9.635009803159e-13 -1.842264994581e+07 3.491544605478e+07  1.445247040323e+00
5.000000000000e-02 -1.244434314116e-313 1.000000000000e+05 1.000000000000e+05 1.000000000000e+00 0.000000000000e+00 1.505919720179e-06 3.849286733534e-04 1.223688273211e-11 -1.028380693144e-12 1.094294670947e+06 3.306405431326e+07  1.429566390335e+00
6.000000000000e-02 -1.244434314116e-313 1.000000000000e+05 1.000000000000e+05 1.000000000000e+00 0.000000000000e+00 1.384179132422e-06 3.833083526375e-04 1.431904315934e-11 -1.049724453568e-12 -9.450255386086e+06 3.836767008868e+07  1.528226320733e+00
7.000000000000e-02 -1.244434314116e-313 1.000000000000e+05 1.000000000000e+05 1.000000000000e+00 0.000000000000e+00 1.269526933404e-06 3.816815010152e-04 1.628940303532e-11 -1.040894667074e-12 -1.282701942625e+07 3.330129683223e+07  1.588257980065e+00
8.000000000000e-02 -1.244434314116e-313 1.000000000000e+05 1.000000000000e+05 1.000000000000e+00 0.000000000000e+00 1.162093949137e-06 3.800599214954e-04 1.812923901347e-11 -9.967389660646e-13 -6.961589662081e+06 3.462122939983e+07  1.569893539533e+00
9.000000000000e-02 -1.244434314116e-313 1.000000000000e+05 1.000000000000e+05 1.000000000000e+00 0.000000000000e+00 1.062771561643e-06 3.784592501830e-04 1.987302537858e-11 -9.290489655231e-13 -6.271860425218e+06 3.604663104596e+07  1.615241952468e+00
1.000000000000e-01 -1.244434314116e-313 1.000000000000e+05 1.000000000000e+05 1.000000000000e+00 0.000000000000e+00 9.699550987605e-07 3.768598793586e-04 2.151488731261e-11 -8.500380794413e-13 -3.636074103593e+06 3.712707878513e+07  1.606455350158e+00
1.100000000000e-01 -1.244434314116e-313 1.000000000000e+05 1.000000000000e+05 1.000000000000e+00 0.000000000000e+00 8.819747344008e-07 3.752670995999e-04 2.304763073590e-11 -7.419197481880e-13 -3.570232222958e+06 3.600812688282e+07  1.610209665080e+00
1.200000000000e-01 -1.244434314116e-313 1.000000000000e+05 1.000000000000e+05 1.000000000000e+00 0.000000000000e+00 8.011423006671e-07 3.736809241195e-04 2.448318585609e-11 -6.385315337877e-13 -2.052802669605e+06 3.696381773959e+07  1.620438830973e+00
1.300000000000e-01 -1.244434314116e-313 1.000000000000e+05 1.000000000000e+05 1.000000000000e+00 0.000000000000e+00 7.269264627624e-07 3.721052335617e-04 2.582819974125e-11 -5.371333273029e-13 -3.750548281487e+06 3.790808521971e+07  1.620701327667e+00
1.400000000000e-01 -1.244434314116e-313 1.000000000000e+05 1.000000000000e+05 1.000000000000e+00 0.000000000000e+00 6.552771097254e-07 3.705337763653e-04 2.704631734111e-11 -3.984019480493e-13 -3.990910520095e+06 3.826496220279e+07  1.623096032917e+00
1.500000000000e-01 -1.244434314116e-313 1.000000000000e+05 1.000000000000e+05 1.000000000000e+00 0.000000000000e+00 5.896076047035e-07 3.689457768993e-04 2.817486917655e-11 -2.739013493222e-13 -4.051262561038e+06 3.851690751814e+07  1.624613914175e+00
1.600000000000e-01 -1.244434314116e-313 1.000000000000e+05 1.000000000000e+05 1.000000000000e+00 0.000000000000e+00 5.294385477056e-07 3.673682392520e-04 2.922879914640e-11 -1.568941569729e-13 -3.909064785486e+06 3.869444347830e+07  1.624900389070e+00
1.700000000000e-01 -1.244434314116e-313 1.000000000000e+05 1.000000000000e+05 1.000000000000e+00 0.000000000000e+00 4.728556606604e-07 3.658018580018e-04 3.018129851731e-11 -3.263132540679e-14 -3.698930811280e+06 3.890596523278e+07  1.624969554732e+00
1.800000000000e-01 -1.244434314116e-313 1.000000000000e+05 1.000000000000e+05 1.000000000000e+00 0.000000000000e+00 4.196115163022e-07 3.642363555964e-04 3.103184179256e-11 5.232502158522e-14 -3.552068808342e+06 3.904319993594e+07  1.626018286321e+00
1.900000000000e-01 -1.244434314116e-313 1.000000000000e+05 1.000000000000e+05 1.000000000000e+00 0.000000000000e+00 3.709471379114e-07 3.626899823475e-04 3.180710008990e-11 1.293931589613e-13 -3.281369026129e+06 3.922076768165e+07  1.626804713405e+00
2.000000000000e-01 -1.244434314116e-313 1.000000000000e+05 1.000000000000e+05 1.000000000000e+00 0.000000000000e+00 3.265103750942e-07 3.611647235037e-04 3.251045437981e-11 1.959894192290e-13 -3.107284552685e+06 3.935083126237e+07  1.627672148043e+00
2.100000000000e-01 -1.244434314116e-313 1.000000000000e+05 1.000000000000e+05 1.000000000000e+00 0.000000000000e+00 2.840345399673e-07 3.596392309782e-04 3.310560227510e-11 6.304908367301e-13 -2.926790845524e+06 3.947226216216e+07  1.628244801172e+00
2.200000000000e-01 -1.244434314116e-313 1.000000000000e+05 1.000000000000e+05 1.000000000000e+00 0.000000000000e+00 2.447800908727e-07 3.581261684750e-04 3.362172744173e-11 1.469118771500e-12 -2.660837908921e+06 3.959429646063e+07  1.628748915652e+00
2.300000000000e-01 -1.244434314116e-313 1.000000000000e+05 1.000000000000e+05 1.000000000000e+00 0.000000000000e+00 2.090653547498e-07 3.566285204897e-04 3.407047309804e-11 2.353414855645e-12 -2.516158907084e+06 3.969431252355e+07  1.629070003689e+00
2.400000000000e-01 -1.244434314116e-313 1.000000000000e+05 1.000000000000e+05 1.000000000000e+00 0.000000000000e+00 1.766148515714e-07 3.551408582881e-04 3.445559244141e-11 3.257818880654e-12 -2.277785827856e+06 3.981241845252e+07  1.629510837999e+00
2.500000000000e-01 -1.244434314116e-313 1.000000000000e+05 1.000000000000e+05 1.000000000000e+00 0.000000000000e+00 1.454391298201e-07 3.536573138390e-04 3.472034187265e-11 4.201077099525e-12 -2.172637996478e+06 3.989756947236e+07  1.629713373051e+00
2.600000000000e-01 -1.244434314116e-313 1.000000000000e+05 1.000000000000e+05 1.000000000000e+00 0.000000000000e+00 1.169379556833e-07 3.521870608047e-04 3.492431512334e-11 5.183083391669e-12 -2.026133350322e+06 3.999203164272e+07  1.629936696733e+00
2.700000000000e-01 -1.244434314116e-313 1.000000000000e+05 1.000000000000e+05 1.000000000000e+00 0.000000000000e+00 9.147653115711e-08 3.507272262729e-04 3.507691935546e-11 6.191562251000e-12 -1.873568689168e+06 4.006776748857e+07  1.630137312056e+00
2.800000000000e-01 -1.244434314116e-313 1.000000000000e+05 1.000000000000e+05 1.000000000000e+00 0.000000000000e+00 6.850967161563e-08 3.492525172449e-04 3.517722877743e-11 7.149157304254e-12 -1.742545774979e+06 4.015628835934e+07  1.630207688356e+00
2.900000000000e-01 -1.244434314116e-313 1.000000000000e+05 1.000000000000e+05 1.000000000000e+00 0.000000000000e+00 4.673103869545e-08 3.477874387438e-04 3.517442904653e-11 8.142604442662e-12 -1.612986335864e+06 4.025326779541e+07  1.630395516966e+00
3.000000000000e-01 -1.244434314116e-313 1.000000000000e+05 1.000000000000e+05 1.000000000000e+00 0.000000000000e+00 2.656657351640e-08 3.463349274692e-04 3.509091642875e-11 9.165185090632e-12 -1.502667518176e+06 4.031634238470e+07  1.630705105473e+00
3.100000000000e-01 -1.244434314116e-313 1.000000000000e+05 1.000000000000e+05 1.000000000000e+00 0.000000000000e+00 8.491681841079e-09 3.448946449713e-04 3.495925918149e-11 1.019276406647e-11 -1.406536133854e+06 4.038327658797e+07  1.630855392894e+00
3.200000000000e-01 -1.244434314116e-313 1.000000000000e+05 1.000000000000e+05 1.000000000000e+00 0.000000000000e+00 -7.732899449326e-09 3.434706734600e-04 3.478842508856e-11 1.121786806336e-11 -1.320535325839e+06 4.044594048145e+07  1.631041324836e+00
3.300000000000e-01 -1.244434314116e-313 1.000000000000e+05 1.000000000000e+05 1.000000000000e+00 0.000000000000e+00 -2.239403135254e-08 3.420603935462e-04 3.454311374815e-11 1.226299132827e-11 -1.247523573469e+06 4.050786733779e+07  1.631299398775e+00
3.400000000000e-01 -1.244434314116e-313 1.000000000000e+05 1.000000000000e+05 1.000000000000e+00 0.000000000000e+00 -3.653163350704e-08 3.406582711426e-04 3.419334280498e-11 1.333534297487e-11 -1.188457070898e+06 4.056622763394e+07  1.631667247357e+00
3.500000000000e-01 -1.244434314116e-313 1.000000000000e+05 1.000000000000e+05 1.000000000000e+00 0.000000000000e+00 -4.906235622795e-08 3.392677414881e-04 3.379954405607e-11 1.440268435750e-11 -1.146814047878e+06 4.061232985881e+07  1.632154011382e+00
3.600000000000e-01 -1.244434314116e-313 1.000000000000e+05 1.000000000000e+05 1.000000000000e+00 0.000000000000e+00 -6.012532715186e-08 3.378879739580e-04 3.335552084886e-11 1.545988278021e-11 -1.125642253282e+06 4.065201272399e+07  1.632709365061e+00
3.700000000000e-01 -1.244434314116e-313 1.000000000000e+05 1.000000000000e+05 1.000000000000e+00 0.000000000000e+00 -6.984306306193e-08 3.365221936241e-04 3.286947198705e-11 1.652449894829e-11 -1.116990260206e+06 4.068747197282e+07  1.633479169920e+00
3.800000000000e-01 -1.244434314116e-313 1.000000000000e+05 1.000000000000e+05 1.000000000000e+00 0.000000000000e+00 -7.881692826126e-08 3.351663331891e-04 3.230975545054e-11 1.760559653730e-11 -1.125020748750e+06 4.071746382332e+07  1.634263497048e+00
3.900000000000e-01 -1.244434314116e-313 1.000000000000e+05 1.000000000000e+05 1.000000000000e+00 0.000000000000e+00 -8.721705371782e-08 3.338193319477e-04 3.164382459262e-11 1.869467641922e-11 -1.132104108408e+06 4.074826564964e+07  1.635156044560e+00
4.000000000000e-01 -1.244434314116e-313 1.000000000000e+05 1.000000000000e+05 1.000000000000e+00 0.000000000000e+00 -9.449821870356e-08 3.324810921540e-04 3.095166529911e-11 1.975570267645e-11 -1.137307124110e+06 4.077769163020e+07  1.636056075994e+00
4.100000000000e-01 -1.244434314116e-313 1.000000000000e+05 1.000000000000e+05 1.000000000000e+00 0.000000000000e+00 -1.007534389527e-07 3.311561048282e-04 3.022106994750e-11 2.081797335541e-11 -1.143697377733e+06 4.081154581687e+07  1.636911723995e+00
4.200000000000e-01 -1.244434314116e-313 1.000000000000e+05 1.000000000000e+05 1.000000000000e+00 0.000000000000e+00 -1.060396915214e-07 3.298440611585e-04 2.944889777309e-11 2.188079464928e-11 -1.144628823631e+06 4.084287628316e+07  1.637762747705e+00
4.300000000000e-01 -1.244434314116e-313 1.000000000000e+05 1.000000000000e+05 1.000000000000e+00 0.000000000000e+00 -1.104756037468e-07 3.285391939010e-04 2.862052315494e-11 2.295309524379e-11 -1.142318384008e+06 4.087332917980e+07  1.638619653368e+00
4.400000000000e-01 -1.244434314116e-313 1.000000000000e+05 1.000000000000e+05 1.000000000000e+00 0.000000000000e+00 -1.146630208252e-07 3.272404899315e-04 2.771199615795e-11 2.401423450939e-11 -1.140052086816e+06 4.090756310732e+07  1.639416215894e+00
4.500000000000e-01 -1.244434314116e-313 1.000000000000e+05 1.000000000000e+05 1.000000000000e+00 0.000000000000e+00 -1.180886434379e-07 3.259518668977e-04 2.676660248607e-11 2.505344152506e-11 -1.134399201486e+06 4.094103201491e+07  1.640207780367e+00
4.600000000000e-01 -1.244434314116e-313 1.000000000000e+05 1.000000000000e+05 1.000000000000e+00 0.000000000000e+00 -1.208520356298e-07 3.246763189270e-04 2.578546498770e-11 2.608823474813e-11 -1.126318077308e+06 4.097403801673e+07  1.641010324668e+00
4.700000000000e-01 -1.244434314116e-313 1.000000000000e+05 1.000000000000e+05 1.000000000000e+00 0.000000000000e+00 -1.229505970801e-07 3.234157949722e-04 2.476498375025e-11 2.711934530530e-11 -1.116492544790e+06 4.100876981915e+07  1.641785450229e+00
4.800000000000e-01 -1.244434314116e-313 1.000000000000e+05 1.000000000000e+05 1.000000000000e+00 0.000000000000e+00 -1.244613977953e-07 3.221516811612e-04 2.372788533521e-11 2.808537099404e-11 -1.105892602281e+06 4.104280070076e+07  1.642568062842e+00
4.900000000000e-01 -1.244434314116e-313 1.000000000000e+05 1.000000000000e+05 1.000000000000e+00 0.000000000000e+00 -1.260906301488e-07 3.208868067083e-04 2.290649610106e-11 2.895718601070e-11 -1.089199695841e+06 4.107698137162e+07  1.643281870219e+00
5.000000000000e-01 -1.244434314116e-313 1.000000000000e+05 1.000000000000e+05 1.000000000000e+00 0.000000000000e+00 -1.272375312951e-07 3.196316943520e-04 2.298332953594e-11 2.967916693183e-11 -1.073841504119e+06 4.111703981669e+07  1.644001234447e+00
5.100000000000e-01 -1.244434314116e-313 1.000000000000e+05 1.000000000000e+05 1.000000000000e+00 0.000000000000e+00 -1.279139183188e-07 3.183887853085e-04 2.306967769395e-11 3.039265969402e-11 -1.055124913410e+06 4.115794383244e+07  1.644666952660e+00
5.200000000000e-01 -1.244434314116e-313 1.000000000000e+05 1.000000000000e+05 1.000000000000e+00 0.000000000000e+00 -1.281697571071e-07 3.171578812938e-04 2.317487240299e-11 3.109808429835e-11 -1.033101971014e+06 4.120134349599e+07  1.645318721704e+00
5.300000000000e-01 -1.244434314116e-313 1.000000000000e+05 1.000000000000e+05 1.000000000000e+00 0.000000000000e+00 -1.280414576022e-07 3.159388022332e-04 2.327454965516e-11 3.179492456068e-11 -1.009934607328e+06 4.124747605574e+07  1.645960965157e+00
5.400000000000e-01 -1.244434314116e-313 1.000000000000e+05 1.000000000000e+05 1.000000000000e+00 0.000000000000e+00 -1.275996798678e-07 3.147305397243e-04 2.337852995702e-11 3.248494536364e-11 -9.856001677209e+05 4.129517965869e+07  1.646578055809e+00
5.500000000000e-01 -1.244434314116e-313 1.000000000000e+05 1.000000000000e+05 1.000000000000e+00 0.000000000000e+00 -1.272749570577e-07 3.135251495067e-04 2.343171316598e-11 3.314329786411e-11 -9.595296185859e+05 4.134529356984e+07  1.647185441895e+00
5.600000000000e-01 -1.244434314116e-313 1.000000000000e+05 1.000000000000e+05 1.000000000000e+00 0.000000000000e+00 -1.264293807066e-07 3.123278279773e-04 2.352245478562e-11 3.378927600032e-11 -9.322671679786e+05 4.139627480618e+07  1.647764452436e+00
5.700000000000e-01 -1.244434314116e-313 1.000000000000e+05 1.000000000000e+05 1.000000000000e+00 0.000000000000e+00 -1.253142124760e-07 3.111416923144e-04 2.364269965184e-11 3.445908145676e-11 -9.041355037594e+05 4.144986440370e+07  1.648342600180e+00
5.800000000000e-01 -1.244434314116e-313 1.000000000000e+05 1.000000000000e+05 1.000000000000e+00 0.000000000000e+00 -1.239664289896e-07 3.099665834838e-04 2.374543526553e-11 3.514653494083e-11 -8.737727422717e+05 4.150424497957e+07  1.648891525448e+00
5.900000000000e-01 -1.244434314116e-313 1.000000000000e+05 1.000000000000e+05 1.000000000000e+00 0.000000000000e+00 -1.224097645318e-07 3.088023441921e-04 2.384565108450e-11 3.581887378412e-11 -8.448636437518e+05 4.155885766080e+07  1.649432873397e+00
6.000000000000e-01 -1.244434314116e-313 1.000000000000e+05 1.000000000000e+05 1.000000000000e+00 0.000000000000e+00 -1.206740128314e-07 3.076488114936e-04 2.396328441902e-11 3.647849077158e-11 -8.158032088295e+05 4.161391133021e+07  1.649956445696e+00
6.100000000000e-01 -1.244434314116e-313 1.000000000000e+05 1.000000000000e+05 1.000000000000e+00 0.000000000000e+00 -1.190449672425e-07 3.064990126443e-04 2.404203306355e-11 3.710485872819e-11 -7.833227931356e+05 4.167191868418e+07  1.650462685241e+00
6.200000000000e-01 -1.244434314116e-313 1.000000000000e+05 1.000000000000e+05 1.000000000000e+00 0.000000000000e+00 -1.173377884921e-07 3.053578433070e-04 2.410653405978e-11 3.829240853232e-11 -7.526270117412e+05 4.172799985134e+07  1.650952621281e+00
6.300000000000e-01 -1.244434314116e-313 1.000000000000e+05 1.000000000000e+05 1.000000000000e+00 0.000000000000e+00 -1.154845276400e-07 3.042270268584e-04 2.416094964472e-11 3.973490937822e-11 -7.212339196397e+05 4.178438497776e+07  1.651426363976e+00
6.400000000000e-01 -1.244434314116e-313 1.000000000000e+05 1.000000000000e+05 1.000000000000e+00 0.000000000000e+00 -1.135046677661e-07 3.031077121627e-04 2.423760214159e-11 4.117676721712e-11 -6.891475677352e+05 4.183826651214e+07  1.651870620907e+00
6.500000000000e-01 -1.244434314116e-313 1.000000000000e+05 1.000000000000e+05 1.000000000000e+00 0.000000000000e+00 -1.114140677195e-07 3.019984211010e-04 2.431716005024e-11 4.262087994734e-11 -6.547725420710e+05 4.188909028366e+07  1.652284335928e+00
6.600000000000e-01 -1.244434314116e-313 1.000000000000e+05 1.000000000000e+05 1.000000000000e+00 0.000000000000e+00 -1.092326389366e-07 3.008990108694e-04 2.440633237365e-11 4.406530766087e-11 -6.214083224134e+05 4.194199522649e+07  1.652705694778e+00
6.700000000000e-01 -1.244434314116e-313 1.000000000000e+05 1.000000000000e+05 1.000000000000e+00 0.000000000000e+00 -1.069342159804e-07 2.998087331848e-04 2.450799447890e-11 4.550739099104e-11 -5.859182838502e+05 4.199229551482e+07  1.653098508857e+00
6.800000000000e-01 -1.244434314116e-313 1.000000000000e+05 1.000000000000e+05 1.000000000000e+00 0.000000000000e+00 -1.047004520511e-07 2.987182668846e-04 2.459258571449e-11 4.693803555974e-11 -5.501486505410e+05 4.204447414059e+07  1.653484586694e+00
6.900000000000e-01 -1.244434314116e-313 1.000000000000e+05 1.000000000000e+05 1.000000000000e+00 0.000000000000e+00 -1.024156515044e-07 2.976369738556e-04 2.468646890592e-11 4.836497507171e-11 -5.140419761618e+05 4.209336505627e+07  1.653845426233e+00
7.000000000000e-01 -1.244434314116e-313 1.000000000000e+05 1.000000000000e+05 1.000000000000e+00 0.000000000000e+00 -1.000815555611e-07 2.965650589966e-04 2.478221381702e-11 4.978804266996e-11 -4.764073141581e+05 4.214447677238e+07  1.654210893777e+00
7.100000000000e-01 -1.244434314116e-313 1.000000000000e+05 1.000000000000e+05 1.000000000000e+00 0.000000000000e+00 -9.771189833390e-08 2.955024094101e-04 2.488749905587e-11 5.120588347802e-11 -4.393668807566e+05 4.219385122548e+07  1.654558093461e+00
7.200000000000e-01 -1.244434314116e-313 1.000000000000e+05 1.000000000000e+05 1.000000000000e+00 0.000000000000e+00 -9.531458337500e-08 2.944489059092e-04 2.499329094532e-11 5.262052639867e-11 -3.997954810059e+05 4.224552204771e+07  1.654898780761e+00
7.300000000000e-01 -1.244434314116e-313 1.000000000000e+05 1.000000000000e+05 1.000000000000e+00 0.000000000000e+00 -9.290061180510e-08 2.934044409643e-04 2.510825317123e-11 5.402788747451e-11 -3.607631224918e+05 4.229697720335e+07  1.655242431886e+00
7.400000000000e-01 -1.244434314116e-313 1.000000000000e+05 1.000000000000e+05 1.000000000000e+00 0.000000000000e+00 -9.048045747266e-08 2.923688989922e-04 2.523817168151e-11 5.543130972696e-11 -3.207868499975e+05 4.234619263567e+07  1.655559901179e+00
7.500000000000e-01 -1.244434314116e-313 1.000000000000e+05 1.000000000000e+05 1.000000000000e+00 0.000000000000e+00 -8.814446120019e-08 2.913388710778e-04 2.533116306240e-11 5.682464996249e-11 -2.805593163880e+05 4.239626597057e+07  1.655877251280e+00
7.600000000000e-01 -1.244434314116e-313 1.000000000000e+05 1.000000000000e+05 1.000000000000e+00 0.000000000000e+00 -8.588254036661e-08 2.903141766167e-04 2.541884164137e-11 5.820233733462e-11 -2.404378488509e+05 4.244621401428e+07  1.656186183683e+00
7.700000000000e-01 -1.244434314116e-313 1.000000000000e+05 1.000000000000e+05 1.000000000000e+00 0.000000000000e+00 -8.361646966118e-08 2.892980931427e-04 2.550911271775e-11 5.957175273740e-11 -1.985383397414e+05 4.249562530262e+07  1.656483106422e+00
7.800000000000e-01 -1.244434314116e-313 1.000000000000e+05 1.000000000000e+05 1.000000000000e+00 0.000000000000e+00 -8.135348564593e-08 2.882905173833e-04 2.560635861057e-11 6.093215486983e-11 -1.573721367878e+05 4.254547794166e+07  1.656778365330e+00
7.900000000000e-01 -1.244434314116e-313 1.000000000000e+05 1.000000000000e+05 1.000000000000e+00 0.000000000000e+00 -7.903582420213e-08 2.872893681617e-04 2.573868947744e-11 6.228484764544e-11 -1.145064637029e+05 4.259470268213e+07  1.657061676999e+00
8.000000000000e-01 -1.244434314116e-313 1.000000000000e+05 1.000000000000e+05 1.000000000000e+00 0.000000000000e+00 -7.670587815150e-08 2.862954191570e-04 2.563441449977e-11 6.361766276135e-11 -7.187756232852e+04 4.264440705394e+07  1.657344008327e+00
8.100000000000e-01 -1.244434314116e-313 1.000000000000e+05 1.000000000000e+05 1.000000000000e+00 0.000000000000e+00 -7.440422808783e-08 2.853096702288e-04 2.505702361838e-11 6.492111140152e-11 -2.939511137511e+04 4.269392568166e+07  1.657619767069e+00
8.200000000000e-01 -1.244434314116e-313 1.000000000000e+05 1.000000000000e+05 1.000000000000e+00 0.000000000000e+00 -7.213556379834e-08 2.843320228205e-04 2.448071025702e-11 6.621951424515e-11 1.514899996257e+04 4.274278535996e+07  1.657884907680e+00
8.300000000000e-01 -1.244434314116e-313 1.000000000000e+05 1.000000000000e+05 1.000000000000e+00 0.000000000000e+00 -6.995137560116e-08 2.833601843158e-04 2.385990127447e-11 6.751228395899e-11 5.902312379456e+04 4.278976642610e+07  1.658144601004e+00
8.400000000000e-01 -1.244434314116e-313 1.000000000000e+05 1.000000000000e+05 1.000000000000e+00 0.000000000000e+00 -6.784706947305e-08 2.823930130146e-04 2.321478462965e-11 6.878901525787e-11 1.033764717202e+05 4.283670636607e+07  1.658389514156e+00
8.500000000000e-01 -1.244434314116e-313 1.000000000000e+05 1.000000000000e+05 1.000000000000e+00 0.000000000000e+00 -6.577263795270e-08 2.814328252572e-04 2.256664682502e-11 7.005393559098e-11 1.477460225414e+05 4.288565397053e+07  1.658642971850e+00
8.600000000000e-01 -1.244434314116e-313 1.000000000000e+05 1.000000000000e+05 1.000000000000e+00 0.000000000000e+00 -6.372763104182e-08 2.804803701792e-04 2.190696064805e-11 7.131226884755e-11 1.925973416563e+05 4.293461326408e+07  1.658890571293e+00
8.700000000000e-01 -1.244434314116e-313 1.000000000000e+05 1.000000000000e+05 1.000000000000e+00 0.000000000000e+00 -6.171355407988e-08 2.795355631714e-04 2.123834984388e-11 7.256183069928e-11 2.374370956373e+05 4.298359444039e+07  1.659134164960e+00
8.800000000000e-01 -1.244434314116e-313 1.000000000000e+05 1.000000000000e+05 1.000000000000e+00 0.000000000000e+00 -5.973444537812e-08 2.785948860234e-04 2.055814940375e-11 7.377462460108e-11 2.836141002067e+05 4.302928776988e+07  1.659364377480e+00
8.900000000000e-01 -1.244434314116e-313 1.000000000000e+05 1.000000000000e+05 1.000000000000e+00 0.000000000000e+00 -5.779330732228e-08 2.776523925631e-04 1.987269930217e-11 7.490094469400e-11 3.295316508370e+05 4.307611247281e+07  1.659590292450e+00
9.000000000000e-01 -1.244434314116e-313 1.000000000000e+05 1.000000000000e+05 1.000000000000e+00 0.000000000000e+00 -5.587988969102e-08 2.767171278013e-04 1.917625450752e-11 7.601797367930e-11 3.759779026877e+05 4.312454325993e+07  1.659820212241e+00
9.100000000000e-01 -1.244434314116e-313 1.000000000000e+05 1.000000000000e+05 1.000000000000e+00 0.000000000000e+00 -5.396738878643e-08 2.757869895146e-04 1.850262991434e-11 7.712390672889e-11 4.223233384743e+05 4.316976992856e+07  1.660037656648e+00
9.200000000000e-01 -1.244434314116e-313 1.000000000000e+05 1.000000000000e+05 1.000000000000e+00 0.000000000000e+00 -5.214374172557e-08 2.748616911300e-04 1.778975298963e-11 7.822071525605e-11 4.687551402279e+05 4.321641771515e+07  1.660251516054e+00
9.300000000000e-01 -1.244434314116e-313 1.000000000000e+05 1.000000000000e+05 1.000000000000e+00 0.000000000000e+00 -5.037486894695e-08 2.739429079280e-04 1.704733071260e-11 7.930668501932e-11 5.156352559006e+05 4.326475124475e+07  1.660469195399e+00
9.400000000000e-01 -1.244434314116e-313 1.000000000000e+05 1.000000000000e+05 1.000000000000e+00 0.000000000000e+00 -4.864683298553e-08 2.730303550137e-04 1.630607349946e-11 8.037218541000e-11 5.625400530662e+05 4.331033603897e+07  1.660678981223e+00
9.500000000000e-01 -1.244434314116e-313 1.000000000000e+05 1.000000000000e+05 1.000000000000e+00 0.000000000000e+00 -4.695920627399e-08 2.721248394772e-04 1.555853311072e-11 8.142559686921e-11 6.094765825876e+05 4.335658123813e+07  1.660881000079e+00
9.600000000000e-01 -1.244434314116e-313 1.000000000000e+05 1.000000000000e+05 1.000000000000e+00 0.000000000000e+00 -4.530747100029e-08 2.712265074384e-04 1.479394927258e-11 8.246642514181e-11 6.576271885050e+05 4.340131746996e+07  1.661080079952e+00
9.700000000000e-01 -1.244434314116e-313 1.000000000000e+05 1.000000000000e+05 1.000000000000e+00 0.000000000000e+00 -4.369409482585e-08 2.703352758188e-04 1.402432260206e-11 8.349543542453e-11 7.057216679240e+05 4.344727989228e+07  1.661275126913e+00
9.800000000000e-01 -1.244434314116e-313 1.000000000000e+05 1.000000000000e+05 1.000000000000e+00 0.000000000000e+00 -4.211900716363e-08 2.694510663669e-04 1.324691624652e-11 8.451077707642e-11 7.536974525988e+05 4.349231182931e+07  1.661471155667e+00
9.900000000000e-01 -1.244434314116e-313 1.000000000000e+05 1.000000000000e+05 1.000000000000e+00 0.000000000000e+00 -4.058280272882e-08 2.685737996480e-04 1.245564078817e-11 8.551400153604e-11 8.022986009327e+05 4.353787182790e+07  1.661659115294e+00
1.000000000000e+00 -1.244434314116e-313 1.000000000000e+05 1.000000000000e+05 1.000000000000e+00 0.000000000000e+00 -3.908402311332e-08 2.677034010943e-04 1.165065796876e-11 8.650451128977e-11 8.507284367391e+05 4.358255180888e+07  1.661848538716e+00
1.050000000000e+00 -1.244434314116e-313 1.000000000000e+05 1.000000000000e+05 1.000000000000e+00 0.000000000000e+00 -3.273572849911e-08 2.634949950403e-04 7.686197514925e-12 9.146066789560e-11 1.040184500686e+06 4.374635465299e+07  1.662703303146e+00
1.100000000000e+00 -1.244434314116e-313 1.000000000000e+05 1.000000000000e+05 1.000000000000e+00 0.000000000000e+00 -2.710060538477e-08 2.594253711017e-04 3.537322514630e-12 9.601595635691e-11 1.248436850202e+06 4.397284128987e+07  1.663573333975e+00
1.150000000000e+00 -1.244434314116e-313 1.000000000000e+05 1.000000000000e+05 1.000000000000e+00 0.000000000000e+00 -2.211798573860e-08 2.554813482646e-04 -8.672750640271e-13 1.017145727983e-10 1.477740522659e+06 4.416389661366e+07  1.664363909558e+00
1.200000000000e+00 -1.244434314116e-313 1.000000000000e+05 1.000000000000e+05 1.000000000000e+00 0.000000000000e+00 -1.769302639802e-08 2.516605361579e-04 -5.437576266820e-12 1.091107803809e-10 1.707952817453e+06 4.435160780032e+07  1.665067124821e+00
1.250000000000e+00 -1.244434314116e-313 1.000000000000e+05 1.000000000000e+05 1.000000000000e+00 0.000000000000e+00 -1.368978192697e-08 2.479661300968e-04 -1.032987436123e-11 1.162481399080e-10 1.961616485945e+06 4.455842226520e+07  1.665679730497e+00
1.300000000000e+00 -1.244434314116e-313 1.000000000000e+05 1.000000000000e+05 1.000000000000e+00 0.000000000000e+00 -1.009638585688e-08 2.443801163919e-04 -1.064534108173e-11 1.234627410081e-10 2.216664019086e+06 4.474778898525e+07  1.666291178729e+00
1.350000000000e+00 -1.244434314116e-313 1.000000000000e+05 1.000000000000e+05 1.000000000000e+00 0.000000000000e+00 -6.856214809152e-09 2.409106357315e-04 -1.037759525135e-11 1.305432517780e-10 2.470016226041e+06 4.493251128068e+07  1.666853680637e+00
1.400000000000e+00 -1.244434314116e-313 1.000000000000e+05 1.000000000000e+05 1.000000000000e+00 0.000000000000e+00 -3.787565200365e-09 2.375454834003e-04 -1.014623088650e-11 1.374493733722e-10 2.723477842756e+06 4.511446287077e+07  1.667382693671e+00