VARIABLES  = "X","Y","Z", "PRESSURE1", "PRESSURE2", "PRESSURE_W", "SATURATION1", SATURATION2, "VELOCITY_X1", "VELOCITY_Y1", "VELOCITY_X2", "VELOCITY_Y2"
ZONE T="0.000000000000e+00s", N=32, E=38, F=FEPOINT, ET=QUADRILATERAL
STRANDID=1, SOLUTIONTIME=0.000000000000e+00
1.000000000000e-02 0.000000000000e+00 5.000000000000e-02 8.400000000000e+07 1.000000000000e+05 -8.390000000000e+07 6.601393844892e-01 3.398606155108e-01 0.000000000000e+00 0.000000000000e+00 0.000000000000e+00 0.000000000000e+00 
1.000000000000e-02 0.000000000000e+00 4.500000000000e-02 8.400000000000e+07 1.000000000000e+05 -8.390000000000e+07 6.601393844892e-01 3.398606155108e-01 0.000000000000e+00 0.000000000000e+00 0.000000000000e+00 0.000000000000e+00 
5.000000000000e-03 0.000000000000e+00 5.000000000000e-02 8.400000000000e+07 1.000000000000e+05 -8.390000000000e+07 6.601393844892e-01 3.398606155108e-01 0.000000000000e+00 0.000000000000e+00 0.000000000000e+00 0.000000000000e+00 
5.000000000000e-03 0.000000000000e+00 4.300000000000e-02 8.400000000000e+07 1.000000000000e+05 -8.390000000000e+07 6.601393844892e-01 3.398606155108e-01 0.000000000000e+00 0.000000000000e+00 0.000000000000e+00 0.000000000000e+00 
1.000000000000e-02 0.000000000000e+00 4.000000000000e-02 8.400000000000e+07 1.000000000000e+05 -8.390000000000e+07 6.601393844892e-01 3.398606155108e-01 0.000000000000e+00 0.000000000000e+00 0.000000000000e+00 0.000000000000e+00 
0.000000000000e+00 0.000000000000e+00 5.000000000000e-02 8.400000000000e+07 1.000000000000e+05 -8.390000000000e+07 6.601393844892e-01 3.398606155108e-01 0.000000000000e+00 0.000000000000e+00 0.000000000000e+00 0.000000000000e+00 
0.000000000000e+00 0.000000000000e+00 4.500000000000e-02 8.400000000000e+07 1.000000000000e+05 -8.390000000000e+07 6.601393844892e-01 3.398606155108e-01 0.000000000000e+00 0.000000000000e+00 0.000000000000e+00 0.000000000000e+00 
6.000000000000e-03 0.000000000000e+00 3.800000000000e-02 8.400000000000e+07 1.000000000000e+05 -8.390000000000e+07 6.601393844892e-01 3.398606155108e-01 0.000000000000e+00 0.000000000000e+00 0.000000000000e+00 0.000000000000e+00 
0.000000000000e+00 0.000000000000e+00 4.000000000000e-02 8.400000000000e+07 1.000000000000e+05 -8.390000000000e+07 6.601393844892e-01 3.398606155108e-01 0.000000000000e+00 0.000000000000e+00 0.000000000000e+00 0.000000000000e+00 
1.000000000000e-02 0.000000000000e+00 3.500000000000e-02 8.400000000000e+07 1.000000000000e+05 -8.390000000000e+07 6.601393844892e-01 3.398606155108e-01 0.000000000000e+00 0.000000000000e+00 0.000000000000e+00 0.000000000000e+00 
0.000000000000e+00 0.000000000000e+00 3.500000000000e-02 8.400000000000e+07 1.000000000000e+05 -8.390000000000e+07 6.601393844892e-01 3.398606155108e-01 0.000000000000e+00 0.000000000000e+00 0.000000000000e+00 0.000000000000e+00 
4.000000000000e-03 0.000000000000e+00 3.300000000000e-02 8.400000000000e+07 1.000000000000e+05 -8.390000000000e+07 6.601393844892e-01 3.398606155108e-01 0.000000000000e+00 0.000000000000e+00 0.000000000000e+00 0.000000000000e+00 
1.000000000000e-02 0.000000000000e+00 3.000000000000e-02 8.400000000000e+07 1.000000000000e+05 -8.390000000000e+07 6.601393844892e-01 3.398606155108e-01 0.000000000000e+00 0.000000000000e+00 0.000000000000e+00 0.000000000000e+00 
0.000000000000e+00 0.000000000000e+00 3.000000000000e-02 8.400000000000e+07 1.000000000000e+05 -8.390000000000e+07 6.601393844892e-01 3.398606155108e-01 0.000000000000e+00 0.000000000000e+00 0.000000000000e+00 0.000000000000e+00 
4.000000000000e-03 0.000000000000e+00 2.800000000000e-02 8.400000000000e+07 1.000000000000e+05 -8.390000000000e+07 6.601393844892e-01 3.398606155108e-01 0.000000000000e+00 0.000000000000e+00 0.000000000000e+00 0.000000000000e+00 
1.000000000000e-02 0.000000000000e+00 2.500000000000e-02 8.400000000000e+07 1.000000000000e+05 -8.390000000000e+07 6.601393844892e-01 3.398606155108e-01 0.000000000000e+00 0.000000000000e+00 0.000000000000e+00 0.000000000000e+00 
0.000000000000e+00 0.000000000000e+00 2.500000000000e-02 8.400000000000e+07 1.000000000000e+05 -8.390000000000e+07 6.601393844892e-01 3.398606155108e-01 0.000000000000e+00 0.000000000000e+00 0.000000000000e+00 0.000000000000e+00 
4.000000000000e-03 0.000000000000e+00 2.300000000000e-02 8.400000000000e+07 1.000000000000e+05 -8.390000000000e+07 6.601393844892e-01 3.398606155108e-01 0.000000000000e+00 0.000000000000e+00 0.000000000000e+00 0.000000000000e+00 
1.000000000000e-02 0.000000000000e+00 2.000000000000e-02 8.400000000000e+07 1.000000000000e+05 -8.390000000000e+07 6.601393844892e-01 3.398606155108e-01 0.000000000000e+00 0.000000000000e+00 0.000000000000e+00 0.000000000000e+00 
0.000000000000e+00 0.000000000000e+00 2.000000000000e-02 8.400000000000e+07 1.000000000000e+05 -8.390000000000e+07 6.601393844892e-01 3.398606155108e-01 0.000000000000e+00 0.000000000000e+00 0.000000000000e+00 0.000000000000e+00 
4.000000000000e-03 0.000000000000e+00 1.800000000000e-02 8.400000000000e+07 1.000000000000e+05 -8.390000000000e+07 6.601393844892e-01 3.398606155108e-01 0.000000000000e+00 0.000000000000e+00 0.000000000000e+00 0.000000000000e+00 
1.000000000000e-02 0.000000000000e+00 1.500000000000e-02 8.400000000000e+07 1.000000000000e+05 -8.390000000000e+07 6.601393844892e-01 3.398606155108e-01 0.000000000000e+00 0.000000000000e+00 0.000000000000e+00 0.000000000000e+00 
0.000000000000e+00 0.000000000000e+00 1.500000000000e-02 8.400000000000e+07 1.000000000000e+05 -8.390000000000e+07 6.601393844892e-01 3.398606155108e-01 0.000000000000e+00 0.000000000000e+00 0.000000000000e+00 0.000000000000e+00 
4.000000000000e-03 0.000000000000e+00 1.300000000000e-02 8.400000000000e+07 1.000000000000e+05 -8.390000000000e+07 6.601393844892e-01 3.398606155108e-01 0.000000000000e+00 0.000000000000e+00 0.000000000000e+00 0.000000000000e+00 
1.000000000000e-02 0.000000000000e+00 1.000000000000e-02 8.400000000000e+07 1.000000000000e+05 -8.390000000000e+07 6.601393844892e-01 3.398606155108e-01 0.000000000000e+00 0.000000000000e+00 0.000000000000e+00 0.000000000000e+00 
0.000000000000e+00 0.000000000000e+00 1.000000000000e-02 8.400000000000e+07 1.000000000000e+05 -8.390000000000e+07 6.601393844892e-01 3.398606155108e-01 0.000000000000e+00 0.000000000000e+00 0.000000000000e+00 0.000000000000e+00 
5.000000000000e-03 0.000000000000e+00 7.000000000000e-03 8.400000000000e+07 1.000000000000e+05 -8.390000000000e+07 6.601393844892e-01 3.398606155108e-01 0.000000000000e+00 0.000000000000e+00 0.000000000000e+00 0.000000000000e+00 
1.000000000000e-02 0.000000000000e+00 5.000000000000e-03 8.400000000000e+07 1.000000000000e+05 -8.390000000000e+07 6.601393844892e-01 3.398606155108e-01 0.000000000000e+00 0.000000000000e+00 0.000000000000e+00 0.000000000000e+00 
0.000000000000e+00 0.000000000000e+00 5.000000000000e-03 8.400000000000e+07 1.000000000000e+05 -8.390000000000e+07 6.601393844892e-01 3.398606155108e-01 0.000000000000e+00 0.000000000000e+00 0.000000000000e+00 0.000000000000e+00 
1.000000000000e-02 0.000000000000e+00 0.000000000000e+00 8.400000000000e+07 1.000000000000e+05 -8.390000000000e+07 6.601393844892e-01 3.398606155108e-01 0.000000000000e+00 0.000000000000e+00 0.000000000000e+00 0.000000000000e+00 
5.000000000000e-03 0.000000000000e+00 0.000000000000e+00 8.400000000000e+07 1.000000000000e+05 -8.390000000000e+07 6.601393844892e-01 3.398606155108e-01 0.000000000000e+00 0.000000000000e+00 0.000000000000e+00 0.000000000000e+00 
0.000000000000e+00 0.000000000000e+00 0.000000000000e+00 8.400000000000e+07 1.000000000000e+05 -8.390000000000e+07 6.601393844892e-01 3.398606155108e-01 0.000000000000e+00 0.000000000000e+00 0.000000000000e+00 0.000000000000e+00 
14  17  15  14
15  17  18  15
18  17  20  18
14  15  12  14
30  28  31  30
12  15  13  12
18  20  21  18
21  20  23  21
18  21  19  18
21  23  24  21
24  23  26  24
21  24  22  21
5  2  4  5
4  2  3  4
5  4  8  5
8  4  9  8
5  8  10  5
24  26  27  24
27  26  29  27
24  27  25  24
10  8  12  10
27  29  31  27
19  16  18  19
6  7  3  6
25  22  24  25
1  3  2  1
13  10  12  13
9  11  8  9
32  31  29  32
15  18  16  15
14  12  11  14
11  12  8  11
28  25  27  28
7  9  4  7
16  13  15  16
22  19  21  22
7  4  3  7
28  27  31  28
VARIABLES  = "X","Y","Z", "PRESSURE1", "PRESSURE2", "PRESSURE_W", "SATURATION1", SATURATION2, "VELOCITY_X1", "VELOCITY_Y1", "VELOCITY_X2", "VELOCITY_Y2"
ZONE T="1.000000000000e-03s", N=32, E=38, F=FEPOINT, ET=QUADRILATERAL
STRANDID=1, SOLUTIONTIME=1.000000000000e-03
1.000000000000e-02 0.000000000000e+00 5.000000000000e-02 8.399996488935e+07 1.000000000000e+05 -8.389996488935e+07 6.601394691156e-01 3.398605308844e-01 -8.297870029341e-11 -1.530094956155e-10 0.000000000000e+00 -2.002407393034e-15 
1.000000000000e-02 0.000000000000e+00 4.500000000000e-02 8.400003895977e+07 1.000000018952e+05 -8.390003895787e+07 6.601392422450e-01 3.398607577550e-01 1.250974764099e-10 -5.353960994561e-11 -1.135824370247e-16 -2.127264162597e-15 
5.000000000000e-03 0.000000000000e+00 5.000000000000e-02 8.400003165785e+07 1.000000000000e+05 -8.390003165785e+07 6.601392579556e-01 3.398607420444e-01 -3.080785564448e-12 -2.941642619620e-11 3.245157125011e-18 -2.086459089903e-15 
5.000000000000e-03 0.000000000000e+00 4.300000000000e-02 8.399983618497e+07 9.999999573765e+04 -8.389983618924e+07 6.601399724678e-01 3.398600275322e-01 6.886018289695e-12 -4.389485111838e-10 1.084128555204e-17 -1.792896706066e-15 
1.000000000000e-02 0.000000000000e+00 4.000000000000e-02 8.400008659937e+07 9.999999814358e+04 -8.390008660123e+07 6.601391859592e-01 3.398608140408e-01 -9.895966126524e-10 3.676806689445e-10 7.953584006648e-16 -2.111913973648e-15 
0.000000000000e+00 0.000000000000e+00 5.000000000000e-02 8.399995505557e+07 1.000000000000e+05 -8.389995505557e+07 6.601394928264e-01 3.398605071736e-01 9.519994902694e-11 -1.897750257796e-10 0.000000000000e+00 -1.989082910808e-15 
0.000000000000e+00 0.000000000000e+00 4.500000000000e-02 8.400005870959e+07 1.000000022608e+05 -8.390005870733e+07 6.601392214553e-01 3.398607785447e-01 -1.134281023968e-10 -5.898546401310e-12 1.105353211567e-16 -2.152048149535e-15 
6.000000000000e-03 0.000000000000e+00 3.800000000000e-02 8.400091441940e+07 1.000000269180e+05 -8.390091439248e+07 6.601363872349e-01 3.398636127651e-01 -3.519077537672e-10 1.475321136708e-09 2.171286351868e-16 -3.289970126795e-15 
0.000000000000e+00 0.000000000000e+00 4.000000000000e-02 8.399996176087e+07 9.999999603761e+04 -8.389996176484e+07 6.601396865169e-01 3.398603134831e-01 6.221148230649e-10 1.007123595718e-10 -5.286042993759e-16 -2.044635722661e-15 
1.000000000000e-02 0.000000000000e+00 3.500000000000e-02 8.399783589713e+07 9.999996341565e+04 -8.389783593372e+07 6.601483276981e-01 3.398516723019e-01 6.100030124851e-10 -4.083383711392e-09 -9.059367202519e-16 -3.036195520244e-16 
0.000000000000e+00 0.000000000000e+00 3.500000000000e-02 8.399868331370e+07 9.999997645804e+04 -8.389868333724e+07 6.601452627053e-01 3.398547372947e-01 -2.287541681307e-09 -3.802173920890e-09 2.237637795253e-15 -2.690040183354e-16 
4.000000000000e-03 0.000000000000e+00 3.300000000000e-02 8.399804837774e+07 9.999992226488e+04 -8.389804845548e+07 6.601484137403e-01 3.398515862597e-01 -2.007300182426e-09 -1.031746519962e-09 1.318887634750e-15 6.584366482538e-16 
1.000000000000e-02 0.000000000000e+00 3.000000000000e-02 8.401318463747e+07 1.000002522363e+05 -8.391318438523e+07 6.600914759418e-01 3.399085240582e-01 8.385312912195e-09 2.411157882449e-08 -2.033590684427e-15 -1.360068952442e-14 
0.000000000000e+00 0.000000000000e+00 3.000000000000e-02 8.401164545156e+07 1.000002579451e+05 -8.391164519361e+07 6.601112965037e-01 3.398887034963e-01 -1.298178506065e-08 2.099994429552e-08 3.132418134615e-15 -1.415771126770e-14 
4.000000000000e-03 0.000000000000e+00 2.800000000000e-02 8.398925712626e+07 9.999997496405e+04 -8.388925715130e+07 6.601661737227e-01 3.398338262773e-01 7.276329924984e-09 -3.333900970534e-08 -5.150332556543e-15 2.150531631792e-15 
1.000000000000e-02 0.000000000000e+00 2.500000000000e-02 8.394825805950e+07 9.999893686789e+04 -8.384825912264e+07 6.602908751909e-01 3.397091248091e-01 -9.837609027957e-08 -7.415785742596e-08 3.567069636132e-14 4.100334628963e-14 
0.000000000000e+00 0.000000000000e+00 2.500000000000e-02 8.395662981040e+07 9.999890253303e+04 -8.385663090786e+07 6.602971681095e-01 3.397028318905e-01 1.494176256510e-07 -5.470079503659e-08 -5.492427843967e-14 4.002323911593e-14 
4.000000000000e-03 0.000000000000e+00 2.300000000000e-02 8.413836010776e+07 1.000016139472e+05 -8.403835849382e+07 6.597713926152e-01 3.402286073848e-01 -3.159938642359e-10 2.868840826385e-07 8.548442252171e-15 -7.551693814430e-14 
1.000000000000e-02 0.000000000000e+00 2.000000000000e-02 8.404283213279e+07 1.000022556846e+05 -8.394282987710e+07 6.602530412447e-01 3.397469587553e-01 5.248405582996e-07 -8.605369041640e-08 -1.776279475030e-13 -8.621426113850e-14 
0.000000000000e+00 0.000000000000e+00 2.000000000000e-02 8.399437466262e+07 1.000021789618e+05 -8.389437248366e+07 6.600548245031e-01 3.399451754969e-01 -7.953440284977e-07 -1.971693095413e-07 2.752022519064e-13 -6.499632529193e-14 
4.000000000000e-03 0.000000000000e+00 1.800000000000e-02 8.323008444172e+07 9.999047156182e+04 -8.313009397016e+07 6.623364125492e-01 3.376635874508e-01 -2.356114779547e-07 -1.322010018237e-06 3.552632151072e-14 3.634736130244e-13 
1.000000000000e-02 0.000000000000e+00 1.500000000000e-02 8.506300118214e+07 1.000029601748e+05 -8.496299822197e+07 6.551972175859e-01 3.448027824141e-01 -1.235811434773e-06 2.397052705742e-06 4.847603601666e-13 -8.994099916805e-14 
0.000000000000e+00 0.000000000000e+00 1.500000000000e-02 8.534582055882e+07 1.000047002635e+05 -8.524581585856e+07 6.562288864251e-01 3.437711135749e-01 1.982027176853e-06 3.146874297321e-06 -7.155272686604e-13 -1.999723923609e-13 
4.000000000000e-03 0.000000000000e+00 1.300000000000e-02 8.612591729285e+07 1.000310303693e+05 -8.602588626248e+07 6.533224219691e-01 3.466775780309e-01 1.363493632327e-06 2.271320721935e-06 -2.717526025694e-13 -1.026535183079e-12 
1.000000000000e-02 0.000000000000e+00 1.000000000000e-02 7.509043656149e+07 9.995525084120e+04 -7.499048131065e+07 6.916396884204e-01 3.083603115796e-01 3.444622674060e-06 -2.676323092449e-05 -2.728694590804e-13 4.357287504478e-13 
0.000000000000e+00 0.000000000000e+00 1.000000000000e-02 7.353747440211e+07 9.994386730255e+04 -7.343753053481e+07 6.919001041184e-01 3.080998958816e-01 9.718170360134e-07 -2.270637617435e-05 1.665386717279e-13 8.286640295361e-13 
5.000000000000e-03 0.000000000000e+00 7.000000000000e-03 8.933334449612e+07 9.994852926695e+04 -8.923339596685e+07 6.485849984617e-01 3.514150015383e-01 2.891184176424e-06 -2.155272399181e-08 2.216750724440e-13 1.957591031668e-12 
1.000000000000e-02 0.000000000000e+00 5.000000000000e-03 1.374704034964e+08 1.001505306184e+05 -1.373702529658e+08 4.969756426380e-01 5.030243573620e-01 1.694104201250e-05 -2.525361402992e-05 -7.139418383697e-12 2.340837573580e-12 
0.000000000000e+00 0.000000000000e+00 5.000000000000e-03 1.377175145117e+08 1.001525955749e+05 -1.376173619161e+08 4.800161806974e-01 5.199838193026e-01 -1.275512285857e-05 -2.641172202509e-05 7.834319691479e-12 3.248700219373e-12 
1.000000000000e-02 0.000000000000e+00 0.000000000000e+00 -6.544464932902e-313 1.000000000000e+05 1.000000000000e+05 9.827454852128e-01 1.725451478717e-02 0.000000000000e+00 5.373620226311e-04 0.000000000000e+00 5.720459415246e-13 
5.000000000000e-03 0.000000000000e+00 0.000000000000e+00 8.352577166387e-314 1.000000000000e+05 1.000000000000e+05 1.000000000000e+00 0.000000000000e+00 2.245939834686e-06 3.928132540998e-04 2.880190897202e-13 -6.005725438094e-14 
0.000000000000e+00 0.000000000000e+00 0.000000000000e+00 3.520628881626e-314 1.000000000000e+05 1.000000000000e+05 9.826227014433e-01 1.737729855673e-02 0.000000000000e+00 5.380595432451e-04 0.000000000000e+00 5.817610161008e-13 
14  17  15  14
15  17  18  15
18  17  20  18
14  15  12  14
30  28  31  30
12  15  13  12
18  20  21  18
21  20  23  21
18  21  19  18
21  23  24  21
24  23  26  24
21  24  22  21
5  2  4  5
4  2  3  4
5  4  8  5
8  4  9  8
5  8  10  5
24  26  27  24
27  26  29  27
24  27  25  24
10  8  12  10
27  29  31  27
19  16  18  19
6  7  3  6
25  22  24  25
1  3  2  1
13  10  12  13
9  11  8  9
32  31  29  32
15  18  16  15
14  12  11  14
11  12  8  11
28  25  27  28
7  9  4  7
16  13  15  16
22  19  21  22
7  4  3  7
28  27  31  28
VARIABLES  = "X","Y","Z", "PRESSURE1", "PRESSURE2", "PRESSURE_W", "SATURATION1", SATURATION2, "VELOCITY_X1", "VELOCITY_Y1", "VELOCITY_X2", "VELOCITY_Y2"
ZONE T="1.000000000000e-02s", N=32, E=38, F=FEPOINT, ET=QUADRILATERAL
STRANDID=1, SOLUTIONTIME=1.000000000000e-02
1.000000000000e-02 0.000000000000e+00 5.000000000000e-02 8.399997646227e+07 1.000000000000e+05 -8.389997646227e+07 6.601394402453e-01 3.398605597547e-01 -6.278341450965e-11 -1.195144001216e-10 0.000000000000e+00 -1.454569525159e-15 
1.000000000000e-02 0.000000000000e+00 4.500000000000e-02 8.400002359653e+07 1.000000174220e+05 -8.390002357910e+07 6.601393014260e-01 3.398606985740e-01 9.963043084515e-11 -6.652000655535e-11 -1.071994846077e-15 -2.592452915017e-15 
5.000000000000e-03 0.000000000000e+00 5.000000000000e-02 8.400002698072e+07 1.000000000000e+05 -8.390002698072e+07 6.601392791017e-01 3.398607208983e-01 -2.672136655632e-12 -2.870595001513e-11 3.124706566048e-17 -2.238304654549e-15 
5.000000000000e-03 0.000000000000e+00 4.300000000000e-02 8.399987129041e+07 9.999995979958e+04 -8.389987133061e+07 6.601398472971e-01 3.398601527029e-01 9.898313446178e-12 -3.625879660258e-10 9.609137681486e-17 5.540137264360e-16 
1.000000000000e-02 0.000000000000e+00 4.000000000000e-02 8.400010105069e+07 9.999998445851e+04 -8.390010106623e+07 6.601391510144e-01 3.398608489856e-01 -7.675737380304e-10 3.570034794252e-10 7.479155281449e-15 -2.567146704962e-15 
0.000000000000e+00 0.000000000000e+00 5.000000000000e-02 8.399996860436e+07 1.000000000000e+05 -8.389996860436e+07 6.601394589867e-01 3.398605410133e-01 7.254908957862e-11 -1.497342370977e-10 0.000000000000e+00 -1.326074276304e-15 
0.000000000000e+00 0.000000000000e+00 4.500000000000e-02 8.400004005841e+07 1.000000209421e+05 -8.390004003747e+07 6.601392735272e-01 3.398607264728e-01 -8.946964842377e-11 -2.523911500059e-11 1.042511144281e-15 -2.831499688594e-15 
6.000000000000e-03 0.000000000000e+00 3.800000000000e-02 8.400069848363e+07 1.000002531898e+05 -8.390069823044e+07 6.601370812216e-01 3.398629187784e-01 -2.910032174457e-10 1.128119404964e-09 2.055540316746e-15 -1.363784692598e-14 
0.000000000000e+00 0.000000000000e+00 4.000000000000e-02 8.399999352293e+07 9.999996415017e+04 -8.389999355878e+07 6.601395502267e-01 3.398604497733e-01 4.745353355613e-10 1.088728162421e-10 -4.965762567565e-15 -1.898918653064e-15 
1.000000000000e-02 0.000000000000e+00 3.500000000000e-02 8.399812684818e+07 9.999964760844e+04 -8.389812720058e+07 6.601470443987e-01 3.398529556013e-01 3.431046376923e-10 -3.583661107297e-09 -8.490618660488e-15 1.501198663127e-14 
0.000000000000e+00 0.000000000000e+00 3.500000000000e-02 8.399886971754e+07 9.999977265324e+04 -8.389886994488e+07 6.601443350888e-01 3.398556649112e-01 -1.644806658845e-09 -3.300268372647e-09 2.106696379616e-14 1.529695194670e-14 
4.000000000000e-03 0.000000000000e+00 3.300000000000e-02 8.399868494771e+07 9.999927052829e+04 -8.389868567718e+07 6.601459735362e-01 3.398540264638e-01 -1.640321099074e-09 -2.287606377143e-10 1.251391015671e-14 2.362555716532e-14 
1.000000000000e-02 0.000000000000e+00 3.000000000000e-02 8.401114354111e+07 1.000024163637e+05 -8.391114112475e+07 6.600992857296e-01 3.399007142704e-01 7.874777028511e-09 2.079960972699e-08 -1.975296104196e-14 -1.134409057245e-13 
0.000000000000e+00 0.000000000000e+00 3.000000000000e-02 8.400956910570e+07 1.000024596425e+05 -8.390956664606e+07 6.601164831098e-01 3.398835168902e-01 -1.219186719032e-08 1.755328865599e-08 3.044066343966e-14 -1.180580485425e-13 
4.000000000000e-03 0.000000000000e+00 2.800000000000e-02 8.398938048471e+07 9.999972239137e+04 -8.388938076232e+07 6.601661759053e-01 3.398338240947e-01 5.806164347317e-09 -3.227884423469e-08 -4.901608681756e-14 4.035750290533e-14 
1.000000000000e-02 0.000000000000e+00 2.500000000000e-02 8.395705363014e+07 9.998978937246e+04 -8.385706384077e+07 6.602617600019e-01 3.397382399981e-01 -8.838991189037e-08 -6.133164352151e-08 3.435246865390e-13 4.159972843570e-13 
0.000000000000e+00 0.000000000000e+00 2.500000000000e-02 8.396564186852e+07 9.998952175377e+04 -8.386565234676e+07 6.602664499880e-01 3.397335500120e-01 1.340440267783e-07 -4.225476316019e-08 -5.284491925712e-13 4.041587499476e-13 
4.000000000000e-03 0.000000000000e+00 2.300000000000e-02 8.412547587226e+07 1.000156356330e+05 -8.402546023662e+07 6.598055784762e-01 3.401944215238e-01 2.305719029462e-09 2.662942148933e-07 8.196875139902e-14 -7.170862965432e-13 
1.000000000000e-02 0.000000000000e+00 2.000000000000e-02 8.402291102190e+07 1.000218543977e+05 -8.392288916751e+07 6.603026344624e-01 3.396973655376e-01 4.736661610577e-07 -1.134995637984e-07 -1.719466930209e-12 -8.295678645878e-13 
0.000000000000e+00 0.000000000000e+00 2.000000000000e-02 8.397532882274e+07 1.000209017108e+05 -8.387530792103e+07 6.601234309268e-01 3.398765690732e-01 -7.167285209468e-07 -2.183132138058e-07 2.662612008805e-12 -6.159165665318e-13 
4.000000000000e-03 0.000000000000e+00 1.800000000000e-02 8.330828722953e+07 9.990758194108e+04 -8.320837964759e+07 6.621119483255e-01 3.378880516745e-01 -2.268132661477e-07 -1.208975841877e-06 3.351675429094e-13 3.632782183057e-12 
1.000000000000e-02 0.000000000000e+00 1.500000000000e-02 8.504677074850e+07 1.000278235588e+05 -8.494674292494e+07 6.553455879891e-01 3.446544120109e-01 -1.096485235267e-06 2.405399501017e-06 4.815668916254e-12 -6.652360072061e-13 
0.000000000000e+00 0.000000000000e+00 1.500000000000e-02 8.531411863907e+07 1.000454380241e+05 -8.521407320105e+07 6.563194165747e-01 3.436805834253e-01 1.760649653948e-06 3.108891238523e-06 -7.073279209544e-12 -1.694658124603e-12 
4.000000000000e-03 0.000000000000e+00 1.300000000000e-02 8.584770804255e+07 1.003088877341e+05 -8.574739915481e+07 6.541510172868e-01 3.458489827132e-01 1.290172210075e-06 1.978040536248e-06 -2.585438348328e-12 -1.017431035910e-11 
1.000000000000e-02 0.000000000000e+00 1.000000000000e-02 7.542105365085e+07 9.957317906477e+04 -7.532148047178e+07 6.903809189475e-01 3.096190810525e-01 2.964907639785e-06 -2.611535211098e-05 -4.012788725107e-12 5.306589927385e-12 
0.000000000000e+00 0.000000000000e+00 1.000000000000e-02 7.395228666521e+07 9.946658509600e+04 -7.385282008011e+07 6.905353841156e-01 3.094646158844e-01 1.172638865863e-06 -2.225727426278e-05 3.283984496683e-12 9.420178499631e-12 
5.000000000000e-03 0.000000000000e+00 7.000000000000e-03 8.989159717840e+07 9.946129993052e+04 -8.979213587846e+07 6.468309454445e-01 3.531690545555e-01 2.701756065015e-06 6.605874319119e-07 2.481226726951e-12 2.096218347570e-11 
1.000000000000e-02 0.000000000000e+00 5.000000000000e-03 1.356225801436e+08 1.016344742102e+05 -1.355209456694e+08 5.016089946138e-01 4.983910053862e-01 1.679465273345e-05 -2.320142719892e-05 -7.622203268634e-11 2.344153331701e-11 
0.000000000000e+00 0.000000000000e+00 5.000000000000e-03 1.358488715595e+08 1.016552228726e+05 -1.357472163366e+08 4.854376620526e-01 5.145623379474e-01 -1.292454995943e-05 -2.440523383402e-05 8.358191090892e-11 3.242992734994e-11 
1.000000000000e-02 0.000000000000e+00 0.000000000000e+00 -6.544464932902e-313 1.000000000000e+05 1.000000000000e+05 9.836636260595e-01 1.633637394046e-02 0.000000000000e+00 5.321097546399e-04 0.000000000000e+00 6.156786205507e-12 
5.000000000000e-03 0.000000000000e+00 0.000000000000e+00 8.352577166387e-314 1.000000000000e+05 1.000000000000e+05 1.000000000000e+00 0.000000000000e+00 2.089684680294e-06 3.913600056596e-04 2.966802692080e-12 -5.140975921738e-13 
0.000000000000e+00 0.000000000000e+00 0.000000000000e+00 3.520628881626e-314 1.000000000000e+05 1.000000000000e+05 9.835511870692e-01 1.644881293084e-02 0.000000000000e+00 5.327550695556e-04 0.000000000000e+00 6.255026022177e-12 
14  17  15  14
15  17  18  15
18  17  20  18
14  15  12  14
30  28  31  30
12  15  13  12
18  20  21  18
21  20  23  21
18  21  19  18
21  23  24  21
24  23  26  24
21  24  22  21
5  2  4  5
4  2  3  4
5  4  8  5
8  4  9  8
5  8  10  5
24  26  27  24
27  26  29  27
24  27  25  24
10  8  12  10
27  29  31  27
19  16  18  19
6  7  3  6
25  22  24  25
1  3  2  1
13  10  12  13
9  11  8  9
32  31  29  32
15  18  16  15
14  12  11  14
11  12  8  11
28  25  27  28
7  9  4  7
16  13  15  16
22  19  21  22
7  4  3  7
28  27  31  28
VARIABLES  = "X","Y","Z", "PRESSURE1", "PRESSURE2", "PRESSURE_W", "SATURATION1", SATURATION2, "VELOCITY_X1", "VELOCITY_Y1", "VELOCITY_X2", "VELOCITY_Y2"
ZONE T="1.000000000000e-01s", N=32, E=38, F=FEPOINT, ET=QUADRILATERAL
STRANDID=1, SOLUTIONTIME=1.000000000000e-01
1.000000000000e-02 0.000000000000e+00 5.000000000000e-02 8.400001789045e+07 1.000000000000e+05 -8.390001789045e+07 6.601393385822e-01 3.398606614178e-01 2.918123711467e-11 -1.234709386461e-11 0.000000000000e+00 2.481543501961e-16 
1.000000000000e-02 0.000000000000e+00 4.500000000000e-02 8.399997884158e+07 1.000000660814e+05 -8.389997877550e+07 6.601394677786e-01 3.398605322214e-01 -3.171850287579e-11 -8.493089335515e-11 -5.961301213003e-15 -3.214657462672e-15 
5.000000000000e-03 0.000000000000e+00 5.000000000000e-02 8.399999440986e+07 1.000000000000e+05 -8.389999440986e+07 6.601394108130e-01 3.398605891870e-01 2.332056237380e-13 -5.869582611886e-11 2.007102581572e-16 -3.463272121677e-15 
5.000000000000e-03 0.000000000000e+00 4.300000000000e-02 8.400004797723e+07 9.999978158215e+04 -8.390004819565e+07 6.601392150002e-01 3.398607849998e-01 9.036709847329e-12 4.549180793271e-11 3.448478394184e-17 1.297351312627e-14 
1.000000000000e-02 0.000000000000e+00 4.000000000000e-02 8.400003739881e+07 1.000000587850e+05 -8.390003734002e+07 6.601393096062e-01 3.398606903938e-01 2.808444762917e-10 2.924637219645e-11 3.876562630571e-14 -1.315197576142e-14 
0.000000000000e+00 0.000000000000e+00 5.000000000000e-02 8.400002045983e+07 1.000000000000e+05 -8.390002045983e+07 6.601393318250e-01 3.398606681750e-01 -3.237441169093e-11 -5.027906217803e-12 0.000000000000e+00 1.077308797386e-15 
0.000000000000e+00 0.000000000000e+00 4.500000000000e-02 8.399997554421e+07 1.000000886923e+05 -8.389997545552e+07 6.601394521226e-01 3.398605478774e-01 3.144367557325e-11 -8.739391249467e-11 5.715391417888e-15 -4.893614792722e-15 
6.000000000000e-03 0.000000000000e+00 3.800000000000e-02 8.399969379868e+07 1.000012958157e+05 -8.389969250286e+07 6.601403382416e-01 3.398596617584e-01 4.217126929567e-11 -6.034925590989e-10 1.207014293067e-14 -6.510496253904e-14 
0.000000000000e+00 0.000000000000e+00 4.000000000000e-02 8.400004577141e+07 9.999991639834e+04 -8.390004585501e+07 6.601391971416e-01 3.398608028584e-01 -2.011951632603e-10 -1.721254510687e-11 -2.509613933878e-14 -6.226094307453e-15 
1.000000000000e-02 0.000000000000e+00 3.500000000000e-02 8.400016022812e+07 9.999747238485e+04 -8.390016275573e+07 6.601385166518e-01 3.398614833482e-01 -5.577937473961e-10 -2.884869608172e-11 -3.387646364470e-14 1.236308881728e-13 
0.000000000000e+00 0.000000000000e+00 3.500000000000e-02 8.400018621790e+07 9.999836166068e+04 -8.390018785624e+07 6.601383288290e-01 3.398616711710e-01 1.113996536936e-09 2.404405838072e-10 1.017458093750e-13 1.237093406479e-13 
4.000000000000e-03 0.000000000000e+00 3.300000000000e-02 8.400122300834e+07 9.999669227779e+04 -8.390122631606e+07 6.601353604107e-01 3.398646395893e-01 4.151097981478e-10 2.681244607189e-09 7.459332651753e-14 1.058056296806e-13 
1.000000000000e-02 0.000000000000e+00 3.000000000000e-02 8.399861479124e+07 1.000156892170e+05 -8.389859910202e+07 6.601459831111e-01 3.398540168889e-01 2.401152694699e-09 -1.206939851438e-09 -1.934065008567e-13 -7.810133636221e-13 
0.000000000000e+00 0.000000000000e+00 3.000000000000e-02 8.399762248907e+07 1.000150756818e+05 -8.389760741339e+07 6.601457683691e-01 3.398542316309e-01 -3.823890856629e-09 -3.679488349338e-09 2.956241335538e-13 -7.599161237200e-13 
4.000000000000e-03 0.000000000000e+00 2.800000000000e-02 8.399513607739e+07 9.999311475145e+04 -8.389514296263e+07 6.601518315366e-01 3.398481684634e-01 -2.130382075765e-09 -1.589774688414e-08 -2.870172342772e-13 5.679799835419e-13 
1.000000000000e-02 0.000000000000e+00 2.500000000000e-02 8.400894745937e+07 9.993524607421e+04 -8.390901221330e+07 6.600957899521e-01 3.399042100479e-01 -1.679457219447e-08 1.965841795832e-08 2.545417180025e-12 2.840529533606e-12 
0.000000000000e+00 0.000000000000e+00 2.500000000000e-02 8.401494401170e+07 9.993791193638e+04 -8.391500609976e+07 6.600957764447e-01 3.399042235553e-01 2.498116677071e-08 3.062048525912e-08 -3.879162011050e-12 2.578069295810e-12 
4.000000000000e-03 0.000000000000e+00 2.300000000000e-02 8.402567214569e+07 1.001236528858e+05 -8.392554849280e+07 6.600740163052e-01 3.399259836948e-01 1.391955745578e-08 9.056207825712e-08 4.171277746651e-13 -6.198810212176e-12 
1.000000000000e-02 0.000000000000e+00 2.000000000000e-02 8.392069849996e+07 1.001253768929e+05 -8.382057312306e+07 6.605059172092e-01 3.394940827908e-01 1.081857256951e-07 -2.606743116687e-07 -1.289516172284e-11 -4.946337670601e-12 
0.000000000000e+00 0.000000000000e+00 2.000000000000e-02 8.389324657784e+07 1.001026181693e+05 -8.379314395967e+07 6.604371421827e-01 3.395628578173e-01 -1.598130115405e-07 -3.064822775012e-07 1.978458366628e-11 -2.892610858155e-12 
4.000000000000e-03 0.000000000000e+00 1.800000000000e-02 8.388079364588e+07 9.929212212756e+04 -8.378150152375e+07 6.604772658764e-01 3.395227341236e-01 -1.441587078517e-07 -2.980645928360e-07 2.963896109364e-12 3.134610093436e-11 
1.000000000000e-02 0.000000000000e+00 1.500000000000e-02 8.478076488724e+07 1.003485337273e+05 -8.468041635351e+07 6.569804521686e-01 3.430195478314e-01 -8.172516092926e-08 2.259869022919e-06 3.819954166806e-11 -1.113147369042e-11 