 TITLE = "Time curves in points"
 VARIABLES = "TIME "  "DISPLACEMENT_X1"  "DISPLACEMENT_Y1"  "STRESS_XX"  "STRESS_XY"  "STRESS_YY"  "STRESS_ZZ"  "STRAIN_XX"  "STRAIN_XY"  "STRAIN_YY"  p_(1st_Invariant)  q_(2nd_Invariant)   Effective_Strain
 ZONE T="POINT=POINT6"
0.000000000000e+00 0.000000000000e+00 0.000000000000e+00 -1.000000000000e+05 0.000000000000e+00 -1.000000000000e+05 -1.000000000000e+05 0.000000000000e+00 0.000000000000e+00 0.000000000000e+00 1.000000000000e+05 0.000000000000e+00  0.000000000000e+00
1.000000000000e-03 -4.437512247882e-11 0.000000000000e+00 -1.157019887241e+05 1.620621315333e-02 -1.235549059827e+05 -1.157027344524e+05 7.212057018389e-08 3.054306630660e-09 -7.579209654622e-04 1.183198763864e+05 7.852544421087e+03  7.579570283391e-04
2.000000000000e-03 -2.235600150628e-08 0.000000000000e+00 -2.243416936248e+05 4.572649512884e+00 -2.865275954874e+05 -2.243476922950e+05 2.664891845977e-06 4.500134185366e-06 -2.757204494906e-02 2.450723271357e+05 6.218290324896e+04  2.757337859324e-02
3.000000000000e-03 -2.176443648114e-08 0.000000000000e+00 -5.448643607661e+05 4.717804165068e+00 -7.672987391858e+05 -5.448652172777e+05 2.398221755588e-06 4.515545612593e-06 -3.586798581340e-02 6.190094390765e+05 2.224339503153e+05  3.586918583709e-02
4.000000000000e-03 2.801694561992e-08 0.000000000000e+00 -1.124700372035e+06 -2.112074831321e+02 -1.636990220400e+06 -1.124676216638e+06 2.169989202939e-06 -5.575025186084e-07 -3.925128318301e-02 1.295455603024e+06 5.123020571025e+05  3.925236823448e-02
5.000000000000e-03 7.882774074534e-08 0.000000000000e+00 -1.342213004825e+06 -7.392480494747e+02 -1.963485092579e+06 -1.342279222071e+06 2.934481329281e-06 -8.034332418761e-06 -4.003186663956e-02 1.549325773158e+06 6.212403012871e+05  4.003333637951e-02
6.000000000000e-03 1.274651798764e-08 0.000000000000e+00 -1.453339793685e+06 -5.312188663752e+02 -2.131694912331e+06 -1.454013868733e+06 6.455151476361e-06 -4.159325779531e-06 -4.044771589576e-02 1.679682858249e+06 6.780189567346e+05  4.045094449931e-02
7.000000000000e-03 2.431806264157e-08 0.000000000000e+00 -1.489529744340e+06 -8.867845424814e+02 -2.188572085065e+06 -1.491240721416e+06 1.340649531603e-05 -8.778368475582e-06 -4.059043501483e-02 1.723114183607e+06 6.981901140158e+05  4.059714276995e-02
8.000000000000e-03 3.156872271394e-08 0.000000000000e+00 -1.508323537016e+06 -4.859127771888e+02 -2.215506686894e+06 -1.509532083444e+06 1.070870689425e-05 -4.447672317081e-06 -4.063694389496e-02 1.744454102451e+06 7.065801530754e+05  4.064230003660e-02
9.000000000000e-03 3.096510704602e-08 0.000000000000e+00 -1.520417455954e+06 -5.307425892428e+02 -2.233798809750e+06 -1.521686504386e+06 1.103150008594e-05 -4.926990335466e-06 -4.066966241831e-02 1.758634256697e+06 7.127482697290e+05  4.067518018551e-02
1.000000000000e-02 3.112894649818e-08 0.000000000000e+00 -1.533861750844e+06 -5.268066529824e+02 -2.253971746252e+06 -1.535133401165e+06 1.104516856838e-05 -4.885231644735e-06 -4.070521128161e-02 1.774322299420e+06 7.194755916983e+05  4.071073586897e-02
2.000000000000e-02 4.332149007958e-08 0.000000000000e+00 -4.371472600176e+06 -6.973728470404e+02 -6.514819167823e+06 -4.374516760998e+06 1.685079861044e-05 -5.991090791421e-06 -4.536014262013e-02 5.086936176332e+06 2.141826450321e+06  4.536857155317e-02
3.000000000000e-02 3.437424825291e-08 0.000000000000e+00 -2.498728302911e+06 -6.644946088196e+02 -3.703391936975e+06 -2.500848182923e+06 1.281382742041e-05 -5.708618506612e-06 -4.126850440595e-02 2.900989474270e+06 1.203605644481e+06  4.127491399575e-02
4.000000000000e-02 1.559939817034e-08 0.000000000000e+00 -2.942093877847e+06 -3.498204182197e+02 -4.365188390867e+06 -2.942913041346e+06 8.895757860827e-06 -3.842326747976e-06 -4.192336599344e-02 3.416731770020e+06 1.422685237169e+06  4.192781510832e-02
5.000000000000e-02 2.065866141376e-08 0.000000000000e+00 -2.505424308069e+06 1.089421158429e+02 -3.719506619067e+06 -2.509972540557e+06 2.238149056826e-05 -2.221715995587e-07 -4.117627915453e-02 2.911634489231e+06 1.211814610942e+06  4.118747446245e-02
6.000000000000e-02 6.870671400231e-08 0.000000000000e+00 -3.801315192189e+06 -1.223463232767e+02 -5.666229416061e+06 -3.807018049265e+06 2.609915763520e-05 -1.437250315421e-06 -4.322843627757e-02 4.424854219172e+06 1.862069357088e+06  4.324149183527e-02
7.000000000000e-02 1.225054770196e-07 0.000000000000e+00 -3.523084580180e+06 -5.644006783900e+02 -5.251389004777e+06 -3.529789678507e+06 2.888231773736e-05 -4.150995761207e-06 -4.285108962990e-02 4.101421087821e+06 1.724961926236e+06  4.286553868945e-02
8.000000000000e-02 4.980416198832e-08 0.000000000000e+00 -3.714177611970e+06 -1.394410569893e+02 -5.522685124449e+06 -3.714745369196e+06 1.101973410000e-05 -1.490886039363e-06 -4.308959776078e-02 4.317202701872e+06 1.808223716846e+06  4.309510876188e-02
9.000000000000e-02 3.244003183695e-08 0.000000000000e+00 -3.838110388354e+06 -6.900254926201e+02 -5.701013089966e+06 -3.835649700917e+06 3.179596964947e-06 -3.665943609467e-06 -4.320787835574e-02 4.458257726412e+06 1.864134646515e+06  4.320946870850e-02
1.000000000000e-01 -1.616585368837e-08 0.000000000000e+00 -3.974421834589e+06 -8.018791889002e+02 -5.905505307916e+06 -3.971971191998e+06 5.995886935702e-06 -4.979392846303e-06 -4.336581707251e-02 4.617299444834e+06 1.932310459280e+06  4.336881618440e-02
1.100000000000e-01 -2.571681171775e-09 0.000000000000e+00 -4.075122691255e+06 -2.173462552659e+02 -6.057025587163e+06 -4.072859666298e+06 6.644509710002e-06 -2.630710961599e-06 -4.350110439184e-02 4.735002648238e+06 1.983035412574e+06  4.350442726587e-02
1.200000000000e-01 9.596410218120e-09 0.000000000000e+00 -4.096425428459e+06 -1.704221974128e+03 -6.082918379538e+06 -4.091737897854e+06 1.941521038884e-06 -8.482917443797e-06 -4.351497154710e-02 4.757027235284e+06 1.988843049929e+06  4.351594482057e-02
1.300000000000e-01 8.052797225955e-09 0.000000000000e+00 -4.352857634758e+06 -1.533245533838e+03 -6.467932746374e+06 -4.348316539678e+06 2.280634997098e-06 -7.676312432354e-06 -4.381925249638e-02 5.056368973603e+06 2.117350976817e+06  4.382039487546e-02
1.400000000000e-01 -3.623754960296e-10 0.000000000000e+00 -4.525971394914e+06 -1.173958269235e+03 -6.724605145625e+06 -4.520231012976e+06 -3.304189990856e-07 -6.019820502796e-06 -4.400378744283e-02 5.256935851172e+06 2.201510493674e+06  4.400362346955e-02
1.500000000000e-01 -9.415523211519e-09 0.000000000000e+00 -4.719606856991e+06 -7.705355607934e+02 -7.014495838081e+06 -4.713641482135e+06 -8.764475249877e-07 -5.016917803429e-06 -4.416149807116e-02 5.482581392402e+06 2.297877863470e+06  4.416106070884e-02
1.600000000000e-01 -3.798500637916e-08 0.000000000000e+00 -4.814398353747e+06 -6.709417731596e+02 -7.171224530281e+06 -4.814249561059e+06 1.009468494589e-05 -4.748274376416e-06 -4.428472761588e-02 5.599957481696e+06 2.356900862897e+06  4.428977658475e-02
1.700000000000e-01 -6.786176490706e-08 0.000000000000e+00 -4.941671512978e+06 -1.565420140555e+03 -7.346389628241e+06 -4.935224864057e+06 -1.265213562860e-06 -8.676651307008e-06 -4.440752326000e-02 5.741095335092e+06 2.407949438468e+06  4.440689320973e-02
1.800000000000e-01 -4.600973590921e-08 0.000000000000e+00 -5.071057713668e+06 -2.056459775495e+03 -7.528238658801e+06 -5.059718953250e+06 -9.951107135123e-06 -1.141519964174e-05 -4.452559504273e-02 5.886338441906e+06 2.462872476953e+06  4.452062471358e-02
1.900000000000e-01 -4.796957472764e-08 0.000000000000e+00 -5.188046447314e+06 -1.888917659225e+03 -7.708558776987e+06 -5.178642488310e+06 -5.897794882370e-06 -1.065094217591e-05 -4.464903052990e-02 6.025082570870e+06 2.525229561272e+06  4.464608573602e-02
2.000000000000e-01 -4.374489488239e-08 0.000000000000e+00 -5.318929174264e+06 -1.730005669010e+03 -7.895018494836e+06 -5.305579458528e+06 -1.348500629680e-05 -1.028989174994e-05 -4.476183882699e-02 6.173175709209e+06 2.582791792106e+06  4.475510139622e-02
2.100000000000e-01 -4.989126212703e-08 0.000000000000e+00 -5.435132956757e+06 -1.728005570419e+03 -8.071467652903e+06 -5.422640625152e+06 -1.233709324932e-05 -1.038699871257e-05 -4.487742383709e-02 6.309747078271e+06 2.642604702507e+06  4.487126016911e-02
2.200000000000e-01 -2.124305336364e-08 0.000000000000e+00 -5.561540308798e+06 -3.015170438363e+03 -8.261772856990e+06 -5.549325635592e+06 -1.119441844943e-05 -1.536847545884e-05 -4.499070828688e-02 6.457546267127e+06 2.706365596971e+06  4.498511999790e-02
2.300000000000e-01 -2.354959071226e-08 0.000000000000e+00 -5.723781224051e+06 -6.045748560730e+03 -8.493356319970e+06 -5.706855369787e+06 -1.866455989349e-05 -2.560667438650e-05 -4.508658243271e-02 6.641330971270e+06 2.778096429959e+06  4.507727487010e-02
2.400000000000e-01 -2.264579816629e-08 0.000000000000e+00 -5.811852164719e+06 -5.396651716928e+03 -8.639121126525e+06 -5.800389650448e+06 -1.144812994249e-05 -2.216259478647e-05 -4.517105630449e-02 6.750454313897e+06 2.833033030869e+06  4.516534964044e-02
2.500000000000e-01 -1.889610658004e-08 0.000000000000e+00 -5.934196034618e+06 -4.895834241324e+03 -8.819467431539e+06 -5.921465700471e+06 -1.346670666398e-05 -2.083360708180e-05 -4.526441866480e-02 6.891709722209e+06 2.891670014346e+06  4.525770119972e-02
2.600000000000e-01 -2.490591549993e-08 0.000000000000e+00 -6.069073956923e+06 -4.238876759677e+03 -9.020078296210e+06 -6.055661193209e+06 -1.440208878151e-05 -1.909285313680e-05 -4.535341981454e-02 7.048271148781e+06 2.957742642772e+06  4.534623254391e-02
2.700000000000e-01 -2.859656806490e-08 0.000000000000e+00 -6.183656838416e+06 -3.760294458981e+03 -9.191990021601e+06 -6.170259012589e+06 -1.438377655186e-05 -1.783494191994e-05 -4.542865322231e-02 7.181968624202e+06 3.015061456463e+06  4.542147354660e-02
2.800000000000e-01 -2.825992542823e-08 0.000000000000e+00 -6.304534001914e+06 -3.828513365180e+03 -9.373134941579e+06 -6.291067821515e+06 -1.447205293731e-05 -1.801203685016e-05 -4.550635976536e-02 7.322912255002e+06 3.075363290946e+06  4.549913616090e-02
2.900000000000e-01 -2.838373851169e-08 0.000000000000e+00 -6.421876195614e+06 -3.831363291428e+03 -9.549009237562e+06 -6.408354392054e+06 -1.454266785256e-05 -1.802021901911e-05 -4.558039360630e-02 7.459746608410e+06 3.133922848117e+06  4.557313470077e-02
3.000000000000e-01 -2.845452655813e-08 0.000000000000e+00 -6.536448060934e+06 -3.841174372576e+03 -9.720730062493e+06 -6.522871442171e+06 -1.461098520625e-05 -1.804551903647e-05 -4.565137785219e-02 7.593349855199e+06 3.191098907376e+06  4.564408481502e-02
3.100000000000e-01 -2.852622806716e-08 0.000000000000e+00 -6.654010217317e+06 -3.850103873851e+03 -9.896934826213e+06 -6.640378183785e+06 -1.467882525027e-05 -1.806823010182e-05 -4.572293000994e-02 7.730441075772e+06 3.249768911512e+06  4.571560307647e-02
3.200000000000e-01 -2.859119595404e-08 0.000000000000e+00 -6.770290453569e+06 -3.858858996531e+03 -1.007121985738e+07 -6.756604264079e+06 -1.474395734619e-05 -1.809010170100e-05 -4.579246434565e-02 7.866038191677e+06 3.307800486494e+06  4.578510486879e-02
3.300000000000e-01 -2.865399958616e-08 0.000000000000e+00 -6.885025140075e+06 -3.867189894378e+03 -1.024319004150e+07 -6.871286185595e+06 -1.480633472387e-05 -1.811057317360e-05 -4.585990927761e-02 7.999833789058e+06 3.365062080295e+06  4.585251863300e-02
3.400000000000e-01 -2.871004857764e-08 0.000000000000e+00 -6.995820459105e+06 -3.875081318741e+03 -1.040925713861e+07 -6.982031125443e+06 -1.486491352606e-05 -1.812965153399e-05 -4.592397536764e-02 8.129036241053e+06 3.420358778957e+06  4.591655545294e-02
3.500000000000e-01 -2.876085645280e-08 0.000000000000e+00 -7.102926591306e+06 -3.882509827664e+03 -1.056979595213e+07 -7.089089077424e+06 -1.492006076560e-05 -1.814734043582e-05 -4.598494666569e-02 8.253937206955e+06 3.473815296817e+06  4.597749919509e-02
3.600000000000e-01 -2.880620924251e-08 0.000000000000e+00 -7.206701624548e+06 -3.889598619000e+03 -1.072534296831e+07 -7.192817871343e+06 -1.497219787274e-05 -1.816397257472e-05 -4.604314722305e-02 8.374954154735e+06 3.525610159903e+06  4.603567370039e-02
3.700000000000e-01 -2.884879348750e-08 0.000000000000e+00 -7.305450788752e+06 -3.896133291929e+03 -1.087335782132e+07 -7.291523452990e+06 -1.502064728235e-05 -1.817909853072e-05 -4.609775232292e-02 8.490110687687e+06 3.574897417061e+06  4.609025459038e-02
3.800000000000e-01 -2.888620474022e-08 0.000000000000e+00 -7.400630107998e+06 -3.902329972393e+03 -1.101602318547e+07 -7.386661301863e+06 -1.506613552470e-05 -1.819325631959e-05 -4.614968652824e-02 8.601104865112e+06 3.622403986547e+06  4.614216606528e-02
3.900000000000e-01 -2.892291293117e-08 0.000000000000e+00 -7.498551384457e+06 -3.908557658614e+03 -1.116279872234e+07 -7.484540003578e+06 -1.511222322521e-05 -1.820730611677e-05 -4.620242259674e-02 8.715296703458e+06 3.671279323007e+06  4.619487910343e-02
4.000000000000e-01 -2.895568740323e-08 0.000000000000e+00 -7.597703582596e+06 -3.914796736394e+03 -1.131142056507e+07 -7.583649597289e+06 -1.515773618976e-05 -1.822119885799e-05 -4.625512294810e-02 8.830924581651e+06 3.720770060244e+06  4.624755671153e-02
4.100000000000e-01 -2.898888061525e-08 0.000000000000e+00 -7.697113838963e+06 -3.920857778755e+03 -1.146043012850e+07 -7.683017503649e+06 -1.520238624969e-05 -1.823452789457e-05 -4.630727253304e-02 8.946853823702e+06 3.770390336479e+06  4.629968398393e-02
4.200000000000e-01 -2.902083731035e-08 0.000000000000e+00 -7.795894928869e+06 -3.926730239929e+03 -1.160849756187e+07 -7.781756892570e+06 -1.524578543967e-05 -1.824728278838e-05 -4.635842710545e-02 9.062049794437e+06 3.819697330064e+06  4.635081686856e-02
4.300000000000e-01 -2.904959806050e-08 0.000000000000e+00 -7.895230086723e+06 -3.932535049049e+03 -1.175739627374e+07 -7.881050421315e+06 -1.528855737116e-05 -1.825973547935e-05 -4.640921729857e-02 9.177892260594e+06 3.869281501501e+06  4.640158568711e-02
4.400000000000e-01 -2.907663530516e-08 0.000000000000e+00 -7.992776097965e+06 -3.938107351868e+03 -1.190361407000e+07 -7.978555926483e+06 -1.532965559551e-05 -1.827154592474e-05 -4.645847251404e-02 9.291648698149e+06 3.917973349763e+06  4.645082036413e-02
4.500000000000e-01 -2.910225947416e-08 0.000000000000e+00 -8.090560276438e+06 -3.943564515365e+03 -1.205018961466e+07 -8.076299799274e+06 -1.537004985095e-05 -1.828297730195e-05 -4.650724665867e-02 9.405683230123e+06 3.966784682354e+06  4.649957432182e-02
4.600000000000e-01 -2.912594050001e-08 0.000000000000e+00 -8.188600332491e+06 -3.948934219463e+03 -1.219714953039e+07 -8.174299772948e+06 -1.540973313136e-05 -1.829409395960e-05 -4.655555862093e-02 9.520016545278e+06 4.015724399999e+06  4.654786645222e-02
4.700000000000e-01 -2.914785117035e-08 0.000000000000e+00 -8.286418281691e+06 -3.954198723655e+03 -1.234377752843e+07 -8.272078138256e+06 -1.544845378641e-05 -1.830486638992e-05 -4.660318660503e-02 9.634091316125e+06 4.064554061323e+06  4.659547508534e-02
4.800000000000e-01 -2.916793400362e-08 0.000000000000e+00 -8.384338659040e+06 -3.959322205822e+03 -1.249055914812e+07 -8.369958924974e+06 -1.548672069584e-05 -1.831523488296e-05 -4.665030276237e-02 9.748285577379e+06 4.113434923403e+06  4.664257211812e-02
4.900000000000e-01 -2.918372605750e-08 0.000000000000e+00 -8.481325918897e+06 -3.964360869195e+03 -1.263594319613e+07 -8.466907437525e+06 -1.552373597979e-05 -1.832531479751e-05 -4.669642922308e-02 9.861392184183e+06 4.161850914335e+06  4.668868007971e-02
5.000000000000e-01 -2.919945975173e-08 0.000000000000e+00 -8.578842792442e+06 -3.969304827898e+03 -1.278212185092e+07 -8.564385639786e+06 -1.556025481186e-05 -1.833509757339e-05 -4.674227750146e-02 9.975116761050e+06 4.210531862587e+06  4.673451010682e-02
5.100000000000e-01 -2.921288314785e-08 0.000000000000e+00 -8.675365441728e+06 -3.974106350228e+03 -1.292681056615e+07 -8.660870178040e+06 -1.559583531542e-05 -1.834449570748e-05 -4.678714628680e-02 1.008768206197e+07 4.258716820519e+06  4.677936110964e-02
5.200000000000e-01 -2.922464165066e-08 0.000000000000e+00 -8.772098088943e+06 -3.978832585729e+03 -1.307181497438e+07 -8.757564994184e+06 -1.563076072144e-05 -1.835364769347e-05 -4.683161349307e-02 1.020049268584e+07 4.307007335964e+06  4.682381086060e-02
5.300000000000e-01 -2.923427537832e-08 0.000000000000e+00 -8.868350111502e+06 -3.983402517730e+03 -1.321609980475e+07 -8.853779730827e+06 -1.566480342933e-05 -1.836240876224e-05 -4.687537449705e-02 1.031274321569e+07 4.355058628968e+06  4.686755485015e-02
5.400000000000e-01 -2.924424335429e-08 0.000000000000e+00 -8.964131576413e+06 -3.987965357363e+03 -1.335967941949e+07 -8.949524159650e+06 -1.569825053364e-05 -1.837105494961e-05 -4.691845107440e-02 1.042444505185e+07 4.402875143389e+06  4.691061471079e-02
5.500000000000e-01 -2.925128967840e-08 0.000000000000e+00 -9.058883923503e+06 -3.992280154804e+03 -1.350171668869e+07 -9.044240004594e+06 -1.573086262092e-05 -1.837915963146e-05 -4.696061285025e-02 1.053494687226e+07 4.450178167379e+06  4.695276018683e-02
5.600000000000e-01 -2.925720753072e-08 0.000000000000e+00 -9.152291578156e+06 -3.996520038356e+03 -1.364173958767e+07 -9.137612225916e+06 -1.576219189241e-05 -1.838703929780e-05 -4.700174595630e-02 1.064388113058e+07 4.496810983212e+06  4.699387763419e-02
5.700000000000e-01 -2.926205687954e-08 0.000000000000e+00 -9.246005273584e+06 -4.000706030590e+03 -1.378222144379e+07 -9.231290447803e+06 -1.579323467694e-05 -1.839474210989e-05 -4.704259292747e-02 1.075317238839e+07 4.543596737882e+06  4.703470908973e-02
5.800000000000e-01 -2.926554522683e-08 0.000000000000e+00 -9.338093633650e+06 -4.004636246349e+03 -1.392026686983e+07 -9.323343964880e+06 -1.582341666256e-05 -1.840191520154e-05 -4.708232865080e-02 1.086056815612e+07 4.589571087577e+06  4.707442972730e-02
5.900000000000e-01 -2.926831017250e-08 0.000000000000e+00 -9.428654205748e+06 -4.008497342830e+03 -1.405602298904e+07 -9.413870645351e+06 -1.585248766209e-05 -1.840889068147e-05 -4.712102387818e-02 1.096618261338e+07 4.634783446965e+06  4.711311042419e-02
6.000000000000e-01 -2.926989002502e-08 0.000000000000e+00 -9.518460821594e+06 -4.012232051436e+03 -1.419064930125e+07 -9.503643821789e+06 -1.588089527039e-05 -1.841557938468e-05 -4.715903063229e-02 1.107091798154e+07 4.679619732701e+06  4.715110297920e-02
6.100000000000e-01 -2.927046063767e-08 0.000000000000e+00 -9.608303775139e+06 -4.015918860313e+03 -1.432533060859e+07 -9.593453532578e+06 -1.590886864377e-05 -1.842212219741e-05 -4.719669481873e-02 1.117569597210e+07 4.724474579536e+06  4.718875318347e-02
6.200000000000e-01 -2.927013628806e-08 0.000000000000e+00 -9.695611378548e+06 -4.019437045635e+03 -1.445621181668e+07 -9.680729064767e+06 -1.593560675772e-05 -1.842831160747e-05 -4.723295915309e-02 1.127751742000e+07 4.768064096879e+06  4.722500415295e-02
6.300000000000e-01 -2.926943579798e-08 0.000000000000e+00 -9.782151167294e+06 -4.022833142596e+03 -1.458594215986e+07 -9.767237126228e+06 -1.596181949870e-05 -1.843423843099e-05 -4.726858274708e-02 1.137844348446e+07 4.811270395084e+06  4.726061464449e-02
6.400000000000e-01 -2.926805842524e-08 0.000000000000e+00 -9.866666756306e+06 -4.026040924120e+03 -1.471263810288e+07 -9.851721748764e+06 -1.598717835334e-05 -1.843979538733e-05 -4.730306907442e-02 1.147700886932e+07 4.853466117158e+06  4.729508829599e-02
6.500000000000e-01 -2.926584626962e-08 0.000000000000e+00 -9.948644828667e+06 -4.029108831310e+03 -1.483553100790e+07 -9.933670150414e+06 -1.601127119515e-05 -1.844506775118e-05 -4.733623821089e-02 1.157261532899e+07 4.894395674556e+06  4.732824538934e-02
6.600000000000e-01 -2.926343699790e-08 0.000000000000e+00 -1.003060661056e+07 -4.032224328274e+03 -1.495840008303e+07 -1.001560250482e+07 -1.603496980333e-05 -1.845037090214e-05 -4.736912813518e-02 1.166820306614e+07 4.935317572485e+06  4.736112346763e-02
6.700000000000e-01 -2.926091711279e-08 0.000000000000e+00 -1.011106951994e+07 -4.035146783693e+03 -1.507902183677e+07 -1.009603638251e+07 -1.605815822377e-05 -1.845531551085e-05 -4.740115510808e-02 1.176204257974e+07 4.975490827506e+06  4.739313884933e-02
6.800000000000e-01 -2.925671685517e-08 0.000000000000e+00 -1.019041964156e+07 -4.037969753576e+03 -1.519797611490e+07 -1.017535815562e+07 -1.608062167638e-05 -1.846005865938e-05 -4.743249002062e-02 1.185458463736e+07 5.015109055546e+06  4.742446253292e-02
6.900000000000e-01 -2.925286474612e-08 0.000000000000e+00 -1.026815875240e+07 -4.040719889473e+03 -1.531451561145e+07 -1.025306961248e+07 -1.610236543361e-05 -1.846464331445e-05 -4.746295232912e-02 1.194524799211e+07 5.053923168978e+06  4.745491397220e-02
7.000000000000e-01 -2.924907260276e-08 0.000000000000e+00 -1.034657145740e+07 -4.043412232731e+03 -1.543206480908e+07 -1.033145438807e+07 -1.612415756455e-05 -1.846910301334e-05 -4.749344522511e-02 1.203669688485e+07 5.093073527733e+06  4.748539597464e-02
7.100000000000e-01 -2.924335171001e-08 0.000000000000e+00 -1.042271441684e+07 -4.046014453085e+03 -1.554621244567e+07 -1.040757064158e+07 -1.614483982096e-05 -1.847338212321e-05 -4.752283474960e-02 1.212549916803e+07 5.131091462718e+06  4.751477516032e-02
7.200000000000e-01 -2.923750322492e-08 0.000000000000e+00 -1.049990318077e+07 -4.048593953974e+03 -1.566192767985e+07 -1.048473225640e+07 -1.616570924457e-05 -1.847759631019e-05 -4.755240901412e-02 1.221552103901e+07 5.169631412655e+06  4.754433899239e-02
7.300000000000e-01 -2.923205862158e-08 0.000000000000e+00 -1.057594118492e+07 -4.051081267739e+03 -1.577591814484e+07 -1.056074366005e+07 -1.618600760333e-05 -1.848163378613e-05 -4.758133003215e-02 1.230420099660e+07 5.207597081319e+06  4.757324986332e-02
7.400000000000e-01 -2.922580554462e-08 0.000000000000e+00 -1.065076090097e+07 -4.053513136586e+03 -1.588808257138e+07 -1.063553733343e+07 -1.620573786726e-05 -1.848555334492e-05 -4.760958490493e-02 1.239146026860e+07 5.244954723296e+06  4.760149487295e-02
7.500000000000e-01 -2.921930068269e-08 0.000000000000e+00 -1.072450258243e+07 -4.055842225493e+03 -1.599863105468e+07 -1.070925341596e+07 -1.622499602749e-05 -1.848928640505e-05 -4.763723857386e-02 1.247746235102e+07 5.281774237083e+06  4.762913891461e-02
7.600000000000e-01 -2.921244064092e-08 0.000000000000e+00 -1.079757541482e+07 -4.058097116971e+03 -1.610817705704e+07 -1.078230096668e+07 -1.624388470282e-05 -1.849287982476e-05 -4.766445402108e-02 1.256268447951e+07 5.318259962148e+06  4.765634491918e-02
7.700000000000e-01 -2.920480228955e-08 0.000000000000e+00 -1.087039471485e+07 -4.060330828411e+03 -1.621734324160e+07 -1.085509517749e+07 -1.626250240704e-05 -1.849641557363e-05 -4.769139204274e-02 1.264761104465e+07 5.354619306841e+06  4.768327363361e-02
7.800000000000e-01 -2.919757202621e-08 0.000000000000e+00 -1.094226829124e+07 -4.062501183667e+03 -1.632509191830e+07 -1.092694409576e+07 -1.628067813528e-05 -1.849983023922e-05 -4.771780340761e-02 1.273143476843e+07 5.390506653763e+06  4.770967591212e-02
7.900000000000e-01 -2.918992754877e-08 0.000000000000e+00 -1.101393858928e+07 -4.064627184584e+03 -1.643253604342e+07 -1.099858988209e+07 -1.629862691024e-05 -1.850315586851e-05 -4.774396750759e-02 1.281502150493e+07 5.426292655408e+06  4.773583103915e-02
8.000000000000e-01 -2.918204400335e-08 0.000000000000e+00 -1.108463321562e+07 -4.066686313850e+03 -1.653851774558e+07 -1.106926043049e+07 -1.631614364871e-05 -1.850635882458e-05 -4.776960875772e-02 1.289747046390e+07 5.461591690843e+06  4.776146353222e-02
8.100000000000e-01 -2.917387877583e-08 0.000000000000e+00 -1.115478783705e+07 -4.068693245187e+03 -1.664369009428e+07 -1.113939123543e+07 -1.633335961543e-05 -1.850946338990e-05 -4.779489261462e-02 1.297928972225e+07 5.496621248449e+06  4.778673878236e-02
8.200000000000e-01 -2.916541941412e-08 0.000000000000e+00 -1.122469783778e+07 -4.070656539437e+03 -1.674849591079e+07 -1.120927757905e+07 -1.635035255522e-05 -1.851248410316e-05 -4.781993027761e-02 1.306082377587e+07 5.531528815976e+06  4.781176795002e-02
8.300000000000e-01 -2.915709257967e-08 0.000000000000e+00 -1.129257244482e+07 -4.072503273675e+03 -1.685025046653e+07 -1.127712926066e+07 -1.636671822828e-05 -1.851531301236e-05 -4.784408973900e-02 1.313998405734e+07 5.565420153593e+06  4.783591922956e-02
8.400000000000e-01 -2.914806817217e-08 0.000000000000e+00 -1.136034124240e+07 -4.074397279145e+03 -1.695184700377e+07 -1.134487541079e+07 -1.638278859114e-05 -1.851819111394e-05 -4.786806698454e-02 1.321902121899e+07 5.599259143856e+06  4.785988844096e-02
8.500000000000e-01 -2.913911744465e-08 0.000000000000e+00 -1.142796419778e+07 -4.076184274998e+03 -1.705322464943e+07 -1.141247566708e+07 -1.639879857945e-05 -1.852089960933e-05 -4.789185000671e-02 1.329788817143e+07 5.633025111645e+06  4.788366345900e-02
8.600000000000e-01 -2.913005308934e-08 0.000000000000e+00 -1.149514765333e+07 -4.077929789063e+03 -1.715394352830e+07 -1.147963661634e+07 -1.641457848669e-05 -1.852353181600e-05 -4.791533916995e-02 1.337624259932e+07 5.666571717319e+06  4.790714473309e-02
8.700000000000e-01 -2.912068792203e-08 0.000000000000e+00 -1.156188356606e+07 -4.079607720479e+03 -1.725399166643e+07 -1.154635025173e+07 -1.643010648242e-05 -1.852605259792e-05 -4.793853605318e-02 1.345407516141e+07 5.699895011673e+06  4.793033385302e-02
8.800000000000e-01 -2.911143357031e-08 0.000000000000e+00 -1.162743939033e+07 -4.081278092302e+03 -1.735227097069e+07 -1.161188431772e+07 -1.644518582904e-05 -1.852854426652e-05 -4.796119247581e-02 1.353053155958e+07 5.732629302968e+06  4.795298273668e-02
8.900000000000e-01 -2.910183146933e-08 0.000000000000e+00 -1.169224900309e+07 -4.082891277401e+03 -1.744943174144e+07 -1.167667248517e+07 -1.645996449474e-05 -1.853094061153e-05 -4.798346549657e-02 1.360611774323e+07 5.764991117140e+06  4.797524836872e-02
9.000000000000e-01 -2.909178996772e-08 0.000000000000e+00 -1.175749255691e+07 -4.084464452545e+03 -1.754724311006e+07 -1.174189446762e+07 -1.647474683386e-05 -1.853326914729e-05 -4.800576304228e-02 1.368221004486e+07 5.797569651393e+06  4.799753852379e-02
9.100000000000e-01 -2.908226647983e-08 0.000000000000e+00 -1.182158794016e+07 -4.086007974942e+03 -1.764333369033e+07 -1.180596886591e+07 -1.648904835410e-05 -1.853554061506e-05 -4.802754787560e-02 1.375696349880e+07 5.829575276180e+06  4.801931620683e-02
9.200000000000e-01 -2.907235104995e-08 0.000000000000e+00 -1.188479437816e+07 -4.087513992780e+03 -1.773809147817e+07 -1.186915456849e+07 -1.650310305823e-05 -1.853774603832e-05 -4.804891483329e-02 1.383068014161e+07 5.861136930713e+06  4.804067613763e-02
9.300000000000e-01 -2.906235534282e-08 0.000000000000e+00 -1.194841925884e+07 -4.088993941538e+03 -1.783347649649e+07 -1.193275853966e+07 -1.651719986065e-05 -1.853990498928e-05 -4.807030850409e-02 1.390488476500e+07 5.892907460406e+06  4.806206276043e-02
9.400000000000e-01 -2.905238437068e-08 0.000000000000e+00 -1.201055613540e+07 -4.090405249168e+03 -1.792663109536e+07 -1.199487514070e+07 -1.653079699510e-05 -1.854195595335e-05 -4.809109195746e-02 1.397735412382e+07 5.923935259592e+06  4.808283941556e-02
9.500000000000e-01 -2.904215677286e-08 0.000000000000e+00 -1.207241466824e+07 -4.091793735817e+03 -1.801936850868e+07 -1.205671352931e+07 -1.654423599661e-05 -1.854396466801e-05 -4.811167555483e-02 1.404949890208e+07 5.954824152137e+06  4.810341629371e-02
9.600000000000e-01 -2.903194210546e-08 0.000000000000e+00 -1.213407582551e+07 -4.093149415433e+03 -1.811181020730e+07 -1.211835468104e+07 -1.655751401100e-05 -1.854591834494e-05 -4.813208859349e-02 1.412141357128e+07 5.985614636859e+06  4.812382269360e-02
9.700000000000e-01 -2.902155964172e-08 0.000000000000e+00 -1.219498915850e+07 -4.094468042435e+03 -1.820313085157e+07 -1.217924828055e+07 -1.657054488753e-05 -1.854781085049e-05 -4.815215221257e-02 1.419245609687e+07 6.016031756760e+06  4.814387979744e-02
9.800000000000e-01 -2.901125125930e-08 0.000000000000e+00 -1.225540375900e+07 -4.095754260955e+03 -1.829370400766e+07 -1.223964339098e+07 -1.658335087174e-05 -1.854964944613e-05 -4.817195263638e-02 1.426291705255e+07 6.046200000159e+06  4.816367381839e-02
9.900000000000e-01 -2.900073898770e-08 0.000000000000e+00 -1.231546713815e+07 -4.097008278739e+03 -1.838375065489e+07 -1.229968740852e+07 -1.659600950159e-05 -1.855143557599e-05 -4.819154119910e-02 1.433296840052e+07 6.076192892680e+06  4.818325605191e-02
1.000000000000e+00 -2.899034092086e-08 0.000000000000e+00 -1.237500750134e+07 -4.098226630561e+03 -1.847301340936e+07 -1.235920866173e+07 -1.660844280698e-05 -1.855316469528e-05 -4.821086496164e-02 1.440240985748e+07 6.105924783455e+06  4.820257359785e-02
1.050000000000e+00 -2.893793167102e-08 0.000000000000e+00 -1.263975735762e+07 -4.095086710275e+03 -1.886995533236e+07 -1.262388538079e+07 -1.666944599009e-05 -1.856164749324e-05 -4.830577602358e-02 1.471119935692e+07 6.238153139452e+06  4.829745415848e-02
1.100000000000e+00 -3.336630765797e-08 0.000000000000e+00 -1.291660041906e+07 -4.865425544113e+03 -1.929489890043e+07 -1.290460002187e+07 -1.416978118471e-05 -2.023002291858e-05 -4.840554704042e-02 1.503869978045e+07 6.384312700613e+06  4.839847638942e-02
1.150000000000e+00 -3.842021943556e-08 0.000000000000e+00 -1.319714368921e+07 -5.829259579273e+03 -1.972847681021e+07 -1.319024846326e+07 -1.105026215946e-05 -2.144032606178e-05 -4.849645187564e-02 1.537195632090e+07 6.534791262164e+06  4.849094190867e-02
1.200000000000e+00 -3.814919373057e-08 0.000000000000e+00 -1.345851183418e+07 -5.699442389229e+03 -2.011900557742e+07 -1.345100718056e+07 -1.141571528425e-05 -2.128244140380e-05 -4.857452805733e-02 1.567617486405e+07 6.664256550659e+06  4.856883519455e-02
1.250000000000e+00 -3.820390345805e-08 0.000000000000e+00 -1.370672637509e+07 -5.723261517449e+03 -2.049149790901e+07 -1.369928986777e+07 -1.137604234194e-05 -2.131182133646e-05 -4.864785539423e-02 1.596583805062e+07 6.788500080237e+06  4.864218237693e-02
1.300000000000e+00 -3.821605758393e-08 0.000000000000e+00 -1.394267123097e+07 -5.728161959882e+03 -2.084538970010e+07 -1.393522445371e+07 -1.138231670739e-05 -2.131833737721e-05 -4.871626648454e-02 1.624109512826e+07 6.906451995122e+06  4.871059031864e-02