 TITLE = "Profiles along polylines"
 VARIABLES = "DIST" "DISPLACEMENT_X1" "DISPLACEMENT_Y1" "STRESS_XX" "STRESS_XY" "STRESS_YY" "STRESS_ZZ" "STRAIN_XX" "STRAIN_XY" "STRAIN_YY"  p_(1st_Invariant)  q_(2nd_Invariant)   Effective_Strain
 ZONE T="TIME=0.000000000000e+00"
0.000000000000e+00 0.000000000000e+00 0.000000000000e+00 -1.000000000000e+05 0.000000000000e+00 -1.000000000000e+05 -1.000000000000e+05 0.000000000000e+00 0.000000000000e+00 0.000000000000e+00 1.000000000000e+05 0.000000000000e+00  0.000000000000e+00
5.000000000000e-03 0.000000000000e+00 0.000000000000e+00 -1.000000000000e+05 0.000000000000e+00 -1.000000000000e+05 -1.000000000000e+05 0.000000000000e+00 0.000000000000e+00 0.000000000000e+00 1.000000000000e+05 0.000000000000e+00  0.000000000000e+00
1.000000000000e-02 0.000000000000e+00 0.000000000000e+00 -1.000000000000e+05 0.000000000000e+00 -1.000000000000e+05 -1.000000000000e+05 0.000000000000e+00 0.000000000000e+00 0.000000000000e+00 1.000000000000e+05 0.000000000000e+00  0.000000000000e+00
1.500000000000e-02 0.000000000000e+00 0.000000000000e+00 -1.000000000000e+05 0.000000000000e+00 -1.000000000000e+05 -1.000000000000e+05 0.000000000000e+00 0.000000000000e+00 0.000000000000e+00 1.000000000000e+05 0.000000000000e+00  0.000000000000e+00
2.000000000000e-02 0.000000000000e+00 0.000000000000e+00 -1.000000000000e+05 0.000000000000e+00 -1.000000000000e+05 -1.000000000000e+05 0.000000000000e+00 0.000000000000e+00 0.000000000000e+00 1.000000000000e+05 0.000000000000e+00  0.000000000000e+00
2.500000000000e-02 0.000000000000e+00 0.000000000000e+00 -1.000000000000e+05 0.000000000000e+00 -1.000000000000e+05 -1.000000000000e+05 0.000000000000e+00 0.000000000000e+00 0.000000000000e+00 1.000000000000e+05 0.000000000000e+00  0.000000000000e+00
3.000000000000e-02 0.000000000000e+00 0.000000000000e+00 -1.000000000000e+05 0.000000000000e+00 -1.000000000000e+05 -1.000000000000e+05 0.000000000000e+00 0.000000000000e+00 0.000000000000e+00 1.000000000000e+05 0.000000000000e+00  0.000000000000e+00
3.500000000000e-02 0.000000000000e+00 0.000000000000e+00 -1.000000000000e+05 0.000000000000e+00 -1.000000000000e+05 -1.000000000000e+05 0.000000000000e+00 0.000000000000e+00 0.000000000000e+00 1.000000000000e+05 0.000000000000e+00  0.000000000000e+00
4.000000000000e-02 0.000000000000e+00 0.000000000000e+00 -1.000000000000e+05 0.000000000000e+00 -1.000000000000e+05 -1.000000000000e+05 0.000000000000e+00 0.000000000000e+00 0.000000000000e+00 1.000000000000e+05 0.000000000000e+00  0.000000000000e+00
4.500000000000e-02 0.000000000000e+00 0.000000000000e+00 -1.000000000000e+05 0.000000000000e+00 -1.000000000000e+05 -1.000000000000e+05 0.000000000000e+00 0.000000000000e+00 0.000000000000e+00 1.000000000000e+05 0.000000000000e+00  0.000000000000e+00
5.000000000000e-02 0.000000000000e+00 0.000000000000e+00 -1.000000000000e+05 0.000000000000e+00 -1.000000000000e+05 -1.000000000000e+05 0.000000000000e+00 0.000000000000e+00 0.000000000000e+00 1.000000000000e+05 0.000000000000e+00  0.000000000000e+00
 TITLE = "Profiles along polylines"
 VARIABLES = "DIST" "DISPLACEMENT_X1" "DISPLACEMENT_Y1" "STRESS_XX" "STRESS_XY" "STRESS_YY" "STRESS_ZZ" "STRAIN_XX" "STRAIN_XY" "STRAIN_YY"  p_(1st_Invariant)  q_(2nd_Invariant)   Effective_Strain
 ZONE T="TIME=1.000000000000e-02"
0.000000000000e+00 0.000000000000e+00 0.000000000000e+00 -1.538560128997e+06 5.594733946911e+02 -2.263602258129e+06 -1.540864932746e+06 1.179391453828e-05 7.074952383569e-06 -4.067223990879e-02 1.781009106624e+06 7.238931277136e+05  4.067813999412e-02
5.000000000000e-03 0.000000000000e+00 2.033183440756e-04 -1.533246722226e+06 2.012373715183e+03 -2.256034225458e+06 -1.535712413328e+06 9.913905173933e-06 2.083858969205e-05 -4.067508434428e-02 1.774997787004e+06 7.215662358302e+05  4.068005821492e-02
1.000000000000e-02 0.000000000000e+00 4.069435318107e-04 -1.535243903448e+06 -1.018043845153e+03 -2.266053344977e+06 -1.540518796149e+06 5.160745901749e-05 -6.755434676934e-05 -4.060030557934e-02 1.780605348192e+06 7.281884592409e+05  4.062630238947e-02
1.500000000000e-02 0.000000000000e+00 6.102447772003e-04 -1.529288827905e+06 -6.190966585913e+03 -2.274282567937e+06 -1.541428410420e+06 1.855659684910e-04 -2.867684582135e-04 -4.080694566404e-02 1.781666602087e+06 7.390765274119e+05  4.090306025220e-02
2.000000000000e-02 0.000000000000e+00 8.116701060247e-04 -1.547444579452e+06 -1.205113234721e+04 -2.301248077160e+06 -1.559478485485e+06 -3.413138183107e-04 -4.591607407330e-05 -3.955655999305e-02 1.802723714032e+06 7.481503972899e+05  3.938709252958e-02
2.500000000000e-02 0.000000000000e+00 1.012412865460e-03 -1.593792786309e+06 -3.762350334310e+04 -2.164807667975e+06 -1.523429678105e+06 -2.873016591616e-03 5.525839465515e-04 -3.819385251033e-02 1.760676710796e+06 6.127266339868e+05  3.685388811253e-02
3.000000000000e-02 0.000000000000e+00 1.191479305599e-03 -1.382396925457e+06 1.334133212505e+04 -1.777775739931e+06 -1.284091655977e+06 -9.130051364617e-03 3.343230953782e-03 -4.788577402481e-02 1.481421440455e+06 4.531998756333e+05  4.441550624529e-02
3.500000000000e-02 0.000000000000e+00 1.445338242547e-03 -1.468082458467e+06 6.176049025739e+04 -2.735244329785e+06 -1.701467144381e+06 1.653369350887e-02 -1.491124954635e-02 -6.766484149056e-02 1.968264644211e+06 1.172976776782e+06  8.147195612368e-02
4.000000000000e-02 0.000000000000e+00 1.436536716383e-03 -7.003975731687e+05 8.724066139274e+05 1.882434544564e+06 4.536457306449e+05 -3.980912477905e-02 3.237891923630e-02 1.494112891545e-01 -5.452275673467e+05 2.702853581901e+06  1.816634680627e-01
4.500000000000e-02 0.000000000000e+00 2.358243593269e-03 -7.340822799211e+06 -4.776705435833e+05 -8.727566937715e+06 -5.325153671898e+06 -6.746009367648e-01 1.336175764442e-01 -3.651049757402e-01 7.131181136275e+06 3.076638771219e+06  6.290062628837e-01
5.000000000000e-02 0.000000000000e+00 0.000000000000e+00 2.167132687089e+06 3.274803867293e+06 4.396663216500e+07 1.233256194036e+07 -1.089840216483e-01 -2.006351211764e-02 1.140652710223e+00 -1.948877559748e+07 3.818111149312e+07  1.199369282387e+00
 TITLE = "Profiles along polylines"
 VARIABLES = "DIST" "DISPLACEMENT_X1" "DISPLACEMENT_Y1" "STRESS_XX" "STRESS_XY" "STRESS_YY" "STRESS_ZZ" "STRAIN_XX" "STRAIN_XY" "STRAIN_YY"  p_(1st_Invariant)  q_(2nd_Invariant)   Effective_Strain
 ZONE T="TIME=1.000000000000e-01"
0.000000000000e+00 0.000000000000e+00 0.000000000000e+00 -4.034079548338e+06 2.469116070676e+03 -6.082515017636e+06 -4.066637505582e+06 8.274875960588e-05 1.755416859571e-05 -4.335348151700e-02 4.727744023852e+06 2.032356589685e+06  4.339492572028e-02
5.000000000000e-03 0.000000000000e+00 2.165908936736e-04 -3.951155622414e+06 8.730358981372e+03 -5.877347654859e+06 -3.951401760536e+06 2.922477289245e-06 5.240926316542e-05 -4.329924032062e-02 4.593301679270e+06 1.926128332862e+06  4.330079678393e-02
1.000000000000e-02 0.000000000000e+00 4.332878527047e-04 -3.979640444256e+06 1.023702300236e+04 -5.963128413917e+06 -3.997106702794e+06 7.685849386274e-05 -9.127770053935e-06 -4.318799493931e-02 4.646625186989e+06 1.974892369779e+06  4.322647832404e-02
1.500000000000e-02 0.000000000000e+00 6.494314992836e-04 -3.981981494727e+06 -6.462944666031e+03 -5.964146728305e+06 -3.998435649906e+06 1.819037509993e-04 -2.600340789352e-04 -4.342348075500e-02 4.648187957646e+06 1.974021328923e+06  4.351704857929e-02
2.000000000000e-02 0.000000000000e+00 8.648806221072e-04 -3.961660818431e+06 -7.944349662348e+04 -6.041365686478e+06 -4.021284533295e+06 -2.058633538323e-04 -4.081277055642e-04 -4.232623651376e-02 4.674770346068e+06 2.055154836738e+06  4.222959816062e-02
2.500000000000e-02 0.000000000000e+00 1.081514186284e-03 -4.076173723042e+06 -4.600946230840e+05 -6.686551241708e+06 -4.324692355582e+06 -1.854079155333e-03 -2.270983515617e-03 -4.170687138354e-02 5.029139106777e+06 2.619573636281e+06  4.100054862603e-02
3.000000000000e-02 0.000000000000e+00 1.279262641856e-03 -4.135146594726e+06 3.867545999145e+05 -6.301248400745e+06 -4.195359041964e+06 -8.689252243184e-03 5.774570278655e-03 -5.121106781755e-02 4.877251345812e+06 2.239181467367e+06  4.850904731449e-02
3.500000000000e-02 0.000000000000e+00 1.552043340430e-03 -5.049624175944e+06 8.604362883662e+05 -5.427706880001e+06 -4.213356818009e+06 1.252985916096e-02 -9.253002497282e-03 -6.514200737796e-02 4.896895957984e+06 1.838346993380e+06  7.398346328320e-02
4.000000000000e-02 0.000000000000e+00 1.639094087314e-03 -2.433751723404e+06 -1.899827668078e+05 2.199253159518e+06 -1.019474419302e+05 -5.121052435988e-02 4.938386376927e-03 1.245620054515e-01 1.121486686056e+05 4.025799943520e+06  1.568128170840e-01
4.500000000000e-02 0.000000000000e+00 2.622850485249e-03 4.961486607331e+05 -8.070130297894e+05 -1.341674626281e+07 -2.258540342782e+06 -5.733148435640e-01 2.360239990768e-01 -3.025805708906e-01 5.059712648287e+06 1.283686363944e+07  6.433451355891e-01
5.000000000000e-02 0.000000000000e+00 0.000000000000e+00 -2.270476906538e+07 9.368284810952e+06 4.845407780575e+07 -2.216268526119e+06 -1.223856708053e+00 1.290664230447e-01 1.055447688391e+00 -7.844346738085e+06 6.548829170762e+07  1.988337552551e+00
 TITLE = "Profiles along polylines"
 VARIABLES = "DIST" "DISPLACEMENT_X1" "DISPLACEMENT_Y1" "STRESS_XX" "STRESS_XY" "STRESS_YY" "STRESS_ZZ" "STRAIN_XX" "STRAIN_XY" "STRAIN_YY"  p_(1st_Invariant)  q_(2nd_Invariant)   Effective_Strain
 ZONE T="TIME=1.000000000000e+00"
0.000000000000e+00 0.000000000000e+00 0.000000000000e+00 -1.232755014113e+07 4.068933227167e+03 -1.864366597776e+07 -1.240848595997e+07 1.514411227817e-04 2.317416613535e-05 -4.822635967701e-02 1.445990069295e+07 6.276043302112e+06  4.830227497017e-02
5.000000000000e-03 0.000000000000e+00 2.404458681102e-04 -1.239142250966e+07 -6.554791562030e+03 -1.846562473153e+07 -1.236281916970e+07 -4.040532163473e-05 1.977274900429e-05 -4.799112674271e-02 1.440662213696e+07 6.088564867863e+06  4.797094906918e-02
1.000000000000e-02 0.000000000000e+00 4.809565587904e-04 -1.233210153311e+07 4.592063737910e+03 -1.854051462716e+07 -1.236904585868e+07 1.054430309094e-04 -2.290942231476e-05 -4.790578886548e-02 1.441388733965e+07 6.190028728205e+06  4.795861373265e-02
1.500000000000e-02 0.000000000000e+00 7.207990925783e-04 -1.232987615921e+07 -1.787396792199e+04 -1.853557227937e+07 -1.236616468138e+07 2.110893890384e-04 -2.883947419159e-04 -4.819495752366e-02 1.441053770665e+07 6.187709114649e+06  4.830343101849e-02
2.000000000000e-02 0.000000000000e+00 9.601244344149e-04 -1.228994889038e+07 -2.130624543501e+05 -1.866215219763e+07 -1.240090386260e+07 -1.361321604210e-04 -7.088330979509e-04 -4.710718183895e-02 1.445100165021e+07 6.328226069147e+06  4.705528284285e-02
2.500000000000e-02 0.000000000000e+00 1.201635524685e-03 -1.260229453906e+07 -9.280218226385e+05 -1.997290905481e+07 -1.304985212942e+07 -1.606763729023e-03 -3.389927292620e-03 -4.652183078373e-02 1.520835190776e+07 7.335609393518e+06  4.611493966155e-02
3.000000000000e-02 0.000000000000e+00 1.421745403722e-03 -1.275771778307e+07 9.500101398884e+05 -1.930764618396e+07 -1.284568100726e+07 -8.604431230793e-03 7.122712963010e-03 -5.602826362335e-02 1.497034832476e+07 6.711237185712e+06  5.369646487420e-02
3.500000000000e-02 0.000000000000e+00 1.718548155077e-03 -1.360661240842e+07 1.291364766068e+06 -1.719383095300e+07 -1.235863622464e+07 1.180739647892e-02 -7.817542392614e-03 -6.874376385575e-02 1.438635986202e+07 4.889295821346e+06  7.655159347227e-02
4.000000000000e-02 0.000000000000e+00 1.851559093106e-03 -1.289585109737e+07 -1.759209723839e+06 -1.329191152974e+07 -1.038545599551e+07 -5.193375802074e-02 -1.520697235970e-03 1.122350651872e-01 1.219107287421e+07 4.091170023400e+06  1.453600748378e-01
4.500000000000e-02 0.000000000000e+00 2.850340761042e-03 4.379609112120e+06 -9.852600361358e+05 -6.984406185677e+06 2.475111647997e+06 -5.625694084602e-01 2.523623795409e-01 -2.555733453483e-01 4.322847518639e+04 1.067883083389e+07  6.550455253642e-01
5.000000000000e-02 0.000000000000e+00 0.000000000000e+00 -3.644327132453e+07 1.071314984189e+07 3.392816947867e+07 -1.666046737933e+07 -1.270310318997e+00 1.421056377399e-01 1.057762515152e+00 6.391856408396e+06 6.554135590988e+07  2.033917038595e+00
 TITLE = "Profiles along polylines"
 VARIABLES = "DIST" "DISPLACEMENT_X1" "DISPLACEMENT_Y1" "STRESS_XX" "STRESS_XY" "STRESS_YY" "STRESS_ZZ" "STRAIN_XX" "STRAIN_XY" "STRAIN_YY"  p_(1st_Invariant)  q_(2nd_Invariant)   Effective_Strain
 ZONE T="TIME=5.000000000000e+00"
0.000000000000e+00 0.000000000000e+00 0.000000000000e+00 -2.382854299940e+07 3.272262445654e+03 -3.600201020723e+07 -2.395222015806e+07 1.712316458738e-04 2.241172299804e-05 -5.091348181077e-02 2.792759112156e+07 1.211210354099e+07  5.099932800063e-02
5.000000000000e-03 0.000000000000e+00 2.538478034875e-04 -2.393705299952e+07 -2.769513375613e+04 -3.573829705200e+07 -2.389014056664e+07 -5.019984274807e-05 2.888037394182e-07 -5.065525222286e-02 2.785516353939e+07 1.182486736050e+07  5.063017096890e-02
1.000000000000e-02 0.000000000000e+00 5.076683022984e-04 -2.384690083448e+07 1.502723323151e+04 -3.584874026064e+07 -2.389825093061e+07 1.122637883101e-04 -1.050858936396e-05 -5.058257209029e-02 2.786463067524e+07 1.197627522599e+07  5.063880058694e-02
1.500000000000e-02 0.000000000000e+00 7.608958558185e-04 -2.384121811532e+07 -4.883872030490e+04 -3.583595948903e+07 -2.389086917746e+07 2.185508463919e-04 -3.192958152083e-04 -5.087044871833e-02 2.785601559394e+07 1.197029197065e+07  5.098307509706e-02
2.000000000000e-02 0.000000000000e+00 1.013864996290e-03 -2.376164990565e+07 -3.903713701565e+05 -3.599330157282e+07 -2.392216237325e+07 -1.091835634751e-04 -8.793256099023e-04 -4.980506323618e-02 2.789237128391e+07 1.217098613865e+07  4.977386855883e-02
2.500000000000e-02 0.000000000000e+00 1.268882280983e-03 -2.429936697835e+07 -1.384371336353e+06 -3.788575803721e+07 -2.489206270838e+07 -1.535064259828e-03 -3.811307190609e-03 -4.916058035317e-02 2.902572924131e+07 1.351436888117e+07  4.885931457310e-02
3.000000000000e-02 0.000000000000e+00 1.501650802622e-03 -2.460968728981e+07 1.479947421611e+06 -3.699556715882e+07 -2.465961040078e+07 -8.614135902803e-03 7.612999064968e-03 -5.866280115774e-02 2.875495494980e+07 1.262398130161e+07  5.642757747505e-02
3.500000000000e-02 0.000000000000e+00 1.811620549319e-03 -2.419157747369e+07 1.697582648072e+06 -3.292103208404e+07 -2.298057601742e+07 1.182237425568e-02 -7.448382189482e-03 -7.118885956989e-02 2.669772852505e+07 9.843101396814e+06  7.883957630718e-02
4.000000000000e-02 0.000000000000e+00 1.952671394669e-03 -1.704911067921e+07 -1.356077249307e+06 -1.895267228783e+07 -1.534193951603e+07 -5.147238341592e-02 -1.052725498483e-03 1.112528042235e-01 1.711457416102e+07 3.912099459630e+06  1.440706923358e-01
4.500000000000e-02 0.000000000000e+00 2.937783236623e-03 6.463261269209e+06 -1.206671406734e+06 -5.391054988443e+06 5.182143561236e+06 -5.606137528461e-01 2.505590711858e-01 -2.354860774026e-01 -2.084783280668e+06 1.146069237420e+07  6.527359982377e-01
5.000000000000e-02 0.000000000000e+00 0.000000000000e+00 -6.188288833098e+07 1.105724633090e+07 1.948889960657e+07 -4.350821522198e+07 -1.268120151410e+00 1.428310780954e-01 1.065118937417e+00 2.863406798213e+07 7.635839554126e+07  2.038261025495e+00
 TITLE = "Profiles along polylines"
 VARIABLES = "DIST" "DISPLACEMENT_X1" "DISPLACEMENT_Y1" "STRESS_XX" "STRESS_XY" "STRESS_YY" "STRESS_ZZ" "STRAIN_XX" "STRAIN_XY" "STRAIN_YY"  p_(1st_Invariant)  q_(2nd_Invariant)   Effective_Strain
 ZONE T="TIME=1.000000000000e+01"
0.000000000000e+00 0.000000000000e+00 0.000000000000e+00 -3.077225379207e+07 2.734292737340e+03 -4.647784896366e+07 -3.092004093786e+07 1.783292014545e-04 2.208789410652e-05 -5.194265183925e-02 3.605671456453e+07 1.563222626755e+07  5.203205970022e-02
5.000000000000e-03 0.000000000000e+00 2.589816171944e-04 -3.090632791420e+07 -4.105891345670e+04 -4.617648115540e+07 -3.085312491855e+07 -5.204371151785e-05 -7.553095135048e-06 -5.167720703938e-02 3.597864466272e+07 1.529698944133e+07  5.165120650509e-02
1.000000000000e-02 0.000000000000e+00 5.179083580091e-04 -3.079958854689e+07 1.498786836512e+04 -4.629556085062e+07 -3.085801671899e+07 1.143524810881e-04 -1.051679107109e-05 -5.160774756016e-02 3.598438870550e+07 1.546686277372e+07  5.166502192498e-02
1.500000000000e-02 0.000000000000e+00 7.762680097478e-04 -3.080213265641e+07 -6.579379203074e+04 -4.628516783303e+07 -3.085464117682e+07 2.194020375034e-04 -3.292795022250e-04 -5.189529593137e-02 3.598064722208e+07 1.545726789008e+07  5.200847128780e-02
2.000000000000e-02 0.000000000000e+00 1.034377701901e-03 -3.067093859950e+07 -4.791243650826e+05 -4.637485672509e+07 -3.084023286325e+07 -1.064442283282e-04 -9.315188557036e-04 -5.082329479435e-02 3.596200939595e+07 1.564198843681e+07  5.079578683186e-02
2.500000000000e-02 0.000000000000e+00 1.294398654550e-03 -3.093751479933e+07 -1.524021973351e+06 -4.785121811313e+07 -3.155584268563e+07 -1.526794388152e-03 -3.893712805599e-03 -5.010770554573e-02 3.678152519936e+07 1.682157554060e+07  4.982059906071e-02
3.000000000000e-02 0.000000000000e+00 1.531165441519e-03 -2.987806426121e+07 1.782767340112e+06 -4.453646107859e+07 -2.991961872673e+07 -8.616391899690e-03 7.796556452244e-03 -5.934785403293e-02 3.477804802217e+07 1.495981217633e+07  5.716121496669e-02
3.500000000000e-02 0.000000000000e+00 1.843266820507e-03 -2.685988845557e+07 1.855586932550e+06 -3.600782813429e+07 -2.582619445677e+07 1.188525559538e-02 -7.335952351796e-03 -7.129043833497e-02 2.956463701554e+07 1.022443654138e+07  7.894516812574e-02
4.000000000000e-02 0.000000000000e+00 1.981580237032e-03 -1.963678658641e+07 -1.179103911780e+06 -1.966902120149e+07 -1.828869027361e+07 -5.126474688126e-02 -8.785034103747e-04 1.123705446782e-01 1.919816602051e+07 2.456158832211e+06  1.449764684997e-01
4.500000000000e-02 0.000000000000e+00 2.956266092651e-03 1.092398226137e+06 -1.330452487556e+06 -9.114755481345e+06 1.303878566009e+05 -5.612763635063e-01 2.504114191136e-01 -2.303920664978e-01 2.630656466202e+06 1.003007350492e+07  6.533878448050e-01
5.000000000000e-02 0.000000000000e+00 0.000000000000e+00 -7.703476263268e+07 1.107751587233e+07 9.058365888467e+06 -5.808331961076e+07 -1.268252659372e+00 1.428034025354e-01 1.066153896081e+00 4.201990545166e+07 8.067049662132e+07  2.039235123144e+00
 ZONE T="TIME=1.800000000000e+01"
0.000000000000e+00 0.000000000000e+00 0.000000000000e+00 -3.753786789294e+07 2.211079786085e+03 -5.668263204604e+07 -3.770828013595e+07 1.836324872513e-04 2.183553677527e-05 -5.274225946592e-02 4.397626002497e+07 1.906012978119e+07  5.283432858589e-02
5.000000000000e-03 0.000000000000e+00 2.629681930418e-04 -3.768789802158e+07 -5.479820151414e+04 -5.633215519198e+07 -3.762839437666e+07 -5.351482446844e-05 -1.398100898618e-05 -5.247008649253e-02 4.388281586341e+07 1.867432129708e+07  5.244335514922e-02
1.000000000000e-02 0.000000000000e+00 5.258423169870e-04 -3.750904129871e+07 1.360971528294e+04 -5.636761900868e+07 -3.757294386217e+07 1.156394431245e-04 -1.118023346295e-05 -5.239588708797e-02 4.381653472318e+07 1.882672252398e+07  5.245380598597e-02
1.500000000000e-02 0.000000000000e+00 7.880845838657e-04 -3.732986305942e+07 -7.713685559588e+04 -5.605139235117e+07 -3.738201154290e+07 2.193376937858e-04 -3.347033929779e-04 -5.265847871133e-02 4.358775565116e+07 1.869598698676e+07  5.277167381824e-02
2.000000000000e-02 0.000000000000e+00 1.049814279179e-03 -3.653292726530e+07 -5.065218723877e+05 -5.505392760214e+07 -3.669697034444e+07 -1.076059416721e-04 -9.448427627327e-04 -5.149879633394e-02 4.276127507063e+07 1.846038501513e+07  5.147110072602e-02
2.500000000000e-02 0.000000000000e+00 1.312756941951e-03 -3.542104970147e+07 -1.456921248226e+06 -5.424063646368e+07 -3.601544251416e+07 -1.532648353551e-03 -3.859436661977e-03 -5.058418769530e-02 4.189237622644e+07 1.870058234863e+07  5.028187583837e-02
3.000000000000e-02 0.000000000000e+00 1.551179320690e-03 -3.274984746333e+07 1.902813267123e+06 -4.803079668700e+07 -3.280663604919e+07 -8.613342890542e-03 7.860499288862e-03 -5.951315973063e-02 3.786242673317e+07 1.560464500114e+07  5.734771968286e-02
3.500000000000e-02 0.000000000000e+00 1.862967793336e-03 -2.925818380121e+07 1.812486356586e+06 -3.761839740855e+07 -2.838348562224e+07 1.194475232602e-02 -7.365071374970e-03 -7.098163409840e-02 3.175335561067e+07 9.371566169071e+06  7.868710412441e-02
4.000000000000e-02 0.000000000000e+00 1.997347456880e-03 -2.414787242141e+07 -1.005803270861e+06 -2.221241322214e+07 -2.309406498944e+07 -5.110771586706e-02 -6.988969766966e-04 1.135233202195e-01 2.315145021099e+07 2.419055970055e+06  1.459552185426e-01
4.500000000000e-02 0.000000000000e+00 2.965361693040e-03 -8.349481819951e+06 -1.456641528063e+06 -1.541899968696e+07 -9.264446141845e+06 -5.613737413196e-01 2.502880280019e-01 -2.272521185401e-01 1.101097588292e+07 7.121256882383e+06  6.535617198855e-01
5.000000000000e-02 0.000000000000e+00 0.000000000000e+00 -8.662044321972e+07 1.117963731071e+07 -1.091715423212e+06 -6.735887653123e+07 -1.268314951616e+00 1.428249493999e-01 1.065575788570e+00 5.169034505805e+07 8.008562172292e+07  2.038812689022e+00
