 TITLE = "Time curves in points"
 VARIABLES = "TIME "  "PRESSURE1"  "PRESSURE2"  "PRESSURE_W"  "SATURATION1" SATURATION2  "VELOCITY_X1"  "VELOCITY_Y1"  "VELOCITY_X2"  "VELOCITY_Y2"  p_(1st_Invariant)  q_(2nd_Invariant)   Effective_Strain
 ZONE T="POINT=POINT6"
0.000000000000e+00 8.400000000000e+07 1.000000000000e+05 -8.390000000000e+07 6.601393844892e-01 3.398606155108e-01 0.000000000000e+00 0.000000000000e+00 0.000000000000e+00 0.000000000000e+00 1.000000000000e+05 0.000000000000e+00  0.000000000000e+00
1.000000000000e-03 8.400003165785e+07 1.000000000000e+05 -8.390003165785e+07 6.601392579556e-01 3.398607420444e-01 -3.080785564448e-12 -2.941642619620e-11 3.245157125011e-18 -2.086459089903e-15 1.183198763860e+05 7.852544420418e+03  7.579571271330e-04
2.000000000000e-03 8.400003113087e+07 1.000000000000e+05 -8.390003113087e+07 6.601392603682e-01 3.398607396318e-01 -3.034377107455e-12 -2.926997046382e-11 6.474660162102e-18 -2.103317000720e-15 2.450723271266e+05 6.218290324441e+04  2.757337894168e-02
3.000000000000e-03 8.400003060559e+07 1.000000000000e+05 -8.390003060559e+07 6.601392627652e-01 3.398607372348e-01 -2.988219155416e-12 -2.914118389334e-11 9.678668461465e-18 -2.120187224418e-15 6.190094406513e+05 2.224339509983e+05  3.586918640184e-02
4.000000000000e-03 8.400003008207e+07 1.000000000000e+05 -8.390003008207e+07 6.601392651466e-01 3.398607348534e-01 -2.942312553270e-12 -2.902972064276e-11 1.283381658859e-17 -2.137033772334e-15 1.295455587976e+06 5.123020506700e+05  3.925236852734e-02
5.000000000000e-03 8.400002956035e+07 1.000000000000e+05 -8.390002956035e+07 6.601392675122e-01 3.398607324878e-01 -2.896656018566e-12 -2.893524192202e-11 1.597835313352e-17 -2.153909586671e-15 1.549325768447e+06 6.212402992491e+05  4.003333658907e-02
6.000000000000e-03 8.400002904050e+07 1.000000000000e+05 -8.390002904050e+07 6.601392698620e-01 3.398607301380e-01 -2.851250028953e-12 -2.885741045509e-11 1.909985097465e-17 -2.170792597288e-15 1.679682982349e+06 6.780190113461e+05  4.045094482206e-02
7.000000000000e-03 8.400002852256e+07 1.000000000000e+05 -8.390002852256e+07 6.601392721960e-01 3.398607278040e-01 -2.806095236958e-12 -2.879589340453e-11 2.218272810248e-17 -2.187675685559e-15 1.723113758814e+06 6.981899182250e+05  4.059714221636e-02
8.000000000000e-03 8.400002800659e+07 1.000000000000e+05 -8.390002800659e+07 6.601392745139e-01 3.398607254861e-01 -2.761191889232e-12 -2.875036078028e-11 2.522579384050e-17 -2.204550203501e-15 1.744453741684e+06 7.065799318770e+05  4.064229935468e-02
9.000000000000e-03 8.400002749262e+07 1.000000000000e+05 -8.390002749262e+07 6.601392768159e-01 3.398607231841e-01 -2.716538958386e-12 -2.872048647380e-11 2.824999993139e-17 -2.221421718912e-15 1.758633657276e+06 7.127479412289e+05  4.067517894107e-02
1.000000000000e-02 8.400002698072e+07 1.000000000000e+05 -8.390002698072e+07 6.601392791017e-01 3.398607208983e-01 -2.672136655632e-12 -2.870595001513e-11 3.124706566048e-17 -2.238304654549e-15 1.774321929259e+06 7.194753631436e+05  4.071073516221e-02
2.000000000000e-02 8.400002210691e+07 1.000000000000e+05 -8.390002210691e+07 6.601393003076e-01 3.398606996924e-01 -2.253080322558e-12 -2.980817826561e-11 5.873581216190e-17 -2.404525703152e-15 5.086934942454e+06 2.141825815370e+06  4.536857079354e-02
3.000000000000e-02 8.400001750969e+07 1.000000000000e+05 -8.390001750969e+07 6.601393198373e-01 3.398606801627e-01 -1.858823093054e-12 -3.190408200950e-11 8.370787588221e-17 -2.566033169488e-15 2.900989248824e+06 1.203605451312e+06  4.127491173773e-02
4.000000000000e-02 8.400001321334e+07 1.000000000000e+05 -8.390001321334e+07 6.601393376852e-01 3.398606623148e-01 -1.489144898014e-12 -3.476960393308e-11 1.063904542773e-16 -2.721335338430e-15 3.416733328233e+06 1.422685671628e+06  4.192776770859e-02
5.000000000000e-02 8.400000923595e+07 1.000000000000e+05 -8.390000923595e+07 6.601393538604e-01 3.398606461396e-01 -1.143740412555e-12 -3.820743879119e-11 1.268959344399e-16 -2.869134449529e-15 2.911685704010e+06 1.211836937900e+06  4.118745145770e-02
6.000000000000e-02 8.400000558996e+07 1.000000000000e+05 -8.390000558996e+07 6.601393683859e-01 3.398606316141e-01 -8.222648288735e-13 -4.204534580075e-11 1.452844291399e-16 -3.008011031237e-15 4.424941914982e+06 1.862111850095e+06  4.324143996178e-02
7.000000000000e-02 8.400000228297e+07 1.000000000000e+05 -8.390000228297e+07 6.601393812959e-01 3.398606187041e-01 -5.243086163111e-13 -4.613328484356e-11 1.617276520426e-16 -3.137365719113e-15 4.101455072341e+06 1.724983728714e+06  4.286561427016e-02
8.000000000000e-02 8.399999931819e+07 1.000000000000e+05 -8.389999931819e+07 6.601393926345e-01 3.398606073655e-01 -2.494160161159e-13 -5.034204073451e-11 1.764282093339e-16 -3.256821728646e-15 4.315653173997e+06 1.807517485013e+06  4.309427274929e-02
9.000000000000e-02 8.399999669505e+07 1.000000000000e+05 -8.389999669505e+07 6.601394024539e-01 3.398605975461e-01 2.902728720950e-15 -5.456092890036e-11 1.893788634682e-16 -3.365516557514e-15 4.425752490836e+06 1.848792032939e+06  4.320766453922e-02
1.000000000000e-01 8.399999440986e+07 1.000000000000e+05 -8.389999440986e+07 6.601394108130e-01 3.398605891870e-01 2.332056237380e-13 -5.869582611886e-11 2.007102581572e-16 -3.463272121677e-15 4.587326232104e+06 1.916070413820e+06  4.339162064095e-02
1.100000000000e-01 8.399999245595e+07 1.000000000000e+05 -8.389999245595e+07 6.601394177763e-01 3.398605822237e-01 4.420779783250e-13 -6.266816197992e-11 2.105339891807e-16 -3.550024627474e-15 4.784940549395e+06 1.997844271910e+06  4.354795230691e-02
1.200000000000e-01 8.399999082441e+07 1.000000000000e+05 -8.389999082441e+07 6.601394234126e-01 3.398605765874e-01 6.301300260003e-13 -6.641280676057e-11 2.189296782031e-16 -3.625663895024e-15 4.847761695127e+06 2.025933679158e+06  4.359919994484e-02
1.300000000000e-01 8.399998950429e+07 1.000000000000e+05 -8.389998950429e+07 6.601394277939e-01 3.398605722061e-01 7.980007780693e-13 -6.987701482265e-11 2.260039104243e-16 -3.690265924886e-15 5.081511393065e+06 2.124449097299e+06  4.383903122427e-02
1.400000000000e-01 8.399998848287e+07 1.000000000000e+05 -8.389998848287e+07 6.601394309951e-01 3.398605690049e-01 9.463644045032e-13 -7.301913876095e-11 2.318217590258e-16 -3.744027060243e-15 5.287109907220e+06 2.212684695293e+06  4.404673175649e-02
1.500000000000e-01 8.399998774621e+07 1.000000000000e+05 -8.389998774621e+07 6.601394330920e-01 3.398605669080e-01 1.075911969009e-12 -7.580714384943e-11 2.364385124464e-16 -3.787334798593e-15 5.480147013184e+06 2.298590692938e+06  4.421062918575e-02
1.600000000000e-01 8.399998727917e+07 1.000000000000e+05 -8.389998727917e+07 6.601394341620e-01 3.398605658380e-01 1.187351751978e-12 -7.821803427601e-11 2.400362251254e-16 -3.820369675939e-15 5.603744434606e+06 2.356077552828e+06  4.433390198923e-02
1.700000000000e-01 8.399998706572e+07 1.000000000000e+05 -8.389998706572e+07 6.601394342825e-01 3.398605657175e-01 1.281406344916e-12 -8.023658730205e-11 2.426268470364e-16 -3.843628527941e-15 5.745154629043e+06 2.417343178118e+06  4.446141131044e-02
1.800000000000e-01 8.399998708933e+07 1.000000000000e+05 -8.389998708933e+07 6.601394335306e-01 3.398605664694e-01 1.358826878785e-12 -8.185414105111e-11 2.443052776448e-16 -3.857424572983e-15 5.885455793146e+06 2.473268019276e+06  4.457142583778e-02
1.900000000000e-01 8.399998733292e+07 1.000000000000e+05 -8.389998733292e+07 6.601394319828e-01 3.398605680172e-01 1.420360548338e-12 -8.306834010325e-11 2.451407972427e-16 -3.862422834286e-15 6.020568154547e+06 2.531632674646e+06  4.468956342426e-02
2.000000000000e-01 8.399998777919e+07 1.000000000000e+05 -8.389998777919e+07 6.601394297142e-01 3.398605702858e-01 1.466762391114e-12 -8.388202264123e-11 2.452394538573e-16 -3.858938521042e-15 6.238920769615e+06 2.618717526959e+06  4.479423185279e-02
2.100000000000e-01 8.399998841081e+07 1.000000000000e+05 -8.389998841081e+07 6.601394267983e-01 3.398605732017e-01 1.498800167953e-12 -8.430236873949e-11 2.446116320118e-16 -3.847653268832e-15 6.352968962749e+06 2.672928389899e+06  4.486803633470e-02
2.200000000000e-01 8.399998921039e+07 1.000000000000e+05 -8.389998921039e+07 6.601394233069e-01 3.398605766931e-01 1.517240063591e-12 -8.434064856435e-11 2.433697746711e-16 -3.829087430988e-15 6.473859726331e+06 2.726632447265e+06  4.496277612365e-02
2.300000000000e-01 8.399999016078e+07 1.000000000000e+05 -8.389999016078e+07 6.601394193094e-01 3.398605806906e-01 1.522848019662e-12 -8.401134208127e-11 2.415767261898e-16 -3.803757765387e-15 6.625110055368e+06 2.796271256206e+06  4.507446244650e-02
2.400000000000e-01 8.399999124516e+07 1.000000000000e+05 -8.389999124516e+07 6.601394148726e-01 3.398605851274e-01 1.516385431883e-12 -8.333153947894e-11 2.392546517855e-16 -3.772352406028e-15 6.761630179634e+06 2.858821163729e+06  4.517730282975e-02
2.500000000000e-01 8.399999244701e+07 1.000000000000e+05 -8.389999244701e+07 6.601394100608e-01 3.398605899392e-01 1.498614885824e-12 -8.232073336169e-11 2.364611871874e-16 -3.735431578416e-15 6.908121988692e+06 2.923220352633e+06  4.527526076024e-02
2.600000000000e-01 8.399999375024e+07 1.000000000000e+05 -8.389999375024e+07 6.601394049358e-01 3.398605950642e-01 1.470286555940e-12 -8.100027386528e-11 2.332629533716e-16 -3.693465399823e-15 7.055294966144e+06 2.988085116342e+06  4.536687744671e-02
2.700000000000e-01 8.399999513932e+07 1.000000000000e+05 -8.389999513932e+07 6.601393995561e-01 3.398606004439e-01 1.432144836049e-12 -7.939290203535e-11 2.297358407479e-16 -3.647139646813e-15 7.196908651744e+06 3.048942052424e+06  4.545133722274e-02
2.800000000000e-01 8.399999659933e+07 1.000000000000e+05 -8.389999659933e+07 6.601393939774e-01 3.398606060226e-01 1.384926611172e-12 -7.752227098371e-11 2.258965203168e-16 -3.596928929148e-15 7.346623107153e+06 3.113277009548e+06  4.553405028968e-02
2.900000000000e-01 8.399999811585e+07 1.000000000000e+05 -8.389999811585e+07 6.601393882524e-01 3.398606117476e-01 1.329357105664e-12 -7.541304234550e-11 2.217910566190e-16 -3.543437069616e-15 7.485142463129e+06 3.172484865517e+06  4.560860869573e-02
3.000000000000e-01 8.399999967516e+07 1.000000000000e+05 -8.389999967516e+07 6.601393824307e-01 3.398606175693e-01 1.266147820297e-12 -7.309027748359e-11 2.175027168882e-16 -3.487165029053e-15 7.624334212083e+06 3.232020538697e+06  4.568221092853e-02
3.100000000000e-01 8.400000126429e+07 1.000000000000e+05 -8.390000126429e+07 6.601393765587e-01 3.398606234413e-01 1.195995456134e-12 -7.057912866975e-11 2.130455450736e-16 -3.428639500058e-15 7.762395995463e+06 3.291066518927e+06  4.575388994457e-02
3.200000000000e-01 8.400000287096e+07 1.000000000000e+05 -8.390000287096e+07 6.601393706797e-01 3.398606293203e-01 1.119582583677e-12 -6.790475286631e-11 2.084390417576e-16 -3.368328079664e-15 7.895131098872e+06 3.347833773079e+06  4.582160830354e-02
3.300000000000e-01 8.400000448355e+07 1.000000000000e+05 -8.390000448355e+07 6.601393648340e-01 3.398606351660e-01 1.037576332802e-12 -6.509218889669e-11 2.037340429089e-16 -3.306806148714e-15 8.025333976505e+06 3.403517098121e+06  4.588693499653e-02
3.400000000000e-01 8.400000609117e+07 1.000000000000e+05 -8.390000609117e+07 6.601393590590e-01 3.398606409410e-01 9.506272635121e-13 -6.216609425491e-11 1.989567765647e-16 -3.244452669371e-15 8.152019644997e+06 3.457695086880e+06  4.594948462926e-02
3.500000000000e-01 8.400000768375e+07 1.000000000000e+05 -8.390000768375e+07 6.601393533886e-01 3.398606466114e-01 8.593679552633e-13 -5.915042589323e-11 1.941717779492e-16 -3.181740353886e-15 8.274748620744e+06 3.510180589703e+06  4.600915851148e-02
3.600000000000e-01 8.400000925197e+07 1.000000000000e+05 -8.390000925197e+07 6.601393478541e-01 3.398606521459e-01 7.644082689066e-13 -5.606845634729e-11 1.893702556404e-16 -3.119029434028e-15 8.390695186817e+06 3.559763883542e+06  4.606472309950e-02
3.700000000000e-01 8.400001078719e+07 1.000000000000e+05 -8.390001078719e+07 6.601393424837e-01 3.398606575163e-01 6.663396429224e-13 -5.294275571834e-11 1.845845975444e-16 -3.056793757487e-15 8.501562443967e+06 3.607174835264e+06  4.611713829958e-02
3.800000000000e-01 8.400001228149e+07 1.000000000000e+05 -8.390001228149e+07 6.601393373031e-01 3.398606626969e-01 5.657364000571e-13 -4.979503408243e-11 1.798399872185e-16 -2.995292909449e-15 8.616637535209e+06 3.656384591344e+06  4.617082475386e-02
3.900000000000e-01 8.400001372764e+07 1.000000000000e+05 -8.390001372764e+07 6.601393323351e-01 3.398606676649e-01 4.631535250162e-13 -4.664600710594e-11 1.752017437207e-16 -2.934929551977e-15 8.729735260919e+06 3.704747876765e+06  4.622289287175e-02
4.000000000000e-01 8.400001511923e+07 1.000000000000e+05 -8.390001511923e+07 6.601393275997e-01 3.398606724003e-01 3.591207295449e-13 -4.351520366608e-11 1.706421377015e-16 -2.875956761547e-15 8.842939813417e+06 3.753156262683e+06  4.627433806948e-02
4.100000000000e-01 8.400001645043e+07 1.000000000000e+05 -8.390001645043e+07 6.601393231146e-01 3.398606768854e-01 2.541468140211e-13 -4.042120338809e-11 1.662056352469e-16 -2.818705532130e-15 8.956995904683e+06 3.801928084493e+06  4.632550760612e-02
4.200000000000e-01 8.400001771613e+07 1.000000000000e+05 -8.390001771613e+07 6.601393188949e-01 3.398606811051e-01 1.487192556918e-13 -3.738145402003e-11 1.619163398477e-16 -2.763471219151e-15 9.069446901750e+06 3.850012798326e+06  4.637532169725e-02
4.300000000000e-01 8.400001891175e+07 1.000000000000e+05 -8.390001891175e+07 6.601393149537e-01 3.398606850463e-01 4.330623252663e-14 -3.441233611020e-11 1.577912831912e-16 -2.710441852692e-15 9.182049309261e+06 3.898161752110e+06  4.642458701418e-02
4.400000000000e-01 8.400002003344e+07 1.000000000000e+05 -8.390002003344e+07 6.601393113017e-01 3.398606886983e-01 -6.164745972231e-14 -3.152892924016e-11 1.538160401870e-16 -2.659889056898e-15 9.294384688994e+06 3.946195838027e+06  4.647313612319e-02
4.500000000000e-01 8.400002107796e+07 1.000000000000e+05 -8.390002107796e+07 6.601393079471e-01 3.398606920529e-01 -1.657210889134e-13 -2.874506018329e-11 1.500268344446e-16 -2.611947014564e-15 9.406581903673e+06 3.994170380960e+06  4.652104257293e-02
4.600000000000e-01 8.400002204264e+07 1.000000000000e+05 -8.390002204264e+07 6.601393048965e-01 3.398606951035e-01 -2.685171004300e-13 -2.607343575537e-11 1.464370800454e-16 -2.566832361952e-15 9.518640548375e+06 4.042085144891e+06  4.656832207353e-02
4.700000000000e-01 8.400002292535e+07 1.000000000000e+05 -8.390002292535e+07 6.601393021542e-01 3.398606978458e-01 -3.696597451513e-13 -2.352558000201e-11 1.430399248346e-16 -2.524646214720e-15 9.629354059319e+06 4.089423951951e+06  4.661448931254e-02
4.800000000000e-01 8.400002372449e+07 1.000000000000e+05 -8.390002372449e+07 6.601392997230e-01 3.398607002770e-01 -4.687939770824e-13 -2.111181953803e-11 1.398798271280e-16 -2.485524099576e-15 9.741202193688e+06 4.137247349779e+06  4.666059324416e-02
4.900000000000e-01 8.400002443891e+07 1.000000000000e+05 -8.390002443891e+07 6.601392976041e-01 3.398607023959e-01 -5.655825672148e-13 -1.884137111111e-11 1.369599215310e-16 -2.449656602705e-15 9.851576074476e+06 4.184439824965e+06  4.670557243637e-02
5.000000000000e-01 8.400002506803e+07 1.000000000000e+05 -8.390002506803e+07 6.601392957967e-01 3.398607042033e-01 -6.597162221615e-13 -1.672219974151e-11 1.342557086604e-16 -2.417059157437e-15 9.961904240725e+06 4.231612230847e+06  4.675003146889e-02
5.100000000000e-01 8.400002561165e+07 1.000000000000e+05 -8.390002561165e+07 6.601392942987e-01 3.398607057013e-01 -7.509064016676e-13 -1.476123338439e-11 1.317828898009e-16 -2.387833302377e-15 1.007139611587e+07 4.278426513240e+06  4.679366849927e-02
5.200000000000e-01 8.400002607003e+07 1.000000000000e+05 -8.390002607003e+07 6.601392931067e-01 3.398607068933e-01 -8.388863733302e-13 -1.296432298849e-11 1.295619242922e-16 -2.362008117915e-15 1.018111218668e+07 4.325336224261e+06  4.683692104263e-02
5.300000000000e-01 8.400002644377e+07 1.000000000000e+05 -8.390002644377e+07 6.601392922160e-01 3.398607077840e-01 -9.234108954479e-13 -1.133626170855e-11 1.275840393478e-16 -2.339608975005e-15 1.029083166166e+07 4.372246909281e+06  4.687971066763e-02
5.400000000000e-01 8.400002673388e+07 1.000000000000e+05 -8.390002673388e+07 6.601392916206e-01 3.398607083794e-01 -1.004253120582e-12 -9.880846574796e-12 1.258541455899e-16 -2.320685640692e-15 1.040083144351e+07 4.419277011901e+06  4.692215355022e-02
5.500000000000e-01 8.400002694165e+07 1.000000000000e+05 -8.390002694165e+07 6.601392913136e-01 3.398607086864e-01 -1.081202743581e-12 -8.600908259521e-12 1.243593609871e-16 -2.305236387232e-15 1.050873989637e+07 4.465412363321e+06  4.696335456386e-02
5.600000000000e-01 8.400002706868e+07 1.000000000000e+05 -8.390002706868e+07 6.601392912874e-01 3.398607087126e-01 -1.154073035768e-12 -7.498403881896e-12 1.231139151135e-16 -2.293239388057e-15 1.061681213628e+07 4.511617534757e+06  4.700419592580e-02
5.700000000000e-01 8.400002711694e+07 1.000000000000e+05 -8.390002711694e+07 6.601392915328e-01 3.398607084672e-01 -1.222696942571e-12 -6.574317548238e-12 1.221471386903e-16 -2.284664036251e-15 1.072486010423e+07 4.557811588941e+06  4.704461381080e-02
5.800000000000e-01 8.400002708861e+07 1.000000000000e+05 -8.390002708861e+07 6.601392920403e-01 3.398607079597e-01 -1.286929548709e-12 -5.828787732241e-12 1.214036094184e-16 -2.279478419590e-15 1.083145487609e+07 4.603383942854e+06  4.708409034266e-02
5.900000000000e-01 8.400002698615e+07 1.000000000000e+05 -8.390002698615e+07 6.601392927993e-01 3.398607072007e-01 -1.346641823231e-12 -5.261163862680e-12 1.209025691753e-16 -2.277652660126e-15 1.093789645700e+07 4.648890869934e+06  4.712312426886e-02
6.000000000000e-01 8.400002681222e+07 1.000000000000e+05 -8.390002681222e+07 6.601392937989e-01 3.398607062011e-01 -1.401725549957e-12 -4.870046252973e-12 1.206448799339e-16 -2.279128496593e-15 1.104343004306e+07 4.694008200772e+06  4.716145056165e-02
6.100000000000e-01 8.400002656965e+07 1.000000000000e+05 -8.390002656965e+07 6.601392950275e-01 3.398607049725e-01 -1.452083279860e-12 -4.653326869260e-12 1.206101235090e-16 -2.283806555806e-15 1.114698407756e+07 4.738279578196e+06  4.719870349722e-02
6.200000000000e-01 8.400002626145e+07 1.000000000000e+05 -8.390002626145e+07 6.601392964731e-01 3.398607035269e-01 -1.497638743138e-12 -4.608204868342e-12 1.208202080850e-16 -2.291576983748e-15 1.125080890997e+07 4.782666081673e+06  4.723570740284e-02
6.300000000000e-01 8.400002589083e+07 1.000000000000e+05 -8.390002589083e+07 6.601392981232e-01 3.398607018768e-01 -1.538332289124e-12 -4.731270969540e-12 1.212940494310e-16 -2.302423276799e-15 1.135288749756e+07 4.826305701877e+06  4.727175691762e-02
6.400000000000e-01 8.400002546106e+07 1.000000000000e+05 -8.390002546106e+07 6.601392999649e-01 3.398607000351e-01 -1.574121754460e-12 -5.018557523661e-12 1.219716060346e-16 -2.316180402797e-15 1.145419106047e+07 4.869613722795e+06  4.730721327942e-02
6.500000000000e-01 8.400002497558e+07 1.000000000000e+05 -8.390002497558e+07 6.601393019853e-01 3.398606980147e-01 -1.604978548968e-12 -5.465541520282e-12 1.228584803588e-16 -2.332819112290e-15 1.155407424822e+07 4.912314189715e+06  4.734186628743e-02
6.600000000000e-01 8.400002443792e+07 1.000000000000e+05 -8.390002443792e+07 6.601393041709e-01 3.398606958291e-01 -1.630889383118e-12 -6.067209682182e-12 1.239516519030e-16 -2.352205810710e-15 1.165236687813e+07 4.954334619408e+06  4.737567593791e-02
6.700000000000e-01 8.400002385164e+07 1.000000000000e+05 -8.390002385164e+07 6.601393065083e-01 3.398606934917e-01 -1.651854570240e-12 -6.818122863465e-12 1.252512543015e-16 -2.374186771049e-15 1.175068119167e+07 4.996363223725e+06  4.740920799086e-02
6.800000000000e-01 8.400002322033e+07 1.000000000000e+05 -8.390002322033e+07 6.601393089844e-01 3.398606910156e-01 -1.667883673892e-12 -7.712540437013e-12 1.267657374768e-16 -2.398629385699e-15 1.184489842015e+07 5.036640584094e+06  4.744108012640e-02
6.900000000000e-01 8.400002254770e+07 1.000000000000e+05 -8.390002254770e+07 6.601393115853e-01 3.398606884147e-01 -1.679006636986e-12 -8.744225481600e-12 1.284700501743e-16 -2.425415129023e-15 1.193753972277e+07 5.076243893559e+06  4.747217241769e-02
7.000000000000e-01 8.400002183747e+07 1.000000000000e+05 -8.390002183747e+07 6.601393142976e-01 3.398606857024e-01 -1.685264021643e-12 -9.906617813276e-12 1.303520023392e-16 -2.454484826855e-15 1.202942386543e+07 5.115523355842e+06  4.750277289039e-02
7.100000000000e-01 8.400002109340e+07 1.000000000000e+05 -8.390002109340e+07 6.601393171076e-01 3.398606828924e-01 -1.686706292175e-12 -1.119287548529e-11 1.324407180681e-16 -2.485664141750e-15 1.211962060825e+07 5.154081120961e+06  4.753258442357e-02
7.200000000000e-01 8.400002031921e+07 1.000000000000e+05 -8.390002031921e+07 6.601393200019e-01 3.398606799981e-01 -1.683397809279e-12 -1.259591538133e-11 1.346823211142e-16 -2.518749644145e-15 1.220742907363e+07 5.191617671448e+06  4.756139375936e-02
7.300000000000e-01 8.400001951863e+07 1.000000000000e+05 -8.390001951863e+07 6.601393229673e-01 3.398606770327e-01 -1.675410486249e-12 -1.410845579108e-11 1.370988985735e-16 -2.553650639758e-15 1.229648013331e+07 5.229685272489e+06  4.759039985509e-02
7.400000000000e-01 8.400001869535e+07 1.000000000000e+05 -8.390001869535e+07 6.601393259907e-01 3.398606740093e-01 -1.662830245431e-12 -1.572306186579e-11 1.396542585959e-16 -2.590269244111e-15 1.238267769616e+07 5.266532712741e+06  4.761827656622e-02
7.500000000000e-01 8.400001785299e+07 1.000000000000e+05 -8.390001785299e+07 6.601393290593e-01 3.398606709407e-01 -1.645745906945e-12 -1.743216286594e-11 1.423832535198e-16 -2.628416144440e-15 1.246866888275e+07 5.303291792275e+06  4.764589367443e-02
7.600000000000e-01 8.400001699518e+07 1.000000000000e+05 -8.390001699518e+07 6.601393321605e-01 3.398606678395e-01 -1.624260365221e-12 -1.922805060259e-11 1.452392665676e-16 -2.668019765395e-15 1.255439045233e+07 5.339935340388e+06  4.767323499555e-02
7.700000000000e-01 8.400001612545e+07 1.000000000000e+05 -8.390001612545e+07 6.601393352819e-01 3.398606647181e-01 -1.598485409673e-12 -2.110294358677e-11 1.482276471294e-16 -2.708848738794e-15 1.263870838286e+07 5.375978803368e+06  4.769994689399e-02
7.800000000000e-01 8.400001524730e+07 1.000000000000e+05 -8.390001524730e+07 6.601393384116e-01 3.398606615884e-01 -1.568540103965e-12 -2.304901360470e-11 1.513161924500e-16 -2.750766913236e-15 1.272217582045e+07 5.411658500009e+06  4.772621415547e-02
7.900000000000e-01 8.400001436410e+07 1.000000000000e+05 -8.390001436410e+07 6.601393415378e-01 3.398606584622e-01 -1.534547372640e-12 -2.505848062342e-11 1.545376409343e-16 -2.793666729500e-15 1.280539383488e+07 5.447231346774e+06  4.775223169268e-02
8.000000000000e-01 8.400001347915e+07 1.000000000000e+05 -8.390001347915e+07 6.601393446495e-01 3.398606553505e-01 -1.496639601252e-12 -2.712353049575e-11 1.578640509396e-16 -2.837433355689e-15 1.288732988742e+07 5.482255870353e+06  4.777768339499e-02
8.100000000000e-01 8.400001259571e+07 1.000000000000e+05 -8.390001259571e+07 6.601393477355e-01 3.398606522645e-01 -1.454955279285e-12 -2.923633777554e-11 1.612843792817e-16 -2.881866769951e-15 1.296750670856e+07 5.516528178666e+06  4.780243215589e-02
8.200000000000e-01 8.400001171691e+07 1.000000000000e+05 -8.390001171691e+07 6.601393507852e-01 3.398606492148e-01 -1.409638626834e-12 -3.138914070585e-11 1.647848885502e-16 -2.926873762157e-15 1.304870675177e+07 5.551237801536e+06  4.782734127495e-02
8.300000000000e-01 8.400001084579e+07 1.000000000000e+05 -8.390001084579e+07 6.601393537887e-01 3.398606462113e-01 -1.360837962010e-12 -3.357430068091e-11 1.683416683128e-16 -2.972334427336e-15 1.312854629863e+07 5.585365733119e+06  4.785168214860e-02
8.400000000000e-01 8.400000998525e+07 1.000000000000e+05 -8.390000998525e+07 6.601393567361e-01 3.398606432639e-01 -1.308703754240e-12 -3.578424867468e-11 1.719905801364e-16 -3.018159717313e-15 1.320770969261e+07 5.619204467661e+06  4.787567097092e-02
8.500000000000e-01 8.400000913814e+07 1.000000000000e+05 -8.390000913814e+07 6.601393596182e-01 3.398606403818e-01 -1.253394298457e-12 -3.801151469332e-11 1.757021749733e-16 -3.064178606745e-15 1.328666533836e+07 5.652954140561e+06  4.789945382197e-02
8.600000000000e-01 8.400000830716e+07 1.000000000000e+05 -8.390000830716e+07 6.601393624260e-01 3.398606375740e-01 -1.195075264728e-12 -4.024877981482e-11 1.794565615002e-16 -3.110215891312e-15 1.336467329323e+07 5.686298626229e+06  4.792281266406e-02
8.700000000000e-01 8.400000749492e+07 1.000000000000e+05 -8.390000749492e+07 6.601393651511e-01 3.398606348489e-01 -1.133911031443e-12 -4.248888994932e-11 1.832557486507e-16 -3.156225871981e-15 1.344223232852e+07 5.719450750112e+06  4.794590191905e-02
8.800000000000e-01 8.400000670387e+07 1.000000000000e+05 -8.390000670387e+07 6.601393677855e-01 3.398606322145e-01 -1.070071589151e-12 -4.472485149538e-11 1.870866683915e-16 -3.202024612704e-15 1.351857244672e+07 5.752081949820e+06  4.796849853695e-02
8.900000000000e-01 8.400000593636e+07 1.000000000000e+05 -8.390000593636e+07 6.601393703219e-01 3.398606296781e-01 -1.003726398227e-12 -4.694985129306e-11 1.909456982414e-16 -3.247544747324e-15 1.359376715220e+07 5.784223917787e+06  4.799063187155e-02
9.000000000000e-01 8.400000519459e+07 1.000000000000e+05 -8.390000519459e+07 6.601393727531e-01 3.398606272469e-01 -9.350481074537e-13 -4.915728452676e-11 1.948040637865e-16 -3.292643062431e-15 1.366958206566e+07 5.816630293566e+06  4.801282369025e-02
9.100000000000e-01 8.400000448061e+07 1.000000000000e+05 -8.390000448061e+07 6.601393750728e-01 3.398606249272e-01 -8.642076828215e-13 -5.134081681840e-11 1.986724196631e-16 -3.337208781940e-15 1.374422465070e+07 5.848535364018e+06  4.803455221024e-02
9.200000000000e-01 8.400000379637e+07 1.000000000000e+05 -8.390000379637e+07 6.601393772749e-01 3.398606227251e-01 -7.913774712787e-13 -5.349428445070e-11 2.025499793380e-16 -3.381173199119e-15 1.381759520140e+07 5.879896979179e+06  4.805579582170e-02
9.300000000000e-01 8.400000314371e+07 1.000000000000e+05 -8.390000314371e+07 6.601393793539e-01 3.398606206461e-01 -7.167319977734e-13 -5.561171459576e-11 2.064295735757e-16 -3.424464784527e-15 1.389156329369e+07 5.911513709232e+06  4.807709837632e-02
9.400000000000e-01 8.400000252435e+07 1.000000000000e+05 -8.390000252435e+07 6.601393813045e-01 3.398606186955e-01 -6.404462644794e-13 -5.768733003231e-11 2.102885729665e-16 -3.467000532164e-15 1.396281027507e+07 5.941967057075e+06  4.809750993410e-02
9.500000000000e-01 8.400000193988e+07 1.000000000000e+05 -8.390000193988e+07 6.601393831219e-01 3.398606168781e-01 -5.626951463245e-13 -5.971563317413e-11 2.141277374564e-16 -3.508603826917e-15 1.403622603290e+07 5.973347467727e+06  4.811843428980e-02
9.600000000000e-01 8.400000139177e+07 1.000000000000e+05 -8.390000139177e+07 6.601393848019e-01 3.398606151981e-01 -4.836543420976e-13 -6.169139261803e-11 2.179292580746e-16 -3.549242008114e-15 1.410748709160e+07 6.003806560193e+06  4.813863977325e-02
9.700000000000e-01 8.400000088133e+07 1.000000000000e+05 -8.390000088133e+07 6.601393863406e-01 3.398606136594e-01 -4.034990588906e-13 -6.360963005628e-11 2.216938741180e-16 -3.588834559637e-15 1.417827143907e+07 6.034061967583e+06  4.815860930642e-02
9.800000000000e-01 8.400000040976e+07 1.000000000000e+05 -8.390000040976e+07 6.601393877347e-01 3.398606122653e-01 -3.224023024065e-13 -6.546563162502e-11 2.254291248690e-16 -3.627320462403e-15 1.424865443533e+07 6.064145642138e+06  4.817836684688e-02
9.900000000000e-01 8.399999997813e+07 1.000000000000e+05 -8.389999997813e+07 6.601393889814e-01 3.398606110186e-01 -2.405372799534e-13 -6.725495114886e-11 2.291363595348e-16 -3.664606827822e-15 1.431841614955e+07 6.093963493322e+06  4.819785368828e-02
1.000000000000e+00 8.399999958736e+07 1.000000000000e+05 -8.389999958736e+07 6.601393900782e-01 3.398606099218e-01 -1.580740759210e-13 -6.897341455883e-11 2.327746381120e-16 -3.700596559535e-15 1.438822028531e+07 6.123799611360e+06  4.821725765367e-02
1.050000000000e+00 8.399999870128e+07 1.000000000000e+05 -8.389999870128e+07 6.601393917511e-01 3.398606082489e-01 2.498239383013e-13 -7.544010545204e-11 2.490598341508e-16 -3.843701811700e-15 1.469351980574e+07 6.254348286871e+06  4.831179716518e-02
1.100000000000e+00 8.399999887127e+07 1.000000000000e+05 -8.389999887127e+07 6.601393897404e-01 3.398606102596e-01 6.360706469850e-13 -7.957817023700e-11 2.630160790721e-16 -3.946805701845e-15 1.499955719508e+07 6.391769514610e+06  4.841560090891e-02
1.150000000000e+00 8.400000003474e+07 1.000000000000e+05 -8.390000003474e+07 6.601393843387e-01 3.398606156613e-01 9.860583805665e-13 -8.132618732639e-11 2.742688521197e-16 -4.009649594076e-15 1.532626056985e+07 6.533549343701e+06  4.851097990540e-02
1.200000000000e+00 8.400000208970e+07 1.000000000000e+05 -8.390000208970e+07 6.601393759621e-01 3.398606240379e-01 1.287991420582e-12 -8.074416036823e-11 2.827101042006e-16 -4.033131108491e-15 1.567394310522e+07 6.670302379575e+06  4.858753021200e-02
1.250000000000e+00 8.400000490554e+07 1.000000000000e+05 -8.390000490554e+07 6.601393651123e-01 3.398606348877e-01 1.532940648619e-12 -7.799201290000e-11 2.883216988974e-16 -4.020299852201e-15 1.593777135361e+07 6.783227610703e+06  4.865420161153e-02
1.300000000000e+00 8.400000833151e+07 1.000000000000e+05 -8.390000833151e+07 6.601393523468e-01 3.398606476532e-01 1.714815172956e-12 -7.331076974840e-11 2.909779263784e-16 -3.975606686614e-15 1.622247023716e+07 6.904897833688e+06  4.872487152460e-02
1.350000000000e+00 8.400001220703e+07 1.000000000000e+05 -8.390001220703e+07 6.601393382445e-01 3.398606617555e-01 1.830232573394e-12 -6.699869743251e-11 2.908279390122e-16 -3.903941759376e-15 1.649633717026e+07 7.021947147575e+06  4.879168955000e-02
1.400000000000e+00 8.400001636827e+07 1.000000000000e+05 -8.390001636827e+07 6.601393233835e-01 3.398606766165e-01 1.878343134520e-12 -5.939370442533e-11 2.881866012900e-16 -3.810648608029e-15 1.676346821318e+07 7.136116204651e+06  4.885580213450e-02