 TITLE = "Time curves in points"
 VARIABLES = "TIME "  "DISPLACEMENT_X1"  "DISPLACEMENT_Y1"  "STRESS_XX"  "STRESS_XY"  "STRESS_YY"  "STRESS_ZZ"  "STRAIN_XX"  "STRAIN_XY"  "STRAIN_YY"  p_(1st_Invariant)  q_(2nd_Invariant)   Effective_Strain
 ZONE T="POINT=POINT6"
0.000000000000e+00 0.000000000000e+00 0.000000000000e+00 -1.000000000000e+05 0.000000000000e+00 -1.000000000000e+05 -1.000000000000e+05 0.000000000000e+00 0.000000000000e+00 0.000000000000e+00 1.000000000000e+05 0.000000000000e+00  0.000000000000e+00
1.000000000000e-03 -4.437523666508e-11 0.000000000000e+00 -1.157019887241e+05 1.620619757048e-02 -1.235549059819e+05 -1.157027344521e+05 7.212054798306e-08 3.054303981289e-09 -7.579210642671e-04 1.183198763860e+05 7.852544420418e+03  7.579571271330e-04
2.000000000000e-03 -2.235600426186e-08 0.000000000000e+00 -2.243416936174e+05 4.572649768925e+00 -2.865275954753e+05 -2.243476922872e+05 2.664891800572e-06 4.500134493026e-06 -2.757204529752e-02 2.450723271266e+05 6.218290324441e+04  2.757337894168e-02
3.000000000000e-03 -2.176448288786e-08 0.000000000000e+00 -5.448643621104e+05 4.717830264795e+00 -7.672987412159e+05 -5.448652186274e+05 2.398222011225e-06 4.515548597962e-06 -3.586798637801e-02 6.190094406513e+05 2.224339509983e+05  3.586918640184e-02
4.000000000000e-03 2.801687977612e-08 0.000000000000e+00 -1.124700359125e+06 -2.112074389794e+02 -1.636990201063e+06 -1.124676203740e+06 2.169989527333e-06 -5.574988123152e-07 -3.925128347571e-02 1.295455587976e+06 5.123020506700e+05  3.925236852734e-02
5.000000000000e-03 7.882769708177e-08 0.000000000000e+00 -1.342213000800e+06 -7.392482981822e+02 -1.963485086508e+06 -1.342279218033e+06 2.934481163422e-06 -8.034331566784e-06 -4.003186684920e-02 1.549325768447e+06 6.212402992491e+05  4.003333658907e-02
6.000000000000e-03 1.274623623843e-08 0.000000000000e+00 -1.453339899104e+06 -5.312173042464e+02 -2.131695072840e+06 -1.454013975104e+06 6.455152859232e-06 -4.159301764028e-06 -4.044771621783e-02 1.679682982349e+06 6.780190113461e+05  4.045094482206e-02
7.000000000000e-03 2.431773013226e-08 0.000000000000e+00 -1.489529389409e+06 -8.867966293132e+02 -2.188571529725e+06 -1.491240357307e+06 1.340646282823e-05 -8.778354545430e-06 -4.059043447750e-02 1.723113758814e+06 6.981899182250e+05  4.059714221636e-02
8.000000000000e-03 3.156963484325e-08 0.000000000000e+00 -1.508323272088e+06 -4.858757501533e+02 -2.215506178750e+06 -1.509531774215e+06 1.070848480444e-05 -4.447128330156e-06 -4.063694332431e-02 1.744453741684e+06 7.065799318770e+05  4.064229935468e-02
9.000000000000e-03 3.096665785255e-08 0.000000000000e+00 -1.520416989801e+06 -5.307030799627e+02 -2.233797991430e+06 -1.521685990598e+06 1.103126052362e-05 -4.926420169617e-06 -4.066966129391e-02 1.758633657276e+06 7.127479412289e+05  4.067517894107e-02
1.000000000000e-02 3.112963962496e-08 0.000000000000e+00 -1.533861480092e+06 -5.267791248028e+02 -2.253971223802e+06 -1.535133083884e+06 1.104493466049e-05 -4.884787975158e-06 -4.070521069201e-02 1.774321929259e+06 7.194753631436e+05  4.071073516221e-02
2.000000000000e-02 4.332290096217e-08 0.000000000000e+00 -4.371471613244e+06 -6.973159342109e+02 -6.514817510731e+06 -4.374515703388e+06 1.685048575073e-05 -5.990453757280e-06 -4.536014201726e-02 5.086934942454e+06 2.141825815370e+06  4.536857079354e-02
3.000000000000e-02 3.437523338741e-08 0.000000000000e+00 -2.498728173933e+06 -6.644502370584e+02 -3.703391582855e+06 -2.500847989683e+06 1.281354042457e-05 -5.708090973233e-06 -4.126850229171e-02 2.900989248824e+06 1.203605451312e+06  4.127491173773e-02
4.000000000000e-02 1.560057576480e-08 0.000000000000e+00 -2.942095368942e+06 -3.497529154791e+02 -4.365190238797e+06 -2.942914376959e+06 8.895473851307e-06 -3.841797748820e-06 -4.192331873591e-02 3.416733328233e+06 1.422685671628e+06  4.192776770859e-02
5.000000000000e-02 2.068870440140e-08 0.000000000000e+00 -2.505467954954e+06 1.086999875240e+02 -3.719572718135e+06 -2.510016438940e+06 2.238336431310e-05 -2.238121956953e-07 -4.117625521212e-02 2.911685704010e+06 1.211836937900e+06  4.118745145770e-02
6.000000000000e-02 6.881201210415e-08 0.000000000000e+00 -3.801387092304e+06 -1.230988728025e+02 -5.666345435538e+06 -3.807093217104e+06 2.611041190644e-05 -1.442574214562e-06 -4.322837877131e-02 4.424941914982e+06 1.862111850095e+06  4.324143996178e-02
7.000000000000e-02 1.226724805663e-07 0.000000000000e+00 -3.523108895233e+06 -5.664206055720e+02 -5.251437513682e+06 -3.529818808109e+06 2.889670838558e-05 -4.164073213178e-06 -4.285115800422e-02 4.101455072341e+06 1.724983728714e+06  4.286561427016e-02
8.000000000000e-02 5.006137987166e-08 0.000000000000e+00 -3.712877539333e+06 -1.360592583680e+02 -5.520664780149e+06 -3.713417202509e+06 1.098224657756e-05 -1.496929702528e-06 -4.308878049848e-02 4.315653173997e+06 1.807517485013e+06  4.309427274929e-02
9.000000000000e-02 3.164726019876e-08 0.000000000000e+00 -3.811190465143e+06 -1.008983223874e+02 -5.658278941897e+06 -3.807788065467e+06 8.065349039222e-07 -1.363404182595e-06 -4.320726120159e-02 4.425752490836e+06 1.848792032939e+06  4.320766453922e-02
1.000000000000e-01 2.212776484597e-08 0.000000000000e+00 -3.950995399642e+06 -5.713503119941e+02 -5.864703436319e+06 -3.946279860351e+06 -2.063973710943e-06 -3.401746201733e-06 -4.339265219096e-02 4.587326232104e+06 1.916070413820e+06  4.339162064095e-02
1.100000000000e-01 9.393783692819e-09 0.000000000000e+00 -4.122328611585e+06 -1.848478459439e+03 -6.116829461538e+06 -4.115663575062e+06 -7.006265715857e-06 -9.087263485416e-06 -4.355145217267e-02 4.784940549395e+06 1.997844271910e+06  4.354795230691e-02
1.200000000000e-01 1.552471169363e-08 0.000000000000e+00 -4.175399150297e+06 -2.923272704527e+03 -6.198375650453e+06 -4.169510284631e+06 -5.904662845781e-06 -1.281902763729e-05 -4.360214632281e-02 4.847761695127e+06 2.025933679158e+06  4.359919994484e-02
1.300000000000e-01 1.633195380715e-08 0.000000000000e+00 -4.376865663375e+06 -2.799610299841e+03 -6.497801338185e+06 -4.369867177636e+06 -8.588803197193e-06 -1.224793156970e-05 -4.384331986204e-02 5.081511393065e+06 2.124449097299e+06  4.383903122427e-02
1.400000000000e-01 1.676610471588e-08 0.000000000000e+00 -4.553010082881e+06 -2.341262276536e+03 -6.762225156519e+06 -4.546094482260e+06 -8.425129051457e-06 -1.014161988855e-05 -4.405094021408e-02 5.287109907220e+06 2.212684695293e+06  4.404673175649e-02
1.500000000000e-01 1.220487441424e-08 0.000000000000e+00 -4.716354422023e+06 -3.879870107716e+03 -7.012531754060e+06 -4.711554863468e+06 -4.561466111723e-06 -1.418558558765e-05 -4.421290291486e-02 5.480147013184e+06 2.298590692938e+06  4.421062918575e-02
1.600000000000e-01 -6.661109929020e-09 0.000000000000e+00 -4.819279619074e+06 -3.180476161748e+03 -7.174458172069e+06 -4.817495512674e+06 1.544525262152e-06 -1.160671346972e-05 -4.433312514842e-02 5.603744434606e+06 2.356077552828e+06  4.433390198923e-02
1.700000000000e-01 -2.648788297889e-08 0.000000000000e+00 -4.940045736298e+06 -2.536757723924e+03 -7.356713899603e+06 -4.938704251229e+06 2.510351391702e-06 -9.013814298856e-06 -4.446015334049e-02 5.745154629043e+06 2.417343178118e+06  4.446141131044e-02
1.800000000000e-01 -4.328112106238e-08 0.000000000000e+00 -5.063108686104e+06 -2.768277078924e+03 -7.534296303090e+06 -5.058962390245e+06 -3.005501349807e-06 -9.919143983544e-06 -4.457292520127e-02 5.885455793146e+06 2.473268019276e+06  4.457142583778e-02
1.900000000000e-01 -5.040337178343e-08 0.000000000000e+00 -5.178613106245e+06 -2.951045623053e+03 -7.708318374798e+06 -5.174772982596e+06 -2.436367945877e-06 -1.079316786884e-05 -4.469077764836e-02 6.020568154547e+06 2.531632674646e+06  4.468956342426e-02
2.000000000000e-01 -6.833292699773e-08 0.000000000000e+00 -5.370112651366e+06 -4.792083360719e+03 -7.984717296635e+06 -5.361932360843e+06 -9.583717708127e-06 -1.505947952181e-05 -4.479901534841e-02 6.238920769615e+06 2.618717526959e+06  4.479423185279e-02
2.100000000000e-01 -7.695038904677e-08 0.000000000000e+00 -5.464311972667e+06 -5.723179521753e+03 -8.134906968525e+06 -5.459687947054e+06 -4.504862081645e-06 -1.833538172339e-05 -4.487027735696e-02 6.352968962749e+06 2.672928389899e+06  4.486803633470e-02
2.200000000000e-01 -7.572048466289e-08 0.000000000000e+00 -5.566669917029e+06 -5.950485095407e+03 -8.291600669099e+06 -5.563308592865e+06 -2.271879880553e-06 -1.959449954040e-05 -4.496389921180e-02 6.473859726331e+06 2.726632447265e+06  4.496277612365e-02
2.300000000000e-01 -9.248698311467e-08 0.000000000000e+00 -5.693099952413e+06 -5.888080815344e+03 -8.489278492360e+06 -5.692951721332e+06 3.602964141575e-06 -1.977137395380e-05 -4.507264784772e-02 6.625110055368e+06 2.796271256206e+06  4.507446244650e-02
2.400000000000e-01 -1.012239961200e-07 0.000000000000e+00 -5.807421117730e+06 -5.326886493114e+03 -8.667500462080e+06 -5.809968959091e+06 7.667329075931e-06 -1.874341867632e-05 -4.517345701266e-02 6.761630179634e+06 2.858821163729e+06  4.517730282975e-02
2.500000000000e-01 -1.113058314044e-07 0.000000000000e+00 -5.931908724168e+06 -5.552171313008e+03 -8.856923888067e+06 -5.935533353839e+06 9.402608572584e-06 -1.960323657838e-05 -4.527054599200e-02 6.908121988692e+06 2.923220352633e+06  4.527526076024e-02
2.600000000000e-01 -1.073901856677e-07 0.000000000000e+00 -6.056864172724e+06 -5.640765858482e+03 -9.047339120278e+06 -6.061681605431e+06 1.086004124604e-05 -1.962544013012e-05 -4.536143371643e-02 7.055294966144e+06 2.988085116342e+06  4.536687744671e-02
2.700000000000e-01 -1.098020329707e-07 0.000000000000e+00 -6.178141083469e+06 -6.666411828310e+03 -9.229520122957e+06 -6.183064748805e+06 1.079263386335e-05 -2.206735207198e-05 -4.544592387369e-02 7.196908651744e+06 3.048942052424e+06  4.545133722274e-02
2.800000000000e-01 -1.123693503511e-07 0.000000000000e+00 -6.306356971647e+06 -7.514098843528e+03 -9.422120942370e+06 -6.311391407442e+06 1.091531650126e-05 -2.420347123299e-05 -4.552857235229e-02 7.346623107153e+06 3.113277009548e+06  4.553405028968e-02
2.900000000000e-01 -1.128408043126e-07 0.000000000000e+00 -6.425192079360e+06 -7.432712585016e+03 -9.600113044089e+06 -6.430122265939e+06 1.078078297222e-05 -2.399781172772e-05 -4.560319840828e-02 7.485142463129e+06 3.172484865517e+06  4.560860869573e-02
3.000000000000e-01 -1.135294566278e-07 0.000000000000e+00 -6.544577653376e+06 -7.462034592701e+03 -9.778995522065e+06 -6.549429460808e+06 1.067912607927e-05 -2.406538002024e-05 -4.567685141286e-02 7.624334212083e+06 3.232020538697e+06  4.568221092853e-02
3.100000000000e-01 -1.141628585382e-07 0.000000000000e+00 -6.662998249372e+06 -7.477531300758e+03 -9.956421623579e+06 -6.667768113437e+06 1.057526678500e-05 -2.409875337727e-05 -4.574858235520e-02 7.762395995463e+06 3.291066518927e+06  4.575388994457e-02
3.200000000000e-01 -1.147567047834e-07 0.000000000000e+00 -6.776850391149e+06 -7.493447937793e+03 -1.012700186527e+07 -6.781541040201e+06 1.047666944015e-05 -2.413271276770e-05 -4.581635000571e-02 7.895131098872e+06 3.347833773079e+06  4.582160830354e-02
3.300000000000e-01 -1.153287157855e-07 0.000000000000e+00 -6.888531193117e+06 -7.508358493241e+03 -1.029432724871e+07 -6.893143487691e+06 1.038084089406e-05 -2.416389110196e-05 -4.588172460849e-02 8.025333976505e+06 3.403517098121e+06  4.588693499653e-02
3.400000000000e-01 -1.158691079056e-07 0.000000000000e+00 -6.997195900531e+06 -7.522494740895e+03 -1.045713184988e+07 -7.001731184582e+06 1.028824143741e-05 -2.419292940104e-05 -4.594432053791e-02 8.152019644997e+06 3.457695086880e+06  4.594948462926e-02
3.500000000000e-01 -1.163794286964e-07 0.000000000000e+00 -7.102467012759e+06 -7.535792178836e+03 -1.061485141871e+07 -7.106927430765e+06 1.019964744667e-05 -2.421977197851e-05 -4.600403871546e-02 8.274748620744e+06 3.510180589703e+06  4.600915851148e-02
3.600000000000e-01 -1.168516546604e-07 0.000000000000e+00 -7.201921625014e+06 -7.547965624755e+03 -1.076385375216e+07 -7.206310183272e+06 1.011591903103e-05 -2.424393181776e-05 -4.605964516750e-02 8.390695186817e+06 3.559763883542e+06  4.606472309950e-02
3.700000000000e-01 -1.172946638294e-07 0.000000000000e+00 -7.297019556501e+06 -7.559335836856e+03 -1.090632853254e+07 -7.301339242856e+06 1.003679143464e-05 -2.426615923178e-05 -4.611209993197e-02 8.501562443967e+06 3.607174835264e+06  4.611713829958e-02
3.800000000000e-01 -1.177447844551e-07 0.000000000000e+00 -7.395727234749e+06 -7.570840163548e+03 -1.105421035297e+07 -7.399975017912e+06 9.955320244856e-06 -2.428830735369e-05 -4.616582712337e-02 8.616637535209e+06 3.656384591344e+06  4.617082475386e-02
3.900000000000e-01 -1.181776140681e-07 0.000000000000e+00 -7.492739388553e+06 -7.581807985494e+03 -1.119955048536e+07 -7.496915908846e+06 9.875694035707e-06 -2.430908917246e-05 -4.621793505689e-02 8.729735260919e+06 3.704747876765e+06  4.622289287175e-02
4.000000000000e-01 -1.186017370687e-07 0.000000000000e+00 -7.589843567219e+06 -7.592511704367e+03 -1.134502750674e+07 -7.593948366296e+06 9.796633751739e-06 -2.432906757474e-05 -4.626941978807e-02 8.842939813417e+06 3.753156262683e+06  4.627433806948e-02
4.100000000000e-01 -1.190201021363e-07 0.000000000000e+00 -7.687678644491e+06 -7.602908024029e+03 -1.149159835467e+07 -7.691710714889e+06 9.717533632825e-06 -2.434815330888e-05 -4.632062887923e-02 8.956995904683e+06 3.801928084493e+06  4.632550760612e-02
4.200000000000e-01 -1.194253095901e-07 0.000000000000e+00 -7.784137407649e+06 -7.613035671245e+03 -1.163610602832e+07 -7.788097269285e+06 9.640031945684e-06 -2.436650647940e-05 -4.637048172586e-02 9.069446901750e+06 3.850012798326e+06  4.637532169725e-02
4.300000000000e-01 -1.198219887206e-07 0.000000000000e+00 -7.880726387850e+06 -7.622872696370e+03 -1.178080793498e+07 -7.884613604951e+06 9.563064024681e-06 -2.438405954294e-05 -4.641978553222e-02 9.182049309261e+06 3.898161752110e+06  4.642458701418e-02
4.400000000000e-01 -1.202095126627e-07 0.000000000000e+00 -7.977086775582e+06 -7.632363180495e+03 -1.192516623080e+07 -7.980901060601e+06 9.486774444539e-06 -2.440072823443e-05 -4.646837279233e-02 9.294384688994e+06 3.946195838027e+06  4.647313612319e-02
4.500000000000e-01 -1.205881752171e-07 0.000000000000e+00 -8.073328958961e+06 -7.641530014929e+03 -1.206934666202e+07 -8.077070090039e+06 9.411208486358e-06 -2.441657671031e-05 -4.651631703216e-02 9.406581903673e+06 3.994170380960e+06  4.652104257293e-02
4.600000000000e-01 -1.209617727863e-07 0.000000000000e+00 -8.169452633340e+06 -7.650633140227e+03 -1.221334866556e+07 -8.173120346222e+06 9.336301403203e-06 -2.443213868068e-05 -4.656363399336e-02 9.518640548375e+06 4.042085144891e+06  4.656832207353e-02
4.700000000000e-01 -1.213218244292e-07 0.000000000000e+00 -8.264422987548e+06 -7.659222423595e+03 -1.235562155876e+07 -8.268017631650e+06 9.262659283543e-06 -2.444656456643e-05 -4.660983806150e-02 9.629354059319e+06 4.089423951951e+06  4.661448931254e-02
4.800000000000e-01 -1.216763400527e-07 0.000000000000e+00 -8.360366995135e+06 -7.667797070587e+03 -1.249935213343e+07 -8.363887452500e+06 9.188784604919e-06 -2.446078962436e-05 -4.665597893873e-02 9.741202193688e+06 4.137247349779e+06  4.666059324416e-02
4.900000000000e-01 -1.220210874887e-07 0.000000000000e+00 -8.455046761184e+06 -7.675964583774e+03 -1.264118783375e+07 -8.458493628497e+06 9.116367110241e-06 -2.447412896257e-05 -4.670099434855e-02 9.851576074476e+06 4.184439824965e+06  4.670557243637e-02
5.000000000000e-01 -1.223583646796e-07 0.000000000000e+00 -8.549687664139e+06 -7.683924683347e+03 -1.278296443635e+07 -8.553060621685e+06 9.044476333665e-06 -2.448694684415e-05 -4.674548933572e-02 9.961904240725e+06 4.231612230847e+06  4.675003146889e-02
5.100000000000e-01 -1.226870016005e-07 0.000000000000e+00 -8.643611558331e+06 -7.691601161767e+03 -1.292366599427e+07 -8.646910795011e+06 8.973586194543e-06 -2.449912945752e-05 -4.678916182083e-02 1.007139611587e+07 4.278426513240e+06  4.679366849927e-02
5.200000000000e-01 -1.230102985164e-07 0.000000000000e+00 -8.737728058985e+06 -7.699094911074e+03 -1.306465536393e+07 -8.740953137128e+06 8.903073750850e-06 -2.451085590368e-05 -4.683244963046e-02 1.018111218668e+07 4.325336224261e+06  4.683692104263e-02
5.300000000000e-01 -1.233272967576e-07 0.000000000000e+00 -8.831847802882e+06 -7.706373354581e+03 -1.320564878392e+07 -8.834998398178e+06 8.833039252881e-06 -2.452207985483e-05 -4.687527428318e-02 1.029083166166e+07 4.372246909281e+06  4.687971066763e-02
5.400000000000e-01 -1.236393613947e-07 0.000000000000e+00 -8.926208287543e+06 -7.713492690923e+03 -1.334700211967e+07 -8.929283923325e+06 8.763330750308e-06 -2.453290876846e-05 -4.691775203081e-02 1.040083144351e+07 4.419277011901e+06  4.692215355022e-02
5.500000000000e-01 -1.239395716618e-07 0.000000000000e+00 -9.018775187499e+06 -7.720277140425e+03 -1.348566761982e+07 -9.021776881808e+06 8.695313728228e-06 -2.454307928192e-05 -4.695898706392e-02 1.050873989637e+07 4.465412363321e+06  4.696335456386e-02
5.600000000000e-01 -1.242352792695e-07 0.000000000000e+00 -9.111482727737e+06 -7.726903569109e+03 -1.362454345090e+07 -9.114410230212e+06 8.627783445268e-06 -2.455287840445e-05 -4.699986220222e-02 1.061681213628e+07 4.511617534757e+06  4.700419592580e-02
5.700000000000e-01 -1.245254838551e-07 0.000000000000e+00 -9.204169941665e+06 -7.733281153106e+03 -1.376338759595e+07 -9.207022775075e+06 8.560534579341e-06 -2.456215685024e-05 -4.704031372338e-02 1.072486010423e+07 4.557811588941e+06  4.704461381080e-02
5.800000000000e-01 -1.248072780480e-07 0.000000000000e+00 -9.295610830601e+06 -7.739412113575e+03 -1.390036407341e+07 -9.298389724261e+06 8.494627121502e-06 -2.457095435267e-05 -4.707982322077e-02 1.083145487609e+07 4.603383942854e+06  4.708409034266e-02
5.900000000000e-01 -1.250836548148e-07 0.000000000000e+00 -9.386920264311e+06 -7.745450302159e+03 -1.403714373883e+07 -9.389625367853e+06 8.429511226971e-06 -2.457952300996e-05 -4.711888971668e-02 1.093789645700e+07 4.648890869934e+06  4.712312426886e-02
6.000000000000e-01 -1.253532466471e-07 0.000000000000e+00 -9.477451722468e+06 -7.751103364073e+03 -1.417275567567e+07 -9.480082731054e+06 8.364790377099e-06 -2.458738048925e-05 -4.715724838234e-02 1.104343004306e+07 4.694008200772e+06  4.716145056165e-02
6.100000000000e-01 -1.256136366488e-07 0.000000000000e+00 -9.566284809227e+06 -7.756555105418e+03 -1.430582408681e+07 -9.568843336631e+06 8.302084983661e-06 -2.459487054118e-05 -4.719453268282e-02 1.114698407756e+07 4.738279578196e+06  4.719870349722e-02
6.200000000000e-01 -1.258701667660e-07 0.000000000000e+00 -9.655350629650e+06 -7.761838873953e+03 -1.443924004472e+07 -9.657836055532e+06 8.239450100370e-06 -2.460201726280e-05 -4.723156791844e-02 1.125080890997e+07 4.782666081673e+06  4.723570740284e-02
6.300000000000e-01 -1.261183993585e-07 0.000000000000e+00 -9.742918667496e+06 -7.766911989450e+03 -1.457041183124e+07 -9.745331993945e+06 8.178253848550e-06 -2.460878949269e-05 -4.726764804380e-02 1.135288749756e+07 4.826305701877e+06  4.727175691762e-02
6.400000000000e-01 -1.263615089022e-07 0.000000000000e+00 -9.829822031244e+06 -7.771772890074e+03 -1.470058752394e+07 -9.832163626222e+06 8.117927999115e-06 -2.461517710923e-05 -4.730313458115e-02 1.145419106047e+07 4.869613722795e+06  4.730721327942e-02
6.500000000000e-01 -1.265975175586e-07 0.000000000000e+00 -9.915507148123e+06 -7.776444450660e+03 -1.482893780177e+07 -9.917777794776e+06 8.058798056413e-06 -2.462123301241e-05 -4.733781716671e-02 1.155407424822e+07 4.912314189715e+06  4.734186628743e-02
6.600000000000e-01 -1.268261213028e-07 0.000000000000e+00 -9.999827845906e+06 -7.780924437590e+03 -1.495524415981e+07 -1.000202862868e+07 8.001081119460e-06 -2.462696250474e-05 -4.737165568813e-02 1.165236687813e+07 4.954334619408e+06  4.737567593791e-02
6.700000000000e-01 -1.270519379353e-07 0.000000000000e+00 -1.008416787613e+07 -7.785195457403e+03 -1.508157764974e+07 -1.008629804915e+07 7.943259989805e-06 -2.463231753507e-05 -4.740521666453e-02 1.175068119167e+07 4.996363223725e+06  4.740920799086e-02
6.800000000000e-01 -1.272650073565e-07 0.000000000000e+00 -1.016499302540e+07 -7.789267267402e+03 -1.520264655208e+07 -1.016705568297e+07 7.888432859140e-06 -2.463738388775e-05 -4.743711622584e-02 1.184489842015e+07 5.036640584094e+06  4.744108012640e-02
6.900000000000e-01 -1.274720340088e-07 0.000000000000e+00 -1.024446648620e+07 -7.793027796422e+03 -1.532169015841e+07 -1.024646252369e+07 7.834769541520e-06 -2.464195140999e-05 -4.746823536124e-02 1.193753972277e+07 5.076243893559e+06  4.747217241769e-02
7.000000000000e-01 -1.276749269571e-07 0.000000000000e+00 -1.032329052162e+07 -7.796729279290e+03 -1.543976070405e+07 -1.032522037062e+07 7.781874958138e-06 -2.464641064186e-05 -4.749886229347e-02 1.202942386543e+07 5.115523355842e+06  4.750277289039e-02
7.100000000000e-01 -1.278713142478e-07 0.000000000000e+00 -1.040066723422e+07 -7.800221358808e+03 -1.555566271532e+07 -1.040253187522e+07 7.730168957609e-06 -2.465054296918e-05 -4.752869969188e-02 1.211962060825e+07 5.154081120961e+06  4.753258442357e-02
7.200000000000e-01 -1.280604011422e-07 0.000000000000e+00 -1.047599530012e+07 -7.803530289310e+03 -1.566849563555e+07 -1.047779628522e+07 7.680073358824e-06 -2.465440394078e-05 -4.755753408746e-02 1.220742907363e+07 5.191617671448e+06  4.756139375936e-02
7.300000000000e-01 -1.282494466469e-07 0.000000000000e+00 -1.055238943990e+07 -7.806772395658e+03 -1.578292518370e+07 -1.055412577635e+07 7.629572379377e-06 -2.465812429583e-05 -4.758656544596e-02 1.229648013331e+07 5.229685272489e+06  4.759039985509e-02
7.400000000000e-01 -1.284305246833e-07 0.000000000000e+00 -1.062633588479e+07 -7.809814912286e+03 -1.589368779040e+07 -1.062800941329e+07 7.580868381389e-06 -2.466156124043e-05 -4.761446652107e-02 1.238267769616e+07 5.266532712741e+06  4.761827656622e-02
7.500000000000e-01 -1.286089412483e-07 0.000000000000e+00 -1.070010537949e+07 -7.812756511888e+03 -1.600418511226e+07 -1.070171615649e+07 7.532553276953e-06 -2.466483126423e-05 -4.764210779887e-02 1.246866888275e+07 5.303291792275e+06  4.764589367443e-02
7.600000000000e-01 -1.287849464409e-07 0.000000000000e+00 -1.077364376272e+07 -7.815595133831e+03 -1.611433579471e+07 -1.077519179955e+07 7.484587406562e-06 -2.466793456470e-05 -4.766947311501e-02 1.255439045233e+07 5.339935340388e+06  4.767323499555e-02
7.700000000000e-01 -1.289557889678e-07 0.000000000000e+00 -1.084597804620e+07 -7.818299092893e+03 -1.622268277886e+07 -1.084746432353e+07 7.437697107280e-06 -2.467084105701e-05 -4.769620847056e-02 1.263870838286e+07 5.375978803368e+06  4.769994689399e-02
7.800000000000e-01 -1.291227723732e-07 0.000000000000e+00 -1.091758285058e+07 -7.820924575115e+03 -1.632993675717e+07 -1.091900785361e+07 7.391490954095e-06 -2.467362856078e-05 -4.772249884695e-02 1.272217582045e+07 5.411658500009e+06  4.772621415547e-02
7.900000000000e-01 -1.292872902009e-07 0.000000000000e+00 -1.098897383434e+07 -7.823416748655e+03 -1.643687007788e+07 -1.099033759242e+07 7.345616399487e-06 -2.467621100621e-05 -4.774853933340e-02 1.280539383488e+07 5.447231346774e+06  4.775223169268e-02
8.000000000000e-01 -1.294479948127e-07 0.000000000000e+00 -1.105926526979e+07 -7.825778550432e+03 -1.654215588576e+07 -1.106056850671e+07 7.300583768556e-06 -2.467860871687e-05 -4.777401356390e-02 1.288732988742e+07 5.482255870353e+06  4.777768339499e-02
8.100000000000e-01 -1.296039140227e-07 0.000000000000e+00 -1.112804763456e+07 -7.828018535085e+03 -1.664518098282e+07 -1.112929150830e+07 7.256696699155e-06 -2.468084234672e-05 -4.779878428000e-02 1.296750670856e+07 5.516528178666e+06  4.780243215589e-02
8.200000000000e-01 -1.297594746562e-07 0.000000000000e+00 -1.119770785315e+07 -7.830208851585e+03 -1.674952084490e+07 -1.119889155725e+07 7.212495214509e-06 -2.468298195285e-05 -4.782371551168e-02 1.304870675177e+07 5.551237801536e+06  4.782734127495e-02
8.300000000000e-01 -1.299109996916e-07 0.000000000000e+00 -1.126620101530e+07 -7.832301240444e+03 -1.685211241427e+07 -1.126732546631e+07 7.169241089829e-06 -2.468499010852e-05 -4.784807802409e-02 1.312854629863e+07 5.585365733119e+06  4.785168214860e-02
8.400000000000e-01 -1.300596555349e-07 0.000000000000e+00 -1.133411423102e+07 -7.834304658030e+03 -1.695383503125e+07 -1.133517981556e+07 7.126534860158e-06 -2.468687227632e-05 -4.787208821117e-02 1.320770969261e+07 5.619204467661e+06  4.787567097092e-02
8.500000000000e-01 -1.302062985788e-07 0.000000000000e+00 -1.140184939582e+07 -7.836198179108e+03 -1.705529052459e+07 -1.140285609466e+07 7.084076464328e-06 -2.468859462206e-05 -4.789589230316e-02 1.328666533836e+07 5.652954140561e+06  4.789945382197e-02
8.600000000000e-01 -1.303500006454e-07 0.000000000000e+00 -1.146877161220e+07 -7.838034894354e+03 -1.715552820048e+07 -1.146972006702e+07 7.042333265661e-06 -2.469024276639e-05 -4.791927202841e-02 1.336467329323e+07 5.686298626229e+06  4.792281266406e-02
8.700000000000e-01 -1.304907685066e-07 0.000000000000e+00 -1.153530901999e+07 -7.839676803679e+03 -1.725518871472e+07 -1.153619925084e+07 7.000855147758e-06 -2.469161797214e-05 -4.794238203426e-02 1.344223232852e+07 5.719450750112e+06  4.794590191905e-02
8.800000000000e-01 -1.306284833711e-07 0.000000000000e+00 -1.160080066492e+07 -7.841338821861e+03 -1.735328302697e+07 -1.160163364825e+07 6.960308603454e-06 -2.469303177444e-05 -4.796499893685e-02 1.351857244672e+07 5.752081949820e+06  4.796849853695e-02
8.900000000000e-01 -1.307634068993e-07 0.000000000000e+00 -1.166530942362e+07 -7.843017868049e+03 -1.744990577003e+07 -1.166608626297e+07 6.920766787906e-06 -2.469447931653e-05 -4.798715205337e-02 1.359376715220e+07 5.784223917787e+06  4.799063187155e-02
9.000000000000e-01 -1.308973748680e-07 0.000000000000e+00 -1.173035071982e+07 -7.844506761720e+03 -1.754732499306e+07 -1.173107048411e+07 6.880801492787e-06 -2.469565297790e-05 -4.800936386620e-02 1.366958206566e+07 5.816630293566e+06  4.801282369025e-02
9.100000000000e-01 -1.310277761134e-07 0.000000000000e+00 -1.179438641764e+07 -7.845870886463e+03 -1.764323768257e+07 -1.179504985189e+07 6.841579936682e-06 -2.469666661679e-05 -4.803111200840e-02 1.374422465070e+07 5.848535364018e+06  4.803455221024e-02
9.200000000000e-01 -1.311557434486e-07 0.000000000000e+00 -1.185733066800e+07 -7.847297235581e+03 -1.773751603212e+07 -1.185793890407e+07 6.803354151991e-06 -2.469777804739e-05 -4.805237474369e-02 1.381759520140e+07 5.879896979179e+06  4.805579582170e-02
9.300000000000e-01 -1.312828487539e-07 0.000000000000e+00 -1.192078774699e+07 -7.848609995964e+03 -1.783256199981e+07 -1.192134013428e+07 6.764889482364e-06 -2.469872595474e-05 -4.807369654184e-02 1.389156329369e+07 5.911513709232e+06  4.807709837632e-02
9.400000000000e-01 -1.314042088601e-07 0.000000000000e+00 -1.198191057606e+07 -7.849741974083e+03 -1.792411126595e+07 -1.198240898321e+07 6.727911167500e-06 -2.469945946735e-05 -4.809412659977e-02 1.396281027507e+07 5.941967057075e+06  4.809750993410e-02
9.500000000000e-01 -1.315284565257e-07 0.000000000000e+00 -1.204489396484e+07 -7.850985798125e+03 -1.801844735100e+07 -1.204533678286e+07 6.690030005136e-06 -2.470031783122e-05 -4.811506990712e-02 1.403622603290e+07 5.973347467727e+06  4.811843428980e-02
9.600000000000e-01 -1.316477284578e-07 0.000000000000e+00 -1.210602905497e+07 -7.852048835204e+03 -1.811001452283e+07 -1.210641769700e+07 6.653307463809e-06 -2.470095768955e-05 -4.813529376280e-02 1.410748709160e+07 6.003806560193e+06  4.813863977325e-02
9.700000000000e-01 -1.317654056072e-07 0.000000000000e+00 -1.216675512391e+07 -7.853080589878e+03 -1.820096919235e+07 -1.216709000096e+07 6.617048924987e-06 -2.470156136611e-05 -4.815528143608e-02 1.417827143907e+07 6.034061967583e+06  4.815860930642e-02
9.800000000000e-01 -1.318811825731e-07 0.000000000000e+00 -1.222713699574e+07 -7.854048552905e+03 -1.829140802122e+07 -1.222741828903e+07 6.581096520286e-06 -2.470208483628e-05 -4.817505696357e-02 1.424865443533e+07 6.064145642138e+06  4.817836684688e-02
9.900000000000e-01 -1.319950534867e-07 0.000000000000e+00 -1.228698604809e+07 -7.854934372783e+03 -1.838104835152e+07 -1.228721404905e+07 6.545519947297e-06 -2.470250737539e-05 -4.819456160406e-02 1.431841614955e+07 6.093963493322e+06  4.819785368828e-02
1.000000000000e+00 -1.321079738962e-07 0.000000000000e+00 -1.234687140554e+07 -7.855808102340e+03 -1.847074328061e+07 -1.234704616980e+07 6.510154942384e-06 -2.470291431322e-05 -4.821398326269e-02 1.438822028531e+07 6.123799611360e+06  4.821725765367e-02
1.050000000000e+00 -1.326573690270e-07 0.000000000000e+00 -1.260875254934e+07 -7.884761571707e+03 -1.886307539009e+07 -1.260873147779e+07 6.337560181624e-06 -2.470476335289e-05 -4.830860912374e-02 1.469351980574e+07 6.254348286871e+06  4.831179716518e-02
1.100000000000e+00 -1.463942554248e-07 0.000000000000e+00 -1.286690033406e+07 -9.520355438360e+03 -1.926072201791e+07 -1.287104923328e+07 9.521434236639e-06 -2.715771764903e-05 -4.841081663928e-02 1.499955719508e+07 6.391769514610e+06  4.841560090891e-02
1.150000000000e+00 -1.513410464330e-07 0.000000000000e+00 -1.314575561414e+07 -9.436480123948e+03 -1.968194541805e+07 -1.315108067736e+07 1.036590274516e-05 -2.710602053211e-05 -4.850577340474e-02 1.532626056985e+07 6.533549343701e+06  4.851097990540e-02
1.200000000000e+00 -1.557748741941e-07 0.000000000000e+00 -1.345193485282e+07 -8.502846375183e+03 -2.012080021699e+07 -1.344909424586e+07 5.420136204374e-06 -2.618276047050e-05 -4.858479875317e-02 1.567394310522e+07 6.670302379575e+06  4.858753021200e-02
1.250000000000e+00 -1.611285173282e-07 0.000000000000e+00 -1.367816566117e+07 -6.928926101872e+03 -2.045991569928e+07 -1.367523270039e+07 5.360125379163e-06 -2.434216660882e-05 -4.865150305946e-02 1.593777135361e+07 6.783227610703e+06  4.865420161153e-02
1.300000000000e+00 -1.611554886563e-07 0.000000000000e+00 -1.392242271766e+07 -7.131990929358e+03 -2.082572773096e+07 -1.391926026287e+07 5.224325887811e-06 -2.457338058791e-05 -4.872224056198e-02 1.622247023716e+07 6.904897833688e+06  4.872487152460e-02