 TITLE = "Time curves in points"
 VARIABLES = "TIME "  "PRESSURE1"  "PRESSURE2"  "PRESSURE_W"  "SATURATION1" SATURATION2  "VELOCITY_X1"  "VELOCITY_Y1"  "VELOCITY_X2"  "VELOCITY_Y2"  p_(1st_Invariant)  q_(2nd_Invariant)   Effective_Strain
 ZONE T="POINT=POINT6"
0.000000000000e+00 8.400000000000e+07 1.000000000000e+05 -8.390000000000e+07 6.601393844892e-01 3.398606155108e-01 0.000000000000e+00 0.000000000000e+00 0.000000000000e+00 0.000000000000e+00 1.000000000000e+05 0.000000000000e+00  0.000000000000e+00
1.000000000000e-03 8.400003165785e+07 1.000000000000e+05 -8.390003165785e+07 6.601392579556e-01 3.398607420444e-01 -3.080785564448e-12 -2.941642619620e-11 3.245157125011e-18 -2.086459089903e-15 1.183198763860e+05 7.852544420414e+03  7.579571271327e-04
2.000000000000e-03 8.400003113087e+07 1.000000000000e+05 -8.390003113087e+07 6.601392603682e-01 3.398607396318e-01 -3.034377107455e-12 -2.926997046382e-11 6.474660162102e-18 -2.103317000720e-15 2.450723271266e+05 6.218290324438e+04  2.757337894167e-02
3.000000000000e-03 8.400003060559e+07 1.000000000000e+05 -8.390003060559e+07 6.601392627652e-01 3.398607372348e-01 -2.988219155416e-12 -2.914118389334e-11 9.678668461465e-18 -2.120187224418e-15 6.190094406511e+05 2.224339509982e+05  3.586918640183e-02
4.000000000000e-03 8.400003008207e+07 1.000000000000e+05 -8.390003008207e+07 6.601392651466e-01 3.398607348534e-01 -2.942312553270e-12 -2.902972064276e-11 1.283381658859e-17 -2.137033772334e-15 1.295455587976e+06 5.123020506697e+05  3.925236852733e-02
5.000000000000e-03 8.400002956035e+07 1.000000000000e+05 -8.390002956035e+07 6.601392675122e-01 3.398607324878e-01 -2.896656018566e-12 -2.893524192202e-11 1.597835313352e-17 -2.153909586671e-15 1.549325768446e+06 6.212402992486e+05  4.003333658906e-02
6.000000000000e-03 8.400002904050e+07 1.000000000000e+05 -8.390002904050e+07 6.601392698620e-01 3.398607301380e-01 -2.851250028953e-12 -2.885741045509e-11 1.909985097465e-17 -2.170792597288e-15 1.679682982358e+06 6.780190113494e+05  4.045094482207e-02
7.000000000000e-03 8.400002852256e+07 1.000000000000e+05 -8.390002852256e+07 6.601392721960e-01 3.398607278040e-01 -2.806095236958e-12 -2.879589340453e-11 2.218272810248e-17 -2.187675685559e-15 1.723113758809e+06 6.981899182223e+05  4.059714221634e-02
8.000000000000e-03 8.400002800659e+07 1.000000000000e+05 -8.390002800659e+07 6.601392745139e-01 3.398607254861e-01 -2.761191889232e-12 -2.875036078028e-11 2.522579384050e-17 -2.204550203501e-15 1.744453803562e+06 7.065799604631e+05  4.064229950795e-02
9.000000000000e-03 8.400002749262e+07 1.000000000000e+05 -8.390002749262e+07 6.601392768159e-01 3.398607231841e-01 -2.716538958386e-12 -2.872048647380e-11 2.824999993139e-17 -2.221421718912e-15 1.758633654366e+06 7.127479385392e+05  4.067517892696e-02
1.000000000000e-02 8.400002698072e+07 1.000000000000e+05 -8.390002698072e+07 6.601392791017e-01 3.398607208983e-01 -2.672136655632e-12 -2.870595001513e-11 3.124706566048e-17 -2.238304654549e-15 1.774321921144e+06 7.194753627948e+05  4.071073516058e-02
2.000000000000e-02 8.400002210691e+07 1.000000000000e+05 -8.390002210691e+07 6.601393003076e-01 3.398606996924e-01 -2.253080322558e-12 -2.980817826561e-11 5.873581216190e-17 -2.404525703152e-15 5.086934929556e+06 2.141825804176e+06  4.536857080638e-02
3.000000000000e-02 8.400001750969e+07 1.000000000000e+05 -8.390001750969e+07 6.601393198373e-01 3.398606801627e-01 -1.858823093054e-12 -3.190408200950e-11 8.370787588221e-17 -2.566033169488e-15 2.900989250875e+06 1.203605447593e+06  4.127491173093e-02
4.000000000000e-02 8.400001321334e+07 1.000000000000e+05 -8.390001321334e+07 6.601393376852e-01 3.398606623148e-01 -1.489144898014e-12 -3.476960393308e-11 1.063904542773e-16 -2.721335338430e-15 3.416733332259e+06 1.422685671382e+06  4.192776758418e-02
5.000000000000e-02 8.400000923595e+07 1.000000000000e+05 -8.390000923595e+07 6.601393538604e-01 3.398606461396e-01 -1.143740412555e-12 -3.820743879119e-11 1.268959344399e-16 -2.869134449529e-15 2.911686060129e+06 1.211837089512e+06  4.118745150031e-02
6.000000000000e-02 8.400000558996e+07 1.000000000000e+05 -8.390000558996e+07 6.601393683859e-01 3.398606316141e-01 -8.222648288735e-13 -4.204534580075e-11 1.452844291399e-16 -3.008011031237e-15 4.424942488605e+06 1.862112117203e+06  4.324143994306e-02
7.000000000000e-02 8.400000228297e+07 1.000000000000e+05 -8.390000228297e+07 6.601393812959e-01 3.398606187041e-01 -5.243086163111e-13 -4.613328484356e-11 1.617276520426e-16 -3.137365719113e-15 4.101454949129e+06 1.724983718407e+06  4.286561614245e-02
8.000000000000e-02 8.399999931819e+07 1.000000000000e+05 -8.389999931819e+07 6.601393926345e-01 3.398606073655e-01 -2.494160161159e-13 -5.034204073451e-11 1.764282093339e-16 -3.256821728646e-15 4.315650443866e+06 1.807515857450e+06  4.309427120079e-02
9.000000000000e-02 8.399999669505e+07 1.000000000000e+05 -8.389999669505e+07 6.601394024539e-01 3.398605975461e-01 2.902728720950e-15 -5.456092890036e-11 1.893788634682e-16 -3.365516557514e-15 4.425762243749e+06 1.848795388830e+06  4.320766949619e-02
1.000000000000e-01 8.399999440986e+07 1.000000000000e+05 -8.389999440986e+07 6.601394108130e-01 3.398605891870e-01 2.332056237380e-13 -5.869582611886e-11 2.007102581572e-16 -3.463272121677e-15 4.587333279250e+06 1.916075276315e+06  4.339162459773e-02
1.100000000000e-01 8.399999245595e+07 1.000000000000e+05 -8.389999245595e+07 6.601394177763e-01 3.398605822237e-01 4.420779783250e-13 -6.266816197992e-11 2.105339891807e-16 -3.550024627474e-15 4.784945662032e+06 1.997848764671e+06  4.354795888686e-02
1.200000000000e-01 8.399999082441e+07 1.000000000000e+05 -8.389999082441e+07 6.601394234126e-01 3.398605765874e-01 6.301300260003e-13 -6.641280676057e-11 2.189296782031e-16 -3.625663895024e-15 4.847796735861e+06 2.025952268009e+06  4.359923318072e-02
1.300000000000e-01 8.399998950429e+07 1.000000000000e+05 -8.389998950429e+07 6.601394277939e-01 3.398605722061e-01 7.980007780693e-13 -6.987701482265e-11 2.260039104243e-16 -3.690265924886e-15 5.081421125821e+06 2.124413879773e+06  4.383891631821e-02
1.400000000000e-01 8.399998848287e+07 1.000000000000e+05 -8.389998848287e+07 6.601394309951e-01 3.398605690049e-01 9.463644045032e-13 -7.301913876095e-11 2.318217590258e-16 -3.744027060243e-15 5.287870825604e+06 2.213009153361e+06  4.404746049173e-02
1.500000000000e-01 8.399998774621e+07 1.000000000000e+05 -8.389998774621e+07 6.601394330920e-01 3.398605669080e-01 1.075911969009e-12 -7.580714384943e-11 2.364385124464e-16 -3.787334798593e-15 5.480491376915e+06 2.298650420416e+06  4.421036378137e-02
1.600000000000e-01 8.399998727917e+07 1.000000000000e+05 -8.389998727917e+07 6.601394341620e-01 3.398605658380e-01 1.187351751978e-12 -7.821803427601e-11 2.400362251254e-16 -3.820369675939e-15 5.602912584471e+06 2.354998358611e+06  4.433396596264e-02
1.700000000000e-01 8.399998706572e+07 1.000000000000e+05 -8.389998706572e+07 6.601394342825e-01 3.398605657175e-01 1.281406344916e-12 -8.023658730205e-11 2.426268470364e-16 -3.843628527941e-15 5.740327832720e+06 2.408374312709e+06  4.445267178265e-02
1.800000000000e-01 8.399998708933e+07 1.000000000000e+05 -8.389998708933e+07 6.601394335306e-01 3.398605664694e-01 1.358826878785e-12 -8.185414105111e-11 2.443052776448e-16 -3.857424572983e-15 5.920905619262e+06 2.479281050521e+06  4.456935493257e-02
1.900000000000e-01 8.399998733292e+07 1.000000000000e+05 -8.389998733292e+07 6.601394319828e-01 3.398605680172e-01 1.420360548338e-12 -8.306834010325e-11 2.451407972427e-16 -3.862422834286e-15 6.078646297949e+06 2.547642045803e+06  4.466828932769e-02
2.000000000000e-01 8.399998777919e+07 1.000000000000e+05 -8.389998777919e+07 6.601394297142e-01 3.398605702858e-01 1.466762391114e-12 -8.388202264123e-11 2.452394538573e-16 -3.858938521042e-15 6.228750305840e+06 2.620452923202e+06  4.477279908956e-02
2.100000000000e-01 8.399998841081e+07 1.000000000000e+05 -8.389998841081e+07 6.601394267983e-01 3.398605732017e-01 1.498800167953e-12 -8.430236873949e-11 2.446116320118e-16 -3.847653268832e-15 6.365956619916e+06 2.681308558122e+06  4.486077806324e-02
2.200000000000e-01 8.399998921039e+07 1.000000000000e+05 -8.389998921039e+07 6.601394233069e-01 3.398605766931e-01 1.517240063591e-12 -8.434064856435e-11 2.433697746711e-16 -3.829087430988e-15 6.503166912303e+06 2.740344767088e+06  4.494693514354e-02
2.300000000000e-01 8.399999016078e+07 1.000000000000e+05 -8.389999016078e+07 6.601394193094e-01 3.398605806906e-01 1.522848019662e-12 -8.401134208127e-11 2.415767261898e-16 -3.803757765387e-15 6.650356122259e+06 2.803801808841e+06  4.503822521261e-02
2.400000000000e-01 8.399999124516e+07 1.000000000000e+05 -8.389999124516e+07 6.601394148726e-01 3.398605851274e-01 1.516385431883e-12 -8.333153947894e-11 2.392546517855e-16 -3.772352406028e-15 6.790235818295e+06 2.863541778080e+06  4.512130569807e-02
2.500000000000e-01 8.399999244701e+07 1.000000000000e+05 -8.389999244701e+07 6.601394100608e-01 3.398605899392e-01 1.498614885824e-12 -8.232073336169e-11 2.364611871874e-16 -3.735431578416e-15 6.930932808487e+06 2.923346793201e+06  4.520272145222e-02
2.600000000000e-01 8.399999375024e+07 1.000000000000e+05 -8.389999375024e+07 6.601394049358e-01 3.398605950642e-01 1.470286555940e-12 -8.100027386528e-11 2.332629533716e-16 -3.693465399823e-15 7.070079959452e+06 2.982524694388e+06  4.528167721508e-02
2.700000000000e-01 8.399999513932e+07 1.000000000000e+05 -8.389999513932e+07 6.601393995561e-01 3.398606004439e-01 1.432144836049e-12 -7.939290203535e-11 2.297358407479e-16 -3.647139646813e-15 7.209681315533e+06 3.041907789413e+06  4.535935762828e-02
2.800000000000e-01 8.399999659933e+07 1.000000000000e+05 -8.389999659933e+07 6.601393939774e-01 3.398606060226e-01 1.384926611172e-12 -7.752227098371e-11 2.258965203168e-16 -3.596928929148e-15 7.348882871395e+06 3.101867810493e+06  4.543629751772e-02
2.900000000000e-01 8.399999811585e+07 1.000000000000e+05 -8.389999811585e+07 6.601393882524e-01 3.398606117476e-01 1.329357105664e-12 -7.541304234550e-11 2.217910566190e-16 -3.543437069616e-15 7.489892991884e+06 3.162074405912e+06  4.551208917171e-02
3.000000000000e-01 8.399999967516e+07 1.000000000000e+05 -8.389999967516e+07 6.601393824307e-01 3.398606175693e-01 1.266147820297e-12 -7.309027748359e-11 2.175027168882e-16 -3.487165029053e-15 7.630401637025e+06 3.222126488678e+06  4.558627804733e-02
3.100000000000e-01 8.400000126429e+07 1.000000000000e+05 -8.390000126429e+07 6.601393765587e-01 3.398606234413e-01 1.195995456134e-12 -7.057912866975e-11 2.130455450736e-16 -3.428639500058e-15 7.769039858744e+06 3.281371966498e+06  4.565814191749e-02
3.200000000000e-01 8.400000287096e+07 1.000000000000e+05 -8.390000287096e+07 6.601393706797e-01 3.398606293203e-01 1.119582583677e-12 -6.790475286631e-11 2.084390417576e-16 -3.368328079664e-15 7.904357369788e+06 3.339199086499e+06  4.572705725093e-02
3.300000000000e-01 8.400000448355e+07 1.000000000000e+05 -8.390000448355e+07 6.601393648340e-01 3.398606351660e-01 1.037576332802e-12 -6.509218889669e-11 2.037340429089e-16 -3.306806148714e-15 8.031295440967e+06 3.393445082703e+06  4.579063749038e-02
3.400000000000e-01 8.400000609117e+07 1.000000000000e+05 -8.390000609117e+07 6.601393590590e-01 3.398606409410e-01 9.506272635121e-13 -6.216609425491e-11 1.989567765647e-16 -3.244452669371e-15 8.158128815529e+06 3.447646504082e+06  4.585316900240e-02
3.500000000000e-01 8.400000768375e+07 1.000000000000e+05 -8.390000768375e+07 6.601393533886e-01 3.398606466114e-01 8.593679552633e-13 -5.915042589323e-11 1.941717779492e-16 -3.181740353886e-15 8.281575305256e+06 3.500400245245e+06  4.591310222976e-02
3.600000000000e-01 8.400000925197e+07 1.000000000000e+05 -8.390000925197e+07 6.601393478541e-01 3.398606521459e-01 7.644082689066e-13 -5.606845634729e-11 1.893702556404e-16 -3.119029434028e-15 8.398553485487e+06 3.550389286861e+06  4.596907370969e-02
3.700000000000e-01 8.400001078719e+07 1.000000000000e+05 -8.390001078719e+07 6.601393424837e-01 3.398606575163e-01 6.663396429224e-13 -5.294275571834e-11 1.845845975444e-16 -3.056793757487e-15 8.511479422333e+06 3.598647119319e+06  4.602237078314e-02
3.800000000000e-01 8.400001228149e+07 1.000000000000e+05 -8.390001228149e+07 6.601393373031e-01 3.398606626969e-01 5.657364000571e-13 -4.979503408243e-11 1.798399872185e-16 -2.995292909449e-15 8.625979371520e+06 3.647577213415e+06  4.607569316540e-02
3.900000000000e-01 8.400001372764e+07 1.000000000000e+05 -8.390001372764e+07 6.601393323351e-01 3.398606676649e-01 4.631535250162e-13 -4.664600710594e-11 1.752017437207e-16 -2.934929551977e-15 8.740345711131e+06 3.696450208847e+06  4.612825101583e-02
4.000000000000e-01 8.400001511923e+07 1.000000000000e+05 -8.390001511923e+07 6.601393275997e-01 3.398606724003e-01 3.591207295449e-13 -4.351520366608e-11 1.706421377015e-16 -2.875956761547e-15 8.855395554623e+06 3.745615236520e+06  4.618043335411e-02
4.100000000000e-01 8.400001645043e+07 1.000000000000e+05 -8.390001645043e+07 6.601393231146e-01 3.398606768854e-01 2.541468140211e-13 -4.042120338809e-11 1.662056352469e-16 -2.818705532130e-15 8.968698794811e+06 3.794034054365e+06  4.623116457515e-02
4.200000000000e-01 8.400001771613e+07 1.000000000000e+05 -8.390001771613e+07 6.601393188949e-01 3.398606811051e-01 1.487192556918e-13 -3.738145402003e-11 1.619163398477e-16 -2.763471219151e-15 9.082071214000e+06 3.842481789160e+06  4.628128833916e-02
4.300000000000e-01 8.400001891175e+07 1.000000000000e+05 -8.390001891175e+07 6.601393149537e-01 3.398606850463e-01 4.330623252663e-14 -3.441233611020e-11 1.577912831912e-16 -2.710441852692e-15 9.196102998773e+06 3.891211339023e+06  4.633107625756e-02
4.400000000000e-01 8.400002003344e+07 1.000000000000e+05 -8.390002003344e+07 6.601393113017e-01 3.398606886983e-01 -6.164745972231e-14 -3.152892924016e-11 1.538160401870e-16 -2.659889056898e-15 9.307917688843e+06 3.938993778107e+06  4.637929989087e-02
4.500000000000e-01 8.400002107796e+07 1.000000000000e+05 -8.390002107796e+07 6.601393079471e-01 3.398606920529e-01 -1.657210889134e-13 -2.874506018329e-11 1.500268344446e-16 -2.611947014564e-15 9.419404443341e+06 3.986635964654e+06  4.642680831590e-02
4.600000000000e-01 8.400002204264e+07 1.000000000000e+05 -8.390002204264e+07 6.601393048965e-01 3.398606951035e-01 -2.685171004300e-13 -2.607343575537e-11 1.464370800454e-16 -2.566832361952e-15 9.532004018138e+06 4.034753036990e+06  4.647422288645e-02
4.700000000000e-01 8.400002292535e+07 1.000000000000e+05 -8.390002292535e+07 6.601393021542e-01 3.398606978458e-01 -3.696597451513e-13 -2.352558000201e-11 1.430399248346e-16 -2.524646214720e-15 9.644130081828e+06 4.082668293600e+06  4.652088491663e-02
4.800000000000e-01 8.400002372449e+07 1.000000000000e+05 -8.390002372449e+07 6.601392997230e-01 3.398607002770e-01 -4.687939770824e-13 -2.111181953803e-11 1.398798271280e-16 -2.485524099576e-15 9.754945091638e+06 4.130022765184e+06  4.656647036812e-02
4.900000000000e-01 8.400002443891e+07 1.000000000000e+05 -8.390002443891e+07 6.601392976041e-01 3.398607023959e-01 -5.655825672148e-13 -1.884137111111e-11 1.369599215310e-16 -2.449656602705e-15 9.866557110002e+06 4.177718292359e+06  4.661186356609e-02
5.000000000000e-01 8.400002506803e+07 1.000000000000e+05 -8.390002506803e+07 6.601392957967e-01 3.398607042033e-01 -6.597162221615e-13 -1.672219974151e-11 1.342557086604e-16 -2.417059157437e-15 9.976814751738e+06 4.224834662344e+06  4.665620372747e-02
5.100000000000e-01 8.400002561165e+07 1.000000000000e+05 -8.390002561165e+07 6.601392942987e-01 3.398607057013e-01 -7.509064016676e-13 -1.476123338439e-11 1.317828898009e-16 -2.387833302377e-15 1.008669403649e+07 4.271789211857e+06  4.669990649849e-02
5.200000000000e-01 8.400002607003e+07 1.000000000000e+05 -8.390002607003e+07 6.601392931067e-01 3.398607068933e-01 -8.388863733302e-13 -1.296432298849e-11 1.295619242922e-16 -2.362008117915e-15 1.019726292634e+07 4.319038132691e+06  4.674340521705e-02
5.300000000000e-01 8.400002644377e+07 1.000000000000e+05 -8.390002644377e+07 6.601392922160e-01 3.398607077840e-01 -9.234108954479e-13 -1.133626170855e-11 1.275840393478e-16 -2.339608975005e-15 1.030715543373e+07 4.365998350757e+06  4.678617300395e-02
5.400000000000e-01 8.400002673388e+07 1.000000000000e+05 -8.390002673388e+07 6.601392916206e-01 3.398607083794e-01 -1.004253120582e-12 -9.880846574796e-12 1.258541455899e-16 -2.320685640692e-15 1.041689290774e+07 4.412892346115e+06  4.682842765922e-02
5.500000000000e-01 8.400002694165e+07 1.000000000000e+05 -8.390002694165e+07 6.601392913136e-01 3.398607086864e-01 -1.081202743581e-12 -8.600908259521e-12 1.243593609871e-16 -2.305236387232e-15 1.052463920022e+07 4.458935446813e+06  4.686948426115e-02
5.600000000000e-01 8.400002706868e+07 1.000000000000e+05 -8.390002706868e+07 6.601392912874e-01 3.398607087126e-01 -1.154073035768e-12 -7.498403881896e-12 1.231139151135e-16 -2.293239388057e-15 1.063282256572e+07 4.505164754062e+06  4.691028608536e-02
5.700000000000e-01 8.400002711694e+07 1.000000000000e+05 -8.390002711694e+07 6.601392915328e-01 3.398607084672e-01 -1.222696942571e-12 -6.574317548238e-12 1.221471386903e-16 -2.284664036251e-15 1.074111287964e+07 4.551440284869e+06  4.695071490487e-02
5.800000000000e-01 8.400002708861e+07 1.000000000000e+05 -8.390002708861e+07 6.601392920403e-01 3.398607079597e-01 -1.286929548709e-12 -5.828787732241e-12 1.214036094184e-16 -2.279478419590e-15 1.084812859941e+07 4.597170892207e+06  4.699026887206e-02
5.900000000000e-01 8.400002698615e+07 1.000000000000e+05 -8.390002698615e+07 6.601392927993e-01 3.398607072007e-01 -1.346641823231e-12 -5.261163862680e-12 1.209025691753e-16 -2.277652660126e-15 1.095438738204e+07 4.642578336461e+06  4.702915888592e-02
6.000000000000e-01 8.400002681222e+07 1.000000000000e+05 -8.390002681222e+07 6.601392937989e-01 3.398607062011e-01 -1.401725549957e-12 -4.870046252973e-12 1.206448799339e-16 -2.279128496593e-15 1.106003762222e+07 4.687724494671e+06  4.706745269748e-02
6.100000000000e-01 8.400002656965e+07 1.000000000000e+05 -8.390002656965e+07 6.601392950275e-01 3.398607049725e-01 -1.452083279860e-12 -4.653326869260e-12 1.206101235090e-16 -2.283806555806e-15 1.116466825350e+07 4.732435974728e+06  4.710501870930e-02
6.200000000000e-01 8.400002626145e+07 1.000000000000e+05 -8.390002626145e+07 6.601392964731e-01 3.398607035269e-01 -1.497638743138e-12 -4.608204868342e-12 1.208202080850e-16 -2.291576983748e-15 1.126747189209e+07 4.776366343465e+06  4.714158678020e-02
6.300000000000e-01 8.400002589083e+07 1.000000000000e+05 -8.390002589083e+07 6.601392981232e-01 3.398607018768e-01 -1.538332289124e-12 -4.731270969540e-12 1.212940494310e-16 -2.302423276799e-15 1.137081296040e+07 4.820526219837e+06  4.717801111212e-02
6.400000000000e-01 8.400002546106e+07 1.000000000000e+05 -8.390002546106e+07 6.601392999649e-01 3.398607000351e-01 -1.574121754460e-12 -5.018557523661e-12 1.219716060346e-16 -2.316180402797e-15 1.147198475761e+07 4.863759404368e+06  4.721335144920e-02
6.500000000000e-01 8.400002497558e+07 1.000000000000e+05 -8.390002497558e+07 6.601393019853e-01 3.398606980147e-01 -1.604978548968e-12 -5.465541520282e-12 1.228584803588e-16 -2.332819112290e-15 1.157127562125e+07 4.906188827377e+06  4.724773272317e-02
6.600000000000e-01 8.400002443792e+07 1.000000000000e+05 -8.390002443792e+07 6.601393041709e-01 3.398606958291e-01 -1.630889383118e-12 -6.067209682182e-12 1.239516519030e-16 -2.352205810710e-15 1.167039694608e+07 4.948545276548e+06  4.728176174254e-02
6.700000000000e-01 8.400002385164e+07 1.000000000000e+05 -8.390002385164e+07 6.601393065083e-01 3.398606934917e-01 -1.651854570240e-12 -6.818122863465e-12 1.252512543015e-16 -2.374186771049e-15 1.176711782053e+07 4.989876070415e+06  4.731468894983e-02
6.800000000000e-01 8.400002322033e+07 1.000000000000e+05 -8.390002322033e+07 6.601393089844e-01 3.398606910156e-01 -1.667883673892e-12 -7.712540437013e-12 1.267657374768e-16 -2.398629385699e-15 1.186405477200e+07 5.031299326442e+06  4.734741931295e-02
6.900000000000e-01 8.400002254770e+07 1.000000000000e+05 -8.390002254770e+07 6.601393115853e-01 3.398606884147e-01 -1.679006636986e-12 -8.744225481600e-12 1.284700501743e-16 -2.425415129023e-15 1.195685184933e+07 5.070953438310e+06  4.737850174723e-02
7.000000000000e-01 8.400002183747e+07 1.000000000000e+05 -8.390002183747e+07 6.601393142976e-01 3.398606857024e-01 -1.685264021643e-12 -9.906617813276e-12 1.303520023392e-16 -2.454484826855e-15 1.204717915495e+07 5.109552133156e+06  4.740852578965e-02
7.100000000000e-01 8.400002109340e+07 1.000000000000e+05 -8.390002109340e+07 6.601393171076e-01 3.398606828924e-01 -1.686706292175e-12 -1.119287548529e-11 1.324407180681e-16 -2.485664141750e-15 1.213728503047e+07 5.148056243023e+06  4.743825272175e-02
7.200000000000e-01 8.400002031921e+07 1.000000000000e+05 -8.390002031921e+07 6.601393200019e-01 3.398606799981e-01 -1.683397809279e-12 -1.259591538133e-11 1.346823211142e-16 -2.518749644145e-15 1.222645703766e+07 5.186161158397e+06  4.746745483704e-02
7.300000000000e-01 8.400001951863e+07 1.000000000000e+05 -8.390001951863e+07 6.601393229673e-01 3.398606770327e-01 -1.675410486249e-12 -1.410845579108e-11 1.370988985735e-16 -2.553650639758e-15 1.231396961846e+07 5.223556942423e+06  4.749590696453e-02
7.400000000000e-01 8.400001869535e+07 1.000000000000e+05 -8.390001869535e+07 6.601393259907e-01 3.398606740093e-01 -1.662830245431e-12 -1.572306186579e-11 1.396542585959e-16 -2.590269244111e-15 1.240025869486e+07 5.260430020277e+06  4.752376394874e-02
7.500000000000e-01 8.400001785299e+07 1.000000000000e+05 -8.390001785299e+07 6.601393290593e-01 3.398606709407e-01 -1.645745906945e-12 -1.743216286594e-11 1.423832535198e-16 -2.628416144440e-15 1.248749583828e+07 5.297708120494e+06  4.755173058481e-02
7.600000000000e-01 8.400001699518e+07 1.000000000000e+05 -8.390001699518e+07 6.601393321605e-01 3.398606678395e-01 -1.624260365221e-12 -1.922805060259e-11 1.452392665676e-16 -2.668019765395e-15 1.257197913749e+07 5.333808993207e+06  4.757862818487e-02
7.700000000000e-01 8.400001612545e+07 1.000000000000e+05 -8.390001612545e+07 6.601393352819e-01 3.398606647181e-01 -1.598485409673e-12 -2.110294358677e-11 1.482276471294e-16 -2.708848738794e-15 1.265640191393e+07 5.369884799121e+06  4.760532710070e-02
7.800000000000e-01 8.400001524730e+07 1.000000000000e+05 -8.390001524730e+07 6.601393384116e-01 3.398606615884e-01 -1.568540103965e-12 -2.304901360470e-11 1.513161924500e-16 -2.750766913236e-15 1.273971060176e+07 5.405484295305e+06  4.763149937163e-02
7.900000000000e-01 8.400001436410e+07 1.000000000000e+05 -8.390001436410e+07 6.601393415378e-01 3.398606584622e-01 -1.534547372640e-12 -2.505848062342e-11 1.545376409343e-16 -2.793666729500e-15 1.282283768935e+07 5.441005743829e+06  4.765744417428e-02
8.000000000000e-01 8.400001347915e+07 1.000000000000e+05 -8.390001347915e+07 6.601393446495e-01 3.398606553505e-01 -1.496639601252e-12 -2.712353049575e-11 1.578640509396e-16 -2.837433355689e-15 1.290482485005e+07 5.476040386159e+06  4.768286906376e-02
8.100000000000e-01 8.400001259571e+07 1.000000000000e+05 -8.390001259571e+07 6.601393477355e-01 3.398606522645e-01 -1.454955279285e-12 -2.923633777554e-11 1.612843792817e-16 -2.881866769951e-15 1.298664639622e+07 5.511004043781e+06  4.770808185669e-02
8.200000000000e-01 8.400001171691e+07 1.000000000000e+05 -8.390001171691e+07 6.601393507852e-01 3.398606492148e-01 -1.409638626834e-12 -3.138914070585e-11 1.647848885502e-16 -2.926873762157e-15 1.306730308188e+07 5.545470034384e+06  4.773278066071e-02
8.300000000000e-01 8.400001084579e+07 1.000000000000e+05 -8.390001084579e+07 6.601393537887e-01 3.398606462113e-01 -1.360837962010e-12 -3.357430068091e-11 1.683416683128e-16 -2.972334427336e-15 1.314610086329e+07 5.579141656353e+06  4.775676326906e-02
8.400000000000e-01 8.400000998525e+07 1.000000000000e+05 -8.390000998525e+07 6.601393567361e-01 3.398606432639e-01 -1.308703754240e-12 -3.578424867468e-11 1.719905801364e-16 -3.018159717313e-15 1.322581767249e+07 5.613205994616e+06  4.778087978422e-02
8.500000000000e-01 8.400000913814e+07 1.000000000000e+05 -8.390000913814e+07 6.601393596182e-01 3.398606403818e-01 -1.253394298457e-12 -3.801151469332e-11 1.757021749733e-16 -3.064178606745e-15 1.330430330221e+07 5.646744173054e+06  4.780448209147e-02
8.600000000000e-01 8.400000830716e+07 1.000000000000e+05 -8.390000830716e+07 6.601393624260e-01 3.398606375740e-01 -1.195075264728e-12 -4.024877981482e-11 1.794565615002e-16 -3.110215891312e-15 1.338235580285e+07 5.680097242533e+06  4.782781638813e-02
8.700000000000e-01 8.400000749492e+07 1.000000000000e+05 -8.390000749492e+07 6.601393651511e-01 3.398606348489e-01 -1.133911031443e-12 -4.248888994932e-11 1.832557486507e-16 -3.156225871981e-15 1.346034876765e+07 5.713424923462e+06  4.785099734165e-02
8.800000000000e-01 8.400000670387e+07 1.000000000000e+05 -8.390000670387e+07 6.601393677855e-01 3.398606322145e-01 -1.070071589151e-12 -4.472485149538e-11 1.870866683915e-16 -3.202024612704e-15 1.353622780035e+07 5.745848993267e+06  4.787342109120e-02
8.900000000000e-01 8.400000593636e+07 1.000000000000e+05 -8.390000593636e+07 6.601393703219e-01 3.398606296781e-01 -1.003726398227e-12 -4.694985129306e-11 1.909456982414e-16 -3.247544747324e-15 1.361146580375e+07 5.777999593200e+06  4.789553188056e-02
9.000000000000e-01 8.400000519459e+07 1.000000000000e+05 -8.390000519459e+07 6.601393727531e-01 3.398606272469e-01 -9.350481074537e-13 -4.915728452676e-11 1.948040637865e-16 -3.292643062431e-15 1.368771755663e+07 5.810583077278e+06  4.791781606063e-02
9.100000000000e-01 8.400000448061e+07 1.000000000000e+05 -8.390000448061e+07 6.601393750728e-01 3.398606249272e-01 -8.642076828215e-13 -5.134081681840e-11 1.986724196631e-16 -3.337208781940e-15 1.376184980020e+07 5.842260932414e+06  4.793936203137e-02
9.200000000000e-01 8.400000379637e+07 1.000000000000e+05 -8.390000379637e+07 6.601393772749e-01 3.398606227251e-01 -7.913774712787e-13 -5.349428445070e-11 2.025499793380e-16 -3.381173199119e-15 1.383526925508e+07 5.873634170458e+06  4.796058665909e-02
9.300000000000e-01 8.400000314371e+07 1.000000000000e+05 -8.390000314371e+07 6.601393793539e-01 3.398606206461e-01 -7.167319977734e-13 -5.561171459576e-11 2.064295735757e-16 -3.424464784527e-15 1.390930606599e+07 5.905271258242e+06  4.798187604548e-02
9.400000000000e-01 8.400000252435e+07 1.000000000000e+05 -8.390000252435e+07 6.601393813045e-01 3.398606186955e-01 -6.404462644794e-13 -5.768733003231e-11 2.102885729665e-16 -3.467000532164e-15 1.398099010510e+07 5.935902884920e+06  4.800238098507e-02
9.500000000000e-01 8.400000193988e+07 1.000000000000e+05 -8.390000193988e+07 6.601393831219e-01 3.398606168781e-01 -5.626951463245e-13 -5.971563317413e-11 2.141277374564e-16 -3.508603826917e-15 1.405391683531e+07 5.967065543471e+06  4.802313384283e-02
9.600000000000e-01 8.400000139177e+07 1.000000000000e+05 -8.390000139177e+07 6.601393848019e-01 3.398606151981e-01 -4.836543420976e-13 -6.169139261803e-11 2.179292580746e-16 -3.549242008114e-15 1.412522010668e+07 5.997534352018e+06  4.804332066821e-02
9.700000000000e-01 8.400000088133e+07 1.000000000000e+05 -8.390000088133e+07 6.601393863406e-01 3.398606136594e-01 -4.034990588906e-13 -6.360963005628e-11 2.216938741180e-16 -3.588834559637e-15 1.419592696593e+07 6.027748479153e+06  4.806323833002e-02
9.800000000000e-01 8.400000040976e+07 1.000000000000e+05 -8.390000040976e+07 6.601393877347e-01 3.398606122653e-01 -3.224023024065e-13 -6.546563162502e-11 2.254291248690e-16 -3.627320462403e-15 1.426631339256e+07 6.057825572302e+06  4.808296733338e-02
9.900000000000e-01 8.399999997813e+07 1.000000000000e+05 -8.389999997813e+07 6.601393889814e-01 3.398606110186e-01 -2.405372799534e-13 -6.725495114886e-11 2.291363595348e-16 -3.664606827822e-15 1.433645449145e+07 6.087797883690e+06  4.810253098232e-02
1.000000000000e+00 8.399999958736e+07 1.000000000000e+05 -8.389999958736e+07 6.601393900782e-01 3.398606099218e-01 -1.580740759210e-13 -6.897341455883e-11 2.327746381120e-16 -3.700596559535e-15 1.440471714957e+07 6.116967409650e+06  4.812147883961e-02
1.050000000000e+00 8.399999870128e+07 1.000000000000e+05 -8.389999870128e+07 6.601393917511e-01 3.398606082489e-01 2.498239383013e-13 -7.544010545204e-11 2.490598341508e-16 -3.843701811700e-15 1.468448970322e+07 6.236506618578e+06  4.821619485010e-02
1.100000000000e+00 8.399999887127e+07 1.000000000000e+05 -8.389999887127e+07 6.601393897404e-01 3.398606102596e-01 6.360706469850e-13 -7.957817023700e-11 2.630160790721e-16 -3.946805701845e-15 1.502360004093e+07 6.384072459500e+06  4.832375086604e-02
1.150000000000e+00 8.400000003474e+07 1.000000000000e+05 -8.390000003474e+07 6.601393843387e-01 3.398606156613e-01 9.860583805665e-13 -8.132618732639e-11 2.742688521197e-16 -4.009649594076e-15 1.537688775894e+07 6.538324025393e+06  4.841854479741e-02
1.200000000000e+00 8.400000208970e+07 1.000000000000e+05 -8.390000208970e+07 6.601393759621e-01 3.398606240379e-01 1.287991420582e-12 -8.074416036823e-11 2.827101042006e-16 -4.033131108491e-15 1.567951370032e+07 6.667272802726e+06  4.849610626099e-02
1.250000000000e+00 8.400000490554e+07 1.000000000000e+05 -8.390000490554e+07 6.601393651123e-01 3.398606348877e-01 1.532940648619e-12 -7.799201290000e-11 2.883216988974e-16 -4.020299852201e-15 1.596975033374e+07 6.791403230218e+06  4.856936743833e-02
1.300000000000e+00 8.400000833151e+07 1.000000000000e+05 -8.390000833151e+07 6.601393523468e-01 3.398606476532e-01 1.714815172956e-12 -7.331076974840e-11 2.909779263784e-16 -3.975606686614e-15 1.625144385315e+07 6.911786145663e+06  4.863915357049e-02
1.350000000000e+00 8.400001220703e+07 1.000000000000e+05 -8.390001220703e+07 6.601393382445e-01 3.398606617555e-01 1.830232573394e-12 -6.699869743251e-11 2.908279390122e-16 -3.903941759376e-15 1.652577693801e+07 7.029034139934e+06  4.870596736877e-02
1.400000000000e+00 8.400001636827e+07 1.000000000000e+05 -8.390001636827e+07 6.601393233835e-01 3.398606766165e-01 1.878343134520e-12 -5.939370442533e-11 2.881866012900e-16 -3.810648608029e-15 1.680161430257e+07 7.146923338551e+06  4.877203707000e-02