VARIABLES  = "X","Y","Z", "PRESSURE1", "PRESSURE2", "PRESSURE_W", "SATURATION1", SATURATION2, "VELOCITY_X1", "VELOCITY_Y1", "VELOCITY_X2", "VELOCITY_Y2"
ZONE T="0.000000000000e+00s", N=32, E=38, F=FEPOINT, ET=QUADRILATERAL
STRANDID=1, SOLUTIONTIME=0.000000000000e+00
1.000000000000e-02 0.000000000000e+00 5.000000000000e-02 8.400000000000e+07 1.000000000000e+05 -8.390000000000e+07 6.601393844892e-01 3.398606155108e-01 0.000000000000e+00 0.000000000000e+00 0.000000000000e+00 0.000000000000e+00 
1.000000000000e-02 0.000000000000e+00 4.500000000000e-02 8.400000000000e+07 1.000000000000e+05 -8.390000000000e+07 6.601393844892e-01 3.398606155108e-01 0.000000000000e+00 0.000000000000e+00 0.000000000000e+00 0.000000000000e+00 
5.000000000000e-03 0.000000000000e+00 5.000000000000e-02 8.400000000000e+07 1.000000000000e+05 -8.390000000000e+07 6.601393844892e-01 3.398606155108e-01 0.000000000000e+00 0.000000000000e+00 0.000000000000e+00 0.000000000000e+00 
5.000000000000e-03 0.000000000000e+00 4.300000000000e-02 8.400000000000e+07 1.000000000000e+05 -8.390000000000e+07 6.601393844892e-01 3.398606155108e-01 0.000000000000e+00 0.000000000000e+00 0.000000000000e+00 0.000000000000e+00 
1.000000000000e-02 0.000000000000e+00 4.000000000000e-02 8.400000000000e+07 1.000000000000e+05 -8.390000000000e+07 6.601393844892e-01 3.398606155108e-01 0.000000000000e+00 0.000000000000e+00 0.000000000000e+00 0.000000000000e+00 
0.000000000000e+00 0.000000000000e+00 5.000000000000e-02 8.400000000000e+07 1.000000000000e+05 -8.390000000000e+07 6.601393844892e-01 3.398606155108e-01 0.000000000000e+00 0.000000000000e+00 0.000000000000e+00 0.000000000000e+00 
0.000000000000e+00 0.000000000000e+00 4.500000000000e-02 8.400000000000e+07 1.000000000000e+05 -8.390000000000e+07 6.601393844892e-01 3.398606155108e-01 0.000000000000e+00 0.000000000000e+00 0.000000000000e+00 0.000000000000e+00 
6.000000000000e-03 0.000000000000e+00 3.800000000000e-02 8.400000000000e+07 1.000000000000e+05 -8.390000000000e+07 6.601393844892e-01 3.398606155108e-01 0.000000000000e+00 0.000000000000e+00 0.000000000000e+00 0.000000000000e+00 
0.000000000000e+00 0.000000000000e+00 4.000000000000e-02 8.400000000000e+07 1.000000000000e+05 -8.390000000000e+07 6.601393844892e-01 3.398606155108e-01 0.000000000000e+00 0.000000000000e+00 0.000000000000e+00 0.000000000000e+00 
1.000000000000e-02 0.000000000000e+00 3.500000000000e-02 8.400000000000e+07 1.000000000000e+05 -8.390000000000e+07 6.601393844892e-01 3.398606155108e-01 0.000000000000e+00 0.000000000000e+00 0.000000000000e+00 0.000000000000e+00 
0.000000000000e+00 0.000000000000e+00 3.500000000000e-02 8.400000000000e+07 1.000000000000e+05 -8.390000000000e+07 6.601393844892e-01 3.398606155108e-01 0.000000000000e+00 0.000000000000e+00 0.000000000000e+00 0.000000000000e+00 
4.000000000000e-03 0.000000000000e+00 3.300000000000e-02 8.400000000000e+07 1.000000000000e+05 -8.390000000000e+07 6.601393844892e-01 3.398606155108e-01 0.000000000000e+00 0.000000000000e+00 0.000000000000e+00 0.000000000000e+00 
1.000000000000e-02 0.000000000000e+00 3.000000000000e-02 8.400000000000e+07 1.000000000000e+05 -8.390000000000e+07 6.601393844892e-01 3.398606155108e-01 0.000000000000e+00 0.000000000000e+00 0.000000000000e+00 0.000000000000e+00 
0.000000000000e+00 0.000000000000e+00 3.000000000000e-02 8.400000000000e+07 1.000000000000e+05 -8.390000000000e+07 6.601393844892e-01 3.398606155108e-01 0.000000000000e+00 0.000000000000e+00 0.000000000000e+00 0.000000000000e+00 
4.000000000000e-03 0.000000000000e+00 2.800000000000e-02 8.400000000000e+07 1.000000000000e+05 -8.390000000000e+07 6.601393844892e-01 3.398606155108e-01 0.000000000000e+00 0.000000000000e+00 0.000000000000e+00 0.000000000000e+00 
1.000000000000e-02 0.000000000000e+00 2.500000000000e-02 8.400000000000e+07 1.000000000000e+05 -8.390000000000e+07 6.601393844892e-01 3.398606155108e-01 0.000000000000e+00 0.000000000000e+00 0.000000000000e+00 0.000000000000e+00 
0.000000000000e+00 0.000000000000e+00 2.500000000000e-02 8.400000000000e+07 1.000000000000e+05 -8.390000000000e+07 6.601393844892e-01 3.398606155108e-01 0.000000000000e+00 0.000000000000e+00 0.000000000000e+00 0.000000000000e+00 
4.000000000000e-03 0.000000000000e+00 2.300000000000e-02 8.400000000000e+07 1.000000000000e+05 -8.390000000000e+07 6.601393844892e-01 3.398606155108e-01 0.000000000000e+00 0.000000000000e+00 0.000000000000e+00 0.000000000000e+00 
1.000000000000e-02 0.000000000000e+00 2.000000000000e-02 8.400000000000e+07 1.000000000000e+05 -8.390000000000e+07 6.601393844892e-01 3.398606155108e-01 0.000000000000e+00 0.000000000000e+00 0.000000000000e+00 0.000000000000e+00 
0.000000000000e+00 0.000000000000e+00 2.000000000000e-02 8.400000000000e+07 1.000000000000e+05 -8.390000000000e+07 6.601393844892e-01 3.398606155108e-01 0.000000000000e+00 0.000000000000e+00 0.000000000000e+00 0.000000000000e+00 
4.000000000000e-03 0.000000000000e+00 1.800000000000e-02 8.400000000000e+07 1.000000000000e+05 -8.390000000000e+07 6.601393844892e-01 3.398606155108e-01 0.000000000000e+00 0.000000000000e+00 0.000000000000e+00 0.000000000000e+00 
1.000000000000e-02 0.000000000000e+00 1.500000000000e-02 8.400000000000e+07 1.000000000000e+05 -8.390000000000e+07 6.601393844892e-01 3.398606155108e-01 0.000000000000e+00 0.000000000000e+00 0.000000000000e+00 0.000000000000e+00 
0.000000000000e+00 0.000000000000e+00 1.500000000000e-02 8.400000000000e+07 1.000000000000e+05 -8.390000000000e+07 6.601393844892e-01 3.398606155108e-01 0.000000000000e+00 0.000000000000e+00 0.000000000000e+00 0.000000000000e+00 
4.000000000000e-03 0.000000000000e+00 1.300000000000e-02 8.400000000000e+07 1.000000000000e+05 -8.390000000000e+07 6.601393844892e-01 3.398606155108e-01 0.000000000000e+00 0.000000000000e+00 0.000000000000e+00 0.000000000000e+00 
1.000000000000e-02 0.000000000000e+00 1.000000000000e-02 8.400000000000e+07 1.000000000000e+05 -8.390000000000e+07 6.601393844892e-01 3.398606155108e-01 0.000000000000e+00 0.000000000000e+00 0.000000000000e+00 0.000000000000e+00 
0.000000000000e+00 0.000000000000e+00 1.000000000000e-02 8.400000000000e+07 1.000000000000e+05 -8.390000000000e+07 6.601393844892e-01 3.398606155108e-01 0.000000000000e+00 0.000000000000e+00 0.000000000000e+00 0.000000000000e+00 
5.000000000000e-03 0.000000000000e+00 7.000000000000e-03 8.400000000000e+07 1.000000000000e+05 -8.390000000000e+07 6.601393844892e-01 3.398606155108e-01 0.000000000000e+00 0.000000000000e+00 0.000000000000e+00 0.000000000000e+00 
1.000000000000e-02 0.000000000000e+00 5.000000000000e-03 8.400000000000e+07 1.000000000000e+05 -8.390000000000e+07 6.601393844892e-01 3.398606155108e-01 0.000000000000e+00 0.000000000000e+00 0.000000000000e+00 0.000000000000e+00 
0.000000000000e+00 0.000000000000e+00 5.000000000000e-03 8.400000000000e+07 1.000000000000e+05 -8.390000000000e+07 6.601393844892e-01 3.398606155108e-01 0.000000000000e+00 0.000000000000e+00 0.000000000000e+00 0.000000000000e+00 
1.000000000000e-02 0.000000000000e+00 0.000000000000e+00 8.400000000000e+07 1.000000000000e+05 -8.390000000000e+07 6.601393844892e-01 3.398606155108e-01 0.000000000000e+00 0.000000000000e+00 0.000000000000e+00 0.000000000000e+00 
5.000000000000e-03 0.000000000000e+00 0.000000000000e+00 8.400000000000e+07 1.000000000000e+05 -8.390000000000e+07 6.601393844892e-01 3.398606155108e-01 0.000000000000e+00 0.000000000000e+00 0.000000000000e+00 0.000000000000e+00 
0.000000000000e+00 0.000000000000e+00 0.000000000000e+00 8.400000000000e+07 1.000000000000e+05 -8.390000000000e+07 6.601393844892e-01 3.398606155108e-01 0.000000000000e+00 0.000000000000e+00 0.000000000000e+00 0.000000000000e+00 
14  17  15  14
15  17  18  15
18  17  20  18
14  15  12  14
30  28  31  30
12  15  13  12
18  20  21  18
21  20  23  21
18  21  19  18
21  23  24  21
24  23  26  24
21  24  22  21
5  2  4  5
4  2  3  4
5  4  8  5
8  4  9  8
5  8  10  5
24  26  27  24
27  26  29  27
24  27  25  24
10  8  12  10
27  29  31  27
19  16  18  19
6  7  3  6
25  22  24  25
1  3  2  1
13  10  12  13
9  11  8  9
32  31  29  32
15  18  16  15
14  12  11  14
11  12  8  11
28  25  27  28
7  9  4  7
16  13  15  16
22  19  21  22
7  4  3  7
28  27  31  28
VARIABLES  = "X","Y","Z", "PRESSURE1", "PRESSURE2", "PRESSURE_W", "SATURATION1", SATURATION2, "VELOCITY_X1", "VELOCITY_Y1", "VELOCITY_X2", "VELOCITY_Y2"
ZONE T="1.000000000000e-03s", N=32, E=38, F=FEPOINT, ET=QUADRILATERAL
STRANDID=1, SOLUTIONTIME=1.000000000000e-03
1.000000000000e-02 0.000000000000e+00 5.000000000000e-02 8.399996488935e+07 1.000000000000e+05 -8.389996488935e+07 6.601394691156e-01 3.398605308844e-01 -8.297870037638e-11 -1.530094952363e-10 0.000000000000e+00 -2.003775115781e-15 
1.000000000000e-02 0.000000000000e+00 4.500000000000e-02 8.400003895977e+07 1.000000018956e+05 -8.390003895787e+07 6.601392422450e-01 3.398607577550e-01 1.250974805878e-10 -5.353961255307e-11 -1.135023362235e-16 -2.128762395652e-15 
5.000000000000e-03 0.000000000000e+00 5.000000000000e-02 8.400003165785e+07 1.000000000000e+05 -8.390003165785e+07 6.601392579556e-01 3.398607420444e-01 -3.080786148164e-12 -2.941642478284e-11 3.229084286534e-18 -2.087827819770e-15 
5.000000000000e-03 0.000000000000e+00 4.300000000000e-02 8.399983618497e+07 9.999999574168e+04 -8.389983618923e+07 6.601399724678e-01 3.398600275322e-01 6.886021898666e-12 -4.389485144412e-10 1.094810137484e-17 -1.794300413126e-15 
1.000000000000e-02 0.000000000000e+00 4.000000000000e-02 8.400008659937e+07 9.999999813434e+04 -8.390008660124e+07 6.601391859592e-01 3.398608140408e-01 -9.895966183968e-10 3.676806876036e-10 7.954604638392e-16 -2.112796070735e-15 
0.000000000000e+00 0.000000000000e+00 5.000000000000e-02 8.399995505557e+07 1.000000000000e+05 -8.389995505557e+07 6.601394928264e-01 3.398605071736e-01 9.519994915731e-11 -1.897750278301e-10 0.000000000000e+00 -1.990514784428e-15 
0.000000000000e+00 0.000000000000e+00 4.500000000000e-02 8.400005870959e+07 1.000000022592e+05 -8.390005870733e+07 6.601392214553e-01 3.398607785447e-01 -1.134281054172e-10 -5.898542987910e-12 1.104867419512e-16 -2.153381356770e-15 
6.000000000000e-03 0.000000000000e+00 3.800000000000e-02 8.400091441940e+07 1.000000269111e+05 -8.390091439249e+07 6.601363872349e-01 3.398636127651e-01 -3.519077674206e-10 1.475321139592e-09 2.168113270390e-16 -3.291702245928e-15 
0.000000000000e+00 0.000000000000e+00 4.000000000000e-02 8.399996176087e+07 9.999999604298e+04 -8.389996176483e+07 6.601396865169e-01 3.398603134831e-01 6.221148273751e-10 1.007123536300e-10 -5.286575388759e-16 -2.046198948375e-15 
1.000000000000e-02 0.000000000000e+00 3.500000000000e-02 8.399783589713e+07 9.999996347071e+04 -8.389783593366e+07 6.601483276981e-01 3.398516723019e-01 6.100029489514e-10 -4.083383702258e-09 -9.080634398559e-16 -3.041692113118e-16 
0.000000000000e+00 0.000000000000e+00 3.500000000000e-02 8.399868331370e+07 9.999997645182e+04 -8.389868333725e+07 6.601452627053e-01 3.398547372947e-01 -2.287541660273e-09 -3.802173933959e-09 2.238997153069e-15 -2.701828277414e-16 
4.000000000000e-03 0.000000000000e+00 3.300000000000e-02 8.399804837774e+07 9.999992223672e+04 -8.389804845550e+07 6.601484137403e-01 3.398515862597e-01 -2.007300200695e-09 -1.031746505727e-09 1.318806202262e-15 6.583611852576e-16 
1.000000000000e-02 0.000000000000e+00 3.000000000000e-02 8.401318463746e+07 1.000002522411e+05 -8.391318438522e+07 6.600914759418e-01 3.399085240582e-01 8.385312899954e-09 2.411157884094e-08 -2.034618246381e-15 -1.360550043251e-14 
0.000000000000e+00 0.000000000000e+00 3.000000000000e-02 8.401164545156e+07 1.000002579447e+05 -8.391164519361e+07 6.601112965037e-01 3.398887034963e-01 -1.298178492712e-08 2.099994461580e-08 3.137278355468e-15 -1.415400887566e-14 
4.000000000000e-03 0.000000000000e+00 2.800000000000e-02 8.398925712626e+07 9.999997500180e+04 -8.388925715126e+07 6.601661737227e-01 3.398338262773e-01 7.276330203871e-09 -3.333900985035e-08 -5.144086208898e-15 2.146376229102e-15 
1.000000000000e-02 0.000000000000e+00 2.500000000000e-02 8.394825805951e+07 9.999893689944e+04 -8.384825912261e+07 6.602908751909e-01 3.397091248091e-01 -9.837609049888e-08 -7.415785833105e-08 3.567637917484e-14 4.099068080352e-14 
0.000000000000e+00 0.000000000000e+00 2.500000000000e-02 8.395662981040e+07 9.999890323824e+04 -8.385663090716e+07 6.602971681095e-01 3.397028318905e-01 1.494176271699e-07 -5.470079495027e-08 -5.489932066807e-14 4.003848104972e-14 
4.000000000000e-03 0.000000000000e+00 2.300000000000e-02 8.413836010776e+07 1.000016131997e+05 -8.403835849456e+07 6.597713926152e-01 3.402286073848e-01 -3.159931079439e-10 2.868840851634e-07 8.573054060820e-15 -7.547085106490e-14 
1.000000000000e-02 0.000000000000e+00 2.000000000000e-02 8.404283213279e+07 1.000022542879e+05 -8.394282987850e+07 6.602530412446e-01 3.397469587554e-01 5.248405626490e-07 -8.605368744943e-08 -1.775639614608e-13 -8.616003146317e-14 
0.000000000000e+00 0.000000000000e+00 2.000000000000e-02 8.399437466262e+07 1.000021799476e+05 -8.389437248267e+07 6.600548245031e-01 3.399451754969e-01 -7.953440322827e-07 -1.971693067633e-07 2.751865416220e-13 -6.494019512867e-14 
4.000000000000e-03 0.000000000000e+00 1.800000000000e-02 8.323008444173e+07 9.999047828322e+04 -8.313009396345e+07 6.623364125492e-01 3.376635874508e-01 -2.356114776936e-07 -1.322010022272e-06 3.554510857404e-14 3.634813839921e-13 
1.000000000000e-02 0.000000000000e+00 1.500000000000e-02 8.506300118209e+07 1.000029598550e+05 -8.496299822223e+07 6.551972175860e-01 3.448027824140e-01 -1.235811439118e-06 2.397052706380e-06 4.847899376513e-13 -8.994462377077e-14 
0.000000000000e+00 0.000000000000e+00 1.500000000000e-02 8.534582055879e+07 1.000047001789e+05 -8.524581585861e+07 6.562288864252e-01 3.437711135748e-01 1.982027185380e-06 3.146874298802e-06 -7.155276233442e-13 -2.000075325746e-13 
4.000000000000e-03 0.000000000000e+00 1.300000000000e-02 8.612591729293e+07 1.000310199221e+05 -8.602588627301e+07 6.533224219689e-01 3.466775780311e-01 1.363493637146e-06 2.271320715643e-06 -2.717084721066e-13 -1.027080122441e-12 
1.000000000000e-02 0.000000000000e+00 1.000000000000e-02 7.509043656160e+07 9.995526860099e+04 -7.499048129300e+07 6.916396884201e-01 3.083603115799e-01 3.444622677141e-06 -2.676323101284e-05 -2.730238974367e-13 4.344221913259e-13 
0.000000000000e+00 0.000000000000e+00 1.000000000000e-02 7.353747440210e+07 9.994388874631e+04 -7.343753051335e+07 6.919001041180e-01 3.080998958820e-01 9.718171153502e-07 -2.270637613612e-05 1.682714080583e-13 8.298064552076e-13 
5.000000000000e-03 0.000000000000e+00 7.000000000000e-03 8.933334449555e+07 9.994849525909e+04 -8.923339600029e+07 6.485849984633e-01 3.514150015367e-01 2.891184258302e-06 -2.155274396149e-08 2.242210787724e-13 1.957824904874e-12 
1.000000000000e-02 0.000000000000e+00 5.000000000000e-03 1.374704034991e+08 1.001503698504e+05 -1.373702531293e+08 4.969756426313e-01 5.030243573687e-01 1.694104204659e-05 -2.525361409215e-05 -7.137505470587e-12 2.341242517934e-12 
0.000000000000e+00 0.000000000000e+00 5.000000000000e-03 1.377175145149e+08 1.001526943011e+05 -1.376173618206e+08 4.800161806883e-01 5.199838193117e-01 -1.275512282625e-05 -2.641172199571e-05 7.842725969786e-12 3.250315939839e-12 
1.000000000000e-02 0.000000000000e+00 0.000000000000e+00 6.680941364901e-313 1.000000000000e+05 1.000000000000e+05 9.827454852115e-01 1.725451478851e-02 0.000000000000e+00 5.373620232671e-04 0.000000000000e+00 5.716280567751e-13 
5.000000000000e-03 0.000000000000e+00 0.000000000000e+00 -1.244434314116e-313 1.000000000000e+05 1.000000000000e+05 1.000000000000e+00 0.000000000000e+00 2.245940086805e-06 3.928132542103e-04 2.868722598033e-13 -6.036658899473e-14 
0.000000000000e+00 0.000000000000e+00 0.000000000000e+00 2.274925069045e-313 1.000000000000e+05 1.000000000000e+05 9.826227014417e-01 1.737729855833e-02 0.000000000000e+00 5.380595428684e-04 0.000000000000e+00 5.823353152669e-13 
14  17  15  14
15  17  18  15
18  17  20  18
14  15  12  14
30  28  31  30
12  15  13  12
18  20  21  18
21  20  23  21
18  21  19  18
21  23  24  21
24  23  26  24
21  24  22  21
5  2  4  5
4  2  3  4
5  4  8  5
8  4  9  8
5  8  10  5
24  26  27  24
27  26  29  27
24  27  25  24
10  8  12  10
27  29  31  27
19  16  18  19
6  7  3  6
25  22  24  25
1  3  2  1
13  10  12  13
9  11  8  9
32  31  29  32
15  18  16  15
14  12  11  14
11  12  8  11
28  25  27  28
7  9  4  7
16  13  15  16
22  19  21  22
7  4  3  7
28  27  31  28
VARIABLES  = "X","Y","Z", "PRESSURE1", "PRESSURE2", "PRESSURE_W", "SATURATION1", SATURATION2, "VELOCITY_X1", "VELOCITY_Y1", "VELOCITY_X2", "VELOCITY_Y2"
ZONE T="1.000000000000e-02s", N=32, E=38, F=FEPOINT, ET=QUADRILATERAL
STRANDID=1, SOLUTIONTIME=1.000000000000e-02
1.000000000000e-02 0.000000000000e+00 5.000000000000e-02 8.399997646227e+07 1.000000000000e+05 -8.389997646227e+07 6.601394402453e-01 3.398605597547e-01 -6.278341418965e-11 -1.195143968268e-10 0.000000000000e+00 -1.455678957750e-15 
1.000000000000e-02 0.000000000000e+00 4.500000000000e-02 8.400002359653e+07 1.000000174244e+05 -8.390002357910e+07 6.601393014260e-01 3.398606985740e-01 9.963043577760e-11 -6.652001058111e-11 -1.072206018439e-15 -2.594147915103e-15 
5.000000000000e-03 0.000000000000e+00 5.000000000000e-02 8.400002698072e+07 1.000000000000e+05 -8.390002698072e+07 6.601392791017e-01 3.398607208983e-01 -2.672139109014e-12 -2.870594818398e-11 3.118741745135e-17 -2.239710303577e-15 
5.000000000000e-03 0.000000000000e+00 4.300000000000e-02 8.399987129041e+07 9.999995980603e+04 -8.389987133061e+07 6.601398472971e-01 3.398601527029e-01 9.898313756310e-12 -3.625879818445e-10 9.613292779136e-17 5.530247944103e-16 
1.000000000000e-02 0.000000000000e+00 4.000000000000e-02 8.400010105069e+07 9.999998444424e+04 -8.390010106624e+07 6.601391510144e-01 3.398608489856e-01 -7.675737558816e-10 3.570034826095e-10 7.481132850467e-15 -2.568605917616e-15 
0.000000000000e+00 0.000000000000e+00 5.000000000000e-02 8.399996860436e+07 1.000000000000e+05 -8.389996860436e+07 6.601394589867e-01 3.398605410133e-01 7.254908909269e-11 -1.497342432845e-10 0.000000000000e+00 -1.327419941735e-15 
0.000000000000e+00 0.000000000000e+00 4.500000000000e-02 8.400004005841e+07 1.000000209367e+05 -8.390004003747e+07 6.601392735272e-01 3.398607264728e-01 -8.946965671430e-11 -2.523911436058e-11 1.042616561146e-15 -2.833138847915e-15 
6.000000000000e-03 0.000000000000e+00 3.800000000000e-02 8.400069848363e+07 1.000002531576e+05 -8.390069823047e+07 6.601370812216e-01 3.398629187784e-01 -2.910032097301e-10 1.128119392273e-09 2.056443416388e-15 -1.364348170910e-14 
0.000000000000e+00 0.000000000000e+00 4.000000000000e-02 8.399999352293e+07 9.999996414732e+04 -8.389999355878e+07 6.601395502267e-01 3.398604497733e-01 4.745353555755e-10 1.088728329180e-10 -4.966843797883e-15 -1.899775400842e-15 
1.000000000000e-02 0.000000000000e+00 3.500000000000e-02 8.399812684819e+07 9.999964765959e+04 -8.389812720053e+07 6.601470443987e-01 3.398529556013e-01 3.431045276159e-10 -3.583661089502e-09 -8.496696203704e-15 1.501675708855e-14 
0.000000000000e+00 0.000000000000e+00 3.500000000000e-02 8.399886971754e+07 9.999977272524e+04 -8.389886994481e+07 6.601443350888e-01 3.398556649112e-01 -1.644806454302e-09 -3.300268292729e-09 2.107991943684e-14 1.530351131674e-14 
4.000000000000e-03 0.000000000000e+00 3.300000000000e-02 8.399868494771e+07 9.999927044372e+04 -8.389868567727e+07 6.601459735362e-01 3.398540264638e-01 -1.640321021728e-09 -2.287602266477e-10 1.252024760015e-14 2.364451804920e-14 
1.000000000000e-02 0.000000000000e+00 3.000000000000e-02 8.401114354110e+07 1.000024163900e+05 -8.391114112471e+07 6.600992857297e-01 3.399007142703e-01 7.874777366102e-09 2.079961026097e-08 -1.974972063062e-14 -1.134641653173e-13 
0.000000000000e+00 0.000000000000e+00 3.000000000000e-02 8.400956910569e+07 1.000024599238e+05 -8.390956664576e+07 6.601164831099e-01 3.398835168901e-01 -1.219186689872e-08 1.755329022745e-08 3.045890546473e-14 -1.180529465769e-13 
4.000000000000e-03 0.000000000000e+00 2.800000000000e-02 8.398938048472e+07 9.999972325748e+04 -8.388938076147e+07 6.601661759052e-01 3.398338240948e-01 5.806165494574e-09 -3.227884530485e-08 -4.899950962875e-14 4.033933866977e-14 
1.000000000000e-02 0.000000000000e+00 2.500000000000e-02 8.395705363019e+07 9.998978981575e+04 -8.385706384037e+07 6.602617600017e-01 3.397382399983e-01 -8.838991414101e-08 -6.133164536123e-08 3.435742518074e-13 4.160839005197e-13 
0.000000000000e+00 0.000000000000e+00 2.500000000000e-02 8.396564186859e+07 9.998952474554e+04 -8.386565234384e+07 6.602664499878e-01 3.397335500122e-01 1.340440340427e-07 -4.225476272754e-08 -5.284163274905e-13 4.043064780730e-13 
4.000000000000e-03 0.000000000000e+00 2.300000000000e-02 8.412547587213e+07 1.000156313549e+05 -8.402546024078e+07 6.598055784765e-01 3.401944215235e-01 2.305723088774e-09 2.662942143352e-07 8.211381750816e-14 -7.173435244201e-13 
1.000000000000e-02 0.000000000000e+00 2.000000000000e-02 8.402291102192e+07 1.000218550271e+05 -8.392288916689e+07 6.603026344622e-01 3.396973655378e-01 4.736661590894e-07 -1.134995687036e-07 -1.720102442982e-12 -8.299906271482e-13 
0.000000000000e+00 0.000000000000e+00 2.000000000000e-02 8.397532882278e+07 1.000209081015e+05 -8.387530791468e+07 6.601234309267e-01 3.398765690733e-01 -7.167285073154e-07 -2.183132118481e-07 2.663900656341e-12 -6.160699191586e-13 
4.000000000000e-03 0.000000000000e+00 1.800000000000e-02 8.330828722980e+07 9.990757988811e+04 -8.320837964991e+07 6.621119483247e-01 3.378880516753e-01 -2.268132573209e-07 -1.208975846735e-06 3.355287196855e-13 3.633869057028e-12 
1.000000000000e-02 0.000000000000e+00 1.500000000000e-02 8.504677074804e+07 1.000278098516e+05 -8.494674293819e+07 6.553455879909e-01 3.446544120091e-01 -1.096485235899e-06 2.405399509311e-06 4.817276349787e-12 -6.651798434862e-13 
0.000000000000e+00 0.000000000000e+00 1.500000000000e-02 8.531411863878e+07 1.000454435474e+05 -8.521407319524e+07 6.563194165757e-01 3.436805834243e-01 1.760649690424e-06 3.108891273313e-06 -7.074610614839e-12 -1.694232250506e-12 
4.000000000000e-03 0.000000000000e+00 1.300000000000e-02 8.584770804215e+07 1.003088787512e+05 -8.574739916340e+07 6.541510172882e-01 3.458489827118e-01 1.290172243731e-06 1.978040541624e-06 -2.585320632179e-12 -1.017759352640e-11 
1.000000000000e-02 0.000000000000e+00 1.000000000000e-02 7.542105365292e+07 9.957320900629e+04 -7.532148044391e+07 6.903809189408e-01 3.096190810592e-01 2.964907698528e-06 -2.611535235547e-05 -4.013356986939e-12 5.304270102015e-12 
0.000000000000e+00 0.000000000000e+00 1.000000000000e-02 7.395228666578e+07 9.946668263961e+04 -7.385281998314e+07 6.905353841126e-01 3.094646158874e-01 1.172639131498e-06 -2.225727408995e-05 3.290806754726e-12 9.427227698566e-12 
5.000000000000e-03 0.000000000000e+00 7.000000000000e-03 8.989159717710e+07 9.946122510749e+04 -8.979213595199e+07 6.468309454476e-01 3.531690545524e-01 2.701756356280e-06 6.605873939634e-07 2.491183368239e-12 2.096869498083e-11 
1.000000000000e-02 0.000000000000e+00 5.000000000000e-03 1.356225801416e+08 1.016339993351e+05 -1.355209461423e+08 5.016089946188e-01 4.983910053812e-01 1.679465284784e-05 -2.320142736873e-05 -7.623376970880e-11 2.344839972621e-11 
0.000000000000e+00 0.000000000000e+00 5.000000000000e-03 1.358488715667e+08 1.016556469810e+05 -1.357472159197e+08 4.854376620317e-01 5.145623379683e-01 -1.292454983295e-05 -2.440523370927e-05 8.363174778725e-11 3.244189304683e-11 
1.000000000000e-02 0.000000000000e+00 0.000000000000e+00 6.680941364901e-313 1.000000000000e+05 1.000000000000e+05 9.836636260605e-01 1.633637393949e-02 0.000000000000e+00 5.321097564976e-04 0.000000000000e+00 6.157053478163e-12 
5.000000000000e-03 0.000000000000e+00 0.000000000000e+00 -1.244434314116e-313 1.000000000000e+05 1.000000000000e+05 1.000000000000e+00 0.000000000000e+00 2.089685548304e-06 3.913600058151e-04 2.963570511529e-12 -5.148155403230e-13 
0.000000000000e+00 0.000000000000e+00 0.000000000000e+00 2.274925069045e-313 1.000000000000e+05 1.000000000000e+05 9.835511870656e-01 1.644881293444e-02 0.000000000000e+00 5.327550679130e-04 0.000000000000e+00 6.258777948419e-12 
14  17  15  14
15  17  18  15
18  17  20  18
14  15  12  14
30  28  31  30
12  15  13  12
18  20  21  18
21  20  23  21
18  21  19  18
21  23  24  21
24  23  26  24
21  24  22  21
5  2  4  5
4  2  3  4
5  4  8  5
8  4  9  8
5  8  10  5
24  26  27  24
27  26  29  27
24  27  25  24
10  8  12  10
27  29  31  27
19  16  18  19
6  7  3  6
25  22  24  25
1  3  2  1
13  10  12  13
9  11  8  9
32  31  29  32
15  18  16  15
14  12  11  14
11  12  8  11
28  25  27  28
7  9  4  7
16  13  15  16
22  19  21  22
7  4  3  7
28  27  31  28
VARIABLES  = "X","Y","Z", "PRESSURE1", "PRESSURE2", "PRESSURE_W", "SATURATION1", SATURATION2, "VELOCITY_X1", "VELOCITY_Y1", "VELOCITY_X2", "VELOCITY_Y2"
ZONE T="1.000000000000e-01s", N=32, E=38, F=FEPOINT, ET=QUADRILATERAL
STRANDID=1, SOLUTIONTIME=1.000000000000e-01
1.000000000000e-02 0.000000000000e+00 5.000000000000e-02 8.400001789045e+07 1.000000000000e+05 -8.390001789045e+07 6.601393385822e-01 3.398606614178e-01 2.918123370127e-11 -1.234711151237e-11 0.000000000000e+00 2.469616572149e-16 
1.000000000000e-02 0.000000000000e+00 4.500000000000e-02 8.399997884158e+07 1.000000660654e+05 -8.389997877551e+07 6.601394677786e-01 3.398605322214e-01 -3.171849039553e-11 -8.493087077297e-11 -5.962983067660e-15 -3.215869395786e-15 
5.000000000000e-03 0.000000000000e+00 5.000000000000e-02 8.399999440986e+07 1.000000000000e+05 -8.389999440986e+07 6.601394108130e-01 3.398605891870e-01 2.332110845892e-13 -5.869581999133e-11 2.008995411589e-16 -3.465165768577e-15 
5.000000000000e-03 0.000000000000e+00 4.300000000000e-02 8.400004797722e+07 9.999978159348e+04 -8.390004819563e+07 6.601392150002e-01 3.398607849998e-01 9.036704174137e-12 4.549182773656e-11 3.462006750111e-17 1.297815361121e-14 
1.000000000000e-02 0.000000000000e+00 4.000000000000e-02 8.400003739881e+07 1.000000588257e+05 -8.390003733998e+07 6.601393096062e-01 3.398606903938e-01 2.808445033718e-10 2.924632460242e-11 3.877944172813e-14 -1.315820666752e-14 
0.000000000000e+00 0.000000000000e+00 5.000000000000e-02 8.400002045983e+07 1.000000000000e+05 -8.390002045983e+07 6.601393318250e-01 3.398606681750e-01 -3.237441064795e-11 -5.027897293183e-12 0.000000000000e+00 1.076889194145e-15 
0.000000000000e+00 0.000000000000e+00 4.500000000000e-02 8.399997554420e+07 1.000000886900e+05 -8.389997545551e+07 6.601394521226e-01 3.398605478774e-01 3.144366824076e-11 -8.739390658048e-11 5.717260040511e-15 -4.895357755467e-15 
6.000000000000e-03 0.000000000000e+00 3.800000000000e-02 8.399969379868e+07 1.000012958480e+05 -8.389969250283e+07 6.601403382415e-01 3.398596617585e-01 4.217123284239e-11 -6.034925175482e-10 1.207162906060e-14 -6.512628254283e-14 
0.000000000000e+00 0.000000000000e+00 4.000000000000e-02 8.400004577145e+07 9.999991644151e+04 -8.390004585501e+07 6.601391971415e-01 3.398608028585e-01 -2.011952192099e-10 -1.721263487655e-11 -2.510618394238e-14 -6.233790218285e-15 
1.000000000000e-02 0.000000000000e+00 3.500000000000e-02 8.400016022814e+07 9.999747226158e+04 -8.390016275587e+07 6.601385166518e-01 3.398614833482e-01 -5.577931895863e-10 -2.884944274287e-11 -3.387132765018e-14 1.236529825341e-13 
0.000000000000e+00 0.000000000000e+00 3.500000000000e-02 8.400018621768e+07 9.999836122190e+04 -8.390018785646e+07 6.601383288298e-01 3.398616711702e-01 1.113996494480e-09 2.404415655896e-10 1.017773322299e-13 1.237913373100e-13 
4.000000000000e-03 0.000000000000e+00 3.300000000000e-02 8.400122300842e+07 9.999669266370e+04 -8.390122631576e+07 6.601353604106e-01 3.398646395894e-01 4.151110222742e-10 2.681243530362e-09 7.466076448609e-14 1.058081161757e-13 
1.000000000000e-02 0.000000000000e+00 3.000000000000e-02 8.399861479135e+07 1.000156874297e+05 -8.389859910392e+07 6.601459831109e-01 3.398540168891e-01 2.401152520353e-09 -1.206940703134e-09 -1.934898064746e-13 -7.813185144812e-13 
0.000000000000e+00 0.000000000000e+00 3.000000000000e-02 8.399762248999e+07 1.000150785291e+05 -8.389760741146e+07 6.601457683668e-01 3.398542316332e-01 -3.823886079884e-09 -3.679488022517e-09 2.958878871891e-13 -7.602053606202e-13 
4.000000000000e-03 0.000000000000e+00 2.800000000000e-02 8.399513607656e+07 9.999311114063e+04 -8.389514296542e+07 6.601518315396e-01 3.398481684604e-01 -2.130381057216e-09 -1.589773098943e-08 -2.871001465821e-13 5.686262798911e-13 
1.000000000000e-02 0.000000000000e+00 2.500000000000e-02 8.400894745901e+07 9.993524659676e+04 -8.390901221241e+07 6.600957899527e-01 3.399042100473e-01 -1.679455118766e-08 1.965842758396e-08 2.546918693358e-12 2.841774093831e-12 
0.000000000000e+00 0.000000000000e+00 2.500000000000e-02 8.401494400900e+07 9.993791288618e+04 -8.391500609611e+07 6.600957764539e-01 3.399042235461e-01 2.498114831826e-08 3.062051131479e-08 -3.881068589096e-12 2.579794783442e-12 
4.000000000000e-03 0.000000000000e+00 2.300000000000e-02 8.402567214784e+07 1.001236914471e+05 -8.392554845639e+07 6.600740162977e-01 3.399259837023e-01 1.391956586374e-08 9.056208229442e-08 4.175621104963e-13 -6.200761444934e-12 
1.000000000000e-02 0.000000000000e+00 2.000000000000e-02 8.392069849768e+07 1.001253567607e+05 -8.382057314092e+07 6.605059172175e-01 3.394940827825e-01 1.081857627000e-07 -2.606743376614e-07 -1.289843464364e-11 -4.948768710999e-12 
0.000000000000e+00 0.000000000000e+00 2.000000000000e-02 8.389324658486e+07 1.001026508336e+05 -8.379314393403e+07 6.604371421605e-01 3.395628578395e-01 -1.598130368055e-07 -3.064823360986e-07 1.979061152343e-11 -2.895563940827e-12 
4.000000000000e-03 0.000000000000e+00 1.800000000000e-02 8.388079364424e+07 9.929212584639e+04 -8.378150151839e+07 6.604772658819e-01 3.395227341181e-01 -1.441587240286e-07 -2.980646518456e-07 2.964255841602e-12 3.135511119068e-11 
1.000000000000e-02 0.000000000000e+00 1.500000000000e-02 8.478076488945e+07 1.003485052551e+05 -8.468041638420e+07 6.569804521587e-01 3.430195478413e-01 -8.172512414858e-08 2.259868931032e-06 3.821381859102e-11 -1.113759467788e-11 