VARIABLES  = "X","Y","Z", "HEAD"
ZONE T="0.000000000000e+00s", N=987, E=920, F=FEPOINT, ET=QUADRILATERAL
STRANDID=1, SOLUTIONTIME=0.000000000000e+00
0.000000000000e+00 0.000000000000e+00 0.000000000000e+00 2.000000000000e+00 
4.000000000000e+00 0.000000000000e+00 0.000000000000e+00 2.000000000000e+00 
4.000000000000e+00 5.000000000000e+00 0.000000000000e+00 2.000000000000e+00 
0.000000000000e+00 5.000000000000e+00 0.000000000000e+00 2.000000000000e+00 
4.000000000000e+00 1.000000000000e+01 0.000000000000e+00 2.000000000000e+00 
0.000000000000e+00 1.000000000000e+01 0.000000000000e+00 2.000000000000e+00 
4.000000000000e+00 1.500000000000e+01 0.000000000000e+00 2.000000000000e+00 
0.000000000000e+00 1.500000000000e+01 0.000000000000e+00 2.000000000000e+00 
4.000000000000e+00 2.000000000000e+01 0.000000000000e+00 2.000000000000e+00 
0.000000000000e+00 2.000000000000e+01 0.000000000000e+00 2.000000000000e+00 
4.000000000000e+00 2.500000000000e+01 0.000000000000e+00 2.000000000000e+00 
0.000000000000e+00 2.500000000000e+01 0.000000000000e+00 2.000000000000e+00 
4.000000000000e+00 3.000000000000e+01 0.000000000000e+00 2.000000000000e+00 
0.000000000000e+00 3.000000000000e+01 0.000000000000e+00 2.000000000000e+00 
4.000000000000e+00 3.500000000000e+01 0.000000000000e+00 2.000000000000e+00 
0.000000000000e+00 3.500000000000e+01 0.000000000000e+00 2.000000000000e+00 
4.000000000000e+00 4.000000000000e+01 0.000000000000e+00 2.000000000000e+00 
0.000000000000e+00 4.000000000000e+01 0.000000000000e+00 2.000000000000e+00 
4.000000000000e+00 4.500000000000e+01 0.000000000000e+00 2.000000000000e+00 
0.000000000000e+00 4.500000000000e+01 0.000000000000e+00 2.000000000000e+00 
4.000000000000e+00 5.000000000000e+01 0.000000000000e+00 2.000000000000e+00 
0.000000000000e+00 5.000000000000e+01 0.000000000000e+00 2.000000000000e+00 
4.000000000000e+00 5.500000000000e+01 0.000000000000e+00 2.000000000000e+00 
0.000000000000e+00 5.500000000000e+01 0.000000000000e+00 2.000000000000e+00 
4.000000000000e+00 6.000000000000e+01 0.000000000000e+00 2.000000000000e+00 
0.000000000000e+00 6.000000000000e+01 0.000000000000e+00 2.000000000000e+00 
4.000000000000e+00 6.500000000000e+01 0.000000000000e+00 2.000000000000e+00 
0.000000000000e+00 6.500000000000e+01 0.000000000000e+00 2.000000000000e+00 
4.000000000000e+00 7.000000000000e+01 0.000000000000e+00 2.000000000000e+00 
0.000000000000e+00 7.000000000000e+01 0.000000000000e+00 2.000000000000e+00 
4.000000000000e+00 7.500000000000e+01 0.000000000000e+00 2.000000000000e+00 
0.000000000000e+00 7.500000000000e+01 0.000000000000e+00 2.000000000000e+00 
4.000000000000e+00 8.000000000000e+01 0.000000000000e+00 2.000000000000e+00 
0.000000000000e+00 8.000000000000e+01 0.000000000000e+00 2.000000000000e+00 
4.000000000000e+00 8.500000000000e+01 0.000000000000e+00 2.000000000000e+00 
0.000000000000e+00 8.500000000000e+01 0.000000000000e+00 2.000000000000e+00 
4.000000000000e+00 9.000000000000e+01 0.000000000000e+00 2.000000000000e+00 
0.000000000000e+00 9.000000000000e+01 0.000000000000e+00 2.000000000000e+00 
4.000000000000e+00 9.500000000000e+01 0.000000000000e+00 2.000000000000e+00 
0.000000000000e+00 9.500000000000e+01 0.000000000000e+00 2.000000000000e+00 
4.000000000000e+00 1.000000000000e+02 0.000000000000e+00 2.000000000000e+00 
0.000000000000e+00 1.000000000000e+02 0.000000000000e+00 2.000000000000e+00 
8.000000000000e+00 0.000000000000e+00 0.000000000000e+00 2.000000000000e+00 
8.000000000000e+00 5.000000000000e+00 0.000000000000e+00 2.000000000000e+00 
8.000000000000e+00 1.000000000000e+01 0.000000000000e+00 2.000000000000e+00 
8.000000000000e+00 1.500000000000e+01 0.000000000000e+00 2.000000000000e+00 
8.000000000000e+00 2.000000000000e+01 0.000000000000e+00 2.000000000000e+00 
8.000000000000e+00 2.500000000000e+01 0.000000000000e+00 2.000000000000e+00 
8.000000000000e+00 3.000000000000e+01 0.000000000000e+00 2.000000000000e+00 
8.000000000000e+00 3.500000000000e+01 0.000000000000e+00 2.000000000000e+00 
8.000000000000e+00 4.000000000000e+01 0.000000000000e+00 2.000000000000e+00 
8.000000000000e+00 4.500000000000e+01 0.000000000000e+00 2.000000000000e+00 
8.000000000000e+00 5.000000000000e+01 0.000000000000e+00 2.000000000000e+00 
8.000000000000e+00 5.500000000000e+01 0.000000000000e+00 2.000000000000e+00 
8.000000000000e+00 6.000000000000e+01 0.000000000000e+00 2.000000000000e+00 
8.000000000000e+00 6.500000000000e+01 0.000000000000e+00 2.000000000000e+00 
8.000000000000e+00 7.000000000000e+01 0.000000000000e+00 2.000000000000e+00 
8.000000000000e+00 7.500000000000e+01 0.000000000000e+00 2.000000000000e+00 
8.000000000000e+00 8.000000000000e+01 0.000000000000e+00 2.000000000000e+00 
8.000000000000e+00 8.500000000000e+01 0.000000000000e+00 2.000000000000e+00 
8.000000000000e+00 9.000000000000e+01 0.000000000000e+00 2.000000000000e+00 
8.000000000000e+00 9.500000000000e+01 0.000000000000e+00 2.000000000000e+00 
8.000000000000e+00 1.000000000000e+02 0.000000000000e+00 2.000000000000e+00 
1.200000000000e+01 0.000000000000e+00 0.000000000000e+00 2.000000000000e+00 
1.200000000000e+01 5.000000000000e+00 0.000000000000e+00 2.000000000000e+00 
1.200000000000e+01 1.000000000000e+01 0.000000000000e+00 2.000000000000e+00 
1.200000000000e+01 1.500000000000e+01 0.000000000000e+00 2.000000000000e+00 
1.200000000000e+01 2.000000000000e+01 0.000000000000e+00 2.000000000000e+00 
1.200000000000e+01 2.500000000000e+01 0.000000000000e+00 2.000000000000e+00 
1.200000000000e+01 3.000000000000e+01 0.000000000000e+00 2.000000000000e+00 
1.200000000000e+01 3.500000000000e+01 0.000000000000e+00 2.000000000000e+00 
1.200000000000e+01 4.000000000000e+01 0.000000000000e+00 2.000000000000e+00 
1.200000000000e+01 4.500000000000e+01 0.000000000000e+00 2.000000000000e+00 
1.200000000000e+01 5.000000000000e+01 0.000000000000e+00 2.000000000000e+00 
1.200000000000e+01 5.500000000000e+01 0.000000000000e+00 2.000000000000e+00 
1.200000000000e+01 6.000000000000e+01 0.000000000000e+00 2.000000000000e+00 
1.200000000000e+01 6.500000000000e+01 0.000000000000e+00 2.000000000000e+00 
1.200000000000e+01 7.000000000000e+01 0.000000000000e+00 2.000000000000e+00 
1.200000000000e+01 7.500000000000e+01 0.000000000000e+00 2.000000000000e+00 
1.200000000000e+01 8.000000000000e+01 0.000000000000e+00 2.000000000000e+00 
1.200000000000e+01 8.500000000000e+01 0.000000000000e+00 2.000000000000e+00 
1.200000000000e+01 9.000000000000e+01 0.000000000000e+00 2.000000000000e+00 
1.200000000000e+01 9.500000000000e+01 0.000000000000e+00 2.000000000000e+00 
1.200000000000e+01 1.000000000000e+02 0.000000000000e+00 2.000000000000e+00 
1.600000000000e+01 0.000000000000e+00 0.000000000000e+00 2.000000000000e+00 
1.600000000000e+01 5.000000000000e+00 0.000000000000e+00 2.000000000000e+00 
1.600000000000e+01 1.000000000000e+01 0.000000000000e+00 2.000000000000e+00 
1.600000000000e+01 1.500000000000e+01 0.000000000000e+00 2.000000000000e+00 
1.600000000000e+01 2.000000000000e+01 0.000000000000e+00 2.000000000000e+00 
1.600000000000e+01 2.500000000000e+01 0.000000000000e+00 2.000000000000e+00 
1.600000000000e+01 3.000000000000e+01 0.000000000000e+00 2.000000000000e+00 
1.600000000000e+01 3.500000000000e+01 0.000000000000e+00 2.000000000000e+00 
1.600000000000e+01 4.000000000000e+01 0.000000000000e+00 2.000000000000e+00 
1.600000000000e+01 4.500000000000e+01 0.000000000000e+00 2.000000000000e+00 
1.600000000000e+01 5.000000000000e+01 0.000000000000e+00 2.000000000000e+00 
1.600000000000e+01 5.500000000000e+01 0.000000000000e+00 2.000000000000e+00 
1.600000000000e+01 6.000000000000e+01 0.000000000000e+00 2.000000000000e+00 
1.600000000000e+01 6.500000000000e+01 0.000000000000e+00 2.000000000000e+00 
1.600000000000e+01 7.000000000000e+01 0.000000000000e+00 2.000000000000e+00 
1.600000000000e+01 7.500000000000e+01 0.000000000000e+00 2.000000000000e+00 
1.600000000000e+01 8.000000000000e+01 0.000000000000e+00 2.000000000000e+00 
1.600000000000e+01 8.500000000000e+01 0.000000000000e+00 2.000000000000e+00 
1.600000000000e+01 9.000000000000e+01 0.000000000000e+00 2.000000000000e+00 
1.600000000000e+01 9.500000000000e+01 0.000000000000e+00 2.000000000000e+00 
1.600000000000e+01 1.000000000000e+02 0.000000000000e+00 2.000000000000e+00 
2.000000000000e+01 0.000000000000e+00 0.000000000000e+00 2.000000000000e+00 
2.000000000000e+01 5.000000000000e+00 0.000000000000e+00 2.000000000000e+00 
2.000000000000e+01 1.000000000000e+01 0.000000000000e+00 2.000000000000e+00 
2.000000000000e+01 1.500000000000e+01 0.000000000000e+00 2.000000000000e+00 
2.000000000000e+01 2.000000000000e+01 0.000000000000e+00 2.000000000000e+00 
2.000000000000e+01 2.500000000000e+01 0.000000000000e+00 2.000000000000e+00 
2.000000000000e+01 3.000000000000e+01 0.000000000000e+00 2.000000000000e+00 
2.000000000000e+01 3.500000000000e+01 0.000000000000e+00 2.000000000000e+00 
2.000000000000e+01 4.000000000000e+01 0.000000000000e+00 2.000000000000e+00 
2.000000000000e+01 4.500000000000e+01 0.000000000000e+00 2.000000000000e+00 
2.000000000000e+01 5.000000000000e+01 0.000000000000e+00 2.000000000000e+00 
2.000000000000e+01 5.500000000000e+01 0.000000000000e+00 2.000000000000e+00 
2.000000000000e+01 6.000000000000e+01 0.000000000000e+00 2.000000000000e+00 
2.000000000000e+01 6.500000000000e+01 0.000000000000e+00 2.000000000000e+00 
2.000000000000e+01 7.000000000000e+01 0.000000000000e+00 2.000000000000e+00 
2.000000000000e+01 7.500000000000e+01 0.000000000000e+00 2.000000000000e+00 
2.000000000000e+01 8.000000000000e+01 0.000000000000e+00 2.000000000000e+00 
2.000000000000e+01 8.500000000000e+01 0.000000000000e+00 2.000000000000e+00 
2.000000000000e+01 9.000000000000e+01 0.000000000000e+00 2.000000000000e+00 
2.000000000000e+01 9.500000000000e+01 0.000000000000e+00 2.000000000000e+00 
2.000000000000e+01 1.000000000000e+02 0.000000000000e+00 2.000000000000e+00 
2.400000000000e+01 0.000000000000e+00 0.000000000000e+00 2.000000000000e+00 
2.400000000000e+01 5.000000000000e+00 0.000000000000e+00 2.000000000000e+00 
2.400000000000e+01 1.000000000000e+01 0.000000000000e+00 2.000000000000e+00 
2.400000000000e+01 1.500000000000e+01 0.000000000000e+00 2.000000000000e+00 
2.400000000000e+01 2.000000000000e+01 0.000000000000e+00 2.000000000000e+00 
2.400000000000e+01 2.500000000000e+01 0.000000000000e+00 2.000000000000e+00 
2.400000000000e+01 3.000000000000e+01 0.000000000000e+00 2.000000000000e+00 
2.400000000000e+01 3.500000000000e+01 0.000000000000e+00 2.000000000000e+00 
2.400000000000e+01 4.000000000000e+01 0.000000000000e+00 2.000000000000e+00 
2.400000000000e+01 4.500000000000e+01 0.000000000000e+00 2.000000000000e+00 
2.400000000000e+01 5.000000000000e+01 0.000000000000e+00 2.000000000000e+00 
2.400000000000e+01 5.500000000000e+01 0.000000000000e+00 2.000000000000e+00 
2.400000000000e+01 6.000000000000e+01 0.000000000000e+00 2.000000000000e+00 
2.400000000000e+01 6.500000000000e+01 0.000000000000e+00 2.000000000000e+00 
2.400000000000e+01 7.000000000000e+01 0.000000000000e+00 2.000000000000e+00 
2.400000000000e+01 7.500000000000e+01 0.000000000000e+00 2.000000000000e+00 
2.400000000000e+01 8.000000000000e+01 0.000000000000e+00 2.000000000000e+00 
2.400000000000e+01 8.500000000000e+01 0.000000000000e+00 2.000000000000e+00 
2.400000000000e+01 9.000000000000e+01 0.000000000000e+00 2.000000000000e+00 
2.400000000000e+01 9.500000000000e+01 0.000000000000e+00 2.000000000000e+00 
2.400000000000e+01 1.000000000000e+02 0.000000000000e+00 2.000000000000e+00 
2.800000000000e+01 0.000000000000e+00 0.000000000000e+00 2.000000000000e+00 
2.800000000000e+01 5.000000000000e+00 0.000000000000e+00 2.000000000000e+00 
2.800000000000e+01 1.000000000000e+01 0.000000000000e+00 2.000000000000e+00 
2.800000000000e+01 1.500000000000e+01 0.000000000000e+00 2.000000000000e+00 
2.800000000000e+01 2.000000000000e+01 0.000000000000e+00 2.000000000000e+00 
2.800000000000e+01 2.500000000000e+01 0.000000000000e+00 2.000000000000e+00 
2.800000000000e+01 3.000000000000e+01 0.000000000000e+00 2.000000000000e+00 
2.800000000000e+01 3.500000000000e+01 0.000000000000e+00 2.000000000000e+00 
2.800000000000e+01 4.000000000000e+01 0.000000000000e+00 2.000000000000e+00 
2.800000000000e+01 4.500000000000e+01 0.000000000000e+00 2.000000000000e+00 
2.800000000000e+01 5.000000000000e+01 0.000000000000e+00 2.000000000000e+00 
2.800000000000e+01 5.500000000000e+01 0.000000000000e+00 2.000000000000e+00 
2.800000000000e+01 6.000000000000e+01 0.000000000000e+00 2.000000000000e+00 
2.800000000000e+01 6.500000000000e+01 0.000000000000e+00 2.000000000000e+00 
2.800000000000e+01 7.000000000000e+01 0.000000000000e+00 2.000000000000e+00 
2.800000000000e+01 7.500000000000e+01 0.000000000000e+00 2.000000000000e+00 
2.800000000000e+01 8.000000000000e+01 0.000000000000e+00 2.000000000000e+00 
2.800000000000e+01 8.500000000000e+01 0.000000000000e+00 2.000000000000e+00 
2.800000000000e+01 9.000000000000e+01 0.000000000000e+00 2.000000000000e+00 
2.800000000000e+01 9.500000000000e+01 0.000000000000e+00 2.000000000000e+00 
2.800000000000e+01 1.000000000000e+02 0.000000000000e+00 2.000000000000e+00 
3.200000000000e+01 0.000000000000e+00 0.000000000000e+00 2.000000000000e+00 
3.200000000000e+01 5.000000000000e+00 0.000000000000e+00 2.000000000000e+00 
3.200000000000e+01 1.000000000000e+01 0.000000000000e+00 2.000000000000e+00 
3.200000000000e+01 1.500000000000e+01 0.000000000000e+00 2.000000000000e+00 
3.200000000000e+01 2.000000000000e+01 0.000000000000e+00 2.000000000000e+00 
3.200000000000e+01 2.500000000000e+01 0.000000000000e+00 2.000000000000e+00 
3.200000000000e+01 3.000000000000e+01 0.000000000000e+00 2.000000000000e+00 
3.200000000000e+01 3.500000000000e+01 0.000000000000e+00 2.000000000000e+00 
3.200000000000e+01 4.000000000000e+01 0.000000000000e+00 2.000000000000e+00 
3.200000000000e+01 4.500000000000e+01 0.000000000000e+00 2.000000000000e+00 
3.200000000000e+01 5.000000000000e+01 0.000000000000e+00 2.000000000000e+00 
3.200000000000e+01 5.500000000000e+01 0.000000000000e+00 2.000000000000e+00 
3.200000000000e+01 6.000000000000e+01 0.000000000000e+00 2.000000000000e+00 
3.200000000000e+01 6.500000000000e+01 0.000000000000e+00 2.000000000000e+00 
3.200000000000e+01 7.000000000000e+01 0.000000000000e+00 2.000000000000e+00 
3.200000000000e+01 7.500000000000e+01 0.000000000000e+00 2.000000000000e+00 
3.200000000000e+01 8.000000000000e+01 0.000000000000e+00 2.000000000000e+00 
3.200000000000e+01 8.500000000000e+01 0.000000000000e+00 2.000000000000e+00 
3.200000000000e+01 9.000000000000e+01 0.000000000000e+00 2.000000000000e+00 
3.200000000000e+01 9.500000000000e+01 0.000000000000e+00 2.000000000000e+00 
3.200000000000e+01 1.000000000000e+02 0.000000000000e+00 2.000000000000e+00 
3.600000000000e+01 0.000000000000e+00 0.000000000000e+00 2.000000000000e+00 
3.600000000000e+01 5.000000000000e+00 0.000000000000e+00 2.000000000000e+00 
3.600000000000e+01 1.000000000000e+01 0.000000000000e+00 2.000000000000e+00 
3.600000000000e+01 1.500000000000e+01 0.000000000000e+00 2.000000000000e+00 
3.600000000000e+01 2.000000000000e+01 0.000000000000e+00 2.000000000000e+00 
3.600000000000e+01 2.500000000000e+01 0.000000000000e+00 2.000000000000e+00 
3.600000000000e+01 3.000000000000e+01 0.000000000000e+00 2.000000000000e+00 
3.600000000000e+01 3.500000000000e+01 0.000000000000e+00 2.000000000000e+00 
3.600000000000e+01 4.000000000000e+01 0.000000000000e+00 2.000000000000e+00 
3.600000000000e+01 4.500000000000e+01 0.000000000000e+00 2.000000000000e+00 
3.600000000000e+01 5.000000000000e+01 0.000000000000e+00 2.000000000000e+00 
3.600000000000e+01 5.500000000000e+01 0.000000000000e+00 2.000000000000e+00 
3.600000000000e+01 6.000000000000e+01 0.000000000000e+00 2.000000000000e+00 
3.600000000000e+01 6.500000000000e+01 0.000000000000e+00 2.000000000000e+00 
3.600000000000e+01 7.000000000000e+01 0.000000000000e+00 2.000000000000e+00 
3.600000000000e+01 7.500000000000e+01 0.000000000000e+00 2.000000000000e+00 
3.600000000000e+01 8.000000000000e+01 0.000000000000e+00 2.000000000000e+00 
3.600000000000e+01 8.500000000000e+01 0.000000000000e+00 2.000000000000e+00 
3.600000000000e+01 9.000000000000e+01 0.000000000000e+00 2.000000000000e+00 
3.600000000000e+01 9.500000000000e+01 0.000000000000e+00 2.000000000000e+00 
3.600000000000e+01 1.000000000000e+02 0.000000000000e+00 2.000000000000e+00 
4.000000000000e+01 0.000000000000e+00 0.000000000000e+00 2.000000000000e+00 
4.000000000000e+01 5.000000000000e+00 0.000000000000e+00 2.000000000000e+00 
4.000000000000e+01 1.000000000000e+01 0.000000000000e+00 2.000000000000e+00 
4.000000000000e+01 1.500000000000e+01 0.000000000000e+00 2.000000000000e+00 
4.000000000000e+01 2.000000000000e+01 0.000000000000e+00 2.000000000000e+00 
4.000000000000e+01 2.500000000000e+01 0.000000000000e+00 2.000000000000e+00 
4.000000000000e+01 3.000000000000e+01 0.000000000000e+00 2.000000000000e+00 
4.000000000000e+01 3.500000000000e+01 0.000000000000e+00 2.000000000000e+00 
4.000000000000e+01 4.000000000000e+01 0.000000000000e+00 2.000000000000e+00 
4.000000000000e+01 4.500000000000e+01 0.000000000000e+00 2.000000000000e+00 
4.000000000000e+01 5.000000000000e+01 0.000000000000e+00 2.000000000000e+00 
4.000000000000e+01 5.500000000000e+01 0.000000000000e+00 2.000000000000e+00 
4.000000000000e+01 6.000000000000e+01 0.000000000000e+00 2.000000000000e+00 
4.000000000000e+01 6.500000000000e+01 0.000000000000e+00 2.000000000000e+00 
4.000000000000e+01 7.000000000000e+01 0.000000000000e+00 2.000000000000e+00 
4.000000000000e+01 7.500000000000e+01 0.000000000000e+00 2.000000000000e+00 
4.000000000000e+01 8.000000000000e+01 0.000000000000e+00 2.000000000000e+00 
4.000000000000e+01 8.500000000000e+01 0.000000000000e+00 2.000000000000e+00 
4.000000000000e+01 9.000000000000e+01 0.000000000000e+00 2.000000000000e+00 
4.000000000000e+01 9.500000000000e+01 0.000000000000e+00 2.000000000000e+00 
4.000000000000e+01 1.000000000000e+02 0.000000000000e+00 2.000000000000e+00 
4.400000000000e+01 0.000000000000e+00 0.000000000000e+00 2.000000000000e+00 
4.400000000000e+01 5.000000000000e+00 0.000000000000e+00 2.000000000000e+00 
4.400000000000e+01 1.000000000000e+01 0.000000000000e+00 2.000000000000e+00 
4.400000000000e+01 1.500000000000e+01 0.000000000000e+00 2.000000000000e+00 
4.400000000000e+01 2.000000000000e+01 0.000000000000e+00 2.000000000000e+00 
4.400000000000e+01 2.500000000000e+01 0.000000000000e+00 2.000000000000e+00 
4.400000000000e+01 3.000000000000e+01 0.000000000000e+00 2.000000000000e+00 
4.400000000000e+01 3.500000000000e+01 0.000000000000e+00 2.000000000000e+00 
4.400000000000e+01 4.000000000000e+01 0.000000000000e+00 2.000000000000e+00 
4.400000000000e+01 4.500000000000e+01 0.000000000000e+00 2.000000000000e+00 
4.400000000000e+01 5.000000000000e+01 0.000000000000e+00 2.000000000000e+00 
4.400000000000e+01 5.500000000000e+01 0.000000000000e+00 2.000000000000e+00 
4.400000000000e+01 6.000000000000e+01 0.000000000000e+00 2.000000000000e+00 
4.400000000000e+01 6.500000000000e+01 0.000000000000e+00 2.000000000000e+00 
4.400000000000e+01 7.000000000000e+01 0.000000000000e+00 2.000000000000e+00 
4.400000000000e+01 7.500000000000e+01 0.000000000000e+00 2.000000000000e+00 
4.400000000000e+01 8.000000000000e+01 0.000000000000e+00 2.000000000000e+00 
4.400000000000e+01 8.500000000000e+01 0.000000000000e+00 2.000000000000e+00 
4.400000000000e+01 9.000000000000e+01 0.000000000000e+00 2.000000000000e+00 
4.400000000000e+01 9.500000000000e+01 0.000000000000e+00 2.000000000000e+00 
4.400000000000e+01 1.000000000000e+02 0.000000000000e+00 2.000000000000e+00 
4.800000000000e+01 0.000000000000e+00 0.000000000000e+00 2.000000000000e+00 
4.800000000000e+01 5.000000000000e+00 0.000000000000e+00 2.000000000000e+00 
4.800000000000e+01 1.000000000000e+01 0.000000000000e+00 2.000000000000e+00 
4.800000000000e+01 1.500000000000e+01 0.000000000000e+00 2.000000000000e+00 
4.800000000000e+01 2.000000000000e+01 0.000000000000e+00 2.000000000000e+00 
4.800000000000e+01 2.500000000000e+01 0.000000000000e+00 2.000000000000e+00 
4.800000000000e+01 3.000000000000e+01 0.000000000000e+00 2.000000000000e+00 
4.800000000000e+01 3.500000000000e+01 0.000000000000e+00 2.000000000000e+00 
4.800000000000e+01 4.000000000000e+01 0.000000000000e+00 2.000000000000e+00 
4.800000000000e+01 4.500000000000e+01 0.000000000000e+00 2.000000000000e+00 
4.800000000000e+01 5.000000000000e+01 0.000000000000e+00 2.000000000000e+00 
4.800000000000e+01 5.500000000000e+01 0.000000000000e+00 2.000000000000e+00 
4.800000000000e+01 6.000000000000e+01 0.000000000000e+00 2.000000000000e+00 
4.800000000000e+01 6.500000000000e+01 0.000000000000e+00 2.000000000000e+00 
4.800000000000e+01 7.000000000000e+01 0.000000000000e+00 2.000000000000e+00 
4.800000000000e+01 7.500000000000e+01 0.000000000000e+00 2.000000000000e+00 
4.800000000000e+01 8.000000000000e+01 0.000000000000e+00 2.000000000000e+00 
4.800000000000e+01 8.500000000000e+01 0.000000000000e+00 2.000000000000e+00 
4.800000000000e+01 9.000000000000e+01 0.000000000000e+00 2.000000000000e+00 
4.800000000000e+01 9.500000000000e+01 0.000000000000e+00 2.000000000000e+00 
4.800000000000e+01 1.000000000000e+02 0.000000000000e+00 2.000000000000e+00 
5.200000000000e+01 0.000000000000e+00 0.000000000000e+00 2.000000000000e+00 
5.200000000000e+01 5.000000000000e+00 0.000000000000e+00 2.000000000000e+00 
5.200000000000e+01 1.000000000000e+01 0.000000000000e+00 2.000000000000e+00 
5.200000000000e+01 1.500000000000e+01 0.000000000000e+00 2.000000000000e+00 
5.200000000000e+01 2.000000000000e+01 0.000000000000e+00 2.000000000000e+00 
5.200000000000e+01 2.500000000000e+01 0.000000000000e+00 2.000000000000e+00 
5.200000000000e+01 3.000000000000e+01 0.000000000000e+00 2.000000000000e+00 
5.200000000000e+01 3.500000000000e+01 0.000000000000e+00 2.000000000000e+00 
5.200000000000e+01 4.000000000000e+01 0.000000000000e+00 2.000000000000e+00 
5.200000000000e+01 4.500000000000e+01 0.000000000000e+00 2.000000000000e+00 
5.200000000000e+01 5.000000000000e+01 0.000000000000e+00 2.000000000000e+00 
5.200000000000e+01 5.500000000000e+01 0.000000000000e+00 2.000000000000e+00 
5.200000000000e+01 6.000000000000e+01 0.000000000000e+00 2.000000000000e+00 
5.200000000000e+01 6.500000000000e+01 0.000000000000e+00 2.000000000000e+00 
5.200000000000e+01 7.000000000000e+01 0.000000000000e+00 2.000000000000e+00 
5.200000000000e+01 7.500000000000e+01 0.000000000000e+00 2.000000000000e+00 
5.200000000000e+01 8.000000000000e+01 0.000000000000e+00 2.000000000000e+00 
5.200000000000e+01 8.500000000000e+01 0.000000000000e+00 2.000000000000e+00 
5.200000000000e+01 9.000000000000e+01 0.000000000000e+00 2.000000000000e+00 
5.200000000000e+01 9.500000000000e+01 0.000000000000e+00 2.000000000000e+00 
5.200000000000e+01 1.000000000000e+02 0.000000000000e+00 2.000000000000e+00 
5.600000000000e+01 0.000000000000e+00 0.000000000000e+00 2.000000000000e+00 
5.600000000000e+01 5.000000000000e+00 0.000000000000e+00 2.000000000000e+00 
5.600000000000e+01 1.000000000000e+01 0.000000000000e+00 2.000000000000e+00 
5.600000000000e+01 1.500000000000e+01 0.000000000000e+00 2.000000000000e+00 
5.600000000000e+01 2.000000000000e+01 0.000000000000e+00 2.000000000000e+00 
5.600000000000e+01 2.500000000000e+01 0.000000000000e+00 2.000000000000e+00 
5.600000000000e+01 3.000000000000e+01 0.000000000000e+00 2.000000000000e+00 
5.600000000000e+01 3.500000000000e+01 0.000000000000e+00 2.000000000000e+00 
5.600000000000e+01 4.000000000000e+01 0.000000000000e+00 2.000000000000e+00 
5.600000000000e+01 4.500000000000e+01 0.000000000000e+00 2.000000000000e+00 
5.600000000000e+01 5.000000000000e+01 0.000000000000e+00 2.000000000000e+00 
5.600000000000e+01 5.500000000000e+01 0.000000000000e+00 2.000000000000e+00 
5.600000000000e+01 6.000000000000e+01 0.000000000000e+00 2.000000000000e+00 
5.600000000000e+01 6.500000000000e+01 0.000000000000e+00 2.000000000000e+00 
5.600000000000e+01 7.000000000000e+01 0.000000000000e+00 2.000000000000e+00 
5.600000000000e+01 7.500000000000e+01 0.000000000000e+00 2.000000000000e+00 
5.600000000000e+01 8.000000000000e+01 0.000000000000e+00 2.000000000000e+00 
5.600000000000e+01 8.500000000000e+01 0.000000000000e+00 2.000000000000e+00 
5.600000000000e+01 9.000000000000e+01 0.000000000000e+00 2.000000000000e+00 
5.600000000000e+01 9.500000000000e+01 0.000000000000e+00 2.000000000000e+00 
5.600000000000e+01 1.000000000000e+02 0.000000000000e+00 2.000000000000e+00 
6.000000000000e+01 0.000000000000e+00 0.000000000000e+00 2.000000000000e+00 
6.000000000000e+01 5.000000000000e+00 0.000000000000e+00 2.000000000000e+00 
6.000000000000e+01 1.000000000000e+01 0.000000000000e+00 2.000000000000e+00 
6.000000000000e+01 1.500000000000e+01 0.000000000000e+00 2.000000000000e+00 
6.000000000000e+01 2.000000000000e+01 0.000000000000e+00 2.000000000000e+00 
6.000000000000e+01 2.500000000000e+01 0.000000000000e+00 2.000000000000e+00 
6.000000000000e+01 3.000000000000e+01 0.000000000000e+00 2.000000000000e+00 
6.000000000000e+01 3.500000000000e+01 0.000000000000e+00 2.000000000000e+00 
6.000000000000e+01 4.000000000000e+01 0.000000000000e+00 2.000000000000e+00 
6.000000000000e+01 4.500000000000e+01 0.000000000000e+00 2.000000000000e+00 
6.000000000000e+01 5.000000000000e+01 0.000000000000e+00 2.000000000000e+00 
6.000000000000e+01 5.500000000000e+01 0.000000000000e+00 2.000000000000e+00 
6.000000000000e+01 6.000000000000e+01 0.000000000000e+00 2.000000000000e+00 
6.000000000000e+01 6.500000000000e+01 0.000000000000e+00 2.000000000000e+00 
6.000000000000e+01 7.000000000000e+01 0.000000000000e+00 2.000000000000e+00 
6.000000000000e+01 7.500000000000e+01 0.000000000000e+00 2.000000000000e+00 
6.000000000000e+01 8.000000000000e+01 0.000000000000e+00 2.000000000000e+00 
6.000000000000e+01 8.500000000000e+01 0.000000000000e+00 2.000000000000e+00 
6.000000000000e+01 9.000000000000e+01 0.000000000000e+00 2.000000000000e+00 
6.000000000000e+01 9.500000000000e+01 0.000000000000e+00 2.000000000000e+00 
6.000000000000e+01 1.000000000000e+02 0.000000000000e+00 2.000000000000e+00 
6.400000000000e+01 0.000000000000e+00 0.000000000000e+00 2.000000000000e+00 
6.400000000000e+01 5.000000000000e+00 0.000000000000e+00 2.000000000000e+00 
6.400000000000e+01 1.000000000000e+01 0.000000000000e+00 2.000000000000e+00 
6.400000000000e+01 1.500000000000e+01 0.000000000000e+00 2.000000000000e+00 
6.400000000000e+01 2.000000000000e+01 0.000000000000e+00 2.000000000000e+00 
6.400000000000e+01 2.500000000000e+01 0.000000000000e+00 2.000000000000e+00 
6.400000000000e+01 3.000000000000e+01 0.000000000000e+00 2.000000000000e+00 
6.400000000000e+01 3.500000000000e+01 0.000000000000e+00 2.000000000000e+00 
6.400000000000e+01 4.000000000000e+01 0.000000000000e+00 2.000000000000e+00 
6.400000000000e+01 4.500000000000e+01 0.000000000000e+00 2.000000000000e+00 
6.400000000000e+01 5.000000000000e+01 0.000000000000e+00 2.000000000000e+00 
6.400000000000e+01 5.500000000000e+01 0.000000000000e+00 2.000000000000e+00 
6.400000000000e+01 6.000000000000e+01 0.000000000000e+00 2.000000000000e+00 
6.400000000000e+01 6.500000000000e+01 0.000000000000e+00 2.000000000000e+00 
6.400000000000e+01 7.000000000000e+01 0.000000000000e+00 2.000000000000e+00 
6.400000000000e+01 7.500000000000e+01 0.000000000000e+00 2.000000000000e+00 
6.400000000000e+01 8.000000000000e+01 0.000000000000e+00 2.000000000000e+00 
6.400000000000e+01 8.500000000000e+01 0.000000000000e+00 2.000000000000e+00 
6.400000000000e+01 9.000000000000e+01 0.000000000000e+00 2.000000000000e+00 
6.400000000000e+01 9.500000000000e+01 0.000000000000e+00 2.000000000000e+00 
6.400000000000e+01 1.000000000000e+02 0.000000000000e+00 2.000000000000e+00 
6.800000000000e+01 0.000000000000e+00 0.000000000000e+00 2.000000000000e+00 
6.800000000000e+01 5.000000000000e+00 0.000000000000e+00 2.000000000000e+00 
6.800000000000e+01 1.000000000000e+01 0.000000000000e+00 2.000000000000e+00 
6.800000000000e+01 1.500000000000e+01 0.000000000000e+00 2.000000000000e+00 
6.800000000000e+01 2.000000000000e+01 0.000000000000e+00 2.000000000000e+00 
6.800000000000e+01 2.500000000000e+01 0.000000000000e+00 2.000000000000e+00 
6.800000000000e+01 3.000000000000e+01 0.000000000000e+00 2.000000000000e+00 
6.800000000000e+01 3.500000000000e+01 0.000000000000e+00 2.000000000000e+00 
6.800000000000e+01 4.000000000000e+01 0.000000000000e+00 2.000000000000e+00 
6.800000000000e+01 4.500000000000e+01 0.000000000000e+00 2.000000000000e+00 
6.800000000000e+01 5.000000000000e+01 0.000000000000e+00 2.000000000000e+00 
6.800000000000e+01 5.500000000000e+01 0.000000000000e+00 2.000000000000e+00 
6.800000000000e+01 6.000000000000e+01 0.000000000000e+00 2.000000000000e+00 
6.800000000000e+01 6.500000000000e+01 0.000000000000e+00 2.000000000000e+00 
6.800000000000e+01 7.000000000000e+01 0.000000000000e+00 2.000000000000e+00 
6.800000000000e+01 7.500000000000e+01 0.000000000000e+00 2.000000000000e+00 
6.800000000000e+01 8.000000000000e+01 0.000000000000e+00 2.000000000000e+00 
6.800000000000e+01 8.500000000000e+01 0.000000000000e+00 2.000000000000e+00 
6.800000000000e+01 9.000000000000e+01 0.000000000000e+00 2.000000000000e+00 
6.800000000000e+01 9.500000000000e+01 0.000000000000e+00 2.000000000000e+00 
6.800000000000e+01 1.000000000000e+02 0.000000000000e+00 2.000000000000e+00 
7.200000000000e+01 0.000000000000e+00 0.000000000000e+00 2.000000000000e+00 
7.200000000000e+01 5.000000000000e+00 0.000000000000e+00 2.000000000000e+00 
7.200000000000e+01 1.000000000000e+01 0.000000000000e+00 2.000000000000e+00 
7.200000000000e+01 1.500000000000e+01 0.000000000000e+00 2.000000000000e+00 
7.200000000000e+01 2.000000000000e+01 0.000000000000e+00 2.000000000000e+00 
7.200000000000e+01 2.500000000000e+01 0.000000000000e+00 2.000000000000e+00 
7.200000000000e+01 3.000000000000e+01 0.000000000000e+00 2.000000000000e+00 
7.200000000000e+01 3.500000000000e+01 0.000000000000e+00 2.000000000000e+00 
7.200000000000e+01 4.000000000000e+01 0.000000000000e+00 2.000000000000e+00 