 TITLE = "Profiles along polylines"
 VARIABLES = "DIST" "PRESSURE1" "SATURATION1" "SATURATION2" 
 ZONE T="TIME=0.000000000000e+00"
0.000000000000e+00 9.806700000000e+04 1.000000000000e+00 0.000000000000e+00 
3.333333333333e-01 9.806700000000e+04 1.000000000000e+00 0.000000000000e+00 
6.666666666667e-01 9.806700000000e+04 1.000000000000e+00 0.000000000000e+00 
1.000000000000e+00 9.806700000000e+04 1.000000000000e+00 0.000000000000e+00 
1.333333333333e+00 9.806700000000e+04 1.000000000000e+00 0.000000000000e+00 
1.666666666667e+00 9.806700000000e+04 1.000000000000e+00 0.000000000000e+00 
2.000000000000e+00 9.806700000000e+04 1.000000000000e+00 0.000000000000e+00 
2.333333333333e+00 9.806700000000e+04 1.000000000000e+00 0.000000000000e+00 
2.666666666667e+00 9.806700000000e+04 1.000000000000e+00 0.000000000000e+00 
3.000000000000e+00 9.806700000000e+04 1.000000000000e+00 0.000000000000e+00 
3.333333333333e+00 9.806700000000e+04 1.000000000000e+00 0.000000000000e+00 
3.666666666667e+00 9.806700000000e+04 1.000000000000e+00 0.000000000000e+00 
4.000000000000e+00 9.806700000000e+04 1.000000000000e+00 0.000000000000e+00 
4.333333333333e+00 9.806700000000e+04 1.000000000000e+00 0.000000000000e+00 
4.666666666667e+00 9.806700000000e+04 1.000000000000e+00 0.000000000000e+00 
5.000000000000e+00 9.806700000000e+04 8.999977480000e-01 1.000022520000e-01 
5.333333333333e+00 9.806700000000e+04 8.999977480000e-01 1.000022520000e-01 
5.666666666667e+00 9.806700000000e+04 8.999977480000e-01 1.000022520000e-01 
6.000000000000e+00 9.806700000000e+04 8.999977480000e-01 1.000022520000e-01 
6.333333333333e+00 9.806700000000e+04 8.999977480000e-01 1.000022520000e-01 
6.666666666667e+00 9.806700000000e+04 8.999977480000e-01 1.000022520000e-01 
7.000000000000e+00 9.806700000000e+04 8.999977480000e-01 1.000022520000e-01 
7.333333333333e+00 9.806700000000e+04 8.999977480000e-01 1.000022520000e-01 
7.666666666667e+00 9.806700000000e+04 8.999977480000e-01 1.000022520000e-01 
8.000000000000e+00 9.806700000000e+04 8.999977480000e-01 1.000022520000e-01 
8.333333333333e+00 9.806700000000e+04 8.999977480000e-01 1.000022520000e-01 
8.666666666667e+00 9.806700000000e+04 8.999977480000e-01 1.000022520000e-01 
9.000000000000e+00 9.806700000000e+04 8.999977480000e-01 1.000022520000e-01 
9.333333333333e+00 9.806700000000e+04 8.999977480000e-01 1.000022520000e-01 
9.666666666667e+00 9.806700000000e+04 8.999977480000e-01 1.000022520000e-01 
1.000000000000e+01 9.806700000000e+04 8.999977480000e-01 1.000022520000e-01 
1.033333333333e+01 9.806700000000e+04 8.999977480000e-01 1.000022520000e-01 
1.066666666667e+01 9.806700000000e+04 1.000000000000e+00 0.000000000000e+00 
1.100000000000e+01 9.806700000000e+04 1.000000000000e+00 0.000000000000e+00 
1.133333333333e+01 9.806700000000e+04 1.000000000000e+00 0.000000000000e+00 
1.166666666667e+01 9.806700000000e+04 1.000000000000e+00 0.000000000000e+00 
1.200000000000e+01 9.806700000000e+04 1.000000000000e+00 0.000000000000e+00 
1.233333333333e+01 9.806700000000e+04 1.000000000000e+00 0.000000000000e+00 
1.266666666667e+01 9.806700000000e+04 1.000000000000e+00 0.000000000000e+00 
1.300000000000e+01 9.806700000000e+04 1.000000000000e+00 0.000000000000e+00 
1.333333333333e+01 9.806700000000e+04 1.000000000000e+00 0.000000000000e+00 
1.366666666667e+01 9.806700000000e+04 1.000000000000e+00 0.000000000000e+00 
1.400000000000e+01 9.806700000000e+04 1.000000000000e+00 0.000000000000e+00 
1.433333333333e+01 9.806700000000e+04 1.000000000000e+00 0.000000000000e+00 
1.466666666667e+01 9.806700000000e+04 1.000000000000e+00 0.000000000000e+00 
1.500000000000e+01 9.806700000000e+04 1.000000000000e+00 0.000000000000e+00 
1.533333333333e+01 9.806700000000e+04 1.000000000000e+00 0.000000000000e+00 
1.566666666667e+01 9.806700000000e+04 1.000000000000e+00 0.000000000000e+00 
1.600000000000e+01 9.806700000000e+04 1.000000000000e+00 0.000000000000e+00 
1.633333333333e+01 9.806700000000e+04 1.000000000000e+00 0.000000000000e+00 
1.666666666667e+01 9.806700000000e+04 1.000000000000e+00 0.000000000000e+00 
1.700000000000e+01 9.806700000000e+04 1.000000000000e+00 0.000000000000e+00 
1.733333333333e+01 9.806700000000e+04 1.000000000000e+00 0.000000000000e+00 
1.766666666667e+01 9.806700000000e+04 1.000000000000e+00 0.000000000000e+00 
1.800000000000e+01 9.806700000000e+04 1.000000000000e+00 0.000000000000e+00 
1.833333333333e+01 9.806700000000e+04 1.000000000000e+00 0.000000000000e+00 
1.866666666667e+01 9.806700000000e+04 1.000000000000e+00 0.000000000000e+00 
1.900000000000e+01 9.806700000000e+04 1.000000000000e+00 0.000000000000e+00 
1.933333333333e+01 9.806700000000e+04 1.000000000000e+00 0.000000000000e+00 
1.966666666667e+01 9.806700000000e+04 1.000000000000e+00 0.000000000000e+00 
2.000000000000e+01 9.806700000000e+04 1.000000000000e+00 0.000000000000e+00 
2.033333333333e+01 9.806700000000e+04 1.000000000000e+00 0.000000000000e+00 
2.066666666667e+01 9.806700000000e+04 1.000000000000e+00 0.000000000000e+00 
2.100000000000e+01 9.806700000000e+04 1.000000000000e+00 0.000000000000e+00 
2.133333333333e+01 9.806700000000e+04 1.000000000000e+00 0.000000000000e+00 
2.166666666667e+01 9.806700000000e+04 1.000000000000e+00 0.000000000000e+00 
2.200000000000e+01 9.806700000000e+04 1.000000000000e+00 0.000000000000e+00 
2.233333333333e+01 9.806700000000e+04 1.000000000000e+00 0.000000000000e+00 
2.266666666667e+01 9.806700000000e+04 1.000000000000e+00 0.000000000000e+00 
2.300000000000e+01 9.806700000000e+04 1.000000000000e+00 0.000000000000e+00 
2.333333333333e+01 9.806700000000e+04 1.000000000000e+00 0.000000000000e+00 
2.366666666667e+01 9.806700000000e+04 1.000000000000e+00 0.000000000000e+00 
2.400000000000e+01 9.806700000000e+04 1.000000000000e+00 0.000000000000e+00 
2.433333333333e+01 9.806700000000e+04 1.000000000000e+00 0.000000000000e+00 
2.466666666667e+01 9.806700000000e+04 1.000000000000e+00 0.000000000000e+00 
2.500000000000e+01 9.806700000000e+04 1.000000000000e+00 0.000000000000e+00 
2.533333333333e+01 9.806700000000e+04 1.000000000000e+00 0.000000000000e+00 
2.566666666667e+01 9.806700000000e+04 1.000000000000e+00 0.000000000000e+00 
2.600000000000e+01 9.806700000000e+04 1.000000000000e+00 0.000000000000e+00 
2.633333333333e+01 9.806700000000e+04 1.000000000000e+00 0.000000000000e+00 
2.666666666667e+01 9.806700000000e+04 1.000000000000e+00 0.000000000000e+00 
2.700000000000e+01 9.806700000000e+04 1.000000000000e+00 0.000000000000e+00 
2.733333333333e+01 9.806700000000e+04 1.000000000000e+00 0.000000000000e+00 
2.766666666667e+01 9.806700000000e+04 1.000000000000e+00 0.000000000000e+00 
2.800000000000e+01 9.806700000000e+04 1.000000000000e+00 0.000000000000e+00 
2.833333333333e+01 9.806700000000e+04 1.000000000000e+00 0.000000000000e+00 
2.866666666667e+01 9.806700000000e+04 1.000000000000e+00 0.000000000000e+00 
2.900000000000e+01 9.806700000000e+04 1.000000000000e+00 0.000000000000e+00 
2.933333333333e+01 9.806700000000e+04 1.000000000000e+00 0.000000000000e+00 
2.966666666667e+01 9.806700000000e+04 1.000000000000e+00 0.000000000000e+00 
3.000000000000e+01 9.806700000000e+04 1.000000000000e+00 0.000000000000e+00 
3.033333333333e+01 9.806700000000e+04 1.000000000000e+00 0.000000000000e+00 
3.066666666667e+01 9.806700000000e+04 1.000000000000e+00 0.000000000000e+00 
3.100000000000e+01 9.806700000000e+04 1.000000000000e+00 0.000000000000e+00 
3.133333333333e+01 9.806700000000e+04 1.000000000000e+00 0.000000000000e+00 
3.166666666667e+01 9.806700000000e+04 1.000000000000e+00 0.000000000000e+00 
3.200000000000e+01 9.806700000000e+04 1.000000000000e+00 0.000000000000e+00 
3.233333333333e+01 9.806700000000e+04 1.000000000000e+00 0.000000000000e+00 
3.266666666667e+01 9.806700000000e+04 1.000000000000e+00 0.000000000000e+00 
3.300000000000e+01 9.806700000000e+04 1.000000000000e+00 0.000000000000e+00 
3.333333333333e+01 9.806700000000e+04 1.000000000000e+00 0.000000000000e+00 
3.366666666667e+01 9.806700000000e+04 1.000000000000e+00 0.000000000000e+00 
3.400000000000e+01 9.806700000000e+04 1.000000000000e+00 0.000000000000e+00 
3.433333333333e+01 9.806700000000e+04 1.000000000000e+00 0.000000000000e+00 
3.466666666667e+01 9.806700000000e+04 1.000000000000e+00 0.000000000000e+00 
3.500000000000e+01 9.806700000000e+04 1.000000000000e+00 0.000000000000e+00 
3.533333333333e+01 9.806700000000e+04 1.000000000000e+00 0.000000000000e+00 
3.566666666667e+01 9.806700000000e+04 1.000000000000e+00 0.000000000000e+00 
3.600000000000e+01 9.806700000000e+04 1.000000000000e+00 0.000000000000e+00 
3.633333333333e+01 9.806700000000e+04 1.000000000000e+00 0.000000000000e+00 
3.666666666667e+01 9.806700000000e+04 1.000000000000e+00 0.000000000000e+00 
3.700000000000e+01 9.806700000000e+04 1.000000000000e+00 0.000000000000e+00 
3.733333333333e+01 9.806700000000e+04 1.000000000000e+00 0.000000000000e+00 
3.766666666667e+01 9.806700000000e+04 1.000000000000e+00 0.000000000000e+00 
3.800000000000e+01 9.806700000000e+04 1.000000000000e+00 0.000000000000e+00 
3.833333333333e+01 9.806700000000e+04 1.000000000000e+00 0.000000000000e+00 
3.866666666667e+01 9.806700000000e+04 1.000000000000e+00 0.000000000000e+00 
3.900000000000e+01 9.806700000000e+04 1.000000000000e+00 0.000000000000e+00 
3.933333333333e+01 9.806700000000e+04 1.000000000000e+00 0.000000000000e+00 
3.966666666667e+01 9.806700000000e+04 1.000000000000e+00 0.000000000000e+00 
4.000000000000e+01 9.806700000000e+04 1.000000000000e+00 0.000000000000e+00 
4.033333333333e+01 9.806700000000e+04 1.000000000000e+00 0.000000000000e+00 
4.066666666667e+01 9.806700000000e+04 1.000000000000e+00 0.000000000000e+00 
4.100000000000e+01 9.806700000000e+04 1.000000000000e+00 0.000000000000e+00 
4.133333333333e+01 9.806700000000e+04 1.000000000000e+00 0.000000000000e+00 
4.166666666667e+01 9.806700000000e+04 1.000000000000e+00 0.000000000000e+00 
4.200000000000e+01 9.806700000000e+04 1.000000000000e+00 0.000000000000e+00 
4.233333333333e+01 9.806700000000e+04 1.000000000000e+00 0.000000000000e+00 
4.266666666667e+01 9.806700000000e+04 1.000000000000e+00 0.000000000000e+00 
4.300000000000e+01 9.806700000000e+04 1.000000000000e+00 0.000000000000e+00 
4.333333333333e+01 9.806700000000e+04 1.000000000000e+00 0.000000000000e+00 
4.366666666667e+01 9.806700000000e+04 1.000000000000e+00 0.000000000000e+00 
4.400000000000e+01 9.806700000000e+04 1.000000000000e+00 0.000000000000e+00 
4.433333333333e+01 9.806700000000e+04 1.000000000000e+00 0.000000000000e+00 
4.466666666667e+01 9.806700000000e+04 1.000000000000e+00 0.000000000000e+00 
4.500000000000e+01 9.806700000000e+04 1.000000000000e+00 0.000000000000e+00 
4.533333333333e+01 9.806700000000e+04 1.000000000000e+00 0.000000000000e+00 
4.566666666667e+01 9.806700000000e+04 1.000000000000e+00 0.000000000000e+00 
4.600000000000e+01 9.806700000000e+04 1.000000000000e+00 0.000000000000e+00 
4.633333333333e+01 9.806700000000e+04 1.000000000000e+00 0.000000000000e+00 
4.666666666667e+01 9.806700000000e+04 1.000000000000e+00 0.000000000000e+00 
4.700000000000e+01 9.806700000000e+04 1.000000000000e+00 0.000000000000e+00 
4.733333333333e+01 9.806700000000e+04 1.000000000000e+00 0.000000000000e+00 
4.766666666667e+01 9.806700000000e+04 1.000000000000e+00 0.000000000000e+00 
4.800000000000e+01 9.806700000000e+04 1.000000000000e+00 0.000000000000e+00 
4.833333333333e+01 9.806700000000e+04 1.000000000000e+00 0.000000000000e+00 
4.866666666667e+01 9.806700000000e+04 1.000000000000e+00 0.000000000000e+00 
4.900000000000e+01 9.806700000000e+04 1.000000000000e+00 0.000000000000e+00 
4.933333333333e+01 9.806700000000e+04 1.000000000000e+00 0.000000000000e+00 
4.966666666667e+01 9.806700000000e+04 1.000000000000e+00 0.000000000000e+00 
5.000000000000e+01 9.806700000000e+04 1.000000000000e+00 0.000000000000e+00 
 TITLE = "Profiles along polylines"
 VARIABLES = "DIST" "PRESSURE1" "SATURATION1" "SATURATION2" 
 ZONE T="TIME=2.160000000000e+04"
0.000000000000e+00 9.810000000000e+04 1.000000000000e+00 0.000000000000e+00 
3.333333333333e-01 9.807040210692e+04 1.000000000000e+00 0.000000000000e+00 
6.666666666667e-01 9.804006706482e+04 1.000000000000e+00 0.000000000000e+00 
1.000000000000e+00 9.800951661211e+04 1.000000000000e+00 0.000000000000e+00 
1.333333333333e+00 9.797890321183e+04 1.000000000000e+00 0.000000000000e+00 
1.666666666667e+00 9.794827141694e+04 1.000000000000e+00 0.000000000000e+00 
2.000000000000e+00 9.791763424676e+04 1.000000000000e+00 0.000000000000e+00 
2.333333333333e+00 9.788699550579e+04 1.000000000000e+00 0.000000000000e+00 
2.666666666667e+00 9.785635630581e+04 1.000000000000e+00 0.000000000000e+00 
3.000000000000e+00 9.782571697170e+04 1.000000000000e+00 0.000000000000e+00 
3.333333333333e+00 9.779507759839e+04 1.000000000000e+00 0.000000000000e+00 
3.666666666667e+00 9.776443821362e+04 1.000000000000e+00 0.000000000000e+00 
4.000000000000e+00 9.773379882551e+04 1.000000000000e+00 0.000000000000e+00 
4.333333333333e+00 9.770315943642e+04 1.000000000000e+00 0.000000000000e+00 
4.666666666667e+00 9.767252004704e+04 1.000000000000e+00 0.000000000000e+00 
5.000000000000e+00 9.763432122901e+04 8.999977480000e-01 1.000022520000e-01 
5.333333333333e+00 9.758530854286e+04 8.999977480000e-01 1.000022520000e-01 
5.666666666667e+00 9.753629585671e+04 8.999977480000e-01 1.000022520000e-01 
6.000000000000e+00 9.748728317055e+04 8.999977480000e-01 1.000022520000e-01 
6.333333333333e+00 9.743827048439e+04 8.999977480000e-01 1.000022520000e-01 
6.666666666667e+00 9.738925779823e+04 8.999977480000e-01 1.000022520000e-01 
7.000000000000e+00 9.734024511207e+04 8.999977480000e-01 1.000022520000e-01 
7.333333333333e+00 9.729123242591e+04 8.999977480000e-01 1.000022520000e-01 
7.666666666667e+00 9.724221973975e+04 8.999977480000e-01 1.000022520000e-01 
8.000000000000e+00 9.719320705359e+04 8.999977480000e-01 1.000022520000e-01 
8.333333333333e+00 9.714419436743e+04 8.999977480000e-01 1.000022520000e-01 
8.666666666667e+00 9.709518168127e+04 8.999977480000e-01 1.000022520000e-01 
9.000000000000e+00 9.704616899511e+04 8.999977480000e-01 1.000022520000e-01 
9.333333333333e+00 9.699715630895e+04 8.999977480000e-01 1.000022520000e-01 
9.666666666667e+00 9.694814362279e+04 8.999977480000e-01 1.000022520000e-01 
1.000000000000e+01 9.689913093663e+04 8.999977480000e-01 1.000022520000e-01 
1.033333333333e+01 9.685011825047e+04 8.999977480000e-01 1.000022520000e-01 
1.066666666667e+01 9.681191943240e+04 1.000000000000e+00 0.000000000000e+00 
1.100000000000e+01 9.678128004291e+04 1.000000000000e+00 0.000000000000e+00 
1.133333333333e+01 9.675064065342e+04 1.000000000000e+00 0.000000000000e+00 
1.166666666667e+01 9.672000126392e+04 1.000000000000e+00 0.000000000000e+00 
1.200000000000e+01 9.668936187443e+04 1.000000000000e+00 0.000000000000e+00 
1.233333333333e+01 9.665872248494e+04 1.000000000000e+00 0.000000000000e+00 
1.266666666667e+01 9.662808309545e+04 1.000000000000e+00 0.000000000000e+00 
1.300000000000e+01 9.659744370595e+04 1.000000000000e+00 0.000000000000e+00 
1.333333333333e+01 9.656680431646e+04 1.000000000000e+00 0.000000000000e+00 
1.366666666667e+01 9.653616492697e+04 1.000000000000e+00 0.000000000000e+00 
1.400000000000e+01 9.650552553748e+04 1.000000000000e+00 0.000000000000e+00 
1.433333333333e+01 9.647488614799e+04 1.000000000000e+00 0.000000000000e+00 
1.466666666667e+01 9.644424675850e+04 1.000000000000e+00 0.000000000000e+00 
1.500000000000e+01 9.641360736901e+04 1.000000000000e+00 0.000000000000e+00 
1.533333333333e+01 9.638296797952e+04 1.000000000000e+00 0.000000000000e+00 
1.566666666667e+01 9.635232859003e+04 1.000000000000e+00 0.000000000000e+00 
1.600000000000e+01 9.632168920054e+04 1.000000000000e+00 0.000000000000e+00 
1.633333333333e+01 9.629104981105e+04 1.000000000000e+00 0.000000000000e+00 
1.666666666667e+01 9.626041042156e+04 1.000000000000e+00 0.000000000000e+00 
1.700000000000e+01 9.622977103208e+04 1.000000000000e+00 0.000000000000e+00 
1.733333333333e+01 9.619913164259e+04 1.000000000000e+00 0.000000000000e+00 
1.766666666667e+01 9.616849225311e+04 1.000000000000e+00 0.000000000000e+00 
1.800000000000e+01 9.613785286363e+04 1.000000000000e+00 0.000000000000e+00 
1.833333333333e+01 9.610721347415e+04 1.000000000000e+00 0.000000000000e+00 
1.866666666667e+01 9.607657408467e+04 1.000000000000e+00 0.000000000000e+00 
1.900000000000e+01 9.604593469519e+04 1.000000000000e+00 0.000000000000e+00 
1.933333333333e+01 9.601529530571e+04 1.000000000000e+00 0.000000000000e+00 
1.966666666667e+01 9.598465591624e+04 1.000000000000e+00 0.000000000000e+00 
2.000000000000e+01 9.595401652677e+04 1.000000000000e+00 0.000000000000e+00 
2.033333333333e+01 9.592337713730e+04 1.000000000000e+00 0.000000000000e+00 
2.066666666667e+01 9.589273774783e+04 1.000000000000e+00 0.000000000000e+00 
2.100000000000e+01 9.586209835837e+04 1.000000000000e+00 0.000000000000e+00 
2.133333333333e+01 9.583145896890e+04 1.000000000000e+00 0.000000000000e+00 
2.166666666667e+01 9.580081957945e+04 1.000000000000e+00 0.000000000000e+00 
2.200000000000e+01 9.577018018999e+04 1.000000000000e+00 0.000000000000e+00 
2.233333333333e+01 9.573954080054e+04 1.000000000000e+00 0.000000000000e+00 
2.266666666667e+01 9.570890141109e+04 1.000000000000e+00 0.000000000000e+00 
2.300000000000e+01 9.567826202164e+04 1.000000000000e+00 0.000000000000e+00 
2.333333333333e+01 9.564762263220e+04 1.000000000000e+00 0.000000000000e+00 
2.366666666667e+01 9.561698324276e+04 1.000000000000e+00 0.000000000000e+00 
2.400000000000e+01 9.558634385333e+04 1.000000000000e+00 0.000000000000e+00 
2.433333333333e+01 9.555570446390e+04 1.000000000000e+00 0.000000000000e+00 
2.466666666667e+01 9.552506507447e+04 1.000000000000e+00 0.000000000000e+00 
2.500000000000e+01 9.549442568505e+04 1.000000000000e+00 0.000000000000e+00 
2.533333333333e+01 9.546378629564e+04 1.000000000000e+00 0.000000000000e+00 
2.566666666667e+01 9.543314690623e+04 1.000000000000e+00 0.000000000000e+00 
2.600000000000e+01 9.540250751682e+04 1.000000000000e+00 0.000000000000e+00 
2.633333333333e+01 9.537186812743e+04 1.000000000000e+00 0.000000000000e+00 
2.666666666667e+01 9.534122873803e+04 1.000000000000e+00 0.000000000000e+00 
2.700000000000e+01 9.531058934865e+04 1.000000000000e+00 0.000000000000e+00 
2.733333333333e+01 9.527994995926e+04 1.000000000000e+00 0.000000000000e+00 
2.766666666667e+01 9.524931056989e+04 1.000000000000e+00 0.000000000000e+00 
2.800000000000e+01 9.521867118052e+04 1.000000000000e+00 0.000000000000e+00 
2.833333333333e+01 9.518803179116e+04 1.000000000000e+00 0.000000000000e+00 
2.866666666667e+01 9.515739240181e+04 1.000000000000e+00 0.000000000000e+00 
2.900000000000e+01 9.512675301246e+04 1.000000000000e+00 0.000000000000e+00 
2.933333333333e+01 9.509611362312e+04 1.000000000000e+00 0.000000000000e+00 
2.966666666667e+01 9.506547423379e+04 1.000000000000e+00 0.000000000000e+00 
3.000000000000e+01 9.503483484446e+04 1.000000000000e+00 0.000000000000e+00 
3.033333333333e+01 9.500419545515e+04 1.000000000000e+00 0.000000000000e+00 
3.066666666667e+01 9.497355606584e+04 1.000000000000e+00 0.000000000000e+00 
3.100000000000e+01 9.494291667654e+04 1.000000000000e+00 0.000000000000e+00 
3.133333333333e+01 9.491227728724e+04 1.000000000000e+00 0.000000000000e+00 
3.166666666667e+01 9.488163789796e+04 1.000000000000e+00 0.000000000000e+00 
3.200000000000e+01 9.485099850868e+04 1.000000000000e+00 0.000000000000e+00 
3.233333333333e+01 9.482035911942e+04 1.000000000000e+00 0.000000000000e+00 
3.266666666667e+01 9.478971973016e+04 1.000000000000e+00 0.000000000000e+00 
3.300000000000e+01 9.475908034091e+04 1.000000000000e+00 0.000000000000e+00 
3.333333333333e+01 9.472844095167e+04 1.000000000000e+00 0.000000000000e+00 
3.366666666667e+01 9.469780156244e+04 1.000000000000e+00 0.000000000000e+00 
3.400000000000e+01 9.466716217321e+04 1.000000000000e+00 0.000000000000e+00 
3.433333333333e+01 9.463652278400e+04 1.000000000000e+00 0.000000000000e+00 
3.466666666667e+01 9.460588339479e+04 1.000000000000e+00 0.000000000000e+00 
3.500000000000e+01 9.457524400560e+04 1.000000000000e+00 0.000000000000e+00 
3.533333333333e+01 9.454460461641e+04 1.000000000000e+00 0.000000000000e+00 
3.566666666667e+01 9.451396522724e+04 1.000000000000e+00 0.000000000000e+00 
3.600000000000e+01 9.448332583807e+04 1.000000000000e+00 0.000000000000e+00 
3.633333333333e+01 9.445268644891e+04 1.000000000000e+00 0.000000000000e+00 
3.666666666667e+01 9.442204705976e+04 1.000000000000e+00 0.000000000000e+00 
3.700000000000e+01 9.439140767062e+04 1.000000000000e+00 0.000000000000e+00 
3.733333333333e+01 9.436076828149e+04 1.000000000000e+00 0.000000000000e+00 
3.766666666667e+01 9.433012889237e+04 1.000000000000e+00 0.000000000000e+00 
3.800000000000e+01 9.429948950325e+04 1.000000000000e+00 0.000000000000e+00 
3.833333333333e+01 9.426885011415e+04 1.000000000000e+00 0.000000000000e+00 
3.866666666667e+01 9.423821072506e+04 1.000000000000e+00 0.000000000000e+00 
3.900000000000e+01 9.420757133597e+04 1.000000000000e+00 0.000000000000e+00 
3.933333333333e+01 9.417693194689e+04 1.000000000000e+00 0.000000000000e+00 
3.966666666667e+01 9.414629255783e+04 1.000000000000e+00 0.000000000000e+00 
4.000000000000e+01 9.411565316877e+04 1.000000000000e+00 0.000000000000e+00 
4.033333333333e+01 9.408501377972e+04 1.000000000000e+00 0.000000000000e+00 
4.066666666667e+01 9.405437439068e+04 1.000000000000e+00 0.000000000000e+00 
4.100000000000e+01 9.402373500164e+04 1.000000000000e+00 0.000000000000e+00 
4.133333333333e+01 9.399309561262e+04 1.000000000000e+00 0.000000000000e+00 
4.166666666667e+01 9.396245622360e+04 1.000000000000e+00 0.000000000000e+00 
4.200000000000e+01 9.393181683459e+04 1.000000000000e+00 0.000000000000e+00 
4.233333333333e+01 9.390117744559e+04 1.000000000000e+00 0.000000000000e+00 
4.266666666667e+01 9.387053805659e+04 1.000000000000e+00 0.000000000000e+00 
4.300000000000e+01 9.383989866761e+04 1.000000000000e+00 0.000000000000e+00 
4.333333333333e+01 9.380925927862e+04 1.000000000000e+00 0.000000000000e+00 
4.366666666667e+01 9.377861988965e+04 1.000000000000e+00 0.000000000000e+00 
4.400000000000e+01 9.374798050068e+04 1.000000000000e+00 0.000000000000e+00 
4.433333333333e+01 9.371734111172e+04 1.000000000000e+00 0.000000000000e+00 
4.466666666667e+01 9.368670172276e+04 1.000000000000e+00 0.000000000000e+00 
4.500000000000e+01 9.365606233380e+04 1.000000000000e+00 0.000000000000e+00 
4.533333333333e+01 9.362542294482e+04 1.000000000000e+00 0.000000000000e+00 
4.566666666667e+01 9.359478355576e+04 1.000000000000e+00 0.000000000000e+00 
4.600000000000e+01 9.356414416642e+04 1.000000000000e+00 0.000000000000e+00 
4.633333333333e+01 9.353350477611e+04 1.000000000000e+00 0.000000000000e+00 
4.666666666667e+01 9.350286538245e+04 1.000000000000e+00 0.000000000000e+00 
4.700000000000e+01 9.347222597734e+04 1.000000000000e+00 0.000000000000e+00 
4.733333333333e+01 9.344158653304e+04 1.000000000000e+00 0.000000000000e+00 
4.766666666667e+01 9.341094695461e+04 1.000000000000e+00 0.000000000000e+00 
4.800000000000e+01 9.338030691717e+04 1.000000000000e+00 0.000000000000e+00 
4.833333333333e+01 9.334966530895e+04 1.000000000000e+00 0.000000000000e+00 
4.866666666667e+01 9.331901832544e+04 1.000000000000e+00 0.000000000000e+00 
4.900000000000e+01 9.328835294731e+04 1.000000000000e+00 0.000000000000e+00 
4.933333333333e+01 9.325762462162e+04 1.000000000000e+00 0.000000000000e+00 
4.966666666667e+01 9.322668088532e+04 1.000000000000e+00 0.000000000000e+00 
5.000000000000e+01 9.319500000000e+04 1.000000000000e+00 0.000000000000e+00 
 ZONE T="TIME=4.320000000000e+04"
0.000000000000e+00 9.810000000000e+04 1.000000000000e+00 0.000000000000e+00 
3.333333333333e-01 9.807040210692e+04 1.000000000000e+00 0.000000000000e+00 
6.666666666667e-01 9.804006706482e+04 1.000000000000e+00 0.000000000000e+00 
1.000000000000e+00 9.800951661211e+04 1.000000000000e+00 0.000000000000e+00 
1.333333333333e+00 9.797890321183e+04 1.000000000000e+00 0.000000000000e+00 
1.666666666667e+00 9.794827141694e+04 1.000000000000e+00 0.000000000000e+00 
2.000000000000e+00 9.791763424676e+04 1.000000000000e+00 0.000000000000e+00 
2.333333333333e+00 9.788699550579e+04 1.000000000000e+00 0.000000000000e+00 
2.666666666667e+00 9.785635630581e+04 1.000000000000e+00 0.000000000000e+00 
3.000000000000e+00 9.782571697170e+04 1.000000000000e+00 0.000000000000e+00 
3.333333333333e+00 9.779507759839e+04 1.000000000000e+00 0.000000000000e+00 
3.666666666667e+00 9.776443821362e+04 1.000000000000e+00 0.000000000000e+00 
4.000000000000e+00 9.773379882551e+04 1.000000000000e+00 0.000000000000e+00 
4.333333333333e+00 9.770315943642e+04 1.000000000000e+00 0.000000000000e+00 
4.666666666667e+00 9.767252004704e+04 1.000000000000e+00 0.000000000000e+00 
5.000000000000e+00 9.763432122901e+04 8.999977480000e-01 1.000022520000e-01 
5.333333333333e+00 9.758530854286e+04 8.999977480000e-01 1.000022520000e-01 
5.666666666667e+00 9.753629585671e+04 8.999977480000e-01 1.000022520000e-01 
6.000000000000e+00 9.748728317055e+04 8.999977480000e-01 1.000022520000e-01 
6.333333333333e+00 9.743827048439e+04 8.999977480000e-01 1.000022520000e-01 
6.666666666667e+00 9.738925779823e+04 8.999977480000e-01 1.000022520000e-01 
7.000000000000e+00 9.734024511207e+04 8.999977480000e-01 1.000022520000e-01 
7.333333333333e+00 9.729123242591e+04 8.999977480000e-01 1.000022520000e-01 
7.666666666667e+00 9.724221973975e+04 8.999977480000e-01 1.000022520000e-01 
8.000000000000e+00 9.719320705359e+04 8.999977480000e-01 1.000022520000e-01 
8.333333333333e+00 9.714419436743e+04 8.999977480000e-01 1.000022520000e-01 
8.666666666667e+00 9.709518168127e+04 8.999977480000e-01 1.000022520000e-01 
9.000000000000e+00 9.704616899511e+04 8.999977480000e-01 1.000022520000e-01 
9.333333333333e+00 9.699715630895e+04 8.999977480000e-01 1.000022520000e-01 
9.666666666667e+00 9.694814362279e+04 8.999977480000e-01 1.000022520000e-01 
1.000000000000e+01 9.689913093663e+04 8.999977480000e-01 1.000022520000e-01 
1.033333333333e+01 9.685011825047e+04 8.999977480000e-01 1.000022520000e-01 
1.066666666667e+01 9.681191943240e+04 1.000000000000e+00 0.000000000000e+00 
1.100000000000e+01 9.678128004291e+04 1.000000000000e+00 0.000000000000e+00 
1.133333333333e+01 9.675064065342e+04 1.000000000000e+00 0.000000000000e+00 
1.166666666667e+01 9.672000126392e+04 1.000000000000e+00 0.000000000000e+00 
1.200000000000e+01 9.668936187443e+04 1.000000000000e+00 0.000000000000e+00 
1.233333333333e+01 9.665872248494e+04 1.000000000000e+00 0.000000000000e+00 
1.266666666667e+01 9.662808309545e+04 1.000000000000e+00 0.000000000000e+00 
1.300000000000e+01 9.659744370595e+04 1.000000000000e+00 0.000000000000e+00 
1.333333333333e+01 9.656680431646e+04 1.000000000000e+00 0.000000000000e+00 
1.366666666667e+01 9.653616492697e+04 1.000000000000e+00 0.000000000000e+00 
1.400000000000e+01 9.650552553748e+04 1.000000000000e+00 0.000000000000e+00 
1.433333333333e+01 9.647488614799e+04 1.000000000000e+00 0.000000000000e+00 
1.466666666667e+01 9.644424675850e+04 1.000000000000e+00 0.000000000000e+00 
1.500000000000e+01 9.641360736901e+04 1.000000000000e+00 0.000000000000e+00 
1.533333333333e+01 9.638296797952e+04 1.000000000000e+00 0.000000000000e+00 
1.566666666667e+01 9.635232859003e+04 1.000000000000e+00 0.000000000000e+00 
1.600000000000e+01 9.632168920054e+04 1.000000000000e+00 0.000000000000e+00 
1.633333333333e+01 9.629104981105e+04 1.000000000000e+00 0.000000000000e+00 
1.666666666667e+01 9.626041042156e+04 1.000000000000e+00 0.000000000000e+00 
1.700000000000e+01 9.622977103208e+04 1.000000000000e+00 0.000000000000e+00 
1.733333333333e+01 9.619913164259e+04 1.000000000000e+00 0.000000000000e+00 
1.766666666667e+01 9.616849225311e+04 1.000000000000e+00 0.000000000000e+00 
1.800000000000e+01 9.613785286363e+04 1.000000000000e+00 0.000000000000e+00 
1.833333333333e+01 9.610721347415e+04 1.000000000000e+00 0.000000000000e+00 
1.866666666667e+01 9.607657408467e+04 1.000000000000e+00 0.000000000000e+00 
1.900000000000e+01 9.604593469519e+04 1.000000000000e+00 0.000000000000e+00 
1.933333333333e+01 9.601529530571e+04 1.000000000000e+00 0.000000000000e+00 
1.966666666667e+01 9.598465591624e+04 1.000000000000e+00 0.000000000000e+00 
2.000000000000e+01 9.595401652677e+04 1.000000000000e+00 0.000000000000e+00 
2.033333333333e+01 9.592337713730e+04 1.000000000000e+00 0.000000000000e+00 
2.066666666667e+01 9.589273774783e+04 1.000000000000e+00 0.000000000000e+00 
2.100000000000e+01 9.586209835837e+04 1.000000000000e+00 0.000000000000e+00 
2.133333333333e+01 9.583145896890e+04 1.000000000000e+00 0.000000000000e+00 
2.166666666667e+01 9.580081957945e+04 1.000000000000e+00 0.000000000000e+00 
2.200000000000e+01 9.577018018999e+04 1.000000000000e+00 0.000000000000e+00 
2.233333333333e+01 9.573954080054e+04 1.000000000000e+00 0.000000000000e+00 
2.266666666667e+01 9.570890141109e+04 1.000000000000e+00 0.000000000000e+00 
2.300000000000e+01 9.567826202164e+04 1.000000000000e+00 0.000000000000e+00 
2.333333333333e+01 9.564762263220e+04 1.000000000000e+00 0.000000000000e+00 
2.366666666667e+01 9.561698324276e+04 1.000000000000e+00 0.000000000000e+00 
2.400000000000e+01 9.558634385333e+04 1.000000000000e+00 0.000000000000e+00 
2.433333333333e+01 9.555570446390e+04 1.000000000000e+00 0.000000000000e+00 
2.466666666667e+01 9.552506507447e+04 1.000000000000e+00 0.000000000000e+00 
2.500000000000e+01 9.549442568505e+04 1.000000000000e+00 0.000000000000e+00 
2.533333333333e+01 9.546378629564e+04 1.000000000000e+00 0.000000000000e+00 
2.566666666667e+01 9.543314690623e+04 1.000000000000e+00 0.000000000000e+00 
2.600000000000e+01 9.540250751682e+04 1.000000000000e+00 0.000000000000e+00 
2.633333333333e+01 9.537186812743e+04 1.000000000000e+00 0.000000000000e+00 
2.666666666667e+01 9.534122873803e+04 1.000000000000e+00 0.000000000000e+00 
2.700000000000e+01 9.531058934865e+04 1.000000000000e+00 0.000000000000e+00 
2.733333333333e+01 9.527994995926e+04 1.000000000000e+00 0.000000000000e+00 