 TITLE = "Profiles along polylines"
 VARIABLES = "DIST" "VISCOSITY" 
 ZONE T="TIME=0.000000000000e+00"
0.000000000000e+00 8.716215077900e-04 
2.000000000000e-01 8.716215077900e-04 
4.000000000000e-01 8.716215077900e-04 
6.000000000000e-01 8.716215077900e-04 
8.000000000000e-01 8.716215077900e-04 
1.000000000000e+00 8.716215077900e-04 
1.200000000000e+00 8.716215077900e-04 
1.400000000000e+00 8.716215077900e-04 
1.600000000000e+00 8.716215077900e-04 
1.800000000000e+00 8.716215077900e-04 
2.000000000000e+00 8.716215077900e-04 
2.200000000000e+00 8.716215077900e-04 
2.400000000000e+00 8.716215077900e-04 
2.600000000000e+00 8.716215077900e-04 
2.800000000000e+00 8.716215077900e-04 
3.000000000000e+00 8.716215077900e-04 
3.200000000000e+00 8.716215077900e-04 
3.400000000000e+00 8.716215077900e-04 
3.600000000000e+00 8.716215077900e-04 
3.800000000000e+00 8.716215077900e-04 
4.000000000000e+00 8.716215077900e-04 
4.200000000000e+00 8.716215077900e-04 
4.400000000000e+00 8.716215077900e-04 
4.600000000000e+00 8.716215077900e-04 
4.800000000000e+00 8.716215077900e-04 
5.000000000000e+00 8.716215077900e-04 
5.200000000000e+00 8.716215077900e-04 
 TITLE = "Profiles along polylines"
 VARIABLES = "DIST" "VISCOSITY" 
 ZONE T="TIME=1.000000000000e+05"
0.000000000000e+00 2.273874245969e-04 
2.000000000000e-01 3.079180516976e-04 
4.000000000000e-01 3.998318897303e-04 
6.000000000000e-01 4.939130319788e-04 
8.000000000000e-01 5.810008478753e-04 
1.000000000000e+00 6.552115114994e-04 
1.200000000000e+00 7.145271845299e-04 
1.400000000000e+00 7.597350795079e-04 
1.600000000000e+00 7.930261438697e-04 
1.800000000000e+00 8.169511343075e-04 
2.000000000000e+00 8.338541247430e-04 
2.200000000000e+00 8.456555174187e-04 
2.400000000000e+00 8.538280706190e-04 
2.600000000000e+00 8.594559951036e-04 
2.800000000000e+00 8.633167523603e-04 
3.000000000000e+00 8.659582987666e-04 
3.200000000000e+00 8.677624255896e-04 
3.400000000000e+00 8.689931074430e-04 
3.600000000000e+00 8.698319135825e-04 
3.800000000000e+00 8.704032910648e-04 
4.000000000000e+00 8.707923211408e-04 
4.200000000000e+00 8.710570451799e-04 
4.400000000000e+00 8.712369259663e-04 
4.600000000000e+00 8.713585334963e-04 
4.800000000000e+00 8.714390937325e-04 
5.000000000000e+00 8.714879791053e-04 
5.200000000000e+00 8.715051962669e-04 
 ZONE T="TIME=2.000000000000e+05"
0.000000000000e+00 2.273874245969e-04 
2.000000000000e-01 2.540625833468e-04 
4.000000000000e-01 2.929043407358e-04 
6.000000000000e-01 3.419505094075e-04 
8.000000000000e-01 3.989519052151e-04 
1.000000000000e+00 4.608237016622e-04 
1.200000000000e+00 5.239215857846e-04 
1.400000000000e+00 5.846903574418e-04 
1.600000000000e+00 6.402874221718e-04 
1.800000000000e+00 6.889256539158e-04 
2.000000000000e+00 7.298868422856e-04 
2.200000000000e+00 7.633070609365e-04 
2.400000000000e+00 7.898765212470e-04 
2.600000000000e+00 8.105609603431e-04 
2.800000000000e+00 8.263948728008e-04 
3.000000000000e+00 8.383534686904e-04 
3.200000000000e+00 8.472884163124e-04 
3.400000000000e+00 8.539067774090e-04 
3.600000000000e+00 8.587751139222e-04 
3.800000000000e+00 8.623358675974e-04 
4.000000000000e+00 8.649279376854e-04 
4.200000000000e+00 8.668069353938e-04 
4.400000000000e+00 8.681627871853e-04 
4.600000000000e+00 8.691333081579e-04 
4.800000000000e+00 8.698119014105e-04 
5.000000000000e+00 8.702445281741e-04 
5.200000000000e+00 8.704018154701e-04 
 ZONE T="TIME=3.000000000000e+05"
0.000000000000e+00 2.273874245969e-04 
2.000000000000e-01 2.394649851832e-04 
4.000000000000e-01 2.581737162644e-04 
6.000000000000e-01 2.836257421605e-04 
8.000000000000e-01 3.156979529625e-04 
1.000000000000e+00 3.539673413102e-04 
1.200000000000e+00 3.975801469813e-04 
1.400000000000e+00 4.451994029403e-04 
1.600000000000e+00 4.950843878765e-04 
1.800000000000e+00 5.452896093761e-04 
2.000000000000e+00 5.939222770575e-04 
2.200000000000e+00 6.393795692736e-04 
2.400000000000e+00 6.805044755439e-04 
2.600000000000e+00 7.166371674263e-04 
2.800000000000e+00 7.475756020224e-04 
3.000000000000e+00 7.734795627094e-04 
3.200000000000e+00 7.947546457704e-04 
3.400000000000e+00 8.119434650260e-04 
3.600000000000e+00 8.256387555423e-04 
3.800000000000e+00 8.364225104446e-04 
4.000000000000e+00 8.448286762426e-04 
4.200000000000e+00 8.513238103878e-04 
4.400000000000e+00 8.562989614903e-04 
4.600000000000e+00 8.600648288630e-04 
4.800000000000e+00 8.628377245649e-04 
5.000000000000e+00 8.646885464527e-04 
5.200000000000e+00 8.653808266975e-04 
 ZONE T="TIME=4.000000000000e+05"
0.000000000000e+00 2.273874245969e-04 
2.000000000000e-01 2.333719354332e-04 
4.000000000000e-01 2.430552688732e-04 
6.000000000000e-01 2.568401352036e-04 
8.000000000000e-01 2.749881330199e-04 
1.000000000000e+00 2.976511558971e-04 
1.200000000000e+00 3.248497567875e-04 
1.400000000000e+00 3.564196431804e-04 
1.600000000000e+00 3.919561193202e-04 
1.800000000000e+00 4.307839217326e-04 
2.000000000000e+00 4.719714040973e-04 
2.200000000000e+00 5.143945521688e-04 
2.400000000000e+00 5.568408601267e-04 
2.600000000000e+00 5.981308794614e-04 
2.800000000000e+00 6.372309055892e-04 
3.000000000000e+00 6.733349530005e-04 
3.200000000000e+00 7.059049513933e-04 
3.400000000000e+00 7.346699560903e-04 
3.600000000000e+00 7.595938402617e-04 
3.800000000000e+00 7.808245851982e-04 
4.000000000000e+00 7.986373792021e-04 
4.200000000000e+00 8.133797795157e-04 
4.400000000000e+00 8.254211184570e-04 
4.600000000000e+00 8.350986070164e-04 
4.800000000000e+00 8.426314012479e-04 
5.000000000000e+00 8.479165526780e-04 
5.200000000000e+00 8.499559554689e-04 
 ZONE T="TIME=5.000000000000e+05"
0.000000000000e+00 2.273874245969e-04 
2.000000000000e-01 2.303583075523e-04 
4.000000000000e-01 2.354117678833e-04 
6.000000000000e-01 2.429261437286e-04 
8.000000000000e-01 2.532012592816e-04 
1.000000000000e+00 2.664746410399e-04 
1.200000000000e+00 2.829313339002e-04 
1.400000000000e+00 3.026989012842e-04 
1.600000000000e+00 3.258277768715e-04 
1.800000000000e+00 3.522624079021e-04 
2.000000000000e+00 3.818114742879e-04 
2.200000000000e+00 4.141264119350e-04 
2.400000000000e+00 4.486964526900e-04 
2.600000000000e+00 4.848653017321e-04 
2.800000000000e+00 5.218698153861e-04 
3.000000000000e+00 5.588957816582e-04 
3.200000000000e+00 5.951417464811e-04 
3.400000000000e+00 6.298801126198e-04 
3.600000000000e+00 6.625058895204e-04 
3.800000000000e+00 6.925667886790e-04 
4.000000000000e+00 7.197722851472e-04 
4.200000000000e+00 7.439817243203e-04 
4.400000000000e+00 7.651694617244e-04 
4.600000000000e+00 7.833512187541e-04 
4.800000000000e+00 7.984085147438e-04 
5.000000000000e+00 8.095981908660e-04 
5.200000000000e+00 8.140770923184e-04 
 ZONE T="TIME=6.000000000000e+05"
0.000000000000e+00 2.273874245969e-04 
2.000000000000e-01 2.287860997727e-04 
4.000000000000e-01 2.313190164442e-04 
6.000000000000e-01 2.352793905330e-04 
8.000000000000e-01 2.409275305986e-04 
1.000000000000e+00 2.484882281840e-04 
1.200000000000e+00 2.581545739453e-04 
1.400000000000e+00 2.700922048738e-04 
1.600000000000e+00 2.844397276221e-04 
1.800000000000e+00 3.013033141981e-04 
2.000000000000e+00 3.207454663247e-04 
2.200000000000e+00 3.427695278300e-04 
2.400000000000e+00 3.673027005339e-04 
2.600000000000e+00 3.941810570559e-04 
2.800000000000e+00 4.231402262562e-04 
3.000000000000e+00 4.538149128391e-04 
3.200000000000e+00 4.857491542922e-04 
3.400000000000e+00 5.184173634680e-04 
3.600000000000e+00 5.512541088448e-04 
3.800000000000e+00 5.836886739233e-04 
4.000000000000e+00 6.151788818264e-04 
4.200000000000e+00 6.452366742271e-04 
4.400000000000e+00 6.734317657365e-04 
4.600000000000e+00 6.993360054245e-04 
4.800000000000e+00 7.222829342360e-04 
5.000000000000e+00 7.405009152939e-04 
5.200000000000e+00 7.481166021765e-04 
 ZONE T="TIME=7.000000000000e+05"
0.000000000000e+00 2.273874245969e-04 
2.000000000000e-01 2.279841837992e-04 
4.000000000000e-01 2.291525852541e-04 
6.000000000000e-01 2.310928547959e-04 
8.000000000000e-01 2.340022592496e-04 
1.000000000000e+00 2.380659023146e-04 
1.200000000000e+00 2.434524871138e-04 
1.400000000000e+00 2.503138524231e-04 
1.600000000000e+00 2.587863061278e-04 
1.800000000000e+00 2.689918080124e-04 
2.000000000000e+00 2.810375267187e-04 
2.200000000000e+00 2.950129232022e-04 
2.400000000000e+00 3.109841430681e-04 
2.600000000000e+00 3.289860756460e-04 
2.800000000000e+00 3.490129391544e-04 
3.000000000000e+00 3.710086568251e-04 
3.200000000000e+00 3.948585553585e-04 
3.400000000000e+00 4.203839803289e-04 
3.600000000000e+00 4.473412078770e-04 
3.800000000000e+00 4.754254445827e-04 
4.000000000000e+00 5.042795177573e-04 
4.200000000000e+00 5.335041284590e-04 
4.400000000000e+00 5.626582194209e-04 
4.600000000000e+00 5.912068570477e-04 
4.800000000000e+00 6.182466920377e-04 
5.000000000000e+00 6.413071704127e-04 
5.200000000000e+00 6.514296537853e-04 
 ZONE T="TIME=8.000000000000e+05"
0.000000000000e+00 2.273874245969e-04 
2.000000000000e-01 2.276097990783e-04 
4.000000000000e-01 2.280878939776e-04 
6.000000000000e-01 2.289402470810e-04 
8.000000000000e-01 2.302964832948e-04 
1.000000000000e+00 2.322901193056e-04 
1.200000000000e+00 2.350525468157e-04 
1.400000000000e+00 2.387089650727e-04 
1.600000000000e+00 2.433763243206e-04 
1.800000000000e+00 2.491628216738e-04 
2.000000000000e+00 2.561682336263e-04 
2.200000000000e+00 2.644843363283e-04 
2.400000000000e+00 2.741947767642e-04 
2.600000000000e+00 2.853739435620e-04 
2.800000000000e+00 2.980845987107e-04 
3.000000000000e+00 3.123742466231e-04 
3.200000000000e+00 3.282704230128e-04 
3.400000000000e+00 3.457752732379e-04 
3.600000000000e+00 3.648599388007e-04 
3.800000000000e+00 3.854593292486e-04 
4.000000000000e+00 4.074676522696e-04 
4.200000000000e+00 4.307339188030e-04 
4.400000000000e+00 4.550514052510e-04 
4.600000000000e+00 4.801103305552e-04 
4.800000000000e+00 5.052582907188e-04 
5.000000000000e+00 5.282550282848e-04 
5.200000000000e+00 5.388613997432e-04 
 ZONE T="TIME=9.000000000000e+05"
0.000000000000e+00 2.273874245969e-04 
2.000000000000e-01 2.274585315445e-04 
4.000000000000e-01 2.276283250144e-04 
6.000000000000e-01 2.279561377979e-04 
8.000000000000e-01 2.285140064512e-04 
1.000000000000e+00 2.293838038658e-04 
1.200000000000e+00 2.306536754235e-04 
1.400000000000e+00 2.324144400619e-04 
1.600000000000e+00 2.347564979386e-04 
1.800000000000e+00 2.377675604409e-04 
2.000000000000e+00 2.415312741374e-04 
2.200000000000e+00 2.461266122502e-04 
2.400000000000e+00 2.516277838521e-04 
2.600000000000e+00 2.581043614723e-04 
2.800000000000e+00 2.656213357131e-04 
3.000000000000e+00 2.742388509104e-04 
3.200000000000e+00 2.840114420768e-04 
3.400000000000e+00 2.949866685021e-04 
3.600000000000e+00 3.072031139745e-04 
3.800000000000e+00 3.206877810709e-04 
4.000000000000e+00 3.354528862931e-04 
4.200000000000e+00 3.514916768374e-04 
4.400000000000e+00 3.687706185100e-04 
4.600000000000e+00 3.872021602718e-04 
4.800000000000e+00 4.064989509026e-04 
5.000000000000e+00 4.252283220534e-04 
5.200000000000e+00 4.342485086027e-04 
 ZONE T="TIME=1.000000000000e+06"
0.000000000000e+00 2.273874245969e-04 
2.000000000000e-01 2.274071696720e-04 
4.000000000000e-01 2.274596856866e-04 
6.000000000000e-01 2.275699032561e-04 
8.000000000000e-01 2.277713642491e-04 
1.000000000000e+00 2.281061003969e-04 
1.200000000000e+00 2.286237659344e-04 
1.400000000000e+00 2.293801734527e-04 
1.600000000000e+00 2.304354750629e-04 
1.800000000000e+00 2.318522600799e-04 
2.000000000000e+00 2.336938092175e-04 
2.200000000000e+00 2.360226728587e-04 
2.400000000000e+00 2.388996521762e-04 
2.600000000000e+00 2.423831784462e-04 
2.800000000000e+00 2.465290215672e-04 
3.000000000000e+00 2.513902187359e-04 
3.200000000000e+00 2.570170972096e-04 
3.400000000000e+00 2.634572662898e-04 
3.600000000000e+00 2.707554667864e-04 
3.800000000000e+00 2.789531826657e-04 
4.000000000000e+00 2.880879178593e-04 
4.200000000000e+00 2.981919252214e-04 
4.400000000000e+00 3.092893861970e-04 
4.600000000000e+00 3.213857270998e-04 
4.800000000000e+00 3.344012904048e-04 
5.000000000000e+00 3.476153275637e-04 
5.200000000000e+00 3.541866854327e-04 
 ZONE T="TIME=1.100000000000e+06"
0.000000000000e+00 2.273874245969e-04 
2.000000000000e-01 2.273923611044e-04 
4.000000000000e-01 2.274068889007e-04 
6.000000000000e-01 2.274399675653e-04 
8.000000000000e-01 2.275048934435e-04 
1.000000000000e+00 2.276199455106e-04 
1.200000000000e+00 2.278087251416e-04 
1.400000000000e+00 2.281001315062e-04 
1.600000000000e+00 2.285279708233e-04 
1.800000000000e+00 2.291302524415e-04 
2.000000000000e+00 2.299482659129e-04 
2.200000000000e+00 2.310255538109e-04 
2.400000000000e+00 2.324068937025e-04 
2.600000000000e+00 2.341373832538e-04 
2.800000000000e+00 2.362616917605e-04 
3.000000000000e+00 2.388235069404e-04 
3.200000000000e+00 2.418651738326e-04 
3.400000000000e+00 2.454274970926e-04 
3.600000000000e+00 2.495496603431e-04 
3.800000000000e+00 2.542692054254e-04 
4.000000000000e+00 2.596220041540e-04 
4.200000000000e+00 2.656421158097e-04 
4.400000000000e+00 2.723611706867e-04 
4.600000000000e+00 2.798050055642e-04 
4.800000000000e+00 2.879673556653e-04 
5.000000000000e+00 2.965246958770e-04 
5.200000000000e+00 3.008691634965e-04 
 ZONE T="TIME=1.200000000000e+06"
0.000000000000e+00 2.273874245969e-04 
2.000000000000e-01 2.273885835654e-04 
4.000000000000e-01 2.273923085861e-04 
6.000000000000e-01 2.274014500550e-04 
8.000000000000e-01 2.274206414636e-04 
1.000000000000e+00 2.274568206325e-04 
1.200000000000e+00 2.275197092248e-04 
1.400000000000e+00 2.276221928223e-04 
1.600000000000e+00 2.277805525851e-04 
1.800000000000e+00 2.280145167029e-04 
2.000000000000e+00 2.283471222531e-04 
2.200000000000e+00 2.288044014320e-04 
2.400000000000e+00 2.294149262302e-04 
2.600000000000e+00 2.302092592924e-04 
2.800000000000e+00 2.312193643372e-04 
3.000000000000e+00 2.324780272507e-04 
3.200000000000e+00 2.340183303083e-04 
3.400000000000e+00 2.358732092294e-04 
3.600000000000e+00 2.380751083602e-04 
3.800000000000e+00 2.406557350655e-04 
4.000000000000e+00 2.436459004956e-04 
4.200000000000e+00 2.470754126536e-04 
4.400000000000e+00 2.509728991508e-04 
4.600000000000e+00 2.553647364688e-04 
4.800000000000e+00 2.602645106004e-04 
5.000000000000e+00 2.655283786800e-04 
5.200000000000e+00 2.682353226456e-04 
 ZONE T="TIME=1.300000000000e+06"
0.000000000000e+00 2.273874245969e-04 
2.000000000000e-01 2.273876888614e-04 
4.000000000000e-01 2.273886024581e-04 
6.000000000000e-01 2.273909973506e-04 
8.000000000000e-01 2.273963422413e-04 
1.000000000000e+00 2.274070131411e-04 
1.200000000000e+00 2.274265950626e-04 
1.400000000000e+00 2.274601925315e-04 
1.600000000000e+00 2.275147219074e-04 
1.800000000000e+00 2.275991572925e-04 
2.000000000000e+00 2.277247045175e-04 
2.200000000000e+00 2.279048840402e-04 
2.400000000000e+00 2.281555126196e-04 
2.600000000000e+00 2.284945839304e-04 
2.800000000000e+00 2.289420582921e-04 
3.000000000000e+00 2.295195799618e-04 
3.200000000000e+00 2.302501459509e-04 
3.400000000000e+00 2.311577525813e-04 
3.600000000000e+00 2.322670450470e-04 
3.800000000000e+00 2.336029915409e-04 
4.000000000000e+00 2.351905974511e-04 
4.200000000000e+00 2.370546649976e-04 
4.400000000000e+00 2.392195692815e-04 
4.600000000000e+00 2.417087437296e-04 
4.800000000000e+00 2.445399464014e-04 
5.000000000000e+00 2.476470409936e-04 
5.200000000000e+00 2.492593859640e-04 
 ZONE T="TIME=1.400000000000e+06"
0.000000000000e+00 2.273874245969e-04 
2.000000000000e-01 2.273874843890e-04 
4.000000000000e-01 2.273877035537e-04 
6.000000000000e-01 2.273883114417e-04 
8.000000000000e-01 2.273897436883e-04 
1.000000000000e+00 2.273927555740e-04 
1.200000000000e+00 2.273985648914e-04 
1.400000000000e+00 2.274090206768e-04 
1.600000000000e+00 2.274267903450e-04 
1.800000000000e+00 2.274555543159e-04 
2.000000000000e+00 2.275001946984e-04 
2.200000000000e+00 2.275669634661e-04 
2.400000000000e+00 2.276636160733e-04 
2.600000000000e+00 2.277994986318e-04 
2.800000000000e+00 2.279855803551e-04 
3.000000000000e+00 2.282344275324e-04 
3.200000000000e+00 2.285601202195e-04 
3.400000000000e+00 2.289781175172e-04 
3.600000000000e+00 2.295050811831e-04 
3.800000000000e+00 2.301586699662e-04 
4.000000000000e+00 2.309573181236e-04 
4.200000000000e+00 2.319200102052e-04 
4.400000000000e+00 2.330660525599e-04 
4.600000000000e+00 2.344147222565e-04 
4.800000000000e+00 2.359827966548e-04 
5.000000000000e+00 2.377395741419e-04 
5.200000000000e+00 2.386583826660e-04 
 ZONE T="TIME=1.500000000000e+06"
0.000000000000e+00 2.273874245969e-04 
2.000000000000e-01 2.273874381765e-04 
4.000000000000e-01 2.273874903147e-04 
6.000000000000e-01 2.273876419807e-04 
8.000000000000e-01 2.273880166415e-04 
1.000000000000e+00 2.273888419263e-04 
1.200000000000e+00 2.273905072908e-04 
1.400000000000e+00 2.273936391343e-04 
1.600000000000e+00 2.273991933819e-04 
1.800000000000e+00 2.274085637841e-04 
2.000000000000e+00 2.274237022845e-04 
2.200000000000e+00 2.274472460082e-04 
2.400000000000e+00 2.274826439664e-04 
2.600000000000e+00 2.275342756733e-04 
2.800000000000e+00 2.276075536888e-04 
3.000000000000e+00 2.277090026906e-04 
3.200000000000e+00 2.278463090187e-04 
3.400000000000e+00 2.280283365900e-04 
3.600000000000e+00 2.282651074382e-04 
3.800000000000e+00 2.285677476381e-04 
4.000000000000e+00 2.289484017095e-04 
4.200000000000e+00 2.294201202115e-04 
4.400000000000e+00 2.299967226209e-04 
4.600000000000e+00 2.306925816326e-04 
4.800000000000e+00 2.315212127133e-04 
5.000000000000e+00 2.324689978878e-04 
5.200000000000e+00 2.329685405445e-04 
 ZONE T="TIME=1.600000000000e+06"
0.000000000000e+00 2.273874245969e-04 
2.000000000000e-01 2.273874277084e-04 
4.000000000000e-01 2.273874401027e-04 
6.000000000000e-01 2.273874776259e-04 
8.000000000000e-01 2.273875742029e-04 
1.000000000000e+00 2.273877958671e-04 
1.200000000000e+00 2.273882617385e-04 
1.400000000000e+00 2.273891735754e-04 
1.600000000000e+00 2.273908552605e-04 
1.800000000000e+00 2.273938030785e-04 
2.000000000000e+00 2.273987469160e-04 
2.200000000000e+00 2.274067216181e-04 
2.400000000000e+00 2.274191467380e-04 
2.600000000000e+00 2.274379119304e-04 
2.800000000000e+00 2.274654643625e-04 
3.000000000000e+00 2.275048938675e-04 
3.200000000000e+00 2.275600112207e-04 
3.400000000000e+00 2.276354149490e-04 
3.600000000000e+00 2.277365424978e-04 
3.800000000000e+00 2.278697023530e-04 
4.000000000000e+00 2.280420847795e-04 
4.200000000000e+00 2.282617499550e-04 
4.400000000000e+00 2.285375918086e-04 
4.600000000000e+00 2.288792465763e-04 
4.800000000000e+00 2.292962913364e-04 
5.000000000000e+00 2.297832760930e-04 
5.200000000000e+00 2.300419653896e-04 
 ZONE T="TIME=1.700000000000e+06"
0.000000000000e+00 2.273874245969e-04 
2.000000000000e-01 2.273874253173e-04 
4.000000000000e-01 2.273874282725e-04 
6.000000000000e-01 2.273874375251e-04 
8.000000000000e-01 2.273874622004e-04 
1.000000000000e+00 2.273875209317e-04 
1.200000000000e+00 2.273876489566e-04 
1.400000000000e+00 2.273879087968e-04 
1.600000000000e+00 2.273884055115e-04 
1.800000000000e+00 2.273893074894e-04 
2.000000000000e+00 2.273908736047e-04 
2.200000000000e+00 2.273934873069e-04 
2.400000000000e+00 2.273976978362e-04 
2.600000000000e+00 2.274042682846e-04 
2.800000000000e+00 2.274142296797e-04 
3.000000000000e+00 2.274289397070e-04 
3.200000000000e+00 2.274501441518e-04 
3.400000000000e+00 2.274800386902e-04 
3.600000000000e+00 2.275213283425e-04 
3.800000000000e+00 2.275772817524e-04 
4.000000000000e+00 2.276517775060e-04 
4.200000000000e+00 2.277493398940e-04 
4.400000000000e+00 2.278751610508e-04 
4.600000000000e+00 2.280350893587e-04 
4.800000000000e+00 2.282352021781e-04 
5.000000000000e+00 2.284736668307e-04 
5.200000000000e+00 2.286013344158e-04 
 ZONE T="TIME=1.800000000000e+06"
0.000000000000e+00 2.273874245969e-04 
2.000000000000e-01 2.273874247654e-04 
4.000000000000e-01 2.273874254733e-04 
6.000000000000e-01 2.273874277535e-04 
8.000000000000e-01 2.273874340249e-04 
1.000000000000e+00 2.273874494393e-04 
1.200000000000e+00 2.273874841590e-04 
1.400000000000e+00 2.273875569841e-04 
1.600000000000e+00 2.273877008406e-04 
1.800000000000e+00 2.273879707044e-04 
2.000000000000e+00 2.273884545758e-04 
2.200000000000e+00 2.273892881097e-04 
2.400000000000e+00 2.273906734337e-04 
2.600000000000e+00 2.273929025601e-04 
2.800000000000e+00 2.273963855940e-04 
3.000000000000e+00 2.274016836886e-04 
3.200000000000e+00 2.274095463943e-04 
3.400000000000e+00 2.274209527206e-04 
3.600000000000e+00 2.274371549015e-04 
3.800000000000e+00 2.274597235517e-04 
4.000000000000e+00 2.274905926465e-04 
4.200000000000e+00 2.275321025608e-04 
4.400000000000e+00 2.275870388155e-04 
4.600000000000e+00 2.276586539233e-04 
4.800000000000e+00 2.277504581315e-04 
5.000000000000e+00 2.278620220742e-04 
5.200000000000e+00 2.279222069708e-04 
 ZONE T="TIME=1.900000000000e+06"
0.000000000000e+00 2.273874245969e-04 
2.000000000000e-01 2.273874246367e-04 
4.000000000000e-01 2.273874248071e-04 
6.000000000000e-01 2.273874253695e-04 
8.000000000000e-01 2.273874269585e-04 
1.000000000000e+00 2.273874309771e-04 
1.200000000000e+00 2.273874402986e-04 
1.400000000000e+00 2.273874604434e-04 
1.600000000000e+00 2.273875014495e-04 
1.800000000000e+00 2.273875807138e-04 
2.000000000000e+00 2.273877271316e-04 
2.200000000000e+00 2.273879869056e-04 
2.400000000000e+00 2.273884314179e-04 
2.600000000000e+00 2.273891675596e-04 
2.800000000000e+00 2.273903508812e-04 
3.000000000000e+00 2.273922018570e-04 
3.200000000000e+00 2.273950254554e-04 
3.400000000000e+00 2.273992340641e-04 
3.600000000000e+00 2.274053736485e-04 
3.800000000000e+00 2.274141528303e-04 
4.000000000000e+00 2.274264743653e-04 
4.200000000000e+00 2.274434682865e-04 
4.400000000000e+00 2.274665255020e-04 
4.600000000000e+00 2.274973246411e-04 
4.800000000000e+00 2.275377381916e-04 
5.000000000000e+00 2.275877776372e-04 
5.200000000000e+00 2.276149694341e-04 
 ZONE T="TIME=2.000000000000e+06"
0.000000000000e+00 2.273874245969e-04 
2.000000000000e-01 2.273874246064e-04 
4.000000000000e-01 2.273874246476e-04 
6.000000000000e-01 2.273874247865e-04 
8.000000000000e-01 2.273874251885e-04 
1.000000000000e+00 2.273874262310e-04 
1.200000000000e+00 2.273874287143e-04 
1.400000000000e+00 2.273874342284e-04 
1.600000000000e+00 2.273874457657e-04 
1.800000000000e+00 2.273874686918e-04 
2.000000000000e+00 2.273875122263e-04 
2.200000000000e+00 2.273875916157e-04 
2.400000000000e+00 2.273877312158e-04 
2.600000000000e+00 2.273879687267e-04 
2.800000000000e+00 2.273883608418e-04 
3.000000000000e+00 2.273889905772e-04 
3.200000000000e+00 2.273899765339e-04 
3.400000000000e+00 2.273914843119e-04 
3.600000000000e+00 2.273937402404e-04 
3.800000000000e+00 2.273970475119e-04 
4.000000000000e+00 2.274018047073e-04 
4.200000000000e+00 2.274085265785e-04 
4.400000000000e+00 2.274178666596e-04 
4.600000000000e+00 2.274306379756e-04 
4.800000000000e+00 2.274477744328e-04 
5.000000000000e+00 2.274693721212e-04 
5.200000000000e+00 2.274811894296e-04 
 ZONE T="TIME=2.100000000000e+06"
0.000000000000e+00 2.273874245969e-04 
2.000000000000e-01 2.273874245992e-04 
4.000000000000e-01 2.273874246092e-04 
6.000000000000e-01 2.273874246436e-04 
8.000000000000e-01 2.273874247452e-04 
1.000000000000e+00 2.273874250147e-04 
1.200000000000e+00 2.273874256722e-04 
1.400000000000e+00 2.273874271687e-04 
1.600000000000e+00 2.273874303798e-04 
1.800000000000e+00 2.273874369256e-04 
2.000000000000e+00 2.273874496777e-04 
2.200000000000e+00 2.273874735354e-04 
2.400000000000e+00 2.273875165705e-04 
2.600000000000e+00 2.273875916675e-04 
2.800000000000e+00 2.273877188014e-04 
3.000000000000e+00 2.273879281207e-04 
3.200000000000e+00 2.273882640093e-04 
3.400000000000e+00 2.273887903143e-04 
3.600000000000e+00 2.273895969167e-04 
3.800000000000e+00 2.273908078107e-04 
4.000000000000e+00 2.273925908271e-04 
4.200000000000e+00 2.273951690886e-04 
4.400000000000e+00 2.273988341369e-04 
4.600000000000e+00 2.274039589648e-04 
4.800000000000e+00 2.274109834730e-04 
5.000000000000e+00 2.274199862375e-04 
5.200000000000e+00 2.274249440256e-04 
 ZONE T="TIME=2.200000000000e+06"
0.000000000000e+00 2.273874245969e-04 
2.000000000000e-01 2.273874245975e-04 
4.000000000000e-01 2.273874245999e-04 
6.000000000000e-01 2.273874246084e-04 
8.000000000000e-01 2.273874246341e-04 
1.000000000000e+00 2.273874247036e-04 
1.200000000000e+00 2.273874248768e-04 
1.400000000000e+00 2.273874252801e-04 
1.600000000000e+00 2.273874261658e-04 
1.800000000000e+00 2.273874280143e-04 
2.000000000000e+00 2.273874317021e-04 
2.200000000000e+00 2.273874387683e-04 
2.400000000000e+00 2.273874518223e-04 
2.600000000000e+00 2.273874751504e-04 
2.800000000000e+00 2.273875155891e-04 
3.000000000000e+00 2.273875837518e-04 
3.200000000000e+00 2.273876957083e-04 
3.400000000000e+00 2.273878752271e-04 
3.600000000000e+00 2.273881567066e-04 
3.800000000000e+00 2.273885889205e-04 
4.000000000000e+00 2.273892397106e-04 
4.200000000000e+00 2.273902017436e-04 
4.400000000000e+00 2.273915993925e-04 
4.600000000000e+00 2.273935959694e-04 
4.800000000000e+00 2.273963887539e-04 
5.000000000000e+00 2.274000250388e-04 
5.200000000000e+00 2.274020396395e-04 
 ZONE T="TIME=2.300000000000e+06"
0.000000000000e+00 2.273874245969e-04 
2.000000000000e-01 2.273874245970e-04 
4.000000000000e-01 2.273874245976e-04 
6.000000000000e-01 2.273874245998e-04 
8.000000000000e-01 2.273874246062e-04 
1.000000000000e+00 2.273874246241e-04 
1.200000000000e+00 2.273874246696e-04 
1.400000000000e+00 2.273874247777e-04 
1.600000000000e+00 2.273874250201e-04 
1.800000000000e+00 2.273874255372e-04 
2.000000000000e+00 2.273874265920e-04 
2.200000000000e+00 2.273874286586e-04 
2.400000000000e+00 2.273874325628e-04 
2.600000000000e+00 2.273874396976e-04 
2.800000000000e+00 2.273874523447e-04 
3.000000000000e+00 2.273874741413e-04 
3.200000000000e+00 2.273875107405e-04 
3.400000000000e+00 2.273875707256e-04 
3.600000000000e+00 2.273876668444e-04 
3.800000000000e+00 2.273878176438e-04 
4.000000000000e+00 2.273880495902e-04 
4.200000000000e+00 2.273883997650e-04 
4.400000000000e+00 2.273889192039e-04 
4.600000000000e+00 2.273896765664e-04 
4.800000000000e+00 2.273907566359e-04 
5.000000000000e+00 2.273921840198e-04 
5.200000000000e+00 2.273929792971e-04 
 ZONE T="TIME=2.400000000000e+06"
0.000000000000e+00 2.273874245969e-04 
2.000000000000e-01 2.273874245969e-04 
4.000000000000e-01 2.273874245971e-04 
6.000000000000e-01 2.273874245976e-04 
8.000000000000e-01 2.273874245993e-04 
1.000000000000e+00 2.273874246039e-04 
1.200000000000e+00 2.273874246157e-04 
1.400000000000e+00 2.273874246446e-04 
1.600000000000e+00 2.273874247105e-04 
1.800000000000e+00 2.273874248540e-04 
2.000000000000e+00 2.273874251528e-04 
2.200000000000e+00 2.273874257506e-04 
2.400000000000e+00 2.273874269038e-04 
2.600000000000e+00 2.273874290563e-04 
2.800000000000e+00 2.273874329528e-04 
3.000000000000e+00 2.273874398109e-04 
3.200000000000e+00 2.273874515699e-04 
3.400000000000e+00 2.273874712476e-04 
3.600000000000e+00 2.273875034370e-04 
3.800000000000e+00 2.273875549844e-04 
4.000000000000e+00 2.273876358978e-04 
4.200000000000e+00 2.273877605391e-04 
4.400000000000e+00 2.273879491479e-04 
4.600000000000e+00 2.273882295795e-04 
4.800000000000e+00 2.273886369353e-04 
5.000000000000e+00 2.273891828985e-04 
5.200000000000e+00 2.273894886912e-04 
 ZONE T="TIME=2.500000000000e+06"
0.000000000000e+00 2.273874245969e-04 
2.000000000000e-01 2.273874245969e-04 
4.000000000000e-01 2.273874245970e-04 
6.000000000000e-01 2.273874245971e-04 
8.000000000000e-01 2.273874245975e-04 
1.000000000000e+00 2.273874245987e-04 
1.200000000000e+00 2.273874246018e-04 
1.400000000000e+00 2.273874246094e-04 
1.600000000000e+00 2.273874246273e-04 
1.800000000000e+00 2.273874246668e-04 
2.000000000000e+00 2.273874247508e-04 
2.200000000000e+00 2.273874249220e-04 
2.400000000000e+00 2.273874252590e-04 
2.600000000000e+00 2.273874259005e-04 
2.800000000000e+00 2.273874270851e-04 
3.000000000000e+00 2.273874292119e-04 
3.200000000000e+00 2.273874329318e-04 
3.400000000000e+00 2.273874392810e-04 
3.600000000000e+00 2.273874498736e-04 
3.800000000000e+00 2.273874671713e-04 
4.000000000000e+00 2.273874948557e-04 
4.200000000000e+00 2.273875383306e-04 
4.400000000000e+00 2.273876053839e-04 
4.600000000000e+00 2.273877069657e-04 
4.800000000000e+00 2.273878571363e-04 
5.000000000000e+00 2.273880610893e-04 
5.200000000000e+00 2.273881758864e-04 
 ZONE T="TIME=2.600000000000e+06"
0.000000000000e+00 2.273874245969e-04 
2.000000000000e-01 2.273874245969e-04 
4.000000000000e-01 2.273874245969e-04 
6.000000000000e-01 2.273874245970e-04 
8.000000000000e-01 2.273874245971e-04 
1.000000000000e+00 2.273874245974e-04 
1.200000000000e+00 2.273874245982e-04 
1.400000000000e+00 2.273874246002e-04 
1.600000000000e+00 2.273874246050e-04 
1.800000000000e+00 2.273874246158e-04 
2.000000000000e+00 2.273874246392e-04 
2.200000000000e+00 2.273874246879e-04 
2.400000000000e+00 2.273874247854e-04 
2.600000000000e+00 2.273874249745e-04 
2.800000000000e+00 2.273874253304e-04 
3.000000000000e+00 2.273874259815e-04 
3.200000000000e+00 2.273874271419e-04 
3.400000000000e+00 2.273874291603e-04 
3.600000000000e+00 2.273874325912e-04 
3.800000000000e+00 2.273874382995e-04 
4.000000000000e+00 2.273874476066e-04 
4.200000000000e+00 2.273874624941e-04 
4.400000000000e+00 2.273874858790e-04 
4.600000000000e+00 2.273875219466e-04 
4.800000000000e+00 2.273875761654e-04 
5.000000000000e+00 2.273876507292e-04 
5.200000000000e+00 2.273876928920e-04 
 ZONE T="TIME=2.700000000000e+06"
0.000000000000e+00 2.273874245969e-04 
2.000000000000e-01 2.273874245969e-04 
4.000000000000e-01 2.273874245969e-04 
6.000000000000e-01 2.273874245969e-04 
8.000000000000e-01 2.273874245969e-04 
1.000000000000e+00 2.273874245970e-04 
1.200000000000e+00 2.273874245972e-04 
1.400000000000e+00 2.273874245978e-04 
1.600000000000e+00 2.273874245991e-04 
1.800000000000e+00 2.273874246020e-04 
2.000000000000e+00 2.273874246085e-04 
2.200000000000e+00 2.273874246222e-04 