 TITLE = "Profiles along polylines"
 VARIABLES = "DIST" "PRESSURE1" "DENSITY1" 
 ZONE T="TIME=0.000000000000e+00"
0.000000000000e+00 1.013250000000e+05 1.000000000000e+03 
1.000000000000e-01 1.013250000000e+05 1.000000000000e+03 
2.000000000000e-01 1.013250000000e+05 1.000000000000e+03 
3.000000000000e-01 1.013250000000e+05 1.000000000000e+03 
4.000000000000e-01 1.013250000000e+05 1.000000000000e+03 
5.000000000000e-01 1.013250000000e+05 1.000000000000e+03 
6.000000000000e-01 1.013250000000e+05 1.000000000000e+03 
7.000000000000e-01 1.013250000000e+05 1.000000000000e+03 
8.000000000000e-01 1.013250000000e+05 1.000000000000e+03 
9.000000000000e-01 1.013250000000e+05 1.000000000000e+03 
1.000000000000e+00 1.013250000000e+05 1.000000000000e+03 
1.100000000000e+00 1.013250000000e+05 1.000000000000e+03 
1.200000000000e+00 1.013250000000e+05 1.000000000000e+03 
1.300000000000e+00 1.013250000000e+05 1.000000000000e+03 
1.400000000000e+00 1.013250000000e+05 1.000000000000e+03 
1.500000000000e+00 1.013250000000e+05 1.000000000000e+03 
1.600000000000e+00 1.013250000000e+05 1.000000000000e+03 
1.700000000000e+00 1.013250000000e+05 1.000000000000e+03 
1.800000000000e+00 1.013250000000e+05 1.000000000000e+03 
1.900000000000e+00 1.013250000000e+05 1.000000000000e+03 
2.000000000000e+00 1.013250000000e+05 1.000000000000e+03 
2.100000000000e+00 1.013250000000e+05 1.000000000000e+03 
2.200000000000e+00 1.013250000000e+05 1.000000000000e+03 
2.300000000000e+00 1.013250000000e+05 1.000000000000e+03 
2.400000000000e+00 1.013250000000e+05 1.000000000000e+03 
2.500000000000e+00 1.013250000000e+05 1.000000000000e+03 
2.600000000000e+00 1.013250000000e+05 1.000000000000e+03 
2.700000000000e+00 1.013250000000e+05 1.000000000000e+03 
2.800000000000e+00 1.013250000000e+05 1.000000000000e+03 
2.900000000000e+00 1.013250000000e+05 1.000000000000e+03 
3.000000000000e+00 1.013250000000e+05 1.000000000000e+03 
3.100000000000e+00 1.013250000000e+05 1.000000000000e+03 
3.200000000000e+00 1.013250000000e+05 1.000000000000e+03 
3.300000000000e+00 1.013250000000e+05 1.000000000000e+03 
3.400000000000e+00 1.013250000000e+05 1.000000000000e+03 
3.500000000000e+00 1.013250000000e+05 1.000000000000e+03 
3.600000000000e+00 1.013250000000e+05 1.000000000000e+03 
3.700000000000e+00 1.013250000000e+05 1.000000000000e+03 
3.800000000000e+00 1.013250000000e+05 1.000000000000e+03 
3.900000000000e+00 1.013250000000e+05 1.000000000000e+03 
4.000000000000e+00 1.013250000000e+05 1.000000000000e+03 
4.100000000000e+00 1.013250000000e+05 1.000000000000e+03 
4.200000000000e+00 1.013250000000e+05 1.000000000000e+03 
4.300000000000e+00 1.013250000000e+05 1.000000000000e+03 
4.400000000000e+00 1.013250000000e+05 1.000000000000e+03 
4.500000000000e+00 1.013250000000e+05 1.000000000000e+03 
4.600000000000e+00 1.013250000000e+05 1.000000000000e+03 
4.700000000000e+00 1.013250000000e+05 1.000000000000e+03 
4.800000000000e+00 1.013250000000e+05 1.000000000000e+03 
4.900000000000e+00 1.013250000000e+05 1.000000000000e+03 
5.000000000000e+00 1.013250000000e+05 1.000000000000e+03 
5.100000000000e+00 1.013250000000e+05 1.000000000000e+03 
5.200000000000e+00 1.013250000000e+05 1.000000000000e+03 
5.300000000000e+00 1.013250000000e+05 1.000000000000e+03 
5.400000000000e+00 1.013250000000e+05 1.000000000000e+03 
5.500000000000e+00 1.013250000000e+05 1.000000000000e+03 
5.600000000000e+00 1.013250000000e+05 1.000000000000e+03 
5.700000000000e+00 1.013250000000e+05 1.000000000000e+03 
5.800000000000e+00 1.013250000000e+05 1.000000000000e+03 
5.900000000000e+00 1.013250000000e+05 1.000000000000e+03 
6.000000000000e+00 1.013250000000e+05 1.000000000000e+03 
6.100000000000e+00 1.013250000000e+05 1.000000000000e+03 
6.200000000000e+00 1.013250000000e+05 1.000000000000e+03 
6.300000000000e+00 1.013250000000e+05 1.000000000000e+03 
6.400000000000e+00 1.013250000000e+05 1.000000000000e+03 
6.500000000000e+00 1.013250000000e+05 1.000000000000e+03 
6.600000000000e+00 1.013250000000e+05 1.000000000000e+03 
6.700000000000e+00 1.013250000000e+05 1.000000000000e+03 
6.800000000000e+00 1.013250000000e+05 1.000000000000e+03 
6.900000000000e+00 1.013250000000e+05 1.000000000000e+03 
7.000000000000e+00 1.013250000000e+05 1.000000000000e+03 
7.100000000000e+00 1.013250000000e+05 1.000000000000e+03 
7.200000000000e+00 1.013250000000e+05 1.000000000000e+03 
7.300000000000e+00 1.013250000000e+05 1.000000000000e+03 
7.400000000000e+00 1.013250000000e+05 1.000000000000e+03 
7.500000000000e+00 1.013250000000e+05 1.000000000000e+03 
7.600000000000e+00 1.013250000000e+05 1.000000000000e+03 
7.700000000000e+00 1.013250000000e+05 1.000000000000e+03 
7.800000000000e+00 1.013250000000e+05 1.000000000000e+03 
7.900000000000e+00 1.013250000000e+05 1.000000000000e+03 
8.000000000000e+00 1.013250000000e+05 1.000000000000e+03 
8.100000000000e+00 1.013250000000e+05 1.000000000000e+03 
8.200000000000e+00 1.013250000000e+05 1.000000000000e+03 
8.300000000000e+00 1.013250000000e+05 1.000000000000e+03 
8.400000000000e+00 1.013250000000e+05 1.000000000000e+03 
8.500000000000e+00 1.013250000000e+05 1.000000000000e+03 
8.600000000000e+00 1.013250000000e+05 1.000000000000e+03 
8.700000000000e+00 1.013250000000e+05 1.000000000000e+03 
8.800000000000e+00 1.013250000000e+05 1.000000000000e+03 
8.900000000000e+00 1.013250000000e+05 1.000000000000e+03 
9.000000000000e+00 1.013250000000e+05 1.000000000000e+03 
9.100000000000e+00 1.013250000000e+05 1.000000000000e+03 
9.200000000000e+00 1.013250000000e+05 1.000000000000e+03 
9.300000000000e+00 1.013250000000e+05 1.000000000000e+03 
9.400000000000e+00 1.013250000000e+05 1.000000000000e+03 
9.500000000000e+00 1.013250000000e+05 1.000000000000e+03 
9.600000000000e+00 1.013250000000e+05 1.000000000000e+03 
9.700000000000e+00 1.013250000000e+05 1.000000000000e+03 
9.800000000000e+00 1.013250000000e+05 1.000000000000e+03 
9.900000000000e+00 1.013250000000e+05 1.000000000000e+03 
1.000000000000e+01 1.013250000000e+05 1.000000000000e+03 
 TITLE = "Profiles along polylines"
 VARIABLES = "DIST" "PRESSURE1" "DENSITY1" 
 ZONE T="TIME=1.000000000000e+00"
0.000000000000e+00 1.013250000000e+05 1.000000000000e+03 
1.000000000000e-01 1.022516385152e+05 1.004085532593e+03 
2.000000000000e-01 1.031825588649e+05 1.008206751272e+03 
3.000000000000e-01 1.041178080944e+05 1.012364167674e+03 
4.000000000000e-01 1.050574335573e+05 1.016558301572e+03 
5.000000000000e-01 1.060014829265e+05 1.020789681059e+03 
6.000000000000e-01 1.069500042061e+05 1.025058842753e+03 
7.000000000000e-01 1.079030457429e+05 1.029366331998e+03 
8.000000000000e-01 1.088606562385e+05 1.033712703070e+03 
9.000000000000e-01 1.098228847607e+05 1.038098519390e+03 
1.000000000000e+00 1.107897807558e+05 1.042524353746e+03 
1.100000000000e+00 1.117613940607e+05 1.046990788512e+03 
1.200000000000e+00 1.127377749152e+05 1.051498415881e+03 
1.300000000000e+00 1.137189739742e+05 1.056047838097e+03 
1.400000000000e+00 1.147050423206e+05 1.060639667701e+03 
1.500000000000e+00 1.156960314778e+05 1.065274527775e+03 
1.600000000000e+00 1.166919934226e+05 1.069953052197e+03 
1.700000000000e+00 1.176929805985e+05 1.074675885903e+03 
1.800000000000e+00 1.186990459288e+05 1.079443685156e+03 
1.900000000000e+00 1.197102428300e+05 1.084257117820e+03 
2.000000000000e+00 1.207266252258e+05 1.089116863640e+03 
2.100000000000e+00 1.217482475609e+05 1.094023614538e+03 
2.200000000000e+00 1.227751648149e+05 1.098978074909e+03 
2.300000000000e+00 1.238074325168e+05 1.103980961926e+03 
2.400000000000e+00 1.248451067600e+05 1.109033005857e+03 
2.500000000000e+00 1.258882442166e+05 1.114134950389e+03 
2.600000000000e+00 1.269369021531e+05 1.119287552961e+03 
2.700000000000e+00 1.279911384453e+05 1.124491585108e+03 
2.800000000000e+00 1.290510115946e+05 1.129747832810e+03 
2.900000000000e+00 1.301165807436e+05 1.135057096860e+03 
3.000000000000e+00 1.311879056926e+05 1.140420193231e+03 
3.100000000000e+00 1.322650469165e+05 1.145837953466e+03 
3.200000000000e+00 1.333480655814e+05 1.151311225069e+03 
3.300000000000e+00 1.344370235624e+05 1.156840871915e+03 
3.400000000000e+00 1.355319834610e+05 1.162427774664e+03 
3.500000000000e+00 1.366330086233e+05 1.168072831201e+03 
3.600000000000e+00 1.377401631588e+05 1.173776957073e+03 
3.700000000000e+00 1.388535119589e+05 1.179541085948e+03 
3.800000000000e+00 1.399731207165e+05 1.185366170093e+03 
3.900000000000e+00 1.410990559456e+05 1.191253180850e+03 
4.000000000000e+00 1.422313850018e+05 1.197203109146e+03 
4.100000000000e+00 1.433701761027e+05 1.203216966008e+03 
4.200000000000e+00 1.445154983492e+05 1.209295783090e+03 
4.300000000000e+00 1.456674217472e+05 1.215440613231e+03 
4.400000000000e+00 1.468260172297e+05 1.221652531015e+03 
4.500000000000e+00 1.479913566798e+05 1.227932633358e+03 
4.600000000000e+00 1.491635129535e+05 1.234282040113e+03 
4.700000000000e+00 1.503425599043e+05 1.240701894689e+03 
4.800000000000e+00 1.515285724067e+05 1.247193364699e+03 
4.900000000000e+00 1.527216263822e+05 1.253757642617e+03 
5.000000000000e+00 1.539217988246e+05 1.260395946468e+03 
5.100000000000e+00 1.551291678261e+05 1.267109520534e+03 
5.200000000000e+00 1.563438126050e+05 1.273899636083e+03 
5.300000000000e+00 1.575658135330e+05 1.280767592129e+03 
5.400000000000e+00 1.587952521638e+05 1.287714716207e+03 
5.500000000000e+00 1.600322112625e+05 1.294742365184e+03 
5.600000000000e+00 1.612767748355e+05 1.301851926088e+03 
5.700000000000e+00 1.625290281613e+05 1.309044816977e+03 
5.800000000000e+00 1.637890578225e+05 1.316322487821e+03 
5.900000000000e+00 1.650569517381e+05 1.323686421436e+03 
6.000000000000e+00 1.663327991971e+05 1.331138134426e+03 
6.100000000000e+00 1.676166908928e+05 1.338679178181e+03 
6.200000000000e+00 1.689087189586e+05 1.346311139891e+03 
6.300000000000e+00 1.702089770037e+05 1.354035643607e+03 
6.400000000000e+00 1.715175601512e+05 1.361854351338e+03 
6.500000000000e+00 1.728345650763e+05 1.369768964182e+03 
6.600000000000e+00 1.741600900460e+05 1.377781223504e+03 
6.700000000000e+00 1.754942349598e+05 1.385892912152e+03 
6.800000000000e+00 1.768371013922e+05 1.394105855718e+03 
6.900000000000e+00 1.781887926351e+05 1.402421923848e+03 
7.000000000000e+00 1.795494137433e+05 1.410843031595e+03 
7.100000000000e+00 1.809190715797e+05 1.419371140828e+03 
7.200000000000e+00 1.822978748630e+05 1.428008261689e+03 
7.300000000000e+00 1.836859342165e+05 1.436756454106e+03 
7.400000000000e+00 1.850833622179e+05 1.445617829364e+03 
7.500000000000e+00 1.864902734518e+05 1.454594551733e+03 
7.600000000000e+00 1.879067845626e+05 1.463688840161e+03 
7.700000000000e+00 1.893330143099e+05 1.472902970032e+03 
7.800000000000e+00 1.907690836255e+05 1.482239274992e+03 
7.900000000000e+00 1.922151156718e+05 1.491700148839e+03 
8.000000000000e+00 1.936712359029e+05 1.501288047503e+03 
8.100000000000e+00 1.951375721268e+05 1.511005491085e+03 
8.200000000000e+00 1.966142545700e+05 1.520855065996e+03 
8.300000000000e+00 1.981014159449e+05 1.530839427162e+03 
8.400000000000e+00 1.995991915179e+05 1.540961300337e+03 
8.500000000000e+00 2.011077191816e+05 1.551223484497e+03 
8.600000000000e+00 2.026271395278e+05 1.561628854333e+03 
8.700000000000e+00 2.041575959242e+05 1.572180362855e+03 
8.800000000000e+00 2.056992345930e+05 1.582881044094e+03 
8.900000000000e+00 2.072522046927e+05 1.593734015921e+03 
9.000000000000e+00 2.088166584023e+05 1.604742482984e+03 
9.100000000000e+00 2.103927510084e+05 1.615909739771e+03 
9.200000000000e+00 2.119806409962e+05 1.627239173800e+03 
9.300000000000e+00 2.135804901430e+05 1.638734268949e+03 
9.400000000000e+00 2.151924636146e+05 1.650398608927e+03 
9.500000000000e+00 2.168167300667e+05 1.662235880897e+03 
9.600000000000e+00 2.184534617484e+05 1.674249879261e+03 
9.700000000000e+00 2.201028346104e+05 1.686444509609e+03 
9.800000000000e+00 2.217650284171e+05 1.698823792843e+03 
9.900000000000e+00 2.234402268624e+05 1.711391869488e+03 
1.000000000000e+01 2.251286176903e+05 1.724153004196e+03 
 ZONE T="TIME=2.000000000000e+00"
0.000000000000e+00 1.013250000000e+05 1.000000000000e+03 
1.000000000000e-01 1.023067363654e+05 1.004328983101e+03 
2.000000000000e-01 1.032927606700e+05 1.008695737111e+03 
3.000000000000e-01 1.042831110341e+05 1.013100761317e+03 
4.000000000000e-01 1.052778260583e+05 1.017544563733e+03 
5.000000000000e-01 1.062769448329e+05 1.022027661298e+03 
6.000000000000e-01 1.072805069466e+05 1.026550580071e+03 
7.000000000000e-01 1.082885524960e+05 1.031113855438e+03 
8.000000000000e-01 1.093011220951e+05 1.035718032322e+03 
9.000000000000e-01 1.103182568850e+05 1.040363665394e+03 
1.000000000000e+00 1.113399985435e+05 1.045051319303e+03 
1.100000000000e+00 1.123663892961e+05 1.049781568893e+03 
1.200000000000e+00 1.133974719254e+05 1.054554999446e+03 
1.300000000000e+00 1.144332897823e+05 1.059372206914e+03 
1.400000000000e+00 1.154738867968e+05 1.064233798173e+03 
1.500000000000e+00 1.165193074889e+05 1.069140391269e+03 
1.600000000000e+00 1.175695969799e+05 1.074092615684e+03 
1.700000000000e+00 1.186248010043e+05 1.079091112603e+03 
1.800000000000e+00 1.196849659216e+05 1.084136535187e+03 
1.900000000000e+00 1.207501387280e+05 1.089229548856e+03 
2.000000000000e+00 1.218203670695e+05 1.094370831586e+03 
2.100000000000e+00 1.228956992540e+05 1.099561074199e+03 
2.200000000000e+00 1.239761842649e+05 1.104800980679e+03 
2.300000000000e+00 1.250618717739e+05 1.110091268486e+03 
2.400000000000e+00 1.261528121548e+05 1.115432668880e+03 
2.500000000000e+00 1.272490564976e+05 1.120825927261e+03 
2.600000000000e+00 1.283506566229e+05 1.126271803510e+03 
2.700000000000e+00 1.294576650959e+05 1.131771072349e+03 
2.800000000000e+00 1.305701352422e+05 1.137324523702e+03 
2.900000000000e+00 1.316881211626e+05 1.142932963076e+03 
3.000000000000e+00 1.328116777491e+05 1.148597211947e+03 
3.100000000000e+00 1.339408607010e+05 1.154318108161e+03 
3.200000000000e+00 1.350757265414e+05 1.160096506344e+03 
3.300000000000e+00 1.362163326340e+05 1.165933278330e+03 
3.400000000000e+00 1.373627372006e+05 1.171829313593e+03 
3.500000000000e+00 1.385149993389e+05 1.177785519701e+03 
3.600000000000e+00 1.396731790409e+05 1.183802822781e+03 
3.700000000000e+00 1.408373372112e+05 1.189882167995e+03 
3.800000000000e+00 1.420075356865e+05 1.196024520036e+03 
3.900000000000e+00 1.431838372554e+05 1.202230863636e+03 
4.000000000000e+00 1.443663056781e+05 1.208502204091e+03 
4.100000000000e+00 1.455550057077e+05 1.214839567804e+03 
4.200000000000e+00 1.467500031113e+05 1.221244002841e+03 
4.300000000000e+00 1.479513646915e+05 1.227716579510e+03 
4.400000000000e+00 1.491591583092e+05 1.234258390958e+03 
4.500000000000e+00 1.503734529064e+05 1.240870553779e+03 
4.600000000000e+00 1.515943185299e+05 1.247554208656e+03 
4.700000000000e+00 1.528218263557e+05 1.254310521008e+03 
4.800000000000e+00 1.540560487136e+05 1.261140681674e+03 
4.900000000000e+00 1.552970591130e+05 1.268045907607e+03 
5.000000000000e+00 1.565449322690e+05 1.275027442596e+03 
5.100000000000e+00 1.577997441299e+05 1.282086558015e+03 
5.200000000000e+00 1.590615719044e+05 1.289224553590e+03 
5.300000000000e+00 1.603304940906e+05 1.296442758198e+03 
5.400000000000e+00 1.616065905048e+05 1.303742530692e+03 
5.500000000000e+00 1.628899423124e+05 1.311125260750e+03 
5.600000000000e+00 1.641806320585e+05 1.318592369759e+03 
5.700000000000e+00 1.654787436997e+05 1.326145311724e+03 
5.800000000000e+00 1.667843626372e+05 1.333785574214e+03 
5.900000000000e+00 1.680975757507e+05 1.341514679336e+03 
6.000000000000e+00 1.694184714327e+05 1.349334184745e+03 
6.100000000000e+00 1.707471396248e+05 1.357245684693e+03 
6.200000000000e+00 1.720836718542e+05 1.365250811107e+03 
6.300000000000e+00 1.734281612718e+05 1.373351234716e+03 
6.400000000000e+00 1.747807026913e+05 1.381548666212e+03 
6.500000000000e+00 1.761413926291e+05 1.389844857450e+03 
6.600000000000e+00 1.775103293463e+05 1.398241602701e+03 
6.700000000000e+00 1.788876128910e+05 1.406740739943e+03 
6.800000000000e+00 1.802733451424e+05 1.415344152202e+03 
6.900000000000e+00 1.816676298563e+05 1.424053768945e+03 
7.000000000000e+00 1.830705727116e+05 1.432871567520e+03 
7.100000000000e+00 1.844822813589e+05 1.441799574656e+03 
7.200000000000e+00 1.859028654699e+05 1.450839868011e+03 
7.300000000000e+00 1.873324367889e+05 1.459994577790e+03 
7.400000000000e+00 1.887711091857e+05 1.469265888418e+03 
7.500000000000e+00 1.902189987100e+05 1.478656040273e+03 
7.600000000000e+00 1.916762236484e+05 1.488167331499e+03 
7.700000000000e+00 1.931429045818e+05 1.497802119878e+03 
7.800000000000e+00 1.946191644461e+05 1.507562824779e+03 
7.900000000000e+00 1.961051285939e+05 1.517451929187e+03 
8.000000000000e+00 1.976009248591e+05 1.527471981808e+03 
8.100000000000e+00 1.991066836225e+05 1.537625599262e+03 
8.200000000000e+00 2.006225378809e+05 1.547915468363e+03 
8.300000000000e+00 2.021486233175e+05 1.558344348489e+03 
8.400000000000e+00 2.036850783751e+05 1.568915074053e+03 
8.500000000000e+00 2.052320443320e+05 1.579630557074e+03 
8.600000000000e+00 2.067896653801e+05 1.590493789849e+03 
8.700000000000e+00 2.083580887059e+05 1.601507847752e+03 
8.800000000000e+00 2.099374645745e+05 1.612675892127e+03 
8.900000000000e+00 2.115279464162e+05 1.624001173327e+03 
9.000000000000e+00 2.131296909162e+05 1.635487033864e+03 
9.100000000000e+00 2.147428581079e+05 1.647136911708e+03 
9.200000000000e+00 2.163676114694e+05 1.658954343716e+03 
9.300000000000e+00 2.180041180229e+05 1.670942969221e+03 
9.400000000000e+00 2.196525484384e+05 1.683106533772e+03 
9.500000000000e+00 2.213130771413e+05 1.695448893039e+03 
9.600000000000e+00 2.229858824231e+05 1.707974016898e+03 
9.700000000000e+00 2.246711465573e+05 1.720685993688e+03 
9.800000000000e+00 2.263690559189e+05 1.733589034673e+03 
9.900000000000e+00 2.280798011087e+05 1.746687478696e+03 
1.000000000000e+01 2.298035770822e+05 1.759985797054e+03 
 ZONE T="TIME=3.000000000000e+00"
0.000000000000e+00 1.013250000000e+05 1.000000000000e+03 
1.000000000000e-01 1.023092423297e+05 1.004340057137e+03 
2.000000000000e-01 1.032977720834e+05 1.008717979318e+03 
3.000000000000e-01 1.042906268228e+05 1.013134264577e+03 
4.000000000000e-01 1.052878446045e+05 1.017589419718e+03 
5.000000000000e-01 1.062894639883e+05 1.022083960511e+03 
6.000000000000e-01 1.072955240464e+05 1.026618411887e+03 
7.000000000000e-01 1.083060643725e+05 1.031193308148e+03 
8.000000000000e-01 1.093211250911e+05 1.035809193173e+03 
9.000000000000e-01 1.103407468671e+05 1.040466620634e+03 
1.000000000000e+00 1.113649709158e+05 1.045166154218e+03 
1.100000000000e+00 1.123938390124e+05 1.049908367858e+03 
1.200000000000e+00 1.134273935029e+05 1.054693845962e+03 
1.300000000000e+00 1.144656773139e+05 1.059523183655e+03 
1.400000000000e+00 1.155087339639e+05 1.064396987028e+03 
1.500000000000e+00 1.165566075738e+05 1.069315873389e+03 
1.600000000000e+00 1.176093428784e+05 1.074280471525e+03 
1.700000000000e+00 1.186669852380e+05 1.079291421971e+03 
1.800000000000e+00 1.197295806495e+05 1.084349377286e+03 
1.900000000000e+00 1.207971757592e+05 1.089455002333e+03 
2.000000000000e+00 1.218698178747e+05 1.094608974576e+03 
2.100000000000e+00 1.229475549774e+05 1.099811984376e+03 
2.200000000000e+00 1.240304357359e+05 1.105064735302e+03 
2.300000000000e+00 1.251185095185e+05 1.110367944448e+03 
2.400000000000e+00 1.262118264073e+05 1.115722342758e+03 
2.500000000000e+00 1.273104372118e+05 1.121128675363e+03 
2.600000000000e+00 1.284143934834e+05 1.126587701931e+03 
2.700000000000e+00 1.295237475292e+05 1.132100197015e+03 
2.800000000000e+00 1.306385524278e+05 1.137666950430e+03 
2.900000000000e+00 1.317588620440e+05 1.143288767622e+03 
3.000000000000e+00 1.328847310447e+05 1.148966470061e+03 
3.100000000000e+00 1.340162149147e+05 1.154700895642e+03 
3.200000000000e+00 1.351533699734e+05 1.160492899097e+03 
3.300000000000e+00 1.362962533915e+05 1.166343352419e+03 
3.400000000000e+00 1.374449232082e+05 1.172253145302e+03 
3.500000000000e+00 1.385994383493e+05 1.178223185592e+03 
3.600000000000e+00 1.397598586448e+05 1.184254399752e+03 
3.700000000000e+00 1.409262448481e+05 1.190347733344e+03 
3.800000000000e+00 1.420986586547e+05 1.196504151521e+03 
3.900000000000e+00 1.432771627221e+05 1.202724639538e+03 
4.000000000000e+00 1.444618206899e+05 1.209010203281e+03 
4.100000000000e+00 1.456526972002e+05 1.215361869807e+03 
4.200000000000e+00 1.468498579191e+05 1.221780687906e+03 
4.300000000000e+00 1.480533695584e+05 1.228267728677e+03 
4.400000000000e+00 1.492632998980e+05 1.234824086127e+03 
4.500000000000e+00 1.504797178087e+05 1.241450877787e+03 
4.600000000000e+00 1.517026932758e+05 1.248149245345e+03 
4.700000000000e+00 1.529322974236e+05 1.254920355308e+03 
4.800000000000e+00 1.541686025399e+05 1.261765399673e+03 
4.900000000000e+00 1.554116821016e+05 1.268685596636e+03 
5.000000000000e+00 1.566616108014e+05 1.275682191307e+03 
5.100000000000e+00 1.579184645742e+05 1.282756456465e+03 
5.200000000000e+00 1.591823206253e+05 1.289909693328e+03 
5.300000000000e+00 1.604532574585e+05 1.297143232354e+03 
5.400000000000e+00 1.617313549059e+05 1.304458434063e+03 
5.500000000000e+00 1.630166941578e+05 1.311856689897e+03 
5.600000000000e+00 1.643093577935e+05 1.319339423099e+03 
5.700000000000e+00 1.656094298139e+05 1.326908089631e+03 
5.800000000000e+00 1.669169956735e+05 1.334564179117e+03 
5.900000000000e+00 1.682321423147e+05 1.342309215825e+03 
6.000000000000e+00 1.695549582026e+05 1.350144759676e+03 
6.100000000000e+00 1.708855333605e+05 1.358072407299e+03 
6.200000000000e+00 1.722239594070e+05 1.366093793111e+03 
6.300000000000e+00 1.735703295937e+05 1.374210590447e+03 
6.400000000000e+00 1.749247388447e+05 1.382424512725e+03 
6.500000000000e+00 1.762872837963e+05 1.390737314652e+03 
6.600000000000e+00 1.776580628391e+05 1.399150793477e+03 
6.700000000000e+00 1.790371761600e+05 1.407666790289e+03 
6.800000000000e+00 1.804247257872e+05 1.416287191360e+03 
6.900000000000e+00 1.818208156347e+05 1.425013929546e+03 
7.000000000000e+00 1.832255515496e+05 1.433848985727e+03 
7.100000000000e+00 1.846390413603e+05 1.442794390315e+03 
7.200000000000e+00 1.860613949265e+05 1.451852224810e+03 
7.300000000000e+00 1.874927241899e+05 1.461024623415e+03 
7.400000000000e+00 1.889331432281e+05 1.470313774721e+03 
7.500000000000e+00 1.903827683088e+05 1.479721923445e+03 
7.600000000000e+00 1.918417179461e+05 1.489251372249e+03 
7.700000000000e+00 1.933101129593e+05 1.498904483616e+03 
7.800000000000e+00 1.947880765328e+05 1.508683681808e+03 
7.900000000000e+00 1.962757342782e+05 1.518591454903e+03 
8.000000000000e+00 1.977732142989e+05 1.528630356904e+03 
8.100000000000e+00 1.992806472562e+05 1.538803009944e+03 
8.200000000000e+00 2.007981664378e+05 1.549112106568e+03 
8.300000000000e+00 2.023259078291e+05 1.559560412118e+03 
8.400000000000e+00 2.038640101862e+05 1.570150767209e+03 
8.500000000000e+00 2.054126151119e+05 1.580886090311e+03 
8.600000000000e+00 2.069718671342e+05 1.591769380431e+03 
8.700000000000e+00 2.085419137872e+05 1.602803719917e+03 
8.800000000000e+00 2.101229056957e+05 1.613992277373e+03 
8.900000000000e+00 2.117149966613e+05 1.625338310695e+03 
9.000000000000e+00 2.133183437534e+05 1.636845170247e+03 
9.100000000000e+00 2.149331074017e+05 1.648516302160e+03 
9.200000000000e+00 2.165594514933e+05 1.660355251784e+03 
9.300000000000e+00 2.181975434727e+05 1.672365667284e+03 
9.400000000000e+00 2.198475544454e+05 1.684551303400e+03 
9.500000000000e+00 2.215096592856e+05 1.696916025362e+03 
9.600000000000e+00 2.231840367479e+05 1.709463812992e+03 
9.700000000000e+00 2.248708695830e+05 1.722198764985e+03 
9.800000000000e+00 2.265703446573e+05 1.735125103377e+03 
9.900000000000e+00 2.282826530784e+05 1.748247178228e+03 
1.000000000000e+01 2.300079903237e+05 1.761569472508e+03 
 ZONE T="TIME=4.000000000000e+00"
0.000000000000e+00 1.013250000000e+05 1.000000000000e+03 
1.000000000000e-01 1.023093531451e+05 1.004340546841e+03 
2.000000000000e-01 1.032979936891e+05 1.008718962884e+03 
3.000000000000e-01 1.042909591685e+05 1.013135746105e+03 
4.000000000000e-01 1.052882876148e+05 1.017591403251e+03 
5.000000000000e-01 1.062900175636e+05 1.022086450035e+03 
6.000000000000e-01 1.072961880636e+05 1.026621411337e+03 
7.000000000000e-01 1.083068386854e+05 1.031196821406e+03 
8.000000000000e-01 1.093220095313e+05 1.035813224070e+03 
9.000000000000e-01 1.103417412445e+05 1.040471172956e+03 
1.000000000000e+00 1.113660750191e+05 1.045171231705e+03 
1.100000000000e+00 1.123950526100e+05 1.049913974204e+03 
1.200000000000e+00 1.134287163431e+05 1.054699984822e+03 
1.300000000000e+00 1.144671091260e+05 1.059529858644e+03 
1.400000000000e+00 1.155102744584e+05 1.064404201722e+03 
1.500000000000e+00 1.165582564431e+05 1.069323631331e+03 
1.600000000000e+00 1.176110997976e+05 1.074288776222e+03 
1.700000000000e+00 1.186688498649e+05 1.079300276901e+03 
1.800000000000e+00 1.197315526260e+05 1.084358785897e+03 
1.900000000000e+00 1.207992547111e+05 1.089464968046e+03 
2.000000000000e+00 1.218720034127e+05 1.094619500788e+03 
2.100000000000e+00 1.229498466976e+05 1.099823074462e+03 
2.200000000000e+00 1.240328332201e+05 1.105076392615e+03 
2.300000000000e+00 1.251210123352e+05 1.110380172324e+03 
2.400000000000e+00 1.262144341118e+05 1.115735144518e+03 
2.500000000000e+00 1.273131493470e+05 1.121142054314e+03 
2.600000000000e+00 1.284172095801e+05 1.126601661369e+03 
2.700000000000e+00 1.295266671070e+05 1.132114740229e+03 
2.800000000000e+00 1.306415749952e+05 1.137682080701e+03 
2.900000000000e+00 1.317619870992e+05 1.143304488228e+03 
3.000000000000e+00 1.328879580759e+05 1.148982784280e+03 
3.100000000000e+00 1.340195434009e+05 1.154717806753e+03 
3.200000000000e+00 1.351567993846e+05 1.160510410381e+03 
3.300000000000e+00 1.362997831893e+05 1.166361467167e+03 
3.400000000000e+00 1.374485528464e+05 1.172271866812e+03 
3.500000000000e+00 1.386031672742e+05 1.178242517176e+03 
3.600000000000e+00 1.397636862959e+05 1.184274344736e+03 
3.700000000000e+00 1.409301706583e+05 1.190368295070e+03 
3.800000000000e+00 1.421026820512e+05 1.196525333354e+03 
3.900000000000e+00 1.432812831263e+05 1.202746444867e+03 
4.000000000000e+00 1.444660375184e+05 1.209032635519e+03 
4.100000000000e+00 1.456570098649e+05 1.215384932399e+03 
4.200000000000e+00 1.468542658280e+05 1.221804384327e+03 
4.300000000000e+00 1.480578721157e+05 1.228292062439e+03 
4.400000000000e+00 1.492678965047e+05 1.234849060782e+03 
4.500000000000e+00 1.504844078631e+05 1.241476496929e+03 
4.600000000000e+00 1.517074761741e+05 1.248175512613e+03 
4.700000000000e+00 1.529371725599e+05 1.254947274391e+03 
4.800000000000e+00 1.541735693069e+05 1.261792974312e+03 
4.900000000000e+00 1.554167398913e+05 1.268713830628e+03 
5.000000000000e+00 1.566667590051e+05 1.275711088509e+03 
5.100000000000e+00 1.579237025831e+05 1.282786020800e+03 
5.200000000000e+00 1.591876478309e+05 1.289939928785e+03 
5.300000000000e+00 1.604586732532e+05 1.297174142992e+03 
5.400000000000e+00 1.617368586832e+05 1.304490024020e+03 
5.500000000000e+00 1.630222853129e+05 1.311888963388e+03 
5.600000000000e+00 1.643150357237e+05 1.319372384426e+03 
5.700000000000e+00 1.656151939188e+05 1.326941743182e+03 
5.800000000000e+00 1.669228453557e+05 1.334598529376e+03 
5.900000000000e+00 1.682380769803e+05 1.342344267370e+03 
6.000000000000e+00 1.695609772611e+05 1.350180517191e+03 
6.100000000000e+00 1.708916362258e+05 1.358108875573e+03 
6.200000000000e+00 1.722301454974e+05 1.366130977047e+03 
6.300000000000e+00 1.735765983326e+05 1.374248495066e+03 
6.400000000000e+00 1.749310896609e+05 1.382463143171e+03 
6.500000000000e+00 1.762937161245e+05 1.390776676196e+03 
6.600000000000e+00 1.776645761200e+05 1.399190891526e+03 
6.700000000000e+00 1.790437698413e+05 1.407707630388e+03 
6.800000000000e+00 1.804313993235e+05 1.416328779204e+03 
6.900000000000e+00 1.818275684881e+05 1.425056270980e+03 
7.000000000000e+00 1.832323831902e+05 1.433892086755e+03 
7.100000000000e+00 1.846459512666e+05 1.442838257108e+03 
7.200000000000e+00 1.860683825855e+05 1.451896863709e+03 
7.300000000000e+00 1.874997890982e+05 1.461070040943e+03 
7.400000000000e+00 1.889402848917e+05 1.470359977586e+03 
7.500000000000e+00 1.903899862437e+05 1.479768918552e+03 
7.600000000000e+00 1.918490116790e+05 1.489299166704e+03 
7.700000000000e+00 1.933174820277e+05 1.498953084735e+03 
7.800000000000e+00 1.947955204857e+05 1.508733097127e+03 
7.900000000000e+00 1.962832526764e+05 1.518641692185e+03 
8.000000000000e+00 1.977808067155e+05 1.528681424150e+03 
8.100000000000e+00 1.992883132769e+05 1.538854915400e+03 
8.200000000000e+00 2.008059056616e+05 1.549164858737e+03 
8.300000000000e+00 2.023337198687e+05 1.559614019769e+03 
8.400000000000e+00 2.038718946684e+05 1.570205239387e+03 
8.500000000000e+00 2.054205716781e+05 1.580941436349e+03 
8.600000000000e+00 2.069798954409e+05 1.591825609960e+03 
8.700000000000e+00 2.085500135065e+05 1.602860842880e+03 
8.800000000000e+00 2.101310765158e+05 1.614050304034e+03 
8.900000000000e+00 2.117232382870e+05 1.625397251656e+03 
9.000000000000e+00 2.133266559067e+05 1.636905036456e+03 
9.100000000000e+00 2.149414898221e+05 1.648577104930e+03 
9.200000000000e+00 2.165679039386e+05 1.660417002804e+03 
9.300000000000e+00 2.182060657194e+05 1.672428378636e+03 
9.400000000000e+00 2.198561462892e+05 1.684614987571e+03 
9.500000000000e+00 2.215183205423e+05 1.696980695265e+03 
9.600000000000e+00 2.231927672536e+05 1.709529481981e+03 
9.700000000000e+00 2.248796691947e+05 1.722265446870e+03 
9.800000000000e+00 2.265792132540e+05 1.735192812447e+03 
9.900000000000e+00 2.282915905612e+05 1.748315929267e+03 
1.000000000000e+01 2.300169966165e+05 1.761639280818e+03 
 ZONE T="TIME=5.000000000000e+00"
0.000000000000e+00 1.013250000000e+05 1.000000000000e+03 
1.000000000000e-01 1.023093580323e+05 1.004340568438e+03 
2.000000000000e-01 1.032980034626e+05 1.008719006262e+03 
3.000000000000e-01 1.042909738259e+05 1.013135811445e+03 
4.000000000000e-01 1.052883071527e+05 1.017591490730e+03 