VARIABLES = "x" "y" "z" "Calcite" "nodeporosity" 
ZONE T="aktueller_zeitschritt=1", N=21, E=20 F=FEPOINT, ET=QUADRILATERAL
0.000000000000e+00 0.000000000000e+00 0.000000000000e+00 1.075124912082e+01 2.002777321589e-01
5.000000000000e-03 0.000000000000e+00 0.000000000000e+00 1.076776238214e+01 2.001835569765e-01
1.000000000000e-02 0.000000000000e+00 0.000000000000e+00 1.077867894282e+01 2.001213559061e-01
1.500000000000e-02 0.000000000000e+00 0.000000000000e+00 1.078597769037e+01 2.000797935206e-01
2.000000000000e-02 0.000000000000e+00 0.000000000000e+00 1.079094680697e+01 2.000515085109e-01
2.500000000000e-02 0.000000000000e+00 0.000000000000e+00 1.079440602955e+01 2.000318235088e-01
3.000000000000e-02 0.000000000000e+00 0.000000000000e+00 1.079685019607e+01 2.000179174652e-01
3.500000000000e-02 0.000000000000e+00 0.000000000000e+00 1.079850400256e+01 2.000085094272e-01
4.000000000000e-02 0.000000000000e+00 0.000000000000e+00 1.079943572267e+01 2.000032095844e-01
4.500000000000e-02 0.000000000000e+00 0.000000000000e+00 1.079983921090e+01 2.000009145491e-01
5.000000000000e-02 0.000000000000e+00 0.000000000000e+00 1.079996771610e+01 2.000001836262e-01
5.500000000000e-02 0.000000000000e+00 0.000000000000e+00 1.079999472526e+01 2.000000300019e-01
6.000000000000e-02 0.000000000000e+00 0.000000000000e+00 1.079999918153e+01 2.000000046553e-01
6.500000000000e-02 0.000000000000e+00 0.000000000000e+00 1.079999987455e+01 2.000000007136e-01
7.000000000000e-02 0.000000000000e+00 0.000000000000e+00 1.079999998099e+01 2.000000001081e-01
7.500000000000e-02 0.000000000000e+00 0.000000000000e+00 1.079999999720e+01 2.000000000160e-01
8.000000000000e-02 0.000000000000e+00 0.000000000000e+00 1.079999999961e+01 2.000000000022e-01
8.500000000000e-02 0.000000000000e+00 0.000000000000e+00 1.079999999996e+01 2.000000000002e-01
9.000000000000e-02 0.000000000000e+00 0.000000000000e+00 1.080000000000e+01 2.000000000000e-01
9.500000000000e-02 0.000000000000e+00 0.000000000000e+00 1.080000000000e+01 2.000000000000e-01
1.000000000000e-01 0.000000000000e+00 0.000000000000e+00 1.080000000000e+01 2.000000000000e-01
1  2  2  1
2  3  3  2
3  4  4  3
4  5  5  4
5  6  6  5
6  7  7  6
7  8  8  7
8  9  9  8
9  10  10  9
10  11  11  10
11  12  12  11
12  13  13  12
13  14  14  13
14  15  15  14
15  16  16  15
16  17  17  16
17  18  18  17
18  19  19  18
19  20  20  19
20  21  21  20
VARIABLES = "x" "y" "z" "Calcite" "nodeporosity" 
ZONE T="aktueller_zeitschritt=1000", N=21, E=20 F=FEPOINT, ET=QUADRILATERAL
0.000000000000e+00 0.000000000000e+00 0.000000000000e+00 0.000000000000e+00 2.997107011070e-01
5.000000000000e-03 0.000000000000e+00 0.000000000000e+00 0.000000000000e+00 2.997107011070e-01
1.000000000000e-02 0.000000000000e+00 0.000000000000e+00 0.000000000000e+00 2.997107011070e-01
1.500000000000e-02 0.000000000000e+00 0.000000000000e+00 2.153282357210e+00 2.702601787855e-01
2.000000000000e-02 0.000000000000e+00 0.000000000000e+00 7.132874587266e+00 2.237725026618e-01
2.500000000000e-02 0.000000000000e+00 0.000000000000e+00 9.313480853172e+00 2.088918951054e-01
3.000000000000e-02 0.000000000000e+00 0.000000000000e+00 1.020287176559e+01 2.034644517916e-01
3.500000000000e-02 0.000000000000e+00 0.000000000000e+00 1.055765250840e+01 2.013894997362e-01
4.000000000000e-02 0.000000000000e+00 0.000000000000e+00 1.069811739614e+01 2.005814380322e-01
4.500000000000e-02 0.000000000000e+00 0.000000000000e+00 1.075370836394e+01 2.002637006051e-01
5.000000000000e-02 0.000000000000e+00 0.000000000000e+00 1.077586197621e+01 2.001374023253e-01
5.500000000000e-02 0.000000000000e+00 0.000000000000e+00 1.078480746761e+01 2.000864559596e-01
6.000000000000e-02 0.000000000000e+00 0.000000000000e+00 1.078855509270e+01 2.000651213805e-01
6.500000000000e-02 0.000000000000e+00 0.000000000000e+00 1.079022454283e+01 2.000556191811e-01
7.000000000000e-02 0.000000000000e+00 0.000000000000e+00 1.079105978896e+01 2.000508655066e-01
7.500000000000e-02 0.000000000000e+00 0.000000000000e+00 1.079157552817e+01 2.000479303866e-01
8.000000000000e-02 0.000000000000e+00 0.000000000000e+00 1.079198363562e+01 2.000456078795e-01
8.500000000000e-02 0.000000000000e+00 0.000000000000e+00 1.079249616365e+01 2.000426912113e-01
9.000000000000e-02 0.000000000000e+00 0.000000000000e+00 1.079345566016e+01 2.000372312217e-01
9.500000000000e-02 0.000000000000e+00 0.000000000000e+00 1.079536723532e+01 2.000263544788e-01
1.000000000000e-01 0.000000000000e+00 0.000000000000e+00 1.079689958048e+01 2.000176365165e-01
1  2  2  1
2  3  3  2
3  4  4  3
4  5  5  4
5  6  6  5
6  7  7  6
7  8  8  7
8  9  9  8
9  10  10  9
10  11  11  10
11  12  12  11
12  13  13  12
13  14  14  13
14  15  15  14
15  16  16  15
16  17  17  16
17  18  18  17
18  19  19  18
19  20  20  19
20  21  21  20
VARIABLES = "x" "y" "z" "Calcite" "nodeporosity" 
ZONE T="aktueller_zeitschritt=2000", N=21, E=20 F=FEPOINT, ET=QUADRILATERAL
0.000000000000e+00 0.000000000000e+00 0.000000000000e+00 0.000000000000e+00 2.997107011070e-01
5.000000000000e-03 0.000000000000e+00 0.000000000000e+00 0.000000000000e+00 2.997107011070e-01
1.000000000000e-02 0.000000000000e+00 0.000000000000e+00 0.000000000000e+00 2.997107011070e-01
1.500000000000e-02 0.000000000000e+00 0.000000000000e+00 0.000000000000e+00 2.997107011070e-01
2.000000000000e-02 0.000000000000e+00 0.000000000000e+00 0.000000000000e+00 2.997107011070e-01
2.500000000000e-02 0.000000000000e+00 0.000000000000e+00 0.000000000000e+00 2.997107011070e-01
3.000000000000e-02 0.000000000000e+00 0.000000000000e+00 3.136686147658e+00 2.591835644278e-01
3.500000000000e-02 0.000000000000e+00 0.000000000000e+00 7.587384026481e+00 2.204652006649e-01
4.000000000000e-02 0.000000000000e+00 0.000000000000e+00 9.503090438954e+00 2.077066081289e-01
4.500000000000e-02 0.000000000000e+00 0.000000000000e+00 1.028007595377e+01 2.030087087147e-01
5.000000000000e-02 0.000000000000e+00 0.000000000000e+00 1.058919526685e+01 2.012073868107e-01
5.500000000000e-02 0.000000000000e+00 0.000000000000e+00 1.071139785238e+01 2.005054260309e-01
6.000000000000e-02 0.000000000000e+00 0.000000000000e+00 1.075970983846e+01 2.002294678834e-01
6.500000000000e-02 0.000000000000e+00 0.000000000000e+00 1.077889391403e+01 2.001201314775e-01
7.000000000000e-02 0.000000000000e+00 0.000000000000e+00 1.078660959204e+01 2.000761961225e-01
7.500000000000e-02 0.000000000000e+00 0.000000000000e+00 1.078982775597e+01 2.000578775237e-01
8.000000000000e-02 0.000000000000e+00 0.000000000000e+00 1.079129722122e+01 2.000495142451e-01
8.500000000000e-02 0.000000000000e+00 0.000000000000e+00 1.079222656256e+01 2.000442254311e-01
9.000000000000e-02 0.000000000000e+00 0.000000000000e+00 1.079334962210e+01 2.000378346116e-01
9.500000000000e-02 0.000000000000e+00 0.000000000000e+00 1.079532442857e+01 2.000265980316e-01
1.000000000000e-01 0.000000000000e+00 0.000000000000e+00 1.079687396775e+01 2.000177822276e-01
1  2  2  1
2  3  3  2
3  4  4  3
4  5  5  4
5  6  6  5
6  7  7  6
7  8  8  7
8  9  9  8
9  10  10  9
10  11  11  10
11  12  12  11
12  13  13  12
13  14  14  13
14  15  15  14
15  16  16  15
16  17  17  16
17  18  18  17
18  19  19  18
19  20  20  19
20  21  21  20
VARIABLES = "x" "y" "z" "Calcite" "nodeporosity" 
ZONE T="aktueller_zeitschritt=3000", N=21, E=20 F=FEPOINT, ET=QUADRILATERAL
0.000000000000e+00 0.000000000000e+00 0.000000000000e+00 0.000000000000e+00 2.997107011070e-01
5.000000000000e-03 0.000000000000e+00 0.000000000000e+00 0.000000000000e+00 2.997107011070e-01
1.000000000000e-02 0.000000000000e+00 0.000000000000e+00 0.000000000000e+00 2.997107011070e-01
1.500000000000e-02 0.000000000000e+00 0.000000000000e+00 0.000000000000e+00 2.997107011070e-01
2.000000000000e-02 0.000000000000e+00 0.000000000000e+00 0.000000000000e+00 2.997107011070e-01
2.500000000000e-02 0.000000000000e+00 0.000000000000e+00 0.000000000000e+00 2.997107011070e-01
3.000000000000e-02 0.000000000000e+00 0.000000000000e+00 0.000000000000e+00 2.997107011070e-01
3.500000000000e-02 0.000000000000e+00 0.000000000000e+00 0.000000000000e+00 2.997107011070e-01
4.000000000000e-02 0.000000000000e+00 0.000000000000e+00 0.000000000000e+00 2.997107011070e-01
4.500000000000e-02 0.000000000000e+00 0.000000000000e+00 4.809456858736e+00 2.427681544824e-01
5.000000000000e-02 0.000000000000e+00 0.000000000000e+00 8.330162643252e+00 2.153033235466e-01
5.500000000000e-02 0.000000000000e+00 0.000000000000e+00 9.807805031430e+00 2.058342974327e-01
6.000000000000e-02 0.000000000000e+00 0.000000000000e+00 1.040234932507e+01 2.022917390558e-01
6.500000000000e-02 0.000000000000e+00 0.000000000000e+00 1.063816648126e+01 2.009254033973e-01
7.000000000000e-02 0.000000000000e+00 0.000000000000e+00 1.073128336895e+01 2.003917336252e-01
7.500000000000e-02 0.000000000000e+00 0.000000000000e+00 1.076809054747e+01 2.001816864846e-01
8.000000000000e-02 0.000000000000e+00 0.000000000000e+00 1.078275893586e+01 2.000981201153e-01
8.500000000000e-02 0.000000000000e+00 0.000000000000e+00 1.078887280644e+01 2.000633129327e-01
9.000000000000e-02 0.000000000000e+00 0.000000000000e+00 1.079203050871e+01 2.000453411325e-01
9.500000000000e-02 0.000000000000e+00 0.000000000000e+00 1.079479191231e+01 2.000296278871e-01
1.000000000000e-01 0.000000000000e+00 0.000000000000e+00 1.079655533997e+01 2.000195949256e-01
1  2  2  1
2  3  3  2
3  4  4  3
4  5  5  4
5  6  6  5
6  7  7  6
7  8  8  7
8  9  9  8
9  10  10  9
10  11  11  10
11  12  12  11
12  13  13  12
13  14  14  13
14  15  15  14
15  16  16  15
16  17  17  16
17  18  18  17
18  19  19  18
19  20  20  19
20  21  21  20
