 TITLE = "Profiles along polylines"
 VARIABLES = "DIST" "HEAD" "Na" "Cl" "Ca" "C(4)" "Calcite" 
 ZONE T="TIME=0.000000000000e+00"
0.000000000000e+00 2.000000000000e+00 1.000000047265e-03 1.000000047265e-03 1.293509211910e-04 1.293509211908e-04 1.350000000000e+01 
5.000000000000e-03 2.000000000000e+00 1.000000047265e-03 1.000000047265e-03 1.293509211910e-04 1.293509211908e-04 1.350000000000e+01 
1.000000000000e-02 2.000000000000e+00 1.000000047265e-03 1.000000047265e-03 1.293509211910e-04 1.293509211908e-04 1.350000000000e+01 
1.500000000000e-02 2.000000000000e+00 1.000000047265e-03 1.000000047265e-03 1.293509211910e-04 1.293509211908e-04 1.350000000000e+01 
2.000000000000e-02 2.000000000000e+00 1.000000047265e-03 1.000000047265e-03 1.293509211910e-04 1.293509211908e-04 1.350000000000e+01 
2.500000000000e-02 2.000000000000e+00 1.000000047265e-03 1.000000047265e-03 1.293509211910e-04 1.293509211908e-04 1.350000000000e+01 
3.000000000000e-02 2.000000000000e+00 1.000000047265e-03 1.000000047265e-03 1.293509211910e-04 1.293509211908e-04 1.350000000000e+01 
3.500000000000e-02 2.000000000000e+00 1.000000047265e-03 1.000000047265e-03 1.293509211910e-04 1.293509211908e-04 1.350000000000e+01 
4.000000000000e-02 2.000000000000e+00 1.000000047265e-03 1.000000047265e-03 1.293509211910e-04 1.293509211908e-04 1.350000000000e+01 
4.500000000000e-02 2.000000000000e+00 1.000000047265e-03 1.000000047265e-03 1.293509211910e-04 1.293509211908e-04 1.350000000000e+01 
5.000000000000e-02 2.000000000000e+00 1.000000047265e-03 1.000000047265e-03 1.293509211910e-04 1.293509211908e-04 1.350000000000e+01 
5.500000000000e-02 2.000000000000e+00 1.000000047265e-03 1.000000047265e-03 1.293509211910e-04 1.293509211908e-04 1.350000000000e+01 
6.000000000000e-02 2.000000000000e+00 1.000000047265e-03 1.000000047265e-03 1.293509211910e-04 1.293509211908e-04 1.350000000000e+01 
6.500000000000e-02 2.000000000000e+00 1.000000047265e-03 1.000000047265e-03 1.293509211910e-04 1.293509211908e-04 1.350000000000e+01 
7.000000000000e-02 2.000000000000e+00 1.000000047265e-03 1.000000047265e-03 1.293509211910e-04 1.293509211908e-04 1.350000000000e+01 
7.500000000000e-02 2.000000000000e+00 1.000000047265e-03 1.000000047265e-03 1.293509211910e-04 1.293509211908e-04 1.350000000000e+01 
8.000000000000e-02 2.000000000000e+00 1.000000047265e-03 1.000000047265e-03 1.293509211910e-04 1.293509211908e-04 1.350000000000e+01 
8.500000000000e-02 2.000000000000e+00 1.000000047265e-03 1.000000047265e-03 1.293509211910e-04 1.293509211908e-04 1.350000000000e+01 
9.000000000000e-02 2.000000000000e+00 1.000000047265e-03 1.000000047265e-03 1.293509211910e-04 1.293509211908e-04 1.350000000000e+01 
9.500000000000e-02 2.000000000000e+00 1.000000047265e-03 1.000000047265e-03 1.293509211910e-04 1.293509211908e-04 1.350000000000e+01 
1.000000000000e-01 2.000000000000e+00 1.000000047265e-03 1.000000047265e-03 1.293509211910e-04 1.293509211908e-04 1.350000000000e+01 
 ZONE T="TIME=2.475000000000e+05"
0.000000000000e+00 2.000000000000e+00 1.000000000000e-03 1.000000000000e-03 0.000000000000e+00 1.000000000000e+00 0.000000000000e+00 
5.000000000000e-03 -1.295256006914e+04 9.998051022792e-04 9.998051022792e-04 1.030466940702e-02 1.010109771686e+00 0.000000000000e+00 
1.000000000000e-02 -2.590712013829e+04 9.992891006469e-04 9.992891006469e-04 3.758706461348e-02 1.036876165260e+00 1.257735520556e+00 
1.500000000000e-02 -3.886168020743e+04 9.992888156227e-04 9.992888156227e-04 3.759869555546e-02 1.036887511178e+00 8.464835802793e+00 
2.000000000000e-02 -5.181624027658e+04 9.992887335448e-04 9.992887335448e-04 3.760248924036e-02 1.036891222784e+00 1.147785904767e+01 
2.500000000000e-02 -6.477080034572e+04 9.992887056312e-04 9.992887056312e-04 3.760388571957e-02 1.036892591349e+00 1.269085523024e+01 
3.000000000000e-02 -7.772536041487e+04 9.992886952876e-04 9.992886952876e-04 3.760442089778e-02 1.036893116184e+00 1.317262958340e+01 
3.500000000000e-02 -9.067992048401e+04 9.992886913228e-04 9.992886913228e-04 3.760462908492e-02 1.036893320405e+00 1.336326871244e+01 
4.000000000000e-02 -1.036344805532e+05 9.992886897854e-04 9.992886897854e-04 3.760471053854e-02 1.036893400321e+00 1.343869718639e+01 
4.500000000000e-02 -1.165890406223e+05 9.992886891895e-04 9.992886891895e-04 3.760474247932e-02 1.036893431665e+00 1.346869806060e+01 
5.000000000000e-02 -1.295436006914e+05 9.992886889618e-04 9.992886889618e-04 3.760475501561e-02 1.036893443973e+00 1.348083395437e+01 
5.500000000000e-02 -1.424981607606e+05 9.992886888779e-04 9.992886888779e-04 3.760475993770e-02 1.036893448810e+00 1.348588038668e+01 
6.000000000000e-02 -1.554527208297e+05 9.992886888501e-04 9.992886888501e-04 3.760476187057e-02 1.036893450715e+00 1.348813250206e+01 
6.500000000000e-02 -1.684072808989e+05 9.992886888451e-04 9.992886888451e-04 3.760476262972e-02 1.036893451469e+00 1.348924503134e+01 
7.000000000000e-02 -1.813618409680e+05 9.992886888484e-04 9.992886888483e-04 3.760476292791e-02 1.036893451769e+00 1.348988923071e+01 
7.500000000000e-02 -1.943164010372e+05 9.992886888553e-04 9.992886888552e-04 3.760476304513e-02 1.036893451894e+00 1.349035886694e+01 
8.000000000000e-02 -2.072709611063e+05 9.992886888630e-04 9.992886888629e-04 3.760476309123e-02 1.036893451947e+00 1.349078054532e+01 
8.500000000000e-02 -2.202255211755e+05 9.992886888711e-04 9.992886888710e-04 3.760476310941e-02 1.036893451972e+00 1.349135268410e+01 
9.000000000000e-02 -2.331800812446e+05 9.992886888781e-04 9.992886888780e-04 3.760476311661e-02 1.036893451986e+00 1.349245242779e+01 
9.500000000000e-02 -2.461346413137e+05 9.992886888843e-04 9.992886888842e-04 3.760476311945e-02 1.036893451996e+00 1.349465558895e+01 
1.000000000000e-01 -2.590892013829e+05 9.992886888865e-04 9.992886888864e-04 3.760476312023e-02 1.036893451998e+00 1.349642320268e+01 
 ZONE T="TIME=4.950000000000e+05"
0.000000000000e+00 2.000000000000e+00 1.000000000000e-03 1.000000000000e-03 0.000000000000e+00 1.000000000000e+00 0.000000000000e+00 
5.000000000000e-03 -1.295256006914e+04 9.999848469808e-04 9.999848469808e-04 8.011276749886e-04 1.000785974656e+00 0.000000000000e+00 
1.000000000000e-02 -2.590712013829e+04 9.999516581775e-04 9.999516581775e-04 2.555796544739e-03 1.002507454722e+00 0.000000000000e+00 
1.500000000000e-02 -3.886168020743e+04 9.998797374086e-04 9.998797374085e-04 6.358226181789e-03 1.006237963590e+00 0.000000000000e+00 
2.000000000000e-02 -5.181624027658e+04 9.997222894797e-04 9.997222894798e-04 1.468246866147e-02 1.014404758140e+00 0.000000000000e+00 
2.500000000000e-02 -6.477080034572e+04 9.992890331456e-04 9.992890331456e-04 3.758905882731e-02 1.036878091973e+00 7.642609089173e+00 
3.000000000000e-02 -7.772536041487e+04 9.992887883095e-04 9.992887883095e-04 3.759892592170e-02 1.036887714230e+00 1.114472520610e+01 
3.500000000000e-02 -9.067992048401e+04 9.992887096594e-04 9.992887096594e-04 3.760251704040e-02 1.036891226698e+00 1.255983207301e+01 
4.000000000000e-02 -1.036344805532e+05 9.992886800280e-04 9.992886800280e-04 3.760388772363e-02 1.036892567749e+00 1.312208766133e+01 
4.500000000000e-02 -1.165890406223e+05 9.992886681297e-04 9.992886681295e-04 3.760442011405e-02 1.036893088242e+00 1.334419318219e+01 
5.000000000000e-02 -1.295436006914e+05 9.992886622578e-04 9.992886622577e-04 3.760462827348e-02 1.036893290528e+00 1.343191307075e+01 
5.500000000000e-02 -1.424981607606e+05 9.992886590732e-04 9.992886590731e-04 3.760470986785e-02 1.036893368937e+00 1.346666432410e+01 
6.000000000000e-02 -1.554527208297e+05 9.992886570974e-04 9.992886570973e-04 3.760474187775e-02 1.036893398970e+00 1.348058536678e+01 
6.500000000000e-02 -1.684072808989e+05 9.992886558299e-04 9.992886558298e-04 3.760475443710e-02 1.036893410262e+00 1.348628101575e+01 
7.000000000000e-02 -1.813618409680e+05 9.992886551274e-04 9.992886551274e-04 3.760475936547e-02 1.036893414488e+00 1.348872517871e+01 
7.500000000000e-02 -1.943164010372e+05 9.992886549220e-04 9.992886549220e-04 3.760476130201e-02 1.036893416218e+00 1.348990171177e+01 
8.000000000000e-02 -2.072709611063e+05 9.992886551529e-04 9.992886551530e-04 3.760476206769e-02 1.036893417214e+00 1.349060100657e+01 
8.500000000000e-02 -2.202255211755e+05 9.992886557288e-04 9.992886557288e-04 3.760476237645e-02 1.036893418098e+00 1.349128216776e+01 
9.000000000000e-02 -2.331800812446e+05 9.992886565042e-04 9.992886565044e-04 3.760476250673e-02 1.036893419003e+00 1.349242469313e+01 
9.500000000000e-02 -2.461346413137e+05 9.992886572451e-04 9.992886572452e-04 3.760476256443e-02 1.036893419801e+00 1.349464439275e+01 
1.000000000000e-01 -2.590892013829e+05 9.992886575704e-04 9.992886575706e-04 3.760476258218e-02 1.036893420144e+00 1.349641650428e+01 
 ZONE T="TIME=7.425000000000e+05"
0.000000000000e+00 2.000000000000e+00 1.000000000000e-03 1.000000000000e-03 0.000000000000e+00 1.000000000000e+00 0.000000000000e+00 
5.000000000000e-03 -1.295256006914e+04 9.999969166606e-04 9.999969166606e-04 1.630160215236e-04 1.000159932682e+00 0.000000000000e+00 
1.000000000000e-02 -2.590712013829e+04 9.999901621335e-04 9.999901621335e-04 5.201275694410e-04 1.000510289703e+00 0.000000000000e+00 
1.500000000000e-02 -3.886168020743e+04 9.999753648296e-04 9.999753648296e-04 1.302460325808e-03 1.001277825156e+00 0.000000000000e+00 
2.000000000000e-02 -5.181624027658e+04 9.999429474895e-04 9.999429474894e-04 3.016363452149e-03 1.002959310942e+00 0.000000000000e+00 
2.500000000000e-02 -6.477080034572e+04 9.998719282586e-04 9.998719282584e-04 6.771146258654e-03 1.006643074517e+00 0.000000000000e+00 
3.000000000000e-02 -7.772536041487e+04 9.997163400610e-04 9.997163400608e-04 1.499708482257e-02 1.014713424883e+00 0.000000000000e+00 
3.500000000000e-02 -9.067992048401e+04 9.992890269180e-04 9.992890269170e-04 3.758935662336e-02 1.036878383540e+00 6.893528217544e+00 
4.000000000000e-02 -1.036344805532e+05 9.992887882313e-04 9.992887882312e-04 3.759908344264e-02 1.036887871672e+00 1.083858685575e+01 
4.500000000000e-02 -1.165890406223e+05 9.992887129596e-04 9.992887129592e-04 3.760258391820e-02 1.036891296876e+00 1.243836290015e+01 
5.000000000000e-02 -1.295436006914e+05 9.992886864146e-04 9.992886864143e-04 3.760391476400e-02 1.036892601176e+00 1.307477624655e+01 
5.500000000000e-02 -1.424981607606e+05 9.992886764465e-04 9.992886764462e-04 3.760443092923e-02 1.036893107373e+00 1.332619378448e+01 
6.000000000000e-02 -1.554527208297e+05 9.992886726000e-04 9.992886725999e-04 3.760463265227e-02 1.036893305249e+00 1.342538637934e+01 
6.500000000000e-02 -1.684072808989e+05 9.992886710951e-04 9.992886710949e-04 3.760471172151e-02 1.036893382812e+00 1.346459801813e+01 
7.000000000000e-02 -1.813618409680e+05 9.992886704958e-04 9.992886704957e-04 3.760474274976e-02 1.036893413240e+00 1.348020895801e+01 
7.500000000000e-02 -1.943164010372e+05 9.992886702446e-04 9.992886702444e-04 3.760475493184e-02 1.036893425171e+00 1.348655704868e+01 
8.000000000000e-02 -2.072709611063e+05 9.992886701237e-04 9.992886701236e-04 3.760475971494e-02 1.036893429832e+00 1.348928743798e+01 
8.500000000000e-02 -2.202255211755e+05 9.992886700506e-04 9.992886700505e-04 3.760476159279e-02 1.036893431637e+00 1.349076624359e+01 
9.000000000000e-02 -2.331800812446e+05 9.992886699943e-04 9.992886699942e-04 3.760476232920e-02 1.036893432317e+00 1.349222177416e+01 
9.500000000000e-02 -2.461346413137e+05 9.992886699522e-04 9.992886699520e-04 3.760476261355e-02 1.036893432559e+00 1.349456247776e+01 
1.000000000000e-01 -2.590892013829e+05 9.992886699348e-04 9.992886699347e-04 3.760476269076e-02 1.036893432618e+00 1.349636749196e+01 
 ZONE T="TIME=9.900000000000e+05"
0.000000000000e+00 2.000000000000e+00 1.000000000000e-03 1.000000000000e-03 0.000000000000e+00 1.000000000000e+00 0.000000000000e+00 
5.000000000000e-03 -1.295256006914e+04 9.999993582026e-04 9.999993582026e-04 3.393172363524e-05 1.000033289926e+00 0.000000000000e+00 
1.000000000000e-02 -2.590712013829e+04 9.999979522407e-04 9.999979522407e-04 1.082646993724e-04 1.000106216940e+00 0.000000000000e+00 
1.500000000000e-02 -3.886168020743e+04 9.999948721509e-04 9.999948721509e-04 2.711085222682e-04 1.000265980673e+00 0.000000000000e+00 
2.000000000000e-02 -5.181624027658e+04 9.999881243894e-04 9.999881243894e-04 6.278614851316e-04 1.000615985875e+00 0.000000000000e+00 
2.500000000000e-02 -6.477080034572e+04 9.999733415074e-04 9.999733415074e-04 1.409429751569e-03 1.001382771259e+00 0.000000000000e+00 
3.000000000000e-02 -7.772536041487e+04 9.999409553135e-04 9.999409553135e-04 3.121681675769e-03 1.003062636989e+00 0.000000000000e+00 
3.500000000000e-02 -9.067992048401e+04 9.998700038469e-04 9.998700038467e-04 6.872871769006e-03 1.006742875615e+00 0.000000000000e+00 
4.000000000000e-02 -1.036344805532e+05 9.997145637157e-04 9.997145637154e-04 1.509095985542e-02 1.014805523570e+00 0.000000000000e+00 
4.500000000000e-02 -1.165890406223e+05 9.992890224456e-04 9.992890224456e-04 3.758948548563e-02 1.036878507930e+00 6.351366344674e+00 
5.000000000000e-02 -1.295436006914e+05 9.992887852698e-04 9.992887852692e-04 3.759916529020e-02 1.036887950558e+00 1.061577408599e+01 
5.500000000000e-02 -1.424981607606e+05 9.992887111309e-04 9.992887111307e-04 3.760261980389e-02 1.036891330932e+00 1.234982195746e+01 
6.000000000000e-02 -1.554527208297e+05 9.992886850503e-04 9.992886850502e-04 3.760392936666e-02 1.036892614414e+00 1.304029284184e+01 
6.500000000000e-02 -1.684072808989e+05 9.992886752775e-04 9.992886752775e-04 3.760443672824e-02 1.036893112002e+00 1.331310809590e+01 
7.000000000000e-02 -1.813618409680e+05 9.992886715267e-04 9.992886715267e-04 3.760463492987e-02 1.036893306452e+00 1.342067587371e+01 
7.500000000000e-02 -1.943164010372e+05 9.992886700827e-04 9.992886700826e-04 3.760471260740e-02 1.036893382685e+00 1.346317077955e+01 
8.000000000000e-02 -2.072709611063e+05 9.992886695355e-04 9.992886695354e-04 3.760474308830e-02 1.036893412618e+00 1.348010200628e+01 
8.500000000000e-02 -2.202255211755e+05 9.992886693373e-04 9.992886693372e-04 3.760475505531e-02 1.036893424387e+00 1.348715839749e+01 
9.000000000000e-02 -2.331800812446e+05 9.992886692748e-04 9.992886692747e-04 3.760475975083e-02 1.036893429020e+00 1.349080274623e+01 
9.500000000000e-02 -2.461346413137e+05 9.992886692604e-04 9.992886692602e-04 3.760476156610e-02 1.036893430820e+00 1.349398963839e+01 
1.000000000000e-01 -2.590892013829e+05 9.992886692594e-04 9.992886692592e-04 3.760476205972e-02 1.036893431313e+00 1.349602474197e+01 
