VARIABLES = "X","Y","Z","VX","VY","VZ",POROSITY,PERMEABILITY
ZONE T="0.000000000000e+00s", I=20, F=POINT, C=BLACK
2.500000000000e-03 0.000000000000e+00 0.000000000000e+00 0.000000000000e+00 0.000000000000e+00 0.000000000000e+00 2.000000000000e-01 1.157000000000e-12 
7.500000000000e-03 0.000000000000e+00 0.000000000000e+00 0.000000000000e+00 0.000000000000e+00 0.000000000000e+00 2.000000000000e-01 1.157000000000e-12 
1.250000000000e-02 0.000000000000e+00 0.000000000000e+00 0.000000000000e+00 0.000000000000e+00 0.000000000000e+00 2.000000000000e-01 1.157000000000e-12 
1.750000000000e-02 0.000000000000e+00 0.000000000000e+00 0.000000000000e+00 0.000000000000e+00 0.000000000000e+00 2.000000000000e-01 1.157000000000e-12 
2.250000000000e-02 0.000000000000e+00 0.000000000000e+00 0.000000000000e+00 0.000000000000e+00 0.000000000000e+00 2.000000000000e-01 1.157000000000e-12 
2.750000000000e-02 0.000000000000e+00 0.000000000000e+00 0.000000000000e+00 0.000000000000e+00 0.000000000000e+00 2.000000000000e-01 1.157000000000e-12 
3.250000000000e-02 0.000000000000e+00 0.000000000000e+00 0.000000000000e+00 0.000000000000e+00 0.000000000000e+00 2.000000000000e-01 1.157000000000e-12 
3.750000000000e-02 0.000000000000e+00 0.000000000000e+00 0.000000000000e+00 0.000000000000e+00 0.000000000000e+00 2.000000000000e-01 1.157000000000e-12 
4.250000000000e-02 0.000000000000e+00 0.000000000000e+00 0.000000000000e+00 0.000000000000e+00 0.000000000000e+00 2.000000000000e-01 1.157000000000e-12 
4.750000000000e-02 0.000000000000e+00 0.000000000000e+00 0.000000000000e+00 0.000000000000e+00 0.000000000000e+00 2.000000000000e-01 1.157000000000e-12 
5.250000000000e-02 0.000000000000e+00 0.000000000000e+00 0.000000000000e+00 0.000000000000e+00 0.000000000000e+00 2.000000000000e-01 1.157000000000e-12 
5.750000000000e-02 0.000000000000e+00 0.000000000000e+00 0.000000000000e+00 0.000000000000e+00 0.000000000000e+00 2.000000000000e-01 1.157000000000e-12 
6.250000000000e-02 0.000000000000e+00 0.000000000000e+00 0.000000000000e+00 0.000000000000e+00 0.000000000000e+00 2.000000000000e-01 1.157000000000e-12 
6.750000000000e-02 0.000000000000e+00 0.000000000000e+00 0.000000000000e+00 0.000000000000e+00 0.000000000000e+00 2.000000000000e-01 1.157000000000e-12 
7.250000000000e-02 0.000000000000e+00 0.000000000000e+00 0.000000000000e+00 0.000000000000e+00 0.000000000000e+00 2.000000000000e-01 1.157000000000e-12 
7.750000000000e-02 0.000000000000e+00 0.000000000000e+00 0.000000000000e+00 0.000000000000e+00 0.000000000000e+00 2.000000000000e-01 1.157000000000e-12 
8.250000000000e-02 0.000000000000e+00 0.000000000000e+00 0.000000000000e+00 0.000000000000e+00 0.000000000000e+00 2.000000000000e-01 1.157000000000e-12 
8.750000000000e-02 0.000000000000e+00 0.000000000000e+00 0.000000000000e+00 0.000000000000e+00 0.000000000000e+00 2.000000000000e-01 1.157000000000e-12 
9.250000000000e-02 0.000000000000e+00 0.000000000000e+00 0.000000000000e+00 0.000000000000e+00 0.000000000000e+00 2.000000000000e-01 1.157000000000e-12 
9.750000000000e-02 0.000000000000e+00 0.000000000000e+00 0.000000000000e+00 0.000000000000e+00 0.000000000000e+00 2.000000000000e-01 1.157000000000e-12 
VARIABLES = "X","Y","Z","VX","VY","VZ",POROSITY,PERMEABILITY
ZONE T="2.475000000000e+05s", I=20, F=POINT, C=BLACK
2.500000000000e-03 0.000000000000e+00 0.000000000000e+00 2.997685200000e-06 0.000000000000e+00 0.000000000000e+00 2.997107011070e-01 5.081303258066e-12 
7.500000000000e-03 0.000000000000e+00 0.000000000000e+00 2.997685200000e-06 0.000000000000e+00 0.000000000000e+00 2.930591655068e-01 4.661472595244e-12 
1.250000000000e-02 0.000000000000e+00 0.000000000000e+00 2.997685200000e-06 0.000000000000e+00 0.000000000000e+00 2.573701477632e-01 2.861231881627e-12 
1.750000000000e-02 0.000000000000e+00 0.000000000000e+00 2.997685200000e-06 0.000000000000e+00 0.000000000000e+00 2.194109916256e-01 1.604551361658e-12 
2.250000000000e-02 0.000000000000e+00 0.000000000000e+00 2.997685200000e-06 0.000000000000e+00 0.000000000000e+00 2.072792607718e-01 1.311748144581e-12 
2.750000000000e-02 0.000000000000e+00 0.000000000000e+00 2.997685200000e-06 0.000000000000e+00 0.000000000000e+00 2.028479250678e-01 1.215773556757e-12 
3.250000000000e-02 0.000000000000e+00 0.000000000000e+00 2.997685200000e-06 0.000000000000e+00 0.000000000000e+00 2.011514187042e-01 1.180493796836e-12 
3.750000000000e-02 0.000000000000e+00 0.000000000000e+00 2.997685200000e-06 0.000000000000e+00 0.000000000000e+00 2.004893969262e-01 1.166941591392e-12 
4.250000000000e-02 0.000000000000e+00 0.000000000000e+00 2.997685200000e-06 0.000000000000e+00 0.000000000000e+00 2.002285004165e-01 1.161633646850e-12 
4.750000000000e-02 0.000000000000e+00 0.000000000000e+00 2.997685200000e-06 0.000000000000e+00 0.000000000000e+00 2.001244536124e-01 1.159521975439e-12 
5.250000000000e-02 0.000000000000e+00 0.000000000000e+00 2.997685200000e-06 0.000000000000e+00 0.000000000000e+00 2.000820625800e-01 1.158662475411e-12 
5.750000000000e-02 0.000000000000e+00 0.000000000000e+00 2.997685200000e-06 0.000000000000e+00 0.000000000000e+00 2.000640625011e-01 1.158297662055e-12 
6.250000000000e-02 0.000000000000e+00 0.000000000000e+00 2.997685200000e-06 0.000000000000e+00 0.000000000000e+00 2.000557656896e-01 1.158129537526e-12 
6.750000000000e-02 0.000000000000e+00 0.000000000000e+00 2.997685200000e-06 0.000000000000e+00 0.000000000000e+00 2.000514341161e-01 1.158041771015e-12 
7.250000000000e-02 0.000000000000e+00 0.000000000000e+00 2.997685200000e-06 0.000000000000e+00 0.000000000000e+00 2.000486878338e-01 1.157986128375e-12 
7.750000000000e-02 0.000000000000e+00 0.000000000000e+00 2.997685200000e-06 0.000000000000e+00 0.000000000000e+00 2.000464902590e-01 1.157941604612e-12 
8.250000000000e-02 0.000000000000e+00 0.000000000000e+00 2.997685200000e-06 0.000000000000e+00 0.000000000000e+00 2.000440400225e-01 1.157891963366e-12 
8.750000000000e-02 0.000000000000e+00 0.000000000000e+00 2.997685200000e-06 0.000000000000e+00 0.000000000000e+00 2.000399181840e-01 1.157808459511e-12 
9.250000000000e-02 0.000000000000e+00 0.000000000000e+00 2.997685200000e-06 0.000000000000e+00 0.000000000000e+00 2.000317758001e-01 1.157643517428e-12 
9.750000000000e-02 0.000000000000e+00 0.000000000000e+00 2.997685200000e-06 0.000000000000e+00 0.000000000000e+00 2.000219876620e-01 1.157445260741e-12 
VARIABLES = "X","Y","Z","VX","VY","VZ",POROSITY,PERMEABILITY
ZONE T="4.950000000000e+05s", I=20, F=POINT, C=BLACK
2.500000000000e-03 0.000000000000e+00 0.000000000000e+00 2.997685200000e-06 0.000000000000e+00 0.000000000000e+00 2.997107011070e-01 5.081303258066e-12 
7.500000000000e-03 0.000000000000e+00 0.000000000000e+00 2.997685200000e-06 0.000000000000e+00 0.000000000000e+00 2.997107011070e-01 5.081303258066e-12 
1.250000000000e-02 0.000000000000e+00 0.000000000000e+00 2.997685200000e-06 0.000000000000e+00 0.000000000000e+00 2.997107011070e-01 5.081303258066e-12 
1.750000000000e-02 0.000000000000e+00 0.000000000000e+00 2.997685200000e-06 0.000000000000e+00 0.000000000000e+00 2.997107011070e-01 5.081303258066e-12 
2.250000000000e-02 0.000000000000e+00 0.000000000000e+00 2.997685200000e-06 0.000000000000e+00 0.000000000000e+00 2.667252562297e-01 3.266497388546e-12 
2.750000000000e-02 0.000000000000e+00 0.000000000000e+00 2.997685200000e-06 0.000000000000e+00 0.000000000000e+00 2.230318263535e-01 1.701051292046e-12 
3.250000000000e-02 0.000000000000e+00 0.000000000000e+00 2.997685200000e-06 0.000000000000e+00 0.000000000000e+00 2.085337959206e-01 1.339947991345e-12 
3.750000000000e-02 0.000000000000e+00 0.000000000000e+00 2.997685200000e-06 0.000000000000e+00 0.000000000000e+00 2.033119457495e-01 1.225562391583e-12 
4.250000000000e-02 0.000000000000e+00 0.000000000000e+00 2.997685200000e-06 0.000000000000e+00 0.000000000000e+00 2.013255159887e-01 1.184077663879e-12 
4.750000000000e-02 0.000000000000e+00 0.000000000000e+00 2.997685200000e-06 0.000000000000e+00 0.000000000000e+00 2.005535188185e-01 1.168248990248e-12 
5.250000000000e-02 0.000000000000e+00 0.000000000000e+00 2.997685200000e-06 0.000000000000e+00 0.000000000000e+00 2.002502922891e-01 1.162076294161e-12 
5.750000000000e-02 0.000000000000e+00 0.000000000000e+00 2.997685200000e-06 0.000000000000e+00 0.000000000000e+00 2.001300866772e-01 1.159636225452e-12 
6.250000000000e-02 0.000000000000e+00 0.000000000000e+00 2.997685200000e-06 0.000000000000e+00 0.000000000000e+00 2.000816877989e-01 1.158654878705e-12 
6.750000000000e-02 0.000000000000e+00 0.000000000000e+00 2.997685200000e-06 0.000000000000e+00 0.000000000000e+00 2.000616131181e-01 1.158248026424e-12 
7.250000000000e-02 0.000000000000e+00 0.000000000000e+00 2.997685200000e-06 0.000000000000e+00 0.000000000000e+00 2.000526851473e-01 1.158067118936e-12 
7.750000000000e-02 0.000000000000e+00 0.000000000000e+00 2.997685200000e-06 0.000000000000e+00 0.000000000000e+00 2.000480600591e-01 1.157973409268e-12 
8.250000000000e-02 0.000000000000e+00 0.000000000000e+00 2.997685200000e-06 0.000000000000e+00 0.000000000000e+00 2.000446565280e-01 1.157904453477e-12 
8.750000000000e-02 0.000000000000e+00 0.000000000000e+00 2.997685200000e-06 0.000000000000e+00 0.000000000000e+00 2.000401604106e-01 1.157813366624e-12 
9.250000000000e-02 0.000000000000e+00 0.000000000000e+00 2.997685200000e-06 0.000000000000e+00 0.000000000000e+00 2.000318717729e-01 1.157645461465e-12 
9.750000000000e-02 0.000000000000e+00 0.000000000000e+00 2.997685200000e-06 0.000000000000e+00 0.000000000000e+00 2.000220317711e-01 1.157446154103e-12 
VARIABLES = "X","Y","Z","VX","VY","VZ",POROSITY,PERMEABILITY
ZONE T="7.425000000000e+05s", I=20, F=POINT, C=BLACK
2.500000000000e-03 0.000000000000e+00 0.000000000000e+00 2.997685200000e-06 0.000000000000e+00 0.000000000000e+00 2.997107011070e-01 5.081303258066e-12 
7.500000000000e-03 0.000000000000e+00 0.000000000000e+00 2.997685200000e-06 0.000000000000e+00 0.000000000000e+00 2.997107011070e-01 5.081303258066e-12 
1.250000000000e-02 0.000000000000e+00 0.000000000000e+00 2.997685200000e-06 0.000000000000e+00 0.000000000000e+00 2.997107011070e-01 5.081303258066e-12 
1.750000000000e-02 0.000000000000e+00 0.000000000000e+00 2.997685200000e-06 0.000000000000e+00 0.000000000000e+00 2.997107011070e-01 5.081303258066e-12 
2.250000000000e-02 0.000000000000e+00 0.000000000000e+00 2.997685200000e-06 0.000000000000e+00 0.000000000000e+00 2.997107011070e-01 5.081303258066e-12 
2.750000000000e-02 0.000000000000e+00 0.000000000000e+00 2.997685200000e-06 0.000000000000e+00 0.000000000000e+00 2.997107011070e-01 5.081303258066e-12 
3.250000000000e-02 0.000000000000e+00 0.000000000000e+00 2.997685200000e-06 0.000000000000e+00 0.000000000000e+00 2.693022419030e-01 3.385849912290e-12 
3.750000000000e-02 0.000000000000e+00 0.000000000000e+00 2.997685200000e-06 0.000000000000e+00 0.000000000000e+00 2.264659552673e-01 1.796690417095e-12 
4.250000000000e-02 0.000000000000e+00 0.000000000000e+00 2.997685200000e-06 0.000000000000e+00 0.000000000000e+00 2.097056169287e-01 1.366708025968e-12 
4.750000000000e-02 0.000000000000e+00 0.000000000000e+00 2.997685200000e-06 0.000000000000e+00 0.000000000000e+00 2.037455586909e-01 1.234764293919e-12 
5.250000000000e-02 0.000000000000e+00 0.000000000000e+00 2.997685200000e-06 0.000000000000e+00 0.000000000000e+00 2.014891708390e-01 1.187454163046e-12 
5.750000000000e-02 0.000000000000e+00 0.000000000000e+00 2.997685200000e-06 0.000000000000e+00 0.000000000000e+00 2.006143793839e-01 1.169490930059e-12 
6.250000000000e-02 0.000000000000e+00 0.000000000000e+00 2.997685200000e-06 0.000000000000e+00 0.000000000000e+00 2.002715339553e-01 1.162507889658e-12 
6.750000000000e-02 0.000000000000e+00 0.000000000000e+00 2.997685200000e-06 0.000000000000e+00 0.000000000000e+00 2.001361159616e-01 1.159758521149e-12 
7.250000000000e-02 0.000000000000e+00 0.000000000000e+00 2.997685200000e-06 0.000000000000e+00 0.000000000000e+00 2.000819356033e-01 1.158659901625e-12 
7.750000000000e-02 0.000000000000e+00 0.000000000000e+00 2.997685200000e-06 0.000000000000e+00 0.000000000000e+00 2.000595460501e-01 1.158206139496e-12 
8.250000000000e-02 0.000000000000e+00 0.000000000000e+00 2.997685200000e-06 0.000000000000e+00 0.000000000000e+00 2.000491672410e-01 1.157995841534e-12 
8.750000000000e-02 0.000000000000e+00 0.000000000000e+00 2.997685200000e-06 0.000000000000e+00 0.000000000000e+00 2.000419326574e-01 1.157849269920e-12 
9.250000000000e-02 0.000000000000e+00 0.000000000000e+00 2.997685200000e-06 0.000000000000e+00 0.000000000000e+00 2.000325739518e-01 1.157659684970e-12 
9.750000000000e-02 0.000000000000e+00 0.000000000000e+00 2.997685200000e-06 0.000000000000e+00 0.000000000000e+00 2.000223544995e-01 1.157452690489e-12 
VARIABLES = "X","Y","Z","VX","VY","VZ",POROSITY,PERMEABILITY
ZONE T="9.900000000000e+05s", I=20, F=POINT, C=BLACK
2.500000000000e-03 0.000000000000e+00 0.000000000000e+00 2.997685200000e-06 0.000000000000e+00 0.000000000000e+00 2.997107011070e-01 5.081303258066e-12 
7.500000000000e-03 0.000000000000e+00 0.000000000000e+00 2.997685200000e-06 0.000000000000e+00 0.000000000000e+00 2.997107011070e-01 5.081303258066e-12 
1.250000000000e-02 0.000000000000e+00 0.000000000000e+00 2.997685200000e-06 0.000000000000e+00 0.000000000000e+00 2.997107011070e-01 5.081303258066e-12 
1.750000000000e-02 0.000000000000e+00 0.000000000000e+00 2.997685200000e-06 0.000000000000e+00 0.000000000000e+00 2.997107011070e-01 5.081303258066e-12 
2.250000000000e-02 0.000000000000e+00 0.000000000000e+00 2.997685200000e-06 0.000000000000e+00 0.000000000000e+00 2.997107011070e-01 5.081303258066e-12 
2.750000000000e-02 0.000000000000e+00 0.000000000000e+00 2.997685200000e-06 0.000000000000e+00 0.000000000000e+00 2.997107011070e-01 5.081303258066e-12 
3.250000000000e-02 0.000000000000e+00 0.000000000000e+00 2.997685200000e-06 0.000000000000e+00 0.000000000000e+00 2.997107011070e-01 5.081303258066e-12 
3.750000000000e-02 0.000000000000e+00 0.000000000000e+00 2.997685200000e-06 0.000000000000e+00 0.000000000000e+00 2.997107011070e-01 5.081303258066e-12 
4.250000000000e-02 0.000000000000e+00 0.000000000000e+00 2.997685200000e-06 0.000000000000e+00 0.000000000000e+00 2.712394277947e-01 3.477859779928e-12 
4.750000000000e-02 0.000000000000e+00 0.000000000000e+00 2.997685200000e-06 0.000000000000e+00 0.000000000000e+00 2.290357390145e-01 1.870960504862e-12 
5.250000000000e-02 0.000000000000e+00 0.000000000000e+00 2.997685200000e-06 0.000000000000e+00 0.000000000000e+00 2.105688104897e-01 1.386682119458e-12 
5.750000000000e-02 0.000000000000e+00 0.000000000000e+00 2.997685200000e-06 0.000000000000e+00 0.000000000000e+00 2.040630182443e-01 1.241534796158e-12 
6.250000000000e-02 0.000000000000e+00 0.000000000000e+00 2.997685200000e-06 0.000000000000e+00 0.000000000000e+00 2.016085712266e-01 1.189922261986e-12 
6.750000000000e-02 0.000000000000e+00 0.000000000000e+00 2.997685200000e-06 0.000000000000e+00 0.000000000000e+00 2.006585685112e-01 1.170393300509e-12 
7.250000000000e-02 0.000000000000e+00 0.000000000000e+00 2.997685200000e-06 0.000000000000e+00 0.000000000000e+00 2.002867100549e-01 1.162816318019e-12 
7.750000000000e-02 0.000000000000e+00 0.000000000000e+00 2.997685200000e-06 0.000000000000e+00 0.000000000000e+00 2.001399033000e-01 1.159835347119e-12 
8.250000000000e-02 0.000000000000e+00 0.000000000000e+00 2.997685200000e-06 0.000000000000e+00 0.000000000000e+00 2.000807165240e-01 1.158635191422e-12 
8.750000000000e-02 0.000000000000e+00 0.000000000000e+00 2.997685200000e-06 0.000000000000e+00 0.000000000000e+00 2.000543270326e-01 1.158100386837e-12 
9.250000000000e-02 0.000000000000e+00 0.000000000000e+00 2.997685200000e-06 0.000000000000e+00 0.000000000000e+00 2.000374845098e-01 1.157759158146e-12 
9.750000000000e-02 0.000000000000e+00 0.000000000000e+00 2.997685200000e-06 0.000000000000e+00 0.000000000000e+00 2.000246114063e-01 1.157498401584e-12 
