 TITLE = "Profiles along polylines"
 VARIABLES = "DIST" "PRESSURE1" "PRESSURE2" "PRESSURE_W" "SATURATION1" SATURATION2 "VELOCITY_X1" "VELOCITY_Y1" "VELOCITY_X2" "VELOCITY_Y2" 
 ZONE T="TIME=0.000000000000e+00"
0.000000000000e+00 3.000000000000e+00 2.000030000000e+05 2.000000000000e+05 2.000000000000e-01 8.000000000000e-01 0.000000000000e+00 0.000000000000e+00 0.000000000000e+00 0.000000000000e+00 
3.050000000000e+00 3.000000000000e+00 2.000030000000e+05 2.000000000000e+05 2.000000000000e-01 8.000000000000e-01 0.000000000000e+00 0.000000000000e+00 0.000000000000e+00 0.000000000000e+00 
6.100000000000e+00 3.000000000000e+00 2.000030000000e+05 2.000000000000e+05 2.000000000000e-01 8.000000000000e-01 0.000000000000e+00 0.000000000000e+00 0.000000000000e+00 0.000000000000e+00 
9.150000000000e+00 3.000000000000e+00 2.000030000000e+05 2.000000000000e+05 2.000000000000e-01 8.000000000000e-01 0.000000000000e+00 0.000000000000e+00 0.000000000000e+00 0.000000000000e+00 
1.220000000000e+01 3.000000000000e+00 2.000030000000e+05 2.000000000000e+05 2.000000000000e-01 8.000000000000e-01 0.000000000000e+00 0.000000000000e+00 0.000000000000e+00 0.000000000000e+00 
1.525000000000e+01 3.000000000000e+00 2.000030000000e+05 2.000000000000e+05 2.000000000000e-01 8.000000000000e-01 0.000000000000e+00 0.000000000000e+00 0.000000000000e+00 0.000000000000e+00 
1.830000000000e+01 3.000000000000e+00 2.000030000000e+05 2.000000000000e+05 2.000000000000e-01 8.000000000000e-01 0.000000000000e+00 0.000000000000e+00 0.000000000000e+00 0.000000000000e+00 
2.135000000000e+01 3.000000000000e+00 2.000030000000e+05 2.000000000000e+05 2.000000000000e-01 8.000000000000e-01 0.000000000000e+00 0.000000000000e+00 0.000000000000e+00 0.000000000000e+00 
2.440000000000e+01 3.000000000000e+00 2.000030000000e+05 2.000000000000e+05 2.000000000000e-01 8.000000000000e-01 0.000000000000e+00 0.000000000000e+00 0.000000000000e+00 0.000000000000e+00 
2.745000000000e+01 3.000000000000e+00 2.000030000000e+05 2.000000000000e+05 2.000000000000e-01 8.000000000000e-01 0.000000000000e+00 0.000000000000e+00 0.000000000000e+00 0.000000000000e+00 
3.050000000000e+01 3.000000000000e+00 2.000030000000e+05 2.000000000000e+05 2.000000000000e-01 8.000000000000e-01 0.000000000000e+00 0.000000000000e+00 0.000000000000e+00 0.000000000000e+00 
3.355000000000e+01 3.000000000000e+00 2.000030000000e+05 2.000000000000e+05 2.000000000000e-01 8.000000000000e-01 0.000000000000e+00 0.000000000000e+00 0.000000000000e+00 0.000000000000e+00 
3.660000000000e+01 3.000000000000e+00 2.000030000000e+05 2.000000000000e+05 2.000000000000e-01 8.000000000000e-01 0.000000000000e+00 0.000000000000e+00 0.000000000000e+00 0.000000000000e+00 
3.965000000000e+01 3.000000000000e+00 2.000030000000e+05 2.000000000000e+05 2.000000000000e-01 8.000000000000e-01 0.000000000000e+00 0.000000000000e+00 0.000000000000e+00 0.000000000000e+00 
4.270000000000e+01 3.000000000000e+00 2.000030000000e+05 2.000000000000e+05 2.000000000000e-01 8.000000000000e-01 0.000000000000e+00 0.000000000000e+00 0.000000000000e+00 0.000000000000e+00 
4.575000000000e+01 3.000000000000e+00 2.000030000000e+05 2.000000000000e+05 2.000000000000e-01 8.000000000000e-01 0.000000000000e+00 0.000000000000e+00 0.000000000000e+00 0.000000000000e+00 
4.880000000000e+01 3.000000000000e+00 2.000030000000e+05 2.000000000000e+05 2.000000000000e-01 8.000000000000e-01 0.000000000000e+00 0.000000000000e+00 0.000000000000e+00 0.000000000000e+00 
5.185000000000e+01 3.000000000000e+00 2.000030000000e+05 2.000000000000e+05 2.000000000000e-01 8.000000000000e-01 0.000000000000e+00 0.000000000000e+00 0.000000000000e+00 0.000000000000e+00 
5.490000000000e+01 3.000000000000e+00 2.000030000000e+05 2.000000000000e+05 2.000000000000e-01 8.000000000000e-01 0.000000000000e+00 0.000000000000e+00 0.000000000000e+00 0.000000000000e+00 
5.795000000000e+01 3.000000000000e+00 2.000030000000e+05 2.000000000000e+05 2.000000000000e-01 8.000000000000e-01 0.000000000000e+00 0.000000000000e+00 0.000000000000e+00 0.000000000000e+00 
6.100000000000e+01 3.000000000000e+00 2.000030000000e+05 2.000000000000e+05 2.000000000000e-01 8.000000000000e-01 0.000000000000e+00 0.000000000000e+00 0.000000000000e+00 0.000000000000e+00 
6.405000000000e+01 3.000000000000e+00 2.000030000000e+05 2.000000000000e+05 2.000000000000e-01 8.000000000000e-01 0.000000000000e+00 0.000000000000e+00 0.000000000000e+00 0.000000000000e+00 
6.710000000000e+01 3.000000000000e+00 2.000030000000e+05 2.000000000000e+05 2.000000000000e-01 8.000000000000e-01 0.000000000000e+00 0.000000000000e+00 0.000000000000e+00 0.000000000000e+00 
7.015000000000e+01 3.000000000000e+00 2.000030000000e+05 2.000000000000e+05 2.000000000000e-01 8.000000000000e-01 0.000000000000e+00 0.000000000000e+00 0.000000000000e+00 0.000000000000e+00 
7.320000000000e+01 3.000000000000e+00 2.000030000000e+05 2.000000000000e+05 2.000000000000e-01 8.000000000000e-01 0.000000000000e+00 0.000000000000e+00 0.000000000000e+00 0.000000000000e+00 
7.625000000000e+01 3.000000000000e+00 2.000030000000e+05 2.000000000000e+05 2.000000000000e-01 8.000000000000e-01 0.000000000000e+00 0.000000000000e+00 0.000000000000e+00 0.000000000000e+00 
7.930000000000e+01 3.000000000000e+00 2.000030000000e+05 2.000000000000e+05 2.000000000000e-01 8.000000000000e-01 0.000000000000e+00 0.000000000000e+00 0.000000000000e+00 0.000000000000e+00 
8.235000000000e+01 3.000000000000e+00 2.000030000000e+05 2.000000000000e+05 2.000000000000e-01 8.000000000000e-01 0.000000000000e+00 0.000000000000e+00 0.000000000000e+00 0.000000000000e+00 
8.540000000000e+01 3.000000000000e+00 2.000030000000e+05 2.000000000000e+05 2.000000000000e-01 8.000000000000e-01 0.000000000000e+00 0.000000000000e+00 0.000000000000e+00 0.000000000000e+00 
8.845000000000e+01 3.000000000000e+00 2.000030000000e+05 2.000000000000e+05 2.000000000000e-01 8.000000000000e-01 0.000000000000e+00 0.000000000000e+00 0.000000000000e+00 0.000000000000e+00 
9.150000000000e+01 3.000000000000e+00 2.000030000000e+05 2.000000000000e+05 2.000000000000e-01 8.000000000000e-01 0.000000000000e+00 0.000000000000e+00 0.000000000000e+00 0.000000000000e+00 
9.455000000000e+01 3.000000000000e+00 2.000030000000e+05 2.000000000000e+05 2.000000000000e-01 8.000000000000e-01 0.000000000000e+00 0.000000000000e+00 0.000000000000e+00 0.000000000000e+00 
9.765000000000e+01 3.000000000000e+00 2.000030000000e+05 2.000000000000e+05 2.000000000000e-01 8.000000000000e-01 0.000000000000e+00 0.000000000000e+00 0.000000000000e+00 0.000000000000e+00 
1.006500000000e+02 3.000000000000e+00 2.000030000000e+05 2.000000000000e+05 2.000000000000e-01 8.000000000000e-01 0.000000000000e+00 0.000000000000e+00 0.000000000000e+00 0.000000000000e+00 
1.037500000000e+02 3.000000000000e+00 2.000030000000e+05 2.000000000000e+05 2.000000000000e-01 8.000000000000e-01 0.000000000000e+00 0.000000000000e+00 0.000000000000e+00 0.000000000000e+00 
1.067500000000e+02 3.000000000000e+00 2.000030000000e+05 2.000000000000e+05 2.000000000000e-01 8.000000000000e-01 0.000000000000e+00 0.000000000000e+00 0.000000000000e+00 0.000000000000e+00 
1.097500000000e+02 3.000000000000e+00 2.000030000000e+05 2.000000000000e+05 2.000000000000e-01 8.000000000000e-01 0.000000000000e+00 0.000000000000e+00 0.000000000000e+00 0.000000000000e+00 
1.128500000000e+02 3.000000000000e+00 2.000030000000e+05 2.000000000000e+05 2.000000000000e-01 8.000000000000e-01 0.000000000000e+00 0.000000000000e+00 0.000000000000e+00 0.000000000000e+00 
1.158500000000e+02 3.000000000000e+00 2.000030000000e+05 2.000000000000e+05 2.000000000000e-01 8.000000000000e-01 0.000000000000e+00 0.000000000000e+00 0.000000000000e+00 0.000000000000e+00 
1.189500000000e+02 3.000000000000e+00 2.000030000000e+05 2.000000000000e+05 2.000000000000e-01 8.000000000000e-01 0.000000000000e+00 0.000000000000e+00 0.000000000000e+00 0.000000000000e+00 
1.219500000000e+02 3.000000000000e+00 2.000030000000e+05 2.000000000000e+05 2.000000000000e-01 8.000000000000e-01 0.000000000000e+00 0.000000000000e+00 0.000000000000e+00 0.000000000000e+00 
1.250500000000e+02 3.000000000000e+00 2.000030000000e+05 2.000000000000e+05 2.000000000000e-01 8.000000000000e-01 0.000000000000e+00 0.000000000000e+00 0.000000000000e+00 0.000000000000e+00 
1.280500000000e+02 3.000000000000e+00 2.000030000000e+05 2.000000000000e+05 2.000000000000e-01 8.000000000000e-01 0.000000000000e+00 0.000000000000e+00 0.000000000000e+00 0.000000000000e+00 
1.311500000000e+02 3.000000000000e+00 2.000030000000e+05 2.000000000000e+05 2.000000000000e-01 8.000000000000e-01 0.000000000000e+00 0.000000000000e+00 0.000000000000e+00 0.000000000000e+00 
1.342500000000e+02 3.000000000000e+00 2.000030000000e+05 2.000000000000e+05 2.000000000000e-01 8.000000000000e-01 0.000000000000e+00 0.000000000000e+00 0.000000000000e+00 0.000000000000e+00 
1.372500000000e+02 3.000000000000e+00 2.000030000000e+05 2.000000000000e+05 2.000000000000e-01 8.000000000000e-01 0.000000000000e+00 0.000000000000e+00 0.000000000000e+00 0.000000000000e+00 
1.402500000000e+02 3.000000000000e+00 2.000030000000e+05 2.000000000000e+05 2.000000000000e-01 8.000000000000e-01 0.000000000000e+00 0.000000000000e+00 0.000000000000e+00 0.000000000000e+00 
1.433500000000e+02 3.000000000000e+00 2.000030000000e+05 2.000000000000e+05 2.000000000000e-01 8.000000000000e-01 0.000000000000e+00 0.000000000000e+00 0.000000000000e+00 0.000000000000e+00 
1.463500000000e+02 3.000000000000e+00 2.000030000000e+05 2.000000000000e+05 2.000000000000e-01 8.000000000000e-01 0.000000000000e+00 0.000000000000e+00 0.000000000000e+00 0.000000000000e+00 
1.494500000000e+02 3.000000000000e+00 2.000030000000e+05 2.000000000000e+05 2.000000000000e-01 8.000000000000e-01 0.000000000000e+00 0.000000000000e+00 0.000000000000e+00 0.000000000000e+00 
1.525500000000e+02 3.000000000000e+00 2.000030000000e+05 2.000000000000e+05 2.000000000000e-01 8.000000000000e-01 0.000000000000e+00 0.000000000000e+00 0.000000000000e+00 0.000000000000e+00 
1.555500000000e+02 3.000000000000e+00 2.000030000000e+05 2.000000000000e+05 2.000000000000e-01 8.000000000000e-01 0.000000000000e+00 0.000000000000e+00 0.000000000000e+00 0.000000000000e+00 
1.585500000000e+02 3.000000000000e+00 2.000030000000e+05 2.000000000000e+05 2.000000000000e-01 8.000000000000e-01 0.000000000000e+00 0.000000000000e+00 0.000000000000e+00 0.000000000000e+00 
1.616500000000e+02 3.000000000000e+00 2.000030000000e+05 2.000000000000e+05 2.000000000000e-01 8.000000000000e-01 0.000000000000e+00 0.000000000000e+00 0.000000000000e+00 0.000000000000e+00 
1.647500000000e+02 3.000000000000e+00 2.000030000000e+05 2.000000000000e+05 2.000000000000e-01 8.000000000000e-01 0.000000000000e+00 0.000000000000e+00 0.000000000000e+00 0.000000000000e+00 
1.677500000000e+02 3.000000000000e+00 2.000030000000e+05 2.000000000000e+05 2.000000000000e-01 8.000000000000e-01 0.000000000000e+00 0.000000000000e+00 0.000000000000e+00 0.000000000000e+00 
1.707500000000e+02 3.000000000000e+00 2.000030000000e+05 2.000000000000e+05 2.000000000000e-01 8.000000000000e-01 0.000000000000e+00 0.000000000000e+00 0.000000000000e+00 0.000000000000e+00 
1.738500000000e+02 3.000000000000e+00 2.000030000000e+05 2.000000000000e+05 2.000000000000e-01 8.000000000000e-01 0.000000000000e+00 0.000000000000e+00 0.000000000000e+00 0.000000000000e+00 
1.768500000000e+02 3.000000000000e+00 2.000030000000e+05 2.000000000000e+05 2.000000000000e-01 8.000000000000e-01 0.000000000000e+00 0.000000000000e+00 0.000000000000e+00 0.000000000000e+00 
1.799500000000e+02 3.000000000000e+00 2.000030000000e+05 2.000000000000e+05 2.000000000000e-01 8.000000000000e-01 0.000000000000e+00 0.000000000000e+00 0.000000000000e+00 0.000000000000e+00 
1.830500000000e+02 3.000000000000e+00 2.000030000000e+05 2.000000000000e+05 2.000000000000e-01 8.000000000000e-01 0.000000000000e+00 0.000000000000e+00 0.000000000000e+00 0.000000000000e+00 
1.860500000000e+02 3.000000000000e+00 2.000030000000e+05 2.000000000000e+05 2.000000000000e-01 8.000000000000e-01 0.000000000000e+00 0.000000000000e+00 0.000000000000e+00 0.000000000000e+00 
1.890500000000e+02 3.000000000000e+00 2.000030000000e+05 2.000000000000e+05 2.000000000000e-01 8.000000000000e-01 0.000000000000e+00 0.000000000000e+00 0.000000000000e+00 0.000000000000e+00 
1.921500000000e+02 3.000000000000e+00 2.000030000000e+05 2.000000000000e+05 2.000000000000e-01 8.000000000000e-01 0.000000000000e+00 0.000000000000e+00 0.000000000000e+00 0.000000000000e+00 
1.952500000000e+02 3.000000000000e+00 2.000030000000e+05 2.000000000000e+05 2.000000000000e-01 8.000000000000e-01 0.000000000000e+00 0.000000000000e+00 0.000000000000e+00 0.000000000000e+00 
1.982500000000e+02 3.000000000000e+00 2.000030000000e+05 2.000000000000e+05 2.000000000000e-01 8.000000000000e-01 0.000000000000e+00 0.000000000000e+00 0.000000000000e+00 0.000000000000e+00 
2.012500000000e+02 3.000000000000e+00 2.000030000000e+05 2.000000000000e+05 2.000000000000e-01 8.000000000000e-01 0.000000000000e+00 0.000000000000e+00 0.000000000000e+00 0.000000000000e+00 
2.043500000000e+02 3.000000000000e+00 2.000030000000e+05 2.000000000000e+05 2.000000000000e-01 8.000000000000e-01 0.000000000000e+00 0.000000000000e+00 0.000000000000e+00 0.000000000000e+00 
2.073500000000e+02 3.000000000000e+00 2.000030000000e+05 2.000000000000e+05 2.000000000000e-01 8.000000000000e-01 0.000000000000e+00 0.000000000000e+00 0.000000000000e+00 0.000000000000e+00 
2.104500000000e+02 3.000000000000e+00 2.000030000000e+05 2.000000000000e+05 2.000000000000e-01 8.000000000000e-01 0.000000000000e+00 0.000000000000e+00 0.000000000000e+00 0.000000000000e+00 
2.135500000000e+02 3.000000000000e+00 2.000030000000e+05 2.000000000000e+05 2.000000000000e-01 8.000000000000e-01 0.000000000000e+00 0.000000000000e+00 0.000000000000e+00 0.000000000000e+00 
2.165500000000e+02 3.000000000000e+00 2.000030000000e+05 2.000000000000e+05 2.000000000000e-01 8.000000000000e-01 0.000000000000e+00 0.000000000000e+00 0.000000000000e+00 0.000000000000e+00 
2.195500000000e+02 3.000000000000e+00 2.000030000000e+05 2.000000000000e+05 2.000000000000e-01 8.000000000000e-01 0.000000000000e+00 0.000000000000e+00 0.000000000000e+00 0.000000000000e+00 
2.226500000000e+02 3.000000000000e+00 2.000030000000e+05 2.000000000000e+05 2.000000000000e-01 8.000000000000e-01 0.000000000000e+00 0.000000000000e+00 0.000000000000e+00 0.000000000000e+00 
2.257500000000e+02 3.000000000000e+00 2.000030000000e+05 2.000000000000e+05 2.000000000000e-01 8.000000000000e-01 0.000000000000e+00 0.000000000000e+00 0.000000000000e+00 0.000000000000e+00 
2.287500000000e+02 3.000000000000e+00 2.000030000000e+05 2.000000000000e+05 2.000000000000e-01 8.000000000000e-01 0.000000000000e+00 0.000000000000e+00 0.000000000000e+00 0.000000000000e+00 
2.317500000000e+02 3.000000000000e+00 2.000030000000e+05 2.000000000000e+05 2.000000000000e-01 8.000000000000e-01 0.000000000000e+00 0.000000000000e+00 0.000000000000e+00 0.000000000000e+00 
2.348500000000e+02 3.000000000000e+00 2.000030000000e+05 2.000000000000e+05 2.000000000000e-01 8.000000000000e-01 0.000000000000e+00 0.000000000000e+00 0.000000000000e+00 0.000000000000e+00 
2.378500000000e+02 3.000000000000e+00 2.000030000000e+05 2.000000000000e+05 2.000000000000e-01 8.000000000000e-01 0.000000000000e+00 0.000000000000e+00 0.000000000000e+00 0.000000000000e+00 
2.409500000000e+02 3.000000000000e+00 2.000030000000e+05 2.000000000000e+05 2.000000000000e-01 8.000000000000e-01 0.000000000000e+00 0.000000000000e+00 0.000000000000e+00 0.000000000000e+00 
2.440500000000e+02 3.000000000000e+00 2.000030000000e+05 2.000000000000e+05 2.000000000000e-01 8.000000000000e-01 0.000000000000e+00 0.000000000000e+00 0.000000000000e+00 0.000000000000e+00 
2.470500000000e+02 3.000000000000e+00 2.000030000000e+05 2.000000000000e+05 2.000000000000e-01 8.000000000000e-01 0.000000000000e+00 0.000000000000e+00 0.000000000000e+00 0.000000000000e+00 
2.500500000000e+02 3.000000000000e+00 2.000030000000e+05 2.000000000000e+05 2.000000000000e-01 8.000000000000e-01 0.000000000000e+00 0.000000000000e+00 0.000000000000e+00 0.000000000000e+00 
2.531500000000e+02 3.000000000000e+00 2.000030000000e+05 2.000000000000e+05 2.000000000000e-01 8.000000000000e-01 0.000000000000e+00 0.000000000000e+00 0.000000000000e+00 0.000000000000e+00 
2.562500000000e+02 3.000000000000e+00 2.000030000000e+05 2.000000000000e+05 2.000000000000e-01 8.000000000000e-01 0.000000000000e+00 0.000000000000e+00 0.000000000000e+00 0.000000000000e+00 
2.592500000000e+02 3.000000000000e+00 2.000030000000e+05 2.000000000000e+05 2.000000000000e-01 8.000000000000e-01 0.000000000000e+00 0.000000000000e+00 0.000000000000e+00 0.000000000000e+00 
2.623500000000e+02 3.000000000000e+00 2.000030000000e+05 2.000000000000e+05 2.000000000000e-01 8.000000000000e-01 0.000000000000e+00 0.000000000000e+00 0.000000000000e+00 0.000000000000e+00 
2.653500000000e+02 3.000000000000e+00 2.000030000000e+05 2.000000000000e+05 2.000000000000e-01 8.000000000000e-01 0.000000000000e+00 0.000000000000e+00 0.000000000000e+00 0.000000000000e+00 
2.683500000000e+02 3.000000000000e+00 2.000030000000e+05 2.000000000000e+05 2.000000000000e-01 8.000000000000e-01 0.000000000000e+00 0.000000000000e+00 0.000000000000e+00 0.000000000000e+00 
2.714500000000e+02 3.000000000000e+00 2.000030000000e+05 2.000000000000e+05 2.000000000000e-01 8.000000000000e-01 0.000000000000e+00 0.000000000000e+00 0.000000000000e+00 0.000000000000e+00 
2.744500000000e+02 3.000000000000e+00 2.000030000000e+05 2.000000000000e+05 2.000000000000e-01 8.000000000000e-01 0.000000000000e+00 0.000000000000e+00 0.000000000000e+00 0.000000000000e+00 
2.775500000000e+02 3.000000000000e+00 2.000030000000e+05 2.000000000000e+05 2.000000000000e-01 8.000000000000e-01 0.000000000000e+00 0.000000000000e+00 0.000000000000e+00 0.000000000000e+00 
2.805500000000e+02 3.000000000000e+00 2.000030000000e+05 2.000000000000e+05 2.000000000000e-01 8.000000000000e-01 0.000000000000e+00 0.000000000000e+00 0.000000000000e+00 0.000000000000e+00 
2.836500000000e+02 3.000000000000e+00 2.000030000000e+05 2.000000000000e+05 2.000000000000e-01 8.000000000000e-01 0.000000000000e+00 0.000000000000e+00 0.000000000000e+00 0.000000000000e+00 
2.867500000000e+02 3.000000000000e+00 2.000030000000e+05 2.000000000000e+05 2.000000000000e-01 8.000000000000e-01 0.000000000000e+00 0.000000000000e+00 0.000000000000e+00 0.000000000000e+00 
2.897500000000e+02 3.000000000000e+00 2.000030000000e+05 2.000000000000e+05 2.000000000000e-01 8.000000000000e-01 0.000000000000e+00 0.000000000000e+00 0.000000000000e+00 0.000000000000e+00 
2.928500000000e+02 3.000000000000e+00 2.000030000000e+05 2.000000000000e+05 2.000000000000e-01 8.000000000000e-01 0.000000000000e+00 0.000000000000e+00 0.000000000000e+00 0.000000000000e+00 
2.958500000000e+02 3.000000000000e+00 2.000030000000e+05 2.000000000000e+05 2.000000000000e-01 8.000000000000e-01 0.000000000000e+00 0.000000000000e+00 0.000000000000e+00 0.000000000000e+00 
2.988500000000e+02 3.000000000000e+00 2.000030000000e+05 2.000000000000e+05 2.000000000000e-01 8.000000000000e-01 0.000000000000e+00 0.000000000000e+00 0.000000000000e+00 0.000000000000e+00 
3.019500000000e+02 3.000000000000e+00 2.000030000000e+05 2.000000000000e+05 2.000000000000e-01 8.000000000000e-01 0.000000000000e+00 0.000000000000e+00 0.000000000000e+00 0.000000000000e+00 
 TITLE = "Profiles along polylines"
 VARIABLES = "DIST" "PRESSURE1" "PRESSURE2" "PRESSURE_W" "SATURATION1" SATURATION2 "VELOCITY_X1" "VELOCITY_Y1" "VELOCITY_X2" "VELOCITY_Y2" 
 ZONE T="TIME=1.000000000000e+00"
0.000000000000e+00 2.307692310000e-01 2.000002307692e+05 2.000000000000e+05 6.257090092830e-01 3.742909907170e-01 7.034863313344e-02 0.000000000000e+00 -1.589037863044e-01 0.000000000000e+00 
3.050000000000e+00 1.391348912979e+00 2.000013045051e+05 1.999999131562e+05 4.966910499987e-01 5.033089500013e-01 5.671586673493e-02 0.000000000000e+00 -1.366821592874e-01 0.000000000000e+00 
6.100000000000e+00 2.625374124425e+00 2.000013865308e+05 1.999987611566e+05 2.971600335273e-01 7.028399664727e-01 2.155546921735e-02 0.000000000000e+00 -5.726436088922e-02 0.000000000000e+00 
9.150000000000e+00 2.999951385395e+00 2.000013865572e+05 1.999983866058e+05 2.133252166894e-01 7.866747833106e-01 1.391904921094e-05 0.000000000000e+00 -3.409330814374e-05 0.000000000000e+00 
1.220000000000e+01 3.000000000000e+00 2.000013865572e+05 1.999983865572e+05 2.000017285193e-01 7.999982714807e-01 6.886033108458e-14 0.000000000000e+00 2.891739932657e-09 0.000000000000e+00 
1.525000000000e+01 3.000000000000e+00 2.000013865572e+05 1.999983865572e+05 2.000000000000e-01 8.000000000000e-01 2.891756594181e-18 0.000000000000e+00 2.828892320395e-09 0.000000000000e+00 
1.830000000000e+01 3.000000000000e+00 2.000013865572e+05 1.999983865572e+05 2.000000000000e-01 8.000000000000e-01 2.828892320395e-18 0.000000000000e+00 2.766028046608e-09 0.000000000000e+00 
2.135000000000e+01 3.000000000000e+00 2.000013865572e+05 1.999983865572e+05 2.000000000000e-01 8.000000000000e-01 2.766028046608e-18 0.000000000000e+00 2.766028046608e-09 0.000000000000e+00 
2.440000000000e+01 3.000000000000e+00 2.000013865571e+05 1.999983865571e+05 2.000000000000e-01 8.000000000000e-01 2.703163772821e-18 0.000000000000e+00 2.703163772821e-09 0.000000000000e+00 
2.745000000000e+01 3.000000000000e+00 2.000013865571e+05 1.999983865571e+05 2.000000000000e-01 8.000000000000e-01 2.640299499035e-18 0.000000000000e+00 2.640299499035e-09 0.000000000000e+00 
3.050000000000e+01 3.000000000000e+00 2.000013865571e+05 1.999983865571e+05 2.000000000000e-01 8.000000000000e-01 2.514570951462e-18 0.000000000000e+00 2.514570951462e-09 0.000000000000e+00 
3.355000000000e+01 3.000000000000e+00 2.000013865571e+05 1.999983865571e+05 2.000000000000e-01 8.000000000000e-01 2.325978130102e-18 0.000000000000e+00 2.325978130102e-09 0.000000000000e+00 
3.660000000000e+01 3.000000000000e+00 2.000013865571e+05 1.999983865571e+05 2.000000000000e-01 8.000000000000e-01 2.200249582529e-18 0.000000000000e+00 2.200249582529e-09 0.000000000000e+00 
3.965000000000e+01 3.000000000000e+00 2.000013865571e+05 1.999983865571e+05 2.000000000000e-01 8.000000000000e-01 2.137385308743e-18 0.000000000000e+00 2.137385308743e-09 0.000000000000e+00 
4.270000000000e+01 3.000000000000e+00 2.000013865571e+05 1.999983865571e+05 2.000000000000e-01 8.000000000000e-01 2.137385308743e-18 0.000000000000e+00 2.137385308743e-09 0.000000000000e+00 
4.575000000000e+01 3.000000000000e+00 2.000013865571e+05 1.999983865571e+05 2.000000000000e-01 8.000000000000e-01 2.011656761169e-18 0.000000000000e+00 2.011656761169e-09 0.000000000000e+00 
4.880000000000e+01 3.000000000000e+00 2.000013865571e+05 1.999983865571e+05 2.000000000000e-01 8.000000000000e-01 1.885928213596e-18 0.000000000000e+00 1.885928213596e-09 0.000000000000e+00 
5.185000000000e+01 3.000000000000e+00 2.000013865571e+05 1.999983865571e+05 2.000000000000e-01 8.000000000000e-01 1.885928213596e-18 0.000000000000e+00 1.885928213596e-09 0.000000000000e+00 
5.490000000000e+01 3.000000000000e+00 2.000013865571e+05 1.999983865571e+05 2.000000000000e-01 8.000000000000e-01 1.760199666023e-18 0.000000000000e+00 1.760199666023e-09 0.000000000000e+00 
5.795000000000e+01 3.000000000000e+00 2.000013865571e+05 1.999983865571e+05 2.000000000000e-01 8.000000000000e-01 1.634471118450e-18 0.000000000000e+00 1.634471118450e-09 0.000000000000e+00 
6.100000000000e+01 3.000000000000e+00 2.000013865571e+05 1.999983865571e+05 2.000000000000e-01 8.000000000000e-01 1.571606844664e-18 0.000000000000e+00 1.571606844664e-09 0.000000000000e+00 
6.405000000000e+01 3.000000000000e+00 2.000013865571e+05 1.999983865571e+05 2.000000000000e-01 8.000000000000e-01 1.383014023304e-18 0.000000000000e+00 1.383014023304e-09 0.000000000000e+00 
6.710000000000e+01 3.000000000000e+00 2.000013865571e+05 1.999983865571e+05 2.000000000000e-01 8.000000000000e-01 1.257285475731e-18 0.000000000000e+00 1.257285475731e-09 0.000000000000e+00 
7.015000000000e+01 3.000000000000e+00 2.000013865571e+05 1.999983865571e+05 2.000000000000e-01 8.000000000000e-01 1.131556928158e-18 0.000000000000e+00 1.131556928158e-09 0.000000000000e+00 
7.320000000000e+01 3.000000000000e+00 2.000013865571e+05 1.999983865571e+05 2.000000000000e-01 8.000000000000e-01 1.068692654371e-18 0.000000000000e+00 1.068692654371e-09 0.000000000000e+00 
7.625000000000e+01 3.000000000000e+00 2.000013865571e+05 1.999983865571e+05 2.000000000000e-01 8.000000000000e-01 1.194421201944e-18 0.000000000000e+00 1.194421201944e-09 0.000000000000e+00 
7.930000000000e+01 3.000000000000e+00 2.000013865571e+05 1.999983865571e+05 2.000000000000e-01 8.000000000000e-01 1.257285475731e-18 0.000000000000e+00 1.257285475731e-09 0.000000000000e+00 
8.235000000000e+01 3.000000000000e+00 2.000013865571e+05 1.999983865571e+05 2.000000000000e-01 8.000000000000e-01 1.131556928158e-18 0.000000000000e+00 1.068692654371e-09 0.000000000000e+00 
8.540000000000e+01 3.000000000000e+00 2.000013865571e+05 1.999983865571e+05 2.000000000000e-01 8.000000000000e-01 9.429641067982e-19 0.000000000000e+00 9.429641067982e-10 0.000000000000e+00 
8.845000000000e+01 3.000000000000e+00 2.000013865571e+05 1.999983865571e+05 2.000000000000e-01 8.000000000000e-01 8.800998330116e-19 0.000000000000e+00 9.429641067982e-10 0.000000000000e+00 
9.150000000000e+01 3.000000000000e+00 2.000013865571e+05 1.999983865571e+05 2.000000000000e-01 8.000000000000e-01 8.800998330116e-19 0.000000000000e+00 8.800998330116e-10 0.000000000000e+00 
9.455000000000e+01 3.000000000000e+00 2.000013865571e+05 1.999983865571e+05 2.000000000000e-01 8.000000000000e-01 7.543712854385e-19 0.000000000000e+00 7.543712854385e-10 0.000000000000e+00 
9.765000000000e+01 3.000000000000e+00 2.000013865571e+05 1.999983865571e+05 2.000000000000e-01 8.000000000000e-01 6.286427378654e-19 0.000000000000e+00 6.286427378654e-10 0.000000000000e+00 
1.006500000000e+02 3.000000000000e+00 2.000013865571e+05 1.999983865571e+05 2.000000000000e-01 8.000000000000e-01 5.343463271856e-19 0.000000000000e+00 5.657784640789e-10 0.000000000000e+00 
1.037500000000e+02 3.000000000000e+00 2.000013865571e+05 1.999983865571e+05 2.000000000000e-01 8.000000000000e-01 5.343463271856e-19 0.000000000000e+00 5.657784640789e-10 0.000000000000e+00 
1.067500000000e+02 3.000000000000e+00 2.000013865571e+05 1.999983865571e+05 2.000000000000e-01 8.000000000000e-01 5.657784640789e-19 0.000000000000e+00 5.657784640789e-10 0.000000000000e+00 
1.097500000000e+02 3.000000000000e+00 2.000013865571e+05 1.999983865571e+05 2.000000000000e-01 8.000000000000e-01 5.343463271856e-19 0.000000000000e+00 5.343463271856e-10 0.000000000000e+00 
1.128500000000e+02 3.000000000000e+00 2.000013865571e+05 1.999983865571e+05 2.000000000000e-01 8.000000000000e-01 5.343463271856e-19 0.000000000000e+00 5.343463271856e-10 0.000000000000e+00 
1.158500000000e+02 3.000000000000e+00 2.000013865571e+05 1.999983865571e+05 2.000000000000e-01 8.000000000000e-01 5.029141902924e-19 0.000000000000e+00 5.029141902924e-10 0.000000000000e+00 
1.189500000000e+02 3.000000000000e+00 2.000013865571e+05 1.999983865571e+05 2.000000000000e-01 8.000000000000e-01 4.400499165058e-19 0.000000000000e+00 4.400499165058e-10 0.000000000000e+00 
1.219500000000e+02 3.000000000000e+00 2.000013865571e+05 1.999983865571e+05 2.000000000000e-01 8.000000000000e-01 3.143213689327e-19 0.000000000000e+00 3.143213689327e-10 0.000000000000e+00 
1.250500000000e+02 3.000000000000e+00 2.000013865571e+05 1.999983865571e+05 2.000000000000e-01 8.000000000000e-01 2.514570951462e-19 0.000000000000e+00 2.514570951462e-10 0.000000000000e+00 
1.280500000000e+02 3.000000000000e+00 2.000013865571e+05 1.999983865571e+05 2.000000000000e-01 8.000000000000e-01 1.571606844664e-19 0.000000000000e+00 1.571606844664e-10 0.000000000000e+00 
1.311500000000e+02 3.000000000000e+00 2.000013865571e+05 1.999983865571e+05 2.000000000000e-01 8.000000000000e-01 9.429641067982e-20 0.000000000000e+00 1.257285475731e-10 0.000000000000e+00 
1.342500000000e+02 3.000000000000e+00 2.000013865571e+05 1.999983865571e+05 2.000000000000e-01 8.000000000000e-01 1.257285475731e-19 0.000000000000e+00 1.571606844664e-10 0.000000000000e+00 
1.372500000000e+02 3.000000000000e+00 2.000013865571e+05 1.999983865571e+05 2.000000000000e-01 8.000000000000e-01 1.885928213596e-19 0.000000000000e+00 1.885928213596e-10 0.000000000000e+00 
1.402500000000e+02 3.000000000000e+00 2.000013865571e+05 1.999983865571e+05 2.000000000000e-01 8.000000000000e-01 2.514570951462e-19 0.000000000000e+00 2.514570951462e-10 0.000000000000e+00 
1.433500000000e+02 3.000000000000e+00 2.000013865571e+05 1.999983865571e+05 2.000000000000e-01 8.000000000000e-01 2.514570951462e-19 0.000000000000e+00 2.514570951462e-10 0.000000000000e+00 
1.463500000000e+02 3.000000000000e+00 2.000013865571e+05 1.999983865571e+05 2.000000000000e-01 8.000000000000e-01 3.143213689327e-19 0.000000000000e+00 2.828892320395e-10 0.000000000000e+00 
1.494500000000e+02 3.000000000000e+00 2.000013865571e+05 1.999983865571e+05 2.000000000000e-01 8.000000000000e-01 2.828892320395e-19 0.000000000000e+00 2.828892320395e-10 0.000000000000e+00 
1.525500000000e+02 3.000000000000e+00 2.000013865571e+05 1.999983865571e+05 2.000000000000e-01 8.000000000000e-01 2.200249582529e-19 0.000000000000e+00 2.514570951462e-10 0.000000000000e+00 
1.555500000000e+02 3.000000000000e+00 2.000013865571e+05 1.999983865571e+05 2.000000000000e-01 8.000000000000e-01 2.514570951462e-19 0.000000000000e+00 2.514570951462e-10 0.000000000000e+00 
1.585500000000e+02 3.000000000000e+00 2.000013865571e+05 1.999983865571e+05 2.000000000000e-01 8.000000000000e-01 2.514570951462e-19 0.000000000000e+00 2.514570951462e-10 0.000000000000e+00 
1.616500000000e+02 3.000000000000e+00 2.000013865571e+05 1.999983865571e+05 2.000000000000e-01 8.000000000000e-01 3.143213689327e-19 0.000000000000e+00 3.457535058260e-10 0.000000000000e+00 