VARIABLES = "X","Y","Z","VX","VY","VZ",POROSITY,PERMEABILITY
ZONE T="0.000000000000e+00s", I=20, F=POINT, C=BLACK
2.500000000000e-03 0.000000000000e+00 0.000000000000e+00 0.000000000000e+00 0.000000000000e+00 0.000000000000e+00 2.000000000000e-01 1.157000000000e-12 
7.500000000000e-03 0.000000000000e+00 0.000000000000e+00 0.000000000000e+00 0.000000000000e+00 0.000000000000e+00 2.000000000000e-01 1.157000000000e-12 
1.250000000000e-02 0.000000000000e+00 0.000000000000e+00 0.000000000000e+00 0.000000000000e+00 0.000000000000e+00 2.000000000000e-01 1.157000000000e-12 
1.750000000000e-02 0.000000000000e+00 0.000000000000e+00 0.000000000000e+00 0.000000000000e+00 0.000000000000e+00 2.000000000000e-01 1.157000000000e-12 
2.250000000000e-02 0.000000000000e+00 0.000000000000e+00 0.000000000000e+00 0.000000000000e+00 0.000000000000e+00 2.000000000000e-01 1.157000000000e-12 
2.750000000000e-02 0.000000000000e+00 0.000000000000e+00 0.000000000000e+00 0.000000000000e+00 0.000000000000e+00 2.000000000000e-01 1.157000000000e-12 
3.250000000000e-02 0.000000000000e+00 0.000000000000e+00 0.000000000000e+00 0.000000000000e+00 0.000000000000e+00 2.000000000000e-01 1.157000000000e-12 
3.750000000000e-02 0.000000000000e+00 0.000000000000e+00 0.000000000000e+00 0.000000000000e+00 0.000000000000e+00 2.000000000000e-01 1.157000000000e-12 
4.250000000000e-02 0.000000000000e+00 0.000000000000e+00 0.000000000000e+00 0.000000000000e+00 0.000000000000e+00 2.000000000000e-01 1.157000000000e-12 
4.750000000000e-02 0.000000000000e+00 0.000000000000e+00 0.000000000000e+00 0.000000000000e+00 0.000000000000e+00 2.000000000000e-01 1.157000000000e-12 
5.250000000000e-02 0.000000000000e+00 0.000000000000e+00 0.000000000000e+00 0.000000000000e+00 0.000000000000e+00 2.000000000000e-01 1.157000000000e-12 
5.750000000000e-02 0.000000000000e+00 0.000000000000e+00 0.000000000000e+00 0.000000000000e+00 0.000000000000e+00 2.000000000000e-01 1.157000000000e-12 
6.250000000000e-02 0.000000000000e+00 0.000000000000e+00 0.000000000000e+00 0.000000000000e+00 0.000000000000e+00 2.000000000000e-01 1.157000000000e-12 
6.750000000000e-02 0.000000000000e+00 0.000000000000e+00 0.000000000000e+00 0.000000000000e+00 0.000000000000e+00 2.000000000000e-01 1.157000000000e-12 
7.250000000000e-02 0.000000000000e+00 0.000000000000e+00 0.000000000000e+00 0.000000000000e+00 0.000000000000e+00 2.000000000000e-01 1.157000000000e-12 
7.750000000000e-02 0.000000000000e+00 0.000000000000e+00 0.000000000000e+00 0.000000000000e+00 0.000000000000e+00 2.000000000000e-01 1.157000000000e-12 
8.250000000000e-02 0.000000000000e+00 0.000000000000e+00 0.000000000000e+00 0.000000000000e+00 0.000000000000e+00 2.000000000000e-01 1.157000000000e-12 
8.750000000000e-02 0.000000000000e+00 0.000000000000e+00 0.000000000000e+00 0.000000000000e+00 0.000000000000e+00 2.000000000000e-01 1.157000000000e-12 
9.250000000000e-02 0.000000000000e+00 0.000000000000e+00 0.000000000000e+00 0.000000000000e+00 0.000000000000e+00 2.000000000000e-01 1.157000000000e-12 
9.750000000000e-02 0.000000000000e+00 0.000000000000e+00 0.000000000000e+00 0.000000000000e+00 0.000000000000e+00 2.000000000000e-01 1.157000000000e-12 
VARIABLES = "X","Y","Z","VX","VY","VZ",POROSITY,PERMEABILITY
ZONE T="2.475000000000e+05s", I=20, F=POINT, C=BLACK
2.500000000000e-03 0.000000000000e+00 0.000000000000e+00 2.997685200000e-06 0.000000000000e+00 0.000000000000e+00 2.997107011070e-01 5.081303258066e-12 
7.500000000000e-03 0.000000000000e+00 0.000000000000e+00 2.997685200000e-06 0.000000000000e+00 0.000000000000e+00 2.930591655068e-01 4.661472595244e-12 
1.250000000000e-02 0.000000000000e+00 0.000000000000e+00 2.997685200000e-06 0.000000000000e+00 0.000000000000e+00 2.573701477632e-01 2.861231881627e-12 
1.750000000000e-02 0.000000000000e+00 0.000000000000e+00 2.997685200000e-06 0.000000000000e+00 0.000000000000e+00 2.194109916256e-01 1.604551361658e-12 
2.250000000000e-02 0.000000000000e+00 0.000000000000e+00 2.997685200000e-06 0.000000000000e+00 0.000000000000e+00 2.072792607719e-01 1.311748144583e-12 
2.750000000000e-02 0.000000000000e+00 0.000000000000e+00 2.997685200000e-06 0.000000000000e+00 0.000000000000e+00 2.028479250679e-01 1.215773556758e-12 
3.250000000000e-02 0.000000000000e+00 0.000000000000e+00 2.997685200000e-06 0.000000000000e+00 0.000000000000e+00 2.011514187042e-01 1.180493796837e-12 
3.750000000000e-02 0.000000000000e+00 0.000000000000e+00 2.997685200000e-06 0.000000000000e+00 0.000000000000e+00 2.004893969262e-01 1.166941591392e-12 
4.250000000000e-02 0.000000000000e+00 0.000000000000e+00 2.997685200000e-06 0.000000000000e+00 0.000000000000e+00 2.002285004165e-01 1.161633646850e-12 
4.750000000000e-02 0.000000000000e+00 0.000000000000e+00 2.997685200000e-06 0.000000000000e+00 0.000000000000e+00 2.001244536124e-01 1.159521975439e-12 
5.250000000000e-02 0.000000000000e+00 0.000000000000e+00 2.997685200000e-06 0.000000000000e+00 0.000000000000e+00 2.000820625801e-01 1.158662475412e-12 
5.750000000000e-02 0.000000000000e+00 0.000000000000e+00 2.997685200000e-06 0.000000000000e+00 0.000000000000e+00 2.000640625011e-01 1.158297662056e-12 
6.250000000000e-02 0.000000000000e+00 0.000000000000e+00 2.997685200000e-06 0.000000000000e+00 0.000000000000e+00 2.000557656897e-01 1.158129537527e-12 
6.750000000000e-02 0.000000000000e+00 0.000000000000e+00 2.997685200000e-06 0.000000000000e+00 0.000000000000e+00 2.000514341161e-01 1.158041771016e-12 
7.250000000000e-02 0.000000000000e+00 0.000000000000e+00 2.997685200000e-06 0.000000000000e+00 0.000000000000e+00 2.000486878338e-01 1.157986128375e-12 
7.750000000000e-02 0.000000000000e+00 0.000000000000e+00 2.997685200000e-06 0.000000000000e+00 0.000000000000e+00 2.000464902590e-01 1.157941604612e-12 
8.250000000000e-02 0.000000000000e+00 0.000000000000e+00 2.997685200000e-06 0.000000000000e+00 0.000000000000e+00 2.000440400225e-01 1.157891963366e-12 
8.750000000000e-02 0.000000000000e+00 0.000000000000e+00 2.997685200000e-06 0.000000000000e+00 0.000000000000e+00 2.000399181841e-01 1.157808459511e-12 
9.250000000000e-02 0.000000000000e+00 0.000000000000e+00 2.997685200000e-06 0.000000000000e+00 0.000000000000e+00 2.000317758001e-01 1.157643517428e-12 
9.750000000000e-02 0.000000000000e+00 0.000000000000e+00 2.997685200000e-06 0.000000000000e+00 0.000000000000e+00 2.000219876621e-01 1.157445260742e-12 
VARIABLES = "X","Y","Z","VX","VY","VZ",POROSITY,PERMEABILITY
ZONE T="4.950000000000e+05s", I=20, F=POINT, C=BLACK
2.500000000000e-03 0.000000000000e+00 0.000000000000e+00 2.997685200000e-06 0.000000000000e+00 0.000000000000e+00 2.997107011070e-01 5.081303258066e-12 
7.500000000000e-03 0.000000000000e+00 0.000000000000e+00 2.997685200000e-06 0.000000000000e+00 0.000000000000e+00 2.997107011070e-01 5.081303258066e-12 
1.250000000000e-02 0.000000000000e+00 0.000000000000e+00 2.997685200000e-06 0.000000000000e+00 0.000000000000e+00 2.997107011070e-01 5.081303258066e-12 
1.750000000000e-02 0.000000000000e+00 0.000000000000e+00 2.997685200000e-06 0.000000000000e+00 0.000000000000e+00 2.997107011070e-01 5.081303258066e-12 
2.250000000000e-02 0.000000000000e+00 0.000000000000e+00 2.997685200000e-06 0.000000000000e+00 0.000000000000e+00 2.667252562298e-01 3.266497388550e-12 
2.750000000000e-02 0.000000000000e+00 0.000000000000e+00 2.997685200000e-06 0.000000000000e+00 0.000000000000e+00 2.230318263534e-01 1.701051292043e-12 
3.250000000000e-02 0.000000000000e+00 0.000000000000e+00 2.997685200000e-06 0.000000000000e+00 0.000000000000e+00 2.085337959206e-01 1.339947991344e-12 
3.750000000000e-02 0.000000000000e+00 0.000000000000e+00 2.997685200000e-06 0.000000000000e+00 0.000000000000e+00 2.033119457496e-01 1.225562391587e-12 
4.250000000000e-02 0.000000000000e+00 0.000000000000e+00 2.997685200000e-06 0.000000000000e+00 0.000000000000e+00 2.013255159886e-01 1.184077663877e-12 
4.750000000000e-02 0.000000000000e+00 0.000000000000e+00 2.997685200000e-06 0.000000000000e+00 0.000000000000e+00 2.005535188185e-01 1.168248990247e-12 
5.250000000000e-02 0.000000000000e+00 0.000000000000e+00 2.997685200000e-06 0.000000000000e+00 0.000000000000e+00 2.002502922891e-01 1.162076294162e-12 
5.750000000000e-02 0.000000000000e+00 0.000000000000e+00 2.997685200000e-06 0.000000000000e+00 0.000000000000e+00 2.001300866773e-01 1.159636225453e-12 
6.250000000000e-02 0.000000000000e+00 0.000000000000e+00 2.997685200000e-06 0.000000000000e+00 0.000000000000e+00 2.000816877989e-01 1.158654878705e-12 
6.750000000000e-02 0.000000000000e+00 0.000000000000e+00 2.997685200000e-06 0.000000000000e+00 0.000000000000e+00 2.000616131181e-01 1.158248026422e-12 
7.250000000000e-02 0.000000000000e+00 0.000000000000e+00 2.997685200000e-06 0.000000000000e+00 0.000000000000e+00 2.000526851473e-01 1.158067118935e-12 
7.750000000000e-02 0.000000000000e+00 0.000000000000e+00 2.997685200000e-06 0.000000000000e+00 0.000000000000e+00 2.000480600592e-01 1.157973409270e-12 
8.250000000000e-02 0.000000000000e+00 0.000000000000e+00 2.997685200000e-06 0.000000000000e+00 0.000000000000e+00 2.000446565281e-01 1.157904453480e-12 
8.750000000000e-02 0.000000000000e+00 0.000000000000e+00 2.997685200000e-06 0.000000000000e+00 0.000000000000e+00 2.000401604107e-01 1.157813366626e-12 
9.250000000000e-02 0.000000000000e+00 0.000000000000e+00 2.997685200000e-06 0.000000000000e+00 0.000000000000e+00 2.000318717729e-01 1.157645461465e-12 
9.750000000000e-02 0.000000000000e+00 0.000000000000e+00 2.997685200000e-06 0.000000000000e+00 0.000000000000e+00 2.000220317711e-01 1.157446154104e-12 
VARIABLES = "X","Y","Z","VX","VY","VZ",POROSITY,PERMEABILITY
ZONE T="7.425000000000e+05s", I=20, F=POINT, C=BLACK
2.500000000000e-03 0.000000000000e+00 0.000000000000e+00 2.997685200000e-06 0.000000000000e+00 0.000000000000e+00 2.997107011070e-01 5.081303258066e-12 
7.500000000000e-03 0.000000000000e+00 0.000000000000e+00 2.997685200000e-06 0.000000000000e+00 0.000000000000e+00 2.997107011070e-01 5.081303258066e-12 
1.250000000000e-02 0.000000000000e+00 0.000000000000e+00 2.997685200000e-06 0.000000000000e+00 0.000000000000e+00 2.997107011070e-01 5.081303258066e-12 
1.750000000000e-02 0.000000000000e+00 0.000000000000e+00 2.997685200000e-06 0.000000000000e+00 0.000000000000e+00 2.997107011070e-01 5.081303258066e-12 
2.250000000000e-02 0.000000000000e+00 0.000000000000e+00 2.997685200000e-06 0.000000000000e+00 0.000000000000e+00 2.997107011070e-01 5.081303258066e-12 
2.750000000000e-02 0.000000000000e+00 0.000000000000e+00 2.997685200000e-06 0.000000000000e+00 0.000000000000e+00 2.997107011070e-01 5.081303258066e-12 
3.250000000000e-02 0.000000000000e+00 0.000000000000e+00 2.997685200000e-06 0.000000000000e+00 0.000000000000e+00 2.693022419031e-01 3.385849912295e-12 
3.750000000000e-02 0.000000000000e+00 0.000000000000e+00 2.997685200000e-06 0.000000000000e+00 0.000000000000e+00 2.264659552673e-01 1.796690417095e-12 
4.250000000000e-02 0.000000000000e+00 0.000000000000e+00 2.997685200000e-06 0.000000000000e+00 0.000000000000e+00 2.097056169287e-01 1.366708025968e-12 
4.750000000000e-02 0.000000000000e+00 0.000000000000e+00 2.997685200000e-06 0.000000000000e+00 0.000000000000e+00 2.037455586910e-01 1.234764293922e-12 
5.250000000000e-02 0.000000000000e+00 0.000000000000e+00 2.997685200000e-06 0.000000000000e+00 0.000000000000e+00 2.014891708390e-01 1.187454163047e-12 
5.750000000000e-02 0.000000000000e+00 0.000000000000e+00 2.997685200000e-06 0.000000000000e+00 0.000000000000e+00 2.006143793842e-01 1.169490930065e-12 
6.250000000000e-02 0.000000000000e+00 0.000000000000e+00 2.997685200000e-06 0.000000000000e+00 0.000000000000e+00 2.002715339555e-01 1.162507889661e-12 
6.750000000000e-02 0.000000000000e+00 0.000000000000e+00 2.997685200000e-06 0.000000000000e+00 0.000000000000e+00 2.001361159614e-01 1.159758521144e-12 
7.250000000000e-02 0.000000000000e+00 0.000000000000e+00 2.997685200000e-06 0.000000000000e+00 0.000000000000e+00 2.000819356031e-01 1.158659901621e-12 
7.750000000000e-02 0.000000000000e+00 0.000000000000e+00 2.997685200000e-06 0.000000000000e+00 0.000000000000e+00 2.000595460502e-01 1.158206139498e-12 
8.250000000000e-02 0.000000000000e+00 0.000000000000e+00 2.997685200000e-06 0.000000000000e+00 0.000000000000e+00 2.000491672413e-01 1.157995841539e-12 
8.750000000000e-02 0.000000000000e+00 0.000000000000e+00 2.997685200000e-06 0.000000000000e+00 0.000000000000e+00 2.000419326574e-01 1.157849269921e-12 
9.250000000000e-02 0.000000000000e+00 0.000000000000e+00 2.997685200000e-06 0.000000000000e+00 0.000000000000e+00 2.000325739518e-01 1.157659684970e-12 
9.750000000000e-02 0.000000000000e+00 0.000000000000e+00 2.997685200000e-06 0.000000000000e+00 0.000000000000e+00 2.000223544995e-01 1.157452690489e-12 
VARIABLES = "X","Y","Z","VX","VY","VZ",POROSITY,PERMEABILITY
ZONE T="9.900000000000e+05s", I=20, F=POINT, C=BLACK
2.500000000000e-03 0.000000000000e+00 0.000000000000e+00 2.997685200000e-06 0.000000000000e+00 0.000000000000e+00 2.997107011070e-01 5.081303258066e-12 
7.500000000000e-03 0.000000000000e+00 0.000000000000e+00 2.997685200000e-06 0.000000000000e+00 0.000000000000e+00 2.997107011070e-01 5.081303258066e-12 
1.250000000000e-02 0.000000000000e+00 0.000000000000e+00 2.997685200000e-06 0.000000000000e+00 0.000000000000e+00 2.997107011070e-01 5.081303258066e-12 
1.750000000000e-02 0.000000000000e+00 0.000000000000e+00 2.997685200000e-06 0.000000000000e+00 0.000000000000e+00 2.997107011070e-01 5.081303258066e-12 
2.250000000000e-02 0.000000000000e+00 0.000000000000e+00 2.997685200000e-06 0.000000000000e+00 0.000000000000e+00 2.997107011070e-01 5.081303258066e-12 
2.750000000000e-02 0.000000000000e+00 0.000000000000e+00 2.997685200000e-06 0.000000000000e+00 0.000000000000e+00 2.997107011070e-01 5.081303258066e-12 
3.250000000000e-02 0.000000000000e+00 0.000000000000e+00 2.997685200000e-06 0.000000000000e+00 0.000000000000e+00 2.997107011070e-01 5.081303258066e-12 
3.750000000000e-02 0.000000000000e+00 0.000000000000e+00 2.997685200000e-06 0.000000000000e+00 0.000000000000e+00 2.997107011070e-01 5.081303258066e-12 
4.250000000000e-02 0.000000000000e+00 0.000000000000e+00 2.997685200000e-06 0.000000000000e+00 0.000000000000e+00 2.712394277949e-01 3.477859779936e-12 
4.750000000000e-02 0.000000000000e+00 0.000000000000e+00 2.997685200000e-06 0.000000000000e+00 0.000000000000e+00 2.290357390146e-01 1.870960504864e-12 
5.250000000000e-02 0.000000000000e+00 0.000000000000e+00 2.997685200000e-06 0.000000000000e+00 0.000000000000e+00 2.105688104895e-01 1.386682119455e-12 
5.750000000000e-02 0.000000000000e+00 0.000000000000e+00 2.997685200000e-06 0.000000000000e+00 0.000000000000e+00 2.040630182446e-01 1.241534796165e-12 
6.250000000000e-02 0.000000000000e+00 0.000000000000e+00 2.997685200000e-06 0.000000000000e+00 0.000000000000e+00 2.016085712269e-01 1.189922261993e-12 
6.750000000000e-02 0.000000000000e+00 0.000000000000e+00 2.997685200000e-06 0.000000000000e+00 0.000000000000e+00 2.006585685111e-01 1.170393300506e-12 
7.250000000000e-02 0.000000000000e+00 0.000000000000e+00 2.997685200000e-06 0.000000000000e+00 0.000000000000e+00 2.002867100548e-01 1.162816318016e-12 
7.750000000000e-02 0.000000000000e+00 0.000000000000e+00 2.997685200000e-06 0.000000000000e+00 0.000000000000e+00 2.001399033002e-01 1.159835347123e-12 
8.250000000000e-02 0.000000000000e+00 0.000000000000e+00 2.997685200000e-06 0.000000000000e+00 0.000000000000e+00 2.000807165243e-01 1.158635191428e-12 
8.750000000000e-02 0.000000000000e+00 0.000000000000e+00 2.997685200000e-06 0.000000000000e+00 0.000000000000e+00 2.000543270327e-01 1.158100386838e-12 
9.250000000000e-02 0.000000000000e+00 0.000000000000e+00 2.997685200000e-06 0.000000000000e+00 0.000000000000e+00 2.000374845098e-01 1.157759158146e-12 
9.750000000000e-02 0.000000000000e+00 0.000000000000e+00 2.997685200000e-06 0.000000000000e+00 0.000000000000e+00 2.000246114064e-01 1.157498401585e-12 
