VARIABLES = "x" "y" "z" "Calcite" "nodeporosity" 
ZONE T="aktueller_zeitschritt=1", N=21, E=20 F=FEPOINT, ET=QUADRILATERAL
0.000000000000e+00 0.000000000000e+00 0.000000000000e+00 2.692479474914e+03 2.002777321589e-01
5.000000000000e-03 0.000000000000e+00 0.000000000000e+00 2.695029582270e+03 2.001835569765e-01
1.000000000000e-02 0.000000000000e+00 0.000000000000e+00 2.696713883838e+03 2.001213559061e-01
1.500000000000e-02 0.000000000000e+00 0.000000000000e+00 2.697839324132e+03 2.000797935206e-01
2.000000000000e-02 0.000000000000e+00 0.000000000000e+00 2.698605235166e+03 2.000515085109e-01
2.500000000000e-02 0.000000000000e+00 0.000000000000e+00 2.699138272294e+03 2.000318235088e-01
3.000000000000e-02 0.000000000000e+00 0.000000000000e+00 2.699514824832e+03 2.000179174652e-01
3.500000000000e-02 0.000000000000e+00 0.000000000000e+00 2.699769578860e+03 2.000085094272e-01
4.000000000000e-02 0.000000000000e+00 0.000000000000e+00 2.699913089792e+03 2.000032095844e-01
4.500000000000e-02 0.000000000000e+00 0.000000000000e+00 2.699975235530e+03 2.000009145491e-01
5.000000000000e-02 0.000000000000e+00 0.000000000000e+00 2.699995027708e+03 2.000001836262e-01
5.500000000000e-02 0.000000000000e+00 0.000000000000e+00 2.699999187598e+03 2.000000300019e-01
6.000000000000e-02 0.000000000000e+00 0.000000000000e+00 2.699999873942e+03 2.000000046553e-01
6.500000000000e-02 0.000000000000e+00 0.000000000000e+00 2.699999980678e+03 2.000000007136e-01
7.000000000000e-02 0.000000000000e+00 0.000000000000e+00 2.699999997072e+03 2.000000001081e-01
7.500000000000e-02 0.000000000000e+00 0.000000000000e+00 2.699999999568e+03 2.000000000160e-01
8.000000000000e-02 0.000000000000e+00 0.000000000000e+00 2.699999999940e+03 2.000000000022e-01
8.500000000000e-02 0.000000000000e+00 0.000000000000e+00 2.699999999994e+03 2.000000000002e-01
9.000000000000e-02 0.000000000000e+00 0.000000000000e+00 2.700000000000e+03 2.000000000000e-01
9.500000000000e-02 0.000000000000e+00 0.000000000000e+00 2.700000000000e+03 2.000000000000e-01
1.000000000000e-01 0.000000000000e+00 0.000000000000e+00 2.700000000000e+03 2.000000000000e-01
1  2  2  1
2  3  3  2
3  4  4  3
4  5  5  4
5  6  6  5
6  7  7  6
7  8  8  7
8  9  9  8
9  10  10  9
10  11  11  10
11  12  12  11
12  13  13  12
13  14  14  13
14  15  15  14
15  16  16  15
16  17  17  16
17  18  18  17
18  19  19  18
19  20  20  19
20  21  21  20
VARIABLES = "x" "y" "z" "Calcite" "nodeporosity" 
ZONE T="aktueller_zeitschritt=1000", N=21, E=20 F=FEPOINT, ET=QUADRILATERAL
0.000000000000e+00 0.000000000000e+00 0.000000000000e+00 0.000000000000e+00 2.997107011070e-01
5.000000000000e-03 0.000000000000e+00 0.000000000000e+00 0.000000000000e+00 2.997107011070e-01
1.000000000000e-02 0.000000000000e+00 0.000000000000e+00 0.000000000000e+00 2.997107011070e-01
1.500000000000e-02 0.000000000000e+00 0.000000000000e+00 7.974711779698e+02 2.702601787855e-01
2.000000000000e-02 0.000000000000e+00 0.000000000000e+00 2.056280153742e+03 2.237725026618e-01
2.500000000000e-02 0.000000000000e+00 0.000000000000e+00 2.459222264829e+03 2.088918951055e-01
3.000000000000e-02 0.000000000000e+00 0.000000000000e+00 2.606188405722e+03 2.034644517916e-01
3.500000000000e-02 0.000000000000e+00 0.000000000000e+00 2.662374657422e+03 2.013894997362e-01
4.000000000000e-02 0.000000000000e+00 0.000000000000e+00 2.684255624829e+03 2.005814380322e-01
4.500000000000e-02 0.000000000000e+00 0.000000000000e+00 2.692859426066e+03 2.002637006049e-01
5.000000000000e-02 0.000000000000e+00 0.000000000000e+00 2.696279373486e+03 2.001374023253e-01
5.500000000000e-02 0.000000000000e+00 0.000000000000e+00 2.697658916362e+03 2.000864559596e-01
6.000000000000e-02 0.000000000000e+00 0.000000000000e+00 2.698236621292e+03 2.000651213805e-01
6.500000000000e-02 0.000000000000e+00 0.000000000000e+00 2.698493925048e+03 2.000556191812e-01
7.000000000000e-02 0.000000000000e+00 0.000000000000e+00 2.698622646661e+03 2.000508655063e-01
7.500000000000e-02 0.000000000000e+00 0.000000000000e+00 2.698702124823e+03 2.000479303866e-01
8.000000000000e-02 0.000000000000e+00 0.000000000000e+00 2.698765014455e+03 2.000456078795e-01
8.500000000000e-02 0.000000000000e+00 0.000000000000e+00 2.698843992978e+03 2.000426912114e-01
9.000000000000e-02 0.000000000000e+00 0.000000000000e+00 2.698991840420e+03 2.000372312217e-01
9.500000000000e-02 0.000000000000e+00 0.000000000000e+00 2.699286364533e+03 2.000263544788e-01
1.000000000000e-01 0.000000000000e+00 0.000000000000e+00 2.699522432455e+03 2.000176365166e-01
1  2  2  1
2  3  3  2
3  4  4  3
4  5  5  4
5  6  6  5
6  7  7  6
7  8  8  7
8  9  9  8
9  10  10  9
10  11  11  10
11  12  12  11
12  13  13  12
13  14  14  13
14  15  15  14
15  16  16  15
16  17  17  16
17  18  18  17
18  19  19  18
19  20  20  19
20  21  21  20
VARIABLES = "x" "y" "z" "Calcite" "nodeporosity" 
ZONE T="aktueller_zeitschritt=2000", N=21, E=20 F=FEPOINT, ET=QUADRILATERAL
0.000000000000e+00 0.000000000000e+00 0.000000000000e+00 0.000000000000e+00 2.997107011070e-01
5.000000000000e-03 0.000000000000e+00 0.000000000000e+00 0.000000000000e+00 2.997107011070e-01
1.000000000000e-02 0.000000000000e+00 0.000000000000e+00 0.000000000000e+00 2.997107011070e-01
1.500000000000e-02 0.000000000000e+00 0.000000000000e+00 0.000000000000e+00 2.997107011070e-01
2.000000000000e-02 0.000000000000e+00 0.000000000000e+00 0.000000000000e+00 2.997107011070e-01
2.500000000000e-02 0.000000000000e+00 0.000000000000e+00 0.000000000000e+00 2.997107011070e-01
3.000000000000e-02 0.000000000000e+00 0.000000000000e+00 1.097407478036e+03 2.591835644274e-01
3.500000000000e-02 0.000000000000e+00 0.000000000000e+00 2.145836392857e+03 2.204652006653e-01
4.000000000000e-02 0.000000000000e+00 0.000000000000e+00 2.491317865416e+03 2.077066081288e-01
4.500000000000e-02 0.000000000000e+00 0.000000000000e+00 2.618529170494e+03 2.030087087148e-01
5.000000000000e-02 0.000000000000e+00 0.000000000000e+00 2.667305972654e+03 2.012073868106e-01
5.500000000000e-02 0.000000000000e+00 0.000000000000e+00 2.686313903438e+03 2.005054260310e-01
6.000000000000e-02 0.000000000000e+00 0.000000000000e+00 2.693786391236e+03 2.002294678838e-01
6.500000000000e-02 0.000000000000e+00 0.000000000000e+00 2.696747039326e+03 2.001201314776e-01
7.000000000000e-02 0.000000000000e+00 0.000000000000e+00 2.697936735696e+03 2.000761961223e-01
7.500000000000e-02 0.000000000000e+00 0.000000000000e+00 2.698432772893e+03 2.000578775236e-01
8.000000000000e-02 0.000000000000e+00 0.000000000000e+00 2.698659236566e+03 2.000495142452e-01
8.500000000000e-02 0.000000000000e+00 0.000000000000e+00 2.698802448856e+03 2.000442254312e-01
9.000000000000e-02 0.000000000000e+00 0.000000000000e+00 2.698975501625e+03 2.000378346116e-01
9.500000000000e-02 0.000000000000e+00 0.000000000000e+00 2.699279769528e+03 2.000265980316e-01
1.000000000000e-01 0.000000000000e+00 0.000000000000e+00 2.699518486839e+03 2.000177822277e-01
1  2  2  1
2  3  3  2
3  4  4  3
4  5  5  4
5  6  6  5
6  7  7  6
7  8  8  7
8  9  9  8
9  10  10  9
10  11  11  10
11  12  12  11
12  13  13  12
13  14  14  13
14  15  15  14
15  16  16  15
16  17  17  16
17  18  18  17
18  19  19  18
19  20  20  19
20  21  21  20
VARIABLES = "x" "y" "z" "Calcite" "nodeporosity" 
ZONE T="aktueller_zeitschritt=3000", N=21, E=20 F=FEPOINT, ET=QUADRILATERAL
0.000000000000e+00 0.000000000000e+00 0.000000000000e+00 0.000000000000e+00 2.997107011070e-01
5.000000000000e-03 0.000000000000e+00 0.000000000000e+00 0.000000000000e+00 2.997107011070e-01
1.000000000000e-02 0.000000000000e+00 0.000000000000e+00 0.000000000000e+00 2.997107011070e-01
1.500000000000e-02 0.000000000000e+00 0.000000000000e+00 0.000000000000e+00 2.997107011070e-01
2.000000000000e-02 0.000000000000e+00 0.000000000000e+00 0.000000000000e+00 2.997107011070e-01
2.500000000000e-02 0.000000000000e+00 0.000000000000e+00 0.000000000000e+00 2.997107011070e-01
3.000000000000e-02 0.000000000000e+00 0.000000000000e+00 0.000000000000e+00 2.997107011070e-01
3.500000000000e-02 0.000000000000e+00 0.000000000000e+00 0.000000000000e+00 2.997107011070e-01
4.000000000000e-02 0.000000000000e+00 0.000000000000e+00 0.000000000000e+00 2.997107011070e-01
4.500000000000e-02 0.000000000000e+00 0.000000000000e+00 1.541909485929e+03 2.427681544828e-01
5.000000000000e-02 0.000000000000e+00 0.000000000000e+00 2.285611442737e+03 2.153033235464e-01
5.500000000000e-02 0.000000000000e+00 0.000000000000e+00 2.542016926035e+03 2.058342974326e-01
6.000000000000e-02 0.000000000000e+00 0.000000000000e+00 2.637943516756e+03 2.022917390565e-01
6.500000000000e-02 0.000000000000e+00 0.000000000000e+00 2.674941614641e+03 2.009254033973e-01
7.000000000000e-02 0.000000000000e+00 0.000000000000e+00 2.689392504762e+03 2.003917336249e-01
7.500000000000e-02 0.000000000000e+00 0.000000000000e+00 2.695080232080e+03 2.001816864846e-01
8.000000000000e-02 0.000000000000e+00 0.000000000000e+00 2.697343070406e+03 2.000981201158e-01
8.500000000000e-02 0.000000000000e+00 0.000000000000e+00 2.698285591046e+03 2.000633129329e-01
9.000000000000e-02 0.000000000000e+00 0.000000000000e+00 2.698772237520e+03 2.000453411325e-01
9.500000000000e-02 0.000000000000e+00 0.000000000000e+00 2.699197726079e+03 2.000296278871e-01
1.000000000000e-01 0.000000000000e+00 0.000000000000e+00 2.699469401993e+03 2.000195949257e-01
1  2  2  1
2  3  3  2
3  4  4  3
4  5  5  4
5  6  6  5
6  7  7  6
7  8  8  7
8  9  9  8
9  10  10  9
10  11  11  10
11  12  12  11
12  13  13  12
13  14  14  13
14  15  15  14
15  16  16  15
16  17  17  16
17  18  18  17
18  19  19  18
19  20  20  19
20  21  21  20
