 TITLE = "Profiles along polylines"
 VARIABLES = "DIST" "HEAD" "Na" "Cl" "Ca" "C(4)" "Calcite" 
 ZONE T="TIME=0.000000000000e+00"
0.000000000000e+00 2.000000000000e+00 1.000000047265e+00 1.000000047265e+00 1.293509211910e-01 1.293509211908e-01 3.375000000000e+03 
5.000000000000e-03 2.000000000000e+00 1.000000047265e+00 1.000000047265e+00 1.293509211910e-01 1.293509211908e-01 3.375000000000e+03 
1.000000000000e-02 2.000000000000e+00 1.000000047265e+00 1.000000047265e+00 1.293509211910e-01 1.293509211908e-01 3.375000000000e+03 
1.500000000000e-02 2.000000000000e+00 1.000000047265e+00 1.000000047265e+00 1.293509211910e-01 1.293509211908e-01 3.375000000000e+03 
2.000000000000e-02 2.000000000000e+00 1.000000047265e+00 1.000000047265e+00 1.293509211910e-01 1.293509211908e-01 3.375000000000e+03 
2.500000000000e-02 2.000000000000e+00 1.000000047265e+00 1.000000047265e+00 1.293509211910e-01 1.293509211908e-01 3.375000000000e+03 
3.000000000000e-02 2.000000000000e+00 1.000000047265e+00 1.000000047265e+00 1.293509211910e-01 1.293509211908e-01 3.375000000000e+03 
3.500000000000e-02 2.000000000000e+00 1.000000047265e+00 1.000000047265e+00 1.293509211910e-01 1.293509211908e-01 3.375000000000e+03 
4.000000000000e-02 2.000000000000e+00 1.000000047265e+00 1.000000047265e+00 1.293509211910e-01 1.293509211908e-01 3.375000000000e+03 
4.500000000000e-02 2.000000000000e+00 1.000000047265e+00 1.000000047265e+00 1.293509211910e-01 1.293509211908e-01 3.375000000000e+03 
5.000000000000e-02 2.000000000000e+00 1.000000047265e+00 1.000000047265e+00 1.293509211910e-01 1.293509211908e-01 3.375000000000e+03 
5.500000000000e-02 2.000000000000e+00 1.000000047265e+00 1.000000047265e+00 1.293509211910e-01 1.293509211908e-01 3.375000000000e+03 
6.000000000000e-02 2.000000000000e+00 1.000000047265e+00 1.000000047265e+00 1.293509211910e-01 1.293509211908e-01 3.375000000000e+03 
6.500000000000e-02 2.000000000000e+00 1.000000047265e+00 1.000000047265e+00 1.293509211910e-01 1.293509211908e-01 3.375000000000e+03 
7.000000000000e-02 2.000000000000e+00 1.000000047265e+00 1.000000047265e+00 1.293509211910e-01 1.293509211908e-01 3.375000000000e+03 
7.500000000000e-02 2.000000000000e+00 1.000000047265e+00 1.000000047265e+00 1.293509211910e-01 1.293509211908e-01 3.375000000000e+03 
8.000000000000e-02 2.000000000000e+00 1.000000047265e+00 1.000000047265e+00 1.293509211910e-01 1.293509211908e-01 3.375000000000e+03 
8.500000000000e-02 2.000000000000e+00 1.000000047265e+00 1.000000047265e+00 1.293509211910e-01 1.293509211908e-01 3.375000000000e+03 
9.000000000000e-02 2.000000000000e+00 1.000000047265e+00 1.000000047265e+00 1.293509211910e-01 1.293509211908e-01 3.375000000000e+03 
9.500000000000e-02 2.000000000000e+00 1.000000047265e+00 1.000000047265e+00 1.293509211910e-01 1.293509211908e-01 3.375000000000e+03 
1.000000000000e-01 2.000000000000e+00 1.000000047265e+00 1.000000047265e+00 1.293509211910e-01 1.293509211908e-01 3.375000000000e+03 
 ZONE T="TIME=2.475000000000e+05"
0.000000000000e+00 2.000000000000e+00 1.000000000000e+00 1.000000000000e+00 0.000000000000e+00 1.000000000000e+03 0.000000000000e+00 
5.000000000000e-03 -1.295256006914e+04 9.998051022792e-01 9.998051022792e-01 1.030466940702e+01 1.010109771686e+03 0.000000000000e+00 
1.000000000000e-02 -2.590712013829e+04 9.992891006469e-01 9.992891006469e-01 3.758706461348e+01 1.036876165260e+03 5.048050744216e+02 
1.500000000000e-02 -3.886168020743e+04 9.992888156227e-01 9.992888156227e-01 3.759869555546e+01 1.036887511178e+03 2.504704341849e+03 
2.000000000000e-02 -5.181624027658e+04 9.992887335448e-01 9.992887335448e-01 3.760248924036e+01 1.036891222784e+03 3.060081101836e+03 
2.500000000000e-02 -6.477080034572e+04 9.992887056312e-01 9.992887056312e-01 3.760388571957e+01 1.036892591349e+03 3.253816458072e+03 
3.000000000000e-02 -7.772536041487e+04 9.992886952876e-01 9.992886952877e-01 3.760442089781e+01 1.036893116184e+03 3.326705622477e+03 
3.500000000000e-02 -9.067992048401e+04 9.992886913227e-01 9.992886913228e-01 3.760462908492e+01 1.036893320405e+03 3.354948066627e+03 
4.000000000000e-02 -1.036344805532e+05 9.992886897855e-01 9.992886897854e-01 3.760471053854e+01 1.036893400321e+03 3.366030740969e+03 
4.500000000000e-02 -1.165890406223e+05 9.992886891894e-01 9.992886891895e-01 3.760474247932e+01 1.036893431665e+03 3.370424427175e+03 
5.000000000000e-02 -1.295436006914e+05 9.992886889618e-01 9.992886889619e-01 3.760475501561e+01 1.036893443973e+03 3.372199444008e+03 
5.500000000000e-02 -1.424981607606e+05 9.992886888779e-01 9.992886888779e-01 3.760475993771e+01 1.036893448811e+03 3.372937153090e+03 
6.000000000000e-02 -1.554527208297e+05 9.992886888501e-01 9.992886888501e-01 3.760476187059e+01 1.036893450716e+03 3.373266302918e+03 
6.500000000000e-02 -1.684072808989e+05 9.992886888451e-01 9.992886888452e-01 3.760476262974e+01 1.036893451470e+03 3.373428883770e+03 
7.000000000000e-02 -1.813618409680e+05 9.992886888484e-01 9.992886888485e-01 3.760476292791e+01 1.036893451769e+03 3.373523019560e+03 
7.500000000000e-02 -1.943164010372e+05 9.992886888553e-01 9.992886888553e-01 3.760476304515e+01 1.036893451895e+03 3.373591644366e+03 
8.000000000000e-02 -2.072709611063e+05 9.992886888630e-01 9.992886888630e-01 3.760476309123e+01 1.036893451947e+03 3.373653259720e+03 
8.500000000000e-02 -2.202255211755e+05 9.992886888710e-01 9.992886888710e-01 3.760476310943e+01 1.036893451973e+03 3.373736857685e+03 
9.000000000000e-02 -2.331800812446e+05 9.992886888781e-01 9.992886888781e-01 3.760476311663e+01 1.036893451987e+03 3.373897538277e+03 
9.500000000000e-02 -2.461346413137e+05 9.992886888843e-01 9.992886888843e-01 3.760476311943e+01 1.036893451995e+03 3.374219403471e+03 
1.000000000000e-01 -2.590892013829e+05 9.992886888865e-01 9.992886888865e-01 3.760476312025e+01 1.036893451999e+03 3.374477606883e+03 
 ZONE T="TIME=4.950000000000e+05"
0.000000000000e+00 2.000000000000e+00 1.000000000000e+00 1.000000000000e+00 0.000000000000e+00 1.000000000000e+03 0.000000000000e+00 
5.000000000000e-03 -1.295256006914e+04 9.999848469808e-01 9.999848469808e-01 8.011276749882e-01 1.000785974656e+03 0.000000000000e+00 
1.000000000000e-02 -2.590712013829e+04 9.999516581775e-01 9.999516581775e-01 2.555796544738e+00 1.002507454722e+03 0.000000000000e+00 
1.500000000000e-02 -3.886168020743e+04 9.998797374086e-01 9.998797374085e-01 6.358226181789e+00 1.006237963590e+03 0.000000000000e+00 
2.000000000000e-02 -5.181624027658e+04 9.997222894797e-01 9.997222894798e-01 1.468246866147e+01 1.014404758141e+03 0.000000000000e+00 
2.500000000000e-02 -6.477080034572e+04 9.992890331456e-01 9.992890331456e-01 3.758905882730e+01 1.036878091973e+03 2.331299515759e+03 
3.000000000000e-02 -7.772536041487e+04 9.992887883095e-01 9.992887883095e-01 3.759892592170e+01 1.036887714230e+03 3.004141791823e+03 
3.500000000000e-02 -9.067992048401e+04 9.992887096594e-01 9.992887096594e-01 3.760251704040e+01 1.036891226698e+03 3.233608193178e+03 
4.000000000000e-02 -1.036344805532e+05 9.992886800280e-01 9.992886800280e-01 3.760388772362e+01 1.036892567748e+03 3.319161749469e+03 
4.500000000000e-02 -1.165890406223e+05 9.992886681297e-01 9.992886681295e-01 3.760442011403e+01 1.036893088241e+03 3.352137108267e+03 
5.000000000000e-02 -1.295436006914e+05 9.992886622578e-01 9.992886622577e-01 3.760462827348e+01 1.036893290528e+03 3.365036065875e+03 
5.500000000000e-02 -1.424981607606e+05 9.992886590732e-01 9.992886590730e-01 3.760470986785e+01 1.036893368937e+03 3.370126839381e+03 
6.000000000000e-02 -1.554527208297e+05 9.992886570974e-01 9.992886570972e-01 3.760474187775e+01 1.036893398970e+03 3.372163098479e+03 
6.500000000000e-02 -1.684072808989e+05 9.992886558299e-01 9.992886558297e-01 3.760475443710e+01 1.036893410262e+03 3.372995708936e+03 
7.000000000000e-02 -1.813618409680e+05 9.992886551275e-01 9.992886551273e-01 3.760475936547e+01 1.036893414488e+03 3.373352915853e+03 
7.500000000000e-02 -1.943164010372e+05 9.992886549220e-01 9.992886549219e-01 3.760476130201e+01 1.036893416218e+03 3.373524843358e+03 
8.000000000000e-02 -2.072709611063e+05 9.992886551530e-01 9.992886551529e-01 3.760476206770e+01 1.036893417215e+03 3.373627025834e+03 
8.500000000000e-02 -2.202255211755e+05 9.992886557288e-01 9.992886557287e-01 3.760476237645e+01 1.036893418098e+03 3.373726554357e+03 
9.000000000000e-02 -2.331800812446e+05 9.992886565043e-01 9.992886565043e-01 3.760476250675e+01 1.036893419004e+03 3.373893486174e+03 
9.500000000000e-02 -2.461346413137e+05 9.992886572451e-01 9.992886572451e-01 3.760476256445e+01 1.036893419802e+03 3.374217767902e+03 
1.000000000000e-01 -2.590892013829e+05 9.992886575705e-01 9.992886575704e-01 3.760476258218e+01 1.036893420144e+03 3.374476628471e+03 
 ZONE T="TIME=7.425000000000e+05"
0.000000000000e+00 2.000000000000e+00 1.000000000000e+00 1.000000000000e+00 0.000000000000e+00 1.000000000000e+03 0.000000000000e+00 
5.000000000000e-03 -1.295256006914e+04 9.999969166606e-01 9.999969166606e-01 1.630160215236e-01 1.000159932682e+03 0.000000000000e+00 
1.000000000000e-02 -2.590712013829e+04 9.999901621335e-01 9.999901621335e-01 5.201275694410e-01 1.000510289703e+03 0.000000000000e+00 
1.500000000000e-02 -3.886168020743e+04 9.999753648296e-01 9.999753648296e-01 1.302460325808e+00 1.001277825156e+03 0.000000000000e+00 
2.000000000000e-02 -5.181624027658e+04 9.999429474895e-01 9.999429474894e-01 3.016363452150e+00 1.002959310942e+03 0.000000000000e+00 
2.500000000000e-02 -6.477080034572e+04 9.998719282586e-01 9.998719282584e-01 6.771146258654e+00 1.006643074517e+03 0.000000000000e+00 
3.000000000000e-02 -7.772536041487e+04 9.997163400610e-01 9.997163400608e-01 1.499708482257e+01 1.014713424883e+03 0.000000000000e+00 
3.500000000000e-02 -9.067992048401e+04 9.992890269180e-01 9.992890269170e-01 3.758935662336e+01 1.036878383540e+03 2.163720377776e+03 
4.000000000000e-02 -1.036344805532e+05 9.992887882313e-01 9.992887882312e-01 3.759908344264e+01 1.036887871672e+03 2.951632796896e+03 
4.500000000000e-02 -1.165890406223e+05 9.992887129596e-01 9.992887129592e-01 3.760258391820e+01 1.036891296876e+03 3.214722836571e+03 
5.000000000000e-02 -1.295436006914e+05 9.992886864146e-01 9.992886864144e-01 3.760391476400e+01 1.036892601176e+03 3.312078492246e+03 
5.500000000000e-02 -1.424981607606e+05 9.992886764465e-01 9.992886764463e-01 3.760443092923e+01 1.036893107373e+03 3.349481682591e+03 
6.000000000000e-02 -1.554527208297e+05 9.992886726000e-01 9.992886725999e-01 3.760463265228e+01 1.036893305250e+03 3.364078740575e+03 
6.500000000000e-02 -1.684072808989e+05 9.992886710951e-01 9.992886710951e-01 3.760471172151e+01 1.036893382812e+03 3.369824447618e+03 
7.000000000000e-02 -1.813618409680e+05 9.992886704958e-01 9.992886704958e-01 3.760474275013e+01 1.036893413242e+03 3.372108063402e+03 
7.500000000000e-02 -1.943164010372e+05 9.992886702446e-01 9.992886702446e-01 3.760475493184e+01 1.036893425171e+03 3.373036053000e+03 
8.000000000000e-02 -2.072709611063e+05 9.992886701237e-01 9.992886701236e-01 3.760475971496e+01 1.036893429833e+03 3.373435080693e+03 
8.500000000000e-02 -2.202255211755e+05 9.992886700507e-01 9.992886700507e-01 3.760476159281e+01 1.036893431638e+03 3.373651169982e+03 
9.000000000000e-02 -2.331800812446e+05 9.992886699942e-01 9.992886699941e-01 3.760476232921e+01 1.036893432317e+03 3.373863839002e+03 
9.500000000000e-02 -2.461346413137e+05 9.992886699520e-01 9.992886699520e-01 3.760476261353e+01 1.036893432559e+03 3.374205801513e+03 
1.000000000000e-01 -2.590892013829e+05 9.992886699348e-01 9.992886699347e-01 3.760476269076e+01 1.036893432618e+03 3.374469469398e+03 
 ZONE T="TIME=9.900000000000e+05"
0.000000000000e+00 2.000000000000e+00 1.000000000000e+00 1.000000000000e+00 0.000000000000e+00 1.000000000000e+03 0.000000000000e+00 
5.000000000000e-03 -1.295256006914e+04 9.999993582027e-01 9.999993582026e-01 3.393172363524e-02 1.000033289926e+03 0.000000000000e+00 
1.000000000000e-02 -2.590712013829e+04 9.999979522407e-01 9.999979522407e-01 1.082646993724e-01 1.000106216940e+03 0.000000000000e+00 
1.500000000000e-02 -3.886168020743e+04 9.999948721510e-01 9.999948721509e-01 2.711085222682e-01 1.000265980673e+03 0.000000000000e+00 
2.000000000000e-02 -5.181624027658e+04 9.999881243894e-01 9.999881243894e-01 6.278614851317e-01 1.000615985875e+03 0.000000000000e+00 
2.500000000000e-02 -6.477080034572e+04 9.999733415074e-01 9.999733415074e-01 1.409429751569e+00 1.001382771259e+03 0.000000000000e+00 
3.000000000000e-02 -7.772536041487e+04 9.999409553136e-01 9.999409553135e-01 3.121681675770e+00 1.003062636989e+03 0.000000000000e+00 
3.500000000000e-02 -9.067992048401e+04 9.998700038469e-01 9.998700038467e-01 6.872871769008e+00 1.006742875615e+03 0.000000000000e+00 
4.000000000000e-02 -1.036344805532e+05 9.997145637158e-01 9.997145637154e-01 1.509095985542e+01 1.014805523570e+03 0.000000000000e+00 
4.500000000000e-02 -1.165890406223e+05 9.992890224456e-01 9.992890224456e-01 3.758948548564e+01 1.036878507930e+03 2.036244903138e+03 
5.000000000000e-02 -1.295436006914e+05 9.992887852698e-01 9.992887852693e-01 3.759916529021e+01 1.036887950557e+03 2.912732411544e+03 
5.500000000000e-02 -1.424981607606e+05 9.992887111309e-01 9.992887111307e-01 3.760261980389e+01 1.036891330932e+03 3.200864653078e+03 
6.000000000000e-02 -1.554527208297e+05 9.992886850503e-01 9.992886850502e-01 3.760392936666e+01 1.036892614414e+03 3.306902593231e+03 
6.500000000000e-02 -1.684072808989e+05 9.992886752776e-01 9.992886752775e-01 3.760443672824e+01 1.036893112002e+03 3.347549310182e+03 
7.000000000000e-02 -1.813618409680e+05 9.992886715268e-01 9.992886715267e-01 3.760463492989e+01 1.036893306453e+03 3.363387570959e+03 
7.500000000000e-02 -1.943164010372e+05 9.992886700827e-01 9.992886700826e-01 3.760471260742e+01 1.036893382686e+03 3.369615557107e+03 
8.000000000000e-02 -2.072709611063e+05 9.992886695355e-01 9.992886695354e-01 3.760474308863e+01 1.036893412619e+03 3.372092425632e+03 
8.500000000000e-02 -2.202255211755e+05 9.992886693373e-01 9.992886693372e-01 3.760475505533e+01 1.036893424388e+03 3.373123941770e+03 
9.000000000000e-02 -2.331800812446e+05 9.992886692748e-01 9.992886692747e-01 3.760475975083e+01 1.036893429020e+03 3.373656503658e+03 
9.500000000000e-02 -2.461346413137e+05 9.992886692603e-01 9.992886692603e-01 3.760476156513e+01 1.036893430820e+03 3.374122117735e+03 
1.000000000000e-01 -2.590892013829e+05 9.992886692595e-01 9.992886692593e-01 3.760476205972e+01 1.036893431313e+03 3.374419404363e+03 
