VARIABLES = "x" "y" "z" "nodeporosity" 
ZONE T="aktueller_zeitschritt=1", N=11, E=10 F=FEPOINT, ET=QUADRILATERAL
0.000000000000e+000 0.000000000000e+000 0.000000000000e+000 4.960401306849e-002
5.000000000000e-003 0.000000000000e+000 0.000000000000e+000 4.960401306849e-002
1.000000000000e-002 0.000000000000e+000 0.000000000000e+000 4.960401306849e-002
1.500000000000e-002 0.000000000000e+000 0.000000000000e+000 4.960401306849e-002
2.000000000000e-002 0.000000000000e+000 0.000000000000e+000 4.960401306849e-002
2.500000000000e-002 0.000000000000e+000 0.000000000000e+000 4.960401306849e-002
3.000000000000e-002 0.000000000000e+000 0.000000000000e+000 4.960401306849e-002
3.500000000000e-002 0.000000000000e+000 0.000000000000e+000 4.960401306849e-002
4.000000000000e-002 0.000000000000e+000 0.000000000000e+000 4.960401306849e-002
4.500000000000e-002 0.000000000000e+000 0.000000000000e+000 4.960401306849e-002
5.000000000000e-002 0.000000000000e+000 0.000000000000e+000 4.960401306849e-002
1  2  2  1
2  3  3  2
3  4  4  3
4  5  5  4
5  6  6  5
6  7  7  6
7  8  8  7
8  9  9  8
9  10  10  9
10  11  11  10
VARIABLES = "x" "y" "z" "nodeporosity" 
ZONE T="aktueller_zeitschritt=5", N=11, E=10 F=FEPOINT, ET=QUADRILATERAL
0.000000000000e+000 0.000000000000e+000 0.000000000000e+000 4.812568644882e-002
5.000000000000e-003 0.000000000000e+000 0.000000000000e+000 4.812568644882e-002
1.000000000000e-002 0.000000000000e+000 0.000000000000e+000 4.812568644882e-002
1.500000000000e-002 0.000000000000e+000 0.000000000000e+000 4.812568644882e-002
2.000000000000e-002 0.000000000000e+000 0.000000000000e+000 4.812568644882e-002
2.500000000000e-002 0.000000000000e+000 0.000000000000e+000 4.812568644882e-002
3.000000000000e-002 0.000000000000e+000 0.000000000000e+000 4.812568644882e-002
3.500000000000e-002 0.000000000000e+000 0.000000000000e+000 4.812568644882e-002
4.000000000000e-002 0.000000000000e+000 0.000000000000e+000 4.812568644882e-002
4.500000000000e-002 0.000000000000e+000 0.000000000000e+000 4.812568644882e-002
5.000000000000e-002 0.000000000000e+000 0.000000000000e+000 4.812568644882e-002
1  2  2  1
2  3  3  2
3  4  4  3
4  5  5  4
5  6  6  5
6  7  7  6
7  8  8  7
8  9  9  8
9  10  10  9
10  11  11  10
