 TITLE = "Profiles along polylines"
 VARIABLES = "DIST" "A" "B" 
 ZONE T="TIME=0.000000000000e+00"
0.000000000000e+00 1.000000000000e+03 0.000000000000e+00 
5.000000000000e-03 1.000000000000e+03 0.000000000000e+00 
1.000000000000e-02 1.000000000000e+03 0.000000000000e+00 
1.500000000000e-02 1.000000000000e+03 0.000000000000e+00 
2.000000000000e-02 1.000000000000e+03 0.000000000000e+00 
2.500000000000e-02 1.000000000000e+03 0.000000000000e+00 
3.000000000000e-02 1.000000000000e+03 0.000000000000e+00 
3.500000000000e-02 1.000000000000e+03 0.000000000000e+00 
4.000000000000e-02 1.000000000000e+03 0.000000000000e+00 
4.500000000000e-02 1.000000000000e+03 0.000000000000e+00 
5.000000000000e-02 1.000000000000e+03 0.000000000000e+00 
 ZONE T="TIME=2.000000000000e+03"
0.000000000000e+00 3.025845398424e+01 1.616235910026e+03 
5.000000000000e-03 3.025845398424e+01 1.616235910026e+03 
1.000000000000e-02 3.025845398424e+01 1.616235910026e+03 
1.500000000000e-02 3.025845398424e+01 1.616235910026e+03 
2.000000000000e-02 3.025845398424e+01 1.616235910026e+03 
2.500000000000e-02 3.025845398424e+01 1.616235910026e+03 
3.000000000000e-02 3.025845398424e+01 1.616235910026e+03 
3.500000000000e-02 3.025845398424e+01 1.616235910026e+03 
4.000000000000e-02 3.025845398424e+01 1.616235910026e+03 
4.500000000000e-02 3.025845398424e+01 1.616235910026e+03 
5.000000000000e-02 3.025845398424e+01 1.616235910026e+03 
 ZONE T="TIME=4.000000000000e+03"
0.000000000000e+00 6.590817604164e-01 1.665568197066e+03 
5.000000000000e-03 6.590817604164e-01 1.665568197066e+03 
1.000000000000e-02 6.590817604164e-01 1.665568197066e+03 
1.500000000000e-02 6.590817604164e-01 1.665568197066e+03 
2.000000000000e-02 6.590817604164e-01 1.665568197066e+03 
2.500000000000e-02 6.590817604164e-01 1.665568197066e+03 
3.000000000000e-02 6.590817604164e-01 1.665568197066e+03 
3.500000000000e-02 6.590817604164e-01 1.665568197066e+03 
4.000000000000e-02 6.590817604164e-01 1.665568197066e+03 
4.500000000000e-02 6.590817604164e-01 1.665568197066e+03 
5.000000000000e-02 6.590817604164e-01 1.665568197066e+03 
 ZONE T="TIME=6.000000000000e+03"
0.000000000000e+00 1.102438436015e-01 1.666482926927e+03 
5.000000000000e-03 1.102438436015e-01 1.666482926927e+03 
1.000000000000e-02 1.102438436015e-01 1.666482926927e+03 
1.500000000000e-02 1.102438436015e-01 1.666482926927e+03 
2.000000000000e-02 1.102438436015e-01 1.666482926927e+03 
2.500000000000e-02 1.102438436015e-01 1.666482926927e+03 
3.000000000000e-02 1.102438436015e-01 1.666482926927e+03 
3.500000000000e-02 1.102438436015e-01 1.666482926927e+03 
4.000000000000e-02 1.102438436015e-01 1.666482926927e+03 
4.500000000000e-02 1.102438436015e-01 1.666482926927e+03 
5.000000000000e-02 1.102438436015e-01 1.666482926927e+03 
 ZONE T="TIME=8.000000000000e+03"
0.000000000000e+00 1.001876536188e-01 1.666499687244e+03 
5.000000000000e-03 1.001876536188e-01 1.666499687244e+03 
1.000000000000e-02 1.001876536188e-01 1.666499687244e+03 
1.500000000000e-02 1.001876536188e-01 1.666499687244e+03 
2.000000000000e-02 1.001876536188e-01 1.666499687244e+03 
2.500000000000e-02 1.001876536188e-01 1.666499687244e+03 
3.000000000000e-02 1.001876536188e-01 1.666499687244e+03 
3.500000000000e-02 1.001876536188e-01 1.666499687244e+03 
4.000000000000e-02 1.001876536188e-01 1.666499687244e+03 
4.500000000000e-02 1.001876536188e-01 1.666499687244e+03 
5.000000000000e-02 1.001876536188e-01 1.666499687244e+03 
 ZONE T="TIME=1.000000000000e+04"
0.000000000000e+00 1.000034375517e-01 1.666499994271e+03 
5.000000000000e-03 1.000034375517e-01 1.666499994271e+03 
1.000000000000e-02 1.000034375517e-01 1.666499994271e+03 
1.500000000000e-02 1.000034375517e-01 1.666499994271e+03 
2.000000000000e-02 1.000034375517e-01 1.666499994271e+03 
2.500000000000e-02 1.000034375517e-01 1.666499994271e+03 
3.000000000000e-02 1.000034375517e-01 1.666499994271e+03 
3.500000000000e-02 1.000034375517e-01 1.666499994271e+03 
4.000000000000e-02 1.000034375517e-01 1.666499994271e+03 
4.500000000000e-02 1.000034375517e-01 1.666499994271e+03 
5.000000000000e-02 1.000034375517e-01 1.666499994271e+03 
