 TITLE = "Time curves in points"
 VARIABLES = "TIME "  "A"  "B" 
 ZONE T="POINT=POINT2"
0.000000000000e+00 1.000000000000e+03 0.000000000000e+00 
1.000000000000e+01 9.880255576005e+02 1.995740399916e+01 
2.000000000000e+01 9.761012100481e+02 3.983131658654e+01 
3.000000000000e+01 9.642290130133e+02 5.961831164458e+01 
4.000000000000e+01 9.524109834628e+02 7.931502756202e+01 
5.000000000000e+01 9.406490984391e+02 9.891816926816e+01 
6.000000000000e+01 9.289452939003e+02 1.184245101662e+02 
7.000000000000e+01 9.173014636217e+02 1.378308939638e+02 
8.000000000000e+01 9.057194581605e+02 1.571342363992e+02 
9.000000000000e+01 8.942010838829e+02 1.763315268618e+02 
1.000000000000e+02 8.827481020569e+02 1.954198299051e+02 
1.100000000000e+02 8.713622280081e+02 2.143962866531e+02 
1.200000000000e+02 8.600451303415e+02 2.332581160974e+02 
1.300000000000e+02 8.487984302284e+02 2.520026162861e+02 
1.400000000000e+02 8.376237007580e+02 2.706271654033e+02 
1.500000000000e+02 8.265224663552e+02 2.891292227413e+02 
1.600000000000e+02 8.154962022624e+02 3.075063295627e+02 
1.700000000000e+02 8.045463340865e+02 3.257561098559e+02 
1.800000000000e+02 7.936742374098e+02 3.438762709836e+02 
1.900000000000e+02 7.828812374650e+02 3.618646042250e+02 
2.000000000000e+02 7.721686088721e+02 3.797189852132e+02 
2.100000000000e+02 7.615375754379e+02 3.974373742701e+02 
2.200000000000e+02 7.509893100169e+02 4.150178166385e+02 
2.300000000000e+02 7.405249344311e+02 4.324584426149e+02 
2.400000000000e+02 7.301455194493e+02 4.497574675845e+02 
2.500000000000e+02 7.198520848244e+02 4.669131919594e+02 
2.600000000000e+02 7.096455993854e+02 4.839240010243e+02 
2.700000000000e+02 6.995269811861e+02 5.007883646898e+02 
2.800000000000e+02 6.894970977053e+02 5.175048371578e+02 
2.900000000000e+02 6.795567661000e+02 5.340720565001e+02 
3.000000000000e+02 6.697067535076e+02 5.504887441540e+02 
3.100000000000e+02 6.599477773977e+02 5.667537043371e+02 
3.200000000000e+02 6.502805059692e+02 5.828658233847e+02 
3.300000000000e+02 6.407055585930e+02 5.988240690116e+02 
3.400000000000e+02 6.312235062979e+02 6.146274895035e+02 
3.500000000000e+02 6.218348722966e+02 6.302752128390e+02 
3.600000000000e+02 6.125401325522e+02 6.457664457463e+02 
3.700000000000e+02 6.033397163812e+02 6.611004726979e+02 
3.800000000000e+02 5.942340070923e+02 6.762766548462e+02 
3.900000000000e+02 5.852233426582e+02 6.912944289029e+02 
4.000000000000e+02 5.763080164199e+02 7.061533059669e+02 
4.100000000000e+02 5.674882778192e+02 7.208528703013e+02 
4.200000000000e+02 5.587643331605e+02 7.353927780659e+02 
4.300000000000e+02 5.501363463967e+02 7.497727560055e+02 
4.400000000000e+02 5.416044399404e+02 7.639926000993e+02 
4.500000000000e+02 5.331686954959e+02 7.780521741735e+02 
4.600000000000e+02 5.248291549119e+02 7.919514084801e+02 
4.700000000000e+02 5.165858210524e+02 8.056902982459e+02 
4.800000000000e+02 5.084386586837e+02 8.192689021938e+02 
4.900000000000e+02 5.003875953763e+02 8.326873410395e+02 
5.000000000000e+02 4.924325224197e+02 8.459457959671e+02 
5.100000000000e+02 4.845732957484e+02 8.590445070860e+02 
5.200000000000e+02 4.768097368771e+02 8.719837718716e+02 
5.300000000000e+02 4.691416338443e+02 8.847639435929e+02 
5.400000000000e+02 4.615687421620e+02 8.973854297300e+02 
5.500000000000e+02 4.540907857704e+02 9.098486903827e+02 
5.600000000000e+02 4.467074579952e+02 9.221542366747e+02 
5.700000000000e+02 4.394184225081e+02 9.343026291531e+02 
5.800000000000e+02 4.322233142868e+02 9.462944761887e+02 
5.900000000000e+02 4.251217405743e+02 9.581304323761e+02 
6.000000000000e+02 4.181132818369e+02 9.698111969384e+02 
6.100000000000e+02 4.111974927181e+02 9.813375121365e+02 
6.200000000000e+02 4.043739029884e+02 9.927101616861e+02 
6.300000000000e+02 3.976420184895e+02 1.003929969184e+03 
6.400000000000e+02 3.910013220723e+02 1.014997796546e+03 
6.500000000000e+02 3.844512745265e+02 1.025914542456e+03 
6.600000000000e+02 3.779913155028e+02 1.036681140829e+03 
6.700000000000e+02 3.716208644241e+02 1.047298559293e+03 
6.800000000000e+02 3.653393213884e+02 1.057767797686e+03 
6.900000000000e+02 3.591460680590e+02 1.068089886568e+03 
7.000000000000e+02 3.530404685436e+02 1.078265885761e+03 
7.100000000000e+02 3.470218702614e+02 1.088296882898e+03 
7.200000000000e+02 3.410896047961e+02 1.098183992007e+03 
7.300000000000e+02 3.352429887361e+02 1.107928352107e+03 
7.400000000000e+02 3.294813245000e+02 1.117531125833e+03 
7.500000000000e+02 3.238039011480e+02 1.126993498087e+03 
7.600000000000e+02 3.182099951773e+02 1.136316674704e+03 
7.700000000000e+02 3.126988713027e+02 1.145501881162e+03 
7.800000000000e+02 3.072697832210e+02 1.154550361298e+03 
7.900000000000e+02 3.019219743595e+02 1.163463376067e+03 
8.000000000000e+02 2.966546786075e+02 1.172242202321e+03 
8.100000000000e+02 2.914671210318e+02 1.180888131614e+03 
8.200000000000e+02 2.863585185745e+02 1.189402469043e+03 
8.300000000000e+02 2.813280807346e+02 1.197786532109e+03 
8.400000000000e+02 2.763750102319e+02 1.206041649614e+03 
8.500000000000e+02 2.714985036534e+02 1.214169160578e+03 
8.600000000000e+02 2.666977520831e+02 1.222170413195e+03 
8.700000000000e+02 2.619719417135e+02 1.230046763811e+03 
8.800000000000e+02 2.573202544410e+02 1.237799575932e+03 
8.900000000000e+02 2.527418684421e+02 1.245430219263e+03 
9.000000000000e+02 2.482359587343e+02 1.252940068776e+03 
9.100000000000e+02 2.438016977181e+02 1.260330503803e+03 
9.200000000000e+02 2.394382557029e+02 1.267602907162e+03 
9.300000000000e+02 2.351448014155e+02 1.274758664308e+03 
9.400000000000e+02 2.309205024914e+02 1.281799162514e+03 
9.500000000000e+02 2.267645259500e+02 1.288725790083e+03 
9.600000000000e+02 2.226760386527e+02 1.295539935579e+03 
9.700000000000e+02 2.186542077449e+02 1.302242987092e+03 
9.800000000000e+02 2.146982010815e+02 1.308836331531e+03 
9.900000000000e+02 2.108071876369e+02 1.315321353939e+03 
1.000000000000e+03 2.069803378985e+02 1.321699436836e+03 
1.010000000000e+03 2.032168242459e+02 1.327971959590e+03 
1.020000000000e+03 1.995158213135e+02 1.334140297811e+03 
1.030000000000e+03 1.958765063389e+02 1.340205822768e+03 
1.040000000000e+03 1.922980594967e+02 1.346169900839e+03 
1.050000000000e+03 1.887796642170e+02 1.352033892972e+03 
1.060000000000e+03 1.853205074907e+02 1.357799154182e+03 
1.070000000000e+03 1.819197801604e+02 1.363467033066e+03 
1.080000000000e+03 1.785766771977e+02 1.369038871337e+03 
1.090000000000e+03 1.752903979677e+02 1.374516003387e+03 
1.100000000000e+03 1.720601464793e+02 1.379899755868e+03 
1.110000000000e+03 1.688851316247e+02 1.385191447292e+03 
1.120000000000e+03 1.657645674047e+02 1.390392387659e+03 
1.130000000000e+03 1.626976731431e+02 1.395503878095e+03 
1.140000000000e+03 1.596836736887e+02 1.400527210519e+03 
1.150000000000e+03 1.567217996062e+02 1.405463667323e+03 
1.160000000000e+03 1.538112873557e+02 1.410314521074e+03 
1.170000000000e+03 1.509513794619e+02 1.415081034230e+03 
1.180000000000e+03 1.481413246717e+02 1.419764458881e+03 
1.190000000000e+03 1.453803781028e+02 1.424366036495e+03 
1.200000000000e+03 1.426678013815e+02 1.428886997698e+03 
1.210000000000e+03 1.400028627713e+02 1.433328562048e+03 
1.220000000000e+03 1.373848372918e+02 1.437691937847e+03 
1.230000000000e+03 1.348130068294e+02 1.441978321951e+03 
1.240000000000e+03 1.322866602379e+02 1.446188899604e+03 
1.250000000000e+03 1.298050934319e+02 1.450324844280e+03 
1.260000000000e+03 1.273676094714e+02 1.454387317548e+03 
1.270000000000e+03 1.249735186386e+02 1.458377468936e+03 
1.280000000000e+03 1.226221385073e+02 1.462296435821e+03 
1.290000000000e+03 1.203127940046e+02 1.466145343326e+03 
1.300000000000e+03 1.180448174654e+02 1.469925304224e+03 
1.310000000000e+03 1.158175486811e+02 1.473637418865e+03 
1.320000000000e+03 1.136303349404e+02 1.477282775099e+03 
1.330000000000e+03 1.114825310644e+02 1.480862448226e+03 
1.340000000000e+03 1.093734994359e+02 1.484377500940e+03 
1.350000000000e+03 1.073026100225e+02 1.487828983296e+03 
1.360000000000e+03 1.052692403939e+02 1.491217932677e+03 
1.370000000000e+03 1.032727757345e+02 1.494545373776e+03 
1.380000000000e+03 1.013126088501e+02 1.497812318583e+03 
1.390000000000e+03 9.938814017062e+01 1.501019766382e+03 
1.400000000000e+03 9.749877774680e+01 1.504168703755e+03 
1.410000000000e+03 9.564393724376e+01 1.507260104594e+03 
1.420000000000e+03 9.382304192936e+01 1.510294930118e+03 
1.430000000000e+03 9.203552265887e+01 1.513274128902e+03 
1.440000000000e+03 9.028081785554e+01 1.516198636907e+03 
1.450000000000e+03 8.855837348760e+01 1.519069377521e+03 
1.460000000000e+03 8.686764304160e+01 1.521887261597e+03 
1.470000000000e+03 8.520808749248e+01 1.524653187513e+03 
1.480000000000e+03 8.357917527040e+01 1.527368041216e+03 
1.490000000000e+03 8.198038222453e+01 1.530032696292e+03 
1.500000000000e+03 8.041119158405e+01 1.532648014027e+03 
1.510000000000e+03 7.887109391637e+01 1.535214843473e+03 
1.520000000000e+03 7.735958708283e+01 1.537734021529e+03 
1.530000000000e+03 7.587617619197e+01 1.540206373013e+03 
1.540000000000e+03 7.442037355056e+01 1.542632710749e+03 
1.550000000000e+03 7.299169861246e+01 1.545013835646e+03 
1.560000000000e+03 7.158967792552e+01 1.547350536791e+03 
1.570000000000e+03 7.021384507659e+01 1.549643591539e+03 
1.580000000000e+03 6.886374063475e+01 1.551893765609e+03 
1.590000000000e+03 6.753891209297e+01 1.554101813178e+03 
1.600000000000e+03 6.623891380823e+01 1.556268476986e+03 
1.610000000000e+03 6.496330694017e+01 1.558394488433e+03 
1.620000000000e+03 6.371165938857e+01 1.560480567686e+03 
1.630000000000e+03 6.248354572951e+01 1.562527423784e+03 
1.640000000000e+03 6.127854715052e+01 1.564535754749e+03 
1.650000000000e+03 6.009625138464e+01 1.566506247692e+03 
1.660000000000e+03 5.893625264366e+01 1.568439578927e+03 
1.670000000000e+03 5.779815155046e+01 1.570336414083e+03 
1.680000000000e+03 5.668155507066e+01 1.572197408216e+03 
1.690000000000e+03 5.558607644354e+01 1.574023205927e+03 
1.700000000000e+03 5.451133511248e+01 1.575814441479e+03 
1.710000000000e+03 5.345695665476e+01 1.577571738909e+03 
1.720000000000e+03 5.242257271106e+01 1.579295712148e+03 
1.730000000000e+03 5.140782091443e+01 1.580986965143e+03 
1.740000000000e+03 5.041234481912e+01 1.582646091968e+03 
1.750000000000e+03 4.943579382901e+01 1.584273676952e+03 
1.760000000000e+03 4.847782312596e+01 1.585870294790e+03 
1.770000000000e+03 4.753809359797e+01 1.587436510670e+03 
1.780000000000e+03 4.661627176730e+01 1.588972880388e+03 
1.790000000000e+03 4.571202971852e+01 1.590479950469e+03 
1.800000000000e+03 4.482504502663e+01 1.591958258289e+03 
1.810000000000e+03 4.395500068520e+01 1.593408332191e+03 
1.820000000000e+03 4.310158503467e+01 1.594830691609e+03 
1.830000000000e+03 4.226449169076e+01 1.596225847182e+03 
1.840000000000e+03 4.144341947311e+01 1.597594300878e+03 
1.850000000000e+03 4.063807233411e+01 1.598936546110e+03 
1.860000000000e+03 3.984815928804e+01 1.600253067853e+03 
1.870000000000e+03 3.907339434050e+01 1.601544342766e+03 
1.880000000000e+03 3.831349641812e+01 1.602810839303e+03 
1.890000000000e+03 3.756818929872e+01 1.604053017835e+03 
1.900000000000e+03 3.683720154177e+01 1.605271330764e+03 
1.910000000000e+03 3.612026641934e+01 1.606466222634e+03 
1.920000000000e+03 3.541712184744e+01 1.607638130254e+03 
1.930000000000e+03 3.472751031786e+01 1.608787482804e+03 
1.940000000000e+03 3.405117883046e+01 1.609914701949e+03 
1.950000000000e+03 3.338787882599e+01 1.611020201957e+03 
1.960000000000e+03 3.273736611946e+01 1.612104389801e+03 
1.970000000000e+03 3.209940083397e+01 1.613167665277e+03 
1.980000000000e+03 3.147374733523e+01 1.614210421108e+03 
1.990000000000e+03 3.086017416649e+01 1.615233043056e+03 
2.000000000000e+03 3.025845398424e+01 1.616235910026e+03 
2.010000000000e+03 2.966836349435e+01 1.617219394176e+03 
2.020000000000e+03 2.908968338894e+01 1.618183861018e+03 
2.030000000000e+03 2.852219828380e+01 1.619129669527e+03 
2.040000000000e+03 2.796569665650e+01 1.620057172239e+03 
2.050000000000e+03 2.741997078511e+01 1.620966715358e+03 
2.060000000000e+03 2.688481668757e+01 1.621858638854e+03 
2.070000000000e+03 2.636003406175e+01 1.622733276564e+03 
2.080000000000e+03 2.584542622614e+01 1.623590956290e+03 
2.090000000000e+03 2.534080006122e+01 1.624431999898e+03 
2.100000000000e+03 2.484596595154e+01 1.625256723414e+03 
2.110000000000e+03 2.436073772843e+01 1.626065437119e+03 
2.120000000000e+03 2.388493261339e+01 1.626858445644e+03 
2.130000000000e+03 2.341837116226e+01 1.627636048063e+03 
2.140000000000e+03 2.296087720993e+01 1.628398537983e+03 
2.150000000000e+03 2.251227781589e+01 1.629146203640e+03 
2.160000000000e+03 2.207240321034e+01 1.629879327983e+03 
2.170000000000e+03 2.164108674108e+01 1.630598188765e+03 
2.180000000000e+03 2.121816482107e+01 1.631303058632e+03 
2.190000000000e+03 2.080347687664e+01 1.631994205206e+03 
2.200000000000e+03 2.039686529645e+01 1.632671891173e+03 
2.210000000000e+03 1.999817538112e+01 1.633336374365e+03 
2.220000000000e+03 1.960725529349e+01 1.633987907844e+03 
2.230000000000e+03 1.922395600966e+01 1.634626739984e+03 
2.240000000000e+03 1.884813127064e+01 1.635253114549e+03 
2.250000000000e+03 1.847963753471e+01 1.635867270775e+03 
2.260000000000e+03 1.811833393043e+01 1.636469443449e+03 
2.270000000000e+03 1.776408221038e+01 1.637059862983e+03 
2.280000000000e+03 1.741674670549e+01 1.637638755491e+03 
2.290000000000e+03 1.707619428010e+01 1.638206342867e+03 
2.300000000000e+03 1.674229428761e+01 1.638762842854e+03 
2.310000000000e+03 1.641491852690e+01 1.639308469122e+03 
2.320000000000e+03 1.609394119928e+01 1.639843431335e+03 
2.330000000000e+03 1.577923886614e+01 1.640367935223e+03 
2.340000000000e+03 1.547069040725e+01 1.640882182655e+03 
2.350000000000e+03 1.516817697968e+01 1.641386371701e+03 
2.360000000000e+03 1.487158197735e+01 1.641880696704e+03 
2.370000000000e+03 1.458079099120e+01 1.642365348348e+03 
2.380000000000e+03 1.429569177001e+01 1.642840513717e+03 
2.390000000000e+03 1.401617418177e+01 1.643306376364e+03 
2.400000000000e+03 1.374213017574e+01 1.643763116374e+03 
2.410000000000e+03 1.347345374503e+01 1.644210910425e+03 
2.420000000000e+03 1.321004088981e+01 1.644649931850e+03 
2.430000000000e+03 1.295178958115e+01 1.645080350698e+03 
2.440000000000e+03 1.269859972535e+01 1.645502333791e+03 
2.450000000000e+03 1.245037312892e+01 1.645916044785e+03 
2.460000000000e+03 1.220701346410e+01 1.646321644226e+03 
2.470000000000e+03 1.196842623496e+01 1.646719289608e+03 
2.480000000000e+03 1.173451874402e+01 1.647109135427e+03 
2.490000000000e+03 1.150520005943e+01 1.647491333234e+03 
2.500000000000e+03 1.128038098277e+01 1.647866031695e+03 
2.510000000000e+03 1.105997401724e+01 1.648233376638e+03 
2.520000000000e+03 1.084389333649e+01 1.648593511106e+03 
2.530000000000e+03 1.063205475396e+01 1.648946575410e+03 
2.540000000000e+03 1.042437569268e+01 1.649292707179e+03 
2.550000000000e+03 1.022077515566e+01 1.649632041407e+03 
2.560000000000e+03 1.002117369669e+01 1.649964710506e+03 
2.570000000000e+03 9.825493391698e+00 1.650290844347e+03 
2.580000000000e+03 9.633657810606e+00 1.650610570316e+03 
2.590000000000e+03 9.445591989612e+00 1.650924013351e+03 
2.600000000000e+03 9.261222403992e+00 1.651231295993e+03 
2.610000000000e+03 9.080476941358e+00 1.651532538431e+03 
2.620000000000e+03 8.903284875372e+00 1.651827858541e+03 
2.630000000000e+03 8.729576839928e+00 1.652117371933e+03 
2.640000000000e+03 8.559284803770e+00 1.652401191994e+03 
2.650000000000e+03 8.392342045561e+00 1.652679429924e+03 
2.660000000000e+03 8.228683129387e+00 1.652952194784e+03 
2.670000000000e+03 8.068243880684e+00 1.653219593532e+03 
2.680000000000e+03 7.910961362601e+00 1.653481731062e+03 
2.690000000000e+03 7.756773852765e+00 1.653738710245e+03 
2.700000000000e+03 7.605620820465e+00 1.653990631966e+03 
2.710000000000e+03 7.457442904244e+00 1.654237595160e+03 
2.720000000000e+03 7.312181889878e+00 1.654479696850e+03 
2.730000000000e+03 7.169780688756e+00 1.654717032185e+03 
2.740000000000e+03 7.030183316643e+00 1.654949694472e+03 
2.750000000000e+03 6.893334872821e+00 1.655177775212e+03 
2.760000000000e+03 6.759181519610e+00 1.655401364134e+03 
2.770000000000e+03 6.627670462247e+00 1.655620549230e+03 
2.780000000000e+03 6.498749929140e+00 1.655835416785e+03 
2.790000000000e+03 6.372369152464e+00 1.656046051413e+03 
2.800000000000e+03 6.248478349121e+00 1.656252536085e+03 
2.810000000000e+03 6.127028702036e+00 1.656454952163e+03 
2.820000000000e+03 6.007972341799e+00 1.656653379430e+03 
2.830000000000e+03 5.891262328631e+00 1.656847896119e+03 
2.840000000000e+03 5.776852634693e+00 1.657038578942e+03 
2.850000000000e+03 5.664698126702e+00 1.657225503122e+03 
2.860000000000e+03 5.554754548881e+00 1.657408742419e+03 
2.870000000000e+03 5.446978506204e+00 1.657588369156e+03 
2.880000000000e+03 5.341327447963e+00 1.657764454253e+03 
2.890000000000e+03 5.237759651631e+00 1.657937067247e+03 
2.900000000000e+03 5.136234207020e+00 1.658106276322e+03 
2.910000000000e+03 5.036711000733e+00 1.658272148332e+03 
2.920000000000e+03 4.939150700907e+00 1.658434748832e+03 
2.930000000000e+03 4.843514742227e+00 1.658594142096e+03 
2.940000000000e+03 4.749765311234e+00 1.658750391148e+03 
2.950000000000e+03 4.657865331889e+00 1.658903557780e+03 
2.960000000000e+03 4.567778451415e+00 1.659053702581e+03 
2.970000000000e+03 4.479469026398e+00 1.659200884956e+03 
2.980000000000e+03 4.392902109150e+00 1.659345163151e+03 
2.990000000000e+03 4.308043434323e+00 1.659486594276e+03 
3.000000000000e+03 4.224859405775e+00 1.659625234324e+03 
3.010000000000e+03 4.143317083680e+00 1.659761138194e+03 
3.020000000000e+03 4.063384171881e+00 1.659894359714e+03 
3.030000000000e+03 3.985029005475e+00 1.660024951658e+03 
3.040000000000e+03 3.908220538641e+00 1.660152965769e+03 
3.050000000000e+03 3.832928332684e+00 1.660278452779e+03 
3.060000000000e+03 3.759122544314e+00 1.660401462426e+03 
3.070000000000e+03 3.686773914139e+00 1.660522043476e+03 
3.080000000000e+03 3.615853755377e+00 1.660640243741e+03 
3.090000000000e+03 3.546333942786e+00 1.660756110095e+03 
3.100000000000e+03 3.478186901789e+00 1.660869688497e+03 
3.110000000000e+03 3.411385597821e+00 1.660981024004e+03 
3.120000000000e+03 3.345903525869e+00 1.661090160790e+03 
3.130000000000e+03 3.281714700206e+00 1.661197142166e+03 
3.140000000000e+03 3.218793644331e+00 1.661302010593e+03 
3.150000000000e+03 3.157115381089e+00 1.661404807698e+03 
3.160000000000e+03 3.096655422983e+00 1.661505574295e+03 
3.170000000000e+03 3.037389762673e+00 1.661604350396e+03 
3.180000000000e+03 2.979294863651e+00 1.661701175227e+03 
3.190000000000e+03 2.922347651092e+00 1.661796087248e+03 
3.200000000000e+03 2.866525502887e+00 1.661889124162e+03 
3.210000000000e+03 2.811806240840e+00 1.661980322932e+03 
3.220000000000e+03 2.758168122035e+00 1.662069719797e+03 
3.230000000000e+03 2.705589830370e+00 1.662157350283e+03 
3.240000000000e+03 2.654050468246e+00 1.662243249220e+03 
3.250000000000e+03 2.603529548427e+00 1.662327450753e+03 
3.260000000000e+03 2.554006986040e+00 1.662409988357e+03 
3.270000000000e+03 2.505463090745e+00 1.662490894849e+03 
3.280000000000e+03 2.457878559040e+00 1.662570202402e+03 
3.290000000000e+03 2.411234466724e+00 1.662647942555e+03 
3.300000000000e+03 2.365512261497e+00 1.662724146231e+03 
3.310000000000e+03 2.320693755712e+00 1.662798843740e+03 
3.320000000000e+03 2.276761119253e+00 1.662872064801e+03 
3.330000000000e+03 2.233696872563e+00 1.662943838546e+03 
3.340000000000e+03 2.191483879796e+00 1.663014193534e+03 
3.350000000000e+03 2.150105342105e+00 1.663083157763e+03 
3.360000000000e+03 2.109544791064e+00 1.663150758682e+03 
3.370000000000e+03 2.069786082205e+00 1.663217023196e+03 
3.380000000000e+03 2.030813388690e+00 1.663281977686e+03 
3.390000000000e+03 1.992611195104e+00 1.663345648008e+03 
3.400000000000e+03 1.955164291358e+00 1.663408059514e+03 
3.410000000000e+03 1.918457766727e+00 1.663469237055e+03 
3.420000000000e+03 1.882477003982e+00 1.663529204993e+03 
3.430000000000e+03 1.847207673656e+00 1.663587987211e+03 
3.440000000000e+03 1.812635728408e+00 1.663645607119e+03 
3.450000000000e+03 1.778747397497e+00 1.663702087671e+03 
3.460000000000e+03 1.745529181369e+00 1.663757451364e+03 
3.470000000000e+03 1.712967846346e+00 1.663811720256e+03 
3.480000000000e+03 1.681050419413e+00 1.663864915968e+03 
3.490000000000e+03 1.649764183114e+00 1.663917059695e+03 
3.500000000000e+03 1.619096670542e+00 1.663968172216e+03 
3.510000000000e+03 1.589035660426e+00 1.664018273899e+03 
3.520000000000e+03 1.559569172318e+00 1.664067384713e+03 
3.530000000000e+03 1.530685461869e+00 1.664115524230e+03 
3.540000000000e+03 1.502373016194e+00 1.664162711640e+03 
3.550000000000e+03 1.474620549338e+00 1.664208965751e+03 
3.560000000000e+03 1.447416997817e+00 1.664254305004e+03 
3.570000000000e+03 1.420751516257e+00 1.664298747473e+03 
3.580000000000e+03 1.394613473109e+00 1.664342310878e+03 
3.590000000000e+03 1.368992446450e+00 1.664385012589e+03 
3.600000000000e+03 1.343878219873e+00 1.664426869634e+03 
3.610000000000e+03 1.319260778445e+00 1.664467898703e+03 
3.620000000000e+03 1.295130304751e+00 1.664508116159e+03 
3.630000000000e+03 1.271477175014e+00 1.664547538042e+03 
3.640000000000e+03 1.248291955293e+00 1.664586180075e+03 
3.650000000000e+03 1.225565397747e+00 1.664624057670e+03 
3.660000000000e+03 1.203288436982e+00 1.664661185938e+03 
3.670000000000e+03 1.181452186461e+00 1.664697579689e+03 
3.680000000000e+03 1.160047934991e+00 1.664733253442e+03 
3.690000000000e+03 1.139067143273e+00 1.664768221428e+03 
3.700000000000e+03 1.118501440523e+00 1.664802497599e+03 
3.710000000000e+03 1.098342621155e+00 1.664836095631e+03 
3.720000000000e+03 1.078582641535e+00 1.664869028931e+03 
3.730000000000e+03 1.059213616791e+00 1.664901310639e+03 
3.740000000000e+03 1.040227817693e+00 1.664932953637e+03 
3.750000000000e+03 1.021617667586e+00 1.664963970554e+03 
3.760000000000e+03 1.003375739393e+00 1.664994373768e+03 
3.770000000000e+03 9.854947526641e-01 1.665024175412e+03 
3.780000000000e+03 9.679675706941e-01 1.665053387382e+03 
3.790000000000e+03 9.507871976918e-01 1.665082021337e+03 
3.800000000000e+03 9.339467760051e-01 1.665110088707e+03 
3.810000000000e+03 9.174395834006e-01 1.665137600694e+03 
3.820000000000e+03 9.012590303968e-01 1.665164568283e+03 
3.830000000000e+03 8.853986576490e-01 1.665191002237e+03 
3.840000000000e+03 8.698521333862e-01 1.665216913111e+03 
3.850000000000e+03 8.546132508976e-01 1.665242311249e+03 
3.860000000000e+03 8.396759260685e-01 1.665267206790e+03 
3.870000000000e+03 8.250341949647e-01 1.665291609675e+03 
3.880000000000e+03 8.106822114642e-01 1.665315529648e+03 
3.890000000000e+03 7.966142449350e-01 1.665338976258e+03 
3.900000000000e+03 7.828246779591e-01 1.665361958870e+03 
3.910000000000e+03 7.693080041008e-01 1.665384486660e+03 
3.920000000000e+03 7.560588257185e-01 1.665406568624e+03 
3.930000000000e+03 7.430718518200e-01 1.665428213580e+03 
3.940000000000e+03 7.303418959599e-01 1.665449430173e+03 
3.950000000000e+03 7.178638741776e-01 1.665470226876e+03 
3.960000000000e+03 7.056328029764e-01 1.665490611995e+03 
3.970000000000e+03 6.936437973423e-01 1.665510593671e+03 
3.980000000000e+03 6.818920688014e-01 1.665530179885e+03 
3.990000000000e+03 6.703729235157e-01 1.665549378461e+03 
4.000000000000e+03 6.590817604164e-01 1.665568197066e+03 
4.010000000000e+03 6.480140693733e-01 1.665586643218e+03 
4.020000000000e+03 6.371654294010e-01 1.665604724284e+03 
4.030000000000e+03 6.265315069000e-01 1.665622447489e+03 
4.040000000000e+03 6.161080539322e-01 1.665639819910e+03 
4.050000000000e+03 6.058909065304e-01 1.665656848489e+03 
4.060000000000e+03 5.958759830414e-01 1.665673540028e+03 
4.070000000000e+03 5.860592825013e-01 1.665689901196e+03 
4.080000000000e+03 5.764368830429e-01 1.665705938528e+03 
4.090000000000e+03 5.670049403344e-01 1.665721658433e+03 
4.100000000000e+03 5.577596860487e-01 1.665737067190e+03 
4.110000000000e+03 5.486974263633e-01 1.665752170956e+03 
4.120000000000e+03 5.398145404893e-01 1.665766975766e+03 
4.130000000000e+03 5.311074792292e-01 1.665781487535e+03 
4.140000000000e+03 5.225727635635e-01 1.665795712061e+03 
4.150000000000e+03 5.142069832651e-01 1.665809655028e+03 
4.160000000000e+03 5.060067955409e-01 1.665823322007e+03 
4.170000000000e+03 4.979689236997e-01 1.665836718461e+03 
4.180000000000e+03 4.900901558472e-01 1.665849849740e+03 
4.190000000000e+03 4.823673436060e-01 1.665862721094e+03 
4.200000000000e+03 4.747974008614e-01 1.665875337665e+03 
4.210000000000e+03 4.673773025311e-01 1.665887704496e+03 
4.220000000000e+03 4.601040833599e-01 1.665899826528e+03 
4.230000000000e+03 4.529748367381e-01 1.665911708605e+03 
4.240000000000e+03 4.459867135425e-01 1.665923355477e+03 
4.250000000000e+03 4.391369210010e-01 1.665934771798e+03 
4.260000000000e+03 4.324227215792e-01 1.665945962131e+03 
4.270000000000e+03 4.258414318892e-01 1.665956930947e+03 
4.280000000000e+03 4.193904216196e-01 1.665967682631e+03 
4.290000000000e+03 4.130671124866e-01 1.665978221479e+03 
4.300000000000e+03 4.068689772064e-01 1.665988551705e+03 
4.310000000000e+03 4.007935384869e-01 1.665998677436e+03 
4.320000000000e+03 3.948383680400e-01 1.666008602720e+03 
4.330000000000e+03 3.890010856133e-01 1.666018331524e+03 
4.340000000000e+03 3.832793580405e-01 1.666027867737e+03 
4.350000000000e+03 3.776708983110e-01 1.666037215169e+03 
4.360000000000e+03 3.721734646576e-01 1.666046377559e+03 
4.370000000000e+03 3.667848596620e-01 1.666055358567e+03 
4.380000000000e+03 3.615029293787e-01 1.666064161784e+03 
4.390000000000e+03 3.563255624754e-01 1.666072790729e+03 
4.400000000000e+03 3.512506893903e-01 1.666081248851e+03 
4.410000000000e+03 3.462762815072e-01 1.666089539531e+03 
4.420000000000e+03 3.414003503454e-01 1.666097666083e+03 
4.430000000000e+03 3.366209467663e-01 1.666105631755e+03 
4.440000000000e+03 3.319361601959e-01 1.666113439733e+03 
4.450000000000e+03 3.273441178623e-01 1.666121093137e+03 
4.460000000000e+03 3.228429840482e-01 1.666128595027e+03 
4.470000000000e+03 3.184309593580e-01 1.666135948401e+03 
4.480000000000e+03 3.141062800004e-01 1.666143156200e+03 
4.490000000000e+03 3.098672170836e-01 1.666150221305e+03 
4.500000000000e+03 3.057120759256e-01 1.666157146540e+03 
4.510000000000e+03 3.016391953778e-01 1.666163934674e+03 
4.520000000000e+03 2.976469471617e-01 1.666170588421e+03 
4.530000000000e+03 2.937337352190e-01 1.666177110441e+03 
4.540000000000e+03 2.898979950744e-01 1.666183503342e+03 
4.550000000000e+03 2.861381932111e-01 1.666189769678e+03 
4.560000000000e+03 2.824528264583e-01 1.666195911956e+03 
4.570000000000e+03 2.788404213915e-01 1.666201932631e+03 
4.580000000000e+03 2.752995337437e-01 1.666207834110e+03 
4.590000000000e+03 2.718287478290e-01 1.666213618754e+03 
4.600000000000e+03 2.684266759773e-01 1.666219288873e+03 
4.610000000000e+03 2.650919579801e-01 1.666224846737e+03 
4.620000000000e+03 2.618232605475e-01 1.666230294566e+03 
4.630000000000e+03 2.586192767755e-01 1.666235634539e+03 
4.640000000000e+03 2.554787256242e-01 1.666240868791e+03 
4.650000000000e+03 2.524003514064e-01 1.666245999414e+03 
4.660000000000e+03 2.493829232857e-01 1.666251028461e+03 
4.670000000000e+03 2.464252347855e-01 1.666255957942e+03 
4.680000000000e+03 2.435261033063e-01 1.666260789828e+03 
4.690000000000e+03 2.406843696542e-01 1.666265526051e+03 
4.700000000000e+03 2.378988975775e-01 1.666270168504e+03 
4.710000000000e+03 2.351685733126e-01 1.666274719044e+03 
4.720000000000e+03 2.324923051395e-01 1.666279179491e+03 
4.730000000000e+03 2.298690229458e-01 1.666283551628e+03 
4.740000000000e+03 2.272976777987e-01 1.666287837204e+03 
4.750000000000e+03 2.247772415265e-01 1.666292037931e+03 
4.760000000000e+03 2.223067063074e-01 1.666296155489e+03 
4.770000000000e+03 2.198850842673e-01 1.666300191526e+03 
4.780000000000e+03 2.175114070850e-01 1.666304147655e+03 
4.790000000000e+03 2.151847256051e-01 1.666308025457e+03 
4.800000000000e+03 2.129041094592e-01 1.666311826484e+03 
4.810000000000e+03 2.106686466937e-01 1.666315552256e+03 
4.820000000000e+03 2.084774434059e-01 1.666319204261e+03 
4.830000000000e+03 2.063296233867e-01 1.666322783961e+03 
4.840000000000e+03 2.042243277704e-01 1.666326292787e+03 
4.850000000000e+03 2.021607146913e-01 1.666329732142e+03 
4.860000000000e+03 2.001379589480e-01 1.666333103402e+03 
4.870000000000e+03 1.981552516729e-01 1.666336407914e+03 
4.880000000000e+03 1.962118000097e-01 1.666339647000e+03 
4.890000000000e+03 1.943068267957e-01 1.666342821955e+03 
4.900000000000e+03 1.924395702522e-01 1.666345934050e+03 
4.910000000000e+03 1.906092836793e-01 1.666348984527e+03 
4.920000000000e+03 1.888152351581e-01 1.666351974608e+03 
4.930000000000e+03 1.870567072576e-01 1.666354905488e+03 
4.940000000000e+03 1.853329967487e-01 1.666357778339e+03 
4.950000000000e+03 1.836434143225e-01 1.666360594309e+03 
4.960000000000e+03 1.819872843151e-01 1.666363354526e+03 
4.970000000000e+03 1.803639444377e-01 1.666366060093e+03 
4.980000000000e+03 1.787727455116e-01 1.666368712091e+03 
4.990000000000e+03 1.772130512091e-01 1.666371311581e+03 
5.000000000000e+03 1.756842377989e-01 1.666373859604e+03 
5.010000000000e+03 1.741856938968e-01 1.666376357177e+03 
5.020000000000e+03 1.727168202216e-01 1.666378805300e+03 
5.030000000000e+03 1.712770293551e-01 1.666381204951e+03 
5.040000000000e+03 1.698657455081e-01 1.666383557091e+03 
5.050000000000e+03 1.684824042893e-01 1.666385862660e+03 
5.060000000000e+03 1.671264524804e-01 1.666388122579e+03 
5.070000000000e+03 1.657973478148e-01 1.666390337754e+03 
5.080000000000e+03 1.644945587605e-01 1.666392509069e+03 
5.090000000000e+03 1.632175643081e-01 1.666394637393e+03 
5.100000000000e+03 1.619658537626e-01 1.666396723577e+03 
5.110000000000e+03 1.607389265385e-01 1.666398768456e+03 
5.120000000000e+03 1.595362919606e-01 1.666400772847e+03 
5.130000000000e+03 1.583574690674e-01 1.666402737552e+03 
5.140000000000e+03 1.572019864188e-01 1.666404663356e+03 