 TITLE = "Time curves in points"
 VARIABLES = "TIME "  "HEAD" 
 ZONE T="POINT=POINT5"
0.000000000000e+00 2.000000000000e+01 
1.200000000000e-05 1.999999986723e+01 
2.400000000000e-05 1.999999878455e+01 
3.600000000000e-05 1.999999427915e+01 
4.800000000000e-05 1.999998139332e+01 
6.000000000000e-05 1.999995267038e+01 
7.200000000000e-05 1.999989907377e+01 
8.400000000000e-05 1.999981138320e+01 
9.600000000000e-05 1.999968147729e+01 
1.080000000000e-04 1.999950315198e+01 
1.200000000000e-04 1.999927242275e+01 
1.320000000000e-04 1.999898743496e+01 
1.440000000000e-04 1.999864815053e+01 
1.560000000000e-04 1.999825594957e+01 
1.680000000000e-04 1.999781323574e+01 
1.800000000000e-04 1.999732309127e+01 
1.920000000000e-04 1.999678899774e+01 
2.040000000000e-04 1.999621462269e+01 
2.160000000000e-04 1.999560366392e+01 
2.280000000000e-04 1.999495974098e+01 
2.400000000000e-04 1.999428632327e+01 
2.520000000000e-04 1.999358668570e+01 
2.640000000000e-04 1.999286388434e+01 
2.760000000000e-04 1.999212074633e+01 
2.880000000000e-04 1.999135986951e+01 
3.000000000000e-04 1.999058362861e+01 
3.120000000000e-04 1.998979418547e+01 
3.240000000000e-04 1.998899350179e+01 
3.360000000000e-04 1.998818335295e+01 
3.480000000000e-04 1.998736534234e+01 
3.600000000000e-04 1.998654091555e+01 
3.720000000000e-04 1.998571137394e+01 
3.840000000000e-04 1.998487788760e+01 
3.960000000000e-04 1.998404150745e+01 
4.080000000000e-04 1.998320317641e+01 
4.200000000000e-04 1.998236373969e+01 
4.320000000000e-04 1.998152395424e+01 
4.440000000000e-04 1.998068449725e+01 
4.560000000000e-04 1.997984597403e+01 
4.680000000000e-04 1.997900892497e+01 
4.800000000000e-04 1.997817383196e+01 
4.920000000000e-04 1.997734112416e+01 
5.040000000000e-04 1.997651118313e+01 
5.160000000000e-04 1.997568434756e+01 
5.280000000000e-04 1.997486091749e+01 
5.400000000000e-04 1.997404115805e+01 
5.520000000000e-04 1.997322530294e+01 
5.640000000000e-04 1.997241355750e+01 
5.760000000000e-04 1.997160610144e+01 
5.880000000000e-04 1.997080309141e+01 
6.000000000000e-04 1.997000466320e+01 
6.120000000000e-04 1.996921093381e+01 
6.240000000000e-04 1.996842200326e+01 
6.360000000000e-04 1.996763795625e+01 
6.480000000000e-04 1.996685886366e+01 
6.600000000000e-04 1.996608478392e+01 
6.720000000000e-04 1.996531576418e+01 
6.840000000000e-04 1.996455184146e+01 
6.960000000000e-04 1.996379304364e+01 
7.080000000000e-04 1.996303939034e+01 
7.200000000000e-04 1.996229089375e+01 
7.320000000000e-04 1.996154755938e+01 
7.440000000000e-04 1.996080938674e+01 
7.560000000000e-04 1.996007636989e+01 
7.680000000000e-04 1.995934849809e+01 
7.800000000000e-04 1.995862575620e+01 
7.920000000000e-04 1.995790812520e+01 
8.040000000000e-04 1.995719558260e+01 
8.160000000000e-04 1.995648810275e+01 
8.280000000000e-04 1.995578565728e+01 
8.400000000000e-04 1.995508821532e+01 
8.520000000000e-04 1.995439574383e+01 
8.640000000000e-04 1.995370820785e+01 
8.760000000000e-04 1.995302557071e+01 
8.880000000000e-04 1.995234779426e+01 
9.000000000000e-04 1.995167483907e+01 
9.120000000000e-04 1.995100666457e+01 
9.240000000000e-04 1.995034322924e+01 
9.360000000000e-04 1.994968449075e+01 
9.480000000000e-04 1.994903040607e+01 
9.600000000000e-04 1.994838093160e+01 
9.720000000000e-04 1.994773602329e+01 
9.840000000000e-04 1.994709563674e+01 
9.960000000000e-04 1.994645972724e+01 
1.008000000000e-03 1.994582824992e+01 
1.020000000000e-03 1.994520115977e+01 
1.032000000000e-03 1.994457841174e+01 
1.044000000000e-03 1.994395996077e+01 
1.056000000000e-03 1.994334576186e+01 
1.068000000000e-03 1.994273577013e+01 
1.080000000000e-03 1.994212994083e+01 
1.092000000000e-03 1.994152822943e+01 
1.104000000000e-03 1.994093059159e+01 
1.116000000000e-03 1.994033698325e+01 
1.128000000000e-03 1.993974736064e+01 
1.140000000000e-03 1.993916168027e+01 
1.152000000000e-03 1.993857989902e+01 
1.164000000000e-03 1.993800197410e+01 
1.176000000000e-03 1.993742786309e+01 
1.188000000000e-03 1.993685752398e+01 
1.200000000000e-03 1.993629091512e+01 
1.212000000000e-03 1.993572799530e+01 
1.224000000000e-03 1.993516872372e+01 
1.236000000000e-03 1.993461306002e+01 
1.248000000000e-03 1.993406096427e+01 
1.260000000000e-03 1.993351239698e+01 
1.272000000000e-03 1.993296731910e+01 
1.284000000000e-03 1.993242569205e+01 
1.296000000000e-03 1.993188747769e+01 
1.308000000000e-03 1.993135263834e+01 
1.320000000000e-03 1.993082113678e+01 
1.332000000000e-03 1.993029293625e+01 
1.344000000000e-03 1.992976800043e+01 
1.356000000000e-03 1.992924629348e+01 
1.368000000000e-03 1.992872778001e+01 
1.380000000000e-03 1.992821242508e+01 
1.392000000000e-03 1.992770019419e+01 
1.404000000000e-03 1.992719105330e+01 
1.416000000000e-03 1.992668496883e+01 
1.428000000000e-03 1.992618190763e+01 
1.440000000000e-03 1.992568183699e+01 
1.452000000000e-03 1.992518472463e+01 
1.464000000000e-03 1.992469053872e+01 
1.476000000000e-03 1.992419924784e+01 
1.488000000000e-03 1.992371082100e+01 
1.500000000000e-03 1.992322522763e+01 
1.512000000000e-03 1.992274243759e+01 
1.524000000000e-03 1.992226242113e+01 
1.536000000000e-03 1.992178514890e+01 
1.548000000000e-03 1.992131059198e+01 
1.560000000000e-03 1.992083872182e+01 
1.572000000000e-03 1.992036951026e+01 
1.584000000000e-03 1.991990292955e+01 
1.596000000000e-03 1.991943895231e+01 
1.608000000000e-03 1.991897755151e+01 
1.620000000000e-03 1.991851870053e+01 
1.632000000000e-03 1.991806237308e+01 
1.644000000000e-03 1.991760854327e+01 
1.656000000000e-03 1.991715718553e+01 
1.668000000000e-03 1.991670827466e+01 
1.680000000000e-03 1.991626178580e+01 
1.692000000000e-03 1.991581769442e+01 
1.704000000000e-03 1.991537597635e+01 
1.716000000000e-03 1.991493660772e+01 
1.728000000000e-03 1.991449956501e+01 
1.740000000000e-03 1.991406482502e+01 
1.752000000000e-03 1.991363236484e+01 
