 TITLE = "Profiles along polylines"
 VARIABLES = "DIST" "CONCENTRATION0" 
 ZONE T="TIME=0.000000000000e+00"
0.000000000000e+00 0.000000000000e+00 
1.000000000000e-02 0.000000000000e+00 
2.000000000000e-02 0.000000000000e+00 
3.000000000000e-02 0.000000000000e+00 
4.000000000000e-02 0.000000000000e+00 
5.000000000000e-02 0.000000000000e+00 
6.000000000000e-02 0.000000000000e+00 
7.000000000000e-02 0.000000000000e+00 
8.000000000000e-02 0.000000000000e+00 
9.000000000000e-02 0.000000000000e+00 
1.000000000000e-01 1.000000000000e+00 
1.100000000000e-01 1.000000000000e+00 
1.200000000000e-01 1.000000000000e+00 
1.300000000000e-01 1.000000000000e+00 
1.400000000000e-01 1.000000000000e+00 
1.500000000000e-01 1.000000000000e+00 
1.600000000000e-01 1.000000000000e+00 
1.700000000000e-01 1.000000000000e+00 
1.800000000000e-01 1.000000000000e+00 
1.900000000000e-01 1.000000000000e+00 
2.000000000000e-01 1.000000000000e+00 
2.100000000000e-01 1.000000000000e+00 
2.200000000000e-01 1.000000000000e+00 
2.300000000000e-01 1.000000000000e+00 
2.400000000000e-01 1.000000000000e+00 
2.500000000000e-01 1.000000000000e+00 
2.600000000000e-01 1.000000000000e+00 
2.700000000000e-01 1.000000000000e+00 
2.800000000000e-01 1.000000000000e+00 
2.900000000000e-01 1.000000000000e+00 
3.000000000000e-01 1.000000000000e+00 
3.100000000000e-01 0.000000000000e+00 
3.200000000000e-01 0.000000000000e+00 
3.300000000000e-01 0.000000000000e+00 
3.400000000000e-01 0.000000000000e+00 
3.500000000000e-01 0.000000000000e+00 
3.600000000000e-01 0.000000000000e+00 
3.700000000000e-01 0.000000000000e+00 
3.800000000000e-01 0.000000000000e+00 
3.900000000000e-01 0.000000000000e+00 
4.000000000000e-01 0.000000000000e+00 
4.100000000000e-01 0.000000000000e+00 
4.200000000000e-01 0.000000000000e+00 
4.300000000000e-01 0.000000000000e+00 
4.400000000000e-01 0.000000000000e+00 
4.500000000000e-01 0.000000000000e+00 
4.600000000000e-01 0.000000000000e+00 
4.700000000000e-01 0.000000000000e+00 
4.800000000000e-01 0.000000000000e+00 
4.900000000000e-01 0.000000000000e+00 
5.000000000000e-01 0.000000000000e+00 
5.100000000000e-01 0.000000000000e+00 
5.200000000000e-01 0.000000000000e+00 
5.300000000000e-01 0.000000000000e+00 
5.400000000000e-01 0.000000000000e+00 
5.500000000000e-01 0.000000000000e+00 
5.600000000000e-01 0.000000000000e+00 
5.700000000000e-01 0.000000000000e+00 
5.800000000000e-01 0.000000000000e+00 
5.900000000000e-01 0.000000000000e+00 
6.000000000000e-01 0.000000000000e+00 
6.100000000000e-01 0.000000000000e+00 
6.200000000000e-01 0.000000000000e+00 
6.300000000000e-01 0.000000000000e+00 
6.400000000000e-01 0.000000000000e+00 
6.500000000000e-01 0.000000000000e+00 
6.600000000000e-01 0.000000000000e+00 
6.700000000000e-01 0.000000000000e+00 
6.800000000000e-01 0.000000000000e+00 
6.900000000000e-01 0.000000000000e+00 
7.000000000000e-01 0.000000000000e+00 
7.100000000000e-01 0.000000000000e+00 
7.200000000000e-01 0.000000000000e+00 
7.300000000000e-01 0.000000000000e+00 
7.400000000000e-01 0.000000000000e+00 
7.500000000000e-01 0.000000000000e+00 
7.600000000000e-01 0.000000000000e+00 
7.700000000000e-01 0.000000000000e+00 
7.800000000000e-01 0.000000000000e+00 
7.900000000000e-01 0.000000000000e+00 
8.000000000000e-01 0.000000000000e+00 
8.100000000000e-01 0.000000000000e+00 
8.200000000000e-01 0.000000000000e+00 
8.300000000000e-01 0.000000000000e+00 
8.400000000000e-01 0.000000000000e+00 
8.500000000000e-01 0.000000000000e+00 
8.600000000000e-01 0.000000000000e+00 
8.700000000000e-01 0.000000000000e+00 
8.800000000000e-01 0.000000000000e+00 
8.900000000000e-01 0.000000000000e+00 
9.000000000000e-01 0.000000000000e+00 
9.100000000000e-01 0.000000000000e+00 
9.200000000000e-01 0.000000000000e+00 
9.300000000000e-01 0.000000000000e+00 
9.400000000000e-01 0.000000000000e+00 
9.500000000000e-01 0.000000000000e+00 
9.600000000000e-01 0.000000000000e+00 
9.700000000000e-01 0.000000000000e+00 
9.800000000000e-01 0.000000000000e+00 
9.900000000000e-01 0.000000000000e+00 
1.000000000000e+00 0.000000000000e+00 
 ZONE T="TIME=1.000000000000e-02"
0.000000000000e+00 0.000000000000e+00 
1.000000000000e-02 0.000000000000e+00 
2.000000000000e-02 0.000000000000e+00 
3.000000000000e-02 6.839239859330e-37 
4.000000000000e-02 2.549171220296e-36 
5.000000000000e-02 8.484048784177e-36 
6.000000000000e-02 2.251142736568e-36 
7.000000000000e-02 0.000000000000e+00 
8.000000000000e-02 -1.094278377493e-36 
9.000000000000e-02 7.002386817429e-34 
1.000000000000e-01 2.429737920925e-01 
1.100000000000e-01 7.845835239171e-01 
1.200000000000e-01 9.771039630048e-01 
1.300000000000e-01 9.961493777823e-01 
1.400000000000e-01 9.992992923842e-01 
1.500000000000e-01 9.999149831246e-01 
1.600000000000e-01 9.999781772224e-01 
1.700000000000e-01 9.999976134180e-01 
1.800000000000e-01 9.999994394287e-01 
1.900000000000e-01 9.999998764967e-01 
2.000000000000e-01 9.999999692955e-01 
2.100000000000e-01 9.999999933956e-01 
2.200000000000e-01 9.999999987157e-01 
2.300000000000e-01 9.999999997686e-01 
2.400000000000e-01 9.999999999607e-01 
2.500000000000e-01 9.999999999937e-01 
2.600000000000e-01 9.999999999990e-01 
2.700000000000e-01 9.999999999999e-01 
2.800000000000e-01 1.000000000000e+00 
2.900000000000e-01 1.000000000000e+00 
3.000000000000e-01 1.000000000000e+00 
3.100000000000e-01 7.570261905754e-01 
3.200000000000e-01 2.154165743199e-01 
3.300000000000e-01 2.289600113441e-02 
3.400000000000e-01 3.850527520824e-03 
3.500000000000e-01 7.007723488593e-04 
3.600000000000e-01 8.504142877182e-05 
3.700000000000e-01 2.182495506732e-05 
3.800000000000e-01 2.403903573694e-06 
3.900000000000e-01 5.806865319129e-07 
4.000000000000e-01 6.839445637281e-08 
4.100000000000e-01 1.251839745706e-08 
4.200000000000e-01 1.885921063596e-09 
4.300000000000e-01 2.636654684603e-10 
4.400000000000e-01 5.400315935223e-11 
4.500000000000e-01 8.733647444164e-12 
4.600000000000e-01 1.370312507913e-12 
4.700000000000e-01 2.289000969165e-13 
4.800000000000e-01 3.295078290564e-14 
4.900000000000e-01 5.316055193416e-15 
5.000000000000e-01 7.907672501067e-16 
5.100000000000e-01 1.230402406993e-16 
5.200000000000e-01 1.891134418260e-17 
5.300000000000e-01 2.821990497732e-18 
5.400000000000e-01 4.079722525862e-19 
5.500000000000e-01 5.727878995217e-20 
5.600000000000e-01 7.835694840423e-21 
5.700000000000e-01 1.047685537047e-21 
5.800000000000e-01 1.372818171669e-22 
5.900000000000e-01 1.766827783527e-23 
6.000000000000e-01 2.237617286244e-24 
6.100000000000e-01 2.792998728001e-25 
6.200000000000e-01 3.440564672177e-26 
6.300000000000e-01 4.187566319628e-27 
6.400000000000e-01 5.040799990765e-28 
6.500000000000e-01 6.006503264081e-29 
6.600000000000e-01 7.090261778075e-30 
6.700000000000e-01 8.296927441167e-31 
6.800000000000e-01 9.630548556003e-32 
6.900000000000e-01 1.109431214839e-32 
7.000000000000e-01 1.269049859543e-33 
7.100000000000e-01 1.442044847114e-34 
7.200000000000e-01 1.628454137036e-35 
7.300000000000e-01 1.828218633257e-36 
7.400000000000e-01 2.041182336540e-37 
7.500000000000e-01 2.267093546356e-38 
7.600000000000e-01 2.505607043124e-39 
7.700000000000e-01 2.756287174489e-40 
7.800000000000e-01 3.018611763734e-41 
7.900000000000e-01 3.291976754359e-42 
8.000000000000e-01 3.575701502132e-43 
8.100000000000e-01 3.869034624580e-44 
8.200000000000e-01 4.171160317640e-45 
8.300000000000e-01 4.481205050177e-46 
8.400000000000e-01 4.798244548935e-47 
8.500000000000e-01 5.121310989281e-48 
8.600000000000e-01 5.449400310679e-49 
8.700000000000e-01 5.781479579989e-50 
8.800000000000e-01 6.116494330466e-51 
8.900000000000e-01 6.453375809487e-52 
9.000000000000e-01 6.791048073563e-53 
9.100000000000e-01 7.128434874924e-54 
9.200000000000e-01 7.464466289877e-55 
9.300000000000e-01 7.798085045094e-56 
9.400000000000e-01 8.128252503914e-57 
9.500000000000e-01 8.453954280647e-58 
9.600000000000e-01 8.774205456582e-59 
9.700000000000e-01 9.088055376928e-60 
9.800000000000e-01 9.394592013238e-61 
9.900000000000e-01 9.692945880897e-62 
1.000000000000e+00 1.810325823721e-62 
 ZONE T="TIME=2.000000000000e-02"
0.000000000000e+00 0.000000000000e+00 
1.000000000000e-02 0.000000000000e+00 
2.000000000000e-02 0.000000000000e+00 
3.000000000000e-02 3.761581922631e-37 
4.000000000000e-02 6.497277866363e-37 
5.000000000000e-02 3.713771863523e-36 
6.000000000000e-02 4.513898307158e-36 
7.000000000000e-02 1.094278377493e-36 
8.000000000000e-02 -6.365874875670e-37 
9.000000000000e-02 2.694612532166e-34 
1.000000000000e-01 1.176841739618e-02 
1.100000000000e-01 2.765123666851e-01 
1.200000000000e-01 7.522413517836e-01 
1.300000000000e-01 9.646837046887e-01 
1.400000000000e-01 9.960540838791e-01 
1.500000000000e-01 9.989215460187e-01 
1.600000000000e-01 9.998443545795e-01 
1.700000000000e-01 9.999808701852e-01 
1.800000000000e-01 9.999944972473e-01 
1.900000000000e-01 9.999992223776e-01 
2.000000000000e-01 9.999997251664e-01 
2.100000000000e-01 9.999999033906e-01 
2.200000000000e-01 9.999999691881e-01 
2.300000000000e-01 9.999999908387e-01 
2.400000000000e-01 9.999999974513e-01 
2.500000000000e-01 9.999999993354e-01 
2.600000000000e-01 9.999999998370e-01 
2.700000000000e-01 9.999999999622e-01 
2.800000000000e-01 9.999999999917e-01 
2.900000000000e-01 9.999999999983e-01 
3.000000000000e-01 9.999999999996e-01 
3.100000000000e-01 9.882316013011e-01 
3.200000000000e-01 7.234877416740e-01 
3.300000000000e-01 2.477584099418e-01 
3.400000000000e-01 3.531666179236e-02 
3.500000000000e-01 3.945732434211e-03 
3.600000000000e-01 1.078233073434e-03 
3.700000000000e-01 1.556215094943e-04 
3.800000000000e-01 1.936222801884e-05 
3.900000000000e-01 5.765554250335e-06 
4.000000000000e-01 6.606539024739e-07 
4.100000000000e-01 1.782404731247e-07 
4.200000000000e-01 2.666567667848e-08 
4.300000000000e-01 3.669548665751e-09 
4.400000000000e-01 1.093629291799e-09 
4.500000000000e-01 1.279451090790e-10 
4.600000000000e-01 3.475661884327e-11 
4.700000000000e-01 4.583057502818e-12 
4.800000000000e-01 8.203288164283e-13 
4.900000000000e-01 1.792783103073e-13 
5.000000000000e-01 2.451620294168e-14 
5.100000000000e-01 6.084045004251e-15 
5.200000000000e-01 1.029404579839e-15 
5.300000000000e-01 2.102301706148e-16 
5.400000000000e-01 3.980030366471e-17 
5.500000000000e-01 6.140487567441e-18 
5.600000000000e-01 1.412222659294e-18 
5.700000000000e-01 2.355024102700e-19 
5.800000000000e-01 4.892865084537e-20 
5.900000000000e-01 8.988941008957e-21 
6.000000000000e-01 1.641525067485e-21 
6.100000000000e-01 3.346648633752e-22 
6.200000000000e-01 5.762137094177e-23 
6.300000000000e-01 1.059838721610e-23 
6.400000000000e-01 1.831867854082e-24 
6.500000000000e-01 3.198659735186e-25 
6.600000000000e-01 5.588143842999e-26 
6.700000000000e-01 9.526703801064e-27 
6.800000000000e-01 1.593440591531e-27 
6.900000000000e-01 2.618887219711e-28 
7.000000000000e-01 4.221331908515e-29 
7.100000000000e-01 6.659117962554e-30 
7.200000000000e-01 1.027100858148e-30 
7.300000000000e-01 1.549382846785e-31 
7.400000000000e-01 2.288367916865e-32 
7.500000000000e-01 3.314107430848e-33 
7.600000000000e-01 4.714034893514e-34 
7.700000000000e-01 6.596369702128e-35 
7.800000000000e-01 9.094018229996e-36 
7.900000000000e-01 1.236900496939e-36 
8.000000000000e-01 1.661746373724e-37 
8.100000000000e-01 2.207521528140e-38 
8.200000000000e-01 2.902395301832e-39 
8.300000000000e-01 3.779805310351e-40 
8.400000000000e-01 4.879201861814e-41 
8.500000000000e-01 6.246856040003e-42 
8.600000000000e-01 7.936730902456e-43 
8.700000000000e-01 1.001141437334e-43 
8.800000000000e-01 1.254311148176e-44 
8.900000000000e-01 1.561469262002e-45 
9.000000000000e-01 1.932079348561e-46 
9.100000000000e-01 2.376896133910e-47 
9.200000000000e-01 2.908084117248e-48 
9.300000000000e-01 3.539339435264e-49 
9.400000000000e-01 4.286014129970e-50 
9.500000000000e-01 5.165241879358e-51 
9.600000000000e-01 6.196064159080e-52 
9.700000000000e-01 7.399555719181e-53 
9.800000000000e-01 8.798948184044e-54 
9.900000000000e-01 1.041975051762e-54 
1.000000000000e+00 2.199451567458e-55 
 ZONE T="TIME=3.000000000000e-02"
0.000000000000e+00 0.000000000000e+00 
1.000000000000e-02 0.000000000000e+00 
2.000000000000e-02 0.000000000000e+00 
3.000000000000e-02 1.068631228020e-37 
4.000000000000e-02 4.701977403289e-37 
5.000000000000e-02 1.581574217470e-36 
6.000000000000e-02 2.615232059846e-36 
7.000000000000e-02 2.949422189336e-36 
8.000000000000e-02 8.537809525746e-37 
9.000000000000e-02 7.667710287473e-35 
1.000000000000e-01 1.075636387371e-03 
1.100000000000e-01 1.519356363068e-02 
1.200000000000e-01 3.047385906942e-01 
1.300000000000e-01 7.332174352563e-01 
1.400000000000e-01 9.522285269094e-01 
1.500000000000e-01 9.950359332772e-01 
1.600000000000e-01 9.987926714384e-01 
1.700000000000e-01 9.997526653457e-01 
1.800000000000e-01 9.999736979907e-01 
1.900000000000e-01 9.999930697336e-01 
2.000000000000e-01 9.999986633436e-01 
2.100000000000e-01 9.999997579546e-01 
2.200000000000e-01 9.999998778637e-01 
2.300000000000e-01 9.999999446524e-01 
2.400000000000e-01 9.999999776186e-01 
2.500000000000e-01 9.999999918315e-01 
2.600000000000e-01 9.999999972659e-01 
2.700000000000e-01 9.999999991488e-01 
2.800000000000e-01 9.999999997508e-01 
2.900000000000e-01 9.999999999309e-01 
3.000000000000e-01 9.999999999817e-01 
3.100000000000e-01 9.989243542628e-01 
3.200000000000e-01 9.848063822489e-01 
3.300000000000e-01 6.952613862112e-01 
3.400000000000e-01 2.667827060173e-01 
3.500000000000e-01 4.777223251381e-02 
3.600000000000e-01 4.963556996697e-03 
3.700000000000e-01 1.206734063928e-03 
3.800000000000e-01 2.477893392969e-04 
3.900000000000e-01 2.635404007252e-05 
4.000000000000e-01 6.965393557204e-06 
4.100000000000e-01 1.326887613157e-06 
4.200000000000e-01 1.560640522996e-07 
4.300000000000e-01 4.763597399775e-08 
4.400000000000e-01 7.046709589448e-09 
4.500000000000e-01 9.226393071667e-10 
4.600000000000e-01 3.029245742265e-10 
4.700000000000e-01 3.579606064319e-11 
4.800000000000e-01 9.102223829365e-12 
4.900000000000e-01 1.721031171292e-12 
5.000000000000e-01 2.307149141233e-13 
5.100000000000e-01 7.409516217758e-14 
5.200000000000e-01 8.161713457243e-15 
5.300000000000e-01 2.299803548284e-15 
5.400000000000e-01 3.677654158088e-16 
5.500000000000e-01 5.846624519924e-17 
5.600000000000e-01 1.581544286941e-17 
5.700000000000e-01 1.959050535120e-18 
5.800000000000e-01 5.797615793807e-19 
5.900000000000e-01 7.727444807361e-20 
6.000000000000e-01 2.012439172066e-20 
6.100000000000e-01 3.325382842869e-21 
6.200000000000e-01 7.140516286205e-22 
6.300000000000e-01 1.379896718619e-22 
6.400000000000e-01 2.170750673397e-23 
6.500000000000e-01 5.512193464164e-24 
6.600000000000e-01 8.997017691843e-25 
6.700000000000e-01 2.194261687028e-25 
6.800000000000e-01 3.617496298559e-26 
6.900000000000e-01 8.141080442942e-27 
7.000000000000e-01 1.399991011179e-27 
7.100000000000e-01 2.917563173860e-28 
7.200000000000e-01 5.383954651345e-29 
7.300000000000e-01 1.128071534755e-29 
7.400000000000e-01 2.034630715981e-30 
7.500000000000e-01 3.947954404480e-31 
7.600000000000e-01 7.482745003151e-32 
7.700000000000e-01 1.425789537529e-32 
7.800000000000e-01 2.619063575556e-33 
7.900000000000e-01 5.080046299153e-34 
8.000000000000e-01 8.577680852656e-35 
8.100000000000e-01 1.699022212225e-35 
8.200000000000e-01 2.750594749939e-36 
8.300000000000e-01 5.536671716953e-37 
8.400000000000e-01 8.987226149954e-38 
8.500000000000e-01 1.674804631117e-38 
8.600000000000e-01 2.595651191693e-39 
8.700000000000e-01 4.491532912570e-40 
8.800000000000e-01 7.467506988693e-41 
8.900000000000e-01 1.210357857549e-41 
9.000000000000e-01 1.904965890073e-42 
9.100000000000e-01 2.921301934513e-43 
9.200000000000e-01 4.385817757060e-44 
9.300000000000e-01 6.474532700634e-45 
9.400000000000e-01 9.431948311256e-46 
9.500000000000e-01 1.359648488896e-46 
9.600000000000e-01 1.943413706113e-47 
9.700000000000e-01 2.758230810933e-48 
9.800000000000e-01 3.890606428233e-49 
9.900000000000e-01 5.456935472426e-50 
1.000000000000e+00 1.336870261144e-50 
 ZONE T="TIME=4.000000000000e-02"
0.000000000000e+00 0.000000000000e+00 
1.000000000000e-02 0.000000000000e+00 
2.000000000000e-02 0.000000000000e+00 
3.000000000000e-02 3.643061004615e-38 
4.000000000000e-02 2.647142274572e-37 
5.000000000000e-02 8.331024625908e-37 
6.000000000000e-02 1.700056054099e-36 
7.000000000000e-02 1.670063928292e-36 
8.000000000000e-02 8.357479794141e-37 
9.000000000000e-02 2.084239629828e-35 
1.000000000000e-01 3.504138907119e-04 
1.100000000000e-01 1.691193199923e-03 
1.200000000000e-01 2.850652641030e-02 
1.300000000000e-01 3.184884397056e-01 
1.400000000000e-01 7.189255996589e-01 
1.500000000000e-01 9.399233197184e-01 
1.600000000000e-01 9.936006841179e-01 
1.700000000000e-01 9.988914461927e-01 
1.800000000000e-01 9.996710326690e-01 
1.900000000000e-01 9.999603017538e-01 
2.000000000000e-01 9.999935897966e-01 
2.100000000000e-01 9.999980732825e-01 
2.200000000000e-01 9.999996861557e-01 
2.300000000000e-01 9.999998335099e-01 
2.400000000000e-01 9.999999196777e-01 
2.500000000000e-01 9.999999648653e-01 
2.600000000000e-01 9.999999849289e-01 
2.700000000000e-01 9.999999939253e-01 
2.800000000000e-01 9.999999977223e-01 
2.900000000000e-01 9.999999992008e-01 
3.000000000000e-01 9.999999997355e-01 
3.100000000000e-01 9.996495872474e-01 
3.200000000000e-01 9.983087849203e-01 
3.300000000000e-01 9.714937195184e-01 
3.400000000000e-01 6.815108915059e-01 
3.500000000000e-01 2.810755077376e-01 
3.600000000000e-01 6.007533138426e-02 
3.700000000000e-01 6.399316691741e-03 
3.800000000000e-01 1.109051304321e-03 
3.900000000000e-01 3.292270686019e-04 
4.000000000000e-01 3.980744112960e-05 
4.100000000000e-01 6.462258579024e-06 
4.200000000000e-01 2.012639672811e-06 
4.300000000000e-01 2.369713479780e-07 
4.400000000000e-01 4.886083769727e-08 
4.500000000000e-01 1.249210242132e-08 
4.600000000000e-01 1.377404069825e-09 
4.700000000000e-01 3.792700141708e-10 
4.800000000000e-01 7.309393749510e-11 
4.900000000000e-01 7.993544575393e-12 
5.000000000000e-01 2.284103287039e-12 
5.100000000000e-01 4.457843807873e-13 
5.200000000000e-01 5.733859226373e-14 
5.300000000000e-01 1.872618019360e-14 
5.400000000000e-01 2.577456358823e-15 
5.500000000000e-01 6.810832346049e-16 
5.600000000000e-01 1.189049180494e-16 
5.700000000000e-01 1.795293105275e-17 
5.800000000000e-01 5.552145329047e-18 
5.900000000000e-01 6.717420041528e-19 
6.000000000000e-01 1.914103085096e-19 
6.100000000000e-01 2.647855730859e-20 
6.200000000000e-01 5.419098986284e-21 
6.300000000000e-01 1.206044032580e-21 
6.400000000000e-01 1.956683651537e-22 
6.500000000000e-01 4.236683377886e-23 
6.600000000000e-01 8.728603725431e-24 
6.700000000000e-01 1.550867152730e-24 
6.800000000000e-01 3.686599015345e-25 
6.900000000000e-01 6.043903774892e-26 
7.000000000000e-01 1.464970107683e-26 
7.100000000000e-01 1.863727606010e-27 
7.200000000000e-01 5.234636077554e-28 
7.300000000000e-01 8.469905458085e-29 
7.400000000000e-01 1.988756262967e-29 
7.500000000000e-01 3.410716275210e-30 
7.600000000000e-01 6.816171220510e-31 
7.700000000000e-01 1.344339556347e-31 
7.800000000000e-01 2.479754563710e-32 
7.900000000000e-01 5.520788303234e-33 
8.000000000000e-01 8.223741634926e-34 
8.100000000000e-01 2.117454720431e-34 
8.200000000000e-01 3.410879719571e-35 
8.300000000000e-01 8.038396283372e-36 
8.400000000000e-01 1.433490321567e-36 
8.500000000000e-01 2.964316982297e-37 
8.600000000000e-01 6.032907304771e-38 
8.700000000000e-01 1.174404481135e-38 
8.800000000000e-01 2.447372284081e-39 
8.900000000000e-01 4.632311223077e-40 
9.000000000000e-01 9.100320816722e-41 
9.100000000000e-01 1.725304500352e-41 
9.200000000000e-01 3.078599758130e-42 
9.300000000000e-01 6.113673997990e-43 
9.400000000000e-01 1.039991078116e-43 
9.500000000000e-01 2.188102758653e-44 
9.600000000000e-01 3.884866153823e-45 
9.700000000000e-01 8.348932638290e-46 
9.800000000000e-01 1.247783429627e-46 
9.900000000000e-01 2.600815269928e-47 
1.000000000000e+00 8.907885786547e-48 
 ZONE T="TIME=5.000000000000e-02"
0.000000000000e+00 0.000000000000e+00 
1.000000000000e-02 0.000000000000e+00 
2.000000000000e-02 7.346839692639e-40 
3.000000000000e-02 2.671578070051e-38 
4.000000000000e-02 1.250784278251e-37 
5.000000000000e-02 3.336712692863e-37 
6.000000000000e-02 7.993361585592e-37 
7.000000000000e-02 1.205416025207e-36 
8.000000000000e-02 2.852283686352e-36 
9.000000000000e-02 1.530562620747e-35 
1.000000000000e-01 8.649115657447e-05 
1.100000000000e-01 5.732059455114e-04 
1.200000000000e-01 2.134041254812e-03 
1.300000000000e-01 4.200463635551e-02 
1.400000000000e-01 3.288027851165e-01 
1.500000000000e-01 7.078487207025e-01 
1.600000000000e-01 9.287624913620e-01 
1.700000000000e-01 9.913120291083e-01 
1.800000000000e-01 9.989212518234e-01 
1.900000000000e-01 9.996270155123e-01 
2.000000000000e-01 9.999375431380e-01 
2.100000000000e-01 9.999928353975e-01 
2.200000000000e-01 9.999979225644e-01 
2.300000000000e-01 9.999994786327e-01 
2.400000000000e-01 9.999997685627e-01 
2.500000000000e-01 9.999998825328e-01 
2.600000000000e-01 9.999999441894e-01 
2.700000000000e-01 9.999999748168e-01 
2.800000000000e-01 9.999999891182e-01 
2.900000000000e-01 9.999999955041e-01 
3.000000000000e-01 9.999999982288e-01 
3.100000000000e-01 9.999135061418e-01 
3.200000000000e-01 9.994268334489e-01 
3.300000000000e-01 9.978659383567e-01 
3.400000000000e-01 9.579945458116e-01 
3.500000000000e-01 6.711980846433e-01 
3.600000000000e-01 2.921514578227e-01 
3.700000000000e-01 7.123666260441e-02 
3.800000000000e-01 8.688327685813e-03 
3.900000000000e-01 1.078885428457e-03 
4.000000000000e-01 3.730577798374e-04 
4.100000000000e-01 6.238067536363e-05 
4.200000000000e-01 7.442652370778e-06 
4.300000000000e-01 2.382986377213e-06 
4.400000000000e-01 4.243628356729e-07 
4.500000000000e-01 4.965516407972e-08 
4.600000000000e-01 1.584045110933e-08 
4.700000000000e-01 2.605685466100e-09 
4.800000000000e-01 3.407448864887e-10 
4.900000000000e-01 1.175554830246e-10 
5.000000000000e-01 1.413576485658e-11 
5.100000000000e-01 2.730241296622e-12 
5.200000000000e-01 7.448511195805e-13 
5.300000000000e-01 8.368929758324e-14 
5.400000000000e-01 2.239743627989e-14 
5.500000000000e-01 4.570447965953e-15 
5.600000000000e-01 5.787321674838e-16 
5.700000000000e-01 1.407465608369e-16 
5.800000000000e-01 3.156021931454e-17 
5.900000000000e-01 4.311869824682e-18 
6.000000000000e-01 1.426996010625e-18 
6.100000000000e-01 1.664960564231e-19 
6.200000000000e-01 4.408674749718e-20 
6.300000000000e-01 8.462837974731e-21 
6.400000000000e-01 1.758354022610e-21 
6.500000000000e-01 3.409728547523e-22 
6.600000000000e-01 7.096139868510e-23 
6.700000000000e-01 1.397578063194e-23 
6.800000000000e-01 2.452642782745e-24 
6.900000000000e-01 5.201849235827e-25 
7.000000000000e-01 8.354599714490e-26 
7.100000000000e-01 2.104517439908e-26 
7.200000000000e-01 3.696505835898e-27 
7.300000000000e-01 9.415445049231e-28 
7.400000000000e-01 1.561237473386e-28 
7.500000000000e-01 4.069730074916e-29 
7.600000000000e-01 6.037117671435e-30 
7.700000000000e-01 1.670952862506e-30 
7.800000000000e-01 2.127837060379e-31 
7.900000000000e-01 6.257095426673e-32 
8.000000000000e-01 8.244730727410e-33 
8.100000000000e-01 2.077648317914e-33 
8.200000000000e-01 3.658016781329e-34 
8.300000000000e-01 7.751821308304e-35 
8.400000000000e-01 1.616279285896e-35 
8.500000000000e-01 3.253948350902e-36 
8.600000000000e-01 6.818022976510e-37 
8.700000000000e-01 1.336265328267e-37 
8.800000000000e-01 2.681154915037e-38 
8.900000000000e-01 5.295304386706e-39 
9.000000000000e-01 1.022553226335e-39 
9.100000000000e-01 1.992354281611e-40 
9.200000000000e-01 3.981639986799e-41 
9.300000000000e-01 6.741059836503e-42 
9.400000000000e-01 1.495058754086e-42 
9.500000000000e-01 2.530895659827e-43 
9.600000000000e-01 5.609806925693e-44 
9.700000000000e-01 1.044465181540e-44 
9.800000000000e-01 2.315329562807e-45 
9.900000000000e-01 4.876494425306e-46 
1.000000000000e+00 2.107829008274e-46 
 ZONE T="TIME=6.000000000000e-02"
0.000000000000e+00 0.000000000000e+00 
1.000000000000e-02 0.000000000000e+00 
2.000000000000e-02 2.846141409855e-40 
3.000000000000e-02 9.275385111957e-39 
4.000000000000e-02 5.914205952575e-38 
5.000000000000e-02 1.814669404082e-37 
6.000000000000e-02 4.814183682231e-37 
7.000000000000e-02 8.110911020674e-37 
8.000000000000e-02 1.612030207469e-36 
9.000000000000e-02 6.985788060009e-36 
1.000000000000e-01 3.334608501229e-05 
1.100000000000e-01 1.148352440976e-04 
1.200000000000e-01 1.063737656473e-03 
1.300000000000e-01 2.193295840113e-03 
1.400000000000e-01 5.463509026702e-02 
1.500000000000e-01 3.378162533099e-01 
1.600000000000e-01 6.988247018363e-01 
1.700000000000e-01 9.184832124497e-01 
1.800000000000e-01 9.886389816188e-01 
1.900000000000e-01 9.986980505671e-01 
2.000000000000e-01 9.996003469624e-01 
2.100000000000e-01 9.999107296194e-01 
2.200000000000e-01 9.999906192780e-01 
2.300000000000e-01 9.999981046053e-01 
2.400000000000e-01 9.999993392273e-01 
2.500000000000e-01 9.999996801366e-01 
2.600000000000e-01 9.999998291675e-01 
2.700000000000e-01 9.999999165169e-01 
2.800000000000e-01 9.999999607875e-01 
2.900000000000e-01 9.999999821677e-01 
3.000000000000e-01 9.999999921643e-01 
3.100000000000e-01 9.999666498119e-01 
3.200000000000e-01 9.998851620972e-01 
3.300000000000e-01 9.989362642466e-01 
3.400000000000e-01 9.978067116006e-01 
3.500000000000e-01 9.453644427462e-01 
3.600000000000e-01 6.621844810623e-01 
3.700000000000e-01 3.011749620084e-01 
3.800000000000e-01 8.151649469202e-02 
3.900000000000e-01 1.136160327774e-02 
4.000000000000e-01 1.301798458102e-03 
4.100000000000e-01 3.994615921862e-04 
4.200000000000e-01 8.921452618703e-05 
4.300000000000e-01 9.720709823449e-06 
4.400000000000e-01 2.326604764796e-06 
4.500000000000e-01 6.132883103978e-07 
4.600000000000e-01 6.739580909677e-08 
4.700000000000e-01 1.560758631614e-08 
4.800000000000e-01 4.129541181183e-09 
4.900000000000e-01 4.812554874723e-10 
5.000000000000e-01 1.247581519584e-10 
5.100000000000e-01 2.774810479578e-11 
5.200000000000e-01 3.273507948519e-12 
5.300000000000e-01 9.959728730201e-13 
5.400000000000e-01 1.702098193874e-13 
5.500000000000e-01 2.052570617580e-14 
5.600000000000e-01 6.937635424146e-15 
5.700000000000e-01 1.043355508339e-15 
5.800000000000e-01 1.797896316286e-16 
5.900000000000e-01 5.113277834303e-17 
6.000000000000e-01 6.197783793259e-18 
6.100000000000e-01 1.690755697209e-18 
6.200000000000e-01 2.622732279244e-19 
6.300000000000e-01 4.803933500889e-20 
6.400000000000e-01 8.885708468270e-21 
6.500000000000e-01 2.526601461988e-21 
6.600000000000e-01 3.182907619274e-22 
6.700000000000e-01 9.897311572962e-23 
6.800000000000e-01 1.697079204006e-23 
6.900000000000e-01 2.856972737454e-24 
7.000000000000e-01 7.408279111241e-25 
7.100000000000e-01 1.013698111689e-25 
7.200000000000e-01 3.111633272218e-26 
7.300000000000e-01 5.261891512830e-27 
7.400000000000e-01 1.137758708478e-27 
7.500000000000e-01 2.414883750250e-28 
7.600000000000e-01 5.304032368947e-29 
7.700000000000e-01 1.072875894101e-29 
7.800000000000e-01 2.385641625053e-30 
7.900000000000e-01 4.291904431171e-31 
8.000000000000e-01 9.653989771539e-32 
8.100000000000e-01 1.658076972791e-32 
8.200000000000e-01 4.076260452535e-33 
8.300000000000e-01 7.225264728184e-34 
8.400000000000e-01 1.843874744249e-34 
8.500000000000e-01 2.930634282252e-35 
8.600000000000e-01 7.998904918409e-36 
8.700000000000e-01 1.093696831655e-36 
8.800000000000e-01 3.288970578650e-37 
8.900000000000e-01 4.169877923533e-38 
9.000000000000e-01 1.082389423291e-38 
9.100000000000e-01 1.897766598041e-39 
9.200000000000e-01 4.059410180649e-40 
9.300000000000e-01 7.873298977594e-41 
9.400000000000e-01 1.636355271444e-41 
9.500000000000e-01 3.045876155477e-42 
9.600000000000e-01 7.000932430110e-43 
9.700000000000e-01 1.154486587203e-43 
9.800000000000e-01 2.758064264330e-44 
9.900000000000e-01 5.168816930859e-45 
1.000000000000e+00 2.678565933748e-45 
 ZONE T="TIME=7.000000000000e-02"
0.000000000000e+00 0.000000000000e+00 
1.000000000000e-02 0.000000000000e+00 
2.000000000000e-02 1.252302220336e-40 
3.000000000000e-02 3.696188977599e-39 
4.000000000000e-02 2.571393892424e-38 
5.000000000000e-02 9.183549615799e-38 
6.000000000000e-02 2.541338639136e-37 
7.000000000000e-02 5.265741093753e-37 
8.000000000000e-02 8.615937126726e-37 
9.000000000000e-02 3.619777001965e-36 
1.000000000000e-01 9.480976478947e-06 
1.100000000000e-01 5.626841010443e-05 
1.200000000000e-01 1.922327350644e-04 
1.300000000000e-01 1.369049390050e-03 
1.400000000000e-01 2.339022702413e-03 
1.500000000000e-01 6.677506684739e-02 
1.600000000000e-01 3.457448127518e-01 
1.700000000000e-01 6.911475253764e-01 
1.800000000000e-01 9.089873857734e-01 
1.900000000000e-01 9.854609223197e-01 
2.000000000000e-01 9.984550881198e-01 
2.100000000000e-01 9.995918869158e-01 
2.200000000000e-01 9.998884864452e-01 
2.300000000000e-01 9.999862265262e-01 
2.400000000000e-01 9.999981358716e-01 
2.500000000000e-01 9.999992577874e-01 
2.600000000000e-01 9.999995944308e-01 
2.700000000000e-01 9.999997777145e-01 
2.800000000000e-01 9.999998853144e-01 
2.900000000000e-01 9.999999431324e-01 
3.000000000000e-01 9.999999727847e-01 
3.100000000000e-01 9.999905057081e-01 
3.200000000000e-01 9.999437252229e-01 
3.300000000000e-01 9.998077596291e-01 
3.400000000000e-01 9.986309626945e-01 
3.500000000000e-01 9.976609873456e-01 
3.600000000000e-01 9.332247949055e-01 
3.700000000000e-01 6.542556253697e-01 
3.800000000000e-01 3.088519081992e-01 
3.900000000000e-01 9.101274298559e-02 
4.000000000000e-01 1.454004351815e-02 
4.100000000000e-01 1.544410658767e-03 
4.200000000000e-01 4.075158639803e-04 
4.300000000000e-01 1.119041330779e-04 
4.400000000000e-01 1.423447621972e-05 
4.500000000000e-01 1.997175883661e-06 
4.600000000000e-01 7.302179547458e-07 
4.700000000000e-01 1.090461010045e-07 
4.800000000000e-01 1.435066651937e-08 
4.900000000000e-01 5.213680830938e-09 
5.000000000000e-01 8.123901417201e-10 
5.100000000000e-01 1.051592204222e-10 
5.200000000000e-01 3.693656220882e-11 