<?xml version="1.0"?>
<!-- Time step: 140 | Time: 5.000000000000e+02 -->
<VTKFile type="UnstructuredGrid" version="0.1" byte_order="LittleEndian">
  <UnstructuredGrid>
    <Piece NumberOfPoints="529" NumberOfCells="484">
      <Points>
        <DataArray type="Float64" NumberOfComponents="3" format="ascii">
          0.000000000000e+00 0.000000000000e+00 0.000000000000e+00
          1.650000000000e-03 0.000000000000e+00 0.000000000000e+00
          1.650000000000e-03 1.650000000000e-03 0.000000000000e+00
          0.000000000000e+00 1.650000000000e-03 0.000000000000e+00
          1.650000000000e-03 5.000000000000e-03 0.000000000000e+00
          0.000000000000e+00 5.000000000000e-03 0.000000000000e+00
          5.000000000000e-03 0.000000000000e+00 0.000000000000e+00
          5.000000000000e-03 1.650000000000e-03 0.000000000000e+00
          5.000000000000e-03 5.000000000000e-03 0.000000000000e+00
          1.650000000000e-03 1.000000000000e-02 0.000000000000e+00
          0.000000000000e+00 1.000000000000e-02 0.000000000000e+00
          5.000000000000e-03 1.000000000000e-02 0.000000000000e+00
          1.650000000000e-03 1.500000000000e-02 0.000000000000e+00
          0.000000000000e+00 1.500000000000e-02 0.000000000000e+00
          5.000000000000e-03 1.500000000000e-02 0.000000000000e+00
          1.650000000000e-03 2.000000000000e-02 0.000000000000e+00
          0.000000000000e+00 2.000000000000e-02 0.000000000000e+00
          5.000000000000e-03 2.000000000000e-02 0.000000000000e+00
          1.650000000000e-03 2.500000000000e-02 0.000000000000e+00
          0.000000000000e+00 2.500000000000e-02 0.000000000000e+00
          5.000000000000e-03 2.500000000000e-02 0.000000000000e+00
          1.650000000000e-03 3.000000000000e-02 0.000000000000e+00
          0.000000000000e+00 3.000000000000e-02 0.000000000000e+00
          5.000000000000e-03 3.000000000000e-02 0.000000000000e+00
          1.650000000000e-03 3.500000000000e-02 0.000000000000e+00
          0.000000000000e+00 3.500000000000e-02 0.000000000000e+00
          5.000000000000e-03 3.500000000000e-02 0.000000000000e+00
          1.650000000000e-03 4.000000000000e-02 0.000000000000e+00
          0.000000000000e+00 4.000000000000e-02 0.000000000000e+00
          5.000000000000e-03 4.000000000000e-02 0.000000000000e+00
          1.650000000000e-03 4.500000000000e-02 0.000000000000e+00
          0.000000000000e+00 4.500000000000e-02 0.000000000000e+00
          5.000000000000e-03 4.500000000000e-02 0.000000000000e+00
          1.650000000000e-03 5.000000000000e-02 0.000000000000e+00
          0.000000000000e+00 5.000000000000e-02 0.000000000000e+00
          5.000000000000e-03 5.000000000000e-02 0.000000000000e+00
          1.650000000000e-03 5.500000000000e-02 0.000000000000e+00
          0.000000000000e+00 5.500000000000e-02 0.000000000000e+00
          5.000000000000e-03 5.500000000000e-02 0.000000000000e+00
          1.650000000000e-03 6.000000000000e-02 0.000000000000e+00
          0.000000000000e+00 6.000000000000e-02 0.000000000000e+00
          5.000000000000e-03 6.000000000000e-02 0.000000000000e+00
          1.650000000000e-03 6.500000000000e-02 0.000000000000e+00
          0.000000000000e+00 6.500000000000e-02 0.000000000000e+00
          5.000000000000e-03 6.500000000000e-02 0.000000000000e+00
          1.650000000000e-03 7.000000000000e-02 0.000000000000e+00
          0.000000000000e+00 7.000000000000e-02 0.000000000000e+00
          5.000000000000e-03 7.000000000000e-02 0.000000000000e+00
          1.650000000000e-03 7.500000000000e-02 0.000000000000e+00
          0.000000000000e+00 7.500000000000e-02 0.000000000000e+00
          5.000000000000e-03 7.500000000000e-02 0.000000000000e+00
          1.650000000000e-03 8.000000000000e-02 0.000000000000e+00
          0.000000000000e+00 8.000000000000e-02 0.000000000000e+00
          5.000000000000e-03 8.000000000000e-02 0.000000000000e+00
          1.650000000000e-03 8.500000000000e-02 0.000000000000e+00
          0.000000000000e+00 8.500000000000e-02 0.000000000000e+00
          5.000000000000e-03 8.500000000000e-02 0.000000000000e+00
          1.650000000000e-03 9.000000000000e-02 0.000000000000e+00
          0.000000000000e+00 9.000000000000e-02 0.000000000000e+00
          5.000000000000e-03 9.000000000000e-02 0.000000000000e+00
          1.650000000000e-03 9.500000000000e-02 0.000000000000e+00
          0.000000000000e+00 9.500000000000e-02 0.000000000000e+00
          5.000000000000e-03 9.500000000000e-02 0.000000000000e+00
          0.000000000000e+00 1.000000000000e-01 0.000000000000e+00
          1.650000000000e-03 1.000000000000e-01 0.000000000000e+00
          1.650000000000e-03 9.835000000000e-02 0.000000000000e+00
          0.000000000000e+00 9.835000000000e-02 0.000000000000e+00
          5.000000000000e-03 1.000000000000e-01 0.000000000000e+00
          5.000000000000e-03 9.835000000000e-02 0.000000000000e+00
          1.000000000000e-02 0.000000000000e+00 0.000000000000e+00
          1.000000000000e-02 1.650000000000e-03 0.000000000000e+00
          1.000000000000e-02 5.000000000000e-03 0.000000000000e+00
          1.000000000000e-02 1.000000000000e-02 0.000000000000e+00
          1.000000000000e-02 1.500000000000e-02 0.000000000000e+00
          1.000000000000e-02 2.000000000000e-02 0.000000000000e+00
          1.000000000000e-02 2.500000000000e-02 0.000000000000e+00
          1.000000000000e-02 3.000000000000e-02 0.000000000000e+00
          1.000000000000e-02 3.500000000000e-02 0.000000000000e+00
          1.000000000000e-02 4.000000000000e-02 0.000000000000e+00
          1.000000000000e-02 4.500000000000e-02 0.000000000000e+00
          1.000000000000e-02 5.000000000000e-02 0.000000000000e+00
          1.000000000000e-02 5.500000000000e-02 0.000000000000e+00
          1.000000000000e-02 6.000000000000e-02 0.000000000000e+00
          1.000000000000e-02 6.500000000000e-02 0.000000000000e+00
          1.000000000000e-02 7.000000000000e-02 0.000000000000e+00
          1.000000000000e-02 7.500000000000e-02 0.000000000000e+00
          1.000000000000e-02 8.000000000000e-02 0.000000000000e+00
          1.000000000000e-02 8.500000000000e-02 0.000000000000e+00
          1.000000000000e-02 9.000000000000e-02 0.000000000000e+00
          1.000000000000e-02 9.500000000000e-02 0.000000000000e+00
          1.000000000000e-02 1.000000000000e-01 0.000000000000e+00
          1.000000000000e-02 9.835000000000e-02 0.000000000000e+00
          1.500000000000e-02 0.000000000000e+00 0.000000000000e+00
          1.500000000000e-02 1.650000000000e-03 0.000000000000e+00
          1.500000000000e-02 5.000000000000e-03 0.000000000000e+00
          1.500000000000e-02 1.000000000000e-02 0.000000000000e+00
          1.500000000000e-02 1.500000000000e-02 0.000000000000e+00
          1.500000000000e-02 2.000000000000e-02 0.000000000000e+00
          1.500000000000e-02 2.500000000000e-02 0.000000000000e+00
          1.500000000000e-02 3.000000000000e-02 0.000000000000e+00
          1.500000000000e-02 3.500000000000e-02 0.000000000000e+00
          1.500000000000e-02 4.000000000000e-02 0.000000000000e+00
          1.500000000000e-02 4.500000000000e-02 0.000000000000e+00
          1.500000000000e-02 5.000000000000e-02 0.000000000000e+00
          1.500000000000e-02 5.500000000000e-02 0.000000000000e+00
          1.500000000000e-02 6.000000000000e-02 0.000000000000e+00
          1.500000000000e-02 6.500000000000e-02 0.000000000000e+00
          1.500000000000e-02 7.000000000000e-02 0.000000000000e+00
          1.500000000000e-02 7.500000000000e-02 0.000000000000e+00
          1.500000000000e-02 8.000000000000e-02 0.000000000000e+00
          1.500000000000e-02 8.500000000000e-02 0.000000000000e+00
          1.500000000000e-02 9.000000000000e-02 0.000000000000e+00
          1.500000000000e-02 9.500000000000e-02 0.000000000000e+00
          1.500000000000e-02 1.000000000000e-01 0.000000000000e+00
          1.500000000000e-02 9.835000000000e-02 0.000000000000e+00
          2.000000000000e-02 0.000000000000e+00 0.000000000000e+00
          2.000000000000e-02 1.650000000000e-03 0.000000000000e+00
          2.000000000000e-02 5.000000000000e-03 0.000000000000e+00
          2.000000000000e-02 1.000000000000e-02 0.000000000000e+00
          2.000000000000e-02 1.500000000000e-02 0.000000000000e+00
          2.000000000000e-02 2.000000000000e-02 0.000000000000e+00
          2.000000000000e-02 2.500000000000e-02 0.000000000000e+00
          2.000000000000e-02 3.000000000000e-02 0.000000000000e+00
          2.000000000000e-02 3.500000000000e-02 0.000000000000e+00
          2.000000000000e-02 4.000000000000e-02 0.000000000000e+00
          2.000000000000e-02 4.500000000000e-02 0.000000000000e+00
          2.000000000000e-02 5.000000000000e-02 0.000000000000e+00
          2.000000000000e-02 5.500000000000e-02 0.000000000000e+00
          2.000000000000e-02 6.000000000000e-02 0.000000000000e+00
          2.000000000000e-02 6.500000000000e-02 0.000000000000e+00
          2.000000000000e-02 7.000000000000e-02 0.000000000000e+00
          2.000000000000e-02 7.500000000000e-02 0.000000000000e+00
          2.000000000000e-02 8.000000000000e-02 0.000000000000e+00
          2.000000000000e-02 8.500000000000e-02 0.000000000000e+00
          2.000000000000e-02 9.000000000000e-02 0.000000000000e+00
          2.000000000000e-02 9.500000000000e-02 0.000000000000e+00
          2.000000000000e-02 1.000000000000e-01 0.000000000000e+00
          2.000000000000e-02 9.835000000000e-02 0.000000000000e+00
          2.500000000000e-02 0.000000000000e+00 0.000000000000e+00
          2.500000000000e-02 1.650000000000e-03 0.000000000000e+00
          2.500000000000e-02 5.000000000000e-03 0.000000000000e+00
          2.500000000000e-02 1.000000000000e-02 0.000000000000e+00
          2.500000000000e-02 1.500000000000e-02 0.000000000000e+00
          2.500000000000e-02 2.000000000000e-02 0.000000000000e+00
[...]
      <PointData Scalars="PRESSURE1">
        <DataArray type="Float64" Name="PRESSURE1" format="ascii">
          2.000000000000e+05 1.991750000000e+05 1.983687519709e+05 1.991750000000e+05 1.967197549209e+05 1.975000000000e+05 1.975000000000e+05 1.967197549209e+05 1.951176968144e+05 1.942467832790e+05 1.950000000000e+05 1.926986979067e+05 1.917677915489e+05 1.925000000000e+05 1.902617368479e+05 1.892846667604e+05 1.900000000000e+05 1.878126245940e+05 1.867984433921e+05 1.875000000000e+05 1.853541911956e+05 1.843096780532e+05 1.850000000000e+05 1.828880786727e+05 1.818187088435e+05 1.825000000000e+05 1.804152823823e+05 1.793257353117e+05 1.800000000000e+05 1.779363948919e+05 1.768308593914e+05 1.775000000000e+05 1.754517179734e+05 1.743341035582e+05 1.750000000000e+05 1.729613149454e+05 1.718354171748e+05 1.725000000000e+05 1.704650284005e+05 1.693346742145e+05 1.700000000000e+05 1.679624728152e+05 1.668316625344e+05 1.675000000000e+05 1.654530023623e+05 1.643260620868e+05 1.650000000000e+05 1.629356457387e+05 1.618174030614e+05 1.625000000000e+05 1.604089871234e+05 1.593049933619e+05 1.600000000000e+05 1.578709359159e+05 1.567877038675e+05 1.575000000000e+05 1.553182744421e+05 1.542637985166e+05 1.550000000000e+05 1.527453154142e+05 1.517265838068e+05 1.525000000000e+05 1.501400034730e+05 1.500000000000e+05 1.491750000000e+05 1.500234766465e+05 1.508250000000e+05 1.475000000000e+05 1.483806068227e+05 1.950000000000e+05 1.942467832790e+05 1.926986979067e+05 1.903510674609e+05 1.879730317439e+05 1.855725059168e+05 1.831541389940e+05 1.807207973660e+05 1.782742866100e+05 1.758156985442e+05 1.733455873312e+05 1.708640533660e+05 1.683707702991e+05 1.658649683792e+05 1.633453739493e+05 1.608100920835e+05 1.582563994011e+05 1.556803773471e+05 1.530762107388e+05 1.504348226199e+05 1.477417608212e+05 1.450000000000e+05 1.459151762463e+05 1.925000000000e+05 1.917677915489e+05 1.902617368479e+05 1.879730317439e+05 1.856468193045e+05 1.832904861055e+05 1.809092099517e+05 1.785064902710e+05 1.760846387168e+05 1.736450850836e+05 1.711885497369e+05 1.687151290261e+05 1.662243189065e+05 1.637149870963e+05 1.611852923003e+05 1.586325369762e+05 1.560529239882e+05 1.534411615630e+05 1.507898341857e+05 1.480885041600e+05 1.453227574680e+05 1.425000000000e+05 1.434428665726e+05 1.900000000000e+05 1.892846667604e+05 1.878126245940e+05 1.855725059168e+05 1.832904861055e+05 1.809729612496e+05 1.786248945350e+05 1.762499218422e+05 1.738505646295e+05 1.714284172589e+05 1.689842697422e+05 1.665181694357e+05 1.640294299687e+05 1.615165910397e+05 1.589773260766e+05 1.564082871452e+05 1.538048680193e+05 1.511608605804e+05 1.484679924519e+05 1.457153940051e+05 1.428891564498e+05 1.400000000000e+05 1.409655105169e+05 1.875000000000e+05 1.867984433921e+05 1.853541911956e+05 1.831541389940e+05 1.809092099517e+05 1.786248945350e+05 1.763057115450e+05 1.739551559509e+05 1.715757467926e+05 1.691691023597e+05 1.667359992257e+05 1.642763981806e+05 1.617894322092e+05 1.592733539933e+05 1.567254388221e+05 1.541418361094e+05 1.515173612826e+05 1.488452240934e+05 1.461167069386e+05 1.433208420878e+05 1.404441749050e+05 1.375000000000e+05 1.384843064691e+05 1.850000000000e+05 1.843096780532e+05 1.828880786727e+05 1.807207973660e+05 1.785064902710e+05 1.762499218422e+05 1.739551559509e+05 1.716254452755e+05 1.692631939193e+05 1.668699558461e+05 1.644464386705e+05 1.619924938381e+05 1.595070829194e+05 1.569882140286e+05 1.544328438548e+05 1.518367415655e+05 1.491943130788e+05 1.464983904662e+05 1.437400035584e+05 1.409081671689e+05 1.379897291114e+05 1.350000000000e+05 1.359999108844e+05 1.825000000000e+05 1.818187088435e+05 1.804152823823e+05 1.782742866100e+05 1.760846387168e+05 1.738505646295e+05 1.715757467926e+05 1.692631939193e+05 1.669151608283e+05 1.645330999538e+05 1.621176253214e+05 1.596684736621e+05 1.571844520433e+05 1.546633650772e+05 1.521019173643e+05 1.494955892215e+05 1.468384870748e+05 1.441231751465e+05 1.413405021141e+05 1.384794430045e+05 1.355269777799e+05 1.325000000000e+05 1.335127233003e+05 1.800000000000e+05 1.793257353117e+05 1.779363948919e+05 1.758156985442e+05 1.736450850836e+05 1.714284172589e+05 1.691691023597e+05 1.668699558461e+05 1.645330999538e+05 1.621598881139e+05 1.597508431880e+05 1.573055980318e+05 1.548228291022e+05 1.523001764837e+05 1.497341463739e+05 1.471199948595e+05 1.444515950701e+05 1.417212935995e+05 1.389197657751e+05 1.360358812128e+05 1.330565885913e+05 1.300000000000e+05 1.310229710731e+05 1.775000000000e+05 1.768308593914e+05 1.754517179734e+05 1.733455873312e+05 1.711885497369e+05 1.689842697422e+05 1.667359992257e+05 1.644464386705e+05 1.621176253214e+05 1.597508431880e+05 1.573465466108e+05 1.549042883272e+05 1.524226439444e+05 1.498991266845e+05 1.473300887042e+05 1.447106080070e+05 1.420343628720e+05 1.392934985103e+05 1.364784925943e+05 1.335780261091e+05 1.305788621473e+05 1.275000000000e+05 1.285307556508e+05 1.750000000000e+05 1.743341035582e+05 1.729613149454e+05 1.708640533660e+05 1.687151290261e+05 1.665181694357e+05 1.642763981806e+05 1.619924938381e+05 1.596684736621e+05 1.573055980318e+05 1.549042883272e+05 1.524640497969e+05 1.499833916289e+05 1.474597381677e+05 1.448893275372e+05 1.422670965363e+05 1.395865533687e+05 1.368396421740e+05 1.340166047023e+05 1.311058436965e+05 1.280937883314e+05 1.250000000000e+05 1.260360722400e+05 1.725000000000e+05 1.718354171748e+05 1.704650284005e+05 1.683707702991e+05 1.662243189065e+05 1.640294299687e+05 1.617894322092e+05 1.595070829194e+05 1.571844520433e+05 1.548228291022e+05 1.524226439444e+05 1.499833916289e+05 1.475035528721e+05 1.449805035158e+05 1.424104088742e+05 1.397881014061e+05 1.371069428872e+05 1.343586749025e+05 1.315332633739e+05 1.286187426847e+05 1.256010610442e+05 1.225000000000e+05 1.235388150805e+05 1.700000000000e+05 1.693346742145e+05 1.679624728152e+05 1.658649683792e+05 1.637149870963e+05 1.615165910397e+05 1.592733539933e+05 1.569882140286e+05 1.546633650772e+05 1.523001764837e+05 1.498991266845e+05 1.474597381677e+05 1.449805035158e+05 1.424587951630e+05 1.398907540444e+05 1.372711547937e+05 1.345932479600e+05 1.318485831458e+05 1.290268205980e+05 1.261155410158e+05 1.231000611199e+05 1.200000000000e+05 1.210387715335e+05 1.675000000000e+05 1.668316625344e+05 1.654530023623e+05 1.633453739493e+05 1.611852923003e+05 1.589773260766e+05 1.567254388221e+05 1.544328438548e+05 1.521019173643e+05 1.497341463739e+05 1.473300887042e+05 1.448893275372e+05 1.424104088742e+05 1.398907540444e+05 1.373265417192e+05 1.347125556426e+05 1.320419967285e+05 1.293062625083e+05 1.264947037673e+05 1.235943759653e+05 1.205898066205e+05 1.175000000000e+05 1.185356047341e+05 1.650000000000e+05 1.643260620868e+05 1.629356457387e+05 1.608100920835e+05 1.586325369762e+05 1.564082871452e+05 1.541418361094e+05 1.518367415655e+05 1.494955892215e+05 1.471199948595e+05 1.447106080070e+05 1.422670965363e+05 1.397881014061e+05 1.372711547937e+05 1.347125556426e+05 1.321071963446e+05 1.294483349068e+05 1.267273110383e+05 1.239332153949e+05 1.210525403518e+05 1.180688592961e+05 1.150000000000e+05 1.160288210996e+05 1.625000000000e+05 1.618174030614e+05 1.604089871234e+05 1.582563994011e+05 1.560529239882e+05 1.538048680193e+05 1.515173612826e+05 1.491943130788e+05 1.468384870748e+05 1.444515950701e+05 1.420343628720e+05 1.395865533687e+05 1.371069428872e+05 1.345932479600e+05 1.320419967285e+05 1.294483349068e+05 1.268057523362e+05 1.241057163970e+05 1.213372096191e+05 1.184862030350e+05 1.155351604442e+05 1.125000000000e+05 1.135177107294e+05 1.600000000000e+05 1.593049933619e+05 1.578709359159e+05 1.556803773471e+05 1.534411615630e+05 1.511608605804e+05 1.488452240934e+05 1.464983904662e+05 1.441231751465e+05 1.417212935995e+05 1.392934985103e+05 1.368396421740e+05 1.343586749025e+05 1.318485831458e+05 1.293062625083e+05 1.267273110383e+05 1.241057163970e+05 1.214333989471e+05 1.186995740398e+05 1.158899276475e+05 1.129857247987e+05 1.100000000000e+05 1.110012480419e+05 1.575000000000e+05 1.567877038675e+05 1.553182744421e+05 1.530762107388e+05 1.507898341857e+05 1.484679924519e+05 1.461167069386e+05 1.437400035584e+05 1.413405021141e+05 1.389197657751e+05 1.364784925943e+05 1.340166047023e+05 1.315332633739e+05 1.290268205980e+05 1.264947037673e+05 1.239332153949e+05 1.213372096191e+05 1.186995740398e+05 1.160104046811e+05 1.132557784847e+05 1.104160636471e+05 1.075000000000e+05 1.084778089074e+05 1.550000000000e+05 1.542637985166e+05 1.527453154142e+05 1.504348226199e+05 1.480885041600e+05 1.457153940051e+05 1.433208420878e+05 1.409081671689e+05 1.384794430045e+05 1.360358812128e+05 1.335780261091e+05 1.311058436965e+05 1.286187426847e+05 1.261155410158e+05 1.235943759653e+05 1.210525403518e+05 1.184862030350e+05 1.158899276475e+05 1.132557784847e+05 1.105716239487e+05 1.078185390282e+05 1.050000000000e+05 1.059449852725e+05 1.525000000000e+05 1.517265838068e+05 1.501400034730e+05 1.477417608212e+05 1.453227574680e+05 1.428891564498e+05 1.404441749050e+05 1.379897291114e+05 1.355269777799e+05 1.330565885913e+05 1.305788621473e+05 1.280937883314e+05 1.256010610442e+05 1.231000611199e+05 1.205898066205e+05 1.180688592961e+05 1.155351604442e+05 1.129857247987e+05 1.104160636471e+05 1.078185390282e+05 1.051778846147e+05 1.025000000000e+05 1.033940901412e+05 1.500000000000e+05 1.508250000000e+05 1.500234766465e+05 1.491750000000e+05 1.483806068227e+05 1.475000000000e+05 1.459151762463e+05 1.450000000000e+05 1.434428665726e+05 1.425000000000e+05 1.409655105169e+05 1.400000000000e+05 1.384843064691e+05 1.375000000000e+05 1.359999108844e+05 1.350000000000e+05 1.335127233003e+05 1.325000000000e+05 1.310229710731e+05 1.300000000000e+05 1.285307556508e+05 1.275000000000e+05 1.260360722400e+05 1.250000000000e+05 1.235388150805e+05 1.225000000000e+05 1.210387715335e+05 1.200000000000e+05 1.185356047341e+05 1.175000000000e+05 1.160288210996e+05 1.150000000000e+05 1.135177107294e+05 1.125000000000e+05 1.110012480419e+05 1.100000000000e+05 1.084778089074e+05 1.075000000000e+05 1.059449852725e+05 1.050000000000e+05 1.033940901412e+05 1.025000000000e+05 1.000000000000e+05 1.008250000000e+05 1.016823349484e+05 1.008250000000e+05 
        </DataArray>
        <DataArray type="Float64" Name="TEMPERATURE1" format="ascii">