<?xml version="1.0"?>
<!-- Time step: 12 | Time: 3.155760000000e+07 -->
<VTKFile type="UnstructuredGrid" version="0.1" byte_order="LittleEndian">
  <UnstructuredGrid>
    <Piece NumberOfPoints="16770" NumberOfCells="8192">
      <Points>
        <DataArray type="Float64" NumberOfComponents="3" format="ascii">
          -1.500000000000e+02 -1.170000000000e+00 7.500000000000e+01
          -1.476562500000e+02 -1.170000000000e+00 7.500000000000e+01
          -1.453125000000e+02 -1.170000000000e+00 7.500000000000e+01
          -1.429687500000e+02 -1.170000000000e+00 7.500000000000e+01
          -1.406250000000e+02 -1.170000000000e+00 7.500000000000e+01
          -1.382812500000e+02 -1.170000000000e+00 7.500000000000e+01
          -1.359375000000e+02 -1.170000000000e+00 7.500000000000e+01
          -1.335937500000e+02 -1.170000000000e+00 7.500000000000e+01
          -1.312500000000e+02 -1.170000000000e+00 7.500000000000e+01
          -1.289062500000e+02 -1.170000000000e+00 7.500000000000e+01
          -1.265625000000e+02 -1.170000000000e+00 7.500000000000e+01
          -1.242187500000e+02 -1.170000000000e+00 7.500000000000e+01
          -1.218750000000e+02 -1.170000000000e+00 7.500000000000e+01
          -1.195312500000e+02 -1.170000000000e+00 7.500000000000e+01
          -1.171875000000e+02 -1.170000000000e+00 7.500000000000e+01
          -1.148437500000e+02 -1.170000000000e+00 7.500000000000e+01
          -1.125000000000e+02 -1.170000000000e+00 7.500000000000e+01
          -1.101562500000e+02 -1.170000000000e+00 7.500000000000e+01
          -1.078125000000e+02 -1.170000000000e+00 7.500000000000e+01
          -1.054687500000e+02 -1.170000000000e+00 7.500000000000e+01
          -1.031250000000e+02 -1.170000000000e+00 7.500000000000e+01
          -1.007812500000e+02 -1.170000000000e+00 7.500000000000e+01
          -9.843750000000e+01 -1.170000000000e+00 7.500000000000e+01
          -9.609375000000e+01 -1.170000000000e+00 7.500000000000e+01
          -9.375000000000e+01 -1.170000000000e+00 7.500000000000e+01
          -9.140625000000e+01 -1.170000000000e+00 7.500000000000e+01
          -8.906250000000e+01 -1.170000000000e+00 7.500000000000e+01
          -8.671875000000e+01 -1.170000000000e+00 7.500000000000e+01
          -8.437500000000e+01 -1.170000000000e+00 7.500000000000e+01
          -8.203125000000e+01 -1.170000000000e+00 7.500000000000e+01
          -7.968750000000e+01 -1.170000000000e+00 7.500000000000e+01
          -7.734375000000e+01 -1.170000000000e+00 7.500000000000e+01
          -7.500000000000e+01 -1.170000000000e+00 7.500000000000e+01
          -7.265625000000e+01 -1.170000000000e+00 7.500000000000e+01
          -7.031250000000e+01 -1.170000000000e+00 7.500000000000e+01
          -6.796875000000e+01 -1.170000000000e+00 7.500000000000e+01
          -6.562500000000e+01 -1.170000000000e+00 7.500000000000e+01
          -6.328125000000e+01 -1.170000000000e+00 7.500000000000e+01
          -6.093750000000e+01 -1.170000000000e+00 7.500000000000e+01
          -5.859375000000e+01 -1.170000000000e+00 7.500000000000e+01
          -5.625000000000e+01 -1.170000000000e+00 7.500000000000e+01
          -5.390625000000e+01 -1.170000000000e+00 7.500000000000e+01
          -5.156250000000e+01 -1.170000000000e+00 7.500000000000e+01
          -4.921875000000e+01 -1.170000000000e+00 7.500000000000e+01
          -4.687500000000e+01 -1.170000000000e+00 7.500000000000e+01
          -4.453125000000e+01 -1.170000000000e+00 7.500000000000e+01
          -4.218750000000e+01 -1.170000000000e+00 7.500000000000e+01
          -3.984375000000e+01 -1.170000000000e+00 7.500000000000e+01
          -3.750000000000e+01 -1.170000000000e+00 7.500000000000e+01
          -3.515625000000e+01 -1.170000000000e+00 7.500000000000e+01
          -3.281250000000e+01 -1.170000000000e+00 7.500000000000e+01
          -3.046875000000e+01 -1.170000000000e+00 7.500000000000e+01
          -2.812500000000e+01 -1.170000000000e+00 7.500000000000e+01
          -2.578125000000e+01 -1.170000000000e+00 7.500000000000e+01
          -2.343750000000e+01 -1.170000000000e+00 7.500000000000e+01
          -2.109375000000e+01 -1.170000000000e+00 7.500000000000e+01
          -1.875000000000e+01 -1.170000000000e+00 7.500000000000e+01
          -1.640625000000e+01 -1.170000000000e+00 7.500000000000e+01
          -1.406250000000e+01 -1.170000000000e+00 7.500000000000e+01
          -1.171875000000e+01 -1.170000000000e+00 7.500000000000e+01
          -9.375000000000e+00 -1.170000000000e+00 7.500000000000e+01
          -7.031250000000e+00 -1.170000000000e+00 7.500000000000e+01
          -4.687500000000e+00 -1.170000000000e+00 7.500000000000e+01
          -2.343750000000e+00 -1.170000000000e+00 7.500000000000e+01
          0.000000000000e+00 -1.170000000000e+00 7.500000000000e+01
          2.343750000000e+00 -1.170000000000e+00 7.500000000000e+01
          4.687500000000e+00 -1.170000000000e+00 7.500000000000e+01
          7.031250000000e+00 -1.170000000000e+00 7.500000000000e+01
          9.375000000000e+00 -1.170000000000e+00 7.500000000000e+01
          1.171875000000e+01 -1.170000000000e+00 7.500000000000e+01
          1.406250000000e+01 -1.170000000000e+00 7.500000000000e+01
          1.640625000000e+01 -1.170000000000e+00 7.500000000000e+01
          1.875000000000e+01 -1.170000000000e+00 7.500000000000e+01
          2.109375000000e+01 -1.170000000000e+00 7.500000000000e+01
          2.343750000000e+01 -1.170000000000e+00 7.500000000000e+01
          2.578125000000e+01 -1.170000000000e+00 7.500000000000e+01
          2.812500000000e+01 -1.170000000000e+00 7.500000000000e+01
          3.046875000000e+01 -1.170000000000e+00 7.500000000000e+01
          3.281250000000e+01 -1.170000000000e+00 7.500000000000e+01
          3.515625000000e+01 -1.170000000000e+00 7.500000000000e+01
          3.750000000000e+01 -1.170000000000e+00 7.500000000000e+01
          3.984375000000e+01 -1.170000000000e+00 7.500000000000e+01
          4.218750000000e+01 -1.170000000000e+00 7.500000000000e+01
          4.453125000000e+01 -1.170000000000e+00 7.500000000000e+01
          4.687500000000e+01 -1.170000000000e+00 7.500000000000e+01
          4.921875000000e+01 -1.170000000000e+00 7.500000000000e+01
          5.156250000000e+01 -1.170000000000e+00 7.500000000000e+01
          5.390625000000e+01 -1.170000000000e+00 7.500000000000e+01
          5.625000000000e+01 -1.170000000000e+00 7.500000000000e+01
          5.859375000000e+01 -1.170000000000e+00 7.500000000000e+01
          6.093750000000e+01 -1.170000000000e+00 7.500000000000e+01
          6.328125000000e+01 -1.170000000000e+00 7.500000000000e+01
          6.562500000000e+01 -1.170000000000e+00 7.500000000000e+01
          6.796875000000e+01 -1.170000000000e+00 7.500000000000e+01
          7.031250000000e+01 -1.170000000000e+00 7.500000000000e+01
          7.265625000000e+01 -1.170000000000e+00 7.500000000000e+01
          7.500000000000e+01 -1.170000000000e+00 7.500000000000e+01
          7.734375000000e+01 -1.170000000000e+00 7.500000000000e+01
          7.968750000000e+01 -1.170000000000e+00 7.500000000000e+01
          8.203125000000e+01 -1.170000000000e+00 7.500000000000e+01
          8.437500000000e+01 -1.170000000000e+00 7.500000000000e+01
          8.671875000000e+01 -1.170000000000e+00 7.500000000000e+01
          8.906250000000e+01 -1.170000000000e+00 7.500000000000e+01
          9.140625000000e+01 -1.170000000000e+00 7.500000000000e+01
          9.375000000000e+01 -1.170000000000e+00 7.500000000000e+01
          9.609375000000e+01 -1.170000000000e+00 7.500000000000e+01
          9.843750000000e+01 -1.170000000000e+00 7.500000000000e+01
          1.007812500000e+02 -1.170000000000e+00 7.500000000000e+01
          1.031250000000e+02 -1.170000000000e+00 7.500000000000e+01
          1.054687500000e+02 -1.170000000000e+00 7.500000000000e+01
          1.078125000000e+02 -1.170000000000e+00 7.500000000000e+01
          1.101562500000e+02 -1.170000000000e+00 7.500000000000e+01
          1.125000000000e+02 -1.170000000000e+00 7.500000000000e+01
          1.148437500000e+02 -1.170000000000e+00 7.500000000000e+01
          1.171875000000e+02 -1.170000000000e+00 7.500000000000e+01
          1.195312500000e+02 -1.170000000000e+00 7.500000000000e+01
          1.218750000000e+02 -1.170000000000e+00 7.500000000000e+01
          1.242187500000e+02 -1.170000000000e+00 7.500000000000e+01
          1.265625000000e+02 -1.170000000000e+00 7.500000000000e+01
          1.289062500000e+02 -1.170000000000e+00 7.500000000000e+01
          1.312500000000e+02 -1.170000000000e+00 7.500000000000e+01
          1.335937500000e+02 -1.170000000000e+00 7.500000000000e+01
          1.359375000000e+02 -1.170000000000e+00 7.500000000000e+01
          1.382812500000e+02 -1.170000000000e+00 7.500000000000e+01
          1.406250000000e+02 -1.170000000000e+00 7.500000000000e+01
          1.429687500000e+02 -1.170000000000e+00 7.500000000000e+01
          1.453125000000e+02 -1.170000000000e+00 7.500000000000e+01
          1.476562500000e+02 -1.170000000000e+00 7.500000000000e+01
          1.500000000000e+02 -1.170000000000e+00 7.500000000000e+01
          -1.500000000000e+02 1.170000000000e+00 7.500000000000e+01
          -1.476562500000e+02 1.170000000000e+00 7.500000000000e+01
          -1.453125000000e+02 1.170000000000e+00 7.500000000000e+01
          -1.429687500000e+02 1.170000000000e+00 7.500000000000e+01
          -1.406250000000e+02 1.170000000000e+00 7.500000000000e+01
          -1.382812500000e+02 1.170000000000e+00 7.500000000000e+01
          -1.359375000000e+02 1.170000000000e+00 7.500000000000e+01
          -1.335937500000e+02 1.170000000000e+00 7.500000000000e+01
          -1.312500000000e+02 1.170000000000e+00 7.500000000000e+01
          -1.289062500000e+02 1.170000000000e+00 7.500000000000e+01
          -1.265625000000e+02 1.170000000000e+00 7.500000000000e+01
          -1.242187500000e+02 1.170000000000e+00 7.500000000000e+01
[...]
      <PointData Scalars="PRESSURE1">
        <DataArray type="Float64" Name="PRESSURE1" format="ascii">
          0.000000000000e+00 -3.319377430496e-01 -1.329022953117e+00 -2.995094249277e+00 -5.336577716050e+00 -8.362533251799e+00 -1.208471894263e+01 -1.651767522856e+01 -2.167882990845e+01 -2.758862534619e+01 -3.427066953782e+01 -4.175191303848e+01 -5.006285412536e+01 -5.923777500118e+01 -6.931501232718e+01 -8.033726593022e+01 -9.235195016702e+01 -1.054115931659e+02 -1.195742900234e+02 -1.349042170291e+02 -1.514722151617e+02 -1.693564524644e+02 -1.886431765214e+02 -2.094275701605e+02 -2.318147257576e+02 -2.559207561967e+02 -2.818740637272e+02 -3.098167917681e+02 -3.399064892653e+02 -3.723180226883e+02 -4.072457773294e+02 -4.449061975099e+02 -4.855407248677e+02 -5.294192054565e+02 -5.768438503280e+02 -6.281538510600e+02 -6.837307718510e+02 -7.440048638816e+02 -8.094624761947e+02 -8.806547708533e+02 -9.582079889065e+02 -1.042835557743e+03 -1.135352379197e+03 -1.236691690022e+03 -1.347924939728e+03 -1.470285181659e+03 -1.605194516773e+03 -1.754296160232e+03 -1.919491714224e+03 -2.102984227717e+03 -2.307327621525e+03 -2.535483107691e+03 -2.790883464768e+03 -3.077506735188e+03 -3.399962708168e+03 -3.763599797533e+03 -4.174649324552e+03 -4.640447144350e+03 -5.169811747913e+03 -5.773874562829e+03 -6.467285607483e+03 -7.276693832056e+03 -8.227314129502e+03 -9.544657056454e+03 -1.208893065229e+04 -1.420009054488e+04 -1.601698337043e+04 -1.774827801819e+04 -1.938524053477e+04 -2.087530596374e+04 -2.211819513774e+04 -2.299203386636e+04 -2.340862447134e+04 -2.336749426797e+04 -2.296761360238e+04 -2.236805004910e+04 -2.172823459759e+04 -2.116555488209e+04 -2.074357660436e+04 -2.048070008799e+04 -2.036490736489e+04 -2.036694323996e+04 -2.045017330163e+04 -2.057762600807e+04 -2.071689760029e+04 -2.084323469396e+04 -2.094089133658e+04 -2.100290192548e+04 -2.102960187294e+04 -2.102640451830e+04 -2.100139846325e+04 -2.096324138870e+04 -2.091964109188e+04 -2.087650795464e+04 -2.083769983663e+04 -2.080519088308e+04 -2.077947652123e+04 -2.076005516635e+04 -2.074587654182e+04 -2.073569696433e+04 -2.072832236761e+04 -2.072274660234e+04 -2.071820660615e+04 -2.071418041678e+04 -2.071035216325e+04 -2.070656313923e+04 -2.070276207893e+04 -2.069896223770e+04 -2.069520854290e+04 -2.069155512405e+04 -2.068805183263e+04 -2.068473763746e+04 -2.068163871195e+04 -2.067876932924e+04 -2.067613413241e+04 -2.067373080948e+04 -2.067155259667e+04 -2.066959033048e+04 -2.066783396721e+04 -2.066627360530e+04 -2.066490010096e+04 -2.066370538321e+04 -2.066268256662e+04 -2.066182594166e+04 -2.066113090153e+04 -2.066059384555e+04 -2.066021208329e+04 -2.065998375343e+04 -2.065990776350e+04 0.000000000000e+00 -3.319377430270e-01 -1.329022953094e+00 -2.995094249246e+00 -5.336577716032e+00 -8.362533251777e+00 -1.208471894261e+01 -1.651767522853e+01 -2.167882990844e+01 -2.758862534616e+01 -3.427066953781e+01 -4.175191303845e+01 -5.006285412533e+01 -5.923777500116e+01 -6.931501232715e+01 -8.033726593020e+01 -9.235195016700e+01 -1.054115931659e+02 -1.195742900233e+02 -1.349042170291e+02 -1.514722151617e+02 -1.693564524644e+02 -1.886431765214e+02 -2.094275701605e+02 -2.318147257576e+02 -2.559207561966e+02 -2.818740637272e+02 -3.098167917680e+02 -3.399064892653e+02 -3.723180226883e+02 -4.072457773294e+02 -4.449061975099e+02 -4.855407248677e+02 -5.294192054565e+02 -5.768438503280e+02 -6.281538510600e+02 -6.837307718510e+02 -7.440048638815e+02 -8.094624761947e+02 -8.806547708533e+02 -9.582079889065e+02 -1.042835557743e+03 -1.135352379197e+03 -1.236691690022e+03 -1.347924939728e+03 -1.470285181658e+03 -1.605194516773e+03 -1.754296160232e+03 -1.919491714224e+03 -2.102984227717e+03 -2.307327621525e+03 -2.535483107691e+03 -2.790883464768e+03 -3.077506735188e+03 -3.399962708168e+03 -3.763599797533e+03 -4.174649324552e+03 -4.640447144350e+03 -5.169811747913e+03 -5.773874562829e+03 -6.467285607483e+03 -7.276693832056e+03 -8.227314129502e+03 -9.544657056454e+03 -1.208893065229e+04 -1.420009054488e+04 -1.601698337043e+04 -1.774827801819e+04 -1.938524053477e+04 -2.087530596374e+04 -2.211819513774e+04 -2.299203386636e+04 -2.340862447134e+04 -2.336749426797e+04 -2.296761360238e+04 -2.236805004910e+04 -2.172823459759e+04 -2.116555488209e+04 -2.074357660436e+04 -2.048070008799e+04 -2.036490736489e+04 -2.036694323996e+04 -2.045017330163e+04 -2.057762600807e+04 -2.071689760029e+04 -2.084323469396e+04 -2.094089133658e+04 -2.100290192548e+04 -2.102960187294e+04 -2.102640451830e+04 -2.100139846325e+04 -2.096324138870e+04 -2.091964109188e+04 -2.087650795464e+04 -2.083769983663e+04 -2.080519088308e+04 -2.077947652123e+04 -2.076005516635e+04 -2.074587654182e+04 -2.073569696433e+04 -2.072832236761e+04 -2.072274660234e+04 -2.071820660615e+04 -2.071418041678e+04 -2.071035216325e+04 -2.070656313923e+04 -2.070276207893e+04 -2.069896223770e+04 -2.069520854290e+04 -2.069155512405e+04 -2.068805183263e+04 -2.068473763746e+04 -2.068163871195e+04 -2.067876932924e+04 -2.067613413241e+04 -2.067373080948e+04 -2.067155259667e+04 -2.066959033048e+04 -2.066783396721e+04 -2.066627360530e+04 -2.066490010096e+04 -2.066370538321e+04 -2.066268256662e+04 -2.066182594166e+04 -2.066113090153e+04 -2.066059384555e+04 -2.066021208329e+04 -2.065998375343e+04 -2.065990776350e+04 2.299251901024e+04 2.299218771056e+04 2.299119253970e+04 2.298952967392e+04 2.298719270971e+04 2.298417261925e+04 2.298045768636e+04 2.297603342286e+04 2.297088246430e+04 2.296498444350e+04 2.295831584055e+04 2.295084980700e+04 2.294255596214e+04 2.293340015840e+04 2.292334421272e+04 2.291234560010e+04 2.290035710481e+04 2.288732642416e+04 2.287319571881e+04 2.285790110267e+04 2.284137206414e+04 2.282353080933e+04 2.280429151612e+04 2.278355948611e+04 2.276123017937e+04 2.273718811406e+04 2.271130561026e+04 2.268344135316e+04 2.265343874666e+04 2.262112402300e+04 2.258630406756e+04 2.254876391057e+04 2.250826382797e+04 2.246453598282e+04 2.241728052539e+04 2.236616105416e+04 2.231079932120e+04 2.225076904289e+04 2.218558865077e+04 2.211471278694e+04 2.203752231291e+04 2.195331256240e+04 2.186127952483e+04 2.176050360189e+04 2.164993053406e+04 2.152834905363e+04 2.139436478861e+04 2.124636992622e+04 2.108250815145e+04 2.090063440890e+04 2.069826908954e+04 2.047254628683e+04 2.022015571064e+04 1.993727749073e+04 1.961950799375e+04 1.926177201204e+04 1.885821009713e+04 1.840201701080e+04 1.788516491359e+04 1.729796783412e+04 1.662757413268e+04 1.585966255391e+04 1.495259448308e+04 1.389940969604e+04 1.313034640488e+04 1.182868981056e+04 1.033652729549e+04 8.842775368415e+03 7.392630275233e+03 6.058495612487e+03 4.943233934576e+03 4.162888780844e+03 3.800006607051e+03 3.856122314707e+03 4.241662286506e+03 4.812316536821e+03 5.423330944410e+03 5.967302266238e+03 6.384548118932e+03 6.655787725949e+03 6.789596285841e+03 6.811022864039e+03 6.752824047422e+03 6.648949696156e+03 6.529806142925e+03 6.419129577579e+03 6.332467220095e+03 6.277187411961e+03 6.253730126219e+03 6.257619845137e+03 6.281697365470e+03 6.318106533865e+03 6.359748269205e+03 6.401112005836e+03 6.438551241794e+03 6.470156429971e+03 6.495398628451e+03 6.514692747143e+03 6.528984456418e+03 6.539418481498e+03 6.547108430562e+03 6.553003025985e+03 6.557829952509e+03 6.562093875487e+03 6.566106416867e+03 6.570030239914e+03 6.573924793886e+03 6.577786352674e+03 6.581579038530e+03 6.585256330974e+03 6.588774210122e+03 6.592097819313e+03 6.595203644507e+03 6.598078961486e+03 6.600719899802e+03 6.603129050237e+03 6.605313176269e+03 6.607281310847e+03 6.609043330110e+03 6.610608982469e+03 6.611987295538e+03 6.613186265871e+03 6.614212741362e+03 6.615072421905e+03 6.615769922742e+03 6.616308862456e+03 6.616691951813e+03 6.616921069961e+03 6.616997321260e+03 2.299251901024e+04 2.299218771056e+04 2.299119253970e+04 2.298952967392e+04 2.298719270971e+04 2.298417261925e+04 2.298045768636e+04 2.297603342286e+04 2.297088246430e+04 2.296498444350e+04 2.295831584055e+04 2.295084980700e+04 2.294255596214e+04 2.293340015840e+04 2.292334421272e+04 2.291234560010e+04 2.290035710481e+04 2.288732642416e+04 2.287319571881e+04 2.285790110267e+04 2.284137206414e+04 2.282353080933e+04 2.280429151612e+04 2.278355948611e+04 2.276123017937e+04 2.273718811406e+04 2.271130561026e+04 2.268344135316e+04 2.265343874666e+04 2.262112402300e+04 2.258630406756e+04 2.254876391057e+04 2.250826382797e+04 2.246453598282e+04 2.241728052539e+04 2.236616105416e+04 2.231079932120e+04 2.225076904289e+04 2.218558865077e+04 2.211471278694e+04 2.203752231291e+04 2.195331256240e+04 2.186127952483e+04 2.176050360189e+04 2.164993053406e+04 2.152834905363e+04 2.139436478861e+04 2.124636992622e+04 2.108250815145e+04 2.090063440890e+04 2.069826908954e+04 2.047254628683e+04 2.022015571064e+04 1.993727749073e+04 1.961950799375e+04 1.926177201204e+04 1.885821009713e+04 1.840201701080e+04 1.788516491359e+04 1.729796783412e+04 1.662757413268e+04 1.585966255391e+04 1.495259448308e+04 1.389940969604e+04 1.313034640488e+04 1.182868981056e+04 1.033652729549e+04 8.842775368415e+03 7.392630275233e+03 6.058495612487e+03 4.943233934576e+03 4.162888780844e+03 3.800006607051e+03 3.856122314707e+03 4.241662286506e+03 4.812316536821e+03 5.423330944410e+03 5.967302266238e+03 6.384548118932e+03 6.655787725949e+03 6.789596285841e+03 6.811022864039e+03 6.752824047422e+03 6.648949696156e+03 6.529806142925e+03 6.419129577579e+03 6.332467220095e+03 6.277187411961e+03 6.253730126219e+03 6.257619845137e+03 6.281697365470e+03 6.318106533865e+03 6.359748269205e+03 6.401112005836e+03 6.438551241794e+03 6.470156429971e+03 6.495398628451e+03 6.514692747143e+03 6.528984456418e+03 6.539418481498e+03 6.547108430562e+03 6.553003025985e+03 6.557829952509e+03 6.562093875487e+03 6.566106416867e+03 6.570030239914e+03 6.573924793886e+03 6.577786352674e+03 6.581579038530e+03 6.585256330974e+03 6.588774210122e+03 6.592097819313e+03 6.595203644507e+03 6.598078961486e+03 6.600719899802e+03 6.603129050237e+03 6.605313176269e+03 6.607281310847e+03 6.609043330110e+03 6.610608982469e+03 6.611987295538e+03 6.613186265871e+03 6.614212741362e+03 6.615072421905e+03 6.615769922742e+03 6.616308862456e+03 6.616691951813e+03 6.616921069961e+03 6.616997321260e+03 4.598569977493e+04 4.598537038069e+04 4.598438093961e+04 4.598272766780e+04 4.598040422945e+04 4.597740169249e+04 4.597370846592e+04 4.596931021774e+04 4.596418977265e+04 4.595832698810e+04 4.595169860720e+04 4.594427808650e+04 4.593603539632e+04 4.592693679108e+04 4.591694454637e+04 4.590601665906e+04 4.589410650629e+04 4.588116245816e+04 4.586712743857e+04 4.585193842717e+04 4.583552589489e+04 4.581781316368e+04 4.579871567990e+04 4.577814018901e+04 4.575598379688e+04 4.573213290086e+04 4.570646197053e+04 4.567883215473e+04 4.564908968713e+04 4.561706405780e+04 4.558256591210e+04 4.554538463121e+04 4.550528554010e+04 4.546200667846e+04 4.541525505817e+04 4.536470231639e+04 4.530997965600e+04 4.525067194558e+04 4.518631082678e+04 4.511636665052e+04 4.504023903181e+04 4.495724577870e+04 4.486660991338e+04 4.476744446396e+04 4.465873466775e+04 4.453931719365e+04 4.440785596979e+04 4.426281420200e+04 4.410242220223e+04 4.392464072995e+04 4.372711970543e+04 4.350715240096e+04 4.326162556881e+04 4.298696641765e+04 4.267908786271e+04 4.233333395228e+04 4.194442804072e+04 4.150642615185e+04 4.101269497622e+04 4.045588077103e+04 3.982857772968e+04 3.912205738751e+04 3.833935569446e+04 3.755511331538e+04 3.674418506684e+04 3.594801951199e+04 3.499194035832e+04 3.393663470699e+04 3.287419542892e+04 3.188837327989e+04 3.107258970122e+04 3.051883752203e+04 3.028843688969e+04 3.038104277013e+04 3.072914072653e+04 3.122552781076e+04 3.176227962237e+04 3.225683868999e+04 3.265945033099e+04 3.294928644412e+04 3.312701136622e+04 3.320751901835e+04 3.321377665985e+04 3.317173467124e+04 3.310621138990e+04 3.303784619807e+04 3.298129613663e+04 3.294474253218e+04 3.293054674226e+04 3.293668273325e+04 3.295848102861e+04 3.299026663516e+04 3.302661764615e+04 3.306314014150e+04 3.309679137880e+04 3.312586159722e+04 3.314974794750e+04 3.316863976280e+04 3.318320225254e+04 3.319431054207e+04 3.320285621405e+04 3.320962740768e+04 3.321525113756e+04 3.322018121596e+04 3.322471485543e+04 3.322902362125e+04 3.323318822225e+04 3.323723050847e+04 3.324113931325e+04 3.324488915943e+04 3.324845234153e+04 3.325180564789e+04 3.325493320821e+04 3.325782684563e+04 3.326048504477e+04 3.326291133494e+04 3.326511259924e+04 3.326709759092e+04 3.326887577431e+04 3.327045650476e+04 3.327184850524e+04 3.327305957471e+04 3.327409646080e+04 3.327496483795e+04 3.327566934516e+04 3.327621365059e+04 3.327660052146e+04 3.327683188634e+04 3.327690888268e+04 4.598569977493e+04 4.598537038069e+04 4.598438093961e+04 4.598272766780e+04 4.598040422945e+04 4.597740169249e+04 4.597370846592e+04 4.596931021774e+04 4.596418977265e+04 4.595832698810e+04 4.595169860720e+04 4.594427808650e+04 4.593603539632e+04 4.592693679108e+04 4.591694454637e+04 4.590601665906e+04 4.589410650629e+04 4.588116245816e+04 4.586712743857e+04 4.585193842717e+04 4.583552589489e+04 4.581781316368e+04 4.579871567990e+04 4.577814018901e+04 4.575598379688e+04 4.573213290086e+04 4.570646197053e+04 4.567883215473e+04 4.564908968713e+04 4.561706405780e+04 4.558256591210e+04 4.554538463121e+04 4.550528554010e+04 4.546200667846e+04 4.541525505817e+04 4.536470231639e+04 4.530997965600e+04 4.525067194558e+04 4.518631082678e+04 4.511636665052e+04 4.504023903181e+04 4.495724577870e+04 4.486660991338e+04 4.476744446396e+04 4.465873466775e+04 4.453931719365e+04 4.440785596979e+04 4.426281420200e+04 4.410242220223e+04 4.392464072995e+04 4.372711970543e+04 4.350715240096e+04 4.326162556881e+04 4.298696641765e+04 4.267908786271e+04 4.233333395228e+04 4.194442804072e+04 4.150642615185e+04 4.101269497622e+04 4.045588077103e+04 3.982857772968e+04 3.912205738751e+04 3.833935569446e+04 3.755511331538e+04 3.674418506684e+04 3.594801951199e+04 3.499194035832e+04 3.393663470699e+04 3.287419542892e+04 3.188837327989e+04 3.107258970122e+04 3.051883752203e+04 3.028843688969e+04 3.038104277013e+04 3.072914072653e+04 3.122552781076e+04 3.176227962237e+04 3.225683868999e+04 3.265945033099e+04 3.294928644412e+04 3.312701136622e+04 3.320751901835e+04 3.321377665985e+04 3.317173467124e+04 3.310621138990e+04 3.303784619807e+04 3.298129613663e+04 3.294474253218e+04 3.293054674226e+04 3.293668273325e+04 3.295848102861e+04 3.299026663516e+04 3.302661764615e+04 3.306314014150e+04 3.309679137880e+04 3.312586159722e+04 3.314974794750e+04 3.316863976280e+04 3.318320225254e+04 3.319431054207e+04 3.320285621405e+04 3.320962740768e+04 3.321525113756e+04 3.322018121596e+04 3.322471485543e+04 3.322902362125e+04 3.323318822225e+04 3.323723050847e+04 3.324113931325e+04 3.324488915943e+04 3.324845234153e+04 3.325180564789e+04 3.325493320821e+04 3.325782684563e+04 3.326048504477e+04 3.326291133494e+04 3.326511259924e+04 3.326709759092e+04 3.326887577431e+04 3.327045650476e+04 3.327184850524e+04 3.327305957471e+04 3.327409646080e+04 3.327496483795e+04 3.327566934516e+04 3.327621365059e+04 3.327660052146e+04 3.327683188634e+04 3.327690888268e+04 6.897953849110e+04 6.897921225779e+04 6.897823232155e+04 6.897659496488e+04 6.897429396360e+04 6.897132054393e+04 6.896766332172e+04 6.896330822303e+04 6.895823838511e+04 6.895243403654e+04 6.894587235493e+04 6.893852730052e+04 6.893036942334e+04 6.892136564155e+04 6.891147898779e+04 6.890066832023e+04 6.888888799418e+04 6.887608748958e+04 6.886221098889e+04 6.884719689907e+04 6.883097731028e+04 6.881347738277e+04 6.879461465195e+04 6.877429824015e+04 6.875242796142e+04 6.872889330375e+04 6.870357227009e+04 6.867633005649e+04 6.864701754207e+04 6.861546956070e+04 6.858150291915e+04 6.854491412021e+04 6.850547674139e+04 6.846293841121e+04 6.841701731406e+04 6.836739814238e+04 6.831372739960e+04 6.825560794010e+04 6.819259261192e+04 6.812417684451e+04 6.804978999713e+04 6.796878525359e+04 6.788042781697e+04 6.778388112470e+04 6.767819077265e+04 6.756226581191e+04 6.743485707134e+04 6.729453217630e+04 6.713964700111e+04 6.696831344419e+04 6.677836370490e+04 6.656731175618e+04 6.633231358332e+04 6.607012922290e+04 6.577709207892e+04 6.544909521684e+04 6.508161186208e+04 6.466978388844e+04 6.420863806862e+04 6.369363502763e+04 6.312161837693e+04 6.249438115735e+04 6.182884371135e+04 6.114472966873e+04 6.046916900894e+04 5.978809469996e+04 5.909290669382e+04 5.837067906380e+04 5.766311850588e+04 5.703274854770e+04 5.654270728381e+04 5.624507183078e+04 5.616688566653e+04 5.629923142712e+04 5.659846051113e+04 5.700134381806e+04 5.744359265212e+04 5.787206379148e+04 5.824955532418e+04 5.855494359516e+04 5.878103345314e+04 5.893149368385e+04 5.901755857610e+04 5.905479251003e+04 5.906009203636e+04 5.904913686893e+04 5.903454267558e+04 5.902490088892e+04 5.902471294764e+04 5.903502831227e+04 5.905447428924e+04 5.908035956738e+04 5.910961625305e+04 5.913946159727e+04 5.916776295505e+04 5.919315491384e+04 5.921498510399e+04 5.923316542392e+04 5.924799075451e+04 5.925996747109e+04 5.926967521425e+04 5.927767040765e+04 5.928442982127e+04 5.929032677498e+04 5.929563044281e+04 5.930051902660e+04 5.930509924549e+04 5.930942677761e+04 5.931352440756e+04 5.931739635741e+04 5.932103849526e+04 5.932444484750e+04 5.932761118564e+04 5.933053653240e+04 5.933322334580e+04 5.933567698063e+04 5.933790485106e+04 5.933991556214e+04 5.934171815507e+04 5.934332152536e+04 5.934473401911e+04 5.934596318370e+04 5.934701563798e+04 5.934789702585e+04 5.934861202208e+04 5.934916436601e+04 5.934955690551e+04 5.934979163979e+04 5.934986975373e+04 6.897953849110e+04 6.897921225779e+04 6.897823232155e+04 6.897659496488e+04 6.897429396360e+04 6.897132054393e+04 6.896766332172e+04 6.896330822303e+04 6.895823838511e+04 6.895243403654e+04 6.894587235493e+04 6.893852730051e+04 6.893036942334e+04 6.892136564155e+04 6.891147898779e+04 6.890066832023e+04 6.888888799418e+04 6.887608748958e+04 6.886221098889e+04 6.884719689907e+04 6.883097731028e+04 6.881347738277e+04 6.879461465195e+04 6.877429824015e+04 6.875242796142e+04 6.872889330375e+04 6.870357227009e+04 6.867633005649e+04 6.864701754207e+04 6.861546956070e+04 6.858150291915e+04 6.854491412021e+04 6.850547674139e+04 6.846293841121e+04 6.841701731406e+04 6.836739814238e+04 6.831372739960e+04 6.825560794010e+04 6.819259261192e+04 6.812417684451e+04 6.804978999713e+04 6.796878525359e+04 6.788042781697e+04 6.778388112470e+04 6.767819077265e+04 6.756226581191e+04 6.743485707134e+04 6.729453217630e+04 6.713964700111e+04 6.696831344419e+04 6.677836370490e+04 6.656731175618e+04 6.633231358332e+04 6.607012922290e+04 6.577709207892e+04 6.544909521684e+04 6.508161186208e+04 6.466978388844e+04 6.420863806862e+04 6.369363502763e+04 6.312161837693e+04 6.249438115735e+04 6.182884371135e+04 6.114472966873e+04 6.046916900894e+04 5.978809469996e+04 5.909290669382e+04 5.837067906380e+04 5.766311850588e+04 5.703274854770e+04 5.654270728381e+04 5.624507183078e+04 5.616688566653e+04 5.629923142712e+04 5.659846051113e+04 5.700134381806e+04 5.744359265212e+04 5.787206379148e+04 5.824955532418e+04 5.855494359516e+04 5.878103345314e+04 5.893149368385e+04 5.901755857610e+04 5.905479251003e+04 5.906009203636e+04 5.904913686893e+04 5.903454267558e+04 5.902490088892e+04 5.902471294764e+04 5.903502831227e+04 5.905447428924e+04 5.908035956738e+04 5.910961625305e+04 5.913946159727e+04 5.916776295505e+04 5.919315491384e+04 5.921498510399e+04 5.923316542392e+04 5.924799075451e+04 5.925996747109e+04 5.926967521425e+04 5.927767040765e+04 5.928442982127e+04 5.929032677498e+04 5.929563044281e+04 5.930051902660e+04 5.930509924549e+04 5.930942677761e+04 5.931352440756e+04 5.931739635741e+04 5.932103849526e+04 5.932444484750e+04 5.932761118564e+04 5.933053653240e+04 5.933322334580e+04 5.933567698063e+04 5.933790485106e+04 5.933991556214e+04 5.934171815507e+04 5.934332152536e+04 5.934473401911e+04 5.934596318370e+04 5.934701563798e+04 5.934789702585e+04 5.934861202208e+04 5.934916436601e+04 5.934955690551e+04 5.934979163979e+04 5.934986975373e+04 9.197402885153e+04 9.