<?xml version="1.0"?>
<!-- Time step: 12 | Time: 3.155760000000e+07 -->
<VTKFile type="UnstructuredGrid" version="0.1" byte_order="LittleEndian">
  <UnstructuredGrid>
    <Piece NumberOfPoints="16770" NumberOfCells="8192">
      <Points>
        <DataArray type="Float64" NumberOfComponents="3" format="ascii">
          -1.500000000000e+02 -1.170000000000e+00 7.500000000000e+01
          -1.476562500000e+02 -1.170000000000e+00 7.500000000000e+01
          -1.453125000000e+02 -1.170000000000e+00 7.500000000000e+01
          -1.429687500000e+02 -1.170000000000e+00 7.500000000000e+01
          -1.406250000000e+02 -1.170000000000e+00 7.500000000000e+01
          -1.382812500000e+02 -1.170000000000e+00 7.500000000000e+01
          -1.359375000000e+02 -1.170000000000e+00 7.500000000000e+01
          -1.335937500000e+02 -1.170000000000e+00 7.500000000000e+01
          -1.312500000000e+02 -1.170000000000e+00 7.500000000000e+01
          -1.289062500000e+02 -1.170000000000e+00 7.500000000000e+01
          -1.265625000000e+02 -1.170000000000e+00 7.500000000000e+01
          -1.242187500000e+02 -1.170000000000e+00 7.500000000000e+01
          -1.218750000000e+02 -1.170000000000e+00 7.500000000000e+01
          -1.195312500000e+02 -1.170000000000e+00 7.500000000000e+01
          -1.171875000000e+02 -1.170000000000e+00 7.500000000000e+01
          -1.148437500000e+02 -1.170000000000e+00 7.500000000000e+01
          -1.125000000000e+02 -1.170000000000e+00 7.500000000000e+01
          -1.101562500000e+02 -1.170000000000e+00 7.500000000000e+01
          -1.078125000000e+02 -1.170000000000e+00 7.500000000000e+01
          -1.054687500000e+02 -1.170000000000e+00 7.500000000000e+01
          -1.031250000000e+02 -1.170000000000e+00 7.500000000000e+01
          -1.007812500000e+02 -1.170000000000e+00 7.500000000000e+01
          -9.843750000000e+01 -1.170000000000e+00 7.500000000000e+01
          -9.609375000000e+01 -1.170000000000e+00 7.500000000000e+01
          -9.375000000000e+01 -1.170000000000e+00 7.500000000000e+01
          -9.140625000000e+01 -1.170000000000e+00 7.500000000000e+01
          -8.906250000000e+01 -1.170000000000e+00 7.500000000000e+01
          -8.671875000000e+01 -1.170000000000e+00 7.500000000000e+01
          -8.437500000000e+01 -1.170000000000e+00 7.500000000000e+01
          -8.203125000000e+01 -1.170000000000e+00 7.500000000000e+01
          -7.968750000000e+01 -1.170000000000e+00 7.500000000000e+01
          -7.734375000000e+01 -1.170000000000e+00 7.500000000000e+01
          -7.500000000000e+01 -1.170000000000e+00 7.500000000000e+01
          -7.265625000000e+01 -1.170000000000e+00 7.500000000000e+01
          -7.031250000000e+01 -1.170000000000e+00 7.500000000000e+01
          -6.796875000000e+01 -1.170000000000e+00 7.500000000000e+01
          -6.562500000000e+01 -1.170000000000e+00 7.500000000000e+01
          -6.328125000000e+01 -1.170000000000e+00 7.500000000000e+01
          -6.093750000000e+01 -1.170000000000e+00 7.500000000000e+01
          -5.859375000000e+01 -1.170000000000e+00 7.500000000000e+01
          -5.625000000000e+01 -1.170000000000e+00 7.500000000000e+01
          -5.390625000000e+01 -1.170000000000e+00 7.500000000000e+01
          -5.156250000000e+01 -1.170000000000e+00 7.500000000000e+01
          -4.921875000000e+01 -1.170000000000e+00 7.500000000000e+01
          -4.687500000000e+01 -1.170000000000e+00 7.500000000000e+01
          -4.453125000000e+01 -1.170000000000e+00 7.500000000000e+01
          -4.218750000000e+01 -1.170000000000e+00 7.500000000000e+01
          -3.984375000000e+01 -1.170000000000e+00 7.500000000000e+01
          -3.750000000000e+01 -1.170000000000e+00 7.500000000000e+01
          -3.515625000000e+01 -1.170000000000e+00 7.500000000000e+01
          -3.281250000000e+01 -1.170000000000e+00 7.500000000000e+01
          -3.046875000000e+01 -1.170000000000e+00 7.500000000000e+01
          -2.812500000000e+01 -1.170000000000e+00 7.500000000000e+01
          -2.578125000000e+01 -1.170000000000e+00 7.500000000000e+01
          -2.343750000000e+01 -1.170000000000e+00 7.500000000000e+01
          -2.109375000000e+01 -1.170000000000e+00 7.500000000000e+01
          -1.875000000000e+01 -1.170000000000e+00 7.500000000000e+01
          -1.640625000000e+01 -1.170000000000e+00 7.500000000000e+01
          -1.406250000000e+01 -1.170000000000e+00 7.500000000000e+01
          -1.171875000000e+01 -1.170000000000e+00 7.500000000000e+01
          -9.375000000000e+00 -1.170000000000e+00 7.500000000000e+01
          -7.031250000000e+00 -1.170000000000e+00 7.500000000000e+01
          -4.687500000000e+00 -1.170000000000e+00 7.500000000000e+01
          -2.343750000000e+00 -1.170000000000e+00 7.500000000000e+01
          0.000000000000e+00 -1.170000000000e+00 7.500000000000e+01
          2.343750000000e+00 -1.170000000000e+00 7.500000000000e+01
          4.687500000000e+00 -1.170000000000e+00 7.500000000000e+01
          7.031250000000e+00 -1.170000000000e+00 7.500000000000e+01
          9.375000000000e+00 -1.170000000000e+00 7.500000000000e+01
          1.171875000000e+01 -1.170000000000e+00 7.500000000000e+01
          1.406250000000e+01 -1.170000000000e+00 7.500000000000e+01
          1.640625000000e+01 -1.170000000000e+00 7.500000000000e+01
          1.875000000000e+01 -1.170000000000e+00 7.500000000000e+01
          2.109375000000e+01 -1.170000000000e+00 7.500000000000e+01
          2.343750000000e+01 -1.170000000000e+00 7.500000000000e+01
          2.578125000000e+01 -1.170000000000e+00 7.500000000000e+01
          2.812500000000e+01 -1.170000000000e+00 7.500000000000e+01
          3.046875000000e+01 -1.170000000000e+00 7.500000000000e+01
          3.281250000000e+01 -1.170000000000e+00 7.500000000000e+01
          3.515625000000e+01 -1.170000000000e+00 7.500000000000e+01
          3.750000000000e+01 -1.170000000000e+00 7.500000000000e+01
          3.984375000000e+01 -1.170000000000e+00 7.500000000000e+01
          4.218750000000e+01 -1.170000000000e+00 7.500000000000e+01
          4.453125000000e+01 -1.170000000000e+00 7.500000000000e+01
          4.687500000000e+01 -1.170000000000e+00 7.500000000000e+01
          4.921875000000e+01 -1.170000000000e+00 7.500000000000e+01
          5.156250000000e+01 -1.170000000000e+00 7.500000000000e+01
          5.390625000000e+01 -1.170000000000e+00 7.500000000000e+01
          5.625000000000e+01 -1.170000000000e+00 7.500000000000e+01
          5.859375000000e+01 -1.170000000000e+00 7.500000000000e+01
          6.093750000000e+01 -1.170000000000e+00 7.500000000000e+01
          6.328125000000e+01 -1.170000000000e+00 7.500000000000e+01
          6.562500000000e+01 -1.170000000000e+00 7.500000000000e+01
          6.796875000000e+01 -1.170000000000e+00 7.500000000000e+01
          7.031250000000e+01 -1.170000000000e+00 7.500000000000e+01
          7.265625000000e+01 -1.170000000000e+00 7.500000000000e+01
          7.500000000000e+01 -1.170000000000e+00 7.500000000000e+01
          7.734375000000e+01 -1.170000000000e+00 7.500000000000e+01
          7.968750000000e+01 -1.170000000000e+00 7.500000000000e+01
          8.203125000000e+01 -1.170000000000e+00 7.500000000000e+01
          8.437500000000e+01 -1.170000000000e+00 7.500000000000e+01
          8.671875000000e+01 -1.170000000000e+00 7.500000000000e+01
          8.906250000000e+01 -1.170000000000e+00 7.500000000000e+01
          9.140625000000e+01 -1.170000000000e+00 7.500000000000e+01
          9.375000000000e+01 -1.170000000000e+00 7.500000000000e+01
          9.609375000000e+01 -1.170000000000e+00 7.500000000000e+01
          9.843750000000e+01 -1.170000000000e+00 7.500000000000e+01
          1.007812500000e+02 -1.170000000000e+00 7.500000000000e+01
          1.031250000000e+02 -1.170000000000e+00 7.500000000000e+01
          1.054687500000e+02 -1.170000000000e+00 7.500000000000e+01
          1.078125000000e+02 -1.170000000000e+00 7.500000000000e+01
          1.101562500000e+02 -1.170000000000e+00 7.500000000000e+01
          1.125000000000e+02 -1.170000000000e+00 7.500000000000e+01
          1.148437500000e+02 -1.170000000000e+00 7.500000000000e+01
          1.171875000000e+02 -1.170000000000e+00 7.500000000000e+01
          1.195312500000e+02 -1.170000000000e+00 7.500000000000e+01
          1.218750000000e+02 -1.170000000000e+00 7.500000000000e+01
          1.242187500000e+02 -1.170000000000e+00 7.500000000000e+01
          1.265625000000e+02 -1.170000000000e+00 7.500000000000e+01
          1.289062500000e+02 -1.170000000000e+00 7.500000000000e+01
          1.312500000000e+02 -1.170000000000e+00 7.500000000000e+01
          1.335937500000e+02 -1.170000000000e+00 7.500000000000e+01
          1.359375000000e+02 -1.170000000000e+00 7.500000000000e+01
          1.382812500000e+02 -1.170000000000e+00 7.500000000000e+01
          1.406250000000e+02 -1.170000000000e+00 7.500000000000e+01
          1.429687500000e+02 -1.170000000000e+00 7.500000000000e+01
          1.453125000000e+02 -1.170000000000e+00 7.500000000000e+01
          1.476562500000e+02 -1.170000000000e+00 7.500000000000e+01
          1.500000000000e+02 -1.170000000000e+00 7.500000000000e+01
          -1.500000000000e+02 1.170000000000e+00 7.500000000000e+01
          -1.476562500000e+02 1.170000000000e+00 7.500000000000e+01
          -1.453125000000e+02 1.170000000000e+00 7.500000000000e+01
          -1.429687500000e+02 1.170000000000e+00 7.500000000000e+01
          -1.406250000000e+02 1.170000000000e+00 7.500000000000e+01
          -1.382812500000e+02 1.170000000000e+00 7.500000000000e+01
          -1.359375000000e+02 1.170000000000e+00 7.500000000000e+01
          -1.335937500000e+02 1.170000000000e+00 7.500000000000e+01
          -1.312500000000e+02 1.170000000000e+00 7.500000000000e+01
          -1.289062500000e+02 1.170000000000e+00 7.500000000000e+01
          -1.265625000000e+02 1.170000000000e+00 7.500000000000e+01
          -1.242187500000e+02 1.170000000000e+00 7.500000000000e+01
[...]
      <PointData Scalars="PRESSURE1">
        <DataArray type="Float64" Name="PRESSURE1" format="ascii">
          0.000000000000e+00 -1.229150791056e-01 -7.696422348181e-01 -1.876720093094e+00 -3.444932363951e+00 -5.478137953134e+00 -7.983407324443e+00 -1.097016986469e+01 -1.445004685471e+01 -1.843684235019e+01 -2.294664542905e+01 -2.799788887714e+01 -3.361147965432e+01 -3.981099500526e+01 -4.662285573501e+01 -5.407655843205e+01 -6.220492387611e+01 -7.104437050496e+01 -8.063530889618e+01 -9.102248510980e+01 -1.022554122294e+02 -1.143889104805e+02 -1.274836542345e+02 -1.416068666575e+02 -1.568330411745e+02 -1.732448588965e+02 -1.909341908603e+02 -2.100032699472e+02 -2.305660615053e+02 -2.527498537289e+02 -2.766971381534e+02 -3.025677608023e+02 -3.305415528810e+02 -3.608213294251e+02 -3.936365275632e+02 -4.292475157403e+02 -4.679507725660e+02 -5.100850755912e+02 -5.560389906517e+02 -6.062599555269e+02 -6.612652656320e+02 -7.216554818308e+02 -7.881307894743e+02 -8.615109469240e+02 -9.427596060713e+02 -1.033014055034e+03 -1.133621342668e+03 -1.246182101240e+03 -1.372603512599e+03 -1.515162865882e+03 -1.676583500047e+03 -1.860124676828e+03 -2.069687466037e+03 -2.309938594938e+03 -2.586455116700e+03 -2.905895312242e+03 -3.276207217214e+03 -3.706904662452e+03 -4.209471649449e+03 -4.798171384516e+03 -5.491027278580e+03 -6.318607318862e+03 -7.297252105739e+03 -8.646998921876e+03 -1.126687314219e+04 -1.345504678519e+04 -1.534298184343e+04 -1.708799190018e+04 -1.862902263548e+04 -1.989079814963e+04 -2.081465587049e+04 -2.138445157414e+04 -2.163314300988e+04 -2.163064413078e+04 -2.146184977199e+04 -2.120613170215e+04 -2.092507802457e+04 -2.065906754264e+04 -2.042972491429e+04 -2.024485851342e+04 -2.010354942932e+04 -2.000027259757e+04 -1.992776021558e+04 -1.987873989245e+04 -1.984682894949e+04 -1.982687073797e+04 -1.981494420351e+04 -1.980821045267e+04 -1.980470021297e+04 -1.980310109593e+04 -1.980257278826e+04 -1.980259997802e+04 -1.980288224025e+04 -1.980325548722e+04 -1.980363848318e+04 -1.980399762608e+04 -1.980432480532e+04 -1.980462404924e+04 -1.980490394281e+04 -1.980517353310e+04 -1.980544049114e+04 -1.980571039437e+04 -1.980598673224e+04 -1.980627116746e+04 -1.980656390841e+04 -1.980686409700e+04 -1.980717010792e+04 -1.980747989427e+04 -1.980779113555e+04 -1.980810142315e+04 -1.980840839076e+04 -1.980870975615e+04 -1.980900337119e+04 -1.980928726908e+04 -1.980955966782e+04 -1.980981898552e+04 -1.981006379840e+04 -1.981029285196e+04 -1.981050507142e+04 -1.981069952142e+04 -1.981087539989e+04 -1.981103201808e+04 -1.981116882218e+04 -1.981128532895e+04 -1.981138114903e+04 -1.981145598087e+04 -1.981150960326e+04 -1.981154183792e+04 -1.981155258446e+04 0.000000000000e+00 -1.229153500772e-01 -7.696416370491e-01 -1.876721727501e+00 -3.444933892982e+00 -5.478133988099e+00 -7.983410229496e+00 -1.097017395584e+01 -1.445004158612e+01 -1.843684385695e+01 -2.294664901419e+01 -2.799788724210e+01 -3.361148065492e+01 -3.981099388101e+01 -4.662285712981e+01 -5.407656291112e+01 -6.220491806304e+01 -7.104437256965e+01 -8.063531330712e+01 -9.102248216213e+01 -1.022554134934e+02 -1.143889093478e+02 -1.274836586183e+02 -1.416068644289e+02 -1.568330411432e+02 -1.732448610440e+02 -1.909341911458e+02 -2.100032695439e+02 -2.305660613363e+02 -2.527498582776e+02 -2.766971330263e+02 -3.025677639465e+02 -3.305415547408e+02 -3.608213287279e+02 -3.936365254936e+02 -4.292475193611e+02 -4.679507740907e+02 -5.100850715990e+02 -5.560389931216e+02 -6.062599587237e+02 -6.612652628718e+02 -7.216554804723e+02 -7.881307952379e+02 -8.615109443239e+02 -9.427596051253e+02 -1.033014057709e+03 -1.133621342016e+03 -1.246182103178e+03 -1.372603508352e+03 -1.515162872679e+03 -1.676583497666e+03 -1.860124672812e+03 -2.069687473052e+03 -2.309938593464e+03 -2.586455115021e+03 -2.905895311902e+03 -3.276207220695e+03 -3.706904663083e+03 -4.209471647765e+03 -4.798171380400e+03 -5.491027287811e+03 -6.318607317438e+03 -7.297252097399e+03 -8.646998933110e+03 -1.126687313885e+04 -1.345504678860e+04 -1.534298183875e+04 -1.708799190521e+04 -1.862902263504e+04 -1.989079814850e+04 -2.081465586840e+04 -2.138445158203e+04 -2.163314300429e+04 -2.163064412843e+04 -2.146184978085e+04 -2.120613169832e+04 -2.092507801882e+04 -2.065906755229e+04 -2.042972491369e+04 -2.024485850692e+04 -2.010354943132e+04 -2.000027260504e+04 -1.992776021254e+04 -1.987873988609e+04 -1.984682895507e+04 -1.982687074256e+04 -1.981494420049e+04 -1.980821044566e+04 -1.980470022365e+04 -1.980310109530e+04 -1.980257278111e+04 -1.980259998626e+04 -1.980288223594e+04 -1.980325548970e+04 -1.980363848398e+04 -1.980399762540e+04 -1.980432480351e+04 -1.980462405598e+04 -1.980490393773e+04 -1.980517353449e+04 -1.980544049244e+04 -1.980571039607e+04 -1.980598673101e+04 -1.980627116641e+04 -1.980656391360e+04 -1.980686409161e+04 -1.980717011315e+04 -1.980747989480e+04 -1.980779113099e+04 -1.980810142664e+04 -1.980840839432e+04 -1.980870975406e+04 -1.980900337009e+04 -1.980928726877e+04 -1.980955967365e+04 -1.980981898489e+04 -1.981006379356e+04 -1.981029285552e+04 -1.981050507485e+04 -1.981069952071e+04 -1.981087539521e+04 -1.981103202502e+04 -1.981116882213e+04 -1.981128532507e+04 -1.981138115090e+04 -1.981145598819e+04 -1.981150959716e+04 -1.981154183286e+04 -1.981155259886e+04 2.299251247259e+04 2.299229549765e+04 2.299164776350e+04 2.299054058672e+04 2.298897466551e+04 2.298694505625e+04 2.298444451211e+04 2.298146356183e+04 2.297799059014e+04 2.297401180648e+04 2.296951119104e+04 2.296447038346e+04 2.295886854575e+04 2.295268220226e+04 2.294588503849e+04 2.293844769216e+04 2.293033749599e+04 2.292151817513e+04 2.291194952739e+04 2.290158703197e+04 2.289038141108e+04 2.287827814105e+04 2.286521687122e+04 2.285113076837e+04 2.283594576295e+04 2.281957968319e+04 2.280194124959e+04 2.278292890753e+04 2.276242948568e+04 2.274031662924e+04 2.271644895586e+04 2.269066790431e+04 2.266279521986e+04 2.263262995716e+04 2.259994493930e+04 2.256448256466e+04 2.252594978549e+04 2.248401208310e+04 2.243828625041e+04 2.238833170203e+04 2.233363994036e+04 2.227362181303e+04 2.220759208944e+04 2.213475071792e+04 2.205416007899e+04 2.196471743616e+04 2.186512158583e+04 2.175383262029e+04 2.162902357738e+04 2.148852263833e+04 2.132974445848e+04 2.114960920852e+04 2.094444800304e+04 2.070989342092e+04 2.044075379037e+04 2.013086922335e+04 1.977294416712e+04 1.935834417484e+04 1.887681021358e+04 1.831609177179e+04 1.766057195956e+04 1.689422157626e+04 1.596881257116e+04 1.487309518989e+04 1.405901547449e+04 1.270155013111e+04 1.117196626228e+04 9.691533530783e+03 8.346162949354e+03 7.225501519372e+03 6.396274373795e+03 5.882705794195e+03 5.660862559268e+03 5.670161974166e+03 5.834141078416e+03 6.079975712173e+03 6.350392397693e+03 6.607337560702e+03 6.830065351012e+03 7.010769031933e+03 7.149942572269e+03 7.252555525399e+03 7.325352969507e+03 7.375187969954e+03 7.408142464842e+03 7.429178110286e+03 7.442103309156e+03 7.449702464259e+03 7.453927965801e+03 7.456097375042e+03 7.457067298073e+03 7.457373587232e+03 7.457337423543e+03 7.457141638466e+03 7.456883433551e+03 7.456609390516e+03 7.456337854054e+03 7.456072683169e+03 7.455811284089e+03 7.455549049158e+03 7.455281616546e+03 7.455005823855e+03 7.454719940277e+03 7.454423573321e+03 7.454117439141e+03 7.453803069898e+03 7.453482540175e+03 7.453158255149e+03 7.452832768561e+03 7.452508648764e+03 7.452188398780e+03 7.451874382026e+03 7.451568788338e+03 7.451273621380e+03 7.450990687355e+03 7.450721593441e+03 7.450467757108e+03 7.450230422294e+03 7.450010675571e+03 7.449809447529e+03 7.449627525812e+03 7.449465586570e+03 7.449324201785e+03 7.449203830696e+03 7.449104848852e+03 7.449027565293e+03 7.448972210080e+03 7.448938927378e+03 7.448927818348e+03 2.299251247260e+04 2.299229549708e+04 2.299164776288e+04 2.299054058779e+04 2.298897466492e+04 2.298694505329e+04 2.298444451365e+04 2.298146356349e+04 2.297799058641e+04 2.297401180573e+04 2.296951119305e+04 2.296447038267e+04 2.295886854411e+04 2.295268220070e+04 2.294588503994e+04 2.293844769313e+04 2.293033749190e+04 2.292151817494e+04 2.291194952989e+04 2.290158703017e+04 2.289038140899e+04 2.287827814122e+04 2.286521687225e+04 2.285113076697e+04 2.283594576129e+04 2.281957968403e+04 2.280194124930e+04 2.278292890571e+04 2.276242948610e+04 2.274031662969e+04 2.271644895322e+04 2.269066790454e+04 2.266279522133e+04 2.263262995497e+04 2.259994493758e+04 2.256448256663e+04 2.252594978536e+04 2.248401207973e+04 2.243828625146e+04 2.238833170384e+04 2.233363993701e+04 2.227362181214e+04 2.220759209206e+04 2.213475071641e+04 2.205416007689e+04 2.196471743700e+04 2.186512158658e+04 2.175383261824e+04 2.162902357656e+04 2.148852264071e+04 2.132974445658e+04 2.114960920569e+04 2.094444800611e+04 2.070989342129e+04 2.044075378680e+04 2.013086922283e+04 1.977294416979e+04 1.935834417521e+04 1.887681020938e+04 1.831609177088e+04 1.766057196458e+04 1.689422157408e+04 1.596881256697e+04 1.487309519318e+04 1.405901547583e+04 1.270155012859e+04 1.117196626140e+04 9.691533531962e+03 8.346162950209e+03 7.225501515887e+03 6.396274374344e+03 5.882705797161e+03 5.660862555498e+03 5.670161972525e+03 5.834141083518e+03 6.079975708832e+03 6.350392393480e+03 6.607337566632e+03 6.830065351018e+03 7.010769025218e+03 7.149942573502e+03 7.252555531403e+03 7.325352965981e+03 7.375187964202e+03 7.408142468076e+03 7.429178115106e+03 7.442103304075e+03 7.449702459897e+03 7.453927971357e+03 7.456097375537e+03 7.457067292931e+03 7.457373588964e+03 7.457337423479e+03 7.457141637868e+03 7.456883433897e+03 7.456609388234e+03 7.456337854107e+03 7.456072684830e+03 7.455811282205e+03 7.455549047053e+03 7.455281618084e+03 7.455005824277e+03 7.454719937897e+03 7.454423573001e+03 7.454117439567e+03 7.453803068460e+03 7.453482541019e+03 7.453158254982e+03 7.452832764747e+03 7.452508649866e+03 7.452188401363e+03 7.451874379740e+03 7.451568784722e+03 7.451273622176e+03 7.450990690337e+03 7.450721591819e+03 7.450467752532e+03 7.450230423557e+03 7.450010678761e+03 7.449809444020e+03 7.449627522908e+03 7.449465590127e+03 7.449324200943e+03 7.449203826161e+03 7.449104850732e+03 7.449027569047e+03 7.448972203340e+03 7.448938925150e+03 7.448927825317e+03 4.598539691345e+04 4.598517892430e+04 4.598452061823e+04 4.598341594892e+04 4.598185721680e+04 4.597983853177e+04 4.597735221326e+04 4.597438868706e+04 4.597093637012e+04 4.596698158385e+04 4.596250847507e+04 4.595749888117e+04 4.595193220572e+04 4.594578526664e+04 4.593903207849e+04 4.593164365609e+04 4.592358777620e+04 4.591482866000e+04 4.590532667708e+04 4.589503795614e+04 4.588391397014e+04 4.587190105965e+04 4.585893983986e+04 4.584496461438e+04 4.582990261021e+04 4.581367316083e+04 4.579618671964e+04 4.577734375348e+04 4.575703344905e+04 4.573513219119e+04 4.571150183452e+04 4.568598761997e+04 4.565841581185e+04 4.562859082733e+04 4.559629192146e+04 4.556126921477e+04 4.552323901082e+04 4.548187818969e+04 4.543681750614e+04 4.538763358104e+04 4.533383927111e+04 4.527487208661e+04 4.521008023113e+04 4.513870580248e+04 4.505986450218e+04 4.497252123536e+04 4.487546072350e+04 4.476725228557e+04 4.464620775516e+04 4.451033136664e+04 4.435726073847e+04 4.418419782781e+04 4.398782951458e+04 4.376423800309e+04 4.350880278864e+04 4.321609850286e+04 4.287979711856e+04 4.249258949234e+04 4.204616882830e+04 4.153127226211e+04 4.093859512107e+04 4.025731416885e+04 3.948886241339e+04 3.871037348094e+04 3.790423529015e+04 3.712282424131e+04 3.620576212561e+04 3.523071583605e+04 3.430331047276e+04 3.350734727093e+04 3.290720226625e+04 3.253394893037e+04 3.237971211998e+04 3.240498678020e+04 3.255426771673e+04 3.277175200024e+04 3.301169059456e+04 3.324239474895e+04 3.344562522026e+04 3.361368417898e+04 3.374596892354e+04 3.384595036522e+04 3.391893034807e+04 3.397058202656e+04 3.400612468590e+04 3.402994780165e+04 3.404551859140e+04 3.405544661643e+04 3.406161918172e+04 3.406535484612e+04 3.406754636056e+04 3.406878063815e+04 3.406943264126e+04 3.406973510945e+04 3.406982838175e+04 3.406979454396e+04 3.406968022182e+04 3.406951122078e+04 3.406930169471e+04 3.406905960279e+04 3.406878993551e+04 3.406849638619e+04 3.406818225261e+04 3.406785080470e+04 3.406750540174e+04 3.406714949266e+04 3.406678650440e+04 3.406641982857e+04 3.406605271071e+04 3.406568821868e+04 3.406532919809e+04 3.406497824015e+04 3.406463769714e+04 3.406430968042e+04 3.406399604388e+04 3.406369843466e+04 3.406341828957e+04 3.406315685049e+04 3.406291518361e+04 3.406269419655e+04 3.406249468028e+04 3.406231728029e+04 3.406216254328e+04 3.406203091171e+04 3.406192275272e+04 3.406183834326e+04 3.406177790438e+04 3.406174158476e+04 3.406172946376e+04 4.598539691319e+04 4.598517892483e+04 4.598452061676e+04 4.598341594758e+04 4.598185721887e+04 4.597983853039e+04 4.597735221210e+04 4.597438868731e+04 4.597093636850e+04 4.596698158586e+04 4.596250847351e+04 4.595749887779e+04 4.595193220917e+04 4.594578526603e+04 4.593903207479e+04 4.593164365801e+04 4.592358777473e+04 4.591482866105e+04 4.590532667547e+04 4.589503795345e+04 4.588391397398e+04 4.587190105620e+04 4.585893984056e+04 4.584496461249e+04 4.582990261105e+04 4.581367316033e+04 4.579618671847e+04 4.577734375370e+04 4.575703344662e+04 4.573513219421e+04 4.571150183103e+04 4.568598762090e+04 4.565841581027e+04 4.562859082861e+04 4.559629191996e+04 4.556126921358e+04 4.552323901173e+04 4.548187818905e+04 4.543681750506e+04 4.538763358044e+04 4.533383927199e+04 4.527487208513e+04 4.521008023153e+04 4.513870580025e+04 4.505986450392e+04 4.497252123502e+04 4.487546072019e+04 4.476725228983e+04 4.464620775018e+04 4.451033136889e+04 4.435726073806e+04 4.418419782640e+04 4.398782951602e+04 4.376423799915e+04 4.350880279206e+04 4.321609850265e+04 4.287979711505e+04 4.249258949195e+04 4.204616883329e+04 4.153127225658e+04 4.093859512221e+04 4.025731416949e+04 3.948886241019e+04 3.871037348674e+04 3.790423528227e+04 3.712282424757e+04 3.620576212199e+04 3.523071583698e+04 3.430331047112e+04 3.350734727350e+04 3.290720226165e+04 3.253394893371e+04 3.237971211911e+04 3.240498677767e+04 3.255426771810e+04 3.277175200065e+04 3.301169059320e+04 3.324239474863e+04 3.344562521816e+04 3.361368418283e+04 3.374596892216e+04 3.384595036097e+04 3.391893034951e+04 3.397058202973e+04 3.400612468414e+04 3.402994779649e+04 3.404551859553e+04 3.405544661574e+04 3.406161918280e+04 3.406535484162e+04 3.406754635972e+04 3.406878064558e+04 3.406943263314e+04 3.406973511074e+04 3.406982838249e+04 3.406979454473e+04 3.406968021793e+04 3.406951122369e+04 3.406930169102e+04 3.406905960608e+04 3.406878993283e+04 3.406849638526e+04 3.406818225309e+04 3.406785080349e+04 3.406750540477e+04 3.406714948631e+04 3.406678650694e+04 3.406641982893e+04 3.406605270950e+04 3.406568821868e+04 3.406532919514e+04 3.406497824028e+04 3.406463770102e+04 3.406430967589e+04 3.406399604233e+04 3.406369843589e+04 3.406341829018e+04 3.406315684939e+04 3.406291518011e+04 3.406269420006e+04 3.406249467754e+04 3.406231727973e+04 3.406216254316e+04 3.406203091312e+04 3.406192274795e+04 3.406183834438e+04 3.406177790676e+04 3.406174158059e+04 3.406172946573e+04 6.897871680812e+04 6.897849869078e+04 6.897784282666e+04 6.897674489381e+04 6.897519922808e+04 6.897319907292e+04 6.897073652997e+04 6.896780198814e+04 6.896438396776e+04 6.896046900418e+04 6.895604150684e+04 6.895108366197e+04 6.894557528553e+04 6.893949364703e+04 6.893281332377e+04 6.892550596708e+04 6.891754005692e+04 6.890888065142e+04 6.889948905045e+04 6.888932246399e+04 6.887833360181e+04 6.886647019155e+04 6.885367447818e+04 6.883988261083e+04 6.882502395626e+04 6.880902030265e+04 6.879178494854e+04 6.877322166851e+04 6.875322349483e+04 6.873167130377e+04 6.870843219743e+04 6.868335762673e+04 6.865628115460e+04 6.862701587372e+04 6.859535137077e+04 6.856105014483e+04 6.852384338033e+04 6.848342594992e+04 6.843945048656e+04 6.839152031413e+04 6.833918106040e+04 6.828191064650e+04 6.821910730400e+04 6.815007529234e+04 6.807400782999e+04 6.798996667913e+04 6.789685784815e+04 6.779340267662e+04 6.767810361272e+04 6.754920396637e+04 6.740464106163e+04 6.724199268422e+04 6.705841742972e+04 6.685059135061e+04 6.661464654695e+04 6.634612333071e+04 6.603995910304e+04 6.569056048929e+04 6.529204197099e+04 6.483887789430e+04 6.432703980905e+04 6.375802203064e+04 6.315002766156e+04 6.252665729193e+04 6.192188936235e+04 6.133225538596e+04 6.075828265738e+04 6.018823983498e+04 5.965394887444e+04 5.919765883689e+04 5.885466305234e+04 5.864553936059e+04 5.857056368899e+04 5.861079219581e+04 5.873512509587e+04 5.890924597534e+04 5.910271241129e+04 5.929269445493e+04 5.946471084074e+04 5.961149637186e+04 5.973110442004e+04 5.982498425489e+04 5.989639953367e+04 5.994929560659e+04 5.998758301379e+04 6.001474756843e+04 6.003368801337e+04 6.004669566073e+04 6.005551128641e+04 6.006141531127e+04 6.006532437282e+04 6.006787971857e+04 6.006952125000e+04 6.007054593806e+04 6.007115170264e+04 6.007146936868e+04 6.007158519886e+04 6.007155629937e+04 6.007142099793e+04 6.007120566477e+04 6.007092908123e+04 6.007060519940e+04 6.007024487037e+04 6.006985689870e+04 6.006944867330e+04 6.006902655247e+04 6.006859608972e+04 6.006816216114e+04 6.006772908953e+04 6.006730071133e+04 6.006688038790e+04 6.006647107791e+04 6.006607537083e+04 6.006569552231e+04 6.006533349277e+04 6.006499096696e+04 6.006466938965e+04 6.006437000178e+04 6.006409384865e+04 6.006384180776e+04 6.006361462839e+04 6.006341293496e+04 6.006323722534e+04 6.006308790989e+04 6.006296532622e+04 6.006286973793e+04 6.006280132150e+04 6.006276022027e+04 6.006274651384e+04 6.897871680613e+04 6.897849869010e+04 6.897784282887e+04 6.897674489272e+04 6.897519922507e+04 6.897319907525e+04 6.897073652918e+04 6.896780198606e+04 6.896438396993e+04 6.896046900126e+04 6.895604150632e+04 6.895108366489e+04 6.894557528131e+04 6.893949364713e+04 6.893281332535e+04 6.892550596432e+04 6.891754005824e+04 6.890888064946e+04 6.889948904948e+04 6.888932246623e+04 6.887833359918e+04 6.886647019074e+04 6.885367447817e+04 6.883988261120e+04 6.882502395588e+04 6.880902030007e+04 6.879178494858e+04 6.877322167056e+04 6.875322349305e+04 6.873167130032e+04 6.870843220046e+04 6.868335762681e+04 6.865628115127e+04 6.862701587357e+04 6.859535137285e+04 6.856105014338e+04 6.852384337743e+04 6.848342595221e+04 6.843945048653e+04 6.839152031116e+04 6.833918106160e+04 6.828191064646e+04 6.821910730207e+04 6.815007529367e+04 6.807400782869e+04 6.798996667868e+04 6.789685784769e+04 6.779340267623e+04 6.767810361421e+04 6.754920396339e+04 6.740464106138e+04 6.724199268640e+04 6.705841742712e+04 6.685059135125e+04 6.661464654605e+04 6.634612332964e+04 6.603995910562e+04 6.569056048649e+04 6.529204196962e+04 6.483887789801e+04 6.432703980471e+04 6.375802203156e+04 6.315002766369e+04 6.252665728794e+04 6.192188936337e+04 6.133225538651e+04 6.075828265607e+04 6.018823983607e+04 5.965394887068e+04 5.919765884017e+04 5.885466305313e+04 5.864553935467e+04 5.857056369133e+04 5.861079220058e+04 5.873512508852e+04 5.890924597546e+04 5.910271241632e+04 5.929269445095e+04 5.946471084028e+04 5.961149637183e+04 5.973110441992e+04 5.982498425514e+04 5.989639953395e+04 5.994929560366e+04 5.998758301431e+04 6.001474756933e+04 6.003368801366e+04 6.004669565911e+04 6.005551128234e+04 6.006141531640e+04 6.006532437485e+04 6.006787970816e+04 6.006952125581e+04 6.007054594089e+04 6.007115169601e+04 6.007146937018e+04 6.007158520034e+04 6.007155629733e+04 6.007142099760e+04 6.007120566477e+04 6.007092907962e+04 6.007060520007e+04 6.007024487147e+04 6.006985689516e+04 6.006944867176e+04 6.006902655722e+04 6.006859608753e+04 6.006816215634e+04 6.006772909256e+04 6.006730071122e+04 6.006688038741e+04 6.006647107625e+04 6.006607536880e+04 6.006569552449e+04 6.006533349298e+04 6.006499096328e+04 6.006466939019e+04 6.006437000319e+04 6.006409384571e+04 6.006384180709e+04 6.006361463085e+04 6.006341293234e+04 6.006323722273e+04 6.006308791171e+04 6.006296532857e+04 6.006286973136e+04 6.006280132347e+04 6.006276022219e+04 6.006274650892e+04 9.197247145869e+04 9.