VARIABLES  = "X","Y","Z", "DISPLACEMENT_X1", "DISPLACEMENT_Y1", "STRESS_XX", "STRESS_XY", "STRESS_YY", "STRESS_ZZ", "STRESS_YZ", "STRESS_XZ", "STRAIN_XX", "STRAIN_XY", "STRAIN_YY", "STRAIN_ZZ", "STRAIN_PLS"
ZONE T="0.000000000000e+00s", N=8, E=1, F=FEPOINT, ET=BRICK
STRANDID=1, SOLUTIONTIME=0.000000000000e+00
0.000000000000e+00 0.000000000000e+00 0.000000000000e+00 0.000000000000e+00 0.000000000000e+00 0.000000000000e+00 0.000000000000e+00 0.000000000000e+00 0.000000000000e+00 0.000000000000e+00 0.000000000000e+00 0.000000000000e+00 0.000000000000e+00 0.000000000000e+00 0.000000000000e+00 0.000000000000e+00 
1.000000000000e+00 0.000000000000e+00 0.000000000000e+00 0.000000000000e+00 0.000000000000e+00 0.000000000000e+00 0.000000000000e+00 0.000000000000e+00 0.000000000000e+00 0.000000000000e+00 0.000000000000e+00 0.000000000000e+00 0.000000000000e+00 0.000000000000e+00 0.000000000000e+00 0.000000000000e+00 
1.000000000000e+00 1.000000000000e+00 0.000000000000e+00 0.000000000000e+00 0.000000000000e+00 0.000000000000e+00 0.000000000000e+00 0.000000000000e+00 0.000000000000e+00 0.000000000000e+00 0.000000000000e+00 0.000000000000e+00 0.000000000000e+00 0.000000000000e+00 0.000000000000e+00 0.000000000000e+00 
0.000000000000e+00 1.000000000000e+00 0.000000000000e+00 0.000000000000e+00 0.000000000000e+00 0.000000000000e+00 0.000000000000e+00 0.000000000000e+00 0.000000000000e+00 0.000000000000e+00 0.000000000000e+00 0.000000000000e+00 0.000000000000e+00 0.000000000000e+00 0.000000000000e+00 0.000000000000e+00 
0.000000000000e+00 0.000000000000e+00 1.000000000000e+00 0.000000000000e+00 0.000000000000e+00 0.000000000000e+00 0.000000000000e+00 0.000000000000e+00 0.000000000000e+00 0.000000000000e+00 0.000000000000e+00 0.000000000000e+00 0.000000000000e+00 0.000000000000e+00 0.000000000000e+00 0.000000000000e+00 
1.000000000000e+00 0.000000000000e+00 1.000000000000e+00 0.000000000000e+00 0.000000000000e+00 0.000000000000e+00 0.000000000000e+00 0.000000000000e+00 0.000000000000e+00 0.000000000000e+00 0.000000000000e+00 0.000000000000e+00 0.000000000000e+00 0.000000000000e+00 0.000000000000e+00 0.000000000000e+00 
1.000000000000e+00 1.000000000000e+00 1.000000000000e+00 0.000000000000e+00 0.000000000000e+00 0.000000000000e+00 0.000000000000e+00 0.000000000000e+00 0.000000000000e+00 0.000000000000e+00 0.000000000000e+00 0.000000000000e+00 0.000000000000e+00 0.000000000000e+00 0.000000000000e+00 0.000000000000e+00 
0.000000000000e+00 1.000000000000e+00 1.000000000000e+00 0.000000000000e+00 0.000000000000e+00 0.000000000000e+00 0.000000000000e+00 0.000000000000e+00 0.000000000000e+00 0.000000000000e+00 0.000000000000e+00 0.000000000000e+00 0.000000000000e+00 0.000000000000e+00 0.000000000000e+00 0.000000000000e+00 
5  6  7  8  1  2  3  4  
VARIABLES  = "X","Y","Z", "DISPLACEMENT_X1", "DISPLACEMENT_Y1", "STRESS_XX", "STRESS_XY", "STRESS_YY", "STRESS_ZZ", "STRESS_YZ", "STRESS_XZ", "STRAIN_XX", "STRAIN_XY", "STRAIN_YY", "STRAIN_ZZ", "STRAIN_PLS"
ZONE T="5.000000000000e+01s", N=8, E=1, F=FEPOINT, ET=BRICK
STRANDID=1, SOLUTIONTIME=5.000000000000e+01
0.000000000000e+00 0.000000000000e+00 0.000000000000e+00 0.000000000000e+00 0.000000000000e+00 -3.333333333333e+04 3.847137223100e-12 -2.333333333333e+05 -3.333333333333e+04 1.748262031749e-11 3.184244450189e-13 -5.082197683526e-21 1.923568611550e-20 -5.000000000000e-04 -2.685511901967e-21 0.000000000000e+00 
1.000000000000e+00 0.000000000000e+00 0.000000000000e+00 0.000000000000e+00 0.000000000000e+00 -3.333333333333e+04 -4.141093435404e-12 -2.333333333333e+05 -3.333333333333e+04 -1.713035849390e-11 3.184244450189e-13 5.082197683526e-21 -2.070546717702e-20 -5.000000000000e-04 2.405564403800e-20 0.000000000000e+00 
1.000000000000e+00 1.000000000000e+00 0.000000000000e+00 0.000000000000e+00 -5.000000000000e-04 -3.333333333333e+04 1.717332606509e-11 -2.333333333333e+05 -3.333333333333e+04 4.738378703185e-11 -2.970553755197e-12 8.463559325920e-37 8.586663032545e-20 -5.000000000000e-04 -5.671153590517e-20 0.000000000000e+00 
0.000000000000e+00 1.000000000000e+00 0.000000000000e+00 0.000000000000e+00 -5.000000000000e-04 -3.333333333333e+04 -3.202190399809e-11 -2.333333333333e+05 -3.333333333333e+04 -1.501908111991e-10 -2.970553755197e-12 -7.523163845263e-37 -1.601095199904e-19 -5.000000000000e-04 6.457516204040e-20 0.000000000000e+00 
0.000000000000e+00 0.000000000000e+00 1.000000000000e+00 0.000000000000e+00 0.000000000000e+00 -3.333333333333e+04 -1.926733014512e-12 -2.333333333333e+05 -3.333333333333e+04 8.746262939530e-12 3.184244450189e-13 -1.590213137255e-20 -9.633665072561e-21 -5.000000000000e-04 2.685511901967e-21 0.000000000000e+00 
1.000000000000e+00 0.000000000000e+00 1.000000000000e+00 0.000000000000e+00 0.000000000000e+00 -3.333333333333e+04 -2.424102523589e-12 -2.333333333333e+05 -3.333333333333e+04 -2.407210048267e-11 3.184244450189e-13 1.590213137255e-20 -1.212051261794e-20 -5.000000000000e-04 -2.405564403800e-20 0.000000000000e+00 
1.000000000000e+00 1.000000000000e+00 1.000000000000e+00 0.000000000000e+00 -5.000000000000e-04 -3.333333333333e+04 9.497337328990e-11 -2.333333333333e+05 -3.333333333333e+04 8.382252017412e-11 -2.970553755197e-12 2.724098981429e-20 4.748668664495e-19 -5.000000000000e-04 5.671153590517e-20 0.000000000000e+00 
0.000000000000e+00 1.000000000000e+00 1.000000000000e+00 0.000000000000e+00 -5.000000000000e-04 -3.333333333333e+04 -8.564439897355e-11 -2.333333333333e+05 -3.333333333333e+04 1.308586488786e-10 -2.970553755197e-12 -2.724098981429e-20 -4.282219948678e-19 -5.000000000000e-04 -6.457516204040e-20 0.000000000000e+00 
5  6  7  8  1  2  3  4  
VARIABLES  = "X","Y","Z", "DISPLACEMENT_X1", "DISPLACEMENT_Y1", "STRESS_XX", "STRESS_XY", "STRESS_YY", "STRESS_ZZ", "STRESS_YZ", "STRESS_XZ", "STRAIN_XX", "STRAIN_XY", "STRAIN_YY", "STRAIN_ZZ", "STRAIN_PLS"
ZONE T="1.000000000000e+02s", N=8, E=1, F=FEPOINT, ET=BRICK
STRANDID=1, SOLUTIONTIME=1.000000000000e+02
0.000000000000e+00 0.000000000000e+00 0.000000000000e+00 0.000000000000e+00 0.000000000000e+00 -6.666666666667e+04 5.478323405694e-12 -4.666666666667e+05 -6.666666666667e+04 3.156405571770e-11 -2.825552013791e-12 1.067173380730e-20 2.739161702847e-20 -1.000000000000e-03 1.130512593045e-19 0.000000000000e+00 
1.000000000000e+00 0.000000000000e+00 0.000000000000e+00 0.000000000000e+00 0.000000000000e+00 -6.666666666667e+04 1.147202250114e-12 -4.666666666667e+05 -6.666666666667e+04 -2.581195334370e-11 -2.825552013791e-12 -1.067173380730e-20 5.736011250570e-21 -1.000000000000e-03 -1.628497102923e-20 0.000000000000e+00 
1.000000000000e+00 1.000000000000e+00 0.000000000000e+00 0.000000000000e+00 -1.000000000000e-03 -6.666666666667e+04 -2.283899676271e-11 -4.666666666667e+05 -6.666666666667e+04 7.533287611245e-11 -2.124678330254e-12 -5.421010862428e-20 -1.141949838136e-19 -1.000000000000e-03 4.999211298099e-21 0.000000000000e+00 
0.000000000000e+00 1.000000000000e+00 0.000000000000e+00 0.000000000000e+00 -1.000000000000e-03 -6.666666666667e+04 -5.665094204937e-11 -4.666666666667e+05 -6.666666666667e+04 -1.553893256064e-10 -2.124678330254e-12 5.421010862428e-20 -2.832547102468e-19 -1.000000000000e-03 -4.329798303082e-20 0.000000000000e+00 
0.000000000000e+00 0.000000000000e+00 1.000000000000e+00 0.000000000000e+00 0.000000000000e+00 -6.666666666667e+04 5.446586912424e-12 -4.666666666667e+05 -6.666666666667e+04 3.421671839911e-11 -2.825552013791e-12 -1.269636548506e-21 2.723293456212e-20 -1.000000000000e-03 -1.130512593045e-19 0.000000000000e+00 
1.000000000000e+00 0.000000000000e+00 1.000000000000e+00 0.000000000000e+00 0.000000000000e+00 -6.666666666667e+04 -1.495157642520e-11 -4.666666666667e+05 -6.666666666667e+04 -5.128671352367e-11 -2.825552013791e-12 1.269636548506e-21 -7.475788212599e-20 -1.000000000000e-03 1.628497102923e-20 0.000000000000e+00 
1.000000000000e+00 1.000000000000e+00 1.000000000000e+00 0.000000000000e+00 -1.000000000000e-03 -6.666666666667e+04 1.352420835648e-10 -4.666666666667e+05 -6.666666666667e+04 1.864057560424e-10 -2.124678330254e-12 1.003210022173e-19 6.762104178241e-19 -1.000000000000e-03 -4.999211298099e-21 0.000000000000e+00 
0.000000000000e+00 1.000000000000e+00 1.000000000000e+00 0.000000000000e+00 -1.000000000000e-03 -6.666666666667e+04 -1.653586562911e-10 -4.666666666667e+05 -6.666666666667e+04 1.150327571212e-10 -2.124678330254e-12 -1.003210022173e-19 -8.267932814557e-19 -1.000000000000e-03 4.329798303082e-20 0.000000000000e+00 
5  6  7  8  1  2  3  4  
VARIABLES  = "X","Y","Z", "DISPLACEMENT_X1", "DISPLACEMENT_Y1", "STRESS_XX", "STRESS_XY", "STRESS_YY", "STRESS_ZZ", "STRESS_YZ", "STRESS_XZ", "STRAIN_XX", "STRAIN_XY", "STRAIN_YY", "STRAIN_ZZ", "STRAIN_PLS"
ZONE T="1.500000000000e+02s", N=8, E=1, F=FEPOINT, ET=BRICK
STRANDID=1, SOLUTIONTIME=1.500000000000e+02
0.000000000000e+00 0.000000000000e+00 0.000000000000e+00 0.000000000000e+00 0.000000000000e+00 -1.000000000000e+05 5.512180725116e-12 -7.000000000000e+05 -1.000000000000e+05 4.633617060398e-11 5.390962164896e-13 -2.556043100954e-20 2.756090362558e-20 -1.500000000000e-03 1.025111040352e-19 0.000000000000e+00 
1.000000000000e+00 0.000000000000e+00 0.000000000000e+00 0.000000000000e+00 0.000000000000e+00 -1.000000000000e+05 -1.052629764894e-11 -7.000000000000e+05 -1.000000000000e+05 -2.160254771785e-11 5.390962164896e-13 2.556043100954e-20 -5.263148824469e-20 -1.500000000000e-03 5.523833303238e-20 0.000000000000e+00 
1.000000000000e+00 1.000000000000e+00 0.000000000000e+00 0.000000000000e+00 -1.500000000000e-03 -1.000000000000e+05 3.437163062858e-12 -7.000000000000e+05 -1.000000000000e+05 1.200061577131e-10 -5.148821453595e-12 -7.453889935838e-20 1.718581531429e-20 -1.500000000000e-03 -5.281371497402e-20 0.000000000000e+00 
0.000000000000e+00 1.000000000000e+00 0.000000000000e+00 0.000000000000e+00 -1.500000000000e-03 -1.000000000000e+05 -1.523225481300e-10 -7.000000000000e+05 -1.000000000000e+05 -3.052358574755e-10 -5.148821453595e-12 7.453889935838e-20 -7.616127406501e-19 -1.500000000000e-03 -5.540943971218e-21 0.000000000000e+00 
0.000000000000e+00 0.000000000000e+00 1.000000000000e+00 0.000000000000e+00 0.000000000000e+00 -1.000000000000e+05 1.101886590362e-11 -7.000000000000e+05 -1.000000000000e+05 4.025247590742e-11 5.390962164896e-13 4.866715081774e-20 5.509432951808e-20 -1.500000000000e-03 -1.025111040352e-19 0.000000000000e+00 
1.000000000000e+00 0.000000000000e+00 1.000000000000e+00 0.000000000000e+00 0.000000000000e+00 -1.000000000000e+05 -1.730991677344e-11 -7.000000000000e+05 -1.000000000000e+05 -5.401904988658e-11 5.390962164896e-13 -4.866715081774e-20 -8.654958386722e-20 -1.500000000000e-03 -5.523833303238e-20 0.000000000000e+00 
1.000000000000e+00 1.000000000000e+00 1.000000000000e+00 0.000000000000e+00 -1.500000000000e-03 -1.000000000000e+05 2.291724145275e-10 -7.000000000000e+05 -1.000000000000e+05 2.675177707853e-10 -5.148821453595e-12 1.356294023186e-19 1.145862072637e-18 -1.500000000000e-03 5.281371497402e-20 0.000000000000e+00 
0.000000000000e+00 1.000000000000e+00 1.000000000000e+00 0.000000000000e+00 -1.500000000000e-03 -1.000000000000e+05 -2.438094619800e-10 -7.000000000000e+05 -1.000000000000e+05 2.462356853297e-10 -5.148821453595e-12 -1.356294023186e-19 -1.219047309900e-18 -1.500000000000e-03 5.540943971218e-21 0.000000000000e+00 
5  6  7  8  1  2  3  4  
VARIABLES  = "X","Y","Z", "DISPLACEMENT_X1", "DISPLACEMENT_Y1", "STRESS_XX", "STRESS_XY", "STRESS_YY", "STRESS_ZZ", "STRESS_YZ", "STRESS_XZ", "STRAIN_XX", "STRAIN_XY", "STRAIN_YY", "STRAIN_ZZ", "STRAIN_PLS"
ZONE T="2.000000000000e+02s", N=8, E=1, F=FEPOINT, ET=BRICK
STRANDID=1, SOLUTIONTIME=2.000000000000e+02
0.000000000000e+00 0.000000000000e+00 0.000000000000e+00 0.000000000000e+00 0.000000000000e+00 -1.333333333333e+05 7.706730022868e-12 -9.333333333333e+05 -1.333333333333e+05 6.989708681202e-11 2.557970093179e-12 -1.521827559534e-19 3.853365011434e-20 -2.000000000000e-03 1.310492765818e-19 0.000000000000e+00 
1.000000000000e+00 0.000000000000e+00 0.000000000000e+00 0.000000000000e+00 0.000000000000e+00 -1.333333333333e+05 -2.120552139132e-11 -9.333333333333e+05 -1.333333333333e+05 -2.448969956962e-11 2.557970093179e-12 1.521827559534e-19 -1.060276069566e-19 -2.000000000000e-03 1.336418353573e-19 0.000000000000e+00 
1.000000000000e+00 1.000000000000e+00 0.000000000000e+00 0.000000000000e+00 -2.000000000000e-03 -1.333333333333e+05 3.136488407323e-11 -9.333333333333e+05 -1.333333333333e+05 1.574347276015e-10 -6.257842628829e-12 -1.660184576618e-19 1.568244203661e-19 -2.000000000000e-03 -1.255743374334e-19 0.000000000000e+00 
0.000000000000e+00 1.000000000000e+00 0.000000000000e+00 0.000000000000e+00 -2.000000000000e-03 -1.333333333333e+05 -2.464907472605e-10 -9.333333333333e+05 -1.333333333333e+05 -3.920646613435e-10 -6.257842628829e-12 1.660184576618e-19 -1.232453736302e-18 -2.000000000000e-03 -6.895575465468e-20 0.000000000000e+00 
0.000000000000e+00 0.000000000000e+00 1.000000000000e+00 0.000000000000e+00 0.000000000000e+00 -1.333333333333e+05 -4.199470668717e-13 -9.333333333333e+05 -1.333333333333e+05 4.720843245512e-11 2.557970093179e-12 -2.687681006998e-20 -2.099735334359e-21 -2.000000000000e-03 -1.310492765818e-19 0.000000000000e+00 
1.000000000000e+00 0.000000000000e+00 1.000000000000e+00 0.000000000000e+00 0.000000000000e+00 -1.333333333333e+05 -2.749617674473e-11 -9.333333333333e+05 -1.333333333333e+05 -7.188351829922e-11 2.557970093179e-12 2.687681006998e-20 -1.374808837236e-19 -2.000000000000e-03 -1.336418353573e-19 0.000000000000e+00 
1.000000000000e+00 1.000000000000e+00 1.000000000000e+00 0.000000000000e+00 -2.000000000000e-03 -1.333333333333e+05 3.101000317869e-10 -9.333333333333e+05 -1.333333333333e+05 3.515865077417e-10 -6.257842628829e-12 9.025509100090e-20 1.550500158935e-18 -2.000000000000e-03 1.255743374334e-19 0.000000000000e+00 
0.000000000000e+00 1.000000000000e+00 1.000000000000e+00 0.000000000000e+00 -2.000000000000e-03 -1.333333333333e+05 -3.340965655503e-10 -9.333333333333e+05 -1.333333333333e+05 3.691756402390e-10 -6.257842628829e-12 -9.025509100090e-20 -1.670482827751e-18 -2.000000000000e-03 6.895575465468e-20 0.000000000000e+00 
5  6  7  8  1  2  3  4  
VARIABLES  = "X","Y","Z", "DISPLACEMENT_X1", "DISPLACEMENT_Y1", "STRESS_XX", "STRESS_XY", "STRESS_YY", "STRESS_ZZ", "STRESS_YZ", "STRESS_XZ", "STRAIN_XX", "STRAIN_XY", "STRAIN_YY", "STRAIN_ZZ", "STRAIN_PLS"
ZONE T="2.500000000000e+02s", N=8, E=1, F=FEPOINT, ET=BRICK
STRANDID=1, SOLUTIONTIME=2.500000000000e+02
0.000000000000e+00 0.000000000000e+00 0.000000000000e+00 0.000000000000e+00 0.000000000000e+00 -1.666666666667e+05 9.106010722735e-12 -1.166666666667e+06 -1.666666666667e+05 1.017209763193e-10 -3.826736849715e-12 5.714301528715e-20 4.553005361368e-20 -2.500000000000e-03 2.768583636478e-19 0.000000000000e+00 
1.000000000000e+00 0.000000000000e+00 0.000000000000e+00 0.000000000000e+00 0.000000000000e+00 -1.666666666667e+05 -2.808842756226e-11 -1.166666666667e+06 -1.666666666667e+05 -3.644314315722e-11 -3.826736849715e-12 -5.714301528715e-20 -1.404421378113e-19 -2.500000000000e-03 1.838809570916e-19 0.000000000000e+00 
1.000000000000e+00 1.000000000000e+00 0.000000000000e+00 0.000000000000e+00 -2.500000000000e-03 -1.666666666667e+05 7.014062316605e-11 -1.166666666667e+06 -1.666666666667e+05 2.031262707892e-10 -2.079162638547e-12 3.388131789017e-21 3.507031158303e-19 -2.500000000000e-03 -1.621030813782e-19 0.000000000000e+00 
0.000000000000e+00 1.000000000000e+00 0.000000000000e+00 0.000000000000e+00 -2.500000000000e-03 -1.666666666667e+05 -3.292277203976e-10 -1.166666666667e+06 -1.666666666667e+05 -5.359309598698e-10 -2.079162638547e-12 -3.388131789017e-21 -1.646138601988e-18 -2.500000000000e-03 -1.875479579304e-19 0.000000000000e+00 
0.000000000000e+00 0.000000000000e+00 1.000000000000e+00 0.000000000000e+00 0.000000000000e+00 -1.666666666667e+05 3.946525287126e-12 -1.166666666667e+06 -1.666666666667e+05 6.126094648042e-11 -3.826736849715e-12 -4.121642064238e-20 1.973262643563e-20 -2.500000000000e-03 -2.768583636478e-19 0.000000000000e+00 
1.000000000000e+00 0.000000000000e+00 1.000000000000e+00 0.000000000000e+00 0.000000000000e+00 -1.666666666667e+05 -2.246035930235e-11 -1.166666666667e+06 -1.666666666667e+05 -8.963110610905e-11 -3.826736849715e-12 4.121642064238e-20 -1.123017965118e-19 -2.500000000000e-03 -1.838809570916e-19 0.000000000000e+00 
1.000000000000e+00 1.000000000000e+00 1.000000000000e+00 0.000000000000e+00 -2.500000000000e-03 -1.666666666667e+05 4.083118256842e-10 -1.166666666667e+06 -1.666666666667e+05 4.427518021757e-10 -2.079162638547e-12 1.327911402686e-19 2.041559128421e-18 -2.500000000000e-03 1.621030813782e-19 0.000000000000e+00 
0.000000000000e+00 1.000000000000e+00 1.000000000000e+00 0.000000000000e+00 -2.500000000000e-03 -1.666666666667e+05 -4.071735696002e-10 -1.166666666667e+06 -1.666666666667e+05 4.352262547245e-10 -2.079162638547e-12 -1.327911402686e-19 -2.035867848001e-18 -2.500000000000e-03 1.875479579304e-19 0.000000000000e+00 
5  6  7  8  1  2  3  4  
VARIABLES  = "X","Y","Z", "DISPLACEMENT_X1", "DISPLACEMENT_Y1", "STRESS_XX", "STRESS_XY", "STRESS_YY", "STRESS_ZZ", "STRESS_YZ", "STRESS_XZ", "STRAIN_XX", "STRAIN_XY", "STRAIN_YY", "STRAIN_ZZ", "STRAIN_PLS"
ZONE T="3.000000000000e+02s", N=8, E=1, F=FEPOINT, ET=BRICK
STRANDID=1, SOLUTIONTIME=3.000000000000e+02
0.000000000000e+00 0.000000000000e+00 0.000000000000e+00 0.000000000000e+00 0.000000000000e+00 -2.000000000000e+05 1.732250276326e-11 -1.400000000000e+06 -2.000000000000e+05 1.042050424189e-10 -2.042508445371e-13 6.730741065420e-20 8.661251381630e-20 -3.000000000000e-03 2.563697234893e-19 0.000000000000e+00 
1.000000000000e+00 0.000000000000e+00 0.000000000000e+00 0.000000000000e+00 0.000000000000e+00 -2.000000000000e+05 -1.751057801994e-11 -1.400000000000e+06 -2.000000000000e+05 -5.383429483623e-11 -2.042508445371e-13 -6.730741065420e-20 -8.755289009968e-20 -3.000000000000e-03 5.690840437611e-20 0.000000000000e+00 
1.000000000000e+00 1.000000000000e+00 0.000000000000e+00 0.000000000000e+00 -3.000000000000e-03 -2.000000000000e+05 8.366654753158e-11 -1.400000000000e+06 -2.000000000000e+05 3.136425455989e-10 -6.713867583617e-12 3.388131789017e-21 4.183327376579e-19 -3.000000000000e-03 -6.778642052985e-20 0.000000000000e+00 
0.000000000000e+00 1.000000000000e+00 0.000000000000e+00 0.000000000000e+00 -3.000000000000e-03 -2.000000000000e+05 -3.635824560390e-10 -1.400000000000e+06 -2.000000000000e+05 -6.842167049005e-10 -6.713867583617e-12 -3.388131789017e-21 -1.817912280195e-18 -3.000000000000e-03 -1.051696676335e-19 0.000000000000e+00 
0.000000000000e+00 0.000000000000e+00 1.000000000000e+00 0.000000000000e+00 0.000000000000e+00 -2.000000000000e+05 1.470221207622e-11 -1.400000000000e+06 -2.000000000000e+05 6.198833207681e-11 -2.042508445371e-13 2.565561875406e-19 7.351106038111e-20 -3.000000000000e-03 -2.563697234893e-19 0.000000000000e+00 
1.000000000000e+00 0.000000000000e+00 1.000000000000e+00 0.000000000000e+00 0.000000000000e+00 -2.000000000000e+05 -2.255163018263e-11 -1.400000000000e+06 -2.000000000000e+05 -9.663473474171e-11 -2.042508445372e-13 -2.565561875406e-19 -1.127581509131e-19 -3.000000000000e-03 -5.690840437611e-20 0.000000000000e+00 
1.000000000000e+00 1.000000000000e+00 1.000000000000e+00 0.000000000000e+00 -3.000000000000e-03 -2.000000000000e+05 5.169858803648e-10 -1.400000000000e+06 -2.000000000000e+05 5.244063421701e-10 -6.713867583617e-12 3.764647580735e-19 2.584929401824e-18 -3.000000000000e-03 6.778642052985e-20 0.000000000000e+00 
0.000000000000e+00 1.000000000000e+00 1.000000000000e+00 0.000000000000e+00 -3.000000000000e-03 -2.000000000000e+05 -4.804318572393e-10 -1.400000000000e+06 -2.000000000000e+05 5.040040718703e-10 -6.713867583617e-12 -3.764647580735e-19 -2.402159286196e-18 -3.000000000000e-03 1.051696676335e-19 0.000000000000e+00 
5  6  7  8  1  2  3  4  
VARIABLES  = "X","Y","Z", "DISPLACEMENT_X1", "DISPLACEMENT_Y1", "STRESS_XX", "STRESS_XY", "STRESS_YY", "STRESS_ZZ", "STRESS_YZ", "STRESS_XZ", "STRAIN_XX", "STRAIN_XY", "STRAIN_YY", "STRAIN_ZZ", "STRAIN_PLS"
ZONE T="3.500000000000e+02s", N=8, E=1, F=FEPOINT, ET=BRICK
STRANDID=1, SOLUTIONTIME=3.500000000000e+02
0.000000000000e+00 0.000000000000e+00 0.000000000000e+00 0.000000000000e+00 0.000000000000e+00 -2.333333333333e+05 1.248360572605e-11 -1.633333333333e+06 -2.333333333333e+05 1.301154874992e-10 1.237726963158e-11 -3.297538923426e-19 6.241802863027e-20 -3.500000000000e-03 3.553818079179e-19 0.000000000000e+00 
1.000000000000e+00 0.000000000000e+00 0.000000000000e+00 0.000000000000e+00 0.000000000000e+00 -2.333333333333e+05 -3.492929188497e-11 -1.633333333333e+06 -2.333333333333e+05 -5.918573533693e-11 1.237726963158e-11 3.297538923426e-19 -1.746464594248e-19 -3.500000000000e-03 3.088616041796e-19 0.000000000000e+00 
1.000000000000e+00 1.000000000000e+00 0.000000000000e+00 0.000000000000e+00 -3.500000000000e-03 -2.333333333333e+05 4.933450547675e-11 -1.633333333333e+06 -2.333333333333e+05 4.155181733214e-10 -2.019826768574e-11 -2.439454888092e-19 2.466725273837e-19 -3.500000000000e-03 -4.685150581309e-19 0.000000000000e+00 
0.000000000000e+00 1.000000000000e+00 0.000000000000e+00 0.000000000000e+00 -3.500000000000e-03 -2.333333333333e+05 -4.567279541719e-10 -1.633333333333e+06 -2.333333333333e+05 -7.794900307603e-10 -2.019826768574e-11 2.439454888092e-19 -2.283639770860e-18 -3.500000000000e-03 -9.633357584437e-20 0.000000000000e+00 
0.000000000000e+00 0.000000000000e+00 1.000000000000e+00 0.000000000000e+00 0.000000000000e+00 -2.333333333333e+05 1.142599127296e-11 -1.633333333333e+06 -2.333333333333e+05 5.057582312107e-11 1.237726963158e-11 3.356297929747e-19 5.712995636480e-20 -3.500000000000e-03 -3.553818079179e-19 0.000000000000e+00 
1.000000000000e+00 0.000000000000e+00 1.000000000000e+00 0.000000000000e+00 0.000000000000e+00 -2.333333333333e+05 -3.477703068819e-11 -1.633333333333e+06 -2.333333333333e+05 -9.611616124809e-11 1.237726963158e-11 -3.356297929747e-19 -1.738851534409e-19 -3.500000000000e-03 -3.088616041796e-19 0.000000000000e+00 
1.000000000000e+00 1.000000000000e+00 1.000000000000e+00 0.000000000000e+00 -3.500000000000e-03 -2.333333333333e+05 6.061892589485e-10 -1.633333333333e+06 -2.333333333333e+05 5.979940339606e-10 -2.019826768574e-11 3.937864131913e-19 3.030946294742e-18 -3.500000000000e-03 4.685150581309e-19 0.000000000000e+00 
0.000000000000e+00 1.000000000000e+00 1.000000000000e+00 0.000000000000e+00 -3.500000000000e-03 -2.333333333333e+05 -5.717721738017e-10 -1.633333333333e+06 -2.333333333333e+05 6.303118172389e-10 -2.019826768574e-11 -3.937864131913e-19 -2.858860869009e-18 -3.500000000000e-03 9.633357584437e-20 0.000000000000e+00 
5  6  7  8  1  2  3  4  
VARIABLES  = "X","Y","Z", "DISPLACEMENT_X1", "DISPLACEMENT_Y1", "STRESS_XX", "STRESS_XY", "STRESS_YY", "STRESS_ZZ", "STRESS_YZ", "STRESS_XZ", "STRAIN_XX", "STRAIN_XY", "STRAIN_YY", "STRAIN_ZZ", "STRAIN_PLS"
ZONE T="4.000000000000e+02s", N=8, E=1, F=FEPOINT, ET=BRICK
STRANDID=1, SOLUTIONTIME=4.000000000000e+02
0.000000000000e+00 0.000000000000e+00 0.000000000000e+00 0.000000000000e+00 0.000000000000e+00 -2.666666666667e+05 1.072924380726e-11 -1.866666666667e+06 -2.666666666667e+05 1.539560149475e-10 8.683451084225e-12 -1.339963588896e-19 5.364621903631e-20 -4.000000000000e-03 4.151706132168e-19 0.000000000000e+00 
1.000000000000e+00 0.000000000000e+00 0.000000000000e+00 0.000000000000e+00 0.000000000000e+00 -2.666666666667e+05 -3.740530814582e-11 -1.866666666667e+06 -2.666666666667e+05 -6.325600023932e-11 8.683451084225e-12 1.339963588896e-19 -1.870265407291e-19 -4.000000000000e-03 4.590352572592e-19 0.000000000000e+00 
1.000000000000e+00 1.000000000000e+00 0.000000000000e+00 0.000000000000e+00 -4.000000000000e-03 -2.666666666667e+05 7.547712114307e-11 -1.866666666667e+06 -2.666666666667e+05 5.253771631029e-10 -2.342077316845e-11 -3.896351557370e-19 3.773856057154e-19 -4.000000000000e-03 -4.965185418372e-19 0.000000000000e+00 
0.000000000000e+00 1.000000000000e+00 0.000000000000e+00 0.000000000000e+00 -4.000000000000e-03 -2.666666666667e+05 -4.982209903633e-10 -1.866666666667e+06 -2.666666666667e+05 -9.386344947447e-10 -2.342077316845e-11 3.896351557370e-19 -2.491104951817e-18 -4.000000000000e-03 -1.555107657772e-19 0.000000000000e+00 
0.000000000000e+00 0.000000000000e+00 1.000000000000e+00 0.000000000000e+00 0.000000000000e+00 -2.666666666667e+05 1.905175577051e-11 -1.866666666667e+06 -2.666666666667e+05 5.647800279761e-11 8.683451084225e-12 2.563115512793e-19 9.525877885254e-20 -4.000000000000e-03 -4.151706132168e-19 0.000000000000e+00 
1.000000000000e+00 0.000000000000e+00 1.000000000000e+00 0.000000000000e+00 0.000000000000e+00 -2.666666666667e+05 -2.276074106120e-11 -1.866666666667e+06 -2.666666666667e+05 -1.058135980830e-10 8.683451084225e-12 -2.563115512793e-19 -1.138037053060e-19 -4.000000000000e-03 -4.590352572592e-19 0.000000000000e+00 
1.000000000000e+00 1.000000000000e+00 1.000000000000e+00 0.000000000000e+00 -4.000000000000e-03 -2.666666666667e+05 6.891458460774e-10 -1.866666666667e+06 -2.666666666667e+05 6.718446397623e-10 -2.342077316845e-11 4.403957266253e-19 3.445729230387e-18 -4.000000000000e-03 4.965185418372e-19 0.000000000000e+00 
0.000000000000e+00 1.000000000000e+00 1.000000000000e+00 0.000000000000e+00 -4.000000000000e-03 -2.666666666667e+05 -5.863497542122e-10 -1.866666666667e+06 -2.666666666667e+05 7.625664014925e-10 -2.342077316845e-11 -4.403957266253e-19 -2.931748771061e-18 -4.000000000000e-03 1.555107657772e-19 0.000000000000e+00 
5  6  7  8  1  2  3  4  
VARIABLES  = "X","Y","Z", "DISPLACEMENT_X1", "DISPLACEMENT_Y1", "STRESS_XX", "STRESS_XY", "STRESS_YY", "STRESS_ZZ", "STRESS_YZ", "STRESS_XZ", "STRAIN_XX", "STRAIN_XY", "STRAIN_YY", "STRAIN_ZZ", "STRAIN_PLS"
ZONE T="4.500000000000e+02s", N=8, E=1, F=FEPOINT, ET=BRICK
STRANDID=1, SOLUTIONTIME=4.500000000000e+02
0.000000000000e+00 0.000000000000e+00 0.000000000000e+00 0.000000000000e+00 0.000000000000e+00 -3.000000000000e+05 -2.015109245442e-11 -2.100000000000e+06 -3.000000000000e+05 1.457050006909e-10 2.055719614289e-11 -1.220857843139e-19 -1.007554622721e-19 -4.500000000000e-03 1.691411321084e-19 0.000000000000e+00 
1.000000000000e+00 0.000000000000e+00 0.000000000000e+00 0.000000000000e+00 0.000000000000e+00 -3.000000000000e+05 -6.162195243491e-11 -2.100000000000e+06 -3.000000000000e+05 -4.245273134092e-11 2.055719614289e-11 1.220857843139e-19 -3.081097621746e-19 -4.500000000000e-03 6.368295788062e-19 0.000000000000e+00 
1.000000000000e+00 1.000000000000e+00 0.000000000000e+00 0.000000000000e+00 -4.500000000000e-03 -3.000000000000e+05 4.354413576837e-11 -2.100000000000e+06 -3.000000000000e+05 6.642238785544e-10 -4.004253103723e-11 -4.404571325722e-19 2.177206788419e-19 -4.500000000000e-03 -6.682622399412e-19 0.000000000000e+00 
0.000000000000e+00 1.000000000000e+00 0.000000000000e+00 0.000000000000e+00 -4.500000000000e-03 -3.000000000000e+05 -5.853755879545e-10 -2.100000000000e+06 -3.000000000000e+05 -1.136841365833e-09 -4.004253103723e-11 4.404571325722e-19 -2.926877939773e-18 -4.500000000000e-03 1.370888567766e-19 0.000000000000e+00 
0.000000000000e+00 0.000000000000e+00 1.000000000000e+00 0.000000000000e+00 0.000000000000e+00 -3.000000000000e+05 6.001975924925e-11 -2.100000000000e+06 -3.000000000000e+05 3.858759221411e-11 2.055719614289e-11 4.380855761327e-19 3.000987962463e-19 -4.500000000000e-03 -1.691411321084e-19 0.000000000000e+00 
1.000000000000e+00 0.000000000000e+00 1.000000000000e+00 0.000000000000e+00 0.000000000000e+00 -3.000000000000e+05 1.935253863358e-14 -2.100000000000e+06 -3.000000000000e+05 -8.254726503441e-11 2.055719614289e-11 -4.380855761327e-19 9.676269316791e-23 -4.500000000000e-03 -6.368295788062e-19 0.000000000000e+00 
1.000000000000e+00 1.000000000000e+00 1.000000000000e+00 0.000000000000e+00 -4.500000000000e-03 -3.000000000000e+05 8.160232496946e-10 -2.100000000000e+06 -3.000000000000e+05 7.378068321585e-10 -4.004253103723e-11 7.563183225714e-19 4.080116248473e-18 -4.500000000000e-03 6.682622399412e-19 0.000000000000e+00 
0.000000000000e+00 1.000000000000e+00 1.000000000000e+00 0.000000000000e+00 -4.500000000000e-03 -3.000000000000e+05 -6.502245364376e-10 -2.100000000000e+06 -3.000000000000e+05 7.170297705342e-10 -4.004253103723e-11 -7.563183225714e-19 -3.251122682188e-18 -4.500000000000e-03 -1.370888567766e-19 0.000000000000e+00 
5  6  7  8  1  2  3  4  
VARIABLES  = "X","Y","Z", "DISPLACEMENT_X1", "DISPLACEMENT_Y1", "STRESS_XX", "STRESS_XY", "STRESS_YY", "STRESS_ZZ", "STRESS_YZ", "STRESS_XZ", "STRAIN_XX", "STRAIN_XY", "STRAIN_YY", "STRAIN_ZZ", "STRAIN_PLS"
ZONE T="5.000000000000e+02s", N=8, E=1, F=FEPOINT, ET=BRICK
STRANDID=1, SOLUTIONTIME=5.000000000000e+02
0.000000000000e+00 0.000000000000e+00 0.000000000000e+00 0.000000000000e+00 0.000000000000e+00 -3.333333333333e+05 1.250957729247e-11 -2.333333333333e+06 -3.333333333333e+05 1.858977444531e-10 7.763746187920e-12 7.661346908307e-20 6.254788646234e-20 -5.000000000000e-03 4.731339313966e-19 0.000000000000e+00 
1.000000000000e+00 0.000000000000e+00 0.000000000000e+00 0.000000000000e+00 0.000000000000e+00 -3.333333333333e+05 -3.712589466381e-11 -2.333333333333e+06 -3.333333333333e+05 -6.824977583347e-11 7.763746187920e-12 -7.661346908307e-20 -1.856294733191e-19 -5.000000000000e-03 6.584091043550e-19 0.000000000000e+00 
1.000000000000e+00 1.000000000000e+00 0.000000000000e+00 0.000000000000e+00 -5.000000000000e-03 -3.333333333333e+05 1.475595839330e-10 -2.333333333333e+06 -3.333333333333e+05 6.601304572039e-10 -2.087844000354e-11 -4.065758146821e-20 7.377979196650e-19 -5.000000000000e-03 -5.938800426665e-19 0.000000000000e+00 
0.000000000000e+00 1.000000000000e+00 0.000000000000e+00 0.000000000000e+00 -5.000000000000e-03 -3.333333333333e+05 -6.256641093526e-10 -2.333333333333e+06 -3.333333333333e+05 -1.085925698515e-09 -2.087844000354e-11 4.065758146821e-20 -3.128320546763e-18 -5.000000000000e-03 -1.722410146942e-19 0.000000000000e+00 