 TITLE = "Time curves in points"
 VARIABLES = "TIME "  "DISPLACEMENT_X1"  "DISPLACEMENT_Y1"  "DISPLACEMENT_Z1"  "STRESS_XX"  "STRESS_XY"  "STRESS_YY"  "STRESS_ZZ"  "STRESS_XZ"  "STRESS_YZ"  "STRAIN_XX"  "STRAIN_XY"  "STRAIN_YY"  "STRAIN_ZZ"  "STRAIN_XZ"  "STRAIN_YZ"  "STRAIN_PLS"  p_(1st_Invariant)  q_(2nd_Invariant)   Effective_Strain
 ZONE T="POINT=POINT9"
0.000000000000e+00 0.000000000000e+00 0.000000000000e+00 0.000000000000e+00 0.000000000000e+00 0.000000000000e+00 0.000000000000e+00 0.000000000000e+00 0.000000000000e+00 0.000000000000e+00 0.000000000000e+00 0.000000000000e+00 0.000000000000e+00 0.000000000000e+00 0.000000000000e+00 0.000000000000e+00 0.000000000000e+00 -0.000000000000e+00 0.000000000000e+00  0.000000000000e+00
5.000000000000e-01 4.156263574470e-06 1.175841227010e-05 -2.996705268426e-05 -8.746319599308e+01 8.021081234632e+00 3.522480286603e+01 -6.376217476839e+02 -2.967410323675e+00 -1.485557891078e+01 7.674779096704e-06 1.122951372849e-06 1.626293901684e-05 -3.083631952166e-05 -4.154374453145e-07 -2.079781047509e-06 0.000000000000e+00 2.299533802703e+02 6.213743825615e+02  4.364490775599e-05
1.000000000000e+00 8.312751334269e-06 2.351672593495e-05 -5.993414824392e-05 -1.749252992992e+02 1.604373016471e+01 7.044912119279e+01 -1.275243571379e+03 -5.934829308200e+00 -2.971116403530e+01 1.534962403876e-05 2.246122223060e-06 3.252583347320e-05 -6.167265500682e-05 -8.308761031481e-07 -4.159562964942e-06 0.000000000000e+00 4.599065831618e+02 1.242748966890e+03  8.728984241315e-05
1.500000000000e+00 1.246943148764e-05 3.527515232879e-05 -8.990120710996e-05 -2.623859466114e+02 2.406748044988e+01 1.056743311530e+02 -1.912864782426e+03 -8.901843164171e+00 -4.456661192051e+01 2.302451169488e-05 3.369447262984e-06 4.878873113839e-05 -9.250900681211e-05 -1.246258042984e-06 -6.239325668871e-06 0.000000000000e+00 6.898587992947e+02 1.864124046910e+03  1.309348173037e-04
2.000000000000e+00 1.662581005860e-05 4.703356155403e-05 -1.198682629713e-04 -3.498473030916e+02 3.208969057834e+01 1.408970066552e+02 -2.550486945594e+03 -1.186944150297e+01 -5.942210045443e+01 3.069943362420e-05 4.492556680967e-06 6.505153530647e-05 -1.233453413510e-04 -1.661721810416e-06 -8.319094063620e-06 0.000000000000e+00 9.198124140101e+02 2.485498149221e+03  1.745797138660e-04
2.500000000000e+00 2.078230720149e-05 5.879191538450e-05 -1.498353407479e-04 -4.373122030212e+02 4.011156359825e+01 1.761239137079e+02 -3.188108733213e+03 -1.483676215565e+01 -7.427769428995e+01 3.837408623904e-05 5.615618903755e-06 8.131461441007e-05 -1.541816708744e-04 -2.077146701790e-06 -1.039887720059e-05 0.000000000000e+00 1.149765674175e+03 3.106873362395e+03  2.182246859393e-04
3.000000000000e+00 2.493877131663e-05 7.055027927031e-05 -1.798024202366e-04 -5.247726784124e+02 4.813484145325e+01 2.113468670351e+02 -3.825730524716e+03 -1.780404408783e+01 -8.913323684551e+01 4.604903923300e-05 6.738877803455e-06 9.757740741432e-05 -1.850180100083e-04 -2.492566172296e-06 -1.247865315837e-05 0.000000000000e+00 1.379718778698e+03 3.728247620559e+03  2.618696018915e-04
3.500000000000e+00 2.909551375735e-05 8.230866333720e-05 -2.097694908245e-04 -6.122350715654e+02 5.615839703792e+01 2.465726668551e+02 -4.463352225914e+03 -2.077125005778e+01 -1.039887043044e+02 5.372383760290e-05 7.862175585309e-06 1.138403792923e-04 -2.158543632015e-04 -2.907975008089e-06 -1.455841860261e-05 0.000000000000e+00 1.609671543541e+03 4.349622956629e+03  3.055145939366e-04
4.000000000000e+00 3.325204024370e-05 9.406700410318e-05 -2.397365748902e-04 -6.996973192210e+02 6.418098964453e+01 2.817973932308e+02 -5.100973992398e+03 -2.373867190253e+01 -1.188442524213e+02 6.139866602230e-05 8.985338550234e-06 1.301032958939e-04 -2.466907011001e-04 -3.323414066355e-06 -1.663819533898e-05 0.000000000000e+00 1.839624639463e+03 4.970997691421e+03  3.491595380874e-04
4.500000000000e+00 3.740838309274e-05 1.058254032701e-04 -2.697036337282e-04 -7.871601795593e+02 7.220235098130e+01 3.170222081053e+02 -5.738595705683e+03 -2.670614761455e+01 -1.336997843987e+02 6.907346097359e-05 1.010832913738e-05 1.463662281101e-04 -2.775270258551e-04 -3.738860666037e-06 -1.871796981582e-05 0.000000000000e+00 2.069577892379e+03 5.592372171687e+03  3.928044544204e-04
5.000000000000e+00 4.156497732088e-05 1.175837971664e-04 -2.996707060383e-04 -8.746201544192e+02 8.022630211905e+01 3.522453221964e+02 -6.376217554246e+03 -2.967314502947e+01 -1.485553039217e+02 7.674843692004e-05 1.123168229667e-05 1.626290202831e-04 -3.083633810679e-04 -4.154240304126e-06 -2.079774254904e-05 0.000000000000e+00 2.299530795490e+03 6.213746781437e+03  4.364493991588e-04
5.500000000000e+00 4.572162029557e-05 1.293421241216e-04 -3.296377935183e-04 -9.620837413336e+02 8.824915690214e+01 3.874715877795e+02 -7.013839239843e+03 -3.264062507986e+01 -1.634108384625e+02 8.442316597459e-05 1.235488196630e-05 1.788920390125e-04 -3.391997189211e-04 -4.569687511181e-06 -2.287751738475e-05 0.000000000000e+00 2.529483797799e+03 6.835121971279e+03  4.800943771506e-04
6.000000000000e+00 4.987790550140e-05 1.411005071683e-04 -3.596048604811e-04 -1.049546704133e+03 9.627065541907e+01 4.226961428184e+02 -7.651461019647e+03 -3.560807310640e+01 -1.782664311050e+02 9.209796232993e-05 1.347789175867e-05 1.951549616165e-04 -3.700360397560e-04 -4.985130234897e-06 -2.495730035471e-05 0.000000000000e+00 2.759437193654e+03 7.456496324700e+03  5.237392865743e-04
6.500000000000e+00 5.403464374363e-05 1.528589060396e-04 -3.895719272439e-04 -1.137007920806e+03 1.042946195099e+02 4.579209715033e+02 -8.289082706934e+03 -3.857520422748e+01 -1.931218771966e+02 9.977283866830e-05 1.460124673139e-05 2.114178611300e-04 -4.008723963606e-04 -5.400528591847e-06 -2.703706280753e-05 0.000000000000e+00 2.989389885412e+03 8.077871443314e+03  5.673842662157e-04
7.000000000000e+00 5.819116057670e-05 1.646172821703e-04 -4.195389991165e-04 -1.224470091611e+03 1.123173093262e+02 4.931456969058e+02 -8.926704452240e+03 -4.154253731486e+01 -2.079774043256e+02 1.074476705262e-04 1.572442330567e-05 2.276807757223e-04 -4.317087347179e-04 -5.815955224080e-06 -2.911683660558e-05 0.000000000000e+00 3.219342948982e+03 8.699246184065e+03  6.110292109890e-04
7.500000000000e+00 6.234766149082e-05 1.763756655931e-04 -4.495060689444e-04 -1.311932214446e+03 1.203399489446e+02 5.283705203978e+02 -9.564326127730e+03 -4.450987203187e+01 -2.228329312874e+02 1.151225014244e-04 1.684759285224e-05 2.439436928634e-04 -4.625450725056e-04 -6.231382084462e-06 -3.119661038023e-05 0.000000000000e+00 3.449295940593e+03 9.320620933467e+03  6.546741559613e-04
8.000000000000e+00 6.650418286549e-05 1.881340386706e-04 -4.794731414096e-04 -1.399394434643e+03 1.283626549913e+02 5.635951158333e+02 -1.020194794008e+04 -4.747721462299e+01 -2.376884562463e+02 1.227973347527e-04 1.797077169878e-05 2.602066032860e-04 -4.933814106276e-04 -6.646810047218e-06 -3.327638387448e-05 0.000000000000e+00 3.679249086295e+03 9.941995640614e+03  6.983190985179e-04
8.500000000000e+00 7.066073995731e-05 1.998923973146e-04 -5.094402193624e-04 -1.486856572982e+03 1.363854562965e+02 5.988199094402e+02 -1.083956970768e+04 -5.044450293412e+01 -2.525439951965e+02 1.304721673158e-04 1.909396388151e-05 2.764695210853e-04 -5.242177521134e-04 -7.062230410776e-06 -3.535615932751e-05 0.000000000000e+00 3.909202123742e+03 1.056337046266e+04  7.419640499098e-04
9.000000000000e+00 7.481732952075e-05 2.116507419953e-04 -5.394072953616e-04 -1.574318508404e+03 1.444081940611e+02 6.340445861948e+02 -1.147719150195e+04 -5.341170538180e+01 -2.673995721366e+02 1.381470128949e-04 2.021714716856e-05 2.927324295169e-04 -5.550540966534e-04 -7.477638753453e-06 -3.743594009913e-05 0.000000000000e+00 4.139155141387e+03 1.118474530498e+04  7.856090025132e-04
9.500000000000e+00 7.897389780478e-05 2.234090873671e-04 -5.693743775849e-04 -1.661780875140e+03 1.524310546383e+02 6.692694450399e+02 -1.211481329613e+04 -5.637910374128e+01 -2.822550955531e+02 1.458218332649e-04 2.134034764936e-05 3.089953556775e-04 -5.858904362046e-04 -7.893074523779e-06 -3.951571337744e-05 0.000000000000e+00 4.369108242078e+03 1.180612011914e+04  8.292539539318e-04
1.000000000000e+01 8.313030207242e-05 2.351675193706e-04 -5.993414374964e-04 -1.749242888388e+03 1.604535684761e+02 7.044939478875e+02 -1.275243495288e+04 -5.934648329589e+01 -2.971105784606e+02 1.534966756805e-04 2.246349958665e-05 3.252582542198e-04 -6.167267688342e-04 -8.308507661425e-06 -4.159548098449e-05 0.000000000000e+00 4.599061297795e+03 1.242749467515e+04  8.728988838662e-04
