VARIABLES  = "X","Y","Z", "DISPLACEMENT_X1", "DISPLACEMENT_Y1", "STRESS_XX", "STRESS_XY", "STRESS_YY", "STRESS_ZZ", "STRAIN_XX", "STRAIN_XY", "STRAIN_YY", "STRAIN_ZZ", "STRAIN_PLS"
ZONE T="0.000000000000e+00s", N=50, E=36, F=FEPOINT, ET=QUADRILATERAL
STRANDID=1, SOLUTIONTIME=0.000000000000e+00
0.000000000000e+00 0.000000000000e+00 0.000000000000e+00 0.000000000000e+00 0.000000000000e+00 -5.000000000000e+01 0.000000000000e+00 -5.000000000000e+01 -5.000000000000e+01 0.000000000000e+00 0.000000000000e+00 0.000000000000e+00 0.000000000000e+00 0.000000000000e+00 
5.000000000000e-01 0.000000000000e+00 0.000000000000e+00 0.000000000000e+00 0.000000000000e+00 -5.000000000000e+01 0.000000000000e+00 -5.000000000000e+01 -5.000000000000e+01 0.000000000000e+00 0.000000000000e+00 0.000000000000e+00 0.000000000000e+00 0.000000000000e+00 
5.000000000000e-01 1.000000000000e+00 0.000000000000e+00 0.000000000000e+00 0.000000000000e+00 -5.000000000000e+01 0.000000000000e+00 -5.000000000000e+01 -5.000000000000e+01 0.000000000000e+00 0.000000000000e+00 0.000000000000e+00 0.000000000000e+00 0.000000000000e+00 
0.000000000000e+00 1.000000000000e+00 0.000000000000e+00 0.000000000000e+00 0.000000000000e+00 -5.000000000000e+01 0.000000000000e+00 -5.000000000000e+01 -5.000000000000e+01 0.000000000000e+00 0.000000000000e+00 0.000000000000e+00 0.000000000000e+00 0.000000000000e+00 
1.250000000000e-01 0.000000000000e+00 0.000000000000e+00 0.000000000000e+00 0.000000000000e+00 -5.000000000000e+01 0.000000000000e+00 -5.000000000000e+01 -5.000000000000e+01 0.000000000000e+00 0.000000000000e+00 0.000000000000e+00 0.000000000000e+00 0.000000000000e+00 
2.500000000000e-01 0.000000000000e+00 0.000000000000e+00 0.000000000000e+00 0.000000000000e+00 -5.000000000000e+01 0.000000000000e+00 -5.000000000000e+01 -5.000000000000e+01 0.000000000000e+00 0.000000000000e+00 0.000000000000e+00 0.000000000000e+00 0.000000000000e+00 
3.750000000000e-01 0.000000000000e+00 0.000000000000e+00 0.000000000000e+00 0.000000000000e+00 -5.000000000000e+01 0.000000000000e+00 -5.000000000000e+01 -5.000000000000e+01 0.000000000000e+00 0.000000000000e+00 0.000000000000e+00 0.000000000000e+00 0.000000000000e+00 
5.000000000000e-01 1.111111111111e-01 0.000000000000e+00 0.000000000000e+00 0.000000000000e+00 -5.000000000000e+01 0.000000000000e+00 -5.000000000000e+01 -5.000000000000e+01 0.000000000000e+00 0.000000000000e+00 0.000000000000e+00 0.000000000000e+00 0.000000000000e+00 
5.000000000000e-01 2.222222222222e-01 0.000000000000e+00 0.000000000000e+00 0.000000000000e+00 -5.000000000000e+01 0.000000000000e+00 -5.000000000000e+01 -5.000000000000e+01 0.000000000000e+00 0.000000000000e+00 0.000000000000e+00 0.000000000000e+00 0.000000000000e+00 
5.000000000000e-01 3.333333333333e-01 0.000000000000e+00 0.000000000000e+00 0.000000000000e+00 -5.000000000000e+01 0.000000000000e+00 -5.000000000000e+01 -5.000000000000e+01 0.000000000000e+00 0.000000000000e+00 0.000000000000e+00 0.000000000000e+00 0.000000000000e+00 
5.000000000000e-01 4.444444444444e-01 0.000000000000e+00 0.000000000000e+00 0.000000000000e+00 -5.000000000000e+01 0.000000000000e+00 -5.000000000000e+01 -5.000000000000e+01 0.000000000000e+00 0.000000000000e+00 0.000000000000e+00 0.000000000000e+00 0.000000000000e+00 
5.000000000000e-01 5.555555555555e-01 0.000000000000e+00 0.000000000000e+00 0.000000000000e+00 -5.000000000000e+01 0.000000000000e+00 -5.000000000000e+01 -5.000000000000e+01 0.000000000000e+00 0.000000000000e+00 0.000000000000e+00 0.000000000000e+00 0.000000000000e+00 
5.000000000000e-01 6.666666666667e-01 0.000000000000e+00 0.000000000000e+00 0.000000000000e+00 -5.000000000000e+01 0.000000000000e+00 -5.000000000000e+01 -5.000000000000e+01 0.000000000000e+00 0.000000000000e+00 0.000000000000e+00 0.000000000000e+00 0.000000000000e+00 
5.000000000000e-01 7.777777777778e-01 0.000000000000e+00 0.000000000000e+00 0.000000000000e+00 -5.000000000000e+01 0.000000000000e+00 -5.000000000000e+01 -5.000000000000e+01 0.000000000000e+00 0.000000000000e+00 0.000000000000e+00 0.000000000000e+00 0.000000000000e+00 
5.000000000000e-01 8.888888888889e-01 0.000000000000e+00 0.000000000000e+00 0.000000000000e+00 -5.000000000000e+01 0.000000000000e+00 -5.000000000000e+01 -5.000000000000e+01 0.000000000000e+00 0.000000000000e+00 0.000000000000e+00 0.000000000000e+00 0.000000000000e+00 
3.750000000000e-01 1.000000000000e+00 0.000000000000e+00 0.000000000000e+00 0.000000000000e+00 -5.000000000000e+01 0.000000000000e+00 -5.000000000000e+01 -5.000000000000e+01 0.000000000000e+00 0.000000000000e+00 0.000000000000e+00 0.000000000000e+00 0.000000000000e+00 
2.500000000000e-01 1.000000000000e+00 0.000000000000e+00 0.000000000000e+00 0.000000000000e+00 -5.000000000000e+01 0.000000000000e+00 -5.000000000000e+01 -5.000000000000e+01 0.000000000000e+00 0.000000000000e+00 0.000000000000e+00 0.000000000000e+00 0.000000000000e+00 
1.250000000000e-01 1.000000000000e+00 0.000000000000e+00 0.000000000000e+00 0.000000000000e+00 -5.000000000000e+01 0.000000000000e+00 -5.000000000000e+01 -5.000000000000e+01 0.000000000000e+00 0.000000000000e+00 0.000000000000e+00 0.000000000000e+00 0.000000000000e+00 
0.000000000000e+00 8.888888888889e-01 0.000000000000e+00 0.000000000000e+00 0.000000000000e+00 -5.000000000000e+01 0.000000000000e+00 -5.000000000000e+01 -5.000000000000e+01 0.000000000000e+00 0.000000000000e+00 0.000000000000e+00 0.000000000000e+00 0.000000000000e+00 
0.000000000000e+00 7.777777777778e-01 0.000000000000e+00 0.000000000000e+00 0.000000000000e+00 -5.000000000000e+01 0.000000000000e+00 -5.000000000000e+01 -5.000000000000e+01 0.000000000000e+00 0.000000000000e+00 0.000000000000e+00 0.000000000000e+00 0.000000000000e+00 
0.000000000000e+00 6.666666666667e-01 0.000000000000e+00 0.000000000000e+00 0.000000000000e+00 -5.000000000000e+01 0.000000000000e+00 -5.000000000000e+01 -5.000000000000e+01 0.000000000000e+00 0.000000000000e+00 0.000000000000e+00 0.000000000000e+00 0.000000000000e+00 
0.000000000000e+00 5.555555555556e-01 0.000000000000e+00 0.000000000000e+00 0.000000000000e+00 -5.000000000000e+01 0.000000000000e+00 -5.000000000000e+01 -5.000000000000e+01 0.000000000000e+00 0.000000000000e+00 0.000000000000e+00 0.000000000000e+00 0.000000000000e+00 
0.000000000000e+00 4.444444444445e-01 0.000000000000e+00 0.000000000000e+00 0.000000000000e+00 -5.000000000000e+01 0.000000000000e+00 -5.000000000000e+01 -5.000000000000e+01 0.000000000000e+00 0.000000000000e+00 0.000000000000e+00 0.000000000000e+00 0.000000000000e+00 
0.000000000000e+00 3.333333333333e-01 0.000000000000e+00 0.000000000000e+00 0.000000000000e+00 -5.000000000000e+01 0.000000000000e+00 -5.000000000000e+01 -5.000000000000e+01 0.000000000000e+00 0.000000000000e+00 0.000000000000e+00 0.000000000000e+00 0.000000000000e+00 
0.000000000000e+00 2.222222222222e-01 0.000000000000e+00 0.000000000000e+00 0.000000000000e+00 -5.000000000000e+01 0.000000000000e+00 -5.000000000000e+01 -5.000000000000e+01 0.000000000000e+00 0.000000000000e+00 0.000000000000e+00 0.000000000000e+00 0.000000000000e+00 
0.000000000000e+00 1.111111111111e-01 0.000000000000e+00 0.000000000000e+00 0.000000000000e+00 -5.000000000000e+01 0.000000000000e+00 -5.000000000000e+01 -5.000000000000e+01 0.000000000000e+00 0.000000000000e+00 0.000000000000e+00 0.000000000000e+00 0.000000000000e+00 
1.250000000000e-01 8.888888888889e-01 0.000000000000e+00 0.000000000000e+00 0.000000000000e+00 -5.000000000000e+01 0.000000000000e+00 -5.000000000000e+01 -5.000000000000e+01 0.000000000000e+00 0.000000000000e+00 0.000000000000e+00 0.000000000000e+00 0.000000000000e+00 
2.500000000000e-01 8.888888888889e-01 0.000000000000e+00 0.000000000000e+00 0.000000000000e+00 -5.000000000000e+01 0.000000000000e+00 -5.000000000000e+01 -5.000000000000e+01 0.000000000000e+00 0.000000000000e+00 0.000000000000e+00 0.000000000000e+00 0.000000000000e+00 
3.750000000000e-01 8.888888888889e-01 0.000000000000e+00 0.000000000000e+00 0.000000000000e+00 -5.000000000000e+01 0.000000000000e+00 -5.000000000000e+01 -5.000000000000e+01 0.000000000000e+00 0.000000000000e+00 0.000000000000e+00 0.000000000000e+00 0.000000000000e+00 
1.250000000000e-01 7.777777777778e-01 0.000000000000e+00 0.000000000000e+00 0.000000000000e+00 -5.000000000000e+01 0.000000000000e+00 -5.000000000000e+01 -5.000000000000e+01 0.000000000000e+00 0.000000000000e+00 0.000000000000e+00 0.000000000000e+00 0.000000000000e+00 
2.500000000000e-01 7.777777777778e-01 0.000000000000e+00 0.000000000000e+00 0.000000000000e+00 -5.000000000000e+01 0.000000000000e+00 -5.000000000000e+01 -5.000000000000e+01 0.000000000000e+00 0.000000000000e+00 0.000000000000e+00 0.000000000000e+00 0.000000000000e+00 
3.750000000000e-01 7.777777777778e-01 0.000000000000e+00 0.000000000000e+00 0.000000000000e+00 -5.000000000000e+01 0.000000000000e+00 -5.000000000000e+01 -5.000000000000e+01 0.000000000000e+00 0.000000000000e+00 0.000000000000e+00 0.000000000000e+00 0.000000000000e+00 
1.250000000000e-01 6.666666666667e-01 0.000000000000e+00 0.000000000000e+00 0.000000000000e+00 -5.000000000000e+01 0.000000000000e+00 -5.000000000000e+01 -5.000000000000e+01 0.000000000000e+00 0.000000000000e+00 0.000000000000e+00 0.000000000000e+00 0.000000000000e+00 
2.500000000000e-01 6.666666666667e-01 0.000000000000e+00 0.000000000000e+00 0.000000000000e+00 -5.000000000000e+01 0.000000000000e+00 -5.000000000000e+01 -5.000000000000e+01 0.000000000000e+00 0.000000000000e+00 0.000000000000e+00 0.000000000000e+00 0.000000000000e+00 
3.750000000000e-01 6.666666666667e-01 0.000000000000e+00 0.000000000000e+00 0.000000000000e+00 -5.000000000000e+01 0.000000000000e+00 -5.000000000000e+01 -5.000000000000e+01 0.000000000000e+00 0.000000000000e+00 0.000000000000e+00 0.000000000000e+00 0.000000000000e+00 
1.250000000000e-01 5.555555555556e-01 0.000000000000e+00 0.000000000000e+00 0.000000000000e+00 -5.000000000000e+01 0.000000000000e+00 -5.000000000000e+01 -5.000000000000e+01 0.000000000000e+00 0.000000000000e+00 0.000000000000e+00 0.000000000000e+00 0.000000000000e+00 
2.500000000000e-01 5.555555555556e-01 0.000000000000e+00 0.000000000000e+00 0.000000000000e+00 -5.000000000000e+01 0.000000000000e+00 -5.000000000000e+01 -5.000000000000e+01 0.000000000000e+00 0.000000000000e+00 0.000000000000e+00 0.000000000000e+00 0.000000000000e+00 
3.750000000000e-01 5.555555555556e-01 0.000000000000e+00 0.000000000000e+00 0.000000000000e+00 -5.000000000000e+01 0.000000000000e+00 -5.000000000000e+01 -5.000000000000e+01 0.000000000000e+00 0.000000000000e+00 0.000000000000e+00 0.000000000000e+00 0.000000000000e+00 
1.250000000000e-01 4.444444444444e-01 0.000000000000e+00 0.000000000000e+00 0.000000000000e+00 -5.000000000000e+01 0.000000000000e+00 -5.000000000000e+01 -5.000000000000e+01 0.000000000000e+00 0.000000000000e+00 0.000000000000e+00 0.000000000000e+00 0.000000000000e+00 
2.500000000000e-01 4.444444444444e-01 0.000000000000e+00 0.000000000000e+00 0.000000000000e+00 -5.000000000000e+01 0.000000000000e+00 -5.000000000000e+01 -5.000000000000e+01 0.000000000000e+00 0.000000000000e+00 0.000000000000e+00 0.000000000000e+00 0.000000000000e+00 
3.750000000000e-01 4.444444444444e-01 0.000000000000e+00 0.000000000000e+00 0.000000000000e+00 -5.000000000000e+01 0.000000000000e+00 -5.000000000000e+01 -5.000000000000e+01 0.000000000000e+00 0.000000000000e+00 0.000000000000e+00 0.000000000000e+00 0.000000000000e+00 
1.250000000000e-01 3.333333333333e-01 0.000000000000e+00 0.000000000000e+00 0.000000000000e+00 -5.000000000000e+01 0.000000000000e+00 -5.000000000000e+01 -5.000000000000e+01 0.000000000000e+00 0.000000000000e+00 0.000000000000e+00 0.000000000000e+00 0.000000000000e+00 
2.500000000000e-01 3.333333333333e-01 0.000000000000e+00 0.000000000000e+00 0.000000000000e+00 -5.000000000000e+01 0.000000000000e+00 -5.000000000000e+01 -5.000000000000e+01 0.000000000000e+00 0.000000000000e+00 0.000000000000e+00 0.000000000000e+00 0.000000000000e+00 
3.750000000000e-01 3.333333333333e-01 0.000000000000e+00 0.000000000000e+00 0.000000000000e+00 -5.000000000000e+01 0.000000000000e+00 -5.000000000000e+01 -5.000000000000e+01 0.000000000000e+00 0.000000000000e+00 0.000000000000e+00 0.000000000000e+00 0.000000000000e+00 
1.250000000000e-01 2.222222222222e-01 0.000000000000e+00 0.000000000000e+00 0.000000000000e+00 -5.000000000000e+01 0.000000000000e+00 -5.000000000000e+01 -5.000000000000e+01 0.000000000000e+00 0.000000000000e+00 0.000000000000e+00 0.000000000000e+00 0.000000000000e+00 
2.500000000000e-01 2.222222222222e-01 0.000000000000e+00 0.000000000000e+00 0.000000000000e+00 -5.000000000000e+01 0.000000000000e+00 -5.000000000000e+01 -5.000000000000e+01 0.000000000000e+00 0.000000000000e+00 0.000000000000e+00 0.000000000000e+00 0.000000000000e+00 
3.750000000000e-01 2.222222222222e-01 0.000000000000e+00 0.000000000000e+00 0.000000000000e+00 -5.000000000000e+01 0.000000000000e+00 -5.000000000000e+01 -5.000000000000e+01 0.000000000000e+00 0.000000000000e+00 0.000000000000e+00 0.000000000000e+00 0.000000000000e+00 
1.250000000000e-01 1.111111111111e-01 0.000000000000e+00 0.000000000000e+00 0.000000000000e+00 -5.000000000000e+01 0.000000000000e+00 -5.000000000000e+01 -5.000000000000e+01 0.000000000000e+00 0.000000000000e+00 0.000000000000e+00 0.000000000000e+00 0.000000000000e+00 
2.500000000000e-01 1.111111111111e-01 0.000000000000e+00 0.000000000000e+00 0.000000000000e+00 -5.000000000000e+01 0.000000000000e+00 -5.000000000000e+01 -5.000000000000e+01 0.000000000000e+00 0.000000000000e+00 0.000000000000e+00 0.000000000000e+00 0.000000000000e+00 
3.750000000000e-01 1.111111111111e-01 0.000000000000e+00 0.000000000000e+00 0.000000000000e+00 -5.000000000000e+01 0.000000000000e+00 -5.000000000000e+01 -5.000000000000e+01 0.000000000000e+00 0.000000000000e+00 0.000000000000e+00 0.000000000000e+00 0.000000000000e+00 
4  19  27  18  
18  27  28  17  
17  28  29  16  
16  29  15  3  
19  20  30  27  
27  30  31  28  
28  31  32  29  
29  32  14  15  
20  21  33  30  
30  33  34  31  
31  34  35  32  
32  35  13  14  
21  22  36  33  
33  36  37  34  
34  37  38  35  
35  38  12  13  
22  23  39  36  
36  39  40  37  
37  40  41  38  
38  41  11  12  
23  24  42  39  
39  42  43  40  
40  43  44  41  
41  44  10  11  
24  25  45  42  
42  45  46  43  
43  46  47  44  
44  47  9  10  
25  26  48  45  
45  48  49  46  
46  49  50  47  
47  50  8  9  
26  1  5  48  
48  5  6  49  
49  6  7  50  
50  7  2  8  
VARIABLES  = "X","Y","Z", "DISPLACEMENT_X1", "DISPLACEMENT_Y1", "STRESS_XX", "STRESS_XY", "STRESS_YY", "STRESS_ZZ", "STRAIN_XX", "STRAIN_XY", "STRAIN_YY", "STRAIN_ZZ", "STRAIN_PLS"
ZONE T="2.000000000000e+00s", N=50, E=36, F=FEPOINT, ET=QUADRILATERAL
STRANDID=1, SOLUTIONTIME=2.000000000000e+00
0.000000000000e+00 0.000000000000e+00 0.000000000000e+00 0.000000000000e+00 0.000000000000e+00 -4.924628626778e+01 8.003965627300e-07 -4.924628626778e+01 -7.538717255054e+01 1.306314236510e-03 7.480403142911e-10 1.306314236510e-03 -1.090914594695e-02 7.684373227779e-03 
5.000000000000e-01 0.000000000000e+00 0.000000000000e+00 6.531502688381e-04 0.000000000000e+00 -4.924632931386e+01 2.310375833418e-06 -4.924632230745e+01 -7.538714579466e+01 1.306297273296e-03 2.159237923750e-09 1.306300547332e-03 -1.090908918700e-02 7.684312633418e-03 
5.000000000000e-01 1.000000000000e+00 0.000000000000e+00 6.531463832576e-04 -1.090909090909e-02 -4.924636180513e+01 9.461893811119e-06 -4.924636202914e+01 -7.538716376700e+01 1.306292678444e-03 8.842932235944e-09 1.306292573765e-03 -1.090909716287e-02 7.684317468331e-03 
0.000000000000e+00 1.000000000000e+00 0.000000000000e+00 0.000000000000e+00 -1.090909090909e-02 -4.924633623166e+01 -1.863937134323e-06 -4.924633623166e+01 -7.538718274371e+01 1.306302871776e-03 -1.742016200703e-09 1.306302871776e-03 -1.090913628431e-02 7.684359094000e-03 
1.250000000000e-01 0.000000000000e+00 0.000000000000e+00 1.632884573112e-04 0.000000000000e+00 -4.924632747826e+01 -2.675836993976e-06 -4.924631286248e+01 -7.538716875412e+01 1.306301162223e-03 -2.500798249153e-09 1.306307992071e-03 -1.090912428149e-02 7.684348437456e-03 
2.500000000000e-01 0.000000000000e+00 0.000000000000e+00 3.265758596713e-04 0.000000000000e+00 -4.924632823963e+01 4.718158089090e-06 -4.924631814388e+01 -7.538715523034e+01 1.306298959989e-03 4.409517003261e-09 1.306303677654e-03 -1.090910375459e-02 7.684327520059e-03 
3.750000000000e-01 0.000000000000e+00 0.000000000000e+00 4.898631609599e-04 0.000000000000e+00 -4.924633893248e+01 2.374528423960e-06 -4.924632745226e+01 -7.538715806103e+01 1.306296505516e-03 2.219197164646e-09 1.306301870135e-03 -1.090910293539e-02 7.684325812645e-03 
5.000000000000e-01 1.111111111111e-01 0.000000000000e+00 6.531501137965e-04 -1.212121768057e-03 -4.924634444407e+01 6.672793697235e-06 -4.924633509265e+01 -7.538716116166e+01 1.306295826987e-03 6.236288400577e-09 1.306300196830e-03 -1.090910414455e-02 7.684326448286e-03 
5.000000000000e-01 2.222222222222e-01 0.000000000000e+00 6.531493695735e-04 -2.424244578742e-03 -4.924633518533e+01 -1.167535662707e-06 -4.924633598011e+01 -7.538715974972e+01 1.306299048199e-03 -1.091160285424e-09 1.306298676804e-03 -1.090910416700e-02 7.684326840555e-03 
5.000000000000e-01 3.333333333333e-01 0.000000000000e+00 6.531482185066e-04 -3.636366731335e-03 -4.924634832297e+01 -3.747192973310e-06 -4.924634448558e+01 -7.538715753233e+01 1.306294699853e-03 -3.502066954128e-09 1.306296493034e-03 -1.090909583329e-02 7.684317500870e-03 
5.000000000000e-01 4.444444444444e-01 0.000000000000e+00 6.531468606190e-04 -4.848487742392e-03 -4.924634216379e+01 -4.284683026877e-07 -4.924634603417e+01 -7.538714874728e+01 1.306295513251e-03 -4.004386470991e-10 1.306293704654e-03 -1.090908455243e-02 7.684306355682e-03 
5.000000000000e-01 5.555555555555e-01 0.000000000000e+00 6.531461167716e-04 -6.060608717636e-03 -4.924633450536e+01 6.169661430372e-06 -4.924634896227e+01 -7.538715030077e+01 1.306298894927e-03 5.766061790028e-09 1.306292139333e-03 -1.090908788130e-02 7.684309913498e-03 
5.000000000000e-01 6.666666666667e-01 0.000000000000e+00 6.531462253563e-04 -7.272729711968e-03 -4.924635320423e+01 5.248134341552e-06 -4.924635688511e+01 -7.538715773979e+01 1.306294208347e-03 4.904821043419e-09 1.306292488301e-03 -1.090909196886e-02 7.684312850028e-03 
5.000000000000e-01 7.777777777778e-01 0.000000000000e+00 6.531465190964e-04 -8.484850178442e-03 -4.924635985892e+01 -7.452834550436e-06 -4.924635425051e+01 -7.538715230780e+01 1.306290518497e-03 -6.965295901238e-09 1.306293139261e-03 -1.090908334081e-02 7.684303992487e-03 
5.000000000000e-01 8.888888888889e-01 0.000000000000e+00 6.531466014867e-04 -9.696970398447e-03 -4.924634583817e+01 -1.306298751686e-05 -4.924634479311e+01 -7.538714105524e+01 1.306292644286e-03 -1.220844303116e-08 1.306293132638e-03 -1.090907311864e-02 7.684294745576e-03 
3.750000000000e-01 1.000000000000e+00 0.000000000000e+00 4.898596933078e-04 -1.090909090909e-02 -4.924636066762e+01 -3.321611534107e-06 -4.924635958588e+01 -7.538715876272e+01 1.306291937097e-03 -3.104324699671e-09 1.306292442588e-03 -1.090909096648e-02 7.684311392756e-03 
2.500000000000e-01 1.000000000000e+00 0.000000000000e+00 3.265734998330e-04 -1.090909090909e-02 -4.924636837863e+01 3.751504129429e-07 -4.924635606370e+01 -7.538715551858e+01 1.306288168554e-03 3.506097802044e-10 1.306293923218e-03 -1.090908538347e-02 7.684305591138e-03 
1.250000000000e-01 1.000000000000e+00 0.000000000000e+00 1.632871794241e-04 -1.090909090909e-02 -4.924635874471e+01 8.523639387884e-07 -4.924634775274e+01 -7.538716400249e+01 1.306292393945e-03 7.966061850779e-10 1.306297530407e-03 -1.090910166549e-02 7.684322763683e-03 
0.000000000000e+00 8.888888888889e-01 0.000000000000e+00 0.000000000000e+00 -9.696966582897e-03 -4.924634851853e+01 -3.258740259779e-05 -4.924634851853e+01 -7.538714533214e+01 1.306292818786e-03 -3.045564235627e-08 1.306292818786e-03 -1.090907760962e-02 7.684298980728e-03 
0.000000000000e+00 7.777777777778e-01 0.000000000000e+00 0.000000000000e+00 -8.484849022444e-03 -4.924638310810e+01 2.391152617326e-05 -4.924638310810e+01 -7.538715077037e+01 1.306284656849e-03 2.234729345256e-08 1.306284656849e-03 -1.090906863790e-02 7.684286899965e-03 
0.000000000000e+00 6.666666666667e-01 0.000000000000e+00 0.000000000000e+00 -7.272730738716e-03 -4.924635482324e+01 2.680377259126e-06 -4.924635482324e+01 -7.538714361688e+01 1.306290838976e-03 2.505030889649e-09 1.306290838976e-03 -1.090907215719e-02 7.684292938604e-03 
0.000000000000e+00 5.555555555556e-01 0.000000000000e+00 0.000000000000e+00 -6.060610731380e-03 -4.924633398305e+01 -1.465939704167e-05 -4.924633398305e+01 -7.538714012606e+01 1.306295717578e-03 -1.370041825335e-08 1.306295717578e-03 -1.090907726045e-02 7.684299913237e-03 
0.000000000000e+00 4.444444444445e-01 0.000000000000e+00 0.000000000000e+00 -4.848489796909e-03 -4.924632952451e+01 2.337969088245e-06 -4.924632952451e+01 -7.538713596426e+01 1.306296140363e-03 2.185019510949e-09 1.306296140363e-03 -1.090907353592e-02 7.684296560056e-03 
0.000000000000e+00 3.333333333333e-01 0.000000000000e+00 0.000000000000e+00 -3.636368890345e-03 -4.924636825655e+01 9.276906502082e-06 -4.924636825655e+01 -7.538717738295e+01 1.306293424749e-03 8.670059391814e-09 1.306293424749e-03 -1.090911331611e-02 7.684333158950e-03 
0.000000000000e+00 2.222222222222e-01 0.000000000000e+00 0.000000000000e+00 -2.424247620119e-03 -4.924635563775e+01 -1.221198626541e-05 -4.924635563775e+01 -7.538715288449e+01 1.306292308599e-03 -1.141312080230e-08 1.306292308599e-03 -1.090908483587e-02 7.684305621696e-03 
0.000000000000e+00 1.111111111111e-01 0.000000000000e+00 0.000000000000e+00 -1.212126203085e-03 -4.924632596219e+01 1.080604167900e-05 -4.924632596219e+01 -7.538716040030e+01 1.306301525938e-03 1.009916707899e-08 1.306301525938e-03 -1.090910971314e-02 7.684333269802e-03 
1.250000000000e-01 8.888888888889e-01 0.000000000000e+00 1.632868090420e-04 -9.696968990608e-03 -4.924634597928e+01 -7.168257042324e-06 -4.924634752001e+01 -7.538715412893e+01 1.306295246228e-03 -6.699336486363e-09 1.306294526258e-03 -1.090909086715e-02 7.684312474321e-03 
2.500000000000e-01 8.888888888889e-01 0.000000000000e+00 3.265735018443e-04 -9.696970344850e-03 -4.924635083998e+01 2.054961596849e-06 -4.924634862995e+01 -7.538715102964e+01 1.306293016570e-03 1.920532081411e-09 1.306294049299e-03 -1.090908505980e-02 7.684306368323e-03 
3.750000000000e-01 8.888888888889e-01 0.000000000000e+00 4.898600530778e-04 -9.696970453532e-03 -4.924635134885e+01 -6.482377340419e-06 -4.924634728259e+01 -7.538714525726e+01 1.306291644207e-03 -6.058319322889e-09 1.306293544334e-03 -1.090907712045e-02 7.684298418186e-03 
1.250000000000e-01 7.777777777778e-01 0.000000000000e+00 1.632860753586e-04 -8.484848534033e-03 -4.924635151182e+01 -5.385452438598e-06 -4.924636160548e+01 -7.538714773192e+01 1.306293486436e-03 -5.033146680670e-09 1.306288769757e-03 -1.090907712591e-02 7.684297783973e-03 
2.500000000000e-01 7.777777777778e-01 0.000000000000e+00 3.265731712300e-04 -8.484849414778e-03 -4.924633684157e+01 -8.235136620746e-06 -4.924634872211e+01 -7.538715188647e+01 1.306298304036e-03 -7.696423111741e-09 1.306292752357e-03 -1.090908961347e-02 7.684311563535e-03 
3.750000000000e-01 7.777777777778e-01 0.000000000000e+00 4.898600559705e-04 -8.484850022690e-03 -4.924635401494e+01 1.029241352433e-05 -4.924635285685e+01 -7.538715553844e+01 1.306293103082e-03 9.619119763107e-09 1.306293644249e-03 -1.090908963821e-02 7.684310647433e-03 
1.250000000000e-01 6.666666666667e-01 0.000000000000e+00 1.632862830497e-04 -7.272730055563e-03 -4.924635457373e+01 1.438500010303e-05 -4.924635253445e+01 -7.538713512610e+01 1.306289154417e-03 1.344396382502e-08 1.306290107352e-03 -1.090906079288e-02 7.684281617956e-03 
2.500000000000e-01 6.666666666667e-01 0.000000000000e+00 3.265725528791e-04 -7.272728916444e-03 -4.924635873885e+01 3.264145698787e-06 -4.924636186523e+01 -7.538715079462e+01 1.306291425121e-03 3.050615739859e-09 1.306289964188e-03 -1.090907964438e-02 7.684299986987e-03 
3.750000000000e-01 6.666666666667e-01 0.000000000000e+00 4.898592954014e-04 -7.272729442005e-03 -4.924634138344e+01 1.981594163488e-06 -4.924635254661e+01 -7.538714953683e+01 1.306296602524e-03 1.851964478208e-09 1.306291386067e-03 -1.090908428708e-02 7.684305835593e-03 
1.250000000000e-01 5.555555555556e-01 0.000000000000e+00 1.632867102148e-04 -6.060610369900e-03 -4.924635800290e+01 3.104823675444e-06 -4.924635454345e+01 -7.538715566857e+01 1.306291838430e-03 2.901718456635e-09 1.306293455002e-03 -1.090908845667e-02 7.684309208186e-03 
2.500000000000e-01 5.555555555556e-01 0.000000000000e+00 3.265729470624e-04 -6.060609635076e-03 -4.924636854529e+01 2.758467812193e-06 -4.924635853995e+01 -7.538714779698e+01 1.306286954595e-03 2.578016764099e-09 1.306291630005e-03 -1.090907385758e-02 7.684293879128e-03 
3.750000000000e-01 5.555555555556e-01 0.000000000000e+00 4.898591164400e-04 -6.060608887562e-03 -4.924635442619e+01 -1.005304592956e-05 -4.924635831588e+01 -7.538715059298e+01 1.306292606757e-03 -9.395407264842e-09 1.306290789140e-03 -1.090908125126e-02 7.684301950736e-03 
1.250000000000e-01 4.444444444444e-01 0.000000000000e+00 1.632869015203e-04 -4.848489781681e-03 -4.924634501039e+01 -6.036694687741e-06 -4.924634238807e+01 -7.538714847490e+01 1.306294052490e-03 -5.641793675454e-09 1.306295277875e-03 -1.090908436061e-02 7.684306198008e-03 
2.500000000000e-01 4.444444444444e-01 0.000000000000e+00 3.265736035335e-04 -4.848489924670e-03 -4.924634051890e+01 -3.484446491334e-06 -4.924633969811e+01 -7.538714155530e+01 1.306294165170e-03 -3.256504048029e-09 1.306294548718e-03 -1.090907632911e-02 7.684298435279e-03 
3.750000000000e-01 4.444444444444e-01 0.000000000000e+00 4.898602456055e-04 -4.848488972379e-03 -4.924635295831e+01 -1.881905575484e-06 -4.924634660972e+01 -7.538714565432e+01 1.306291059256e-03 -1.758797931456e-09 1.306294025899e-03 -1.090907745513e-02 7.684298713524e-03 
1.250000000000e-01 3.333333333333e-01 0.000000000000e+00 1.632868653554e-04 -3.636368819935e-03 -4.924634544946e+01 3.514026572860e-06 -4.924634645788e+01 -7.538715428370e+01 1.306295360575e-03 3.284152009469e-09 1.306294889349e-03 -1.090909146838e-02 7.684313149474e-03 
2.500000000000e-01 3.333333333333e-01 0.000000000000e+00 3.265738755683e-04 -3.636368830624e-03 -4.924633955728e+01 -2.471367243837e-06 -4.924634564358e+01 -7.538715928155e+01 1.306298342858e-03 -2.309700715744e-09 1.306295498779e-03 -1.090910013039e-02 7.684322159811e-03 
3.750000000000e-01 3.333333333333e-01 0.000000000000e+00 4.898612096192e-04 -3.636368142704e-03 -4.924633914840e+01 1.196471393479e-05 -4.924634223274e+01 -7.538715896851e+01 1.306298089801e-03 1.118203159619e-08 1.306296648516e-03 -1.090910060775e-02 7.684322808739e-03 
1.250000000000e-01 2.222222222222e-01 0.000000000000e+00 1.632869305910e-04 -2.424247559527e-03 -4.924633436022e+01 8.607378932649e-06 -4.924634180583e+01 -7.538715297490e+01 1.306298708827e-03 8.044316955306e-09 1.306295229552e-03 -1.090909340921e-02 7.684315797146e-03 
2.500000000000e-01 2.222222222222e-01 0.000000000000e+00 3.265743918923e-04 -2.424246525804e-03 -4.924633617891e+01 2.455773395514e-06 -4.924634046268e+01 -7.538716156084e+01 1.306299468334e-03 2.295128189361e-09 1.306297466562e-03 -1.090910540398e-02 7.684327843151e-03 
3.750000000000e-01 2.222222222222e-01 0.000000000000e+00 4.898617775755e-04 -2.424245493561e-03 -4.924633278746e+01 -4.174404077004e-07 -4.924633836110e+01 -7.538716237966e+01 1.306300645189e-03 -3.901336297502e-10 1.306298040671e-03 -1.090910788018e-02 7.684330576848e-03 
1.250000000000e-01 1.111111111111e-01 0.000000000000e+00 1.632876904850e-04 -1.212124829990e-03 -4.924632855206e+01 -3.713141705108e-06 -4.924633008890e+01 -7.538716793751e+01 1.306302367048e-03 -3.470246489255e-09 1.306301648890e-03 -1.090911872750e-02 7.684342041852e-03 
2.500000000000e-01 1.111111111111e-01 0.000000000000e+00 3.265753941391e-04 -1.212123135027e-03 -4.924633246169e+01 3.037469812052e-07 -4.924632947879e+01 -7.538716484629e+01 1.306300312504e-03 2.838776054618e-10 1.306301706391e-03 -1.090911357408e-02 7.684336711678e-03 
3.750000000000e-01 1.111111111111e-01 0.000000000000e+00 4.898628863026e-04 -1.212122642049e-03 -4.924633001903e+01 -8.605394506480e-06 -4.924632634027e+01 -7.538715639033e+01 1.306299350649e-03 -8.042465956153e-09 1.306301069704e-03 -1.090910299083e-02 7.684326311153e-03 
4  19  27  18  
18  27  28  17  
17  28  29  16  
16  29  15  3  
19  20  30  27  
27  30  31  28  
28  31  32  29  
29  32  14  15  
20  21  33  30  
30  33  34  31  
31  34  35  32  
32  35  13  14  
21  22  36  33  
33  36  37  34  
34  37  38  35  
35  38  12  13  
22  23  39  36  
36  39  40  37  
37  40  41  38  
38  41  11  12  
23  24  42  39  
39  42  43  40  
40  43  44  41  
41  44  10  11  
24  25  45  42  
42  45  46  43  
43  46  47  44  
44  47  9  10  
25  26  48  45  
45  48  49  46  
46  49  50  47  
47  50  8  9  
26  1  5  48  
48  5  6  49  
49  6  7  50  
50  7  2  8  
VARIABLES  = "X","Y","Z", "DISPLACEMENT_X1", "DISPLACEMENT_Y1", "STRESS_XX", "STRESS_XY", "STRESS_YY", "STRESS_ZZ", "STRAIN_XX", "STRAIN_XY", "STRAIN_YY", "STRAIN_ZZ", "STRAIN_PLS"
ZONE T="4.000000000000e+00s", N=50, E=36, F=FEPOINT, ET=QUADRILATERAL
STRANDID=1, SOLUTIONTIME=4.000000000000e+00
0.000000000000e+00 0.000000000000e+00 0.000000000000e+00 0.000000000000e+00 0.000000000000e+00 -4.989416071926e+01 7.909001227520e-07 -4.989416071926e+01 -8.321124014763e+01 2.655642478590e-03 1.275799037072e-09 2.655642478590e-03 -2.181821761410e-02 1.886074978446e-02 
5.000000000000e-01 0.000000000000e+00 0.000000000000e+00 1.327816125758e-03 0.000000000000e+00 -4.989415772272e+01 6.193457850223e-07 -4.989415863356e+01 -8.321122471220e+01 2.655630467442e-03 2.064818449377e-09 2.655632242173e-03 -2.181817968581e-02 1.886070452601e-02 