 TITLE = "Time curves in points"
 VARIABLES = "TIME "  "DISPLACEMENT_X1"  "DISPLACEMENT_Y1"  "STRESS_XX"  "STRESS_XY"  "STRESS_YY"  "STRESS_ZZ"  "STRAIN_XX"  "STRAIN_XY"  "STRAIN_YY"  "STRAIN_ZZ"  "STRAIN_PLS"  p_(1st_Invariant)  q_(2nd_Invariant)   Effective_Strain
 ZONE T="POINT=POINT2"
0.000000000000e+00 0.000000000000e+00 0.000000000000e+00 -5.000000000000e+01 0.000000000000e+00 -5.000000000000e+01 -5.000000000000e+01 0.000000000000e+00 0.000000000000e+00 0.000000000000e+00 0.000000000000e+00 0.000000000000e+00 5.000000000000e+01 1.507288760336e-14  0.000000000000e+00
2.000000000000e+00 6.531428043418e-04 -1.090909090909e-02 -4.924636607179e+01 -2.769450751809e-07 -4.924637053392e+01 -7.538714011271e+01 1.306287678322e-03 -2.588278773888e-10 1.306285593209e-03 -1.090906072991e-02 7.684280251969e-03 5.795995890614e+01 2.614077180986e+01  1.221534736568e-02
4.000000000000e+00 1.327814526092e-03 -2.181818181818e-02 -4.989414301467e+01 -5.070978589514e-07 -4.989413864962e+01 -8.321122139665e+01 2.655628403075e-03 -6.684506310741e-10 2.655629113200e-03 -2.181817371257e-02 1.886069542486e-02 6.099983435364e+01 3.331708056450e+01  2.447380247071e-02
6.000000000000e+00 2.326401177929e-03 -3.272727272724e-02 -4.995481073033e+01 9.543248369035e-07 -4.995481240154e+01 -8.974117027585e+01 4.652803042373e-03 3.280746898107e-10 4.652802377681e-03 -3.272727835688e-02 3.083247710455e-02 6.321693113591e+01 3.978635870992e+01  3.738008106691e-02
8.000000000000e+00 3.558061074248e-03 -4.363636363636e-02 -4.998879345184e+01 -1.567445843923e-06 -4.998878774482e+01 -9.540996502507e+01 7.116120313015e-03 -1.248173575347e-09 7.116122264731e-03 -4.363639469568e-02 4.341403222096e-02 6.512918207391e+01 4.542117442675e+01  5.075251598455e-02
1.000000000000e+01 4.976733242127e-03 -5.454545454545e-02 -5.000234840681e+01 -7.477036220842e-07 -5.000234232695e+01 -1.004206900766e+02 9.953463042802e-03 -1.410879515214e-09 9.953466620687e-03 -5.454548557458e-02 5.647558005569e-02 6.680846027010e+01 5.041834470968e+01  6.449895040633e-02
1.200000000000e+01 6.549719909834e-03 -6.545454545509e-02 -5.000754806698e+01 -9.108297545657e-08 -5.000754858332e+01 -1.049017615757e+02 1.309943735818e-02 -1.279140843449e-09 1.309943992356e-02 -6.545457557454e-02 6.992947671714e-02 6.830561940866e+01 5.489421325054e+01  7.855401421541e-02
1.400000000000e+01 8.252860905805e-03 -7.636363636364e-02 -5.000907684421e+01 -1.126485262580e-06 -5.000903899627e+01 -1.089388212799e+02 1.650570568518e-02 -2.079378620534e-09 1.650572216588e-02 -7.636369194537e-02 8.371226301257e-02 6.965231237346e+01 5.892976335968e+01  9.286940587091e-02
1.600000000000e+01 1.006746703857e-02 -8.727272727273e-02 -5.000906046179e+01 3.546476155190e-06 -5.000909704502e+01 -1.125933508287e+02 2.013493562150e-02 7.290692715344e-10 2.013493420856e-02 -8.727276005428e-02 9.777561571159e-02 7.087050277850e+01 6.258427207529e+01  1.074076949693e-01
1.800000000000e+01 1.197872284598e-02 -9.818181818182e-02 -5.000827773956e+01 2.120714620199e-06 -5.000823688685e+01 -1.159117607493e+02 2.395742868084e-02 1.284240940588e-09 2.395744606285e-02 -9.818190918501e-02 1.120817645683e-01 7.197609179190e+01 6.590350343610e+01  1.221393465569e-01
2.000000000000e+01 1.389036085505e-02 -1.090909090909e-01 -5.128475137881e+01 -1.479285226196e-06 -5.128447590268e+01 -1.200694454211e+02 2.778061892579e-02 -2.455600868767e-10 2.778072356302e-02 -1.090917331625e-01 1.264499384783e-01 7.421289090088e+01 6.878483178081e+01  1.368724044069e-01
2.200000000000e+01 1.599681612325e-02 -1.200000000000e-01 -5.001948920017e+01 -2.446528601243e-07 -5.001970311550e+01 -1.218897754316e+02 3.199363239535e-02 -4.164940542339e-11 3.199363285302e-02 -1.200000195966e-01 1.411910016504e-01 7.397632258241e+01 7.187017927396e+01  1.519936522208e-01
2.400000000000e+01 1.807202660810e-02 -1.309090909091e-01 -5.101741102734e+01 2.533620966742e-06 -5.101750503888e+01 -1.253286689718e+02 3.614405711139e-02 1.653209711922e-09 3.614405375896e-02 -1.309090372932e-01 1.559479389910e-01 7.578786167935e+01 7.431121093877e+01  1.670530927284e-01
2.600000000000e+01 2.019862775959e-02 -1.418181818186e-01 -5.159610201488e+01 -1.368514825260e-05 -5.159374220324e+01 -1.283343712462e+02 4.039651237501e-02 -7.584017250290e-09 4.039726383942e-02 -1.418190986190e-01 1.708163399245e-01 7.717473848811e+01 7.673944916436e+01  1.822159867274e-01
2.800000000000e+01 2.249668400990e-02 -1.527272727273e-01 -5.001999642039e+01 -3.979333108060e-06 -5.002106815922e+01 -1.291190045642e+02 4.499323551877e-02 -6.798212500027e-09 4.499337104494e-02 -1.527271130215e-01 1.860391349389e-01 7.638668971460e+01 7.909847227984e+01  1.977204163034e-01
3.000000000000e+01 2.475606154612e-02 -1.636363636364e-01 -5.071981951271e+01 -2.554605568315e-06 -5.072073753226e+01 -1.316886059581e+02 4.951214304564e-02 -7.413161076173e-09 4.951212478992e-02 -1.636357500570e-01 2.012406773822e-01 7.770972100101e+01 8.096832743947e+01  2.131478839748e-01
3.200000000000e+01 2.705163179608e-02 -1.745454545455e-01 -5.111985035039e+01 -5.778747597693e-06 -5.112003286601e+01 -1.339158033689e+02 5.410322946954e-02 -1.031381656801e-08 5.410326504173e-02 -1.745451807449e-01 2.165237621199e-01 7.871856219512e+01 8.279586176090e+01  2.286484280005e-01
3.400000000000e+01 2.938515482543e-02 -1.854545454545e-01 -5.131934902200e+01 -2.037866197601e-06 -5.131941942730e+01 -1.358504883872e+02 5.877027494030e-02 -1.017461922224e-08 5.877031090116e-02 -1.854543409423e-01 2.318957840654e-01 7.949641894549e+01 8.453110416254e+01  2.442246338630e-01
3.600000000000e+01 3.175671773021e-02 -1.963636363636e-01 -5.138785327308e+01 -6.137137282408e-06 -5.138750632788e+01 -1.375338412759e+02 6.351328984158e-02 -1.333482805731e-08 6.351343678998e-02 -1.963643658336e-01 2.473604001263e-01 8.010306695896e+01 8.614616147595e+01  2.598777291494e-01
3.800000000000e+01 3.416469840759e-02 -2.072727272727e-01 -5.137369654116e+01 -8.170840770641e-06 -5.137276838083e+01 -1.390013209397e+02 6.832902296916e-02 -1.670739182231e-08 6.832940208529e-02 -2.072751329094e-01 2.629151386845e-01 8.058259528723e+01 8.762808848239e+01  2.756043454368e-01
4.000000000000e+01 3.660642880604e-02 -2.181818181818e-01 -5.130987109081e+01 -1.729960458745e-05 -5.130783123269e+01 -1.402827555547e+02 7.321200190683e-02 -2.489619663016e-08 7.321286787827e-02 -2.181850676547e-01 2.785529347299e-01 8.096681929275e+01 8.897390441053e+01  2.913975025482e-01
4.200000000000e+01 3.907774877881e-02 -2.290909090909e-01 -5.121856669091e+01 -1.620026926619e-05 -5.122064328716e+01 -1.414066255364e+02 7.815547082299e-02 -3.028676008295e-08 7.815550160306e-02 -2.290903925368e-01 2.942617737394e-01 8.128194517150e+01 9.018702056532e+01  3.072458787498e-01
4.400000000000e+01 4.157800845159e-02 -2.400000000000e-01 -5.111542618559e+01 1.466213101890e-06 -5.111730829154e+01 -1.423920172931e+02 8.315629070423e-02 -2.572716480204e-08 8.315601833476e-02 -2.399981305989e-01 3.100453200425e-01 8.154158392342e+01 9.127565006913e+01  3.231542851184e-01
4.600000000000e+01 4.410440313885e-02 -2.509090909091e-01 -5.100947816997e+01 2.516453025889e-05 -5.101012242558e+01 -1.432586217806e+02 8.820904671676e-02 -1.165498329025e-08 8.820880529135e-02 -2.509085175650e-01 3.258971153237e-01 8.175940745871e+01 9.224882148450e+01  3.391174435691e-01
4.800000000000e+01 4.665335325747e-02 -2.618181818182e-01 -5.090607410165e+01 8.129606732199e-06 -5.090617708723e+01 -1.440223842629e+02 9.330690260270e-02 -1.276866972124e-08 9.330670540688e-02 -2.618180236110e-01 3.418054204292e-01 8.194487848393e+01 9.311625866851e+01  3.551248276159e-01
5.000000000000e+01 4.922298054955e-02 -2.727272727273e-01 -5.080872925911e+01 2.041114734331e-06 -5.080674260624e+01 -1.446958536123e+02 9.844558353935e-02 -1.346337765246e-08 9.844596239157e-02 -2.727284184624e-01 3.577667589856e-01 8.210377515922e+01 9.388811769539e+01  3.711741914280e-01
5.200000000000e+01 5.181020092635e-02 -2.836363636364e-01 -5.071890762351e+01 -7.485188125057e-06 -5.071792001574e+01 -1.452925173512e+02 1.036199710581e-01 -1.816693523870e-08 1.036204032663e-01 -2.836377578477e-01 3.737723825480e-01 8.224311499681e+01 9.457410353542e+01  3.872579450101e-01
5.400000000000e+01 5.441434921496e-02 -2.945454545455e-01 -5.063748789683e+01 -2.857577942527e-05 -5.063204005636e+01 -1.458179506204e+02 1.088268523334e-01 -3.260303293934e-08 1.088287105682e-01 -2.945489884536e-01 3.898219149335e-01 8.236249285785e+01 9.518318676071e+01  4.033767699076e-01
5.600000000000e+01 5.703100719053e-02 -3.054545454444e-01 -5.056409497103e+01 -1.705715743929e-05 -5.056373209209e+01 -1.462878132231e+02 1.140606815669e-01 -3.571503400504e-08 1.140620228168e-01 -3.054561791036e-01 4.059012206136e-01 8.247188009539e+01 9.572389969201e+01  4.195175312970e-01
5.800000000000e+01 5.966190356247e-02 -3.163636363636e-01 -5.049892837023e+01 -3.683300985055e-05 -5.049383836539e+01 -1.467001030152e+02 1.193210981074e-01 -5.254919540525e-08 1.193238289442e-01 -3.163676376546e-01 4.220193040732e-01 8.256428991695e+01 9.620371974843e+01  4.356901011868e-01
6.000000000000e+01 6.230511026671e-02 -3.272727272727e-01 -5.044109174126e+01 -1.073898241430e-05 -5.043328749175e+01 -1.470665642896e+02 1.246059119283e-01 -5.021809178262e-08 1.246102554011e-01 -3.272837903548e-01 4.381727765618e-01 8.264698117419e+01 9.662937490942e+01  4.518918740352e-01
6.200000000000e+01 6.495444114807e-02 -3.381818181818e-01 -5.038949630844e+01 -7.492698305389e-06 -5.039110100395e+01 -1.473976153901e+02 1.299058991741e-01 -5.197846282340e-08 1.299089083420e-01 -3.381890154112e-01 4.543344635889e-01 8.272607090082e+01 9.700731674382e+01  4.680964191766e-01
6.400000000000e+01 6.761371393064e-02 -3.490909090909e-01 -5.034429481469e+01 -1.287068088109e-05 -5.034510665820e+01 -1.476875717896e+02 1.352244904644e-01 -5.747840113461e-08 1.352274544649e-01 -3.490975330121e-01 4.705235232059e-01 8.279232442083e+01 9.734287105571e+01  4.843235054836e-01
6.600000000000e+01 7.028108154173e-02 -3.600000000000e-01 -5.030433011015e+01 -3.130216286773e-05 -5.030207089403e+01 -1.479436141178e+02 1.405585090143e-01 -7.204715271242e-08 1.405621959223e-01 -3.600065587766e-01 4.867332278058e-01 8.285000504067e+01 9.764041363536e+01  5.005669112551e-01
6.800000000000e+01 7.295486060340e-02 -3.709090909092e-01 -5.026899510432e+01 -3.307680443662e-05 -5.026794929485e+01 -1.481729839999e+02 1.459060324059e-01 -8.341280999088e-08 1.459097552655e-01 -3.709149652369e-01 5.029592761835e-01 8.290330946636e+01 9.790451180452e+01  5.168228590827e-01
7.000000000000e+01 7.563401021166e-02 -3.818181818182e-01 -5.023788428731e+01 -2.169190198964e-05 -5.024015524057e+01 -1.483781854870e+02 1.512650776757e-01 -8.801457703961e-08 1.512680494234e-01 -3.818218549495e-01 5.191982810637e-01 8.295207500496e+01 9.813916574277e+01  5.330884185053e-01
7.200000000000e+01 7.831802441551e-02 -3.927272727273e-01 -5.021052648426e+01 -1.359488004920e-05 -5.021585890431e+01 -1.485609312151e+02 1.566343245074e-01 -9.067532902698e-08 1.566360688343e-01 -3.927275173268e-01 5.354489828974e-01 8.299577220122e+01 9.834773862921e+01  5.493627139998e-01
7.400000000000e+01 8.100918300251e-02 -4.036363636364e-01 -5.018648921883e+01 -1.937118088718e-05 -5.018469081216e+01 -1.487180567633e+02 1.620155469139e-01 -9.838043982782e-08 1.620183946038e-01 -4.036395660088e-01 5.517219167609e-01 8.302974559809e+01 9.853246676009e+01  5.656565367730e-01
7.600000000000e+01 8.370519508997e-02 -4.145454545455e-01 -5.016506657493e+01 -1.610930040030e-05 -5.015821879428e+01 -1.488576462944e+02 1.674058850748e-01 -1.029601179703e-07 1.674104336068e-01 -4.145533956626e-01 5.680084472391e-01 8.306031055455e+01 9.869600378801e+01  5.819615550167e-01
7.800000000000e+01 8.640422909507e-02 -4.254545454546e-01 -5.014598085846e+01 -2.988612937296e-05 -5.013821835003e+01 -1.489831115114e+02 1.728025819950e-01 -1.159275140072e-07 1.728085134556e-01 -4.254648669053e-01 5.843009176425e-01 8.308910357331e+01 9.884101213583e+01  5.982704146527e-01
8.000000000000e+01 8.910558294123e-02 -4.363636363636e-01 -5.012918102501e+01 -1.494112490869e-05 -5.012500058923e+01 -1.490971010541e+02 1.782050059787e-01 -1.174707253388e-07 1.782112210596e-01 -4.363740276206e-01 6.005980677454e-01 8.311709422278e+01 9.897001031321e+01  6.145821411634e-01
8.200000000000e+01 9.180923341565e-02 -4.472727272727e-01 -5.011445271082e+01 -1.855276671651e-05 -5.011418393992e+01 -1.491992171957e+02 1.836127026310e-01 -1.243914849497e-07 1.836185200291e-01 -4.472816990377e-01 6.169002579332e-01 8.314261794882e+01 9.908489887061e+01  6.308973103879e-01
8.400000000000e+01 9.451483019763e-02 -4.581818181820e-01 -5.010155729299e+01 -3.802401197174e-06 -5.010571256241e+01 -1.492909808383e+02 1.890250690363e-01 -1.223096982342e-07 1.890297036324e-01 -4.581879333557e-01 6.332066962396e-01 8.316608356455e+01 9.918734597584e+01  6.472153197025e-01
8.600000000000e+01 9.722569290420e-02 -4.690909090909e-01 -5.009021309866e+01 -3.095262684806e-05 -5.008479079643e+01 -1.493651138892e+02 1.944448402350e-01 -1.386216514159e-07 1.944514479680e-01 -4.691015404319e-01 6.495308679094e-01 8.318003926143e+01 9.927761205273e+01  6.635496845581e-01
8.800000000000e+01 9.993541693629e-02 -4.800000000000e-01 -5.007994578737e+01 7.885547457327e-06 -5.008300115974e+01 -1.494398992637e+02 1.998657376814e-01 -1.272610284478e-07 1.998708864186e-01 -4.800073200916e-01 6.658476905828e-01 8.320094873692e+01 9.935842582533e+01  6.798756321562e-01
9.000000000000e+01 1.026478977966e-01 -4.909090909091e-01 -5.007103672656e+01 1.518465651707e-06 -5.007389307456e+01 -1.495027261706e+02 2.052911439194e-01 -1.281999676895e-07 2.052958461491e-01 -4.909154448084e-01 6.821728886311e-01 8.321588532390e+01 9.943026130081e+01  6.962089398546e-01
9.200000000000e+01 1.053633470820e-01 -5.018181818182e-01 -5.006312430611e+01 5.106502511338e-06 -5.006136958569e+01 -1.495559518818e+02 2.107212418807e-01 -1.257132048236e-07 2.107267526968e-01 -5.018272050310e-01 6.985079896937e-01 8.322681525788e+01 9.949370494754e+01  7.125512023358e-01
9.400000000000e+01 1.080786363247e-01 -5.127272727251e-01 -5.005595299568e+01 3.468123733033e-06 -5.005776819143e+01 -1.496071935187e+02 2.161525174026e-01 -1.249451166238e-07 2.161573274871e-01 -5.127347516322e-01 7.148400698942e-01 8.324030490194e+01 9.955033293758e+01  7.288896740890e-01
9.600000000000e+01 1.107942442170e-01 -5.236363636364e-01 -5.004973240544e+01 1.841057808028e-05 -5.005659685995e+01 -1.496542674476e+02 2.215854149873e-01 -1.155352718538e-07 2.215885296832e-01 -5.236399331048e-01 7.311715715927e-01 8.325353223768e+01 9.960110299236e+01  7.452269054450e-01
9.800000000000e+01 1.135114110189e-01 -5.345454545455e-01 -5.004428520687e+01 7.404304582635e-06 -5.005068395048e+01 -1.496936986490e+02 2.270207369525e-01 -1.155916935076e-07 2.270228552201e-01 -5.345458200761e-01 7.475071918579e-01 8.326288926878e+01 9.964621422439e+01  7.615676161646e-01
1.000000000000e+02 1.162321396231e-01 -5.454545454545e-01 -5.003942766491e+01 2.144543793330e-05 -5.003827539916e+01 -1.497245168137e+02 2.324611582338e-01 -1.053882352253e-07 2.324643175008e-01 -5.454590014997e-01 7.638568636162e-01 8.326740662592e+01 9.968566528664e+01  7.779217393718e-01
