VARIABLES  = "X","Y","Z", "DISPLACEMENT_X1", "DISPLACEMENT_Y1", "STRESS_XX", "STRESS_XY", "STRESS_YY", "STRESS_ZZ", "STRAIN_XX", "STRAIN_XY", "STRAIN_YY", "STRAIN_ZZ", "STRAIN_PLS"
ZONE T="0.000000000000e+00s", N=69, E=110, F=FEPOINT, ET=QUADRILATERAL
STRANDID=1, SOLUTIONTIME=0.000000000000e+00
0.000000000000e+00 0.000000000000e+00 0.000000000000e+00 0.000000000000e+00 0.000000000000e+00 -5.000000000000e+01 0.000000000000e+00 -5.000000000000e+01 -5.000000000000e+01 0.000000000000e+00 0.000000000000e+00 0.000000000000e+00 0.000000000000e+00 0.000000000000e+00 
5.000000000000e-01 0.000000000000e+00 0.000000000000e+00 0.000000000000e+00 0.000000000000e+00 -5.000000000000e+01 0.000000000000e+00 -5.000000000000e+01 -5.000000000000e+01 0.000000000000e+00 0.000000000000e+00 0.000000000000e+00 0.000000000000e+00 0.000000000000e+00 
5.000000000000e-01 1.000000000000e+00 0.000000000000e+00 0.000000000000e+00 0.000000000000e+00 -5.000000000000e+01 0.000000000000e+00 -5.000000000000e+01 -5.000000000000e+01 0.000000000000e+00 0.000000000000e+00 0.000000000000e+00 0.000000000000e+00 0.000000000000e+00 
0.000000000000e+00 1.000000000000e+00 0.000000000000e+00 0.000000000000e+00 0.000000000000e+00 -5.000000000000e+01 0.000000000000e+00 -5.000000000000e+01 -5.000000000000e+01 0.000000000000e+00 0.000000000000e+00 0.000000000000e+00 0.000000000000e+00 0.000000000000e+00 
1.250000000000e-01 0.000000000000e+00 0.000000000000e+00 0.000000000000e+00 0.000000000000e+00 -5.000000000000e+01 0.000000000000e+00 -5.000000000000e+01 -5.000000000000e+01 0.000000000000e+00 0.000000000000e+00 0.000000000000e+00 0.000000000000e+00 0.000000000000e+00 
2.500000000000e-01 0.000000000000e+00 0.000000000000e+00 0.000000000000e+00 0.000000000000e+00 -5.000000000000e+01 0.000000000000e+00 -5.000000000000e+01 -5.000000000000e+01 0.000000000000e+00 0.000000000000e+00 0.000000000000e+00 0.000000000000e+00 0.000000000000e+00 
3.750000000000e-01 0.000000000000e+00 0.000000000000e+00 0.000000000000e+00 0.000000000000e+00 -5.000000000000e+01 0.000000000000e+00 -5.000000000000e+01 -5.000000000000e+01 0.000000000000e+00 0.000000000000e+00 0.000000000000e+00 0.000000000000e+00 0.000000000000e+00 
5.000000000000e-01 1.111111111111e-01 0.000000000000e+00 0.000000000000e+00 0.000000000000e+00 -5.000000000000e+01 0.000000000000e+00 -5.000000000000e+01 -5.000000000000e+01 0.000000000000e+00 0.000000000000e+00 0.000000000000e+00 0.000000000000e+00 0.000000000000e+00 
5.000000000000e-01 2.222222222222e-01 0.000000000000e+00 0.000000000000e+00 0.000000000000e+00 -5.000000000000e+01 0.000000000000e+00 -5.000000000000e+01 -5.000000000000e+01 0.000000000000e+00 0.000000000000e+00 0.000000000000e+00 0.000000000000e+00 0.000000000000e+00 
5.000000000000e-01 3.333333333333e-01 0.000000000000e+00 0.000000000000e+00 0.000000000000e+00 -5.000000000000e+01 0.000000000000e+00 -5.000000000000e+01 -5.000000000000e+01 0.000000000000e+00 0.000000000000e+00 0.000000000000e+00 0.000000000000e+00 0.000000000000e+00 
5.000000000000e-01 4.444444444444e-01 0.000000000000e+00 0.000000000000e+00 0.000000000000e+00 -5.000000000000e+01 0.000000000000e+00 -5.000000000000e+01 -5.000000000000e+01 0.000000000000e+00 0.000000000000e+00 0.000000000000e+00 0.000000000000e+00 0.000000000000e+00 
5.000000000000e-01 5.555555555555e-01 0.000000000000e+00 0.000000000000e+00 0.000000000000e+00 -5.000000000000e+01 0.000000000000e+00 -5.000000000000e+01 -5.000000000000e+01 0.000000000000e+00 0.000000000000e+00 0.000000000000e+00 0.000000000000e+00 0.000000000000e+00 
5.000000000000e-01 6.666666666667e-01 0.000000000000e+00 0.000000000000e+00 0.000000000000e+00 -5.000000000000e+01 0.000000000000e+00 -5.000000000000e+01 -5.000000000000e+01 0.000000000000e+00 0.000000000000e+00 0.000000000000e+00 0.000000000000e+00 0.000000000000e+00 
5.000000000000e-01 7.777777777778e-01 0.000000000000e+00 0.000000000000e+00 0.000000000000e+00 -5.000000000000e+01 0.000000000000e+00 -5.000000000000e+01 -5.000000000000e+01 0.000000000000e+00 0.000000000000e+00 0.000000000000e+00 0.000000000000e+00 0.000000000000e+00 
5.000000000000e-01 8.888888888889e-01 0.000000000000e+00 0.000000000000e+00 0.000000000000e+00 -5.000000000000e+01 0.000000000000e+00 -5.000000000000e+01 -5.000000000000e+01 0.000000000000e+00 0.000000000000e+00 0.000000000000e+00 0.000000000000e+00 0.000000000000e+00 
3.750000000000e-01 1.000000000000e+00 0.000000000000e+00 0.000000000000e+00 0.000000000000e+00 -5.000000000000e+01 0.000000000000e+00 -5.000000000000e+01 -5.000000000000e+01 0.000000000000e+00 0.000000000000e+00 0.000000000000e+00 0.000000000000e+00 0.000000000000e+00 
2.500000000000e-01 1.000000000000e+00 0.000000000000e+00 0.000000000000e+00 0.000000000000e+00 -5.000000000000e+01 0.000000000000e+00 -5.000000000000e+01 -5.000000000000e+01 0.000000000000e+00 0.000000000000e+00 0.000000000000e+00 0.000000000000e+00 0.000000000000e+00 
1.250000000000e-01 1.000000000000e+00 0.000000000000e+00 0.000000000000e+00 0.000000000000e+00 -5.000000000000e+01 0.000000000000e+00 -5.000000000000e+01 -5.000000000000e+01 0.000000000000e+00 0.000000000000e+00 0.000000000000e+00 0.000000000000e+00 0.000000000000e+00 
0.000000000000e+00 8.888888888889e-01 0.000000000000e+00 0.000000000000e+00 0.000000000000e+00 -5.000000000000e+01 0.000000000000e+00 -5.000000000000e+01 -5.000000000000e+01 0.000000000000e+00 0.000000000000e+00 0.000000000000e+00 0.000000000000e+00 0.000000000000e+00 
0.000000000000e+00 7.777777777778e-01 0.000000000000e+00 0.000000000000e+00 0.000000000000e+00 -5.000000000000e+01 0.000000000000e+00 -5.000000000000e+01 -5.000000000000e+01 0.000000000000e+00 0.000000000000e+00 0.000000000000e+00 0.000000000000e+00 0.000000000000e+00 
0.000000000000e+00 6.666666666667e-01 0.000000000000e+00 0.000000000000e+00 0.000000000000e+00 -5.000000000000e+01 0.000000000000e+00 -5.000000000000e+01 -5.000000000000e+01 0.000000000000e+00 0.000000000000e+00 0.000000000000e+00 0.000000000000e+00 0.000000000000e+00 
0.000000000000e+00 5.555555555556e-01 0.000000000000e+00 0.000000000000e+00 0.000000000000e+00 -5.000000000000e+01 0.000000000000e+00 -5.000000000000e+01 -5.000000000000e+01 0.000000000000e+00 0.000000000000e+00 0.000000000000e+00 0.000000000000e+00 0.000000000000e+00 
0.000000000000e+00 4.444444444445e-01 0.000000000000e+00 0.000000000000e+00 0.000000000000e+00 -5.000000000000e+01 0.000000000000e+00 -5.000000000000e+01 -5.000000000000e+01 0.000000000000e+00 0.000000000000e+00 0.000000000000e+00 0.000000000000e+00 0.000000000000e+00 
0.000000000000e+00 3.333333333333e-01 0.000000000000e+00 0.000000000000e+00 0.000000000000e+00 -5.000000000000e+01 0.000000000000e+00 -5.000000000000e+01 -5.000000000000e+01 0.000000000000e+00 0.000000000000e+00 0.000000000000e+00 0.000000000000e+00 0.000000000000e+00 
0.000000000000e+00 2.222222222222e-01 0.000000000000e+00 0.000000000000e+00 0.000000000000e+00 -5.000000000000e+01 0.000000000000e+00 -5.000000000000e+01 -5.000000000000e+01 0.000000000000e+00 0.000000000000e+00 0.000000000000e+00 0.000000000000e+00 0.000000000000e+00 
0.000000000000e+00 1.111111111111e-01 0.000000000000e+00 0.000000000000e+00 0.000000000000e+00 -5.000000000000e+01 0.000000000000e+00 -5.000000000000e+01 -5.000000000000e+01 0.000000000000e+00 0.000000000000e+00 0.000000000000e+00 0.000000000000e+00 0.000000000000e+00 
2.589514675558e-01 6.131170471200e-01 0.000000000000e+00 0.000000000000e+00 0.000000000000e+00 -5.000000000000e+01 0.000000000000e+00 -5.000000000000e+01 -5.000000000000e+01 0.000000000000e+00 0.000000000000e+00 0.000000000000e+00 0.000000000000e+00 0.000000000000e+00 
2.516254322439e-01 2.879687005322e-01 0.000000000000e+00 0.000000000000e+00 0.000000000000e+00 -5.000000000000e+01 0.000000000000e+00 -5.000000000000e+01 -5.000000000000e+01 0.000000000000e+00 0.000000000000e+00 0.000000000000e+00 0.000000000000e+00 0.000000000000e+00 
3.093333177154e-01 8.001865036853e-01 0.000000000000e+00 0.000000000000e+00 0.000000000000e+00 -5.000000000000e+01 0.000000000000e+00 -5.000000000000e+01 -5.000000000000e+01 0.000000000000e+00 0.000000000000e+00 0.000000000000e+00 0.000000000000e+00 0.000000000000e+00 
3.261818190709e-01 4.447451429167e-01 0.000000000000e+00 0.000000000000e+00 0.000000000000e+00 -5.000000000000e+01 0.000000000000e+00 -5.000000000000e+01 -5.000000000000e+01 0.000000000000e+00 0.000000000000e+00 0.000000000000e+00 0.000000000000e+00 0.000000000000e+00 
1.589842504896e-01 4.638345688453e-01 0.000000000000e+00 0.000000000000e+00 0.000000000000e+00 -5.000000000000e+01 0.000000000000e+00 -5.000000000000e+01 -5.000000000000e+01 0.000000000000e+00 0.000000000000e+00 0.000000000000e+00 0.000000000000e+00 0.000000000000e+00 
1.588983955413e-01 7.429917284633e-01 0.000000000000e+00 0.000000000000e+00 0.000000000000e+00 -5.000000000000e+01 0.000000000000e+00 -5.000000000000e+01 -5.000000000000e+01 0.000000000000e+00 0.000000000000e+00 0.000000000000e+00 0.000000000000e+00 0.000000000000e+00 
3.470792484928e-01 1.535052867898e-01 0.000000000000e+00 0.000000000000e+00 0.000000000000e+00 -5.000000000000e+01 0.000000000000e+00 -5.000000000000e+01 -5.000000000000e+01 0.000000000000e+00 0.000000000000e+00 0.000000000000e+00 0.000000000000e+00 0.000000000000e+00 
1.565681204010e-01 1.566396714438e-01 0.000000000000e+00 0.000000000000e+00 0.000000000000e+00 -5.000000000000e+01 0.000000000000e+00 -5.000000000000e+01 -5.000000000000e+01 0.000000000000e+00 0.000000000000e+00 0.000000000000e+00 0.000000000000e+00 0.000000000000e+00 
1.783719353894e-01 8.923817557881e-01 0.000000000000e+00 0.000000000000e+00 0.000000000000e+00 -5.000000000000e+01 0.000000000000e+00 -5.000000000000e+01 -5.000000000000e+01 0.000000000000e+00 0.000000000000e+00 0.000000000000e+00 0.000000000000e+00 0.000000000000e+00 
3.625072912338e-01 6.824903560187e-01 0.000000000000e+00 0.000000000000e+00 0.000000000000e+00 -5.000000000000e+01 0.000000000000e+00 -5.000000000000e+01 -5.000000000000e+01 0.000000000000e+00 0.000000000000e+00 0.000000000000e+00 0.000000000000e+00 0.000000000000e+00 
1.387636923039e-01 3.407863315826e-01 0.000000000000e+00 0.000000000000e+00 0.000000000000e+00 -5.000000000000e+01 0.000000000000e+00 -5.000000000000e+01 -5.000000000000e+01 0.000000000000e+00 0.000000000000e+00 0.000000000000e+00 0.000000000000e+00 0.000000000000e+00 
1.015037729946e-01 6.108346079851e-01 0.000000000000e+00 0.000000000000e+00 0.000000000000e+00 -5.000000000000e+01 0.000000000000e+00 -5.000000000000e+01 -5.000000000000e+01 0.000000000000e+00 0.000000000000e+00 0.000000000000e+00 0.000000000000e+00 0.000000000000e+00 
3.795262269175e-01 2.719490921430e-01 0.000000000000e+00 0.000000000000e+00 0.000000000000e+00 -5.000000000000e+01 0.000000000000e+00 -5.000000000000e+01 -5.000000000000e+01 0.000000000000e+00 0.000000000000e+00 0.000000000000e+00 0.000000000000e+00 0.000000000000e+00 
3.680342521626e-01 5.588926803418e-01 0.000000000000e+00 0.000000000000e+00 0.000000000000e+00 -5.000000000000e+01 0.000000000000e+00 -5.000000000000e+01 -5.000000000000e+01 0.000000000000e+00 0.000000000000e+00 0.000000000000e+00 0.000000000000e+00 0.000000000000e+00 
3.845787850981e-01 8.860969553038e-01 0.000000000000e+00 0.000000000000e+00 0.000000000000e+00 -5.000000000000e+01 0.000000000000e+00 -5.000000000000e+01 -5.000000000000e+01 0.000000000000e+00 0.000000000000e+00 0.000000000000e+00 0.000000000000e+00 0.000000000000e+00 
2.520794258593e-01 1.083160548780e-01 0.000000000000e+00 0.000000000000e+00 0.000000000000e+00 -5.000000000000e+01 0.000000000000e+00 -5.000000000000e+01 -5.000000000000e+01 0.000000000000e+00 0.000000000000e+00 0.000000000000e+00 0.000000000000e+00 0.000000000000e+00 
2.368267847428e-01 3.918035843481e-01 0.000000000000e+00 0.000000000000e+00 0.000000000000e+00 -5.000000000000e+01 0.000000000000e+00 -5.000000000000e+01 -5.000000000000e+01 0.000000000000e+00 0.000000000000e+00 0.000000000000e+00 0.000000000000e+00 0.000000000000e+00 
4.068113047681e-01 3.859031984473e-01 0.000000000000e+00 0.000000000000e+00 0.000000000000e+00 -5.000000000000e+01 0.000000000000e+00 -5.000000000000e+01 -5.000000000000e+01 0.000000000000e+00 0.000000000000e+00 0.000000000000e+00 0.000000000000e+00 0.000000000000e+00 
9.579358895840e-02 2.440971713883e-01 0.000000000000e+00 0.000000000000e+00 0.000000000000e+00 -5.000000000000e+01 0.000000000000e+00 -5.000000000000e+01 -5.000000000000e+01 0.000000000000e+00 0.000000000000e+00 0.000000000000e+00 0.000000000000e+00 0.000000000000e+00 
9.407212767522e-02 8.270271821957e-01 0.000000000000e+00 0.000000000000e+00 0.000000000000e+00 -5.000000000000e+01 0.000000000000e+00 -5.000000000000e+01 -5.000000000000e+01 0.000000000000e+00 0.000000000000e+00 0.000000000000e+00 0.000000000000e+00 0.000000000000e+00 
2.516227021218e-01 7.152247998494e-01 0.000000000000e+00 0.000000000000e+00 0.000000000000e+00 -5.000000000000e+01 0.000000000000e+00 -5.000000000000e+01 -5.000000000000e+01 0.000000000000e+00 0.000000000000e+00 0.000000000000e+00 0.000000000000e+00 0.000000000000e+00 
4.124958646476e-01 7.820047072787e-01 0.000000000000e+00 0.000000000000e+00 0.000000000000e+00 -5.000000000000e+01 0.000000000000e+00 -5.000000000000e+01 -5.000000000000e+01 0.000000000000e+00 0.000000000000e+00 0.000000000000e+00 0.000000000000e+00 0.000000000000e+00 
2.857446172640e-01 9.008439229498e-01 0.000000000000e+00 0.000000000000e+00 0.000000000000e+00 -5.000000000000e+01 0.000000000000e+00 -5.000000000000e+01 -5.000000000000e+01 0.000000000000e+00 0.000000000000e+00 0.000000000000e+00 0.000000000000e+00 0.000000000000e+00 
2.523874927360e-01 5.091066351283e-01 0.000000000000e+00 0.000000000000e+00 0.000000000000e+00 -5.000000000000e+01 0.000000000000e+00 -5.000000000000e+01 -5.000000000000e+01 0.000000000000e+00 0.000000000000e+00 0.000000000000e+00 0.000000000000e+00 0.000000000000e+00 
4.121435150797e-01 8.492070391443e-02 0.000000000000e+00 0.000000000000e+00 0.000000000000e+00 -5.000000000000e+01 0.000000000000e+00 -5.000000000000e+01 -5.000000000000e+01 0.000000000000e+00 0.000000000000e+00 0.000000000000e+00 0.000000000000e+00 0.000000000000e+00 
8.819769196411e-02 8.516946377990e-02 0.000000000000e+00 0.000000000000e+00 0.000000000000e+00 -5.000000000000e+01 0.000000000000e+00 -5.000000000000e+01 -5.000000000000e+01 0.000000000000e+00 0.000000000000e+00 0.000000000000e+00 0.000000000000e+00 0.000000000000e+00 
3.200817255356e-01 3.543019263054e-01 0.000000000000e+00 0.000000000000e+00 0.000000000000e+00 -5.000000000000e+01 0.000000000000e+00 -5.000000000000e+01 -5.000000000000e+01 0.000000000000e+00 0.000000000000e+00 0.000000000000e+00 0.000000000000e+00 0.000000000000e+00 
4.169885634503e-01 4.771072683468e-01 0.000000000000e+00 0.000000000000e+00 0.000000000000e+00 -5.000000000000e+01 0.000000000000e+00 -5.000000000000e+01 -5.000000000000e+01 0.000000000000e+00 0.000000000000e+00 0.000000000000e+00 0.000000000000e+00 0.000000000000e+00 
7.948018467492e-02 5.037032300856e-01 0.000000000000e+00 0.000000000000e+00 0.000000000000e+00 -5.000000000000e+01 0.000000000000e+00 -5.000000000000e+01 -5.000000000000e+01 0.000000000000e+00 0.000000000000e+00 0.000000000000e+00 0.000000000000e+00 0.000000000000e+00 
8.096421638074e-02 9.218906870101e-01 0.000000000000e+00 0.000000000000e+00 0.000000000000e+00 -5.000000000000e+01 0.000000000000e+00 -5.000000000000e+01 -5.000000000000e+01 0.000000000000e+00 0.000000000000e+00 0.000000000000e+00 0.000000000000e+00 0.000000000000e+00 
7.930525409953e-02 7.184286874229e-01 0.000000000000e+00 0.000000000000e+00 0.000000000000e+00 -5.000000000000e+01 0.000000000000e+00 -5.000000000000e+01 -5.000000000000e+01 0.000000000000e+00 0.000000000000e+00 0.000000000000e+00 0.000000000000e+00 0.000000000000e+00 
2.661218122358e-01 1.976628741899e-01 0.000000000000e+00 0.000000000000e+00 0.000000000000e+00 -5.000000000000e+01 0.000000000000e+00 -5.000000000000e+01 -5.000000000000e+01 0.000000000000e+00 0.000000000000e+00 0.000000000000e+00 0.000000000000e+00 0.000000000000e+00 
7.835622335767e-02 4.154782256902e-01 0.000000000000e+00 0.000000000000e+00 0.000000000000e+00 -5.000000000000e+01 0.000000000000e+00 -5.000000000000e+01 -5.000000000000e+01 0.000000000000e+00 0.000000000000e+00 0.000000000000e+00 0.000000000000e+00 0.000000000000e+00 
1.740323197534e-01 7.026941424429e-02 0.000000000000e+00 0.000000000000e+00 0.000000000000e+00 -5.000000000000e+01 0.000000000000e+00 -5.000000000000e+01 -5.000000000000e+01 0.000000000000e+00 0.000000000000e+00 0.000000000000e+00 0.000000000000e+00 0.000000000000e+00 
4.306180309316e-01 1.685748948279e-01 0.000000000000e+00 0.000000000000e+00 0.000000000000e+00 -5.000000000000e+01 0.000000000000e+00 -5.000000000000e+01 -5.000000000000e+01 0.000000000000e+00 0.000000000000e+00 0.000000000000e+00 0.000000000000e+00 0.000000000000e+00 
3.268453678584e-01 6.992358094798e-02 0.000000000000e+00 0.000000000000e+00 0.000000000000e+00 -5.000000000000e+01 0.000000000000e+00 -5.000000000000e+01 -5.000000000000e+01 0.000000000000e+00 0.000000000000e+00 0.000000000000e+00 0.000000000000e+00 0.000000000000e+00 
6.711119462000e-02 1.659726929805e-01 0.000000000000e+00 0.000000000000e+00 0.000000000000e+00 -5.000000000000e+01 0.000000000000e+00 -5.000000000000e+01 -5.000000000000e+01 0.000000000000e+00 0.000000000000e+00 0.000000000000e+00 0.000000000000e+00 0.000000000000e+00 
4.291549386527e-01 6.209332067955e-01 0.000000000000e+00 0.000000000000e+00 0.000000000000e+00 -5.000000000000e+01 0.000000000000e+00 -5.000000000000e+01 -5.000000000000e+01 0.000000000000e+00 0.000000000000e+00 0.000000000000e+00 0.000000000000e+00 0.000000000000e+00 
2.149486320640e-01 8.055071588067e-01 0.000000000000e+00 0.000000000000e+00 0.000000000000e+00 -5.000000000000e+01 0.000000000000e+00 -5.000000000000e+01 -5.000000000000e+01 0.000000000000e+00 0.000000000000e+00 0.000000000000e+00 0.000000000000e+00 0.000000000000e+00 
1.780310917010e-01 6.608091874072e-01 0.000000000000e+00 0.000000000000e+00 0.000000000000e+00 -5.000000000000e+01 0.000000000000e+00 -5.000000000000e+01 -5.000000000000e+01 0.000000000000e+00 0.000000000000e+00 0.000000000000e+00 0.000000000000e+00 0.000000000000e+00 
1.819089548864e-01 2.385757522978e-01 0.000000000000e+00 0.000000000000e+00 0.000000000000e+00 -5.000000000000e+01 0.000000000000e+00 -5.000000000000e+01 -5.000000000000e+01 0.000000000000e+00 0.000000000000e+00 0.000000000000e+00 0.000000000000e+00 0.000000000000e+00 
1.755160443574e-01 5.579723222393e-01 0.000000000000e+00 0.000000000000e+00 0.000000000000e+00 -5.000000000000e+01 0.000000000000e+00 -5.000000000000e+01 -5.000000000000e+01 0.000000000000e+00 0.000000000000e+00 0.000000000000e+00 0.000000000000e+00 0.000000000000e+00 
4.386893289369e-01 9.456122625178e-01 0.000000000000e+00 0.000000000000e+00 0.000000000000e+00 -5.000000000000e+01 0.000000000000e+00 -5.000000000000e+01 -5.000000000000e+01 0.000000000000e+00 0.000000000000e+00 0.000000000000e+00 0.000000000000e+00 0.000000000000e+00 
18  35  17  18
13  48  36  13
27  40  36  27
14  48  13  14
41  48  15  41
15  48  14  15
10  39  9  10
24  45  37  24
22  38  21  22
39  58  33  39
28  58  39  28
27  50  40  27
35  49  17  35
36  64  13  36
37  43  31  37
40  50  30  40
29  47  36  29
36  47  27  36
17  49  16  17
39  61  9  39
18  56  35  18
25  45  24  25
36  48  29  36
28  43  37  28
43  50  31  43
37  67  28  37
33  61  39  33
22  55  38  22
16  49  41  16
38  57  21  38
32  65  46  32
37  59  24  37
10  44  39  10
46  65  35  46
2  51  7  2
5  52  1  5
31  59  37  31
38  66  57  38
30  50  43  30
40  54  12  40
57  66  32  57
39  53  28  39
4  56  18  4
35  65  49  35
8  51  2  8
1  52  26  1
55  68  38  55
49  65  29  49
42  58  34  42
30  54  40  30
40  64  36  40
12  64  40  12
11  44  10  11
6  60  5  6
7  62  6  7
58  67  34  58
12  54  11  12
29  48  41  29
45  67  37  45
46  57  32  46
41  49  29  41
20  46  19  20
19  56  4  19
24  59  23  24
31  68  55  31
20  57  46  20
35  56  46  35
13  64  12  13
42  60  6  42
6  62  42  6
28  53  43  28
15  69  41  15
41  69  16  41
44  54  30  44
11  54  44  11
23  55  22  23
21  57  20  21
43  53  30  43
30  53  44  30
44  53  39  44
9  61  8  9
26  63  25  26
3  69  15  3
33  58  42  33
42  62  33  42
34  60  42  34
66  68  27  66
46  56  19  46
29  65  47  29
47  65  32  47
38  68  66  38
45  63  34  45
55  59  31  55
25  63  45  25
47  66  27  47
32  66  47  32
34  67  45  34
27  68  50  27
28  67  58  28
8  61  51  8
33  62  51  33
52  60  34  52
52  63  26  52
50  68  31  50
34  63  52  34
51  61  33  51
51  62  7  51
5  60  52  5
23  59  55  23
16  69  3  16
VARIABLES  = "X","Y","Z", "DISPLACEMENT_X1", "DISPLACEMENT_Y1", "STRESS_XX", "STRESS_XY", "STRESS_YY", "STRESS_ZZ", "STRAIN_XX", "STRAIN_XY", "STRAIN_YY", "STRAIN_ZZ", "STRAIN_PLS"
ZONE T="2.000000000000e+00s", N=69, E=110, F=FEPOINT, ET=QUADRILATERAL
STRANDID=1, SOLUTIONTIME=2.000000000000e+00
0.000000000000e+00 0.000000000000e+00 0.000000000000e+00 0.000000000000e+00 0.000000000000e+00 -4.924631140620e+01 -3.598822148499e-07 -4.924631121738e+01 -7.538718022712e+01 1.306308962725e-03 -3.363410601644e-10 1.306309050961e-03 -1.090914472447e-02 7.684369785989e-03 
5.000000000000e-01 0.000000000000e+00 0.000000000000e+00 6.531533378134e-04 0.000000000000e+00 -4.924632551074e+01 2.161634670053e-07 -4.924631444777e+01 -7.538716742287e+01 1.306301800826e-03 2.020232214301e-10 1.306306970469e-03 -1.090912249591e-02 7.684346657997e-03 
5.000000000000e-01 1.000000000000e+00 0.000000000000e+00 6.531428043418e-04 -1.090909090909e-02 -4.924636607179e+01 -2.769450751809e-07 -4.924637053392e+01 -7.538714011271e+01 1.306287678322e-03 -2.588278773888e-10 1.306285593209e-03 -1.090906072991e-02 7.684280251969e-03 
0.000000000000e+00 1.000000000000e+00 0.000000000000e+00 0.000000000000e+00 -1.090909090906e-02 -4.924637801146e+01 1.681210124792e-07 -4.924637814602e+01 -7.538714059229e+01 1.306284168177e-03 1.571228434181e-10 1.306284105295e-03 -1.090905670299e-02 7.684275337377e-03 
1.250000000000e-01 0.000000000000e+00 0.000000000000e+00 1.632886060994e-04 0.000000000000e+00 -4.924631105762e+01 2.635466694701e-07 -4.924631094338e+01 -7.538717920209e+01 1.306308876124e-03 2.463071779593e-10 1.306308929506e-03 -1.090914342859e-02 7.684368509796e-03 
2.500000000000e-01 0.000000000000e+00 0.000000000000e+00 3.265771299693e-04 0.000000000000e+00 -4.924631263054e+01 1.064163019666e-07 -4.924631059481e+01 -7.538717621103e+01 1.306307721358e-03 9.945524164062e-11 1.306308672643e-03 -1.090913891561e-02 7.684363915566e-03 
3.750000000000e-01 0.000000000000e+00 0.000000000000e+00 4.898654354662e-04 0.000000000000e+00 -4.924631756127e+01 4.810678609885e-07 -4.924631171894e+01 -7.538717211374e+01 1.306305286033e-03 4.495992415894e-10 1.306308016116e-03 -1.090913168044e-02 7.684356369419e-03 
5.000000000000e-01 1.111111111111e-01 0.000000000000e+00 6.531529153252e-04 -1.212124501118e-03 -4.924632614289e+01 2.846931112759e-07 -4.924631650200e+01 -7.538716611447e+01 1.306301539838e-03 2.660700289047e-10 1.306306044956e-03 -1.090912000437e-02 7.684344032818e-03 
5.000000000000e-01 2.222222222222e-01 0.000000000000e+00 6.531516901748e-04 -2.424248623026e-03 -4.924632775835e+01 8.355377368118e-07 -4.924632237924e+01 -7.538716409868e+01 1.306301177951e-03 7.808810593709e-10 1.306303691566e-03 -1.090911535897e-02 7.684339028550e-03 
5.000000000000e-01 3.333333333333e-01 0.000000000000e+00 6.531498925050e-04 -3.636372012938e-03 -4.924633394769e+01 6.156366410966e-07 -4.924633259463e+01 -7.538716107148e+01 1.306299398228e-03 5.753644950526e-10 1.306300030504e-03 -1.090910714327e-02 7.684330038913e-03 
5.000000000000e-01 4.444444444444e-01 0.000000000000e+00 6.531479020369e-04 -4.848494323123e-03 -4.924634151303e+01 3.072946412066e-07 -4.924634339740e+01 -7.538715657063e+01 1.306296906589e-03 2.871926101640e-10 1.306296026041e-03 -1.090909637690e-02 7.684318396546e-03 
5.000000000000e-01 5.555555555555e-01 0.000000000000e+00 6.531461231643e-04 -6.060615508899e-03 -4.924634971224e+01 -1.377165573374e-07 -4.924635343825e+01 -7.538715191469e+01 1.306294077576e-03 -1.287076248350e-10 1.306292336442e-03 -1.090908542265e-02 7.684306570817e-03 
5.000000000000e-01 6.666666666667e-01 0.000000000000e+00 6.531447325245e-04 -7.272735552986e-03 -4.924635607594e+01 2.875585850153e-07 -4.924636055111e+01 -7.538714674293e+01 1.306291529619e-03 2.687472074308e-10 1.306289438410e-03 -1.090907488680e-02 7.684295376383e-03 
5.000000000000e-01 7.777777777778e-01 0.000000000000e+00 6.531437151916e-04 -8.484854563359e-03 -4.924636102465e+01 -4.474320608159e-07 -4.924636576402e+01 -7.538714376889e+01 1.306289706447e-03 -4.181621721342e-10 1.306287491782e-03 -1.090906824793e-02 7.684288248786e-03 
5.000000000000e-01 8.888888888889e-01 0.000000000000e+00 6.531430625141e-04 -9.696972941177e-03 -4.924636428617e+01 -5.502331985582e-07 -4.924636917673e+01 -7.538714122391e+01 1.306288396187e-03 -5.142381227510e-10 1.306286110872e-03 -1.090906305310e-02 7.684282727938e-03 
3.750000000000e-01 1.000000000000e+00 0.000000000000e+00 4.898569401142e-04 -1.090909090894e-02 -4.924636958696e+01 7.271737833586e-08 -4.924637237753e+01 -7.538713932018e+01 1.306286434831e-03 6.796035244258e-11 1.306285130821e-03 -1.090905832309e-02 7.684277594007e-03 
2.500000000000e-01 1.000000000000e+00 0.000000000000e+00 3.265711931350e-04 -1.090909090906e-02 -4.924637310259e+01 4.912616653421e-07 -4.924637478468e+01 -7.538713988228e+01 1.306285494600e-03 4.591242498431e-10 1.306284708575e-03 -1.090905769108e-02 7.684276696635e-03 
1.250000000000e-01 1.000000000000e+00 0.000000000000e+00 1.632855649363e-04 -1.090909090906e-02 -4.924637642465e+01 2.644945461611e-07 -4.924637697586e+01 -7.538714094216e+01 1.306284693821e-03 2.471918119776e-10 1.306284436244e-03 -1.090905785963e-02 7.684276622734e-03 
0.000000000000e+00 8.888888888889e-01 0.000000000000e+00 0.000000000000e+00 -9.696973428673e-03 -4.924637610371e+01 1.184058488089e-07 -4.924637612899e+01 -7.538714136870e+01 1.306284802971e-03 1.106599622892e-10 1.306284791154e-03 -1.090905874213e-02 7.684277562116e-03 
0.000000000000e+00 7.777777777778e-01 0.000000000000e+00 0.000000000000e+00 -8.484855673335e-03 -4.924637072090e+01 -2.051327398931e-07 -4.924637074608e+01 -7.538714066005e+01 1.306286098140e-03 -1.917133365639e-10 1.306286086374e-03 -1.090906033243e-02 7.684279637421e-03 
0.000000000000e+00 6.666666666667e-01 0.000000000000e+00 0.000000000000e+00 -7.272737583055e-03 -4.924636540824e+01 -2.894234495008e-06 -4.924636546705e+01 -7.538714180585e+01 1.306287715359e-03 -2.704900158602e-09 1.306287687878e-03 -1.090906449630e-02 7.684284294096e-03 
0.000000000000e+00 5.555555555556e-01 0.000000000000e+00 0.000000000000e+00 -6.060618564761e-03 -4.924635548239e+01 -3.371126404658e-06 -4.924635551514e+01 -7.538714574799e+01 1.306291055412e-03 -3.150596636976e-09 1.306291040108e-03 -1.090907483780e-02 7.684295575696e-03 
0.000000000000e+00 4.444444444445e-01 0.000000000000e+00 0.000000000000e+00 -4.848498330039e-03 -4.924634291927e+01 -2.973587826897e-06 -4.924634289261e+01 -7.538715081664e+01 1.306295294612e-03 -2.779065966549e-09 1.306295307069e-03 -1.090908804493e-02 7.684309974585e-03 
0.000000000000e+00 3.333333333333e-01 0.000000000000e+00 0.000000000000e+00 -3.636376566430e-03 -4.924632843658e+01 -2.433114301490e-06 -4.924632825973e+01 -7.538715734256e+01 1.306300297419e-03 -2.273950556354e-09 1.306300380062e-03 -1.090910425273e-02 7.684327565775e-03 
0.000000000000e+00 2.222222222222e-01 0.000000000000e+00 0.000000000000e+00 -2.424252717952e-03 -4.924631875626e+01 -1.283949500882e-06 -4.924631874002e+01 -7.538716749742e+01 1.306304721104e-03 -1.199960492130e-09 1.306304728691e-03 -1.090912319335e-02 7.684347468375e-03 
0.000000000000e+00 1.111111111111e-01 0.000000000000e+00 0.000000000000e+00 -1.212126946911e-03 -4.924631330879e+01 -8.342225168320e-07 -4.924631324035e+01 -7.538717713642e+01 1.306307909610e-03 -7.796529209756e-10 1.306307941593e-03 -1.090913942117e-02 7.684364277383e-03 
2.589514675558e-01 6.131170471200e-01 0.000000000000e+00 3.382656938517e-04 -6.688560638872e-03 -4.924635756690e+01 -2.458048161631e-06 -4.924635886229e+01 -7.538714586277e+01 1.306290652812e-03 -2.297249325470e-09 1.306290047486e-03 -1.090907369305e-02 7.684294184187e-03 
2.516254322439e-01 2.879687005322e-01 0.000000000000e+00 3.286988195530e-04 -3.141487626736e-03 -4.924632790288e+01 -3.285431711876e-07 -4.924632631500e+01 -7.538716286621e+01 1.306301299930e-03 -3.070514698740e-10 1.306302041937e-03 -1.090911263921e-02 7.684336112214e-03 
3.093333177154e-01 8.001865036853e-01 0.000000000000e+00 4.040778961374e-04 -8.729313697387e-03 -4.924636671415e+01 -2.522331265212e-06 -4.924636891096e+01 -7.538714057115e+01 1.306287362107e-03 -2.357325520357e-09 1.306286335558e-03 -1.090906161236e-02 7.684281183035e-03 
3.261818190709e-01 4.447451429167e-01 0.000000000000e+00 4.260898778572e-04 -4.851777135602e-03 -4.924634442402e+01 -2.079257784793e-06 -4.924634466511e+01 -7.538715488507e+01 1.306295663421e-03 -1.943240618765e-09 1.306295550760e-03 -1.090909299446e-02 7.684314809201e-03 
1.589842504896e-01 4.638345688453e-01 0.000000000000e+00 2.076803083279e-04 -5.060026621761e-03 -4.924634602124e+01 -2.089426544384e-06 -4.924634533203e+01 -7.538715094333e+01 1.306294429851e-03 -1.952743441677e-09 1.306294751914e-03 -1.090908689059e-02 7.684308568582e-03 
1.588983955413e-01 7.429917284633e-01 0.000000000000e+00 2.075668782539e-04 -8.105372481806e-03 -4.924636739647e+01 -2.850927227461e-06 -4.924636800180e+01 -7.538714092765e+01 1.306287085089e-03 -2.664425504418e-09 1.306286802226e-03 -1.090906216970e-02 7.684281753754e-03 
3.470792484928e-01 1.535052867898e-01 0.000000000000e+00 4.533917010313e-04 -1.674609188595e-03 -4.924632042045e+01 -2.378409154507e-07 -4.924631647677e+01 -7.538716960691e+01 1.306304266280e-03 -2.222827554978e-10 1.306306109132e-03 -1.090912631258e-02 7.684350632851e-03 