 TITLE = "Time curves in points"
 VARIABLES = "TIME "  "DISPLACEMENT_X1"  "DISPLACEMENT_Y1"  "STRESS_XX"  "STRESS_XY"  "STRESS_YY"  "STRESS_ZZ"  "STRAIN_XX"  "STRAIN_XY"  "STRAIN_YY"  "STRAIN_ZZ"  "STRAIN_PLS"  p_(1st_Invariant)  q_(2nd_Invariant)   Effective_Strain
 ZONE T="POINT=POINT2"
0.000000000000e+00 0.000000000000e+00 0.000000000000e+00 -5.000000000000e+01 0.000000000000e+00 -5.000000000000e+01 -5.000000000000e+01 0.000000000000e+00 0.000000000000e+00 0.000000000000e+00 0.000000000000e+00 0.000000000000e+00 5.000000000000e+01 0.000000000000e+00  0.000000000000e+00
2.000000000000e+00 6.531463832576e-04 -1.090909090909e-02 -4.924636180513e+01 9.461893811119e-06 -4.924636202914e+01 -7.538716376700e+01 1.306292678444e-03 8.842932235944e-09 1.306292573765e-03 -1.090909716287e-02 7.684317468331e-03 5.795996253376e+01 2.614080184986e+01  1.221538978898e-02
4.000000000000e+00 1.327814586020e-03 -2.181818181837e-02 -4.989415057606e+01 1.498682546339e-06 -4.989415149567e+01 -8.321123025357e+01 2.655629496919e-03 7.447037222758e-09 2.655628978873e-03 -2.181818269953e-02 1.886070445818e-02 6.099984410843e+01 3.331707921770e+01  2.447381193743e-02
6.000000000000e+00 2.326398513198e-03 -3.272727272727e-02 -4.995484170672e+01 1.103790598519e-07 -4.995484192712e+01 -8.974118835367e+01 4.652797351972e-03 7.112378674267e-09 4.652796868609e-03 -3.272727829710e-02 3.083247271738e-02 6.321695732917e+01 3.978634653675e+01  3.738007540740e-02
8.000000000000e+00 3.558053775211e-03 -4.363636363636e-02 -4.998882060326e+01 -9.048523566515e-08 -4.998882013816e+01 -9.540998045721e+01 7.116107654453e-03 7.005865427934e-09 7.116107396133e-03 -4.363637273514e-02 4.341399839216e-02 6.512920706621e+01 4.542116008649e+01  5.075248026043e-02
1.000000000000e+01 4.976726874284e-03 -5.454545454545e-02 -5.000235874639e+01 -1.159743784049e-07 -5.000235156152e+01 -1.004207002129e+02 9.953451133941e-03 6.938789183137e-09 9.953453657936e-03 -5.454546709193e-02 5.647554927826e-02 6.680847017359e+01 5.041834505892e+01  6.449891948787e-02
1.200000000000e+01 6.549713965058e-03 -6.545454545535e-02 -5.000755528992e+01 4.816271623765e-08 -5.000755398909e+01 -1.049017716746e+02 1.309942578367e-02 7.006488836211e-09 1.309942783618e-02 -6.545455926701e-02 6.992944834352e-02 6.830562698455e+01 5.489421703512e+01  7.855398607694e-02
1.400000000000e+01 8.252844792160e-03 -7.636363636364e-02 -5.000910615928e+01 1.488816400665e-06 -5.000909890336e+01 -1.089388533435e+02 1.650568497752e-02 8.083180781023e-09 1.650568951301e-02 -7.636364760830e-02 8.371219397069e-02 6.965235280203e+01 5.892975081213e+01  9.286933485356e-02
1.600000000000e+01 1.006745911240e-02 -8.727272727273e-02 -5.000906642965e+01 -5.731056127970e-07 -5.000907304647e+01 -1.125933518767e+02 2.013491688682e-02 7.289684121841e-09 2.013491813256e-02 -8.727273136443e-02 9.777556892472e-02 7.087049711761e+01 6.258428213865e+01  1.074076488741e-01
1.800000000000e+01 1.197869921068e-02 -9.818181818182e-02 -5.000831235655e+01 5.198293008717e-07 -5.000830672705e+01 -1.159118001881e+02 2.395739431944e-02 7.795582890234e-09 2.395739835710e-02 -9.818183538436e-02 1.120816519354e-01 7.197613975723e+01 6.590349064629e+01  1.221392317226e-01
2.000000000000e+01 1.397440787607e-02 -1.090909090909e-01 -5.000734847262e+01 2.475145738656e-07 -5.000734325444e+01 -1.189312920795e+02 2.794881068492e-02 7.830884555493e-09 2.794881576964e-02 -1.090909386938e-01 1.265996697349e-01 7.298199460219e+01 6.892394621597e+01  1.370397519211e-01
2.200000000000e+01 1.604446525179e-02 -1.200000000000e-01 -5.000635971466e+01 -2.806100042446e-09 -5.000636071172e+01 -1.216823547656e+02 3.208892642894e-02 7.767023606199e-09 3.208893053060e-02 -1.200000284099e-01 1.413041572148e-01 7.389835839731e+01 7.167599455237e+01  1.520889568897e-01
2.400000000000e+01 1.811472806107e-02 -1.309090909094e-01 -5.101690303931e+01 -3.306068299185e-06 -5.101676245724e+01 -1.251463378280e+02 3.622940675099e-02 5.632367186477e-09 3.622945637652e-02 -1.309091674956e-01 1.560494872114e-01 7.572666777485e+01 7.412950507983e+01  1.671385990594e-01
2.600000000000e+01 2.033787624681e-02 -1.418181818182e-01 -5.001395444783e+01 2.254953436226e-06 -5.001406877516e+01 -1.266434023249e+02 4.067575579343e-02 7.867949390411e-09 4.067575202751e-02 -1.418181400561e-01 1.711014067125e-01 7.555714184929e+01 7.662939071345e+01  1.824938939666e-01
2.800000000000e+01 2.253589366287e-02 -1.527272727270e-01 -5.081355451807e+01 -3.406679657634e-06 -5.081415798731e+01 -1.295114560122e+02 4.507196324861e-02 5.184757972965e-09 4.507178444438e-02 -1.527264767072e-01 1.861538029395e-01 7.704638950586e+01 7.869759976125e+01  1.977983505537e-01
3.000000000000e+01 2.485547930101e-02 -1.636363636364e-01 -5.000959662895e+01 3.687915306258e-06 -5.000937729512e+01 -1.307347977360e+02 4.971099649879e-02 8.282728393606e-09 4.971095783013e-02 -1.636363099164e-01 2.014598775648e-01 7.691792388669e+01 8.072531077419e+01  2.133472870809e-01
3.200000000000e+01 2.715462145212e-02 -1.745454545455e-01 -5.065026118836e+01 8.799886830216e-07 -5.065020885618e+01 -1.331097293903e+02 5.430929052313e-02 7.934406298091e-09 5.430924149527e-02 -1.745447732109e-01 2.167582370870e-01 7.813673314496e+01 8.245949436809e+01  2.288540392201e-01
3.400000000000e+01 2.948648652805e-02 -1.854545454546e-01 -5.101561912361e+01 -7.965934482812e-07 -5.101529185505e+01 -1.351641763729e+02 5.897292949263e-02 7.246032100882e-09 5.897297282694e-02 -1.854529934968e-01 2.321299759530e-01 7.906502911720e+01 8.414872088407e+01  2.444259446566e-01
3.600000000000e+01 3.185302878546e-02 -1.963636363636e-01 -5.119779265478e+01 1.305694353712e-05 -5.119835180775e+01 -1.369474574007e+02 6.370621557533e-02 1.520220772411e-08 6.370605416699e-02 -1.963618694936e-01 2.475842934946e-01 7.978120062106e+01 8.574938517077e+01  2.600680043648e-01
3.800000000000e+01 3.425430214165e-02 -2.072727272727e-01 -5.126069927468e+01 1.501249153035e-05 -5.126038447306e+01 -1.384977571555e+02 6.850860791043e-02 2.100557935706e-08 6.850860430796e-02 -2.072714101681e-01 2.631231142523e-01 8.033961363440e+01 8.723721528203e+01  2.757800162773e-01
4.000000000000e+01 3.668838939013e-02 -2.181818181823e-01 -5.124833348407e+01 -9.758313163273e-07 -5.124790778704e+01 -1.398492643586e+02 7.337669599776e-02 1.696032704333e-08 7.337678027474e-02 -2.181801156921e-01 2.787420810331e-01 8.078183520990e+01 8.860114372382e+01  2.915568538284e-01
4.200000000000e+01 3.915381655413e-02 -2.290909090909e-01 -5.119123683722e+01 6.642563285100e-06 -5.119043177040e+01 -1.410305099103e+02 7.830736932582e-02 2.103780270534e-08 7.830763800315e-02 -2.290907897525e-01 2.944407815594e-01 8.113739283930e+01 8.983967560919e+01  3.073982934171e-01
4.400000000000e+01 4.164690853823e-02 -2.400000000000e-01 -5.110927290347e+01 -2.162623602186e-05 -5.111014829880e+01 -1.420658714233e+02 8.329389293707e-02 7.046282458335e-09 8.329381684829e-02 -2.399990872637e-01 3.102071862657e-01 8.142843087518e+01 9.095616082530e+01  3.232929421564e-01
4.600000000000e+01 4.416618091507e-02 -2.509090909091e-01 -5.101622798558e+01 -1.546337606432e-05 -5.101641325064e+01 -1.429742301073e+02 8.833239150148e-02 3.133395591349e-09 8.833236257582e-02 -2.509085227257e-01 3.260403828371e-01 8.166895711450e+01 9.195790948931e+01  3.392408997644e-01
4.800000000000e+01 4.670840468021e-02 -2.618181818182e-01 -5.092029805729e+01 -1.107112554657e-05 -5.092103047767e+01 -1.437740094012e+02 9.341702384797e-02 3.482583865572e-10 9.341680702762e-02 -2.618170671246e-01 3.419311008037e-01 8.187177931204e+01 9.285334513585e+01  3.552339825624e-01
5.000000000000e+01 4.927191632093e-02 -2.727272727273e-01 -5.082686857347e+01 7.178152812701e-06 -5.082652779517e+01 -1.444785766825e+02 9.854386999472e-02 6.957873601207e-09 9.854383367084e-02 -2.727270861436e-01 3.578769278667e-01 8.204399101706e+01 9.365187849869e+01  3.712709379764e-01
5.200000000000e+01 5.185352337151e-02 -2.836363636366e-01 -5.073865268014e+01 2.645035680677e-07 -5.073917049086e+01 -1.451015423537e+02 1.037072666604e-01 5.471830770866e-09 1.037070447471e-01 -2.836356165460e-01 3.738677684466e-01 8.219312184158e+01 9.436263076929e+01  3.873427722499e-01
5.400000000000e+01 5.445182512197e-02 -2.945454545455e-01 -5.065734780831e+01 2.667816261190e-06 -5.065756169622e+01 -1.456520589650e+02 1.089038715940e-01 6.919469564418e-09 1.089036481704e-01 -2.945446221915e-01 3.899014506188e-01 8.232232282317e+01 9.499460421289e+01  4.034483820737e-01
5.600000000000e+01 5.706461606634e-02 -3.054545454545e-01 -5.058342293551e+01 2.372289055574e-08 -5.058428688453e+01 -1.461399347855e+02 1.141296691004e-01 6.326210540741e-09 1.141292264714e-01 -3.054532082925e-01 4.059718879997e-01 8.243588153519e+01 9.555607987845e+01  4.195826560786e-01
5.800000000000e+01 5.969009531344e-02 -3.163636363636e-01 -5.051691884915e+01 -1.553072262517e-05 -5.051880468067e+01 -1.465725662628e+02 1.193810521750e-01 -2.414406118302e-09 1.193801773401e-01 -3.163607996587e-01 4.220740077232e-01 8.253609659753e+01 9.605470451174e+01  4.357414144169e-01
6.000000000000e+01 6.232783287960e-02 -3.272727272724e-01 -5.045758804167e+01 5.052390544832e-06 -5.045774779377e+01 -1.469550013563e+02 1.246563611160e-01 3.947455647630e-09 1.246556554758e-01 -3.272705822734e-01 4.382089464803e-01 8.262344573056e+01 9.649733343864e+01  4.519265905697e-01
6.200000000000e+01 6.497571028999e-02 -3.381818181819e-01 -5.040475676517e+01 5.318250255311e-06 -5.040439960118e+01 -1.472947010368e+02 1.299519999496e-01 5.781875468979e-09 1.299514125103e-01 -3.381801737503e-01 4.543696863077e-01 8.270128580105e+01 9.689012285413e+01  4.681318799805e-01
6.400000000000e+01 6.763257867182e-02 -3.490909090918e-01 -5.035790015855e+01 7.141945579385e-06 -5.035740672939e+01 -1.475963508403e+02 1.352656408914e-01 8.572595727092e-09 1.352651510200e-01 -3.490896213376e-01 4.705533134603e-01 8.277055257609e+01 9.723869739730e+01  4.843550172935e-01
6.600000000000e+01 7.029736779979e-02 -3.600000000000e-01 -5.031648217481e+01 -1.718808776815e-05 -5.031585879380e+01 -1.478642068412e+02 1.405951023681e-01 -2.650049562090e-09 1.405947307673e-01 -3.599987367646e-01 4.867569060641e-01 8.283218260326e+01 9.754803635836e+01  5.005936533323e-01
6.800000000000e+01 7.296915015408e-02 -3.709090909045e-01 -5.027990642194e+01 -3.258481620875e-05 -5.027917870230e+01 -1.481021129639e+02 1.459385363308e-01 -1.694337174636e-08 1.459382972166e-01 -3.709074880762e-01 5.029780723845e-01 8.288706602939e+01 9.782257040385e+01  5.168459048499e-01
7.000000000000e+01 7.564726118792e-02 -3.818181818182e-01 -5.024754176729e+01 -1.684084558713e-06 -5.024708695105e+01 -1.483135789698e+02 1.512947153218e-01 -1.050644537827e-08 1.512945206288e-01 -3.818165989354e-01 5.192158033643e-01 8.293606922938e+01 9.806626461141e+01  5.331112169107e-01
7.200000000000e+01 7.833090211079e-02 -3.927272727275e-01 -5.021901409222e+01 -1.565198515922e-06 -5.021864043601e+01 -1.485014141675e+02 1.566619456188e-01 -1.099718257708e-08 1.566618035307e-01 -3.927256085503e-01 5.354675960773e-01 8.297968956525e+01 9.828258690393e+01  5.493874831251e-01
7.400000000000e+01 8.101940548300e-02 -4.036363636364e-01 -5.019382275377e+01 7.388095542310e-06 -5.019388943784e+01 -1.486685127814e+02 1.620390124672e-01 -6.531581149076e-09 1.620388095654e-01 -4.036345473320e-01 5.517318492255e-01 8.301874165767e+01 9.847465668561e+01  5.656734583483e-01
7.600000000000e+01 8.371206137162e-02 -4.145454545454e-01 -5.017160652783e+01 3.209681958498e-06 -5.017210741585e+01 -1.488170663669e+02 1.674244539937e-01 -6.417337145174e-09 1.674241193656e-01 -4.145427520637e-01 5.680061470999e-01 8.305359343687e+01 9.864520939605e+01  5.819670387434e-01
7.800000000000e+01 8.640867013720e-02 -4.254545454546e-01 -5.015197274231e+01 2.842865054114e-05 -5.015253997483e+01 -1.489489104954e+02 1.728177709258e-01 8.655311698422e-09 1.728173353020e-01 -4.254512651555e-01 5.842908092654e-01 8.308447440420e+01 9.879665413811e+01  5.982688182696e-01
8.000000000000e+01 8.910868696259e-02 -4.363636363636e-01 -5.013465773446e+01 9.873390507598e-06 -5.013545641919e+01 -1.490662137843e+02 1.782179600014e-01 7.714058791196e-09 1.782173666847e-01 -4.363597911945e-01 6.005842468942e-01 8.311210931265e+01 9.893115670989e+01  6.145774545377e-01
8.200000000000e+01 9.181209493960e-02 -4.472727272727e-01 -5.011935483009e+01 1.216142490608e-05 -5.011935129270e+01 -1.491698996850e+02 1.836246865522e-01 1.223436658636e-08 1.836241844476e-01 -4.472693819913e-01 6.168871219462e-01 8.313620193592e+01 9.905054662359e+01  6.308938174913e-01
8.400000000000e+01 9.451818694983e-02 -4.581818181818e-01 -5.010579029145e+01 7.686102389734e-06 -5.010548002921e+01 -1.492621766683e+02 1.890367865780e-01 1.375186611973e-08 1.890363701519e-01 -4.581789309244e-01 6.331968414471e-01 8.315781566300e+01 9.915654150836e+01  6.472155092894e-01
8.600000000000e+01 9.722655018392e-02 -4.690909090909e-01 -5.009379189044e+01 -1.760398562327e-06 -5.009336192678e+01 -1.493442380522e+02 1.944534302023e-01 1.103948206504e-08 1.944530979731e-01 -4.690880009267e-01 6.495119680609e-01 8.317713062314e+01 9.925066114430e+01  6.635412650144e-01
8.800000000000e+01 9.993666462199e-02 -4.800000000000e-01 -5.008313908315e+01 -1.576337098300e-05 -5.008430775248e+01 -1.494181061768e+02 1.998740260582e-01 2.697830564492e-09 1.998733213257e-01 -4.799962304789e-01 6.658311538551e-01 8.319518433747e+01 9.933438276413e+01  6.798699041711e-01
9.000000000000e+01 1.026487949435e-01 -4.909090909084e-01 -5.007378842094e+01 -1.343782698162e-05 -5.007486632816e+01 -1.494830827686e+02 2.052984503797e-01 -1.190459791149e-09 2.052975788854e-01 -4.909047085062e-01 6.821555763501e-01 8.321057917257e+01 9.940875539846e+01  6.962027231392e-01
9.200000000000e+01 1.053626737457e-01 -5.018181818154e-01 -5.006550133124e+01 -4.619795709150e-06 -5.006607916144e+01 -1.495405731197e+02 2.107262453529e-01 -7.163320679381e-10 2.107253354573e-01 -5.018133127448e-01 6.984845029672e-01 8.322405120414e+01 9.947478287465e+01  7.125391031503e-01
9.400000000000e+01 1.080772150750e-01 -5.127272727273e-01 -5.005807644510e+01 -2.214392142214e-05 -5.006223545958e+01 -1.495938916889e+02 2.161563981375e-01 -1.193817780150e-08 2.161544016950e-01 -5.127201037719e-01 7.148142494514e-01 8.323806786452e+01 9.953373580171e+01  7.288755036901e-01
9.600000000000e+01 1.107942208601e-01 -5.236363636366e-01 -5.005165809048e+01 -2.668497713092e-05 -5.005246251396e+01 -1.496379151894e+02 2.215901669196e-01 -2.171878565539e-08 2.215884170982e-01 -5.236296025247e-01 7.311517582710e-01 8.324734526460e+01 9.958585488959e+01  7.452188945352e-01
9.800000000000e+01 1.135111483100e-01 -5.345454545455e-01 -5.004579173645e+01 -3.575787430514e-05 -5.005028815619e+01 -1.496804954538e+02 2.270251577889e-01 -3.549205353249e-08 2.270222541032e-01 -5.345360664164e-01 7.474873772589e-01 8.325885844880e+01 9.963245558356e+01  7.615597723666e-01
1.000000000000e+02 1.162302930697e-01 -5.454545454546e-01 -5.004067670364e+01 1.044349108745e-05 -5.004233545925e+01 -1.497151353121e+02 2.324634005254e-01 -2.164072786917e-08 2.324605450570e-01 -5.454455295785e-01 7.638304613045e-01 8.326604915834e+01 9.967362924104e+01  7.779075023736e-01
