 TITLE = "Profiles along polylines"
 VARIABLES = "DIST" "DISPLACEMENT_X1" "DISPLACEMENT_Y1" "STRESS_XX" "STRESS_XY" "STRESS_YY" "STRESS_ZZ" "STRAIN_XX" "STRAIN_XY" "STRAIN_YY"  p_(1st_Invariant)  q_(2nd_Invariant)   Effective_Strain
 ZONE T="TIME=0.000000000000e+00"
0.000000000000e+00 0.000000000000e+00 0.000000000000e+00 -1.070410689636e+01 1.587296668588e-07 -2.497625235208e+01 -1.070410777453e+01 0.000000000000e+00 0.000000000000e+00 0.000000000000e+00 1.546148900766e+01 1.427214501663e+01  0.000000000000e+00
5.454930089679e-01 0.000000000000e+00 0.000000000000e+00 -1.070410722825e+01 3.727323442695e-09 -2.497625094425e+01 -1.070410745175e+01 0.000000000000e+00 0.000000000000e+00 0.000000000000e+00 1.546148854142e+01 1.427214360425e+01  0.000000000000e+00
1.090986017936e+00 0.000000000000e+00 0.000000000000e+00 -1.070410725704e+01 -2.457431361859e-09 -2.497625054126e+01 -1.070410733949e+01 0.000000000000e+00 0.000000000000e+00 0.000000000000e+00 1.546148837926e+01 1.427214324300e+01  0.000000000000e+00
1.576857321493e+00 0.000000000000e+00 0.000000000000e+00 -1.070410727364e+01 1.826557662748e-10 -2.497625034495e+01 -1.070410728558e+01 0.000000000000e+00 0.000000000000e+00 0.000000000000e+00 1.546148830139e+01 1.427214306535e+01  0.000000000000e+00
2.062728625050e+00 0.000000000000e+00 0.000000000000e+00 -1.070410728168e+01 -2.435613711510e-10 -2.497625021417e+01 -1.070410724875e+01 0.000000000000e+00 0.000000000000e+00 0.000000000000e+00 1.546148824820e+01 1.427214294895e+01  0.000000000000e+00
2.495760229428e+00 0.000000000000e+00 0.000000000000e+00 -1.070410728108e+01 -7.131517929064e-12 -2.497625013371e+01 -1.070410722444e+01 0.000000000000e+00 0.000000000000e+00 0.000000000000e+00 1.546148821308e+01 1.427214288095e+01  0.000000000000e+00
2.928791833805e+00 0.000000000000e+00 0.000000000000e+00 -1.070410727751e+01 -1.330330464971e-10 -2.497625007446e+01 -1.070410720559e+01 0.000000000000e+00 0.000000000000e+00 0.000000000000e+00 1.546148818585e+01 1.427214283291e+01  0.000000000000e+00
3.314529828825e+00 0.000000000000e+00 0.000000000000e+00 -1.070410727129e+01 1.755018567847e-11 -2.497625003568e+01 -1.070410719209e+01 0.000000000000e+00 0.000000000000e+00 0.000000000000e+00 1.546148816635e+01 1.427214280398e+01  0.000000000000e+00
3.700267823845e+00 0.000000000000e+00 0.000000000000e+00 -1.070410726437e+01 -8.457143023959e-12 -2.497625000598e+01 -1.070410718110e+01 0.000000000000e+00 0.000000000000e+00 0.000000000000e+00 1.546148815048e+01 1.427214278324e+01  0.000000000000e+00
4.043939715870e+00 0.000000000000e+00 0.000000000000e+00 -1.070410725760e+01 -1.484785742565e-11 -2.497624998549e+01 -1.070410717293e+01 0.000000000000e+00 0.000000000000e+00 0.000000000000e+00 1.546148813867e+01 1.427214277023e+01  0.000000000000e+00
4.387611607894e+00 0.000000000000e+00 0.000000000000e+00 -1.070410725061e+01 -5.248943635731e-12 -2.497624996935e+01 -1.070410716599e+01 0.000000000000e+00 0.000000000000e+00 0.000000000000e+00 1.546148812865e+01 1.427214276105e+01  0.000000000000e+00
4.693805803947e+00 0.000000000000e+00 0.000000000000e+00 -1.070410724437e+01 -9.415930833451e-12 -2.497624995792e+01 -1.070410716069e+01 0.000000000000e+00 0.000000000000e+00 0.000000000000e+00 1.546148812099e+01 1.427214275539e+01  0.000000000000e+00
5.000000000000e+00 0.000000000000e+00 0.000000000000e+00 -1.070410723828e+01 -1.444013572979e-11 -2.497624994874e+01 -1.070410715611e+01 0.000000000000e+00 0.000000000000e+00 0.000000000000e+00 1.546148811438e+01 1.427214275155e+01  0.000000000000e+00
5.281293062422e+00 0.000000000000e+00 0.000000000000e+00 -1.070410723261e+01 -3.144029145092e-11 -2.497624994190e+01 -1.070410715235e+01 0.000000000000e+00 0.000000000000e+00 0.000000000000e+00 1.546148810895e+01 1.427214274942e+01  0.000000000000e+00
5.562586124843e+00 0.000000000000e+00 0.000000000000e+00 -1.070410722728e+01 -2.277289976084e-11 -2.497624993633e+01 -1.070410714908e+01 0.000000000000e+00 0.000000000000e+00 0.000000000000e+00 1.546148810423e+01 1.427214274815e+01  0.000000000000e+00
5.903654518747e+00 0.000000000000e+00 0.000000000000e+00 -1.070410722104e+01 -1.908028094271e-11 -2.497624993099e+01 -1.070410714561e+01 0.000000000000e+00 0.000000000000e+00 0.000000000000e+00 1.546148809921e+01 1.427214274766e+01  0.000000000000e+00
6.244722912650e+00 0.000000000000e+00 0.000000000000e+00 -1.070410721512e+01 -1.761684024521e-11 -2.497624992690e+01 -1.070410714261e+01 0.000000000000e+00 0.000000000000e+00 0.000000000000e+00 1.546148809488e+01 1.427214274804e+01  0.000000000000e+00
6.658257388739e+00 0.000000000000e+00 0.000000000000e+00 -1.070410720840e+01 -9.435346132405e-12 -2.497624992328e+01 -1.070410713950e+01 0.000000000000e+00 0.000000000000e+00 0.000000000000e+00 1.546148809039e+01 1.427214274933e+01  0.000000000000e+00
7.071791864828e+00 0.000000000000e+00 0.000000000000e+00 -1.070410720216e+01 -2.794554176901e-12 -2.497624992079e+01 -1.070410713688e+01 0.000000000000e+00 0.000000000000e+00 0.000000000000e+00 1.546148808661e+01 1.427214275127e+01  0.000000000000e+00
7.573083389471e+00 0.000000000000e+00 0.000000000000e+00 -1.070410719524e+01 -1.480227615082e-11 -2.497624991893e+01 -1.070410713425e+01 0.000000000000e+00 0.000000000000e+00 0.000000000000e+00 1.546148808281e+01 1.427214275418e+01  0.000000000000e+00
8.074374914115e+00 0.000000000000e+00 0.000000000000e+00 -1.070410718898e+01 -1.519080108384e-11 -2.497624991804e+01 -1.070410713211e+01 0.000000000000e+00 0.000000000000e+00 0.000000000000e+00 1.546148807971e+01 1.427214275750e+01  0.000000000000e+00
8.682563631455e+00 0.000000000000e+00 0.000000000000e+00 -1.070410718210e+01 -1.359410158176e-11 -2.497624991796e+01 -1.070410713002e+01 0.000000000000e+00 0.000000000000e+00 0.000000000000e+00 1.546148807669e+01 1.427214276191e+01  0.000000000000e+00
9.290752348795e+00 0.000000000000e+00 0.000000000000e+00 -1.070410717601e+01 -1.325283389278e-11 -2.497624991862e+01 -1.070410712839e+01 0.000000000000e+00 0.000000000000e+00 0.000000000000e+00 1.546148807434e+01 1.427214276642e+01  0.000000000000e+00
1.002772910440e+01 0.000000000000e+00 0.000000000000e+00 -1.070410716949e+01 2.081229406281e-11 -2.497624992011e+01 -1.070410712688e+01 0.000000000000e+00 0.000000000000e+00 0.000000000000e+00 1.546148807216e+01 1.427214277193e+01  0.000000000000e+00
1.076470585999e+01 0.000000000000e+00 0.000000000000e+00 -1.070410716408e+01 -1.724472429876e-11 -2.497624992189e+01 -1.070410712579e+01 0.000000000000e+00 0.000000000000e+00 0.000000000000e+00 1.546148807059e+01 1.427214277695e+01  0.000000000000e+00
1.165833906230e+01 0.000000000000e+00 0.000000000000e+00 -1.070410715813e+01 -6.697768934412e-11 -2.497624992458e+01 -1.070410712481e+01 0.000000000000e+00 0.000000000000e+00 0.000000000000e+00 1.546148806918e+01 1.427214278311e+01  0.000000000000e+00
1.255197226460e+01 0.000000000000e+00 0.000000000000e+00 -1.070410715313e+01 -5.549805128712e-11 -2.497624992754e+01 -1.070410712420e+01 0.000000000000e+00 0.000000000000e+00 0.000000000000e+00 1.546148806829e+01 1.427214278887e+01  0.000000000000e+00
1.363578457093e+01 0.000000000000e+00 0.000000000000e+00 -1.070410714800e+01 -5.457836364693e-11 -2.497624993126e+01 -1.070410712378e+01 0.000000000000e+00 0.000000000000e+00 0.000000000000e+00 1.546148806768e+01 1.427214279537e+01  0.000000000000e+00
1.471959687725e+01 0.000000000000e+00 0.000000000000e+00 -1.070410714368e+01 -4.790671400434e-11 -2.497624993502e+01 -1.070410712361e+01 0.000000000000e+00 0.000000000000e+00 0.000000000000e+00 1.546148806744e+01 1.427214280138e+01  0.000000000000e+00
1.603364479030e+01 0.000000000000e+00 0.000000000000e+00 -1.070410713927e+01 7.445358115549e-12 -2.497624993950e+01 -1.070410712363e+01 0.000000000000e+00 0.000000000000e+00 0.000000000000e+00 1.546148806747e+01 1.427214280805e+01  0.000000000000e+00
1.734769270334e+01 0.000000000000e+00 0.000000000000e+00 -1.070410713565e+01 4.982786990225e-11 -2.497624994378e+01 -1.070410712383e+01 0.000000000000e+00 0.000000000000e+00 0.000000000000e+00 1.546148806775e+01 1.427214281404e+01  0.000000000000e+00
1.894091660434e+01 0.000000000000e+00 0.000000000000e+00 -1.070410713199e+01 6.191364842590e-11 -2.497624994871e+01 -1.070410712421e+01 0.000000000000e+00 0.000000000000e+00 0.000000000000e+00 1.546148806831e+01 1.427214282061e+01  0.000000000000e+00
2.053414050534e+01 0.000000000000e+00 0.000000000000e+00 -1.070410712907e+01 2.594126303583e-12 -2.497624995332e+01 -1.070410712471e+01 0.000000000000e+00 0.000000000000e+00 0.000000000000e+00 1.546148806903e+01 1.427214282643e+01  0.000000000000e+00
2.246588672828e+01 0.000000000000e+00 0.000000000000e+00 -1.070410712593e+01 -2.741685449812e-11 -2.497624995855e+01 -1.070410712534e+01 0.000000000000e+00 0.000000000000e+00 0.000000000000e+00 1.546148806994e+01 1.427214283291e+01  0.000000000000e+00
2.439763295123e+01 0.000000000000e+00 0.000000000000e+00 -1.070410712346e+01 -1.560589462555e-11 -2.497624996332e+01 -1.070410712603e+01 0.000000000000e+00 0.000000000000e+00 0.000000000000e+00 1.546148807094e+01 1.427214283857e+01  0.000000000000e+00
2.674066075506e+01 0.000000000000e+00 0.000000000000e+00 -1.070410712101e+01 1.130769724174e-11 -2.497624996853e+01 -1.070410712686e+01 0.000000000000e+00 0.000000000000e+00 0.000000000000e+00 1.546148807213e+01 1.427214284459e+01  0.000000000000e+00
2.908368855890e+01 0.000000000000e+00 0.000000000000e+00 -1.070410711907e+01 6.849529674776e-12 -2.497624997311e+01 -1.070410712765e+01 0.000000000000e+00 0.000000000000e+00 0.000000000000e+00 1.546148807328e+01 1.427214284974e+01  0.000000000000e+00
3.192363373876e+01 0.000000000000e+00 0.000000000000e+00 -1.070410711716e+01 -1.148262546658e-11 -2.497624997788e+01 -1.070410712851e+01 0.000000000000e+00 0.000000000000e+00 0.000000000000e+00 1.546148807452e+01 1.427214285505e+01  0.000000000000e+00
3.476357891862e+01 0.000000000000e+00 0.000000000000e+00 -1.070410711570e+01 -7.718652168601e-12 -2.497624998190e+01 -1.070410712928e+01 0.000000000000e+00 0.000000000000e+00 0.000000000000e+00 1.546148807563e+01 1.427214285941e+01  0.000000000000e+00
3.820666078923e+01 0.000000000000e+00 0.000000000000e+00 -1.070410711439e+01 -3.292353196545e-12 -2.497624998577e+01 -1.070410713005e+01 0.000000000000e+00 0.000000000000e+00 0.000000000000e+00 1.546148807673e+01 1.427214286355e+01  0.000000000000e+00
4.164974265985e+01 0.000000000000e+00 0.000000000000e+00 -1.070410711349e+01 -3.587921611424e-12 -2.497624998860e+01 -1.070410713063e+01 0.000000000000e+00 0.000000000000e+00 0.000000000000e+00 1.546148807757e+01 1.427214286654e+01  0.000000000000e+00
4.582487132993e+01 0.000000000000e+00 0.000000000000e+00 -1.070410711286e+01 1.547230452546e-11 -2.497624999071e+01 -1.070410713107e+01 0.000000000000e+00 0.000000000000e+00 0.000000000000e+00 1.546148807821e+01 1.427214286874e+01  0.000000000000e+00
5.000000000000e+01 0.000000000000e+00 0.000000000000e+00 -1.070410711261e+01 3.610177736470e-11 -2.497624999152e+01 -1.070410713124e+01 0.000000000000e+00 0.000000000000e+00 0.000000000000e+00 1.546148807845e+01 1.427214286959e+01  0.000000000000e+00
 TITLE = "Profiles along polylines"
 VARIABLES = "DIST" "DISPLACEMENT_X1" "DISPLACEMENT_Y1" "STRESS_XX" "STRESS_XY" "STRESS_YY" "STRESS_ZZ" "STRAIN_XX" "STRAIN_XY" "STRAIN_YY"  p_(1st_Invariant)  q_(2nd_Invariant)   Effective_Strain
 ZONE T="TIME=1.000000000000e-01"
0.000000000000e+00 0.000000000000e+00 0.000000000000e+00 0.000000000000e+00 0.000000000000e+00 0.000000000000e+00 0.000000000000e+00 0.000000000000e+00 0.000000000000e+00 0.000000000000e+00 -0.000000000000e+00 0.000000000000e+00  0.000000000000e+00
5.454930089679e-01 0.000000000000e+00 0.000000000000e+00 0.000000000000e+00 0.000000000000e+00 0.000000000000e+00 0.000000000000e+00 0.000000000000e+00 0.000000000000e+00 0.000000000000e+00 -0.000000000000e+00 0.000000000000e+00  0.000000000000e+00
1.090986017936e+00 0.000000000000e+00 0.000000000000e+00 0.000000000000e+00 0.000000000000e+00 0.000000000000e+00 0.000000000000e+00 0.000000000000e+00 0.000000000000e+00 0.000000000000e+00 -0.000000000000e+00 0.000000000000e+00  0.000000000000e+00
1.576857321493e+00 0.000000000000e+00 0.000000000000e+00 0.000000000000e+00 0.000000000000e+00 0.000000000000e+00 0.000000000000e+00 0.000000000000e+00 0.000000000000e+00 0.000000000000e+00 -0.000000000000e+00 0.000000000000e+00  0.000000000000e+00
2.062728625050e+00 0.000000000000e+00 0.000000000000e+00 0.000000000000e+00 0.000000000000e+00 0.000000000000e+00 0.000000000000e+00 0.000000000000e+00 0.000000000000e+00 0.000000000000e+00 -0.000000000000e+00 0.000000000000e+00  0.000000000000e+00
2.495760229428e+00 0.000000000000e+00 0.000000000000e+00 0.000000000000e+00 0.000000000000e+00 0.000000000000e+00 0.000000000000e+00 0.000000000000e+00 0.000000000000e+00 0.000000000000e+00 -0.000000000000e+00 0.000000000000e+00  0.000000000000e+00
2.928791833805e+00 0.000000000000e+00 0.000000000000e+00 0.000000000000e+00 0.000000000000e+00 0.000000000000e+00 0.000000000000e+00 0.000000000000e+00 0.000000000000e+00 0.000000000000e+00 -0.000000000000e+00 0.000000000000e+00  0.000000000000e+00
3.314529828825e+00 0.000000000000e+00 0.000000000000e+00 0.000000000000e+00 0.000000000000e+00 0.000000000000e+00 0.000000000000e+00 0.000000000000e+00 0.000000000000e+00 0.000000000000e+00 -0.000000000000e+00 0.000000000000e+00  0.000000000000e+00
3.700267823845e+00 0.000000000000e+00 0.000000000000e+00 0.000000000000e+00 0.000000000000e+00 0.000000000000e+00 0.000000000000e+00 0.000000000000e+00 0.000000000000e+00 0.000000000000e+00 -0.000000000000e+00 0.000000000000e+00  0.000000000000e+00
4.043939715870e+00 0.000000000000e+00 0.000000000000e+00 0.000000000000e+00 0.000000000000e+00 0.000000000000e+00 0.000000000000e+00 0.000000000000e+00 0.000000000000e+00 0.000000000000e+00 -0.000000000000e+00 0.000000000000e+00  0.000000000000e+00
4.387611607894e+00 0.000000000000e+00 0.000000000000e+00 0.000000000000e+00 0.000000000000e+00 0.000000000000e+00 0.000000000000e+00 0.000000000000e+00 0.000000000000e+00 0.000000000000e+00 -0.000000000000e+00 0.000000000000e+00  0.000000000000e+00
4.693805803947e+00 0.000000000000e+00 0.000000000000e+00 0.000000000000e+00 0.000000000000e+00 0.000000000000e+00 0.000000000000e+00 0.000000000000e+00 0.000000000000e+00 0.000000000000e+00 -0.000000000000e+00 0.000000000000e+00  0.000000000000e+00
5.000000000000e+00 1.147789226500e-03 0.000000000000e+00 -1.035234517314e+01 5.730611090708e-01 -5.456408927611e+01 -1.947493033478e+01 4.743744326784e-04 5.959835534553e-05 -1.082484839732e-03 2.813045492801e+01 4.044205327426e+01  1.385988295130e-03
5.281293062422e+00 1.259480148214e-03 0.000000000000e+00 -1.158265610586e+01 -3.847033493446e-02 -4.884240311827e+01 -1.812751776724e+01 3.403328105651e-04 -4.000914829914e-06 -8.550226131971e-04 2.618419233045e+01 3.445676293213e+01  1.066738188137e-03
5.562586124843e+00 1.345617791545e-03 0.000000000000e+00 -1.242674563976e+01 -6.687745842051e-03 -4.618025451381e+01 -1.758210004607e+01 2.680784331945e-04 -6.955255652049e-07 -7.449526073858e-04 2.539636673322e+01 3.149390216916e+01  9.091356404049e-04
5.903654518747e+00 1.423081173655e-03 0.000000000000e+00 -1.343235730901e+01 5.379673406604e-03 -4.334705899277e+01 -1.703382489053e+01 1.872763181620e-04 5.594860362712e-07 -6.261367484768e-04 2.460441373077e+01 2.828644912439e+01  7.378219101734e-04
6.244722912650e+00 1.475805313956e-03 0.000000000000e+00 -1.418599955304e+01 5.097454191664e-03 -4.094291392348e+01 -1.653867404295e+01 1.223390772464e-04 5.301352377652e-07 -5.268690490039e-04 2.388919583982e+01 2.566159215572e+01  5.975076242482e-04
6.658257388739e+00 1.513932758332e-03 0.000000000000e+00 -1.479310472515e+01 1.545881093985e-03 -3.854028825063e+01 -1.600001789273e+01 6.275948829678e-05 1.607716347558e-07 -4.299426338541e-04 2.311113695617e+01 2.316731714001e+01  4.645131634485e-04
7.071791864828e+00 1.530855075655e-03 0.000000000000e+00 -1.515530772219e+01 -4.912233349014e-04 -3.658681163173e+01 -1.552263580617e+01 1.910106376134e-05 -5.108722653911e-08 -3.531857181655e-04 2.242158505336e+01 2.125022110948e+01  3.631132507977e-04
7.573083389471e+00 1.531101582106e-03 0.000000000000e+00 -1.535849870073e+01 5.485833015909e-04 -3.469710172323e+01 -1.501668012719e+01 -1.777456265277e-05 5.705266490489e-08 -2.812304981908e-04 2.169076018372e+01 1.951175802949e+01  2.727779112120e-04
8.074374914115e+00 1.516094224627e-03 0.000000000000e+00 -1.539268402229e+01 2.712370347573e-04 -3.320514211277e+01 -1.457934784052e+01 -4.229347849482e-05 2.820865319461e-08 -2.263898772883e-04 2.105905799186e+01 1.823273692679e+01  2.084857353452e-04
8.682563631455e+00 1.484787419943e-03 0.000000000000e+00 -1.529412747654e+01 -2.658837320004e-04 -3.179077193261e+01 -1.412546982274e+01 -6.077019528937e-05 -2.765190671425e-08 -1.764442847397e-04 2.040345641063e+01 1.711093127329e+01  1.552515729562e-04
9.290752348795e+00 1.444915844770e-03 0.000000000000e+00 -1.510579907016e+01 3.074153818568e-04 -3.070462730395e+01 -1.374312791223e+01 -7.085889773574e-05 3.197120109140e-08 -1.398465432775e-04 1.985118476212e+01 1.632287929770e+01  1.211142857498e-04
1.002772910440e+01 1.390758016775e-03 0.000000000000e+00 -1.482074843122e+01 -1.403108508689e-03 -2.970682547507e+01 -1.335827217189e+01 -7.604876326943e-05 -1.459232870682e-07 -1.079733465176e-04 1.929528202606e+01 1.566858853701e+01  9.607539937524e-05
1.076470585999e+01 1.334269778635e-03 0.000000000000e+00 -1.454535147755e+01 -3.351403619524e-03 -2.893118064439e+01 -1.304295963658e+01 -7.812437373938e-05 -3.485459746371e-07 -8.403606700878e-05 1.883983058617e+01 1.519284200282e+01  8.124393932339e-05
1.165833906230e+01 1.266007988277e-03 0.000000000000e+00 -1.418948698017e+01 -4.764586309784e-03 -2.824588602655e+01 -1.273061190202e+01 -7.586150233152e-05 -4.955169692519e-07 -6.464282888787e-05 1.838866163625e+01 1.483971930348e+01  7.092599917822e-05
1.255197226460e+01 1.200226999989e-03 0.000000000000e+00 -1.386724896873e+01 -4.605134734280e-03 -2.772614586259e+01 -1.247801844940e+01 -7.223998550079e-05 -4.789340065934e-07 -5.075119971272e-05 1.802380442690e+01 1.460315892886e+01  6.425513193036e-05
1.363578457093e+01 1.125175290371e-03 0.000000000000e+00 -1.352007201523e+01 -4.903215457536e-03 -2.725223918177e+01 -1.223169335910e+01 -6.699568885917e-05 -5.099344019076e-07 -3.891695678978e-05 1.766800151870e+01 1.441959215289e+01  5.827918687097e-05
1.471959687725e+01 1.055775813975e-03 0.000000000000e+00 -1.322037272544e+01 -4.097607515208e-03 -2.689902540404e+01 -1.203581943884e+01 -6.159676985945e-05 -4.261511765993e-07 -3.073528399671e-05 1.738507252277e+01 1.430775485352e+01  5.334951114155e-05
1.603364479030e+01 9.790519219372e-04 0.000000000000e+00 -1.291356476342e+01 3.982935112257e-04 -2.657840679909e+01 -1.184759146875e+01 -5.543061050916e-05 4.142252439316e-08 -2.385097075241e-05 1.711318767709e+01 1.422780953227e+01  4.815965806237e-05
1.734769270334e+01 9.097401627158e-04 0.000000000000e+00 -1.266338090227e+01 3.826986070045e-03 -2.632733570985e+01 -1.169721498364e+01 -5.024062715457e-05 3.980065461026e-07 -1.861485112547e-05 1.689597719859e+01 1.417176167426e+01  4.399871284489e-05
1.894091660434e+01 8.342337893801e-04 0.000000000000e+00 -1.241796559716e+01 5.027080533492e-03 -2.609773088142e+01 -1.155470894357e+01 -4.488934558196e-05 5.228163690441e-07 -1.408571389381e-05 1.669013514072e+01 1.413118588435e+01  3.977414002583e-05
2.053414050534e+01 7.665065075896e-04 0.000000000000e+00 -1.223735553688e+01 -7.160311873967e-04 -2.592250200795e+01 -1.144795726345e+01 -4.104870999203e-05 -7.446724375905e-08 -1.052489962673e-05 1.653593826942e+01 1.409643274388e+01  3.692902906659e-05
2.246588672828e+01 6.929617426475e-04 0.000000000000e+00 -1.203327759747e+01 -2.793516635752e-03 -2.576583784616e+01 -1.133973463309e+01 -3.606423411723e-05 -2.905257272668e-07 -8.005939752986e-06 1.637961669224e+01 1.409213811960e+01  3.280623696502e-05
2.439763295123e+01 6.268355877127e-04 0.000000000000e+00 -1.188665544926e+01 -1.394073005360e-03 -2.564192782128e+01 -1.125857498116e+01 -3.266018447498e-05 -1.449835909345e-07 -5.782920147173e-06 1.626238608390e+01 1.407982339532e+01  3.018810423465e-05
2.674066075506e+01 5.542006620003e-04 0.000000000000e+00 -1.174859200056e+01 5.697627673612e-04 -2.552525801635e+01 -1.118215500507e+01 -2.945472406957e-05 5.925532662956e-08 -3.689928819801e-06 1.615200167399e+01 1.406843956024e+01  2.779426277251e-05
2.908368855890e+01 4.877765517773e-04 0.000000000000e+00 -1.165297479664e+01 1.194025377687e-04 -2.542795948510e+01 -1.112428028452e+01 -2.749211507646e-05 1.241786321559e-08 -1.639890466408e-06 1.606840485542e+01 1.404679607264e+01  2.670996138735e-05
3.192363373876e+01 4.132073242802e-04 0.000000000000e+00 -1.155733906114e+01 -1.177721207630e-03 -2.533953115052e+01 -1.106906106350e+01 -2.539045646797e-05 -1.224830043993e-07 8.698364214089e-08 1.598864375839e+01 1.403270392723e+01  2.543494459290e-05
3.476357891862e+01 3.432291739773e-04 0.000000000000e+00 -1.149146990530e+01 -7.570118884011e-04 -2.527083991583e+01 -1.102869294634e+01 -2.406440257226e-05 -7.872923559098e-08 1.559785922712e-06 1.593033425582e+01 1.401648947026e+01  2.488136480447e-05
3.820666078923e+01 2.624059389163e-04 0.000000000000e+00 -1.143599081528e+01 -3.391323324617e-04 -2.520790427296e+01 -1.099316852647e+01 -2.302675983209e-05 -3.526976223361e-08 2.985169679854e-06 1.587902120491e+01 1.399857858674e+01  2.465533255762e-05
4.164974265985e+01 1.843360097502e-04 0.000000000000e+00 -1.140010177199e+01 -4.279239843375e-05 -2.516329793997e+01 -1.096901991359e+01 -2.241625752831e-05 -4.450409063966e-09 4.048971243035e-06 1.584413987518e+01 1.398372141148e+01  2.469100263719e-05
4.582487132993e+01 9.168558607670e-05 0.000000000000e+00 -1.137457316198e+01 3.549671684844e-04 -2.513144838357e+01 -1.095180646367e+01 -2.198386925914e-05 3.691658391325e-08 4.810048865877e-06 1.581927600307e+01 1.397305609515e+01  2.474216343804e-05
5.000000000000e+01 0.000000000000e+00 0.000000000000e+00 -1.137094922220e+01 1.431489099209e-03 -2.511721268399e+01 -1.094644857186e+01 -2.207403478641e-05 1.488748625631e-07 5.271694903549e-06 1.581153682601e+01 1.396335432086e+01  2.512942193458e-05
 ZONE T="TIME=2.000000000000e-01"
0.000000000000e+00 0.000000000000e+00 0.000000000000e+00 0.000000000000e+00 0.000000000000e+00 0.000000000000e+00 0.000000000000e+00 0.000000000000e+00 0.000000000000e+00 0.000000000000e+00 -0.000000000000e+00 0.000000000000e+00  0.000000000000e+00
5.454930089679e-01 0.000000000000e+00 0.000000000000e+00 0.000000000000e+00 0.000000000000e+00 0.000000000000e+00 0.000000000000e+00 0.000000000000e+00 0.000000000000e+00 0.000000000000e+00 -0.000000000000e+00 0.000000000000e+00  0.000000000000e+00
1.090986017936e+00 0.000000000000e+00 0.000000000000e+00 0.000000000000e+00 0.000000000000e+00 0.000000000000e+00 0.000000000000e+00 0.000000000000e+00 0.000000000000e+00 0.000000000000e+00 -0.000000000000e+00 0.000000000000e+00  0.000000000000e+00
1.576857321493e+00 0.000000000000e+00 0.000000000000e+00 0.000000000000e+00 0.000000000000e+00 0.000000000000e+00 0.000000000000e+00 0.000000000000e+00 0.000000000000e+00 0.000000000000e+00 -0.000000000000e+00 0.000000000000e+00  0.000000000000e+00
2.062728625050e+00 0.000000000000e+00 0.000000000000e+00 0.000000000000e+00 0.000000000000e+00 0.000000000000e+00 0.000000000000e+00 0.000000000000e+00 0.000000000000e+00 0.000000000000e+00 -0.000000000000e+00 0.000000000000e+00  0.000000000000e+00
2.495760229428e+00 0.000000000000e+00 0.000000000000e+00 0.000000000000e+00 0.000000000000e+00 0.000000000000e+00 0.000000000000e+00 0.000000000000e+00 0.000000000000e+00 0.000000000000e+00 -0.000000000000e+00 0.000000000000e+00  0.000000000000e+00
2.928791833805e+00 0.000000000000e+00 0.000000000000e+00 0.000000000000e+00 0.000000000000e+00 0.000000000000e+00 0.000000000000e+00 0.000000000000e+00 0.000000000000e+00 0.000000000000e+00 -0.000000000000e+00 0.000000000000e+00  0.000000000000e+00
3.314529828825e+00 0.000000000000e+00 0.000000000000e+00 0.000000000000e+00 0.000000000000e+00 0.000000000000e+00 0.000000000000e+00 0.000000000000e+00 0.000000000000e+00 0.000000000000e+00 -0.000000000000e+00 0.000000000000e+00  0.000000000000e+00
3.700267823845e+00 0.000000000000e+00 0.000000000000e+00 0.000000000000e+00 0.000000000000e+00 0.000000000000e+00 0.000000000000e+00 0.000000000000e+00 0.000000000000e+00 0.000000000000e+00 -0.000000000000e+00 0.000000000000e+00  0.000000000000e+00
4.043939715870e+00 0.000000000000e+00 0.000000000000e+00 0.000000000000e+00 0.000000000000e+00 0.000000000000e+00 0.000000000000e+00 0.000000000000e+00 0.000000000000e+00 0.000000000000e+00 -0.000000000000e+00 0.000000000000e+00  0.000000000000e+00
4.387611607894e+00 0.000000000000e+00 0.000000000000e+00 0.000000000000e+00 0.000000000000e+00 0.000000000000e+00 0.000000000000e+00 0.000000000000e+00 0.000000000000e+00 0.000000000000e+00 -0.000000000000e+00 0.000000000000e+00  0.000000000000e+00
4.693805803947e+00 0.000000000000e+00 0.000000000000e+00 0.000000000000e+00 0.000000000000e+00 0.000000000000e+00 0.000000000000e+00 0.000000000000e+00 0.000000000000e+00 0.000000000000e+00 -0.000000000000e+00 0.000000000000e+00  0.000000000000e+00
5.000000000000e+00 8.829010836377e-04 0.000000000000e+00 -9.378710936158e+00 6.502707640732e-01 -5.626480099310e+01 -1.969305357878e+01 5.363458216897e-04 6.762815946578e-05 -1.159579440327e-03 2.844552183601e+01 4.268911410602e+01  1.505970653920e-03
5.281293062422e+00 1.009454733487e-03 0.000000000000e+00 -1.075550868871e+01 -4.309552238604e-02 -4.989233296438e+01 -1.819435249593e+01 3.868198821486e-04 -4.481934324878e-06 -9.061435593030e-04 2.628073138300e+01 3.599861470040e+01  1.149478307458e-03
5.562586124843e+00 1.107859594289e-03 0.000000000000e+00 -1.168179624738e+01 -7.699728392609e-03 -4.701622208320e+01 -1.760940549917e+01 3.082356851598e-04 -8.007717504630e-07 -7.870030374327e-04 2.543580794325e+01 3.277513858026e+01  9.782470867354e-04
5.903654518747e+00 1.197909416981e-03 0.000000000000e+00 -1.278262244280e+01 5.750444549420e-03 -4.399318979768e+01 -1.703274367214e+01 2.210063078486e-04 5.980462351240e-07 -6.597917736883e-04 2.460285197087e+01 2.931747685913e+01  7.937179534099e-04
6.244722912650e+00 1.261353353076e-03 0.000000000000e+00 -1.360568717381e+01 5.392000382405e-03 -4.145653072458e+01 -1.651866536952e+01 1.514748699475e-04 5.607680416022e-07 -5.546175736801e-04 2.386029442264e+01 2.651463964839e+01  6.438608991752e-04
6.658257388739e+00 1.310722230434e-03 0.000000000000e+00 -1.427267078318e+01 1.558371299902e-03 -3.894516239724e+01 -1.596534995413e+01 8.801932047190e-05 1.620706161711e-07 -4.527988222858e-04 2.306106104485e+01 2.387120440734e+01  5.026224205986e-04
7.071791864828e+00 1.337522898066e-03 0.000000000000e+00 -1.467927707181e+01 -5.920260790221e-04 -3.691831073330e+01 -1.547927634153e+01 4.159996541981e-05 -6.157071192766e-08 -3.726783636086e-04 2.235895471554e+01 2.185002076409e+01  3.951242060879e-04
7.573083389471e+00 1.348427016935e-03 0.000000000000e+00 -1.492458753556e+01 4.632703361767e-04 -3.496842890102e+01 -1.496790493097e+01 2.252507733261e-06 4.818011650181e-08 -2.978758216393e-04 2.162030712252e+01 2.002221782727e+01  2.990084504895e-04
8.074374914115e+00 1.342982825987e-03 0.000000000000e+00 -1.499345859349e+01 1.587221055936e-04 -3.343512612084e+01 -1.452857541430e+01 -2.417392236065e-05 1.650710056158e-08 -2.409892118714e-04 2.098572004288e+01 1.867844850797e+01  2.298576191485e-04
8.682563631455e+00 1.322122894043e-03 0.000000000000e+00 -1.493107854066e+01 -3.130795649763e-04 -3.198508200585e+01 -1.407484816395e+01 -4.452397688091e-05 -3.256027334375e-08 -1.891807348053e-04 2.033033623682e+01 1.749783760223e+01  1.713145045129e-04
9.290752348795e+00 1.291659894596e-03 0.000000000000e+00 -1.477425157263e+01 3.305567121696e-04 -3.087306961992e+01 -1.369419635777e+01 -5.616286869663e-05 3.437789944393e-08 -1.511499845403e-04 1.978050585011e+01 1.666511549615e+01  1.323312981008e-04
1.002772910440e+01 1.247742225111e-03 0.000000000000e+00 -1.452280464087e+01 -1.539573298002e-03 -2.985166299136e+01 -1.331234028967e+01 -6.294414404668e-05 -1.601156251567e-07 -1.178933552400e-04 1.922893597397e+01 1.596853675086e+01  1.021772433381e-04
1.076470585999e+01 1.200417848832e-03 0.000000000000e+00 -1.427618274770e+01 -3.385634789135e-03 -2.905824229915e+01 -1.300032751405e+01 -6.634447015825e-05 -3.521060162766e-07 -9.286014342800e-05 1.877825085363e+01 1.545952436494e+01  8.285052733349e-05
1.165833906230e+01 1.142054311050e-03 0.000000000000e+00 -1.395097022795e+01 -4.502823600183e-03 -2.835628349165e+01 -1.269217611588e+01 -6.545729209543e-05 -4.682936474534e-07 -7.238215795194e-05 1.833314327850e+01 1.507418313498e+01  6.918490962276e-05
1.255197226460e+01 1.085045325982e-03 0.000000000000e+00 -1.365457026347e+01 -4.370825938253e-03 -2.782302836849e+01 -1.244327958959e+01 -6.298711353726e-05 -4.545658918065e-07 -5.759551072954e-05 1.797362607385e+01 1.481130003236e+01  6.047697284789e-05
1.363578457093e+01 1.019378043110e-03 0.000000000000e+00 -1.333363283841e+01 -4.644098763705e-03 -2.733599512076e+01 -1.220088838775e+01 -5.890271017467e-05 -4.829862657491e-07 -4.487412412744e-05 1.762350544897e+01 1.460172669074e+01  5.329829811076e-05
1.471959687725e+01 9.582247362460e-04 0.000000000000e+00 -1.305560174220e+01 -3.848739149399e-03 -2.697227535077e+01 -1.200836312789e+01 -5.445640690053e-05 -4.002688665552e-07 -3.597200939624e-05 1.734541340695e+01 1.446874685198e+01  4.796936498750e-05
1.603364479030e+01 8.902549251207e-04 0.000000000000e+00 -1.277040747700e+01 3.541056523852e-04 -2.664150493363e+01 -1.182357372319e+01 -4.923535438490e-05 3.682698707374e-08 -2.838099651764e-05 1.707849537794e+01 1.436793173909e+01  4.280486808856e-05