 TITLE = "Profiles along polylines"
 VARIABLES = "DIST" "DISPLACEMENT_X1" "DISPLACEMENT_Y1" "STRESS_XX" "STRESS_XY" "STRESS_YY" "STRESS_ZZ" "STRAIN_XX" "STRAIN_XY" "STRAIN_YY"  p_(1st_Invariant)  q_(2nd_Invariant)   Effective_Strain
 ZONE T="TIME=0.000000000000e+00"
0.000000000000e+00 0.000000000000e+00 0.000000000000e+00 -1.070410689636e+01 1.587296668588e-07 -2.497625235208e+01 -1.070410777453e+01 0.000000000000e+00 0.000000000000e+00 0.000000000000e+00 1.546148900766e+01 1.427214501663e+01  0.000000000000e+00
5.454930089679e-01 0.000000000000e+00 0.000000000000e+00 -1.070005286987e+01 1.584135989507e-07 -2.496679118094e+01 -1.070005321524e+01 0.000000000000e+00 0.000000000000e+00 0.000000000000e+00 1.545563242202e+01 1.426673813838e+01  0.000000000000e+00
1.090986017936e+00 0.000000000000e+00 0.000000000000e+00 -1.069599870066e+01 1.383439944389e-07 -2.495733099943e+01 -1.069599891003e+01 0.000000000000e+00 0.000000000000e+00 0.000000000000e+00 1.544977620337e+01 1.426133219409e+01  0.000000000000e+00
1.576857321493e+00 0.000000000000e+00 0.000000000000e+00 -1.069238764065e+01 1.245822982519e-07 -2.494890489993e+01 -1.069238776217e+01 0.000000000000e+00 0.000000000000e+00 0.000000000000e+00 1.544456010092e+01 1.425651719851e+01  0.000000000000e+00
2.062728625050e+00 0.000000000000e+00 0.000000000000e+00 -1.068877656480e+01 1.015689037283e-07 -2.494047886785e+01 -1.068877662980e+01 0.000000000000e+00 0.000000000000e+00 0.000000000000e+00 1.543934402082e+01 1.425170227056e+01  0.000000000000e+00
2.495760229428e+00 0.000000000000e+00 0.000000000000e+00 -1.068555819265e+01 8.167564560780e-08 -2.493296922184e+01 -1.068555822435e+01 0.000000000000e+00 0.000000000000e+00 0.000000000000e+00 1.543469521294e+01 1.424741101334e+01  0.000000000000e+00
2.928791833805e+00 0.000000000000e+00 0.000000000000e+00 -1.068233981430e+01 5.970929850005e-08 -2.492545960367e+01 -1.068233982539e+01 0.000000000000e+00 0.000000000000e+00 0.000000000000e+00 1.543004641445e+01 1.424311978382e+01  0.000000000000e+00
3.314529828825e+00 0.000000000000e+00 0.000000000000e+00 -1.067947292720e+01 4.263035594801e-08 -2.491877016561e+01 -1.067947292784e+01 0.000000000000e+00 0.000000000000e+00 0.000000000000e+00 1.542590534022e+01 1.423929723809e+01  0.000000000000e+00
3.700267823845e+00 0.000000000000e+00 0.000000000000e+00 -1.067660603756e+01 2.701101332405e-08 -2.491208074015e+01 -1.067660603331e+01 0.000000000000e+00 0.000000000000e+00 0.000000000000e+00 1.542176427034e+01 1.423547470472e+01  0.000000000000e+00
4.043939715870e+00 0.000000000000e+00 0.000000000000e+00 -1.067405179131e+01 1.585256633589e-08 -2.490612082874e+01 -1.067405178602e+01 0.000000000000e+00 0.000000000000e+00 0.000000000000e+00 1.541807480202e+01 1.423206904008e+01  0.000000000000e+00
4.387611607894e+00 0.000000000000e+00 0.000000000000e+00 -1.067149754497e+01 6.991465688825e-09 -2.490016092374e+01 -1.067149754061e+01 0.000000000000e+00 0.000000000000e+00 0.000000000000e+00 1.541438533644e+01 1.422866338094e+01  0.000000000000e+00
4.693805803947e+00 0.000000000000e+00 0.000000000000e+00 -1.066922184182e+01 1.108182011317e-09 -2.489485095504e+01 -1.066922183906e+01 0.000000000000e+00 0.000000000000e+00 0.000000000000e+00 1.541109821198e+01 1.422562911460e+01  0.000000000000e+00
5.000000000000e+00 0.000000000000e+00 0.000000000000e+00 -1.066694613960e+01 -3.159871459836e-09 -2.488954098913e+01 -1.066694613862e+01 0.000000000000e+00 0.000000000000e+00 0.000000000000e+00 1.540781108912e+01 1.422259485002e+01  0.000000000000e+00
5.271410194230e+00 0.000000000000e+00 0.000000000000e+00 -1.066492896048e+01 -5.722868035227e-09 -2.488483424276e+01 -1.066492896097e+01 0.000000000000e+00 0.000000000000e+00 0.000000000000e+00 1.540489738807e+01 1.421990528204e+01  0.000000000000e+00
5.542820388460e+00 0.000000000000e+00 0.000000000000e+00 -1.066291178221e+01 -7.604690918011e-09 -2.488012749785e+01 -1.066291178402e+01 0.000000000000e+00 0.000000000000e+00 0.000000000000e+00 1.540198368803e+01 1.421721571474e+01  0.000000000000e+00
5.852235150637e+00 0.000000000000e+00 0.000000000000e+00 -1.066061214691e+01 -8.969579970234e-09 -2.487476168590e+01 -1.066061214984e+01 0.000000000000e+00 0.000000000000e+00 0.000000000000e+00 1.539866199422e+01 1.421414953753e+01  0.000000000000e+00
6.161649912814e+00 0.000000000000e+00 0.000000000000e+00 -1.065831251256e+01 -9.761325034653e-09 -2.486939587488e+01 -1.065831251623e+01 0.000000000000e+00 0.000000000000e+00 0.000000000000e+00 1.539534030123e+01 1.421108336049e+01  0.000000000000e+00
6.514703252292e+00 0.000000000000e+00 0.000000000000e+00 -1.065568854831e+01 -1.022406012766e-08 -2.486327329297e+01 -1.065568855238e+01 0.000000000000e+00 0.000000000000e+00 0.000000000000e+00 1.539155013122e+01 1.420758474262e+01  0.000000000000e+00
6.867756591770e+00 0.000000000000e+00 0.000000000000e+00 -1.065306458495e+01 -1.036960103303e-08 -2.485715071178e+01 -1.065306458902e+01 0.000000000000e+00 0.000000000000e+00 0.000000000000e+00 1.538775996192e+01 1.420408612480e+01  0.000000000000e+00
7.270103659461e+00 0.000000000000e+00 0.000000000000e+00 -1.065007426152e+01 -1.030297701584e-08 -2.485017328917e+01 -1.065007426521e+01 0.000000000000e+00 0.000000000000e+00 0.000000000000e+00 1.538344060530e+01 1.420009902581e+01  0.000000000000e+00
7.672450727153e+00 0.000000000000e+00 0.000000000000e+00 -1.064708393872e+01 -1.021557679787e-08 -2.484319586716e+01 -1.064708394176e+01 0.000000000000e+00 0.000000000000e+00 0.000000000000e+00 1.537912124922e+01 1.419611192692e+01  0.000000000000e+00
8.131313909772e+00 0.000000000000e+00 0.000000000000e+00 -1.064367357743e+01 -1.015629889748e-08 -2.483523835472e+01 -1.064367357965e+01 0.000000000000e+00 0.000000000000e+00 0.000000000000e+00 1.537419517060e+01 1.419156477618e+01  0.000000000000e+00
8.590177092390e+00 0.000000000000e+00 0.000000000000e+00 -1.064026321648e+01 -1.013513703668e-08 -2.482728084281e+01 -1.064026321779e+01 0.000000000000e+00 0.000000000000e+00 0.000000000000e+00 1.536926909236e+01 1.418701762567e+01  0.000000000000e+00
9.113601687760e+00 0.000000000000e+00 0.000000000000e+00 -1.063637302277e+01 -1.015270639075e-08 -2.481820372049e+01 -1.063637302298e+01 0.000000000000e+00 0.000000000000e+00 0.000000000000e+00 1.536364992208e+01 1.418183069762e+01  0.000000000000e+00
9.637026283129e+00 0.000000000000e+00 0.000000000000e+00 -1.063248282918e+01 -1.024515344949e-08 -2.480912659861e+01 -1.063248282834e+01 0.000000000000e+00 0.000000000000e+00 0.000000000000e+00 1.535803075204e+01 1.417664376985e+01  0.000000000000e+00
1.023395110906e+01 0.000000000000e+00 0.000000000000e+00 -1.062804636753e+01 -1.043067708581e-08 -2.479877485130e+01 -1.062804636565e+01 0.000000000000e+00 0.000000000000e+00 0.000000000000e+00 1.535162252816e+01 1.417072848471e+01  0.000000000000e+00
1.083087593500e+01 0.000000000000e+00 0.000000000000e+00 -1.062360990577e+01 -1.069616143880e-08 -2.478842310440e+01 -1.062360990305e+01 0.000000000000e+00 0.000000000000e+00 0.000000000000e+00 1.534521430441e+01 1.416481319999e+01  0.000000000000e+00
1.151148415638e+01 0.000000000000e+00 0.000000000000e+00 -1.061855149254e+01 -1.102645937014e-08 -2.477662013776e+01 -1.061855148909e+01 0.000000000000e+00 0.000000000000e+00 0.000000000000e+00 1.533790770646e+01 1.415806864694e+01  0.000000000000e+00
1.219209237776e+01 0.000000000000e+00 0.000000000000e+00 -1.061349307920e+01 -1.136951454747e-08 -2.476481717138e+01 -1.061349307517e+01 0.000000000000e+00 0.000000000000e+00 0.000000000000e+00 1.533060110858e+01 1.415132409419e+01  0.000000000000e+00
1.296835814589e+01 0.000000000000e+00 0.000000000000e+00 -1.060772372013e+01 -1.176987761050e-08 -2.475135533191e+01 -1.060772371561e+01 0.000000000000e+00 0.000000000000e+00 0.000000000000e+00 1.532226758922e+01 1.414363161404e+01  0.000000000000e+00
1.374462391402e+01 0.000000000000e+00 0.000000000000e+00 -1.060195436084e+01 -1.217545752226e-08 -2.473789349268e+01 -1.060195435606e+01 0.000000000000e+00 0.000000000000e+00 0.000000000000e+00 1.531393406986e+01 1.413593913424e+01  0.000000000000e+00
1.462978876851e+01 0.000000000000e+00 0.000000000000e+00 -1.059537564199e+01 -1.262109800808e-08 -2.472254314838e+01 -1.059537563711e+01 0.000000000000e+00 0.000000000000e+00 0.000000000000e+00 1.530443147583e+01 1.412716750883e+01  0.000000000000e+00
1.551495362301e+01 0.000000000000e+00 0.000000000000e+00 -1.058879692293e+01 -1.300643197862e-08 -2.470719280423e+01 -1.058879691815e+01 0.000000000000e+00 0.000000000000e+00 0.000000000000e+00 1.529492888177e+01 1.411839588370e+01  0.000000000000e+00
1.652456154218e+01 0.000000000000e+00 0.000000000000e+00 -1.058129331843e+01 -1.339836572919e-08 -2.468968439444e+01 -1.058129331386e+01 0.000000000000e+00 0.000000000000e+00 0.000000000000e+00 1.528409034224e+01 1.410839107829e+01  0.000000000000e+00
1.753416946135e+01 0.000000000000e+00 0.000000000000e+00 -1.057378971376e+01 -1.376554884414e-08 -2.467217598470e+01 -1.057378970954e+01 0.000000000000e+00 0.000000000000e+00 0.000000000000e+00 1.527325180267e+01 1.409838627305e+01  0.000000000000e+00
1.868542385217e+01 0.000000000000e+00 0.000000000000e+00 -1.056523336447e+01 -1.412228079270e-08 -2.465221117148e+01 -1.056523336079e+01 0.000000000000e+00 0.000000000000e+00 0.000000000000e+00 1.526089263225e+01 1.408697780885e+01  0.000000000000e+00
1.983667824300e+01 0.000000000000e+00 0.000000000000e+00 -1.055667701503e+01 -1.440298923578e-08 -2.463224635827e+01 -1.055667701199e+01 0.000000000000e+00 0.000000000000e+00 0.000000000000e+00 1.524853346176e+01 1.407556934476e+01  0.000000000000e+00
2.114946764144e+01 0.000000000000e+00 0.000000000000e+00 -1.054692010547e+01 -1.465099023943e-08 -2.460948023866e+01 -1.054692010324e+01 0.000000000000e+00 0.000000000000e+00 0.000000000000e+00 1.523444014912e+01 1.406256013431e+01  0.000000000000e+00
2.246225703988e+01 0.000000000000e+00 0.000000000000e+00 -1.053716319581e+01 -1.482193171197e-08 -2.458671411898e+01 -1.053716319444e+01 0.000000000000e+00 0.000000000000e+00 0.000000000000e+00 1.522034683641e+01 1.404955092386e+01  0.000000000000e+00
2.395977800561e+01 0.000000000000e+00 0.000000000000e+00 -1.052603332465e+01 -1.492564979750e-08 -2.456074442295e+01 -1.052603332428e+01 0.000000000000e+00 0.000000000000e+00 0.000000000000e+00 1.520427035729e+01 1.403471109849e+01  0.000000000000e+00
2.545729897133e+01 0.000000000000e+00 0.000000000000e+00 -1.051490345344e+01 -1.493062149779e-08 -2.453477472682e+01 -1.051490345408e+01 0.000000000000e+00 0.000000000000e+00 0.000000000000e+00 1.518819387811e+01 1.401987127306e+01  0.000000000000e+00
2.716493378751e+01 0.000000000000e+00 0.000000000000e+00 -1.050221197463e+01 -1.480698912477e-08 -2.450516128000e+01 -1.050221197639e+01 0.000000000000e+00 0.000000000000e+00 0.000000000000e+00 1.516986174367e+01 1.400294930449e+01  0.000000000000e+00
2.887256860369e+01 0.000000000000e+00 0.000000000000e+00 -1.048952049584e+01 -1.454594568022e-08 -2.447554783303e+01 -1.048952049866e+01 0.000000000000e+00 0.000000000000e+00 0.000000000000e+00 1.515152960918e+01 1.398602733578e+01  0.000000000000e+00
3.081927602061e+01 0.000000000000e+00 0.000000000000e+00 -1.047505218240e+01 -1.409483697855e-08 -2.444178843867e+01 -1.047505218632e+01 0.000000000000e+00 0.000000000000e+00 0.000000000000e+00 1.513063093580e+01 1.396673625430e+01  0.000000000000e+00
3.276598343753e+01 0.000000000000e+00 0.000000000000e+00 -1.046058386909e+01 -1.347714130133e-08 -2.440802904408e+01 -1.046058387395e+01 0.000000000000e+00 0.000000000000e+00 0.000000000000e+00 1.510973226237e+01 1.394744517256e+01  0.000000000000e+00
3.498672278531e+01 0.000000000000e+00 0.000000000000e+00 -1.044407889665e+01 -1.256309895851e-08 -2.436951744452e+01 -1.044407890235e+01 0.000000000000e+00 0.000000000000e+00 0.000000000000e+00 1.508589174784e+01 1.392543854502e+01  0.000000000000e+00
3.720746213308e+01 0.000000000000e+00 0.000000000000e+00 -1.042757392449e+01 -1.146918280099e-08 -2.433100584461e+01 -1.042757393073e+01 0.000000000000e+00 0.000000000000e+00 0.000000000000e+00 1.506205123327e+01 1.390343191700e+01  0.000000000000e+00
3.973983467121e+01 0.000000000000e+00 0.000000000000e+00 -1.040875283346e+01 -1.007385201763e-08 -2.428708996626e+01 -1.040875283992e+01 0.000000000000e+00 0.000000000000e+00 0.000000000000e+00 1.503486521321e+01 1.387833712957e+01  0.000000000000e+00
4.227220720935e+01 0.000000000000e+00 0.000000000000e+00 -1.038993174291e+01 -8.540483243032e-09 -2.424317408738e+01 -1.038993174909e+01 0.000000000000e+00 0.000000000000e+00 0.000000000000e+00 1.500767919312e+01 1.385324234138e+01  0.000000000000e+00
4.515998709634e+01 0.000000000000e+00 0.000000000000e+00 -1.036846919565e+01 -6.736496712037e-09 -2.419309480737e+01 -1.036846920090e+01 0.000000000000e+00 0.000000000000e+00 0.000000000000e+00 1.497667773464e+01 1.382462560909e+01  0.000000000000e+00
4.804776698334e+01 0.000000000000e+00 0.000000000000e+00 -1.034700664895e+01 -4.991842002779e-09 -2.414301552667e+01 -1.034700665269e+01 0.000000000000e+00 0.000000000000e+00 0.000000000000e+00 1.494567627610e+01 1.379600887585e+01  0.000000000000e+00
5.134170013617e+01 0.000000000000e+00 0.000000000000e+00 -1.032252549209e+01 -3.239821175621e-09 -2.408589281936e+01 -1.032252549343e+01 0.000000000000e+00 0.000000000000e+00 0.000000000000e+00 1.491031460163e+01 1.376336732659e+01  0.000000000000e+00
5.463563328901e+01 0.000000000000e+00 0.000000000000e+00 -1.029804433574e+01 -1.844445007663e-09 -2.402877011128e+01 -1.029804433410e+01 0.000000000000e+00 0.000000000000e+00 0.000000000000e+00 1.487495292704e+01 1.373072577636e+01  0.000000000000e+00
5.839113950846e+01 0.000000000000e+00 0.000000000000e+00 -1.027013267834e+01 -7.423792425095e-10 -2.396364289775e+01 -1.027013267283e+01 0.000000000000e+00 0.000000000000e+00 0.000000000000e+00 1.483463608297e+01 1.369351022217e+01  0.000000000000e+00
6.214664572792e+01 0.000000000000e+00 0.000000000000e+00 -1.024222102115e+01 -1.496115797299e-10 -2.389851568369e+01 -1.024222101145e+01 0.000000000000e+00 0.000000000000e+00 0.000000000000e+00 1.479431923877e+01 1.365629466739e+01  0.000000000000e+00
6.642866192329e+01 0.000000000000e+00 0.000000000000e+00 -1.021039623874e+01 3.535199002201e-11 -2.382425784190e+01 -1.021039622419e+01 0.000000000000e+00 0.000000000000e+00 0.000000000000e+00 1.474835010161e+01 1.361386161044e+01  0.000000000000e+00
7.071067811865e+01 0.000000000000e+00 0.000000000000e+00 -1.017857145617e+01 3.704512636301e-12 -2.375000000000e+01 -1.017857143685e+01 0.000000000000e+00 0.000000000000e+00 0.000000000000e+00 1.470238096434e+01 1.357142855349e+01  0.000000000000e+00
 TITLE = "Profiles along polylines"
 VARIABLES = "DIST" "DISPLACEMENT_X1" "DISPLACEMENT_Y1" "STRESS_XX" "STRESS_XY" "STRESS_YY" "STRESS_ZZ" "STRAIN_XX" "STRAIN_XY" "STRAIN_YY"  p_(1st_Invariant)  q_(2nd_Invariant)   Effective_Strain
 ZONE T="TIME=1.000000000000e-01"
0.000000000000e+00 0.000000000000e+00 0.000000000000e+00 0.000000000000e+00 0.000000000000e+00 0.000000000000e+00 0.000000000000e+00 0.000000000000e+00 0.000000000000e+00 0.000000000000e+00 -0.000000000000e+00 0.000000000000e+00  0.000000000000e+00
5.454930089679e-01 0.000000000000e+00 0.000000000000e+00 0.000000000000e+00 0.000000000000e+00 0.000000000000e+00 0.000000000000e+00 0.000000000000e+00 0.000000000000e+00 0.000000000000e+00 -0.000000000000e+00 0.000000000000e+00  0.000000000000e+00
1.090986017936e+00 0.000000000000e+00 0.000000000000e+00 0.000000000000e+00 0.000000000000e+00 0.000000000000e+00 0.000000000000e+00 0.000000000000e+00 0.000000000000e+00 0.000000000000e+00 -0.000000000000e+00 0.000000000000e+00  0.000000000000e+00
1.576857321493e+00 0.000000000000e+00 0.000000000000e+00 0.000000000000e+00 0.000000000000e+00 0.000000000000e+00 0.000000000000e+00 0.000000000000e+00 0.000000000000e+00 0.000000000000e+00 -0.000000000000e+00 0.000000000000e+00  0.000000000000e+00
2.062728625050e+00 0.000000000000e+00 0.000000000000e+00 0.000000000000e+00 0.000000000000e+00 0.000000000000e+00 0.000000000000e+00 0.000000000000e+00 0.000000000000e+00 0.000000000000e+00 -0.000000000000e+00 0.000000000000e+00  0.000000000000e+00
2.495760229428e+00 0.000000000000e+00 0.000000000000e+00 0.000000000000e+00 0.000000000000e+00 0.000000000000e+00 0.000000000000e+00 0.000000000000e+00 0.000000000000e+00 0.000000000000e+00 -0.000000000000e+00 0.000000000000e+00  0.000000000000e+00
2.928791833805e+00 0.000000000000e+00 0.000000000000e+00 0.000000000000e+00 0.000000000000e+00 0.000000000000e+00 0.000000000000e+00 0.000000000000e+00 0.000000000000e+00 0.000000000000e+00 -0.000000000000e+00 0.000000000000e+00  0.000000000000e+00
3.314529828825e+00 0.000000000000e+00 0.000000000000e+00 0.000000000000e+00 0.000000000000e+00 0.000000000000e+00 0.000000000000e+00 0.000000000000e+00 0.000000000000e+00 0.000000000000e+00 -0.000000000000e+00 0.000000000000e+00  0.000000000000e+00
3.700267823845e+00 0.000000000000e+00 0.000000000000e+00 0.000000000000e+00 0.000000000000e+00 0.000000000000e+00 0.000000000000e+00 0.000000000000e+00 0.000000000000e+00 0.000000000000e+00 -0.000000000000e+00 0.000000000000e+00  0.000000000000e+00
4.043939715870e+00 0.000000000000e+00 0.000000000000e+00 0.000000000000e+00 0.000000000000e+00 0.000000000000e+00 0.000000000000e+00 0.000000000000e+00 0.000000000000e+00 0.000000000000e+00 -0.000000000000e+00 0.000000000000e+00  0.000000000000e+00
4.387611607894e+00 0.000000000000e+00 0.000000000000e+00 0.000000000000e+00 0.000000000000e+00 0.000000000000e+00 0.000000000000e+00 0.000000000000e+00 0.000000000000e+00 0.000000000000e+00 -0.000000000000e+00 0.000000000000e+00  0.000000000000e+00
4.693805803947e+00 0.000000000000e+00 0.000000000000e+00 0.000000000000e+00 0.000000000000e+00 0.000000000000e+00 0.000000000000e+00 0.000000000000e+00 0.000000000000e+00 0.000000000000e+00 -0.000000000000e+00 0.000000000000e+00  0.000000000000e+00
5.000000000000e+00 7.756526372308e-04 -4.910913721461e-03 -2.006850910361e+01 2.071482489210e+01 -2.922417465452e+01 -1.478780512744e+01 -2.745966067096e-04 2.154341789106e-03 -1.111628318031e-05 2.136016296186e+01 3.804434670978e+01  3.741128173077e-03
5.271410194230e+00 5.543970069199e-04 -4.383691198939e-03 -1.241398637241e+01 1.277736817610e+01 -3.290325072945e+01 -1.359517113056e+01 6.142160739782e-05 1.328846290910e-03 -2.645850644892e-04 1.963746941081e+01 2.977896836837e+01  2.321104587207e-03
5.542820388460e+00 4.017455291548e-04 -4.030286497561e-03 -1.061910934473e+01 1.027770069300e+01 -3.188277377516e+01 -1.275056493596e+01 1.108356906503e-04 1.068880872863e-03 -2.555796425185e-04 1.841748268528e+01 2.698624401638e+01  1.879747805240e-03
5.852235150637e+00 2.697561872089e-04 -3.711698597032e-03 -9.301117937374e+00 8.536981065774e+00 -3.153279173557e+01 -1.225017290188e+01 1.533508580019e-04 8.878460317733e-04 -2.635604034767e-04 1.769469419161e+01 2.561292553031e+01  1.580572527392e-03
6.161649912814e+00 1.676782099619e-04 -3.450042305589e-03 -8.447865258322e+00 7.360162063584e+00 -3.128423378430e+01 -1.191962971279e+01 1.805317514413e-04 7.654568556279e-04 -2.679830770690e-04 1.721724291847e+01 2.483518351393e+01  1.382229608501e-03
6.514703252292e+00 7.713397866845e-05 -3.200343739818e-03 -7.832071725610e+00 6.386532112418e+00 -3.101974034177e+01 -1.165554362021e+01 1.988205383075e-04 6.641993407548e-04 -2.681438230104e-04 1.683578522920e+01 2.420729004236e+01  1.219928484905e-03
6.867756591770e+00 6.980541006893e-06 -2.989345579106e-03 -7.470357059996e+00 5.653097090840e+00 -3.075135038619e+01 -1.146651223386e+01 2.078000688290e-04 5.879220985258e-04 -2.641991055377e-04 1.656273989335e+01 2.368146880264e+01  1.097651953076e-03
7.270103659461e+00 -5.454435727823e-05 -2.784552498465e-03 -7.264262245495e+00 5.003930833891e+00 -3.043547107154e+01 -1.130991999511e+01 2.103742027883e-04 5.204088077962e-04 -2.561235067282e-04 1.633655110405e+01 2.312244485134e+01  9.880355844485e-04
7.672450727153e+00 -1.014129715578e-04 -2.609165021547e-03 -7.193672710930e+00 4.482014193349e+00 -3.012355411381e+01 -1.119516804742e+01 2.080777573392e-04 4.661294771707e-04 -2.460782553315e-04 1.617079829072e+01 2.258988637126e+01  8.982674105231e-04
8.131313909772e+00 -1.415838776460e-04 -2.437146123303e-03 -7.202734702678e+00 3.999157906752e+00 -2.979275452571e+01 -1.109864676852e+01 2.025874273087e-04 4.159124233585e-04 -2.341322350704e-04 1.603137866564e+01 2.203311570167e+01  8.137820642330e-04
8.590177092390e+00 -1.712164002934e-04 -2.288705463743e-03 -7.278197665197e+00 3.601560685362e+00 -2.947749866746e+01 -1.102670889980e+01 1.949225841314e-04 3.745623123317e-04 -2.217161514174e-04 1.592746841082e+01 2.150720089572e+01  7.424696143544e-04
9.113601687760e+00 -1.956274423063e-04 -2.142137054147e-03 -7.417486418233e+00 3.222289161534e+00 -2.912863301589e+01 -1.096383583024e+01 1.844101694132e-04 3.351180738554e-04 -2.071142573832e-04 1.583665175478e+01 2.093094864281e+01  6.723167198278e-04
9.637026283129e+00 -2.126089402976e-04 -2.015065530141e-03 -7.583652958605e+00 2.904876860705e+00 -2.880161890111e+01 -1.091558155791e+01 1.732602872078e-04 3.021071945788e-04 -1.928884657919e-04 1.576695113921e+01 2.039416603131e+01  6.119242350078e-04
1.023395110906e+01 -2.254511893355e-04 -1.889157110654e-03 -7.780289337378e+00 2.600811650272e+00 -2.847026616255e+01 -1.087516664998e+01 1.609336203529e-04 2.704844127130e-04 -1.780672933998e-04 1.570857404997e+01 1.984724490836e+01  5.529467043885e-04
1.083087593500e+01 -2.333040870569e-04 -1.779574724886e-03 -7.969773343182e+00 2.344489333549e+00 -2.817394055476e+01 -1.084311416938e+01 1.494137231040e-04 2.438268918015e-04 -1.646326855697e-04 1.566227602244e+01 1.936235761507e+01  5.023757794739e-04
1.151148415638e+01 -2.379855464890e-04 -1.670663638995e-03 -8.174378192953e+00 2.099643961879e+00 -2.787927504358e+01 -1.081609597096e+01 1.373693246359e-04 2.183629731822e-04 -1.510657420456e-04 1.562324973583e+01 1.887941658761e+01  4.533102170721e-04
1.219209237776e+01 -2.394823362690e-04 -1.575611207524e-03 -8.369091149619e+00 1.893620163763e+00 -2.761265919421e+01 -1.079452510315e+01 1.261225657930e-04 1.969364982137e-04 -1.386741197327e-04 1.559209181566e+01 1.844670782555e+01  4.110709207201e-04
1.296835814589e+01 -2.385277617962e-04 -1.480929335406e-03 -8.576552932916e+00 1.692959289371e+00 -2.733706892110e+01 -1.077408655620e+01 1.142717486461e-04 1.760677673186e-04 -1.258062389271e-04 1.556256947007e+01 1.800437677234e+01  3.691353644262e-04
1.374462391402e+01 -2.357182176490e-04 -1.398133334423e-03 -8.756819872931e+00 1.523460820694e+00 -2.709956744742e+01 -1.075691619611e+01 1.040050090537e-04 1.584399266185e-04 -1.147490299639e-04 1.553776783882e+01 1.762760081575e+01  3.335093502840e-04
1.462978876851e+01 -2.310486522583e-04 -1.315447632249e-03 -8.940257941429e+00 1.359856222079e+00 -2.686628953258e+01 -1.074196424220e+01 9.368872789398e-05 1.414250484088e-04 -1.038522045136e-04 1.551617057207e+01 1.725801080570e+01  2.988239816329e-04
1.551495362301e+01 -2.254432216546e-04 -1.242969830230e-03 -9.097407745899e+00 1.226251147865e+00 -2.666754640882e+01 -1.072948624642e+01 8.486808227529e-05 1.275301207306e-04 -9.462254236849e-05 1.549814680038e+01 1.694723230903e+01  2.701448605931e-04
1.652456154218e+01 -2.185041621044e-04 -1.170377957562e-03 -9.259661155324e+00 1.099288106452e+00 -2.645789390379e+01 -1.071526651773e+01 7.569147908284e-05 1.143259644644e-04 -8.498028788480e-05 1.547760719228e+01 1.662797221106e+01  2.420628254602e-04
1.753416946135e+01 -2.112664345792e-04 -1.106569782901e-03 -9.399452263133e+00 9.910571575835e-01 -2.627634077729e+01 -1.070273791213e+01 6.777085396736e-05 1.030699458203e-04 -7.671126268014e-05 1.545951031752e+01 1.635478815732e+01  2.180516806732e-04
1.868542385217e+01 -2.030074738833e-04 -1.042423847624e-03 -9.533745414527e+00 8.892849783417e-01 -2.610084139923e+01 -1.069037604413e+01 6.014479293089e-05 9.248563921625e-05 -6.882135230931e-05 1.544165428596e+01 1.609400312037e+01  1.953299798238e-04
1.983667824300e+01 -1.949328966758e-04 -9.857257221535e-04 -9.645562002994e+00 8.055801885036e-01 -2.594947769309e+01 -1.067851190882e+01 5.371339526133e-05 8.378034110229e-05 -6.216061477523e-05 1.542451720164e+01 1.587420557008e+01  1.764804952296e-04
2.114946764144e+01 -1.861140323228e-04 -9.283642244987e-04 -9.753111945129e+00 7.269185626380e-01 -2.579988277381e+01 -1.066589841568e+01 4.746489658456e-05 7.559953203806e-05 -5.571405958062e-05 1.540629771154e+01 1.566109797079e+01  1.585790107554e-04
2.246225703988e+01 -1.777948373076e-04 -8.772410619454e-04 -9.843550415746e+00 6.623222420208e-01 -2.566820619222e+01 -1.065352698239e+01 4.211878153684e-05 6.888151471164e-05 -5.018667083485e-05 1.538842786345e+01 1.547818478973e+01  1.436679655299e-04
2.395977800561e+01 -1.689603424144e-04 -8.249804880931e-04 -9.929780316798e+00 6.016924470706e-01 -2.553527156339e+01 -1.063951556406e+01 3.690623287666e-05 6.257601604761e-05 -4.477433483464e-05 1.536818914808e+01 1.529854291699e+01  1.294856612390e-04
2.545729897133e+01 -1.608435555567e-04 -7.778320617469e-04 -1.000066118944e+01 5.520923640793e-01 -2.541759522019e+01 -1.062547692289e+01 3.249041810615e-05 5.741760741703e-05 -4.015684527707e-05 1.534791111084e+01 1.514443543354e+01  1.177423335453e-04
2.716493378751e+01 -1.524563737408e-04 -7.289222752482e-04 -1.006612246910e+01 5.061441154410e-01 -2.529839609851e+01 -1.060935557028e+01 2.824812116995e-05 5.263898954579e-05 -3.567674367995e-05 1.532462471263e+01 1.499370309425e+01  1.067294571750e-04
2.887256860369e+01 -1.449877756798e-04 -6.840206017757e-04 -1.011889855891e+01 4.688166535206e-01 -2.519092923012e+01 -1.059294833671e+01 2.465058829882e-05 4.875693347892e-05 -3.182158507015e-05 1.530092537525e+01 1.486288350620e+01  9.765449943162e-05
3.081927602061e+01 -1.375767892607e-04 -6.365710764129e-04 -1.016682101728e+01 4.335896225660e-01 -2.507886772822e+01 -1.057370662365e+01 2.115805132735e-05 4.509332221273e-05 -2.799809231555e-05 1.527313178972e+01 1.473197867634e+01  8.901777636014e-05
3.276598343753e+01 -1.312990285672e-04 -5.921440861913e-04 -1.020283962167e+01 4.038558538560e-01 -2.497628873967e+01 -1.055373850840e+01 1.824674185721e-05 4.200101020265e-05 -2.470546317933e-05 1.524428895658e+01 1.461790821815e+01  8.177011851853e-05
3.498672278531e+01 -1.254970938055e-04 -5.442349704204e-04 -1.023122209845e+01 3.747057779497e-01 -2.486844876763e+01 -1.052990125982e+01 1.553131609504e-05 3.896940221333e-05 -2.148166621311e-05 1.520985737530e+01 1.450472310939e+01  7.478078120568e-05
3.720746213308e+01 -1.211034745615e-04 -4.985957081679e-04 -1.024875543235e+01 3.483789579630e-01 -2.476714400039e+01 -1.050476982982e+01 1.331274834399e-05 3.623141282095e-05 -1.866499734796e-05 1.517355642086e+01 1.440473315192e+01  6.864575465395e-05
3.973983467121e+01 -1.177108724574e-04 -4.488471934366e-04 -1.025808738401e+01 3.192034531685e-01 -2.465699473734e+01 -1.047452463641e+01 1.125473678898e-05 3.319716017721e-05 -1.581491467898e-05 1.512986891925e+01 1.430260782663e+01  6.213636342785e-05
4.227220720935e+01 -1.158772004047e-04 -4.013460658584e-04 -1.025512480045e+01 2.903226783837e-01 -2.455291868376e+01 -1.044241304526e+01 9.738988409020e-06 3.019355944011e-05 -1.337769161070e-05 1.508348550982e+01 1.421397340183e+01  5.602721487446e-05
4.515998709634e+01 -1.153915339952e-04 -3.500371288001e-04 -1.023606043468e+01 2.560198521525e-01 -2.444168140394e+01 -1.040332255159e+01 8.697629805653e-06 2.662606532445e-05 -1.111412878636e-05 1.502702146340e+01 1.412969284864e+01  4.922074018844e-05
4.804776698334e+01 -1.160122883995e-04 -3.023616078505e-04 -1.020182676023e+01 2.204962223129e-01 -2.433728340477e+01 -1.036173304950e+01 8.315126847675e-06 2.293160763969e-05 -9.336157026852e-06 1.496694773817e+01 1.406137304477e+01  4.256186531736e-05
5.134170013617e+01 -1.169157724849e-04 -2.536101377375e-04 -1.014460967009e+01 1.775747345427e-01 -2.422581380329e+01 -1.031112704201e+01 8.658903270220e-06 1.846777272938e-05 -7.868610638326e-06 1.489385017180e+01 1.400206667350e+01  3.504569968428e-05
5.463563328901e+01 -1.162977667905e-04 -2.124678500775e-04 -1.006867264605e+01 1.338558887913e-01 -2.412309043145e+01 -1.025752892325e+01 9.820526499355e-06 1.392101262612e-05 -7.011458013524e-06 1.481643066692e+01 1.396287266847e+01  2.821069426708e-05
5.839113950846e+01 -1.106981581453e-04 -1.771649104476e-04 -9.960844669183e+00 8.589845925490e-02 -2.401709834014e+01 -1.019338290280e+01 1.209198843475e-05 8.933439839717e-06 -6.770671046029e-06 1.472377530404e+01 1.394223298215e+01  2.265718625101e-05
6.214664572792e+01 -9.577766112953e-05 -1.566152123254e-04 -9.831826466878e+00 4.427176457846e-02 -2.392323193349e+01 -1.012651752011e+01 1.532393527223e-05 4.604263531720e-06 -7.301826539123e-06 1.462719197349e+01 1.394660602764e+01  2.153207162115e-05
6.642866192329e+01 -6.115149198542e-05 -1.536728340437e-04 -9.664430305004e+00 1.029460064880e-02 -2.383002465003e+01 -1.004833648651e+01 1.996312219485e-05 1.070638463798e-06 -8.726980382339e-06 1.451426381385e+01 1.397760729906e+01  2.554100644621e-05
7.071067811865e+01 0.000000000000e+00 -1.744140425460e-04 -9.480705346866e+00 -1.800356208081e-03 -2.374749141059e+01 -9.968459027236e+00 2.536319238376e-05 -1.872370460257e-07 -1.079539865053e-05 1.439888526156e+01 1.402927013622e+01  3.215187562004e-05
 ZONE T="TIME=2.000000000000e-01"
0.000000000000e+00 0.000000000000e+00 0.000000000000e+00 0.000000000000e+00 0.000000000000e+00 0.000000000000e+00 0.000000000000e+00 0.000000000000e+00 0.000000000000e+00 0.000000000000e+00 -0.000000000000e+00 0.000000000000e+00  0.000000000000e+00
5.454930089679e-01 0.000000000000e+00 0.000000000000e+00 0.000000000000e+00 0.000000000000e+00 0.000000000000e+00 0.000000000000e+00 0.000000000000e+00 0.000000000000e+00 0.000000000000e+00 -0.000000000000e+00 0.000000000000e+00  0.000000000000e+00