 TITLE = "Profiles along polylines"
 VARIABLES = "DIST" "DISPLACEMENT_X1" "DISPLACEMENT_Y1" "STRESS_XX" "STRESS_XY" "STRESS_YY" "STRESS_ZZ" "STRAIN_XX" "STRAIN_XY" "STRAIN_YY"  p_(1st_Invariant)  q_(2nd_Invariant)   Effective_Strain
 ZONE T="TIME=0.000000000000e+00"
0.000000000000e+00 0.000000000000e+00 0.000000000000e+00 -1.070410689636e+01 1.587296668588e-07 -2.497625235208e+01 -1.070410777453e+01 0.000000000000e+00 0.000000000000e+00 0.000000000000e+00 1.546148900766e+01 1.427214501663e+01  0.000000000000e+00
5.454930089679e-01 0.000000000000e+00 0.000000000000e+00 -1.069837337830e+01 5.787327692065e-07 -2.496287289428e+01 -1.069837388177e+01 0.000000000000e+00 0.000000000000e+00 0.000000000000e+00 1.545320671812e+01 1.426449926424e+01  0.000000000000e+00
1.090986017936e+00 0.000000000000e+00 0.000000000000e+00 -1.069263995023e+01 5.839209675772e-07 -2.494949432326e+01 -1.069264028205e+01 0.000000000000e+00 0.000000000000e+00 0.000000000000e+00 1.544492485185e+01 1.425685420712e+01  0.000000000000e+00
1.576857321493e+00 0.000000000000e+00 0.000000000000e+00 -1.068753314448e+01 5.812542665195e-07 -2.493757808425e+01 -1.068753336862e+01 0.000000000000e+00 0.000000000000e+00 0.000000000000e+00 1.543754819912e+01 1.425004482770e+01  0.000000000000e+00
2.062728625050e+00 0.000000000000e+00 0.000000000000e+00 -1.068242632665e+01 5.786772579954e-07 -2.492566189652e+01 -1.068242646695e+01 0.000000000000e+00 0.000000000000e+00 0.000000000000e+00 1.543017156338e+01 1.424323549972e+01  0.000000000000e+00
2.495760229428e+00 0.000000000000e+00 0.000000000000e+00 -1.067787488246e+01 5.779398677130e-07 -2.491504163952e+01 -1.067787495659e+01 0.000000000000e+00 0.000000000000e+00 0.000000000000e+00 1.542359715953e+01 1.423716671999e+01  0.000000000000e+00
2.928791833805e+00 0.000000000000e+00 0.000000000000e+00 -1.067332343606e+01 5.777330253226e-07 -2.490442139231e+01 -1.067332344851e+01 0.000000000000e+00 0.000000000000e+00 0.000000000000e+00 1.541702275896e+01 1.423109795003e+01  0.000000000000e+00
3.314529828825e+00 0.000000000000e+00 0.000000000000e+00 -1.066926907692e+01 5.771806022764e-07 -2.489496103523e+01 -1.066926903364e+01 0.000000000000e+00 0.000000000000e+00 0.000000000000e+00 1.541116638193e+01 1.422569197995e+01  0.000000000000e+00
3.700267823845e+00 0.000000000000e+00 0.000000000000e+00 -1.066521471954e+01 5.767012860691e-07 -2.488550066525e+01 -1.066521461544e+01 0.000000000000e+00 0.000000000000e+00 0.000000000000e+00 1.540531000008e+01 1.422028599776e+01  0.000000000000e+00
4.043939715870e+00 0.000000000000e+00 0.000000000000e+00 -1.066160250628e+01 5.771995143083e-07 -2.487707196698e+01 -1.066160234198e+01 0.000000000000e+00 0.000000000000e+00 0.000000000000e+00 1.540009227175e+01 1.421546954285e+01  0.000000000000e+00
4.387611607894e+00 0.000000000000e+00 0.000000000000e+00 -1.065799030765e+01 5.725063417785e-07 -2.486864321990e+01 -1.065799005827e+01 0.000000000000e+00 0.000000000000e+00 0.000000000000e+00 1.539487452861e+01 1.421065303694e+01  0.000000000000e+00
4.693805803947e+00 0.000000000000e+00 0.000000000000e+00 -1.065477205467e+01 5.585226628875e-07 -2.486113355405e+01 -1.065477168262e+01 0.000000000000e+00 0.000000000000e+00 0.000000000000e+00 1.539022576378e+01 1.420636168541e+01  0.000000000000e+00
5.000000000000e+00 0.000000000000e+00 0.000000000000e+00 -1.065155371223e+01 2.365144785738e-07 -2.485362345989e+01 -1.065155315164e+01 0.000000000000e+00 0.000000000000e+00 0.000000000000e+00 1.538557677459e+01 1.420207002796e+01  0.000000000000e+00
5.281293062422e+00 0.000000000000e+00 0.000000000000e+00 -1.064859715879e+01 -4.385263933816e-08 -2.484672536535e+01 -1.064859675724e+01 0.000000000000e+00 0.000000000000e+00 0.000000000000e+00 1.538130642713e+01 1.419812840734e+01  0.000000000000e+00
5.562586124843e+00 0.000000000000e+00 0.000000000000e+00 -1.064564051168e+01 -5.715693442689e-08 -2.483982683491e+01 -1.064564020398e+01 0.000000000000e+00 0.000000000000e+00 0.000000000000e+00 1.537703585019e+01 1.419418647709e+01  0.000000000000e+00
5.903654518747e+00 0.000000000000e+00 0.000000000000e+00 -1.064205561140e+01 -6.183388012040e-08 -2.483146226890e+01 -1.064205536409e+01 0.000000000000e+00 0.000000000000e+00 0.000000000000e+00 1.537185774813e+01 1.418940678116e+01  0.000000000000e+00
6.244722912650e+00 0.000000000000e+00 0.000000000000e+00 -1.063847072274e+01 -6.292634420205e-08 -2.482309765253e+01 -1.063847051258e+01 0.000000000000e+00 0.000000000000e+00 0.000000000000e+00 1.536667962929e+01 1.418462703487e+01  0.000000000000e+00
6.658257388739e+00 0.000000000000e+00 0.000000000000e+00 -1.063412416741e+01 -6.355423895797e-08 -2.481295579139e+01 -1.063412398764e+01 0.000000000000e+00 0.000000000000e+00 0.000000000000e+00 1.536040131548e+01 1.417883171387e+01  0.000000000000e+00
7.071791864828e+00 0.000000000000e+00 0.000000000000e+00 -1.062977761574e+01 -6.379398332742e-08 -2.480281391027e+01 -1.062977745780e+01 0.000000000000e+00 0.000000000000e+00 0.000000000000e+00 1.535412299461e+01 1.417303637350e+01  0.000000000000e+00
7.573083389471e+00 0.000000000000e+00 0.000000000000e+00 -1.062450867598e+01 -6.362554468376e-08 -2.479051978212e+01 -1.062450853743e+01 0.000000000000e+00 0.000000000000e+00 0.000000000000e+00 1.534651233185e+01 1.416601117541e+01  0.000000000000e+00
8.074374914115e+00 0.000000000000e+00 0.000000000000e+00 -1.061923973798e+01 -6.363502469533e-08 -2.477822564280e+01 -1.061923961423e+01 0.000000000000e+00 0.000000000000e+00 0.000000000000e+00 1.533890166501e+01 1.415898596669e+01  0.000000000000e+00
8.682563631455e+00 0.000000000000e+00 0.000000000000e+00 -1.061284723405e+01 -6.371513215286e-08 -2.476330984809e+01 -1.061284712464e+01 0.000000000000e+00 0.000000000000e+00 0.000000000000e+00 1.532966806893e+01 1.415046266874e+01  0.000000000000e+00
9.290752348795e+00 0.000000000000e+00 0.000000000000e+00 -1.060645473155e+01 -6.370936725193e-08 -2.474839404581e+01 -1.060645463321e+01 0.000000000000e+00 0.000000000000e+00 0.000000000000e+00 1.532043447019e+01 1.414193936343e+01  0.000000000000e+00
1.002772910440e+01 0.000000000000e+00 0.000000000000e+00 -1.059870857487e+01 -6.390365561578e-08 -2.473031971605e+01 -1.059870848728e+01 0.000000000000e+00 0.000000000000e+00 0.000000000000e+00 1.530924559274e+01 1.413161118498e+01  0.000000000000e+00
1.076470585999e+01 0.000000000000e+00 0.000000000000e+00 -1.059096241992e+01 -6.366339400974e-08 -2.471224538016e+01 -1.059096234002e+01 0.000000000000e+00 0.000000000000e+00 0.000000000000e+00 1.529805671337e+01 1.412128300019e+01  0.000000000000e+00
1.165833906230e+01 0.000000000000e+00 0.000000000000e+00 -1.058156969351e+01 -6.333046686306e-08 -2.469032904574e+01 -1.058156962177e+01 0.000000000000e+00 0.000000000000e+00 0.000000000000e+00 1.528448945367e+01 1.410875938809e+01  0.000000000000e+00
1.255197226460e+01 0.000000000000e+00 0.000000000000e+00 -1.057217696746e+01 -6.333776515598e-08 -2.466841270718e+01 -1.057217690239e+01 0.000000000000e+00 0.000000000000e+00 0.000000000000e+00 1.527092219234e+01 1.409623577225e+01  0.000000000000e+00
1.363578457093e+01 0.000000000000e+00 0.000000000000e+00 -1.056078532309e+01 -6.357692728214e-08 -2.464183222626e+01 -1.056078526481e+01 0.000000000000e+00 0.000000000000e+00 0.000000000000e+00 1.525446760472e+01 1.408104693231e+01  0.000000000000e+00
1.471959687725e+01 0.000000000000e+00 0.000000000000e+00 -1.054939367963e+01 -6.350840689808e-08 -2.461525174178e+01 -1.054939362642e+01 0.000000000000e+00 0.000000000000e+00 0.000000000000e+00 1.523801301594e+01 1.406585808875e+01  0.000000000000e+00
1.603364479030e+01 0.000000000000e+00 0.000000000000e+00 -1.053558209526e+01 -6.329121283340e-08 -2.458302472999e+01 -1.053558204758e+01 0.000000000000e+00 0.000000000000e+00 0.000000000000e+00 1.521806295761e+01 1.404744265857e+01  0.000000000000e+00
1.734769270334e+01 0.000000000000e+00 0.000000000000e+00 -1.052177051131e+01 -6.326094616467e-08 -2.455079771569e+01 -1.052177046810e+01 0.000000000000e+00 0.000000000000e+00 0.000000000000e+00 1.519811289837e+01 1.402902722599e+01  0.000000000000e+00
1.894091660434e+01 0.000000000000e+00 0.000000000000e+00 -1.050502458826e+01 -6.316173899290e-08 -2.451172391046e+01 -1.050502454962e+01 0.000000000000e+00 0.000000000000e+00 0.000000000000e+00 1.517392434945e+01 1.400669934152e+01  0.000000000000e+00
2.053414050534e+01 0.000000000000e+00 0.000000000000e+00 -1.048827866543e+01 -6.307476852715e-08 -2.447265010353e+01 -1.048827863069e+01 0.000000000000e+00 0.000000000000e+00 0.000000000000e+00 1.514973579988e+01 1.398437145547e+01  0.000000000000e+00
2.246588672828e+01 0.000000000000e+00 0.000000000000e+00 -1.046797463100e+01 -6.294996976982e-08 -2.442527403694e+01 -1.046797460038e+01 0.000000000000e+00 0.000000000000e+00 0.000000000000e+00 1.512040775611e+01 1.395729942125e+01  0.000000000000e+00
2.439763295123e+01 0.000000000000e+00 0.000000000000e+00 -1.044767059669e+01 -6.282861611210e-08 -2.437789796891e+01 -1.044767056968e+01 0.000000000000e+00 0.000000000000e+00 0.000000000000e+00 1.509107971176e+01 1.393022738573e+01  0.000000000000e+00
2.674066075506e+01 0.000000000000e+00 0.000000000000e+00 -1.042304369878e+01 -6.273939083335e-08 -2.432043522047e+01 -1.042304367577e+01 0.000000000000e+00 0.000000000000e+00 0.000000000000e+00 1.505550753167e+01 1.389739153319e+01  0.000000000000e+00
2.908368855890e+01 0.000000000000e+00 0.000000000000e+00 -1.039841680097e+01 -6.258991414822e-08 -2.426297247045e+01 -1.039841678143e+01 0.000000000000e+00 0.000000000000e+00 0.000000000000e+00 1.501993535095e+01 1.386455567925e+01  0.000000000000e+00
3.192363373876e+01 0.000000000000e+00 0.000000000000e+00 -1.036856694559e+01 -6.234515162682e-08 -2.419332282230e+01 -1.036856693037e+01 0.000000000000e+00 0.000000000000e+00 0.000000000000e+00 1.497681889942e+01 1.382475588433e+01  0.000000000000e+00
3.476357891862e+01 0.000000000000e+00 0.000000000000e+00 -1.033871708927e+01 -6.218287219520e-08 -2.412367317282e+01 -1.033871707863e+01 0.000000000000e+00 0.000000000000e+00 0.000000000000e+00 1.493370244691e+01 1.378495608888e+01  0.000000000000e+00
3.820666078923e+01 0.000000000000e+00 0.000000000000e+00 -1.030252783240e+01 -6.199922637700e-08 -2.403923159588e+01 -1.030252782848e+01 0.000000000000e+00 0.000000000000e+00 0.000000000000e+00 1.488142908559e+01 1.373670376544e+01  0.000000000000e+00
4.164974265985e+01 0.000000000000e+00 0.000000000000e+00 -1.026633857104e+01 -6.195873731034e-08 -2.395479001710e+01 -1.026633857644e+01 0.000000000000e+00 0.000000000000e+00 0.000000000000e+00 1.482915572153e+01 1.368845144336e+01  0.000000000000e+00
4.582487132993e+01 0.000000000000e+00 0.000000000000e+00 -1.022245495293e+01 -6.092097766043e-08 -2.385239499019e+01 -1.022245498293e+01 0.000000000000e+00 0.000000000000e+00 0.000000000000e+00 1.476576830868e+01 1.362994002226e+01  0.000000000000e+00
5.000000000000e+01 0.000000000000e+00 0.000000000000e+00 -1.017857123643e+01 -5.406703135921e-08 -2.374999997754e+01 -1.017857136419e+01 0.000000000000e+00 0.000000000000e+00 0.000000000000e+00 1.470238085939e+01 1.357142867723e+01  0.000000000000e+00
 TITLE = "Profiles along polylines"
 VARIABLES = "DIST" "DISPLACEMENT_X1" "DISPLACEMENT_Y1" "STRESS_XX" "STRESS_XY" "STRESS_YY" "STRESS_ZZ" "STRAIN_XX" "STRAIN_XY" "STRAIN_YY"  p_(1st_Invariant)  q_(2nd_Invariant)   Effective_Strain
 ZONE T="TIME=1.000000000000e-01"
0.000000000000e+00 0.000000000000e+00 0.000000000000e+00 0.000000000000e+00 0.000000000000e+00 0.000000000000e+00 0.000000000000e+00 0.000000000000e+00 0.000000000000e+00 0.000000000000e+00 -0.000000000000e+00 0.000000000000e+00  0.000000000000e+00
5.454930089679e-01 0.000000000000e+00 0.000000000000e+00 0.000000000000e+00 0.000000000000e+00 0.000000000000e+00 0.000000000000e+00 0.000000000000e+00 0.000000000000e+00 0.000000000000e+00 -0.000000000000e+00 0.000000000000e+00  0.000000000000e+00
1.090986017936e+00 0.000000000000e+00 0.000000000000e+00 0.000000000000e+00 0.000000000000e+00 0.000000000000e+00 0.000000000000e+00 0.000000000000e+00 0.000000000000e+00 0.000000000000e+00 -0.000000000000e+00 0.000000000000e+00  0.000000000000e+00
1.576857321493e+00 0.000000000000e+00 0.000000000000e+00 0.000000000000e+00 0.000000000000e+00 0.000000000000e+00 0.000000000000e+00 0.000000000000e+00 0.000000000000e+00 0.000000000000e+00 -0.000000000000e+00 0.000000000000e+00  0.000000000000e+00
2.062728625050e+00 0.000000000000e+00 0.000000000000e+00 0.000000000000e+00 0.000000000000e+00 0.000000000000e+00 0.000000000000e+00 0.000000000000e+00 0.000000000000e+00 0.000000000000e+00 -0.000000000000e+00 0.000000000000e+00  0.000000000000e+00
2.495760229428e+00 0.000000000000e+00 0.000000000000e+00 0.000000000000e+00 0.000000000000e+00 0.000000000000e+00 0.000000000000e+00 0.000000000000e+00 0.000000000000e+00 0.000000000000e+00 -0.000000000000e+00 0.000000000000e+00  0.000000000000e+00
2.928791833805e+00 0.000000000000e+00 0.000000000000e+00 0.000000000000e+00 0.000000000000e+00 0.000000000000e+00 0.000000000000e+00 0.000000000000e+00 0.000000000000e+00 0.000000000000e+00 -0.000000000000e+00 0.000000000000e+00  0.000000000000e+00
3.314529828825e+00 0.000000000000e+00 0.000000000000e+00 0.000000000000e+00 0.000000000000e+00 0.000000000000e+00 0.000000000000e+00 0.000000000000e+00 0.000000000000e+00 0.000000000000e+00 -0.000000000000e+00 0.000000000000e+00  0.000000000000e+00
3.700267823845e+00 0.000000000000e+00 0.000000000000e+00 0.000000000000e+00 0.000000000000e+00 0.000000000000e+00 0.000000000000e+00 0.000000000000e+00 0.000000000000e+00 0.000000000000e+00 -0.000000000000e+00 0.000000000000e+00  0.000000000000e+00
4.043939715870e+00 0.000000000000e+00 0.000000000000e+00 0.000000000000e+00 0.000000000000e+00 0.000000000000e+00 0.000000000000e+00 0.000000000000e+00 0.000000000000e+00 0.000000000000e+00 -0.000000000000e+00 0.000000000000e+00  0.000000000000e+00
4.387611607894e+00 0.000000000000e+00 0.000000000000e+00 0.000000000000e+00 0.000000000000e+00 0.000000000000e+00 0.000000000000e+00 0.000000000000e+00 0.000000000000e+00 0.000000000000e+00 -0.000000000000e+00 0.000000000000e+00  0.000000000000e+00
4.693805803947e+00 0.000000000000e+00 0.000000000000e+00 0.000000000000e+00 0.000000000000e+00 0.000000000000e+00 0.000000000000e+00 0.000000000000e+00 0.000000000000e+00 0.000000000000e+00 -0.000000000000e+00 0.000000000000e+00  0.000000000000e+00
5.000000000000e+00 0.000000000000e+00 -7.941726824733e-03 2.276104405987e+00 -8.682733219365e-02 1.094526958280e-01 7.156671305445e-01 8.114276765561e-05 -9.030063828139e-06 7.069845064227e-04 -1.033741410787e+00 1.941915803824e+00  6.702903756448e-04
5.281293062422e+00 0.000000000000e+00 -7.734913066559e-03 -1.555977611838e+00 -1.391678461926e-02 -6.819093533671e-02 -4.872505641523e-01 -5.557378559925e-05 -1.447341039729e-06 7.600937883202e-04 7.038063704422e-01 1.328995810959e+00  7.893532709151e-04
5.562586124843e+00 0.000000000000e+00 -7.518376560458e-03 -4.244359824937e+00 -5.440112394942e-03 -6.530483282727e-01 -1.469222445963e+00 -1.443071277063e-04 -5.657657447528e-07 7.805387589285e-04 2.122210199724e+00 3.260768582526e+00  8.618025109813e-04
5.903654518747e+00 0.000000000000e+00 -7.252095341436e-03 -6.658613895367e+00 -1.245916574318e-03 -1.656410634124e+00 -2.494507358847e+00 -2.165335270390e-04 -1.295688930056e-07 7.814301887358e-04 3.603177296113e+00 4.640271336253e+00  9.092446279553e-04
6.244722912650e+00 0.000000000000e+00 -6.988620041241e-03 -8.380121784356e+00 1.019109874252e-03 -2.841192198488e+00 -3.366394194853e+00 -2.607138237259e-04 1.059939712620e-07 7.649111150885e-04 4.862569392566e+00 5.295896933827e+00  9.233004100492e-04
6.658257388739e+00 0.000000000000e+00 -6.679354273791e-03 -9.822060594808e+00 1.876650633614e-03 -4.358915958149e+00 -4.254292965887e+00 -2.895239073561e-04 1.951782755367e-07 7.318588581976e-04 6.145089839615e+00 5.516201265008e+00  9.117742219405e-04
7.071791864828e+00 0.000000000000e+00 -6.385343193242e-03 -1.078597494880e+01 1.401071563253e-03 -5.871063991354e+00 -4.997111682046e+00 -3.010208816585e-04 1.457180771526e-07 6.915523754444e-04 7.218050207399e+00 5.405140703890e+00  8.814930678387e-04
7.573083389471e+00 0.000000000000e+00 -6.052126912900e-03 -1.153537696511e+01 4.634912733822e-03 -7.604390633916e+00 -5.741930279708e+00 -3.012592204361e-04 4.820375413741e-07 6.397846463050e-04 8.293899292911e+00 5.122771002988e+00  8.323600377354e-04
8.074374914115e+00 0.000000000000e+00 -5.744910357106e-03 -1.198128636406e+01 5.104568111744e-03 -9.193241226198e+00 -6.352358277076e+00 -2.927042540880e-04 5.308817016640e-07 5.885413601309e-04 9.175628622444e+00 4.874874325018e+00  7.773841510277e-04
8.682563631455e+00 0.000000000000e+00 -5.405813123736e-03 -1.225562697903e+01 4.336577909516e-03 -1.092819289312e+01 -6.955145961644e+00 -2.756250072148e-04 4.510107289634e-07 5.292256211826e-04 1.004632194460e+01 4.777153703997e+00  7.084612400174e-04
9.290752348795e+00 0.000000000000e+00 -5.100784659610e-03 -1.236408411057e+01 4.005997661526e-03 -1.243371666639e+01 -7.439340233089e+00 -2.560866765151e-04 4.166303825729e-07 4.756732749235e-04 1.074571367002e+01 4.959931612294e+00  6.431637110331e-04
1.002772910440e+01 0.000000000000e+00 -4.771770151419e-03 -1.236190885204e+01 -6.476574869035e-03 -1.400253987545e+01 -7.909334618246e+00 -2.315338556021e-04 -6.735571403994e-07 4.179971105217e-04 1.142459444858e+01 5.460974704435e+00  5.701853684213e-04
1.076470585999e+01 0.000000000000e+00 -4.481542589057e-03 -1.234439768798e+01 4.731630555572e-03 -1.524921664878e+01 -8.278084301028e+00 -2.114482919671e-04 4.920961987725e-07 3.718078360041e-04 1.195723287926e+01 6.065051454675e+00  5.114394445375e-04
1.165833906230e+01 0.000000000000e+00 -4.173398755242e-03 -1.224207945067e+01 2.288757240846e-02 -1.657888381455e+01 -8.646288979566e+00 -1.869811007671e-04 2.380314116848e-06 3.211605586269e-04 1.248908408160e+01 6.879926782477e+00  4.451673718081e-04
1.255197226460e+01 0.000000000000e+00 -3.905891443945e-03 -1.210534254876e+01 1.969969306178e-02 -1.764108359912e+01 -8.923927844362e+00 -1.654335612450e-04 2.048774665553e-06 2.797121626018e-04 1.289011799741e+01 7.640581176129e+00  3.897352033230e-04
1.363578457093e+01 0.000000000000e+00 -3.626190177258e-03 -1.193031733886e+01 -3.127337782056e-03 -1.870312797370e+01 -9.190033593768e+00 -1.424947517137e-04 -3.252365173333e-07 2.375335342390e-04 1.327449296878e+01 8.481719821533e+00  3.325274928115e-04
1.471959687725e+01 0.000000000000e+00 -3.386399720421e-03 -1.180074176895e+01 -3.109366811283e-03 -1.949225118413e+01 -9.387897885923e+00 -1.254678791504e-04 -3.233675434991e-07 2.059982504917e-04 1.356029694633e+01 9.139998530408e+00  2.898688413778e-04
1.603364479030e+01 0.000000000000e+00 -3.139099332101e-03 -1.164172454870e+01 7.486818474752e-03 -2.031880263507e+01 -9.588158155130e+00 -1.067854499860e-04 7.786357036603e-07 1.724735065289e-04 1.384956177963e+01 9.865492545211e+00  2.440690939245e-04
1.734769270334e+01 0.000000000000e+00 -2.929811208032e-03 -1.150922418767e+01 3.259406467833e-03 -2.094419106272e+01 -9.736024575118e+00 -9.220637760588e-05 3.389848517930e-07 1.466847595195e-04 1.406314660850e+01 1.043517840181e+01  2.086721107478e-04
1.894091660434e+01 0.000000000000e+00 -2.716556314644e-03 -1.137241079684e+01 3.161210083526e-03 -2.153384539831e+01 -9.871876858545e+00 -7.802776278198e-05 3.287724175076e-07 1.219260026963e-04 1.425937768456e+01 1.098881079648e+01  1.745514806225e-04
2.053414050534e+01 0.000000000000e+00 -2.538542537313e-03 -1.125659327721e+01 2.091349475211e-03 -2.199028272050e+01 -9.974062799311e+00 -6.669158304384e-05 2.175069051978e-07 1.023438806859e-04 1.440697959900e+01 1.142905378692e+01  1.474708598616e-04
2.246588672828e+01 0.000000000000e+00 -2.359871442060e-03 -1.113604897883e+01 2.151428932787e-03 -2.241844381253e+01 -1.006634783741e+01 -5.562445776160e-05 2.237551558068e-07 8.347057999469e-05 1.454028020959e+01 1.185350151782e+01  1.212624178230e-04
2.439763295123e+01 0.000000000000e+00 -2.213356416935e-03 -1.103685953673e+01 1.965836812147e-03 -2.274295619420e+01 -1.013394471928e+01 -4.695156910311e-05 2.044535626394e-07 6.870322806429e-05 1.463792015007e+01 1.218267515128e+01  1.007493580701e-04
2.674066075506e+01 0.000000000000e+00 -2.069359009614e-03 -1.093747120751e+01 -2.123959187072e-03 -2.304419311598e+01 -1.019449929704e+01 -3.863453814761e-05 -2.208852305588e-07 5.448028173950e-05 1.472538787351e+01 1.249478653152e+01  8.102897957093e-05
2.908368855890e+01 0.000000000000e+00 -1.954317899308e-03 -1.086960456743e+01 -1.139036463467e-03 -2.325491420673e+01 -1.023735563225e+01 -3.287694361307e-05 -1.184532828495e-07 4.404384995613e-05 1.478729146880e+01 1.271323075779e+01  6.684925882421e-05
3.192363373876e+01 0.000000000000e+00 -1.844911937205e-03 -1.080626800952e+01 2.126456229955e-03 -2.345934623751e+01 -1.027968427411e+01 -2.738235345008e-05 2.211579318111e-07 3.354488428402e-05 1.484843284038e+01 1.292441866534e+01  5.285581474627e-05
3.476357891862e+01 0.000000000000e+00 -1.761044825128e-03 -1.076633322096e+01 1.411375116345e-03 -2.360068802666e+01 -1.031010637428e+01 -2.372379547369e-05 1.467894791186e-07 2.570747097484e-05 1.489237587396e+01 1.306844250139e+01  4.282097570824e-05
3.820666078923e+01 0.000000000000e+00 -1.684787797121e-03 -1.075476621034e+01 6.638266203730e-04 -2.371736285568e+01 -1.034163871981e+01 -2.148262930397e-05 6.904441643833e-08 1.877094083891e-05 1.493792259528e+01 1.317401960141e+01  3.488717596644e-05
4.164974265985e+01 0.000000000000e+00 -1.627907749713e-03 -1.079004514252e+01 4.851374998196e-04 -2.378661364167e+01 -1.037299763526e+01 -2.168647065860e-05 5.046074368992e-08 1.429144258096e-05 1.498321880648e+01 1.321003060473e+01  3.137653469923e-05
4.582487132993e+01 0.000000000000e+00 -1.572637228174e-03 -1.092041099077e+01 -2.227221975481e-03 -2.381095885599e+01 -1.041941095403e+01 -2.605200347091e-05 -2.316247496683e-07 1.239638947500e-05 1.505026026693e+01 1.314820919890e+01  3.399248576624e-05
5.000000000000e+01 0.000000000000e+00 -1.515259183631e-03 -1.118279920313e+01 -6.188499138280e-03 -2.376322503582e+01 -1.048380727168e+01 -3.634758707876e-05 -6.435982874099e-07 1.518456415924e-05 1.514327717021e+01 1.294408880129e+01  4.587900390649e-05
 ZONE T="TIME=2.000000000000e-01"
0.000000000000e+00 0.000000000000e+00 0.000000000000e+00 0.000000000000e+00 0.000000000000e+00 0.000000000000e+00 0.000000000000e+00 0.000000000000e+00 0.000000000000e+00 0.000000000000e+00 -0.000000000000e+00 0.000000000000e+00  0.000000000000e+00
5.454930089679e-01 0.000000000000e+00 0.000000000000e+00 0.000000000000e+00 0.000000000000e+00 0.000000000000e+00 0.000000000000e+00 0.000000000000e+00 0.000000000000e+00 0.000000000000e+00 -0.000000000000e+00 0.000000000000e+00  0.000000000000e+00
1.090986017936e+00 0.000000000000e+00 0.000000000000e+00 0.000000000000e+00 0.000000000000e+00 0.000000000000e+00 0.000000000000e+00 0.000000000000e+00 0.000000000000e+00 0.000000000000e+00 -0.000000000000e+00 0.000000000000e+00  0.000000000000e+00
1.576857321493e+00 0.000000000000e+00 0.000000000000e+00 0.000000000000e+00 0.000000000000e+00 0.000000000000e+00 0.000000000000e+00 0.000000000000e+00 0.000000000000e+00 0.000000000000e+00 -0.000000000000e+00 0.000000000000e+00  0.000000000000e+00
2.062728625050e+00 0.000000000000e+00 0.000000000000e+00 0.000000000000e+00 0.000000000000e+00 0.000000000000e+00 0.000000000000e+00 0.000000000000e+00 0.000000000000e+00 0.000000000000e+00 -0.000000000000e+00 0.000000000000e+00  0.000000000000e+00
2.495760229428e+00 0.000000000000e+00 0.000000000000e+00 0.000000000000e+00 0.000000000000e+00 0.000000000000e+00 0.000000000000e+00 0.000000000000e+00 0.000000000000e+00 0.000000000000e+00 -0.000000000000e+00 0.000000000000e+00  0.000000000000e+00
2.928791833805e+00 0.000000000000e+00 0.000000000000e+00 0.000000000000e+00 0.000000000000e+00 0.000000000000e+00 0.000000000000e+00 0.000000000000e+00 0.000000000000e+00 0.000000000000e+00 -0.000000000000e+00 0.000000000000e+00  0.000000000000e+00
3.314529828825e+00 0.000000000000e+00 0.000000000000e+00 0.000000000000e+00 0.000000000000e+00 0.000000000000e+00 0.000000000000e+00 0.000000000000e+00 0.000000000000e+00 0.000000000000e+00 -0.000000000000e+00 0.000000000000e+00  0.000000000000e+00
3.700267823845e+00 0.000000000000e+00 0.000000000000e+00 0.000000000000e+00 0.000000000000e+00 0.000000000000e+00 0.000000000000e+00 0.000000000000e+00 0.000000000000e+00 0.000000000000e+00 -0.000000000000e+00 0.000000000000e+00  0.000000000000e+00
4.043939715870e+00 0.000000000000e+00 0.000000000000e+00 0.000000000000e+00 0.000000000000e+00 0.000000000000e+00 0.000000000000e+00 0.000000000000e+00 0.000000000000e+00 0.000000000000e+00 -0.000000000000e+00 0.000000000000e+00  0.000000000000e+00
4.387611607894e+00 0.000000000000e+00 0.000000000000e+00 0.000000000000e+00 0.000000000000e+00 0.000000000000e+00 0.000000000000e+00 0.000000000000e+00 0.000000000000e+00 0.000000000000e+00 -0.000000000000e+00 0.000000000000e+00  0.000000000000e+00
4.693805803947e+00 0.000000000000e+00 0.000000000000e+00 0.000000000000e+00 0.000000000000e+00 0.000000000000e+00 0.000000000000e+00 0.000000000000e+00 0.000000000000e+00 0.000000000000e+00 -0.000000000000e+00 0.000000000000e+00  0.000000000000e+00
5.000000000000e+00 0.000000000000e+00 -7.956501178697e-03 1.186790414133e+00 -6.723226599059e-02 8.454091330557e-02 3.813993982316e-01 4.188036215947e-05 -6.992176943020e-06 7.230710158118e-04 -5.509102418901e-01 9.946996220425e-01  7.031712837195e-04
5.281293062422e+00 0.000000000000e+00 -7.745953234884e-03 -2.423486088133e+00 -1.506384160692e-02 -1.331012635533e-01 -7.669762055060e-01 -8.613849301624e-05 -1.566634966446e-06 7.712641846033e-04 1.107854519064e+00 2.048541748890e+00  8.177476261325e-04
5.562586124843e+00 0.000000000000e+00 -7.526627701887e-03 -4.999689938532e+00 -5.568049932339e-03 -7.426249839273e-01 -1.722694476738e+00 -1.704037480130e-04 -5.790712486421e-07 7.890613184348e-04 2.488336466399e+00 3.861477923941e+00  8.866313854307e-04
5.903654518747e+00 0.000000000000e+00 -7.257918787226e-03 -7.298144478962e+00 -1.010623219211e-03 -1.772606463151e+00 -2.721225282634e+00 -2.379997853490e-04 -1.050983840744e-07 7.871773376633e-04 3.930658741582e+00 5.117599216757e+00  9.293224033076e-04
6.244722912650e+00 0.000000000000e+00 -6.992837832006e-03 -8.924727755667e+00 1.211144535495e-03 -2.973770367428e+00 -3.569549436928e+00 -2.784692616462e-04 1.259655760312e-07 7.685811228915e-04 5.156015853341e+00 5.676565430038e+00  9.393020480951e-04
6.658257388739e+00 0.000000000000e+00 -6.682417869924e-03 -1.027524937947e+01 1.933162470928e-03 -4.500285197230e+00 -4.432660373010e+00 -3.038146189881e-04 2.010555066173e-07 7.337827629358e-04 6.402731649904e+00 5.809072780751e+00  9.239450837057e-04
7.071791864828e+00 0.000000000000e+00 -6.387844867647e-03 -1.116765512580e+01 1.389449833115e-03 -6.013273255627e+00 -5.154278514427e+00 -3.126955755786e-04 1.445094172182e-07 6.923301689860e-04 7.445068965284e+00 5.633215524127e+00  8.908356914746e-04
7.573083389471e+00 0.000000000000e+00 -6.054447698665e-03 -1.185039774759e+01 4.608235592494e-03 -7.741261980443e+00 -5.877497918411e+00 -3.105907839128e-04 4.792631186760e-07 6.397168534982e-04 8.489719215483e+00 5.293121622269e+00  8.392825125015e-04
8.074374914115e+00 0.000000000000e+00 -5.747373127289e-03 -1.224556955644e+01 5.051941104527e-03 -9.321234376084e+00 -6.470041179758e+00 -3.003274691526e-04 5.254084929134e-07 5.880052272763e-04 9.345615037429e+00 5.001895643274e+00  7.826504238487e-04
8.682563631455e+00 0.000000000000e+00 -5.408670486041e-03 -1.247348585646e+01 4.271497474169e-03 -1.104343044620e+01 -7.055074890799e+00 -2.817573645252e-04 4.442423636873e-07 5.284295727383e-04 1.019066373115e+01 4.863708738178e+00  7.124005485781e-04
9.290752348795e+00 0.000000000000e+00 -5.104138632627e-03 -1.254716077561e+01 3.965816327083e-03 -1.253614609620e+01 -7.524992061541e+00 -2.611527680175e-04 4.124515237909e-07 4.748008396532e-04 1.086943297778e+01 5.016675145998e+00  6.462450537218e-04
1.002772910440e+01 0.000000000000e+00 -4.775751309276e-03 -1.251357311790e+01 -6.455517002905e-03 -1.409051023324e+01 -7.981225005341e+00 -2.356820972980e-04 -6.713671223219e-07 4.171609520456e-04 1.152843611883e+01 5.493292551701e+00  5.726150811747e-04
1.076470585999e+01 0.000000000000e+00 -4.486116622352e-03 -1.247133043306e+01 4.567018238532e-03 -1.532610158256e+01 -8.339229604684e+00 -2.148692389209e-04 4.749765178003e-07 3.709893752377e-04 1.204555387343e+01 6.084426051525e+00  5.133388626305e-04
1.165833906230e+01 0.000000000000e+00 -4.178620400067e-03 -1.234720167246e+01 2.253071451703e-02 -1.664304884577e+01 -8.697075155470e+00 -1.898065751533e-04 2.343200896139e-06 3.204648581504e-04 1.256244189123e+01 6.889095376464e+00  4.467293030847e-04
1.255197226460e+01 0.000000000000e+00 -3.911671278125e-03 -1.219389575863e+01 1.940778475742e-02 -1.769537122844e+01 -8.966780096121e+00 -1.678100110671e-04 2.018416201899e-06 2.791175229685e-04 1.295201569440e+01 7.644313931672e+00  3.910469640243e-04
1.363578457093e+01 0.000000000000e+00 -3.632541288309e-03 -1.200363853606e+01 -3.108157826688e-03 -1.874765630219e+01 -9.225388451472e+00 -1.444690013673e-04 -3.232418019751e-07 2.370565137584e-04 1.332556109657e+01 8.481570967308e+00  3.336385983926e-04
1.471959687725e+01 0.000000000000e+00 -3.393231249422e-03 -1.186174044689e+01 -3.095872151185e-03 -1.953019902460e+01 -9.417581841447e+00 -1.270962447161e-04 -3.219640988489e-07 2.055685284745e-04 1.360317377098e+01 9.139044043178e+00  2.907562111179e-04
1.603364479030e+01 0.000000000000e+00 -3.146415879519e-03 -1.169166330908e+01 7.396049644762e-03 -2.034958885236e+01 -9.612375648434e+00 -1.081229558741e-04 7.691957453414e-07 1.721319328813e-04 1.388454260329e+01 9.863345970934e+00  2.448125084103e-04