 TITLE = "Profiles along polylines"
 VARIABLES = "DIST" "DISPLACEMENT_X1" "DISPLACEMENT_Y1" "STRESS_XX" "STRESS_XY" "STRESS_YY" "STRESS_ZZ" "STRAIN_XX" "STRAIN_XY" "STRAIN_YY"  p_(1st_Invariant)  q_(2nd_Invariant)   Effective_Strain
 ZONE T="TIME=0.000000000000e+00"
0.000000000000e+00 0.000000000000e+00 0.000000000000e+00 2.804923407256e+01 0.000000000000e+00 2.836865513444e+01 2.804923407256e+01 0.000000000000e+00 0.000000000000e+00 0.000000000000e+00 -2.815570775985e+01 3.194210618800e-01  0.000000000000e+00
5.555555555556e-01 0.000000000000e+00 0.000000000000e+00 3.362724281289e+01 0.000000000000e+00 3.909642138726e+01 3.362724281289e+01 0.000000000000e+00 0.000000000000e+00 0.000000000000e+00 -3.545030233768e+01 5.469178574371e+00  0.000000000000e+00
1.111111111111e+00 0.000000000000e+00 0.000000000000e+00 3.865901556757e+01 0.000000000000e+00 4.937820973032e+01 3.865901556757e+01 0.000000000000e+00 0.000000000000e+00 0.000000000000e+00 -4.223208028848e+01 1.071919416275e+01  0.000000000000e+00
1.666666666667e+00 0.000000000000e+00 0.000000000000e+00 4.472215222538e+01 0.000000000000e+00 6.130618029793e+01 4.472215222538e+01 0.000000000000e+00 0.000000000000e+00 0.000000000000e+00 -5.025016158290e+01 1.658402807255e+01  0.000000000000e+00
2.222222222222e+00 0.000000000000e+00 0.000000000000e+00 4.991429592594e+01 0.000000000000e+00 7.184500396272e+01 4.991429592594e+01 0.000000000000e+00 0.000000000000e+00 0.000000000000e+00 -5.722453193820e+01 2.193070803678e+01  0.000000000000e+00
2.777777777778e+00 0.000000000000e+00 0.000000000000e+00 5.583383572247e+01 0.000000000000e+00 8.349929608894e+01 5.583383572247e+01 0.000000000000e+00 0.000000000000e+00 0.000000000000e+00 -6.505565584463e+01 2.766546036647e+01  0.000000000000e+00
3.333333333333e+00 0.000000000000e+00 0.000000000000e+00 6.086832711386e+01 0.000000000000e+00 9.381132324997e+01 6.086832711386e+01 0.000000000000e+00 0.000000000000e+00 0.000000000000e+00 -7.184932582590e+01 3.294299613611e+01  0.000000000000e+00
3.888888888889e+00 0.000000000000e+00 0.000000000000e+00 6.693604397523e+01 0.000000000000e+00 1.056390460950e+02 6.693604397523e+01 0.000000000000e+00 0.000000000000e+00 0.000000000000e+00 -7.983704468182e+01 3.870300211978e+01  0.000000000000e+00
4.444444444444e+00 0.000000000000e+00 0.000000000000e+00 7.197547894132e+01 0.000000000000e+00 1.159842625058e+02 7.197547894132e+01 0.000000000000e+00 0.000000000000e+00 0.000000000000e+00 -8.664507346281e+01 4.400878356446e+01  0.000000000000e+00
5.000000000000e+00 0.000000000000e+00 0.000000000000e+00 5.110611300610e+01 0.000000000000e+00 7.585421103251e+01 5.110611300610e+01 0.000000000000e+00 0.000000000000e+00 0.000000000000e+00 -5.935547901490e+01 2.474809802641e+01  0.000000000000e+00
5.526479744387e+00 0.000000000000e+00 0.000000000000e+00 2.476845886409e+01 0.000000000000e+00 2.479799304662e+01 2.476845886409e+01 0.000000000000e+00 0.000000000000e+00 0.000000000000e+00 -2.477830359160e+01 2.953418253673e-02  0.000000000000e+00
6.108536036091e+00 0.000000000000e+00 0.000000000000e+00 2.477559070613e+01 0.000000000000e+00 2.481653583594e+01 2.477559070613e+01 0.000000000000e+00 0.000000000000e+00 0.000000000000e+00 -2.478923908273e+01 4.094512980808e-02  0.000000000000e+00
6.751613711279e+00 0.000000000000e+00 0.000000000000e+00 2.477215686771e+01 0.000000000000e+00 2.480760785605e+01 2.477215686771e+01 0.000000000000e+00 0.000000000000e+00 0.000000000000e+00 -2.478397386383e+01 3.545098833989e-02  0.000000000000e+00
7.462504976728e+00 0.000000000000e+00 0.000000000000e+00 2.478535795025e+01 0.000000000000e+00 2.484193067064e+01 2.478535795025e+01 0.000000000000e+00 0.000000000000e+00 0.000000000000e+00 -2.480421552371e+01 5.657272039316e-02  0.000000000000e+00
8.248740147909e+00 0.000000000000e+00 0.000000000000e+00 2.476910025670e+01 0.000000000000e+00 2.479966066743e+01 2.476910025670e+01 0.000000000000e+00 0.000000000000e+00 0.000000000000e+00 -2.477928706028e+01 3.056041072355e-02  0.000000000000e+00
9.117163628135e+00 0.000000000000e+00 0.000000000000e+00 2.477139145232e+01 0.000000000000e+00 2.480561777603e+01 2.477139145232e+01 0.000000000000e+00 0.000000000000e+00 0.000000000000e+00 -2.478280022689e+01 3.422632370974e-02  0.000000000000e+00
1.007684735867e+01 0.000000000000e+00 0.000000000000e+00 2.481175104181e+01 0.000000000000e+00 2.491055270870e+01 2.481175104181e+01 0.000000000000e+00 0.000000000000e+00 0.000000000000e+00 -2.484468493077e+01 9.880166689243e-02  0.000000000000e+00
1.113781315977e+01 0.000000000000e+00 0.000000000000e+00 2.479673556898e+01 0.000000000000e+00 2.487151247934e+01 2.479673556898e+01 0.000000000000e+00 0.000000000000e+00 0.000000000000e+00 -2.482166120576e+01 7.477691036034e-02  0.000000000000e+00
1.231076239245e+01 0.000000000000e+00 0.000000000000e+00 2.477105030360e+01 0.000000000000e+00 2.480473078936e+01 2.477105030360e+01 0.000000000000e+00 0.000000000000e+00 0.000000000000e+00 -2.478227713218e+01 3.368048575738e-02  0.000000000000e+00
1.360674535649e+01 0.000000000000e+00 0.000000000000e+00 2.478297930325e+01 0.000000000000e+00 2.483574618845e+01 2.478297930325e+01 0.000000000000e+00 0.000000000000e+00 0.000000000000e+00 -2.480056826499e+01 5.276688520231e-02  0.000000000000e+00
1.503955188946e+01 0.000000000000e+00 0.000000000000e+00 2.482682882531e+01 0.000000000000e+00 2.494975494580e+01 2.482682882531e+01 0.000000000000e+00 0.000000000000e+00 0.000000000000e+00 -2.486780419880e+01 1.229261204902e-01  0.000000000000e+00
1.662325557874e+01 0.000000000000e+00 0.000000000000e+00 2.478395212164e+01 0.000000000000e+00 2.483827551626e+01 2.478395212164e+01 0.000000000000e+00 0.000000000000e+00 0.000000000000e+00 -2.480205991985e+01 5.432339462436e-02  0.000000000000e+00
1.837344851328e+01 0.000000000000e+00 0.000000000000e+00 2.480862820681e+01 0.000000000000e+00 2.490243333771e+01 2.480862820681e+01 0.000000000000e+00 0.000000000000e+00 0.000000000000e+00 -2.483989658378e+01 9.380513090041e-02  0.000000000000e+00
2.030866971233e+01 0.000000000000e+00 0.000000000000e+00 2.486364433508e+01 0.000000000000e+00 2.504547527121e+01 2.486364433508e+01 0.000000000000e+00 0.000000000000e+00 0.000000000000e+00 -2.492425464712e+01 1.818309361266e-01  0.000000000000e+00
2.244687637061e+01 0.000000000000e+00 0.000000000000e+00 2.484849745374e+01 0.000000000000e+00 2.500609337972e+01 2.484849745374e+01 0.000000000000e+00 0.000000000000e+00 0.000000000000e+00 -2.490102942907e+01 1.575959259844e-01  0.000000000000e+00
2.481028520732e+01 0.000000000000e+00 0.000000000000e+00 2.484203873225e+01 0.000000000000e+00 2.498930070386e+01 2.484203873225e+01 0.000000000000e+00 0.000000000000e+00 0.000000000000e+00 -2.489112605612e+01 1.472619716078e-01  0.000000000000e+00
2.742248370087e+01 0.000000000000e+00 0.000000000000e+00 2.486089137524e+01 0.000000000000e+00 2.503831757562e+01 2.486089137524e+01 0.000000000000e+00 0.000000000000e+00 0.000000000000e+00 -2.492003344203e+01 1.774262003827e-01  0.000000000000e+00
3.030957546784e+01 0.000000000000e+00 0.000000000000e+00 2.486648680386e+01 0.000000000000e+00 2.505286569003e+01 2.486648680386e+01 0.000000000000e+00 0.000000000000e+00 0.000000000000e+00 -2.492861309925e+01 1.863788861736e-01  0.000000000000e+00
3.350289432936e+01 0.000000000000e+00 0.000000000000e+00 2.490903444692e+01 0.000000000000e+00 2.516348956200e+01 2.490903444692e+01 0.000000000000e+00 0.000000000000e+00 0.000000000000e+00 -2.499385281862e+01 2.544551150794e-01  0.000000000000e+00
3.703011579382e+01 0.000000000000e+00 0.000000000000e+00 2.488107277944e+01 0.000000000000e+00 2.509078922655e+01 2.488107277944e+01 0.000000000000e+00 0.000000000000e+00 0.000000000000e+00 -2.495097826181e+01 2.097164471055e-01  0.000000000000e+00
4.092785441703e+01 0.000000000000e+00 0.000000000000e+00 2.489567612097e+01 0.000000000000e+00 2.512875791453e+01 2.489567612097e+01 0.000000000000e+00 0.000000000000e+00 0.000000000000e+00 -2.497337005216e+01 2.330817935564e-01  0.000000000000e+00
4.523771677800e+01 0.000000000000e+00 0.000000000000e+00 2.494269849407e+01 0.000000000000e+00 2.525101608457e+01 2.494269849407e+01 0.000000000000e+00 0.000000000000e+00 0.000000000000e+00 -2.504547102423e+01 3.083175905054e-01  0.000000000000e+00
5.000000000000e+01 0.000000000000e+00 0.000000000000e+00 2.477763087939e+01 0.000000000000e+00 2.482184028640e+01 2.477763087939e+01 0.000000000000e+00 0.000000000000e+00 0.000000000000e+00 -2.479236734839e+01 4.420940701647e-02  0.000000000000e+00
 TITLE = "Profiles along polylines"
 VARIABLES = "DIST" "DISPLACEMENT_X1" "DISPLACEMENT_Y1" "STRESS_XX" "STRESS_XY" "STRESS_YY" "STRESS_ZZ" "STRAIN_XX" "STRAIN_XY" "STRAIN_YY"  p_(1st_Invariant)  q_(2nd_Invariant)   Effective_Strain
 ZONE T="TIME=1.000000000000e+00"
0.000000000000e+00 0.000000000000e+00 0.000000000000e+00 0.000000000000e+00 0.000000000000e+00 0.000000000000e+00 0.000000000000e+00 0.000000000000e+00 0.000000000000e+00 0.000000000000e+00 -0.000000000000e+00 0.000000000000e+00  0.000000000000e+00
5.555555555556e-01 0.000000000000e+00 0.000000000000e+00 0.000000000000e+00 0.000000000000e+00 0.000000000000e+00 0.000000000000e+00 0.000000000000e+00 0.000000000000e+00 0.000000000000e+00 -0.000000000000e+00 0.000000000000e+00  0.000000000000e+00
1.111111111111e+00 0.000000000000e+00 0.000000000000e+00 0.000000000000e+00 0.000000000000e+00 0.000000000000e+00 0.000000000000e+00 0.000000000000e+00 0.000000000000e+00 0.000000000000e+00 -0.000000000000e+00 0.000000000000e+00  0.000000000000e+00
1.666666666667e+00 0.000000000000e+00 0.000000000000e+00 0.000000000000e+00 0.000000000000e+00 0.000000000000e+00 0.000000000000e+00 0.000000000000e+00 0.000000000000e+00 0.000000000000e+00 -0.000000000000e+00 0.000000000000e+00  0.000000000000e+00
2.222222222222e+00 0.000000000000e+00 0.000000000000e+00 0.000000000000e+00 0.000000000000e+00 0.000000000000e+00 0.000000000000e+00 0.000000000000e+00 0.000000000000e+00 0.000000000000e+00 -0.000000000000e+00 0.000000000000e+00  0.000000000000e+00
2.777777777778e+00 0.000000000000e+00 0.000000000000e+00 0.000000000000e+00 0.000000000000e+00 0.000000000000e+00 0.000000000000e+00 0.000000000000e+00 0.000000000000e+00 0.000000000000e+00 -0.000000000000e+00 0.000000000000e+00  0.000000000000e+00
3.333333333333e+00 0.000000000000e+00 0.000000000000e+00 0.000000000000e+00 0.000000000000e+00 0.000000000000e+00 0.000000000000e+00 0.000000000000e+00 0.000000000000e+00 0.000000000000e+00 -0.000000000000e+00 0.000000000000e+00  0.000000000000e+00
3.888888888889e+00 0.000000000000e+00 0.000000000000e+00 0.000000000000e+00 0.000000000000e+00 0.000000000000e+00 0.000000000000e+00 0.000000000000e+00 0.000000000000e+00 0.000000000000e+00 -0.000000000000e+00 0.000000000000e+00  0.000000000000e+00
4.444444444444e+00 0.000000000000e+00 0.000000000000e+00 0.000000000000e+00 0.000000000000e+00 0.000000000000e+00 0.000000000000e+00 0.000000000000e+00 0.000000000000e+00 0.000000000000e+00 -0.000000000000e+00 0.000000000000e+00  0.000000000000e+00
5.000000000000e+00 3.343467178160e-02 0.000000000000e+00 -8.019629363431e+01 -6.012094139664e+01 1.878890822742e+02 4.220542684554e+01 -6.120086023993e-03 -6.012094139664e-03 7.281773025006e-03 -4.996607182848e+01 2.547183179298e+02  1.560386415224e-02
5.526479744387e+00 3.000838950866e-02 0.000000000000e+00 -2.785832216618e+01 -8.825001985272e+00 1.390318176802e+02 4.325057194508e+01 -3.555444705563e-03 -8.825001985272e-04 4.787585577629e-03 -5.147468915303e+01 1.458597350102e+02  7.410841943602e-03
6.108536036091e+00 2.862404202268e-02 0.000000000000e+00 -8.749970011455e+00 1.914612555506e+00 6.890582544909e+01 2.794470937480e+01 -1.834733969313e-03 1.914612555506e-04 2.046008547224e-03 -2.936685493748e+01 6.736738655072e+01  3.378794656929e-03
6.751613711279e+00 2.746703214774e-02 0.000000000000e+00 -1.464958911542e+01 1.002832018765e+00 5.005312244192e+01 2.051928744853e+01 -1.758443828198e-03 1.002832018765e-04 1.474919200252e-03 -1.864094025834e+01 5.613186351533e+01  2.809135822759e-03
7.462504976728e+00 2.614484167385e-02 0.000000000000e+00 -2.082432288869e+01 3.413487126071e-01 4.534177821191e+01 1.725240796095e+01 -1.903836542482e-03 3.413487126071e-05 1.401639876529e-03 -1.392328776139e+01 5.752174459197e+01  2.874226279994e-03
8.248740147909e+00 2.464498703254e-02 0.000000000000e+00 -2.144503216220e+01 8.441921130182e-02 4.338611875849e+01 1.648079795835e+01 -1.896291506027e-03 8.441921130182e-06 1.343738019471e-03 -1.280729485155e+01 5.641536035076e+01  2.819554243413e-03
9.117163628135e+00 2.303175244861e-02 0.000000000000e+00 -1.965043868891e+01 4.075309484383e-03 4.197120218931e+01 1.659451773393e+01 -1.812247821142e-03 4.075309484383e-07 1.267122906583e-03 -1.297176041145e+01 5.364186659790e+01  2.680705849294e-03
1.007684735867e+01 2.136626704564e-02 0.000000000000e+00 -1.619781088974e+01 -4.676509109348e-01 4.062508964214e+01 1.722324354238e+01 -1.671052721606e-03 -4.676509109348e-05 1.165152221644e-03 -1.388350743159e+01 4.947103945409e+01  2.470544193146e-03
1.113781315977e+01 1.968776326639e-02 0.000000000000e+00 -1.214674494386e+01 -3.553602599755e-01 3.912751618142e+01 1.799049252575e+01 -1.506861873481e-03 -3.553602599755e-05 1.053112337265e-03 -1.499042125443e+01 4.463650070710e+01  2.229430769860e-03
1.231076239245e+01 1.803263438960e-02 0.000000000000e+00 -8.103022266730e+00 -1.775485596562e-01 3.758996293450e+01 1.874439817604e+01 -1.342371022139e-03 -1.775485596562e-05 9.405942136349e-04 -1.607711294794e+01 3.977422113029e+01  1.987523473196e-03
1.360674535649e+01 1.642251799326e-02 0.000000000000e+00 -4.058251461153e+00 -2.328807532307e-01 3.617029392230e+01 1.953097439408e+01 -1.179461292762e-03 -2.328807532307e-05 8.293276321507e-04 -1.721433895174e+01 3.501413853825e+01  1.748913979322e-03
1.503955188946e+01 1.486768118816e-02 0.000000000000e+00 -5.134134010182e-02 -3.470182014761e-01 3.483063113338e+01 2.032764063196e+01 -1.018949098603e-03 -3.470182014761e-05 7.190032190464e-04 -1.836897680841e+01 3.035715873674e+01  1.513757981134e-03
1.662325557874e+01 1.338545547885e-02 0.000000000000e+00 3.203474187394e+00 -2.013502881250e-01 3.346587266516e+01 2.089808788604e+01 -8.847306849321e-04 -2.013502881250e-05 6.256730692251e-04 -1.918914491286e+01 2.633538096798e+01  1.314908208070e-03
1.837344851328e+01 1.196629992105e-02 0.000000000000e+00 6.179764906357e+00 -2.185510732882e-01 3.242402884244e+01 2.147644786809e+01 -7.648341480869e-04 -2.185510732882e-05 5.426887921723e-04 -2.002674720563e+01 2.283512662324e+01  1.138412164559e-03
2.030866971233e+01 1.061453208239e-02 0.000000000000e+00 8.999035466671e+00 -2.478138358619e-01 3.150783322264e+01 2.204296905999e+01 -6.521966796658e-04 -2.478138358619e-05 4.641516613263e-04 -2.084994591643e+01 1.957986598277e+01  9.722951182510e-04
2.244687637061e+01 9.330881677594e-03 0.000000000000e+00 1.114836066218e+01 -1.766119199106e-01 3.062010064785e+01 2.242265859671e+01 -5.637148967265e-04 -1.766119199106e-05 4.019923062578e-04 -2.139703996891e+01 1.693581499057e+01  8.407836247195e-04
2.481028520732e+01 8.101935612100e-03 0.000000000000e+00 1.298918482164e+01 -1.238486041990e-01 2.991458698888e+01 2.276376844458e+01 -4.887291811466e-04 -1.238486041990e-05 3.501778286348e-04 -2.188918008503e+01 1.471798152327e+01  7.301253330209e-04
2.742248370087e+01 6.920686683077e-03 0.000000000000e+00 1.453527071691e+01 -1.129831004145e-01 2.939052532542e+01 2.306886750268e+01 -4.266798392886e-04 -1.129831004145e-05 3.072115811180e-04 -2.233155451501e+01 1.291396167525e+01  6.386693857676e-04
3.030957546784e+01 5.775133191563e-03 0.000000000000e+00 1.575151989334e+01 -7.789869262952e-02 2.891520715062e+01 2.329069916888e+01 -3.769589637771e-04 -7.789869262952e-06 2.719064547785e-04 -2.265247540428e+01 1.144100925686e+01  5.645447742643e-04
3.350289432936e+01 4.653015885046e-03 0.000000000000e+00 1.685084439478e+01 -8.495740109427e-02 2.862151879734e+01 2.352898620188e+01 -3.339070903553e-04 -8.495740109427e-06 2.419038740191e-04 -2.300044979800e+01 1.022554518554e+01  5.010003800142e-04
3.703011579382e+01 3.539791208973e-03 0.000000000000e+00 1.759047796626e+01 -5.510038129152e-02 2.826615104198e+01 2.364650288012e+01 -3.028012456928e-04 -5.510038129152e-06 2.204965857380e-04 -2.316771062945e+01 9.273747862339e+00  4.551538872824e-04
4.092785441703e+01 2.411459022345e-03 0.000000000000e+00 1.819047249816e+01 -4.016796878582e-02 2.810740287992e+01 2.377770852375e+01 -2.793618012793e-04 -4.016796878582e-06 2.048306281309e-04 -2.335852796728e+01 8.611580825101e+00  4.210330859182e-04
4.523771677800e+01 1.244325350778e-03 0.000000000000e+00 1.858130458943e+01 -1.978576215161e-02 2.809462724600e+01 2.388736367110e+01 -2.653029540836e-04 -1.978576215161e-06 1.949472992195e-04 -2.352109850218e+01 8.257148012270e+00  4.001524029461e-04
5.000000000000e+01 0.000000000000e+00 0.000000000000e+00 1.852739069493e+01 1.550793854400e-02 2.762959069505e+01 2.374488394664e+01 -2.608746625855e-04 1.550793854400e-06 1.920248670693e-04 -2.330062177887e+01 7.910899764619e+00  3.937394778804e-04
