VARIABLES  = "X","Y","Z", "DISPLACEMENT_X1", "DISPLACEMENT_Y1", "STRESS_XX", "STRESS_XY", "STRESS_YY", "STRESS_ZZ", "STRAIN_XX", "STRAIN_XY", "STRAIN_YY"
ZONE T="0.000000000000e+00s", N=585, E=1086, F=FEPOINT, ET=QUADRILATERAL
STRANDID=1, SOLUTIONTIME=0.000000000000e+00
0.000000000000e+00 0.000000000000e+00 0.000000000000e+00 0.000000000000e+00 0.000000000000e+00 2.804923407256e+01 0.000000000000e+00 2.836865513444e+01 2.804923407256e+01 0.000000000000e+00 0.000000000000e+00 0.000000000000e+00 
5.000000000000e+01 0.000000000000e+00 0.000000000000e+00 0.000000000000e+00 0.000000000000e+00 2.477763087939e+01 0.000000000000e+00 2.482184028640e+01 2.477763087939e+01 0.000000000000e+00 0.000000000000e+00 0.000000000000e+00 
5.000000000000e+01 5.000000000000e+01 0.000000000000e+00 0.000000000000e+00 0.000000000000e+00 4.182225830748e+01 0.000000000000e+00 6.189149033731e+01 4.182225830748e+01 0.000000000000e+00 0.000000000000e+00 0.000000000000e+00 
0.000000000000e+00 5.000000000000e+01 0.000000000000e+00 0.000000000000e+00 0.000000000000e+00 3.372780672729e+01 0.000000000000e+00 3.372780672729e+01 3.372780672729e+01 0.000000000000e+00 0.000000000000e+00 0.000000000000e+00 
3.535533905933e+00 3.535533905933e+00 0.000000000000e+00 0.000000000000e+00 0.000000000000e+00 6.665394305014e+01 0.000000000000e+00 9.195535925766e+01 6.665394305014e+01 0.000000000000e+00 0.000000000000e+00 0.000000000000e+00 
5.000000000000e+00 0.000000000000e+00 0.000000000000e+00 0.000000000000e+00 0.000000000000e+00 5.110611300610e+01 0.000000000000e+00 7.585421103251e+01 5.110611300610e+01 0.000000000000e+00 0.000000000000e+00 0.000000000000e+00 
0.000000000000e+00 5.000000000000e+00 0.000000000000e+00 0.000000000000e+00 0.000000000000e+00 5.598201038466e+01 0.000000000000e+00 6.629062376599e+01 5.598201038466e+01 0.000000000000e+00 0.000000000000e+00 0.000000000000e+00 
0.000000000000e+00 5.555555555555e-01 0.000000000000e+00 0.000000000000e+00 0.000000000000e+00 3.415638424382e+01 0.000000000000e+00 3.675175050573e+01 3.415638424382e+01 0.000000000000e+00 0.000000000000e+00 0.000000000000e+00 
0.000000000000e+00 1.111111111111e+00 0.000000000000e+00 0.000000000000e+00 0.000000000000e+00 4.081792221248e+01 0.000000000000e+00 4.582302082857e+01 4.081792221248e+01 0.000000000000e+00 0.000000000000e+00 0.000000000000e+00 
0.000000000000e+00 1.666666666667e+00 0.000000000000e+00 0.000000000000e+00 0.000000000000e+00 4.740831431978e+01 0.000000000000e+00 5.455318456101e+01 4.740831431978e+01 0.000000000000e+00 0.000000000000e+00 0.000000000000e+00 
0.000000000000e+00 2.222222222222e+00 0.000000000000e+00 0.000000000000e+00 0.000000000000e+00 5.438929047718e+01 0.000000000000e+00 6.392027189033e+01 5.438929047718e+01 0.000000000000e+00 0.000000000000e+00 0.000000000000e+00 
0.000000000000e+00 2.777777777778e+00 0.000000000000e+00 0.000000000000e+00 0.000000000000e+00 6.081725792793e+01 0.000000000000e+00 7.228992083080e+01 6.081725792793e+01 0.000000000000e+00 0.000000000000e+00 0.000000000000e+00 
0.000000000000e+00 3.333333333333e+00 0.000000000000e+00 0.000000000000e+00 0.000000000000e+00 6.755180672495e+01 0.000000000000e+00 8.144691832715e+01 6.755180672495e+01 0.000000000000e+00 0.000000000000e+00 0.000000000000e+00 
0.000000000000e+00 3.888888888889e+00 0.000000000000e+00 0.000000000000e+00 0.000000000000e+00 7.411770731479e+01 0.000000000000e+00 9.005141343276e+01 7.411770731479e+01 0.000000000000e+00 0.000000000000e+00 0.000000000000e+00 
0.000000000000e+00 4.444444444444e+00 0.000000000000e+00 0.000000000000e+00 0.000000000000e+00 8.075429794748e+01 0.000000000000e+00 9.910796940096e+01 8.075429794748e+01 0.000000000000e+00 0.000000000000e+00 0.000000000000e+00 
0.000000000000e+00 5.526479744387e+00 0.000000000000e+00 0.000000000000e+00 0.000000000000e+00 2.486492695688e+01 0.000000000000e+00 2.486492695688e+01 2.486492695688e+01 0.000000000000e+00 0.000000000000e+00 0.000000000000e+00 
0.000000000000e+00 6.108536036092e+00 0.000000000000e+00 0.000000000000e+00 0.000000000000e+00 2.497944504685e+01 0.000000000000e+00 2.497944504685e+01 2.497944504685e+01 0.000000000000e+00 0.000000000000e+00 0.000000000000e+00 
0.000000000000e+00 6.751613711279e+00 0.000000000000e+00 0.000000000000e+00 0.000000000000e+00 2.510551543837e+01 0.000000000000e+00 2.510551543837e+01 2.510551543837e+01 0.000000000000e+00 0.000000000000e+00 0.000000000000e+00 
0.000000000000e+00 7.462504976728e+00 0.000000000000e+00 0.000000000000e+00 0.000000000000e+00 2.525659675907e+01 0.000000000000e+00 2.525659675907e+01 2.525659675907e+01 0.000000000000e+00 0.000000000000e+00 0.000000000000e+00 
0.000000000000e+00 8.248740147909e+00 0.000000000000e+00 0.000000000000e+00 0.000000000000e+00 2.541111791139e+01 0.000000000000e+00 2.541111791139e+01 2.541111791139e+01 0.000000000000e+00 0.000000000000e+00 0.000000000000e+00 
0.000000000000e+00 9.117163628135e+00 0.000000000000e+00 0.000000000000e+00 0.000000000000e+00 2.558588231950e+01 0.000000000000e+00 2.558588231950e+01 2.558588231950e+01 0.000000000000e+00 0.000000000000e+00 0.000000000000e+00 
0.000000000000e+00 1.007684735867e+01 0.000000000000e+00 0.000000000000e+00 0.000000000000e+00 2.578423652589e+01 0.000000000000e+00 2.578423652589e+01 2.578423652589e+01 0.000000000000e+00 0.000000000000e+00 0.000000000000e+00 
0.000000000000e+00 1.113781315977e+01 0.000000000000e+00 0.000000000000e+00 0.000000000000e+00 2.599624478002e+01 0.000000000000e+00 2.599624478002e+01 2.599624478002e+01 0.000000000000e+00 0.000000000000e+00 0.000000000000e+00 
0.000000000000e+00 1.231076239245e+01 0.000000000000e+00 0.000000000000e+00 0.000000000000e+00 2.622299835481e+01 0.000000000000e+00 2.622299835481e+01 2.622299835481e+01 0.000000000000e+00 0.000000000000e+00 0.000000000000e+00 
0.000000000000e+00 1.360674535649e+01 0.000000000000e+00 0.000000000000e+00 0.000000000000e+00 2.648098724732e+01 0.000000000000e+00 2.648098724732e+01 2.648098724732e+01 0.000000000000e+00 0.000000000000e+00 0.000000000000e+00 
0.000000000000e+00 1.503955188946e+01 0.000000000000e+00 0.000000000000e+00 0.000000000000e+00 2.678238815050e+01 0.000000000000e+00 2.678238815050e+01 2.678238815050e+01 0.000000000000e+00 0.000000000000e+00 0.000000000000e+00 
0.000000000000e+00 1.662325557874e+01 0.000000000000e+00 0.000000000000e+00 0.000000000000e+00 2.708956681746e+01 0.000000000000e+00 2.708956681746e+01 2.708956681746e+01 0.000000000000e+00 0.000000000000e+00 0.000000000000e+00 
0.000000000000e+00 1.837344851328e+01 0.000000000000e+00 0.000000000000e+00 0.000000000000e+00 2.744321646101e+01 0.000000000000e+00 2.744321646101e+01 2.744321646101e+01 0.000000000000e+00 0.000000000000e+00 0.000000000000e+00 
0.000000000000e+00 2.030866971233e+01 0.000000000000e+00 0.000000000000e+00 0.000000000000e+00 2.784611806391e+01 0.000000000000e+00 2.784611806391e+01 2.784611806391e+01 0.000000000000e+00 0.000000000000e+00 0.000000000000e+00 
0.000000000000e+00 2.244687637061e+01 0.000000000000e+00 0.000000000000e+00 0.000000000000e+00 2.827104389454e+01 0.000000000000e+00 2.827104389454e+01 2.827104389454e+01 0.000000000000e+00 0.000000000000e+00 0.000000000000e+00 
0.000000000000e+00 2.481028520732e+01 0.000000000000e+00 0.000000000000e+00 0.000000000000e+00 2.873614088827e+01 0.000000000000e+00 2.873614088827e+01 2.873614088827e+01 0.000000000000e+00 0.000000000000e+00 0.000000000000e+00 
0.000000000000e+00 2.742248370087e+01 0.000000000000e+00 0.000000000000e+00 0.000000000000e+00 2.927289249576e+01 0.000000000000e+00 2.927289249576e+01 2.927289249576e+01 0.000000000000e+00 0.000000000000e+00 0.000000000000e+00 
0.000000000000e+00 3.030957546784e+01 0.000000000000e+00 0.000000000000e+00 0.000000000000e+00 2.982606054367e+01 0.000000000000e+00 2.982606054367e+01 2.982606054367e+01 0.000000000000e+00 0.000000000000e+00 0.000000000000e+00 
0.000000000000e+00 3.350289432936e+01 0.000000000000e+00 0.000000000000e+00 0.000000000000e+00 3.050446242203e+01 0.000000000000e+00 3.050446242203e+01 3.050446242203e+01 0.000000000000e+00 0.000000000000e+00 0.000000000000e+00 
0.000000000000e+00 3.703011579382e+01 0.000000000000e+00 0.000000000000e+00 0.000000000000e+00 3.120490494559e+01 0.000000000000e+00 3.120490494559e+01 3.120490494559e+01 0.000000000000e+00 0.000000000000e+00 0.000000000000e+00 
0.000000000000e+00 4.092785441703e+01 0.000000000000e+00 0.000000000000e+00 0.000000000000e+00 3.200886034704e+01 0.000000000000e+00 3.200886034704e+01 3.200886034704e+01 0.000000000000e+00 0.000000000000e+00 0.000000000000e+00 
0.000000000000e+00 4.523771677800e+01 0.000000000000e+00 0.000000000000e+00 0.000000000000e+00 3.285960577827e+01 0.000000000000e+00 3.285960577827e+01 3.285960577827e+01 0.000000000000e+00 0.000000000000e+00 0.000000000000e+00 
5.555555555555e+00 5.000000000000e+01 0.000000000000e+00 0.000000000000e+00 0.000000000000e+00 3.368119482153e+01 0.000000000000e+00 3.368119482153e+01 3.368119482153e+01 0.000000000000e+00 0.000000000000e+00 0.000000000000e+00 
1.111111111111e+01 5.000000000000e+01 0.000000000000e+00 0.000000000000e+00 0.000000000000e+00 3.371479732672e+01 0.000000000000e+00 3.371479732672e+01 3.371479732672e+01 0.000000000000e+00 0.000000000000e+00 0.000000000000e+00 
1.666666666667e+01 5.000000000000e+01 0.000000000000e+00 0.000000000000e+00 0.000000000000e+00 3.366992572725e+01 0.000000000000e+00 3.366992572725e+01 3.366992572725e+01 0.000000000000e+00 0.000000000000e+00 0.000000000000e+00 
2.222222222222e+01 5.000000000000e+01 0.000000000000e+00 0.000000000000e+00 0.000000000000e+00 3.368487103848e+01 0.000000000000e+00 3.368487103848e+01 3.368487103848e+01 0.000000000000e+00 0.000000000000e+00 0.000000000000e+00 
2.777777777778e+01 5.000000000000e+01 0.000000000000e+00 0.000000000000e+00 0.000000000000e+00 3.366345546120e+01 0.000000000000e+00 3.366345546120e+01 3.366345546120e+01 0.000000000000e+00 0.000000000000e+00 0.000000000000e+00 
3.333333333333e+01 5.000000000000e+01 0.000000000000e+00 0.000000000000e+00 0.000000000000e+00 3.367790177631e+01 0.000000000000e+00 3.367790177631e+01 3.367790177631e+01 0.000000000000e+00 0.000000000000e+00 0.000000000000e+00 
3.888888888889e+01 5.000000000000e+01 0.000000000000e+00 0.000000000000e+00 0.000000000000e+00 3.367266983700e+01 0.000000000000e+00 3.367266983700e+01 3.367266983700e+01 0.000000000000e+00 0.000000000000e+00 0.000000000000e+00 
4.444444444444e+01 5.000000000000e+01 0.000000000000e+00 0.000000000000e+00 0.000000000000e+00 3.371133491850e+01 0.000000000000e+00 3.371133491850e+01 3.371133491850e+01 0.000000000000e+00 0.000000000000e+00 0.000000000000e+00 
5.000000000000e+01 4.444444444444e+01 0.000000000000e+00 0.000000000000e+00 0.000000000000e+00 4.692334546603e+01 0.000000000000e+00 8.240069821168e+01 4.692334546603e+01 0.000000000000e+00 0.000000000000e+00 0.000000000000e+00 
5.000000000000e+01 3.888888888889e+01 0.000000000000e+00 0.000000000000e+00 0.000000000000e+00 4.396149376541e+01 0.000000000000e+00 7.469988379006e+01 4.396149376541e+01 0.000000000000e+00 0.000000000000e+00 0.000000000000e+00 
5.000000000000e+01 3.333333333333e+01 0.000000000000e+00 0.000000000000e+00 0.000000000000e+00 4.134675655787e+01 0.000000000000e+00 6.790156705046e+01 4.134675655787e+01 0.000000000000e+00 0.000000000000e+00 0.000000000000e+00 
5.000000000000e+01 2.777777777778e+01 0.000000000000e+00 0.000000000000e+00 0.000000000000e+00 3.843742660400e+01 0.000000000000e+00 6.033730917040e+01 3.843742660400e+01 0.000000000000e+00 0.000000000000e+00 0.000000000000e+00 
5.000000000000e+01 2.222222222222e+01 0.000000000000e+00 0.000000000000e+00 0.000000000000e+00 3.575051466202e+01 0.000000000000e+00 5.335133812124e+01 3.575051466202e+01 0.000000000000e+00 0.000000000000e+00 0.000000000000e+00 
5.000000000000e+01 1.666666666667e+01 0.000000000000e+00 0.000000000000e+00 0.000000000000e+00 3.286901706236e+01 0.000000000000e+00 4.585944436213e+01 3.286901706236e+01 0.000000000000e+00 0.000000000000e+00 0.000000000000e+00 
5.000000000000e+01 1.111111111111e+01 0.000000000000e+00 0.000000000000e+00 0.000000000000e+00 3.024029021760e+01 0.000000000000e+00 3.902475456577e+01 3.024029021760e+01 0.000000000000e+00 0.000000000000e+00 0.000000000000e+00 
5.000000000000e+01 5.555555555556e+00 0.000000000000e+00 0.000000000000e+00 0.000000000000e+00 2.747977030613e+01 0.000000000000e+00 3.184740279593e+01 2.747977030613e+01 0.000000000000e+00 0.000000000000e+00 0.000000000000e+00 
4.523771677800e+01 0.000000000000e+00 0.000000000000e+00 0.000000000000e+00 0.000000000000e+00 2.494269849407e+01 0.000000000000e+00 2.525101608457e+01 2.494269849407e+01 0.000000000000e+00 0.000000000000e+00 0.000000000000e+00 
4.092785441703e+01 0.000000000000e+00 0.000000000000e+00 0.000000000000e+00 0.000000000000e+00 2.489567612097e+01 0.000000000000e+00 2.512875791453e+01 2.489567612097e+01 0.000000000000e+00 0.000000000000e+00 0.000000000000e+00 
3.703011579382e+01 0.000000000000e+00 0.000000000000e+00 0.000000000000e+00 0.000000000000e+00 2.488107277944e+01 0.000000000000e+00 2.509078922655e+01 2.488107277944e+01 0.000000000000e+00 0.000000000000e+00 0.000000000000e+00 
3.350289432936e+01 0.000000000000e+00 0.000000000000e+00 0.000000000000e+00 0.000000000000e+00 2.490903444692e+01 0.000000000000e+00 2.516348956200e+01 2.490903444692e+01 0.000000000000e+00 0.000000000000e+00 0.000000000000e+00 
3.030957546784e+01 0.000000000000e+00 0.000000000000e+00 0.000000000000e+00 0.000000000000e+00 2.486648680386e+01 0.000000000000e+00 2.505286569003e+01 2.486648680386e+01 0.000000000000e+00 0.000000000000e+00 0.000000000000e+00 
2.742248370087e+01 0.000000000000e+00 0.000000000000e+00 0.000000000000e+00 0.000000000000e+00 2.486089137524e+01 0.000000000000e+00 2.503831757562e+01 2.486089137524e+01 0.000000000000e+00 0.000000000000e+00 0.000000000000e+00 
2.481028520732e+01 0.000000000000e+00 0.000000000000e+00 0.000000000000e+00 0.000000000000e+00 2.484203873225e+01 0.000000000000e+00 2.498930070386e+01 2.484203873225e+01 0.000000000000e+00 0.000000000000e+00 0.000000000000e+00 
2.244687637061e+01 0.000000000000e+00 0.000000000000e+00 0.000000000000e+00 0.000000000000e+00 2.484849745374e+01 0.000000000000e+00 2.500609337972e+01 2.484849745374e+01 0.000000000000e+00 0.000000000000e+00 0.000000000000e+00 
2.030866971233e+01 0.000000000000e+00 0.000000000000e+00 0.000000000000e+00 0.000000000000e+00 2.486364433508e+01 0.000000000000e+00 2.504547527121e+01 2.486364433508e+01 0.000000000000e+00 0.000000000000e+00 0.000000000000e+00 
1.837344851328e+01 0.000000000000e+00 0.000000000000e+00 0.000000000000e+00 0.000000000000e+00 2.480862820681e+01 0.000000000000e+00 2.490243333771e+01 2.480862820681e+01 0.000000000000e+00 0.000000000000e+00 0.000000000000e+00 
1.662325557874e+01 0.000000000000e+00 0.000000000000e+00 0.000000000000e+00 0.000000000000e+00 2.478395212164e+01 0.000000000000e+00 2.483827551626e+01 2.478395212164e+01 0.000000000000e+00 0.000000000000e+00 0.000000000000e+00 
1.503955188946e+01 0.000000000000e+00 0.000000000000e+00 0.000000000000e+00 0.000000000000e+00 2.482682882531e+01 0.000000000000e+00 2.494975494580e+01 2.482682882531e+01 0.000000000000e+00 0.000000000000e+00 0.000000000000e+00 
1.360674535649e+01 0.000000000000e+00 0.000000000000e+00 0.000000000000e+00 0.000000000000e+00 2.478297930325e+01 0.000000000000e+00 2.483574618845e+01 2.478297930325e+01 0.000000000000e+00 0.000000000000e+00 0.000000000000e+00 
1.231076239245e+01 0.000000000000e+00 0.000000000000e+00 0.000000000000e+00 0.000000000000e+00 2.477105030360e+01 0.000000000000e+00 2.480473078936e+01 2.477105030360e+01 0.000000000000e+00 0.000000000000e+00 0.000000000000e+00 
1.113781315977e+01 0.000000000000e+00 0.000000000000e+00 0.000000000000e+00 0.000000000000e+00 2.479673556898e+01 0.000000000000e+00 2.487151247934e+01 2.479673556898e+01 0.000000000000e+00 0.000000000000e+00 0.000000000000e+00 
1.007684735867e+01 0.000000000000e+00 0.000000000000e+00 0.000000000000e+00 0.000000000000e+00 2.481175104181e+01 0.000000000000e+00 2.491055270870e+01 2.481175104181e+01 0.000000000000e+00 0.000000000000e+00 0.000000000000e+00 
9.117163628135e+00 0.000000000000e+00 0.000000000000e+00 0.000000000000e+00 0.000000000000e+00 2.477139145232e+01 0.000000000000e+00 2.480561777603e+01 2.477139145232e+01 0.000000000000e+00 0.000000000000e+00 0.000000000000e+00 
8.248740147909e+00 0.000000000000e+00 0.000000000000e+00 0.000000000000e+00 0.000000000000e+00 2.476910025670e+01 0.000000000000e+00 2.479966066743e+01 2.476910025670e+01 0.000000000000e+00 0.000000000000e+00 0.000000000000e+00 
7.462504976728e+00 0.000000000000e+00 0.000000000000e+00 0.000000000000e+00 0.000000000000e+00 2.478535795025e+01 0.000000000000e+00 2.484193067064e+01 2.478535795025e+01 0.000000000000e+00 0.000000000000e+00 0.000000000000e+00 
6.751613711279e+00 0.000000000000e+00 0.000000000000e+00 0.000000000000e+00 0.000000000000e+00 2.477215686771e+01 0.000000000000e+00 2.480760785605e+01 2.477215686771e+01 0.000000000000e+00 0.000000000000e+00 0.000000000000e+00 
6.108536036091e+00 0.000000000000e+00 0.000000000000e+00 0.000000000000e+00 0.000000000000e+00 2.477559070613e+01 0.000000000000e+00 2.481653583594e+01 2.477559070613e+01 0.000000000000e+00 0.000000000000e+00 0.000000000000e+00 
5.526479744387e+00 0.000000000000e+00 0.000000000000e+00 0.000000000000e+00 0.000000000000e+00 2.476845886409e+01 0.000000000000e+00 2.479799304662e+01 2.476845886409e+01 0.000000000000e+00 0.000000000000e+00 0.000000000000e+00 
4.444444444444e+00 0.000000000000e+00 0.000000000000e+00 0.000000000000e+00 0.000000000000e+00 7.197547894132e+01 0.000000000000e+00 1.159842625058e+02 7.197547894132e+01 0.000000000000e+00 0.000000000000e+00 0.000000000000e+00 
3.888888888889e+00 0.000000000000e+00 0.000000000000e+00 0.000000000000e+00 0.000000000000e+00 6.693604397523e+01 0.000000000000e+00 1.056390460950e+02 6.693604397523e+01 0.000000000000e+00 0.000000000000e+00 0.000000000000e+00 
3.333333333333e+00 0.000000000000e+00 0.000000000000e+00 0.000000000000e+00 0.000000000000e+00 6.086832711386e+01 0.000000000000e+00 9.381132324997e+01 6.086832711386e+01 0.000000000000e+00 0.000000000000e+00 0.000000000000e+00 
2.777777777778e+00 0.000000000000e+00 0.000000000000e+00 0.000000000000e+00 0.000000000000e+00 5.583383572247e+01 0.000000000000e+00 8.349929608894e+01 5.583383572247e+01 0.000000000000e+00 0.000000000000e+00 0.000000000000e+00 
2.222222222222e+00 0.000000000000e+00 0.000000000000e+00 0.000000000000e+00 0.000000000000e+00 4.991429592594e+01 0.000000000000e+00 7.184500396272e+01 4.991429592594e+01 0.000000000000e+00 0.000000000000e+00 0.000000000000e+00 
1.666666666667e+00 0.000000000000e+00 0.000000000000e+00 0.000000000000e+00 0.000000000000e+00 4.472215222538e+01 0.000000000000e+00 6.130618029793e+01 4.472215222538e+01 0.000000000000e+00 0.000000000000e+00 0.000000000000e+00 
1.111111111111e+00 0.000000000000e+00 0.000000000000e+00 0.000000000000e+00 0.000000000000e+00 3.865901556757e+01 0.000000000000e+00 4.937820973032e+01 3.865901556757e+01 0.000000000000e+00 0.000000000000e+00 0.000000000000e+00 
5.555555555556e-01 0.000000000000e+00 0.000000000000e+00 0.000000000000e+00 0.000000000000e+00 3.362724281289e+01 0.000000000000e+00 3.909642138726e+01 3.362724281289e+01 0.000000000000e+00 0.000000000000e+00 0.000000000000e+00 
5.598223805165e-01 4.968561049466e+00 0.000000000000e+00 0.000000000000e+00 0.000000000000e+00 5.160718901808e+01 0.000000000000e+00 6.190948323619e+01 5.160718901808e+01 0.000000000000e+00 0.000000000000e+00 0.000000000000e+00 
1.112604669782e+00 4.874639560909e+00 0.000000000000e+00 0.000000000000e+00 0.000000000000e+00 6.052039748277e+01 0.000000000000e+00 7.594496552551e+01 6.052039748277e+01 0.000000000000e+00 0.000000000000e+00 0.000000000000e+00 
1.651395309776e+00 4.719416651542e+00 0.000000000000e+00 0.000000000000e+00 0.000000000000e+00 6.195365072763e+01 0.000000000000e+00 7.956125185302e+01 6.195365072763e+01 0.000000000000e+00 0.000000000000e+00 0.000000000000e+00 
2.169418695588e+00 4.504844339512e+00 0.000000000000e+00 0.000000000000e+00 0.000000000000e+00 6.346567478499e+01 0.000000000000e+00 8.338484397652e+01 6.346567478499e+01 0.000000000000e+00 0.000000000000e+00 0.000000000000e+00 
2.660160382577e+00 4.233620996141e+00 0.000000000000e+00 0.000000000000e+00 0.000000000000e+00 6.400596101424e+01 0.000000000000e+00 8.567426754438e+01 6.400596101424e+01 0.000000000000e+00 0.000000000000e+00 0.000000000000e+00 
3.117449009294e+00 3.909157412340e+00 0.000000000000e+00 0.000000000000e+00 0.000000000000e+00 5.641762836364e+01 0.000000000000e+00 7.508258168038e+01 5.641762836364e+01 0.000000000000e+00 0.000000000000e+00 0.000000000000e+00 
3.909157412340e+00 3.117449009294e+00 0.000000000000e+00 0.000000000000e+00 0.000000000000e+00 5.963463349401e+01 0.000000000000e+00 8.167916147374e+01 5.963463349401e+01 0.000000000000e+00 0.000000000000e+00 0.000000000000e+00 
4.233620996141e+00 2.660160382577e+00 0.000000000000e+00 0.000000000000e+00 0.000000000000e+00 6.636139365093e+01 0.000000000000e+00 9.383576474600e+01 6.636139365093e+01 0.000000000000e+00 0.000000000000e+00 0.000000000000e+00 
4.504844339512e+00 2.169418695588e+00 0.000000000000e+00 0.000000000000e+00 0.000000000000e+00 6.395141656789e+01 0.000000000000e+00 9.139943369197e+01 6.395141656789e+01 0.000000000000e+00 0.000000000000e+00 0.000000000000e+00 
4.719416651542e+00 1.651395309776e+00 0.000000000000e+00 0.000000000000e+00 0.000000000000e+00 6.141328979230e+01 0.000000000000e+00 8.883945527166e+01 6.141328979230e+01 0.000000000000e+00 0.000000000000e+00 0.000000000000e+00 
4.874639560909e+00 1.112604669782e+00 0.000000000000e+00 0.000000000000e+00 0.000000000000e+00 5.810145255572e+01 0.000000000000e+00 8.483588319515e+01 5.810145255572e+01 0.000000000000e+00 0.000000000000e+00 0.000000000000e+00 
4.968561049466e+00 5.598223805166e-01 0.000000000000e+00 0.000000000000e+00 0.000000000000e+00 4.874173978164e+01 0.000000000000e+00 6.958798010050e+01 4.874173978164e+01 0.000000000000e+00 0.000000000000e+00 0.000000000000e+00 
3.928371006592e-01 3.928371006592e-01 0.000000000000e+00 0.000000000000e+00 0.000000000000e+00 3.656775725832e+01 0.000000000000e+00 4.212292061640e+01 3.656775725832e+01 0.000000000000e+00 0.000000000000e+00 0.000000000000e+00 
7.856742013184e-01 7.856742013184e-01 0.000000000000e+00 0.000000000000e+00 0.000000000000e+00 4.508766722016e+01 0.000000000000e+00 5.602336931765e+01 4.508766722016e+01 0.000000000000e+00 0.000000000000e+00 0.000000000000e+00 
1.178511301978e+00 1.178511301978e+00 0.000000000000e+00 0.000000000000e+00 0.000000000000e+00 5.433440135857e+01 0.000000000000e+00 7.082724966467e+01 5.433440135857e+01 0.000000000000e+00 0.000000000000e+00 0.000000000000e+00 
1.571348402637e+00 1.571348402637e+00 0.000000000000e+00 0.000000000000e+00 0.000000000000e+00 6.339059249296e+01 0.000000000000e+00 8.545384172407e+01 6.339059249296e+01 0.000000000000e+00 0.000000000000e+00 0.000000000000e+00 
1.964185503296e+00 1.964185503296e+00 0.000000000000e+00 0.000000000000e+00 0.000000000000e+00 7.260528477657e+01 0.000000000000e+00 1.001428573597e+02 7.260528477657e+01 0.000000000000e+00 0.000000000000e+00 0.000000000000e+00 
2.357022603955e+00 2.357022603955e+00 0.000000000000e+00 0.000000000000e+00 0.000000000000e+00 8.130522344436e+01 0.000000000000e+00 1.142783216993e+02 8.130522344436e+01 0.000000000000e+00 0.000000000000e+00 0.000000000000e+00 
2.749859704614e+00 2.749859704614e+00 0.000000000000e+00 0.000000000000e+00 0.000000000000e+00 9.054710656647e+01 0.000000000000e+00 1.290008544951e+02 9.054710656647e+01 0.000000000000e+00 0.000000000000e+00 0.000000000000e+00 
3.142696805274e+00 3.142696805274e+00 0.000000000000e+00 0.000000000000e+00 0.000000000000e+00 9.916735473823e+01 0.000000000000e+00 1.430315902744e+02 9.916735473823e+01 0.000000000000e+00 0.000000000000e+00 0.000000000000e+00 
3.908696925317e+00 3.908696925317e+00 0.000000000000e+00 0.000000000000e+00 0.000000000000e+00 2.561847925320e+01 0.000000000000e+00 2.718410058079e+01 2.561847925320e+01 0.000000000000e+00 0.000000000000e+00 0.000000000000e+00 
4.308850815728e+00 4.308850815728e+00 0.000000000000e+00 0.000000000000e+00 0.000000000000e+00 2.575279583747e+01 0.000000000000e+00 2.746691848823e+01 2.575279583747e+01 0.000000000000e+00 0.000000000000e+00 0.000000000000e+00 
4.737764552898e+00 4.737764552898e+00 0.000000000000e+00 0.000000000000e+00 0.000000000000e+00 2.589899855659e+01 0.000000000000e+00 2.778110231875e+01 2.589899855659e+01 0.000000000000e+00 0.000000000000e+00 0.000000000000e+00 
5.197744035155e+00 5.197744035155e+00 0.000000000000e+00 0.000000000000e+00 0.000000000000e+00 2.607694060262e+01 0.000000000000e+00 2.816293567279e+01 2.607694060262e+01 0.000000000000e+00 0.000000000000e+00 0.000000000000e+00 
5.690932026122e+00 5.690932026122e+00 0.000000000000e+00 0.000000000000e+00 0.000000000000e+00 2.624677528055e+01 0.000000000000e+00 2.852882776363e+01 2.624677528055e+01 0.000000000000e+00 0.000000000000e+00 0.000000000000e+00 
6.219811932917e+00 6.219811932917e+00 0.000000000000e+00 0.000000000000e+00 0.000000000000e+00 2.642646962551e+01 0.000000000000e+00 2.890908989131e+01 2.642646962551e+01 0.000000000000e+00 0.000000000000e+00 0.000000000000e+00 
6.786833098878e+00 6.786833098878e+00 0.000000000000e+00 0.000000000000e+00 0.000000000000e+00 2.662445503852e+01 0.000000000000e+00 2.933714327226e+01 2.662445503852e+01 0.000000000000e+00 0.000000000000e+00 0.000000000000e+00 
7.394938698831e+00 7.394938698831e+00 0.000000000000e+00 0.000000000000e+00 0.000000000000e+00 2.683231166443e+01 0.000000000000e+00 2.977676893115e+01 2.683231166443e+01 0.000000000000e+00 0.000000000000e+00 0.000000000000e+00 
8.047036578851e+00 8.047036578851e+00 0.000000000000e+00 0.000000000000e+00 0.000000000000e+00 2.707991836842e+01 0.000000000000e+00 3.031074232905e+01 2.707991836842e+01 0.000000000000e+00 0.000000000000e+00 0.000000000000e+00 
8.746253149254e+00 8.746253149254e+00 0.000000000000e+00 0.000000000000e+00 0.000000000000e+00 2.730187740864e+01 0.000000000000e+00 3.078763365620e+01 2.730187740864e+01 0.000000000000e+00 0.000000000000e+00 0.000000000000e+00 
9.495750795891e+00 9.495750795891e+00 0.000000000000e+00 0.000000000000e+00 0.000000000000e+00 2.755981248586e+01 0.000000000000e+00 3.133803832276e+01 2.755981248586e+01 0.000000000000e+00 0.000000000000e+00 0.000000000000e+00 
1.029962023489e+01 1.029962023489e+01 0.000000000000e+00 0.000000000000e+00 0.000000000000e+00 2.787081256972e+01 0.000000000000e+00 3.200529126415e+01 2.787081256972e+01 0.000000000000e+00 0.000000000000e+00 0.000000000000e+00 
1.116126469334e+01 1.116126469334e+01 0.000000000000e+00 0.000000000000e+00 0.000000000000e+00 2.814542349747e+01 0.000000000000e+00 3.259726173758e+01 2.814542349747e+01 0.000000000000e+00 0.000000000000e+00 0.000000000000e+00 
1.208554673975e+01 1.208554673975e+01 0.000000000000e+00 0.000000000000e+00 0.000000000000e+00 2.845809679837e+01 0.000000000000e+00 3.326394177727e+01 2.845809679837e+01 0.000000000000e+00 0.000000000000e+00 0.000000000000e+00 
1.307668707407e+01 1.307668707407e+01 0.000000000000e+00 0.000000000000e+00 0.000000000000e+00 2.884080035589e+01 0.000000000000e+00 3.408668643613e+01 2.884080035589e+01 0.000000000000e+00 0.000000000000e+00 0.000000000000e+00 
1.413926521719e+01 1.413926521719e+01 0.000000000000e+00 0.000000000000e+00 0.000000000000e+00 2.918024951831e+01 0.000000000000e+00 3.481376580949e+01 2.918024951831e+01 0.000000000000e+00 0.000000000000e+00 0.000000000000e+00 
1.527861034332e+01 1.527861034332e+01 0.000000000000e+00 0.000000000000e+00 0.000000000000e+00 2.956969999836e+01 0.000000000000e+00 3.564376710801e+01 2.956969999836e+01 0.000000000000e+00 0.000000000000e+00 0.000000000000e+00 
1.650036721092e+01 1.650036721092e+01 0.000000000000e+00 0.000000000000e+00 0.000000000000e+00 3.004535847337e+01 0.000000000000e+00 3.666599903870e+01 3.004535847337e+01 0.000000000000e+00 0.000000000000e+00 0.000000000000e+00 
1.781090007019e+01 1.781090007019e+01 0.000000000000e+00 0.000000000000e+00 0.000000000000e+00 3.046468818237e+01 0.000000000000e+00 3.756720578364e+01 3.046468818237e+01 0.000000000000e+00 0.000000000000e+00 0.000000000000e+00 
1.921530325279e+01 1.921530325279e+01 0.000000000000e+00 0.000000000000e+00 0.000000000000e+00 3.099628036562e+01 0.000000000000e+00 3.870756260467e+01 3.099628036562e+01 0.000000000000e+00 0.000000000000e+00 0.000000000000e+00 
2.072164641763e+01 2.072164641763e+01 0.000000000000e+00 0.000000000000e+00 0.000000000000e+00 3.147958783965e+01 0.000000000000e+00 3.974292668701e+01 3.147958783965e+01 0.000000000000e+00 0.000000000000e+00 0.000000000000e+00 
2.233646504058e+01 2.233646504058e+01 0.000000000000e+00 0.000000000000e+00 0.000000000000e+00 3.208779442216e+01 0.000000000000e+00 4.104382724689e+01 3.208779442216e+01 0.000000000000e+00 0.000000000000e+00 0.000000000000e+00 
2.406839142239e+01 2.406839142239e+01 0.000000000000e+00 0.000000000000e+00 0.000000000000e+00 3.269852131121e+01 0.000000000000e+00 4.235159956376e+01 3.269852131121e+01 0.000000000000e+00 0.000000000000e+00 0.000000000000e+00 
2.592518993230e+01 2.592518993230e+01 0.000000000000e+00 0.000000000000e+00 0.000000000000e+00 3.328960968755e+01 0.000000000000e+00 4.361378391294e+01 3.328960968755e+01 0.000000000000e+00 0.000000000000e+00 0.000000000000e+00 
2.791607919120e+01 2.791607919120e+01 0.000000000000e+00 0.000000000000e+00 0.000000000000e+00 3.405301928379e+01 0.000000000000e+00 4.524871133719e+01 3.405301928379e+01 0.000000000000e+00 0.000000000000e+00 0.000000000000e+00 
3.005087320848e+01 3.005087320848e+01 0.000000000000e+00 0.000000000000e+00 0.000000000000e+00 3.479741166230e+01 0.000000000000e+00 4.684968066058e+01 3.479741166230e+01 0.000000000000e+00 0.000000000000e+00 0.000000000000e+00 