VARIABLES  = "X","Y","Z", "DISPLACEMENT_X1", "DISPLACEMENT_Y1", "STRESS_XX", "STRESS_XY", "STRESS_YY", "STRESS_ZZ", "STRAIN_XX", "STRAIN_XY", "STRAIN_YY"
ZONE T="0.000000000000e+00s", N=1155, E=1102, F=FEPOINT, ET=QUADRILATERAL
STRANDID=1, SOLUTIONTIME=0.000000000000e+00
5.083915508515e+00 9.814651976826e+00 0.000000000000e+00 0.000000000000e+00 0.000000000000e+00 -1.060094811943e+01 4.282770023747e-09 -2.473554553760e+01 -1.060094809711e+01 0.000000000000e+00 0.000000000000e+00 0.000000000000e+00 
4.355922765071e+00 1.038203256326e+01 0.000000000000e+00 0.000000000000e+00 0.000000000000e+00 -1.059498455337e+01 1.403164155626e-09 -2.472163051296e+01 -1.059498451990e+01 0.000000000000e+00 0.000000000000e+00 0.000000000000e+00 
3.674142040814e+00 9.836041555274e+00 0.000000000000e+00 0.000000000000e+00 0.000000000000e+00 -1.060072331130e+01 5.410364774756e-09 -2.473502092540e+01 -1.060072327101e+01 0.000000000000e+00 0.000000000000e+00 0.000000000000e+00 
4.318000563364e+00 9.338001345851e+00 0.000000000000e+00 0.000000000000e+00 0.000000000000e+00 -1.060595805932e+01 9.751251658193e-09 -2.474723537860e+01 -1.060595803138e+01 0.000000000000e+00 0.000000000000e+00 0.000000000000e+00 
3.627930021628e+00 1.094941314970e+01 0.000000000000e+00 0.000000000000e+00 0.000000000000e+00 -1.058902098752e+01 -5.839327029162e-09 -2.470771549056e+01 -1.058902094342e+01 0.000000000000e+00 0.000000000000e+00 0.000000000000e+00 
3.030283518263e+00 1.033408176470e+01 0.000000000000e+00 0.000000000000e+00 0.000000000000e+00 -1.059548856311e+01 -3.761677663315e-09 -2.472280647510e+01 -1.059548851146e+01 0.000000000000e+00 0.000000000000e+00 0.000000000000e+00 
2.432637014898e+00 9.718750379692e+00 0.000000000000e+00 0.000000000000e+00 0.000000000000e+00 -1.060195614025e+01 -2.176005521088e-09 -2.473789745440e+01 -1.060195607840e+01 0.000000000000e+00 0.000000000000e+00 0.000000000000e+00 
2.992361316556e+00 9.290050547284e+00 0.000000000000e+00 0.000000000000e+00 0.000000000000e+00 -1.060646207103e+01 9.454921027964e-09 -2.474841133196e+01 -1.060646202090e+01 0.000000000000e+00 0.000000000000e+00 0.000000000000e+00 
3.552085618214e+00 8.861350714876e+00 0.000000000000e+00 0.000000000000e+00 0.000000000000e+00 -1.061096800059e+01 1.629136950023e-08 -2.475892521358e+01 -1.061096796425e+01 0.000000000000e+00 0.000000000000e+00 0.000000000000e+00 
2.041598902382e+01 2.041598907606e+01 0.000000000000e+00 0.000000000000e+00 0.000000000000e+00 -1.048952049584e+01 -1.454594568022e-08 -2.447554783303e+01 -1.048952049866e+01 0.000000000000e+00 0.000000000000e+00 0.000000000000e+00 
1.833405384658e+01 2.172812194247e+01 0.000000000000e+00 0.000000000000e+00 0.000000000000e+00 -1.047572904416e+01 -1.690711116335e-08 -2.444336777019e+01 -1.047572904430e+01 0.000000000000e+00 0.000000000000e+00 0.000000000000e+00 
1.744493658152e+01 2.023417686211e+01 0.000000000000e+00 0.000000000000e+00 0.000000000000e+00 -1.049143147364e+01 -1.664505875609e-08 -2.448000676953e+01 -1.049143147295e+01 0.000000000000e+00 0.000000000000e+00 0.000000000000e+00 
1.920850886445e+01 1.920850891882e+01 0.000000000000e+00 0.000000000000e+00 0.000000000000e+00 -1.050221197463e+01 -1.480698912477e-08 -2.450516128000e+01 -1.050221197639e+01 0.000000000000e+00 0.000000000000e+00 0.000000000000e+00 
1.625211866934e+01 2.304025480888e+01 0.000000000000e+00 0.000000000000e+00 0.000000000000e+00 -1.046193759289e+01 -1.996629078990e-08 -2.441118770698e+01 -1.046193758996e+01 0.000000000000e+00 0.000000000000e+00 0.000000000000e+00 
1.568136429860e+01 2.125984480541e+01 0.000000000000e+00 0.000000000000e+00 0.000000000000e+00 -1.048065097308e+01 -1.897733469934e-08 -2.445485225866e+01 -1.048065096952e+01 0.000000000000e+00 0.000000000000e+00 0.000000000000e+00 
1.511060992786e+01 1.947943480194e+01 0.000000000000e+00 0.000000000000e+00 0.000000000000e+00 -1.049936435310e+01 -1.782964849115e-08 -2.449851681058e+01 -1.049936434911e+01 0.000000000000e+00 0.000000000000e+00 0.000000000000e+00 
1.655581931646e+01 1.874023178176e+01 0.000000000000e+00 0.000000000000e+00 0.000000000000e+00 -1.050713390308e+01 -1.623688155983e-08 -2.451664576889e+01 -1.050713390159e+01 0.000000000000e+00 0.000000000000e+00 0.000000000000e+00 
1.800102870507e+01 1.800102876157e+01 0.000000000000e+00 0.000000000000e+00 0.000000000000e+00 -1.051490345344e+01 -1.493062149779e-08 -2.453477472682e+01 -1.051490345408e+01 0.000000000000e+00 0.000000000000e+00 0.000000000000e+00 
3.336650907617e+00 4.064555675270e+00 0.000000000000e+00 0.000000000000e+00 0.000000000000e+00 -1.066138571951e+01 1.247707296202e-08 -2.487656671242e+01 -1.066138572958e+01 0.000000000000e+00 0.000000000000e+00 0.000000000000e+00 
3.399274293372e+00 4.260378206660e+00 0.000000000000e+00 0.000000000000e+00 0.000000000000e+00 -1.065932747953e+01 1.359823096036e-08 -2.487176415851e+01 -1.065932749141e+01 0.000000000000e+00 0.000000000000e+00 0.000000000000e+00 
3.159650177892e+00 4.272320377104e+00 0.000000000000e+00 0.000000000000e+00 0.000000000000e+00 -1.065920195428e+01 2.293030792069e-08 -2.487147127213e+01 -1.065920196792e+01 0.000000000000e+00 0.000000000000e+00 0.000000000000e+00 
3.137788556380e+00 4.054820344032e+00 0.000000000000e+00 0.000000000000e+00 0.000000000000e+00 -1.066148804186e+01 2.008726444741e-08 -2.487680546928e+01 -1.066148805334e+01 0.000000000000e+00 0.000000000000e+00 0.000000000000e+00 
3.461897679126e+00 4.456200738050e+00 0.000000000000e+00 0.000000000000e+00 0.000000000000e+00 -1.065726924053e+01 1.481063584886e-08 -2.486696160539e+01 -1.065726925377e+01 0.000000000000e+00 0.000000000000e+00 0.000000000000e+00 
3.181511799405e+00 4.489820410176e+00 0.000000000000e+00 0.000000000000e+00 0.000000000000e+00 -1.065691586812e+01 2.584585756558e-08 -2.486613707550e+01 -1.065691588309e+01 0.000000000000e+00 0.000000000000e+00 0.000000000000e+00 
2.901125919683e+00 4.523440082302e+00 0.000000000000e+00 0.000000000000e+00 0.000000000000e+00 -1.065656249566e+01 3.860513868021e-08 -2.486531254277e+01 -1.065656251153e+01 0.000000000000e+00 0.000000000000e+00 0.000000000000e+00 
2.920026062413e+00 4.284262547548e+00 0.000000000000e+00 0.000000000000e+00 0.000000000000e+00 -1.065907642922e+01 3.386009307244e-08 -2.487117838377e+01 -1.065907644390e+01 0.000000000000e+00 0.000000000000e+00 0.000000000000e+00 
2.938926205142e+00 4.045085012794e+00 0.000000000000e+00 0.000000000000e+00 0.000000000000e+00 -1.066159036396e+01 2.904577923125e-08 -2.487704422520e+01 -1.066159037675e+01 0.000000000000e+00 0.000000000000e+00 0.000000000000e+00 
2.831088486517e+01 3.590331244746e+01 0.000000000000e+00 0.000000000000e+00 0.000000000000e+00 -1.032673767723e+01 -8.354843095034e-09 -2.409572125486e+01 -1.032673767963e+01 0.000000000000e+00 0.000000000000e+00 0.000000000000e+00 
2.495588430397e+01 3.390248445861e+01 0.000000000000e+00 0.000000000000e+00 0.000000000000e+00 -1.034776780486e+01 -1.247921279453e-08 -2.414479155598e+01 -1.034776780825e+01 0.000000000000e+00 0.000000000000e+00 0.000000000000e+00 
2.652809543194e+01 3.100139552860e+01 0.000000000000e+00 0.000000000000e+00 0.000000000000e+00 -1.037826031920e+01 -1.136158207698e-08 -2.421594076082e+01 -1.037826032401e+01 0.000000000000e+00 0.000000000000e+00 0.000000000000e+00 
2.910092461043e+01 3.289713841933e+01 0.000000000000e+00 0.000000000000e+00 0.000000000000e+00 -1.035833470988e+01 -8.679584706527e-09 -2.416944767091e+01 -1.035833471424e+01 0.000000000000e+00 0.000000000000e+00 0.000000000000e+00 
2.160088374278e+01 3.190165646977e+01 0.000000000000e+00 0.000000000000e+00 0.000000000000e+00 -1.036879793406e+01 -1.707064370982e-08 -2.419386185509e+01 -1.036879793674e+01 0.000000000000e+00 0.000000000000e+00 0.000000000000e+00 
2.395526625345e+01 2.910565263786e+01 0.000000000000e+00 0.000000000000e+00 0.000000000000e+00 -1.039818592948e+01 -1.402474657371e-08 -2.426243384958e+01 -1.039818593372e+01 0.000000000000e+00 0.000000000000e+00 0.000000000000e+00 
2.630964876413e+01 2.630964880596e+01 0.000000000000e+00 0.000000000000e+00 0.000000000000e+00 -1.042757392449e+01 -1.146918280099e-08 -2.433100584461e+01 -1.042757393073e+01 0.000000000000e+00 0.000000000000e+00 0.000000000000e+00 
2.810030655991e+01 2.810030659858e+01 0.000000000000e+00 0.000000000000e+00 0.000000000000e+00 -1.040875283346e+01 -1.007385201763e-08 -2.428708996626e+01 -1.040875283992e+01 0.000000000000e+00 0.000000000000e+00 0.000000000000e+00 
2.989096435570e+01 2.989096439120e+01 0.000000000000e+00 0.000000000000e+00 0.000000000000e+00 -1.038993174291e+01 -8.540483243032e-09 -2.424317408738e+01 -1.038993174909e+01 0.000000000000e+00 0.000000000000e+00 0.000000000000e+00 
-1.049624775956e-07 9.290752348795e+00 0.000000000000e+00 0.000000000000e+00 0.000000000000e+00 -1.060645473155e+01 -6.370936725193e-08 -2.474839404581e+01 -1.060645463321e+01 0.000000000000e+00 0.000000000000e+00 0.000000000000e+00 
-1.065305978214e-07 8.682563631455e+00 0.000000000000e+00 0.000000000000e+00 0.000000000000e+00 -1.061284723405e+01 -6.371513215286e-08 -2.476330984809e+01 -1.061284712464e+01 0.000000000000e+00 0.000000000000e+00 0.000000000000e+00 
5.689980473136e-01 8.711555811196e+00 0.000000000000e+00 0.000000000000e+00 0.000000000000e+00 -1.061254250221e+01 -3.736397971551e-08 -2.476259882152e+01 -1.061254239712e+01 0.000000000000e+00 0.000000000000e+00 0.000000000000e+00 
5.322010351574e-01 9.345963979912e+00 0.000000000000e+00 0.000000000000e+00 0.000000000000e+00 -1.060587441562e+01 -4.413564182570e-08 -2.474703998564e+01 -1.060587432038e+01 0.000000000000e+00 0.000000000000e+00 0.000000000000e+00 
-1.080987180472e-07 8.074374914115e+00 0.000000000000e+00 0.000000000000e+00 0.000000000000e+00 -1.061923973798e+01 -6.363502469533e-08 -2.477822564280e+01 -1.061923961423e+01 0.000000000000e+00 0.000000000000e+00 0.000000000000e+00 
6.057950594698e-01 8.077147642479e+00 0.000000000000e+00 0.000000000000e+00 0.000000000000e+00 -1.061921058921e+01 -2.706100617348e-08 -2.477815765136e+01 -1.061921047217e+01 0.000000000000e+00 0.000000000000e+00 0.000000000000e+00 
1.211590227038e+00 8.079920370842e+00 0.000000000000e+00 0.000000000000e+00 0.000000000000e+00 -1.061918143204e+01 1.743174291110e-09 -2.477808967491e+01 -1.061918133208e+01 0.000000000000e+00 0.000000000000e+00 0.000000000000e+00 
1.137996201158e+00 8.740547990936e+00 0.000000000000e+00 0.000000000000e+00 0.000000000000e+00 -1.061223776530e+01 -1.502555172827e-08 -2.476188780409e+01 -1.061223767082e+01 0.000000000000e+00 0.000000000000e+00 0.000000000000e+00 
1.064402175277e+00 9.401175611030e+00 0.000000000000e+00 0.000000000000e+00 0.000000000000e+00 -1.060529409666e+01 -2.700049224770e-08 -2.474568593067e+01 -1.060529400820e+01 0.000000000000e+00 0.000000000000e+00 0.000000000000e+00 
1.181427513195e+01 1.457697391235e+01 0.000000000000e+00 0.000000000000e+00 0.000000000000e+00 -1.055089271666e+01 -1.460936764767e-08 -2.461874964850e+01 -1.055089270955e+01 0.000000000000e+00 0.000000000000e+00 0.000000000000e+00 
1.292046240101e+01 1.430181182297e+01 0.000000000000e+00 0.000000000000e+00 0.000000000000e+00 -1.055378486564e+01 -1.450240966082e-08 -2.462549800369e+01 -1.055378486080e+01 0.000000000000e+00 0.000000000000e+00 0.000000000000e+00 
1.375027379004e+01 1.541500013899e+01 0.000000000000e+00 0.000000000000e+00 0.000000000000e+00 -1.054208446194e+01 -1.512596464349e-08 -2.459819706368e+01 -1.054208445769e+01 0.000000000000e+00 0.000000000000e+00 0.000000000000e+00 
1.254561562327e+01 1.587506825929e+01 0.000000000000e+00 0.000000000000e+00 0.000000000000e+00 -1.053724881886e+01 -1.573812165277e-08 -2.458691388813e+01 -1.053724881210e+01 0.000000000000e+00 0.000000000000e+00 0.000000000000e+00 
1.402664967008e+01 1.402664973360e+01 0.000000000000e+00 0.000000000000e+00 0.000000000000e+00 -1.055667701503e+01 -1.440298923578e-08 -2.463224635827e+01 -1.055667701199e+01 0.000000000000e+00 0.000000000000e+00 0.000000000000e+00 
1.495493195681e+01 1.495493201869e+01 0.000000000000e+00 0.000000000000e+00 0.000000000000e+00 -1.054692010547e+01 -1.465099023943e-08 -2.460948023866e+01 -1.054692010324e+01 0.000000000000e+00 0.000000000000e+00 0.000000000000e+00 
1.588321424354e+01 1.588321430378e+01 0.000000000000e+00 0.000000000000e+00 0.000000000000e+00 -1.053716319581e+01 -1.482193171197e-08 -2.458671411898e+01 -1.053716319444e+01 0.000000000000e+00 0.000000000000e+00 0.000000000000e+00 
1.458008517906e+01 1.652818845501e+01 0.000000000000e+00 0.000000000000e+00 0.000000000000e+00 -1.053038405808e+01 -1.566473288871e-08 -2.457089612368e+01 -1.053038405453e+01 0.000000000000e+00 0.000000000000e+00 0.000000000000e+00 
1.327695611459e+01 1.717316260624e+01 0.000000000000e+00 0.000000000000e+00 0.000000000000e+00 -1.052360492083e+01 -1.676100402523e-08 -2.455507812789e+01 -1.052360491461e+01 0.000000000000e+00 0.000000000000e+00 0.000000000000e+00 
4.394431461686e+01 4.394431462756e+01 0.000000000000e+00 0.000000000000e+00 0.000000000000e+00 -1.024222102115e+01 -1.496115797299e-10 -2.389851568369e+01 -1.024222101145e+01 0.000000000000e+00 0.000000000000e+00 0.000000000000e+00 
4.197215730843e+01 4.697215731378e+01 0.000000000000e+00 0.000000000000e+00 0.000000000000e+00 -1.021039623856e+01 2.539388899154e-11 -2.382425784187e+01 -1.021039622413e+01 0.000000000000e+00 0.000000000000e+00 0.000000000000e+00 
3.874977510104e+01 4.393251607768e+01 0.000000000000e+00 0.000000000000e+00 0.000000000000e+00 -1.024234503153e+01 -5.588069265376e-10 -2.389880504289e+01 -1.024234502233e+01 0.000000000000e+00 0.000000000000e+00 0.000000000000e+00 
4.128877069995e+01 4.128877071533e+01 0.000000000000e+00 0.000000000000e+00 0.000000000000e+00 -1.027013267834e+01 -7.423792425095e-10 -2.396364289775e+01 -1.027013267283e+01 0.000000000000e+00 0.000000000000e+00 0.000000000000e+00 
4.000000000000e+01 5.000000000000e+01 0.000000000000e+00 0.000000000000e+00 0.000000000000e+00 -1.017857145657e+01 7.463877631135e-11 -2.375000000001e+01 -1.017857143697e+01 0.000000000000e+00 0.000000000000e+00 0.000000000000e+00 
3.621077950212e+01 4.657626144002e+01 0.000000000000e+00 0.000000000000e+00 0.000000000000e+00 -1.021455738533e+01 -2.505133904979e-10 -2.383396718804e+01 -1.021455737201e+01 0.000000000000e+00 0.000000000000e+00 0.000000000000e+00 
3.242155900424e+01 4.315252288005e+01 0.000000000000e+00 0.000000000000e+00 0.000000000000e+00 -1.025054331334e+01 -2.172508783851e-09 -2.391793437530e+01 -1.025054330659e+01 0.000000000000e+00 0.000000000000e+00 0.000000000000e+00 
3.552739289364e+01 4.089287484158e+01 0.000000000000e+00 0.000000000000e+00 0.000000000000e+00 -1.027429382448e+01 -2.084523908518e-09 -2.397335224319e+01 -1.027429382030e+01 0.000000000000e+00 0.000000000000e+00 0.000000000000e+00 
3.863322678304e+01 3.863322680311e+01 0.000000000000e+00 0.000000000000e+00 0.000000000000e+00 -1.029804433574e+01 -1.844445007663e-09 -2.402877011128e+01 -1.029804433410e+01 0.000000000000e+00 0.000000000000e+00 0.000000000000e+00 
1.137129529771e+01 3.537067764237e+01 0.000000000000e+00 0.000000000000e+00 0.000000000000e+00 -1.033233604405e+01 -3.702757697036e-08 -2.410878409667e+01 -1.033233604222e+01 0.000000000000e+00 0.000000000000e+00 0.000000000000e+00 
8.326206131312e+00 3.550711998819e+01 0.000000000000e+00 0.000000000000e+00 0.000000000000e+00 -1.033090193801e+01 -4.452590805265e-08 -2.410543784125e+01 -1.033090193378e+01 0.000000000000e+00 0.000000000000e+00 0.000000000000e+00 
7.990437826836e+00 3.277887399122e+01 0.000000000000e+00 0.000000000000e+00 0.000000000000e+00 -1.035957775552e+01 -4.406708199530e-08 -2.417234806708e+01 -1.035957774678e+01 0.000000000000e+00 0.000000000000e+00 0.000000000000e+00 
1.057802366433e+01 3.262346792387e+01 0.000000000000e+00 0.000000000000e+00 0.000000000000e+00 -1.036121118296e+01 -3.794598726410e-08 -2.417615940671e+01 -1.036121117690e+01 0.000000000000e+00 0.000000000000e+00 0.000000000000e+00 
5.281116964915e+00 3.564356233401e+01 0.000000000000e+00 0.000000000000e+00 0.000000000000e+00 -1.032946783233e+01 -5.172183948855e-08 -2.410209158644e+01 -1.032946782563e+01 0.000000000000e+00 0.000000000000e+00 0.000000000000e+00 
5.402851989344e+00 3.293428005858e+01 0.000000000000e+00 0.000000000000e+00 0.000000000000e+00 -1.035794432807e+01 -5.020992983605e-08 -2.416853672836e+01 -1.035794431693e+01 0.000000000000e+00 0.000000000000e+00 0.000000000000e+00 
5.524587013773e+00 3.022499778315e+01 0.000000000000e+00 0.000000000000e+00 0.000000000000e+00 -1.038642082266e+01 -4.826116058121e-08 -2.423498186987e+01 -1.038642080776e+01 0.000000000000e+00 0.000000000000e+00 0.000000000000e+00 
7.654669522359e+00 3.005062799425e+01 0.000000000000e+00 0.000000000000e+00 0.000000000000e+00 -1.038825357218e+01 -4.291548810818e-08 -2.423925829296e+01 -1.038825355954e+01 0.000000000000e+00 0.000000000000e+00 0.000000000000e+00 
9.784752030945e+00 2.987625820536e+01 0.000000000000e+00 0.000000000000e+00 0.000000000000e+00 -1.039008632150e+01 -3.779316923194e-08 -2.424353471683e+01 -1.039008631150e+01 0.000000000000e+00 0.000000000000e+00 0.000000000000e+00 
1.062171013328e+01 1.376168862579e+01 0.000000000000e+00 0.000000000000e+00 0.000000000000e+00 -1.055946194729e+01 -1.364537908314e-08 -2.463874451417e+01 -1.055946193844e+01 0.000000000000e+00 0.000000000000e+00 0.000000000000e+00 
1.115316981103e+01 1.272315909111e+01 0.000000000000e+00 0.000000000000e+00 0.000000000000e+00 -1.057037763246e+01 -1.314049166940e-08 -2.466421445437e+01 -1.057037762605e+01 0.000000000000e+00 0.000000000000e+00 0.000000000000e+00 
1.210640261367e+01 1.348775203707e+01 0.000000000000e+00 0.000000000000e+00 0.000000000000e+00 -1.056234121502e+01 -1.393007464542e-08 -2.464546281652e+01 -1.056234120946e+01 0.000000000000e+00 0.000000000000e+00 0.000000000000e+00 
9.429145134607e+00 1.294640333923e+01 0.000000000000e+00 0.000000000000e+00 0.000000000000e+00 -1.056803117767e+01 -1.203334196639e-08 -2.465873937889e+01 -1.056803116697e+01 0.000000000000e+00 0.000000000000e+00 0.000000000000e+00 
1.019993700839e+01 1.195856614516e+01 0.000000000000e+00 0.000000000000e+00 0.000000000000e+00 -1.057841404961e+01 -1.199031906971e-08 -2.468296609195e+01 -1.057841404247e+01 0.000000000000e+00 0.000000000000e+00 0.000000000000e+00 
1.097072888217e+01 1.097072895108e+01 0.000000000000e+00 0.000000000000e+00 0.000000000000e+00 -1.058879692293e+01 -1.300643197862e-08 -2.470719280423e+01 -1.058879691815e+01 0.000000000000e+00 0.000000000000e+00 0.000000000000e+00 
1.168462948878e+01 1.168462955644e+01 0.000000000000e+00 0.000000000000e+00 0.000000000000e+00 -1.058129331843e+01 -1.339836572919e-08 -2.468968439444e+01 -1.058129331386e+01 0.000000000000e+00 0.000000000000e+00 0.000000000000e+00 
1.239853009540e+01 1.239853016179e+01 0.000000000000e+00 0.000000000000e+00 0.000000000000e+00 -1.057378971376e+01 -1.376554884414e-08 -2.467217598470e+01 -1.057378970954e+01 0.000000000000e+00 0.000000000000e+00 0.000000000000e+00 
1.001641113256e+01 1.861957023751e+01 0.000000000000e+00 0.000000000000e+00 0.000000000000e+00 -1.050840214983e+01 -2.168833224629e-08 -2.451960496722e+01 -1.050840213512e+01 0.000000000000e+00 0.000000000000e+00 0.000000000000e+00 
1.121842752341e+01 2.004131433141e+01 0.000000000000e+00 0.000000000000e+00 0.000000000000e+00 -1.049345860325e+01 -2.248448115379e-08 -2.448473670078e+01 -1.049345859121e+01 0.000000000000e+00 0.000000000000e+00 0.000000000000e+00 
9.961129532779e+00 2.150646568236e+01 0.000000000000e+00 0.000000000000e+00 0.000000000000e+00 -1.047805881914e+01 -2.695189829936e-08 -2.444880386107e+01 -1.047805880406e+01 0.000000000000e+00 0.000000000000e+00 0.000000000000e+00 
8.955930670961e+00 1.986142356035e+01 0.000000000000e+00 0.000000000000e+00 0.000000000000e+00 -1.049534938760e+01 -2.597805188644e-08 -2.448914851155e+01 -1.049534936974e+01 0.000000000000e+00 0.000000000000e+00 0.000000000000e+00 
1.242044391425e+01 2.146305842530e+01 0.000000000000e+00 0.000000000000e+00 0.000000000000e+00 -1.047851505661e+01 -2.289188590389e-08 -2.444986843356e+01 -1.047851504705e+01 0.000000000000e+00 0.000000000000e+00 0.000000000000e+00 
1.096632839460e+01 2.315150780437e+01 0.000000000000e+00 0.000000000000e+00 0.000000000000e+00 -1.046076825058e+01 -2.755752748873e-08 -2.440845920984e+01 -1.046076823813e+01 0.000000000000e+00 0.000000000000e+00 0.000000000000e+00 
9.512212874941e+00 2.483995718344e+01 0.000000000000e+00 0.000000000000e+00 0.000000000000e+00 -1.044302144397e+01 -3.287368696272e-08 -2.436704998732e+01 -1.044302142939e+01 0.000000000000e+00 0.000000000000e+00 0.000000000000e+00 
8.703831542152e+00 2.297161703331e+01 0.000000000000e+00 0.000000000000e+00 0.000000000000e+00 -1.046265903445e+01 -3.205458893694e-08 -2.441287102258e+01 -1.046265901711e+01 0.000000000000e+00 0.000000000000e+00 0.000000000000e+00 
7.895450209363e+00 2.110327688318e+01 0.000000000000e+00 0.000000000000e+00 0.000000000000e+00 -1.048229662484e+01 -3.082926296031e-08 -2.445869205707e+01 -1.048229660457e+01 0.000000000000e+00 0.000000000000e+00 0.000000000000e+00 
1.700663748550e+00 6.938057174967e+00 0.000000000000e+00 0.000000000000e+00 0.000000000000e+00 -1.063118319844e+01 5.636993994260e-08 -2.480609387351e+01 -1.063118312158e+01 0.000000000000e+00 0.000000000000e+00 0.000000000000e+00 
2.189829254762e+00 7.167560333790e+00 0.000000000000e+00 0.000000000000e+00 0.000000000000e+00 -1.062877094481e+01 5.021734124284e-08 -2.480046535382e+01 -1.062877088959e+01 0.000000000000e+00 0.000000000000e+00 0.000000000000e+00 
1.997703150421e+00 7.696084800085e+00 0.000000000000e+00 0.000000000000e+00 0.000000000000e+00 -1.062321579116e+01 3.375566536853e-08 -2.478750327976e+01 -1.062321572128e+01 0.000000000000e+00 0.000000000000e+00 0.000000000000e+00 
1.456126987794e+00 7.508988772905e+00 0.000000000000e+00 0.000000000000e+00 0.000000000000e+00 -1.062518231964e+01 2.790894038290e-08 -2.479209176605e+01 -1.062518222571e+01 0.000000000000e+00 0.000000000000e+00 0.000000000000e+00 
2.678994760975e+00 7.397063492613e+00 0.000000000000e+00 0.000000000000e+00 0.000000000000e+00 -1.062635869598e+01 4.230906817286e-08 -2.479483682253e+01 -1.062635865555e+01 0.000000000000e+00 0.000000000000e+00 0.000000000000e+00 
2.539279313048e+00 7.883180827266e+00 0.000000000000e+00 0.000000000000e+00 0.000000000000e+00 -1.062124926763e+01 3.250496390023e-08 -2.478291478515e+01 -1.062124921583e+01 0.000000000000e+00 0.000000000000e+00 0.000000000000e+00 
2.399563865121e+00 8.369298161918e+00 0.000000000000e+00 0.000000000000e+00 0.000000000000e+00 -1.061613983714e+01 2.110404294338e-08 -2.477099275299e+01 -1.061613977704e+01 0.000000000000e+00 0.000000000000e+00 0.000000000000e+00 
1.805577046079e+00 8.224609266380e+00 0.000000000000e+00 0.000000000000e+00 0.000000000000e+00 -1.061766063317e+01 1.585152246409e-08 -2.477454121508e+01 -1.061766055447e+01 0.000000000000e+00 0.000000000000e+00 0.000000000000e+00 
2.331605145757e+00 1.756448613406e+01 0.000000000000e+00 0.000000000000e+00 0.000000000000e+00 -1.051949185506e+01 -4.675766386901e-08 -2.454548086226e+01 -1.051949181520e+01 0.000000000000e+00 0.000000000000e+00 0.000000000000e+00 
3.115544192379e+00 1.732867391162e+01 0.000000000000e+00 0.000000000000e+00 0.000000000000e+00 -1.052197040844e+01 -4.133707258718e-08 -2.455126415853e+01 -1.052197037009e+01 0.000000000000e+00 0.000000000000e+00 0.000000000000e+00 
3.904287458981e+00 1.837127474320e+01 0.000000000000e+00 0.000000000000e+00 0.000000000000e+00 -1.051101192683e+01 -3.937346632769e-08 -2.452569438228e+01 -1.051101189273e+01 0.000000000000e+00 0.000000000000e+00 0.000000000000e+00 
2.864655318946e+00 1.906460210971e+01 0.000000000000e+00 0.000000000000e+00 0.000000000000e+00 -1.050372456270e+01 -4.614811513262e-08 -2.450869052855e+01 -1.050372452738e+01 0.000000000000e+00 0.000000000000e+00 0.000000000000e+00 
3.899483239000e+00 1.709286168917e+01 0.000000000000e+00 0.000000000000e+00 0.000000000000e+00 -1.052444896134e+01 -3.619855314134e-08 -2.455704745580e+01 -1.052444892514e+01 0.000000000000e+00 0.000000000000e+00 0.000000000000e+00 
4.943919599017e+00 1.767794737669e+01 0.000000000000e+00 0.000000000000e+00 0.000000000000e+00 -1.051829929004e+01 -3.272041408442e-08 -2.454269823780e+01 -1.051829925835e+01 0.000000000000e+00 0.000000000000e+00 0.000000000000e+00 
5.988355959034e+00 1.826303306421e+01 0.000000000000e+00 0.000000000000e+00 0.000000000000e+00 -1.051214961904e+01 -3.018772485692e-08 -2.452834901931e+01 -1.051214959151e+01 0.000000000000e+00 0.000000000000e+00 0.000000000000e+00 
4.693030725584e+00 1.941387557479e+01 0.000000000000e+00 0.000000000000e+00 0.000000000000e+00 -1.050005344550e+01 -3.798627574879e-08 -2.450012460497e+01 -1.050005341514e+01 0.000000000000e+00 0.000000000000e+00 0.000000000000e+00 
3.397705492134e+00 2.056471808536e+01 0.000000000000e+00 0.000000000000e+00 0.000000000000e+00 -1.048795727059e+01 -4.576107798174e-08 -2.447190019317e+01 -1.048795723913e+01 0.000000000000e+00 0.000000000000e+00 0.000000000000e+00 
3.121077950212e+01 4.657626144002e+01 0.000000000000e+00 0.000000000000e+00 0.000000000000e+00 -1.021455738389e+01 -1.000687681609e-09 -2.383396718791e+01 -1.021455737154e+01 0.000000000000e+00 0.000000000000e+00 0.000000000000e+00 
2.681449316371e+01 4.628694352538e+01 0.000000000000e+00 0.000000000000e+00 0.000000000000e+00 -1.021759831837e+01 -2.462122729434e-09 -2.384106270947e+01 -1.021759830835e+01 0.000000000000e+00 0.000000000000e+00 0.000000000000e+00 
2.862898632741e+01 4.257388705076e+01 0.000000000000e+00 0.000000000000e+00 0.000000000000e+00 -1.025662518582e+01 -4.301449828592e-09 -2.393212541791e+01 -1.025662518112e+01 0.000000000000e+00 0.000000000000e+00 0.000000000000e+00 
3.000000000000e+01 5.000000000000e+01 0.000000000000e+00 0.000000000000e+00 0.000000000000e+00 -1.017857145621e+01 5.950282619226e-11 -2.375000000007e+01 -1.017857143688e+01 0.000000000000e+00 0.000000000000e+00 0.000000000000e+00 
2.500000000000e+01 5.000000000000e+01 0.000000000000e+00 0.000000000000e+00 0.000000000000e+00 -1.017857145411e+01 -1.618105607030e-11 -2.375000000016e+01 -1.017857143628e+01 0.000000000000e+00 0.000000000000e+00 0.000000000000e+00 
2.000000000000e+01 5.000000000000e+01 0.000000000000e+00 0.000000000000e+00 0.000000000000e+00 -1.017857144810e+01 1.580924302142e-10 -2.375000000066e+01 -1.017857143463e+01 0.000000000000e+00 0.000000000000e+00 0.000000000000e+00 
2.241820682530e+01 4.599762561074e+01 0.000000000000e+00 0.000000000000e+00 0.000000000000e+00 -1.022063925056e+01 -5.249373952565e-09 -2.384815823056e+01 -1.022063924434e+01 0.000000000000e+00 0.000000000000e+00 0.000000000000e+00 
2.483641365059e+01 4.199525122148e+01 0.000000000000e+00 0.000000000000e+00 0.000000000000e+00 -1.026270705731e+01 -7.629211689218e-09 -2.394631645984e+01 -1.026270705515e+01 0.000000000000e+00 0.000000000000e+00 0.000000000000e+00 
5.250512443414e-01 5.270741690719e+00 0.000000000000e+00 0.000000000000e+00 0.000000000000e+00 -1.064870787467e+01 1.759679196622e-07 -2.484698447040e+01 -1.064870770352e+01 0.000000000000e+00 0.000000000000e+00 0.000000000000e+00 
6.536117332026e-01 5.104591705015e+00 0.000000000000e+00 0.000000000000e+00 0.000000000000e+00 -1.065045419682e+01 1.889431338041e-07 -2.485105937488e+01 -1.065045407151e+01 0.000000000000e+00 0.000000000000e+00 0.000000000000e+00 
8.106017085323e-01 5.314297167409e+00 0.000000000000e+00 0.000000000000e+00 0.000000000000e+00 -1.064825004708e+01 1.643652504580e-07 -2.484591640562e+01 -1.064824993581e+01 0.000000000000e+00 0.000000000000e+00 0.000000000000e+00 
6.129668669237e-01 5.474600196702e+00 0.000000000000e+00 0.000000000000e+00 0.000000000000e+00 -1.064656518802e+01 1.457663318660e-07 -2.484198489120e+01 -1.064656502377e+01 0.000000000000e+00 0.000000000000e+00 0.000000000000e+00 
7.821722220638e-01 4.938441719311e+00 0.000000000000e+00 0.000000000000e+00 0.000000000000e+00 -1.065220053534e+01 1.908128433442e-07 -2.485513427719e+01 -1.065220044376e+01 0.000000000000e+00 0.000000000000e+00 0.000000000000e+00 
1.008236550141e+00 5.153994138116e+00 0.000000000000e+00 0.000000000000e+00 0.000000000000e+00 -1.064993492262e+01 1.615464390078e-07 -2.484984791628e+01 -1.064993485167e+01 0.000000000000e+00 0.000000000000e+00 0.000000000000e+00 
1.234300878218e+00 5.369546556921e+00 0.000000000000e+00 0.000000000000e+00 0.000000000000e+00 -1.064766931487e+01 1.388604346267e-07 -2.484456154048e+01 -1.064766925660e+01 0.000000000000e+00 0.000000000000e+00 0.000000000000e+00 
9.675916838620e-01 5.524002629803e+00 0.000000000000e+00 0.000000000000e+00 0.000000000000e+00 -1.064604589874e+01 1.415043280198e-07 -2.484077342754e+01 -1.064604579788e+01 0.000000000000e+00 0.000000000000e+00 0.000000000000e+00 
7.008824895059e-01 5.678458702685e+00 0.000000000000e+00 0.000000000000e+00 0.000000000000e+00 -1.064442249697e+01 1.208163542755e-07 -2.483698530632e+01 -1.064442234099e+01 0.000000000000e+00 0.000000000000e+00 0.000000000000e+00 
7.361436274573e+00 9.577967234924e+00 0.000000000000e+00 0.000000000000e+00 0.000000000000e+00 -1.060343583893e+01 -5.093472100315e-09 -2.474135026473e+01 -1.060343583110e+01 0.000000000000e+00 0.000000000000e+00 0.000000000000e+00 
6.222675891544e+00 9.696309605875e+00 0.000000000000e+00 0.000000000000e+00 0.000000000000e+00 -1.060219197726e+01 -2.587710832289e-12 -2.473844790394e+01 -1.060219196436e+01 0.000000000000e+00 0.000000000000e+00 0.000000000000e+00 
6.030128542029e+00 8.842531989777e+00 0.000000000000e+00 0.000000000000e+00 0.000000000000e+00 -1.061116578520e+01 2.144598451465e-09 -2.475938680182e+01 -1.061116577611e+01 0.000000000000e+00 0.000000000000e+00 0.000000000000e+00 
6.930928559713e+00 8.725124977978e+00 0.000000000000e+00 0.000000000000e+00 0.000000000000e+00 -1.061239981693e+01 -3.642543956866e-09 -2.476226622083e+01 -1.061239981133e+01 0.000000000000e+00 0.000000000000e+00 0.000000000000e+00 