 TITLE = "Profiles along polylines"
 VARIABLES = "DIST" "DISPLACEMENT_X1" "DISPLACEMENT_Y1" "STRESS_XX" "STRESS_XY" "STRESS_YY" "STRESS_ZZ" "STRAIN_XX" "STRAIN_XY" "STRAIN_YY"  p_(1st_Invariant)  q_(2nd_Invariant)   Effective_Strain
 ZONE T="TIME=0.000000000000e+00"
0.000000000000e+00 0.000000000000e+00 0.000000000000e+00 2.804923407256e+01 0.000000000000e+00 2.836865513444e+01 2.804923407256e+01 0.000000000000e+00 0.000000000000e+00 0.000000000000e+00 -2.815570775985e+01 3.194210618800e-01  0.000000000000e+00
5.555555555555e-01 0.000000000000e+00 0.000000000000e+00 3.656775725832e+01 0.000000000000e+00 4.212292061640e+01 3.656775725832e+01 0.000000000000e+00 0.000000000000e+00 0.000000000000e+00 -3.841947837768e+01 5.555163358081e+00  0.000000000000e+00
1.111111111111e+00 0.000000000000e+00 0.000000000000e+00 4.508766722016e+01 0.000000000000e+00 5.602336931765e+01 4.508766722016e+01 0.000000000000e+00 0.000000000000e+00 0.000000000000e+00 -4.873290125265e+01 1.093570209749e+01  0.000000000000e+00
1.666666666667e+00 0.000000000000e+00 0.000000000000e+00 5.433440135857e+01 0.000000000000e+00 7.082724966467e+01 5.433440135857e+01 0.000000000000e+00 0.000000000000e+00 0.000000000000e+00 -5.983201746060e+01 1.649284830610e+01  0.000000000000e+00
2.222222222222e+00 0.000000000000e+00 0.000000000000e+00 6.339059249296e+01 0.000000000000e+00 8.545384172407e+01 6.339059249296e+01 0.000000000000e+00 0.000000000000e+00 0.000000000000e+00 -7.074500890333e+01 2.206324923111e+01  0.000000000000e+00
2.777777777778e+00 0.000000000000e+00 0.000000000000e+00 7.260528477657e+01 0.000000000000e+00 1.001428573597e+02 7.260528477657e+01 0.000000000000e+00 0.000000000000e+00 0.000000000000e+00 -8.178447563761e+01 2.753757258312e+01  0.000000000000e+00
3.333333333333e+00 0.000000000000e+00 0.000000000000e+00 8.130522344436e+01 0.000000000000e+00 1.142783216993e+02 8.130522344436e+01 0.000000000000e+00 0.000000000000e+00 0.000000000000e+00 -9.229625619601e+01 3.297309825495e+01  0.000000000000e+00
3.888888888889e+00 0.000000000000e+00 0.000000000000e+00 9.054710656647e+01 0.000000000000e+00 1.290008544951e+02 9.054710656647e+01 0.000000000000e+00 0.000000000000e+00 0.000000000000e+00 -1.033650225427e+02 3.845374792866e+01  0.000000000000e+00
4.444444444444e+00 0.000000000000e+00 0.000000000000e+00 9.916735473823e+01 0.000000000000e+00 1.430315902744e+02 9.916735473823e+01 0.000000000000e+00 0.000000000000e+00 0.000000000000e+00 -1.137887665836e+02 4.386423553619e+01  0.000000000000e+00
5.000000000000e+00 0.000000000000e+00 0.000000000000e+00 6.665394305014e+01 0.000000000000e+00 9.195535925766e+01 6.665394305014e+01 0.000000000000e+00 0.000000000000e+00 0.000000000000e+00 -7.508774845264e+01 2.530141620752e+01  0.000000000000e+00
5.527732202989e+00 0.000000000000e+00 0.000000000000e+00 2.561847925320e+01 0.000000000000e+00 2.718410058079e+01 2.561847925320e+01 0.000000000000e+00 0.000000000000e+00 0.000000000000e+00 -2.614035302906e+01 1.565621327589e+00  0.000000000000e+00
6.093635261846e+00 0.000000000000e+00 0.000000000000e+00 2.575279583747e+01 0.000000000000e+00 2.746691848823e+01 2.575279583747e+01 0.000000000000e+00 0.000000000000e+00 0.000000000000e+00 -2.632417005439e+01 1.714122650765e+00  0.000000000000e+00
6.700210886039e+00 0.000000000000e+00 0.000000000000e+00 2.589899855659e+01 0.000000000000e+00 2.778110231875e+01 2.589899855659e+01 0.000000000000e+00 0.000000000000e+00 0.000000000000e+00 -2.652636647731e+01 1.882103762155e+00  0.000000000000e+00
7.350720108261e+00 0.000000000000e+00 0.000000000000e+00 2.607694060262e+01 0.000000000000e+00 2.816293567279e+01 2.607694060262e+01 0.000000000000e+00 0.000000000000e+00 0.000000000000e+00 -2.677227229267e+01 2.085995070169e+00  0.000000000000e+00
8.048193253885e+00 0.000000000000e+00 0.000000000000e+00 2.624677528055e+01 0.000000000000e+00 2.852882776363e+01 2.624677528055e+01 0.000000000000e+00 0.000000000000e+00 0.000000000000e+00 -2.700745944157e+01 2.282052483085e+00  0.000000000000e+00
8.796142390942e+00 0.000000000000e+00 0.000000000000e+00 2.642646962551e+01 0.000000000000e+00 2.890908989131e+01 2.642646962551e+01 0.000000000000e+00 0.000000000000e+00 0.000000000000e+00 -2.725400971411e+01 2.482620265804e+00  0.000000000000e+00
9.598031413995e+00 0.000000000000e+00 0.000000000000e+00 2.662445503852e+01 0.000000000000e+00 2.933714327226e+01 2.662445503852e+01 0.000000000000e+00 0.000000000000e+00 0.000000000000e+00 -2.752868444977e+01 2.712688233748e+00  0.000000000000e+00
1.045802260081e+01 0.000000000000e+00 0.000000000000e+00 2.683231166443e+01 0.000000000000e+00 2.977676893115e+01 2.683231166443e+01 0.000000000000e+00 0.000000000000e+00 0.000000000000e+00 -2.781379742000e+01 2.944457266720e+00  0.000000000000e+00
1.138022826672e+01 0.000000000000e+00 0.000000000000e+00 2.707991836842e+01 0.000000000000e+00 3.031074232905e+01 2.707991836842e+01 0.000000000000e+00 0.000000000000e+00 0.000000000000e+00 -2.815685968863e+01 3.230823960626e+00  0.000000000000e+00
1.236906982362e+01 0.000000000000e+00 0.000000000000e+00 2.730187740864e+01 0.000000000000e+00 3.078763365620e+01 2.730187740864e+01 0.000000000000e+00 0.000000000000e+00 0.000000000000e+00 -2.846379615783e+01 3.485756247567e+00  0.000000000000e+00
1.342901956046e+01 0.000000000000e+00 0.000000000000e+00 2.755981248586e+01 0.000000000000e+00 3.133803832276e+01 2.755981248586e+01 0.000000000000e+00 0.000000000000e+00 0.000000000000e+00 -2.881922109816e+01 3.778225836904e+00  0.000000000000e+00
1.456586262347e+01 0.000000000000e+00 0.000000000000e+00 2.787081256972e+01 0.000000000000e+00 3.200529126415e+01 2.787081256972e+01 0.000000000000e+00 0.000000000000e+00 0.000000000000e+00 -2.924897213453e+01 4.134478694428e+00  0.000000000000e+00
1.578441190256e+01 0.000000000000e+00 0.000000000000e+00 2.814542349747e+01 0.000000000000e+00 3.259726173758e+01 2.814542349747e+01 0.000000000000e+00 0.000000000000e+00 0.000000000000e+00 -2.962936957751e+01 4.451838240109e+00  0.000000000000e+00
1.709154410806e+01 0.000000000000e+00 0.000000000000e+00 2.845809679837e+01 0.000000000000e+00 3.326394177727e+01 2.845809679837e+01 0.000000000000e+00 0.000000000000e+00 0.000000000000e+00 -3.006004512467e+01 4.805844978905e+00  0.000000000000e+00
1.849322821106e+01 0.000000000000e+00 0.000000000000e+00 2.884080035589e+01 0.000000000000e+00 3.408668643613e+01 2.884080035589e+01 0.000000000000e+00 0.000000000000e+00 0.000000000000e+00 -3.058942904930e+01 5.245886080242e+00  0.000000000000e+00
1.999594063214e+01 0.000000000000e+00 0.000000000000e+00 2.918024951831e+01 0.000000000000e+00 3.481376580949e+01 2.918024951831e+01 0.000000000000e+00 0.000000000000e+00 0.000000000000e+00 -3.105808828204e+01 5.633516291173e+00  0.000000000000e+00
2.160721796174e+01 0.000000000000e+00 0.000000000000e+00 2.956969999836e+01 0.000000000000e+00 3.564376710801e+01 2.956969999836e+01 0.000000000000e+00 0.000000000000e+00 0.000000000000e+00 -3.159438903491e+01 6.074067109644e+00  0.000000000000e+00
2.333504309382e+01 0.000000000000e+00 0.000000000000e+00 3.004535847337e+01 0.000000000000e+00 3.666599903870e+01 3.004535847337e+01 0.000000000000e+00 0.000000000000e+00 0.000000000000e+00 -3.225223866181e+01 6.620640565331e+00  0.000000000000e+00
2.518841643733e+01 0.000000000000e+00 0.000000000000e+00 3.046468818237e+01 0.000000000000e+00 3.756720578364e+01 3.046468818237e+01 0.000000000000e+00 0.000000000000e+00 0.000000000000e+00 -3.283219404946e+01 7.102517601267e+00  0.000000000000e+00
2.717454246521e+01 0.000000000000e+00 0.000000000000e+00 3.099628036562e+01 0.000000000000e+00 3.870756260467e+01 3.099628036562e+01 0.000000000000e+00 0.000000000000e+00 0.000000000000e+00 -3.356670777863e+01 7.711282239050e+00  0.000000000000e+00
2.930483339852e+01 0.000000000000e+00 0.000000000000e+00 3.147958783965e+01 0.000000000000e+00 3.974292668701e+01 3.147958783965e+01 0.000000000000e+00 0.000000000000e+00 0.000000000000e+00 -3.423403412210e+01 8.263338847361e+00  0.000000000000e+00
3.158853179587e+01 0.000000000000e+00 0.000000000000e+00 3.208779442216e+01 0.000000000000e+00 4.104382724689e+01 3.208779442216e+01 0.000000000000e+00 0.000000000000e+00 0.000000000000e+00 -3.507313869707e+01 8.956032824733e+00  0.000000000000e+00
3.403784557405e+01 0.000000000000e+00 0.000000000000e+00 3.269852131121e+01 0.000000000000e+00 4.235159956376e+01 3.269852131121e+01 0.000000000000e+00 0.000000000000e+00 0.000000000000e+00 -3.591621406206e+01 9.653078252549e+00  0.000000000000e+00
3.666375520936e+01 0.000000000000e+00 0.000000000000e+00 3.328960968755e+01 0.000000000000e+00 4.361378391294e+01 3.328960968755e+01 0.000000000000e+00 0.000000000000e+00 0.000000000000e+00 -3.673100109601e+01 1.032417422540e+01  0.000000000000e+00
3.947929780048e+01 0.000000000000e+00 0.000000000000e+00 3.405301928379e+01 0.000000000000e+00 4.524871133719e+01 3.405301928379e+01 0.000000000000e+00 0.000000000000e+00 0.000000000000e+00 -3.778491663492e+01 1.119569205340e+01  0.000000000000e+00
4.249835245259e+01 0.000000000000e+00 0.000000000000e+00 3.479741166230e+01 0.000000000000e+00 4.684968066058e+01 3.479741166230e+01 0.000000000000e+00 0.000000000000e+00 0.000000000000e+00 -3.881483466173e+01 1.205226899828e+01  0.000000000000e+00
4.573642609799e+01 0.000000000000e+00 0.000000000000e+00 3.560463225334e+01 0.000000000000e+00 4.858212101418e+01 3.560463225334e+01 0.000000000000e+00 0.000000000000e+00 0.000000000000e+00 -3.993046184029e+01 1.297748876085e+01  0.000000000000e+00
4.920761401231e+01 0.000000000000e+00 0.000000000000e+00 3.638783790686e+01 0.000000000000e+00 5.025617936085e+01 3.638783790686e+01 0.000000000000e+00 0.000000000000e+00 0.000000000000e+00 -4.101061839152e+01 1.386834145399e+01  0.000000000000e+00
5.293184832248e+01 0.000000000000e+00 0.000000000000e+00 3.739146321777e+01 0.000000000000e+00 5.240857248045e+01 3.739146321777e+01 0.000000000000e+00 0.000000000000e+00 0.000000000000e+00 -4.239716630533e+01 1.501710926268e+01  0.000000000000e+00
5.692326368828e+01 0.000000000000e+00 0.000000000000e+00 3.829838352136e+01 0.000000000000e+00 5.435502783574e+01 3.829838352136e+01 0.000000000000e+00 0.000000000000e+00 0.000000000000e+00 -4.365059829282e+01 1.605664431438e+01  0.000000000000e+00
6.120245837116e+01 0.000000000000e+00 0.000000000000e+00 3.940735232632e+01 0.000000000000e+00 5.671535534440e+01 3.940735232632e+01 0.000000000000e+00 0.000000000000e+00 0.000000000000e+00 -4.517668666568e+01 1.730800301808e+01  0.000000000000e+00
6.579120237150e+01 0.000000000000e+00 0.000000000000e+00 4.065952867139e+01 0.000000000000e+00 5.938014625145e+01 4.065952867139e+01 0.000000000000e+00 0.000000000000e+00 0.000000000000e+00 -4.689973453141e+01 1.872061758006e+01  0.000000000000e+00
7.071067811865e+01 0.000000000000e+00 0.000000000000e+00 4.182225830748e+01 0.000000000000e+00 6.189149033731e+01 4.182225830748e+01 0.000000000000e+00 0.000000000000e+00 0.000000000000e+00 -4.851200231742e+01 2.006923202983e+01  0.000000000000e+00
 TITLE = "Profiles along polylines"
 VARIABLES = "DIST" "DISPLACEMENT_X1" "DISPLACEMENT_Y1" "STRESS_XX" "STRESS_XY" "STRESS_YY" "STRESS_ZZ" "STRAIN_XX" "STRAIN_XY" "STRAIN_YY"  p_(1st_Invariant)  q_(2nd_Invariant)   Effective_Strain
 ZONE T="TIME=1.000000000000e+00"
0.000000000000e+00 0.000000000000e+00 0.000000000000e+00 0.000000000000e+00 0.000000000000e+00 0.000000000000e+00 0.000000000000e+00 0.000000000000e+00 0.000000000000e+00 0.000000000000e+00 -0.000000000000e+00 0.000000000000e+00  0.000000000000e+00
5.555555555555e-01 0.000000000000e+00 0.000000000000e+00 0.000000000000e+00 0.000000000000e+00 0.000000000000e+00 0.000000000000e+00 0.000000000000e+00 0.000000000000e+00 0.000000000000e+00 -0.000000000000e+00 0.000000000000e+00  0.000000000000e+00
1.111111111111e+00 0.000000000000e+00 0.000000000000e+00 0.000000000000e+00 0.000000000000e+00 0.000000000000e+00 0.000000000000e+00 0.000000000000e+00 0.000000000000e+00 0.000000000000e+00 -0.000000000000e+00 0.000000000000e+00  0.000000000000e+00
1.666666666667e+00 0.000000000000e+00 0.000000000000e+00 0.000000000000e+00 0.000000000000e+00 0.000000000000e+00 0.000000000000e+00 0.000000000000e+00 0.000000000000e+00 0.000000000000e+00 -0.000000000000e+00 0.000000000000e+00  0.000000000000e+00
2.222222222222e+00 0.000000000000e+00 0.000000000000e+00 0.000000000000e+00 0.000000000000e+00 0.000000000000e+00 0.000000000000e+00 0.000000000000e+00 0.000000000000e+00 0.000000000000e+00 -0.000000000000e+00 0.000000000000e+00  0.000000000000e+00
2.777777777778e+00 0.000000000000e+00 0.000000000000e+00 0.000000000000e+00 0.000000000000e+00 0.000000000000e+00 0.000000000000e+00 0.000000000000e+00 0.000000000000e+00 0.000000000000e+00 -0.000000000000e+00 0.000000000000e+00  0.000000000000e+00
3.333333333333e+00 0.000000000000e+00 0.000000000000e+00 0.000000000000e+00 0.000000000000e+00 0.000000000000e+00 0.000000000000e+00 0.000000000000e+00 0.000000000000e+00 0.000000000000e+00 -0.000000000000e+00 0.000000000000e+00  0.000000000000e+00
3.888888888889e+00 0.000000000000e+00 0.000000000000e+00 0.000000000000e+00 0.000000000000e+00 0.000000000000e+00 0.000000000000e+00 0.000000000000e+00 0.000000000000e+00 0.000000000000e+00 -0.000000000000e+00 0.000000000000e+00  0.000000000000e+00
4.444444444444e+00 0.000000000000e+00 0.000000000000e+00 0.000000000000e+00 0.000000000000e+00 0.000000000000e+00 0.000000000000e+00 0.000000000000e+00 0.000000000000e+00 0.000000000000e+00 -0.000000000000e+00 0.000000000000e+00  0.000000000000e+00
5.000000000000e+00 3.753386445161e-02 6.770494005109e-03 -1.481948237224e+02 -9.612770470900e+01 1.127953169614e+02 -8.477133608322e-01 -7.372348794763e-03 -9.997187747417e-03 5.683728861697e-03 1.208240670728e+01 2.812338675219e+02  2.069758490065e-02
5.527732202989e+00 2.961225692553e-02 8.783262199090e-03 2.567507462400e+01 -8.095166072857e+01 1.644388627190e+01 2.241339357177e+01 1.635395828372e-04 -8.255140831266e-03 -3.858044703578e-04 -2.151078482255e+01 1.404466387411e+02  1.430666750221e-02
6.093635261846e+00 2.630615495118e-02 9.149091424355e-03 -8.330349533902e+00 -5.691809401031e+01 2.408688892311e+01 1.451384335652e+01 -1.164611887615e-03 -5.798590585361e-03 4.021977453438e-04 -1.009012758191e+01 1.027190202787e+02  1.014186602556e-02
6.700210886039e+00 2.347163937090e-02 9.217337444178e-03 -9.245019764906e-01 -5.495723821718e+01 1.898263828487e+01 1.521240918650e+01 -8.226826540589e-04 -5.603860268071e-03 9.726614583430e-05 -1.109018183163e+01 9.693476403614e+01  9.745564957231e-03
7.350720108261e+00 2.087939117508e-02 8.987890742075e-03 9.943452265249e+00 -5.209276679541e+01 1.564004958065e+01 1.748002827377e+01 -3.836684345674e-04 -5.312387034597e-03 -2.001497540587e-04 -1.435451003989e+01 9.048363066020e+01  9.207325250309e-03
8.048193253885e+00 1.854190814027e-02 8.574133262903e-03 1.740706958291e+01 -4.678381581570e+01 1.508442562860e+01 1.956154293074e+01 -1.091753070049e-04 -4.771138222686e-03 -3.448082919085e-04 -1.735101271408e+01 8.112469890036e+01  8.269488936725e-03
8.796142390942e+00 1.647200211872e-02 8.076325572330e-03 2.248708597713e+01 -4.072146889231e+01 1.576899974534e+01 2.130262748720e+01 6.135847594648e-05 -4.152580771207e-03 -4.091456424461e-04 -1.985290440322e+01 7.080460731125e+01  7.206112041633e-03
9.598031413995e+00 1.465223703061e-02 7.554359211936e-03 2.625287590016e+01 -3.445688321100e+01 1.711479796980e+01 2.284627770627e+01 1.746060607454e-04 -3.514142628313e-03 -4.310239714513e-04 -2.207131719208e+01 6.021469938141e+01  6.110574733569e-03
1.045802260081e+01 1.305725266474e-02 7.042851655790e-03 2.821277047389e+01 -2.930431556592e+01 1.851970501829e+01 2.386933013341e+01 2.223380119623e-04 -2.988149903338e-03 -4.233507914560e-04 -2.353393520853e+01 5.144850311483e+01  5.206717448833e-03
1.138022826672e+01 1.165626070342e-02 6.558679088480e-03 2.990494288171e+01 -2.411876165053e+01 2.026931957329e+01 2.491499889568e+01 2.551237088583e-04 -2.459429673560e-03 -4.019410547944e-04 -2.502975378356e+01 4.260055806689e+01  4.298322041048e-03
1.236906982362e+01 1.042582439693e-02 6.114350714765e-03 3.015012927485e+01 -2.038726165045e+01 2.206948887985e+01 2.554090953559e+01 2.357112544202e-04 -2.079075756471e-03 -3.551526853928e-04 -2.592017589676e+01 3.600302100373e+01  3.637729334876e-03
1.342901956046e+01 9.334763006934e-03 5.708412754284e-03 3.050861313107e+01 -1.704605034170e+01 2.375340792088e+01 2.616906355886e+01 2.219288706443e-04 -1.738241522126e-03 -3.162164867000e-04 -2.681036153694e+01 3.011400731880e+01  3.046944965961e-03
1.456586262347e+01 8.362470502218e-03 5.341146596903e-03 3.097234792378e+01 -1.401665602794e+01 2.536537171249e+01 2.680929731044e+01 2.126731936625e-04 -1.429206466589e-03 -2.846030175512e-04 -2.771567231557e+01 2.479570498100e+01  2.512896649286e-03
1.578441190256e+01 7.495379267124e-03 5.016086996338e-03 3.070101655346e+01 -1.188219936984e+01 2.694759579883e+01 2.721720163264e+01 1.779802741005e-04 -1.211689384820e-03 -2.409193295928e-04 -2.828860466164e+01 2.089758110712e+01  2.130063728040e-03
1.709154410806e+01 6.712892598453e-03 4.727268673895e-03 3.066207143584e+01 -9.991116331762e+00 2.842149067106e+01 2.766655385775e+01 1.530729845251e-04 -1.018820788497e-03 -2.067401971508e-04 -2.891670532155e+01 1.751424692422e+01  1.792151384211e-03
1.849322821106e+01 6.001140272331e-03 4.472132508425e-03 3.081615432376e+01 -8.237764638998e+00 2.993472287021e+01 2.818781747647e+01 1.342469952180e-04 -8.399934899282e-04 -1.785051302606e-04 -2.964623155681e+01 1.445512628672e+01  1.480073411689e-03
1.999594063214e+01 5.355042346733e-03 4.251823895182e-03 3.063597786267e+01 -6.997265188965e+00 3.133504173672e+01 2.857335079979e+01 1.053908733056e-04 -7.135257344966e-04 -1.465482830950e-04 -3.018145679973e+01 1.237215377935e+01  1.255143580774e-03
2.160721796174e+01 4.762205663446e-03 4.062333144396e-03 3.066157526607e+01 -5.878396895151e+00 3.271433970646e+01 2.901843435821e+01 8.400169213525e-05 -5.993988976595e-04 -1.213853717924e-04 -3.079811644358e+01 1.067489509493e+01  1.053482028771e-03
2.333504309382e+01 4.214494766235e-03 3.901932916044e-03 3.089559605320e+01 -4.819999691099e+00 3.420228266376e+01 2.956131483484e+01 6.817625820921e-05 -4.914569783876e-04 -1.009995108358e-04 -3.155306451727e+01 9.317924855686e+00  8.639007795574e-04
2.518841643733e+01 3.709983926855e-03 3.771420133327e-03 3.091837703977e+01 -4.078953668898e+00 3.554819475394e+01 2.999509153068e+01 4.721050787813e-05 -4.159294799017e-04 -7.907325414718e-05 -3.215388777480e+01 8.745050080016e+00  7.288391433076e-04
2.717454246521e+01 3.240790577252e-03 3.668098950426e-03 3.122857253667e+01 -3.331622081132e+00 3.704312864867e+01 3.056663783014e+01 3.384546821018e-05 -3.397194457458e-04 -6.300198683460e-05 -3.294611300516e+01 8.449567675535e+00  5.945376382194e-04
2.930483339852e+01 2.804758087782e-03 3.592557758929e-03 3.142691185083e+01 -2.785883643555e+00 3.840312476820e+01 3.106184446736e+01 1.870439174517e-05 -2.840784082159e-04 -4.706361278251e-05 -3.363062702880e+01 8.638926535483e+00  4.955267502493e-04
3.158853179587e+01 2.397743373435e-03 3.543450246044e-03 3.187090444339e+01 -2.232750243362e+00 3.997462847032e+01 3.170196779556e+01 8.687210055072e-06 -2.276646155705e-04 -3.488086844002e-05 -3.451583356976e+01 9.056678177751e+00  3.963441580007e-04
3.403784557405e+01 2.018430291820e-03 3.520955845618e-03 3.230841425694e+01 -1.789584169938e+00 4.152561274521e+01 3.233369314937e+01 -1.226848273126e-06 -1.824740597607e-04 -2.354664582497e-05 -3.538924005051e+01 9.712477589646e+00  3.168870602931e-04
3.666375520936e+01 1.665510914796e-03 3.524188356019e-03 3.273951694306e+01 -1.439197372801e+00 4.299951851299e+01 3.294030224422e+01 -1.017371405677e-05 -1.467413284298e-04 -1.354993828204e-05 -3.622644590009e+01 1.046239727217e+01  2.544568814074e-04
3.947929780048e+01 1.337632530173e-03 3.551639763276e-03 3.345103668207e+01 -1.080128517447e+00 4.480336472269e+01 3.373882051892e+01 -1.463119002210e-05 -1.101213911397e-04 -6.708435874041e-06 -3.733107397456e+01 1.136623014902e+01  1.911572253223e-04
4.249835245259e+01 1.036574067502e-03 3.602045323761e-03 3.414013196583e+01 -8.054639102397e-01 4.656058640202e+01 3.451349947579e+01 -1.900631003730e-05 -8.212770627682e-05 -2.818355187580e-07 -3.840473928121e+01 1.231730546368e+01  1.434950975264e-04
4.573642609799e+01 7.629490080647e-04 3.671439286203e-03 3.494890435583e+01 -5.742871454048e-01 4.841662994729e+01 3.535826656402e+01 -2.085163557650e-05 -5.855897622949e-05 4.111264026589e-06 -3.957460028905e+01 1.330501594562e+01  1.040426877224e-04
4.920761401231e+01 5.204756639542e-04 3.754758020793e-03 3.576629805211e+01 -3.999313913815e-01 5.018574495693e+01 3.618024562926e+01 -2.108555895318e-05 -4.078061206736e-05 6.978651295241e-06 -4.071076287943e+01 1.423385899470e+01  7.503083429720e-05
5.293184832248e+01 3.132404633795e-04 3.843949250454e-03 3.690837337967e+01 -2.443815731368e-01 5.239448813913e+01 3.724231096394e+01 -1.701707948682e-05 -2.492003865816e-05 6.882122254685e-06 -4.218172416091e+01 1.532772116007e+01  4.813609043750e-05
5.692326368828e+01 1.494691591513e-04 3.929185508413e-03 3.795875630682e+01 -1.427572410909e-01 5.437627028722e+01 3.820286809244e+01 -1.243753471187e-05 -1.456211262382e-05 5.946828786041e-06 -4.351263156216e+01 1.629870504356e+01  3.000310490562e-05
6.120245837116e+01 3.684802810070e-05 3.997739416035e-03 3.929789671722e+01 -6.381689176022e-02 5.673856094417e+01 3.938147732352e+01 -4.251826485403e-06 -6.510788732787e-06 2.497481008643e-06 -4.513931166164e+01 1.739937558913e+01  1.273206210788e-05
6.579120237150e+01 -1.465595909228e-05 4.038017294879e-03 4.082714970299e+01 -1.448037673054e-02 5.938843170900e+01 4.071230061814e+01 5.866030510674e-06 -1.476594727489e-06 -2.273084001983e-06 -4.697596067671e+01 1.861898910561e+01  7.710525332877e-06
7.071067811865e+01 0.000000000000e+00 4.039429456744e-03 4.221842435402e+01 3.286909918994e-03 6.188778205407e+01 4.193999563647e+01 1.419382495779e-05 3.379361398153e-07 -6.189998031829e-06 -4.868206734819e+01 1.981004041728e+01  1.811030352101e-05
