 TITLE = "Profiles along polylines"
 VARIABLES = "DIST" "DISPLACEMENT_X1" "DISPLACEMENT_Y1" "STRESS_XX" "STRESS_XY" "STRESS_YY" "STRESS_ZZ" "STRAIN_XX" "STRAIN_XY" "STRAIN_YY"  p_(1st_Invariant)  q_(2nd_Invariant)   Effective_Strain
 ZONE T="TIME=0.000000000000e+00"
0.000000000000e+00 0.000000000000e+00 0.000000000000e+00 5.110611300610e+01 0.000000000000e+00 7.585421103251e+01 5.110611300610e+01 0.000000000000e+00 0.000000000000e+00 0.000000000000e+00 -5.935547901490e+01 2.474809802641e+01  0.000000000000e+00
1.681125156966e+00 0.000000000000e+00 0.000000000000e+00 6.141328979230e+01 0.000000000000e+00 8.883945527166e+01 6.141328979230e+01 0.000000000000e+00 0.000000000000e+00 0.000000000000e+00 -7.055534495209e+01 2.742616547935e+01  0.000000000000e+00
2.241829629338e+00 0.000000000000e+00 0.000000000000e+00 6.395141656789e+01 0.000000000000e+00 9.139943369197e+01 6.395141656789e+01 0.000000000000e+00 0.000000000000e+00 0.000000000000e+00 -7.310075560925e+01 2.744801712408e+01  0.000000000000e+00
3.922954786392e+00 0.000000000000e+00 0.000000000000e+00 6.665394305014e+01 0.000000000000e+00 9.195535925766e+01 6.665394305014e+01 0.000000000000e+00 0.000000000000e+00 0.000000000000e+00 -7.508774845264e+01 2.530141620752e+01  0.000000000000e+00
5.604079943271e+00 0.000000000000e+00 0.000000000000e+00 6.346567478499e+01 0.000000000000e+00 8.338484397652e+01 6.346567478499e+01 0.000000000000e+00 0.000000000000e+00 0.000000000000e+00 -7.010539784883e+01 1.991916919154e+01  0.000000000000e+00
6.164784415643e+00 0.000000000000e+00 0.000000000000e+00 6.195365072763e+01 0.000000000000e+00 7.956125185302e+01 6.195365072763e+01 0.000000000000e+00 0.000000000000e+00 0.000000000000e+00 -6.782285110276e+01 1.760760112539e+01  0.000000000000e+00
7.845909572784e+00 0.000000000000e+00 0.000000000000e+00 5.598201038466e+01 0.000000000000e+00 6.629062376599e+01 5.598201038466e+01 0.000000000000e+00 0.000000000000e+00 0.000000000000e+00 -5.941821484510e+01 1.030861338133e+01  0.000000000000e+00
 TITLE = "Profiles along polylines"
 VARIABLES = "DIST" "DISPLACEMENT_X1" "DISPLACEMENT_Y1" "STRESS_XX" "STRESS_XY" "STRESS_YY" "STRESS_ZZ" "STRAIN_XX" "STRAIN_XY" "STRAIN_YY"  p_(1st_Invariant)  q_(2nd_Invariant)   Effective_Strain
 ZONE T="TIME=1.000000000000e+00"
0.000000000000e+00 3.343467178160e-02 0.000000000000e+00 -8.019629363431e+01 -6.012094139664e+01 1.878890822742e+02 4.220542684554e+01 -6.120086023993e-03 -6.012094139664e-03 7.281773025006e-03 -4.996607182848e+01 2.547183179298e+02  1.560386415224e-02
1.681125156966e+00 3.740662050051e-02 3.601980519984e-03 -8.006735656960e+01 2.823368291313e+01 1.123998622515e+02 1.953153650673e+01 -4.979944653817e-03 2.823368291313e-03 4.575201089404e-03 -1.728801406287e+01 1.737396627924e+02  9.614093170656e-03
2.241829629338e+00 3.600900277318e-02 1.409588057308e-02 -8.518276107440e+01 -1.001723833740e+02 -7.581414453233e+01 -3.848803777593e+01 -2.334736164923e-03 -1.001723833740e-02 -1.955271431734e-03 6.649498112756e+01 1.787014895718e+02  1.748554340398e-02
3.922954786392e+00 3.753386445161e-02 6.770494005109e-03 -1.481948237224e+02 -9.612770470900e+01 1.127953169614e+02 -8.477133608322e-01 -7.372348794763e-03 -9.997187747417e-03 5.683728861697e-03 1.208240670728e+01 2.812338675219e+02  2.069758490065e-02
5.604079943271e+00 3.348532573783e-02 9.823138876833e-03 -9.957469483255e+01 -1.397607267225e+02 1.039913413673e+02 1.118894162323e+01 -5.759709095700e-03 -1.453511557914e-02 4.825724786692e-03 -5.201862719329e+00 2.995983678671e+02  2.679674223162e-02
6.164784415643e+00 2.855874742187e-02 1.159253389789e-02 -2.177113287009e+01 -1.822705363391e+02 -2.249756794890e+01 -3.397320377227e+00 -9.554382496289e-04 -1.895613577926e-02 -9.932128737271e-04 1.588867373207e+01 3.162579917210e+02  3.284746004697e-02
7.845909572784e+00 0.000000000000e+00 9.551012500411e-03 5.241800681968e+02 -9.967196859047e+01 -9.203606903848e+01 1.395487266245e+02 2.000082976176e-02 -1.036588473341e-02 -1.204240937448e-02 -1.905642419276e+02 5.660839700200e+02  3.329062470787e-02
