 TITLE = "Profiles along polylines"
 VARIABLES = "DIST" "DISPLACEMENT_X1" "DISPLACEMENT_Y1" "STRESS_XX" "STRESS_XY" "STRESS_YY" "STRESS_ZZ" "STRAIN_XX" "STRAIN_XY" "STRAIN_YY"  p_(1st_Invariant)  q_(2nd_Invariant)   Effective_Strain
 ZONE T="TIME=0.000000000000e+00"
0.000000000000e+00 0.000000000000e+00 0.000000000000e+00 2.804923407256e+01 0.000000000000e+00 2.836865513444e+01 2.804923407256e+01 0.000000000000e+00 0.000000000000e+00 0.000000000000e+00 -2.815570775985e+01 3.194210618800e-01  0.000000000000e+00
5.555555555555e-01 0.000000000000e+00 0.000000000000e+00 3.415638424382e+01 0.000000000000e+00 3.675175050573e+01 3.415638424382e+01 0.000000000000e+00 0.000000000000e+00 0.000000000000e+00 -3.502150633112e+01 2.595366261909e+00  0.000000000000e+00
1.111111111111e+00 0.000000000000e+00 0.000000000000e+00 4.081792221248e+01 0.000000000000e+00 4.582302082857e+01 4.081792221248e+01 0.000000000000e+00 0.000000000000e+00 0.000000000000e+00 -4.248628841784e+01 5.005098616096e+00  0.000000000000e+00
1.666666666667e+00 0.000000000000e+00 0.000000000000e+00 4.740831431978e+01 0.000000000000e+00 5.455318456101e+01 4.740831431978e+01 0.000000000000e+00 0.000000000000e+00 0.000000000000e+00 -4.978993773352e+01 7.144870241227e+00  0.000000000000e+00
2.222222222222e+00 0.000000000000e+00 0.000000000000e+00 5.438929047718e+01 0.000000000000e+00 6.392027189033e+01 5.438929047718e+01 0.000000000000e+00 0.000000000000e+00 0.000000000000e+00 -5.756628428156e+01 9.530981413150e+00  0.000000000000e+00
2.777777777778e+00 0.000000000000e+00 0.000000000000e+00 6.081725792793e+01 0.000000000000e+00 7.228992083080e+01 6.081725792793e+01 0.000000000000e+00 0.000000000000e+00 0.000000000000e+00 -6.464147889556e+01 1.147266290286e+01  0.000000000000e+00
3.333333333333e+00 0.000000000000e+00 0.000000000000e+00 6.755180672495e+01 0.000000000000e+00 8.144691832715e+01 6.755180672495e+01 0.000000000000e+00 0.000000000000e+00 0.000000000000e+00 -7.218351059235e+01 1.389511160220e+01  0.000000000000e+00
3.888888888889e+00 0.000000000000e+00 0.000000000000e+00 7.411770731479e+01 0.000000000000e+00 9.005141343276e+01 7.411770731479e+01 0.000000000000e+00 0.000000000000e+00 0.000000000000e+00 -7.942894268745e+01 1.593370611797e+01  0.000000000000e+00
4.444444444444e+00 0.000000000000e+00 0.000000000000e+00 8.075429794748e+01 0.000000000000e+00 9.910796940096e+01 8.075429794748e+01 0.000000000000e+00 0.000000000000e+00 0.000000000000e+00 -8.687218843197e+01 1.835367145348e+01  0.000000000000e+00
5.000000000000e+00 0.000000000000e+00 0.000000000000e+00 5.598201038466e+01 0.000000000000e+00 6.629062376599e+01 5.598201038466e+01 0.000000000000e+00 0.000000000000e+00 0.000000000000e+00 -5.941821484510e+01 1.030861338133e+01  0.000000000000e+00
5.526479744387e+00 0.000000000000e+00 0.000000000000e+00 2.486492695688e+01 0.000000000000e+00 2.486492695688e+01 2.486492695688e+01 0.000000000000e+00 0.000000000000e+00 0.000000000000e+00 -2.486492695688e+01 7.536443801682e-15  0.000000000000e+00
6.108536036092e+00 0.000000000000e+00 0.000000000000e+00 2.497944504685e+01 0.000000000000e+00 2.497944504685e+01 2.497944504685e+01 0.000000000000e+00 0.000000000000e+00 0.000000000000e+00 -2.497944504685e+01 7.536443801682e-15  0.000000000000e+00
6.751613711279e+00 0.000000000000e+00 0.000000000000e+00 2.510551543837e+01 0.000000000000e+00 2.510551543837e+01 2.510551543837e+01 0.000000000000e+00 0.000000000000e+00 0.000000000000e+00 -2.510551543837e+01 0.000000000000e+00  0.000000000000e+00
7.462504976728e+00 0.000000000000e+00 0.000000000000e+00 2.525659675907e+01 0.000000000000e+00 2.525659675907e+01 2.525659675907e+01 0.000000000000e+00 0.000000000000e+00 0.000000000000e+00 -2.525659675907e+01 7.536443801682e-15  0.000000000000e+00
8.248740147909e+00 0.000000000000e+00 0.000000000000e+00 2.541111791139e+01 0.000000000000e+00 2.541111791139e+01 2.541111791139e+01 0.000000000000e+00 0.000000000000e+00 0.000000000000e+00 -2.541111791139e+01 7.536443801682e-15  0.000000000000e+00
9.117163628135e+00 0.000000000000e+00 0.000000000000e+00 2.558588231950e+01 0.000000000000e+00 2.558588231950e+01 2.558588231950e+01 0.000000000000e+00 0.000000000000e+00 0.000000000000e+00 -2.558588231950e+01 0.000000000000e+00  0.000000000000e+00
1.007684735867e+01 0.000000000000e+00 0.000000000000e+00 2.578423652589e+01 0.000000000000e+00 2.578423652589e+01 2.578423652589e+01 0.000000000000e+00 0.000000000000e+00 0.000000000000e+00 -2.578423652589e+01 0.000000000000e+00  0.000000000000e+00
1.113781315977e+01 0.000000000000e+00 0.000000000000e+00 2.599624478002e+01 0.000000000000e+00 2.599624478002e+01 2.599624478002e+01 0.000000000000e+00 0.000000000000e+00 0.000000000000e+00 -2.599624478002e+01 7.536443801682e-15  0.000000000000e+00
1.231076239245e+01 0.000000000000e+00 0.000000000000e+00 2.622299835481e+01 0.000000000000e+00 2.622299835481e+01 2.622299835481e+01 0.000000000000e+00 0.000000000000e+00 0.000000000000e+00 -2.622299835481e+01 0.000000000000e+00  0.000000000000e+00
1.360674535649e+01 0.000000000000e+00 0.000000000000e+00 2.648098724732e+01 0.000000000000e+00 2.648098724732e+01 2.648098724732e+01 0.000000000000e+00 0.000000000000e+00 0.000000000000e+00 -2.648098724732e+01 7.536443801682e-15  0.000000000000e+00
1.503955188946e+01 0.000000000000e+00 0.000000000000e+00 2.678238815050e+01 0.000000000000e+00 2.678238815050e+01 2.678238815050e+01 0.000000000000e+00 0.000000000000e+00 0.000000000000e+00 -2.678238815050e+01 7.536443801682e-15  0.000000000000e+00
1.662325557874e+01 0.000000000000e+00 0.000000000000e+00 2.708956681746e+01 0.000000000000e+00 2.708956681746e+01 2.708956681746e+01 0.000000000000e+00 0.000000000000e+00 0.000000000000e+00 -2.708956681746e+01 0.000000000000e+00  0.000000000000e+00
1.837344851328e+01 0.000000000000e+00 0.000000000000e+00 2.744321646101e+01 0.000000000000e+00 2.744321646101e+01 2.744321646101e+01 0.000000000000e+00 0.000000000000e+00 0.000000000000e+00 -2.744321646101e+01 0.000000000000e+00  0.000000000000e+00
2.030866971233e+01 0.000000000000e+00 0.000000000000e+00 2.784611806391e+01 0.000000000000e+00 2.784611806391e+01 2.784611806391e+01 0.000000000000e+00 0.000000000000e+00 0.000000000000e+00 -2.784611806391e+01 0.000000000000e+00  0.000000000000e+00
2.244687637061e+01 0.000000000000e+00 0.000000000000e+00 2.827104389454e+01 0.000000000000e+00 2.827104389454e+01 2.827104389454e+01 0.000000000000e+00 0.000000000000e+00 0.000000000000e+00 -2.827104389454e+01 0.000000000000e+00  0.000000000000e+00
2.481028520733e+01 0.000000000000e+00 0.000000000000e+00 2.873614088827e+01 0.000000000000e+00 2.873614088827e+01 2.873614088827e+01 0.000000000000e+00 0.000000000000e+00 0.000000000000e+00 -2.873614088827e+01 0.000000000000e+00  0.000000000000e+00
2.742248370087e+01 0.000000000000e+00 0.000000000000e+00 2.927289249576e+01 0.000000000000e+00 2.927289249576e+01 2.927289249576e+01 0.000000000000e+00 0.000000000000e+00 0.000000000000e+00 -2.927289249576e+01 0.000000000000e+00  0.000000000000e+00
3.030957546784e+01 0.000000000000e+00 0.000000000000e+00 2.982606054367e+01 0.000000000000e+00 2.982606054367e+01 2.982606054367e+01 0.000000000000e+00 0.000000000000e+00 0.000000000000e+00 -2.982606054367e+01 0.000000000000e+00  0.000000000000e+00
3.350289432936e+01 0.000000000000e+00 0.000000000000e+00 3.050446242203e+01 0.000000000000e+00 3.050446242203e+01 3.050446242203e+01 0.000000000000e+00 0.000000000000e+00 0.000000000000e+00 -3.050446242203e+01 0.000000000000e+00  0.000000000000e+00
3.703011579382e+01 0.000000000000e+00 0.000000000000e+00 3.120490494559e+01 0.000000000000e+00 3.120490494559e+01 3.120490494559e+01 0.000000000000e+00 0.000000000000e+00 0.000000000000e+00 -3.120490494559e+01 7.536443801682e-15  0.000000000000e+00
4.092785441703e+01 0.000000000000e+00 0.000000000000e+00 3.200886034704e+01 0.000000000000e+00 3.200886034704e+01 3.200886034704e+01 0.000000000000e+00 0.000000000000e+00 0.000000000000e+00 -3.200886034704e+01 0.000000000000e+00  0.000000000000e+00
4.523771677800e+01 0.000000000000e+00 0.000000000000e+00 3.285960577827e+01 0.000000000000e+00 3.285960577827e+01 3.285960577827e+01 0.000000000000e+00 0.000000000000e+00 0.000000000000e+00 -3.285960577827e+01 0.000000000000e+00  0.000000000000e+00
5.000000000000e+01 0.000000000000e+00 0.000000000000e+00 3.372780672729e+01 0.000000000000e+00 3.372780672729e+01 3.372780672729e+01 0.000000000000e+00 0.000000000000e+00 0.000000000000e+00 -3.372780672729e+01 0.000000000000e+00  0.000000000000e+00
 TITLE = "Profiles along polylines"
 VARIABLES = "DIST" "DISPLACEMENT_X1" "DISPLACEMENT_Y1" "STRESS_XX" "STRESS_XY" "STRESS_YY" "STRESS_ZZ" "STRAIN_XX" "STRAIN_XY" "STRAIN_YY"  p_(1st_Invariant)  q_(2nd_Invariant)   Effective_Strain
 ZONE T="TIME=1.000000000000e+00"
0.000000000000e+00 0.000000000000e+00 0.000000000000e+00 0.000000000000e+00 0.000000000000e+00 0.000000000000e+00 0.000000000000e+00 0.000000000000e+00 0.000000000000e+00 0.000000000000e+00 -0.000000000000e+00 0.000000000000e+00  0.000000000000e+00
5.555555555555e-01 0.000000000000e+00 0.000000000000e+00 0.000000000000e+00 0.000000000000e+00 0.000000000000e+00 0.000000000000e+00 0.000000000000e+00 0.000000000000e+00 0.000000000000e+00 -0.000000000000e+00 0.000000000000e+00  0.000000000000e+00
1.111111111111e+00 0.000000000000e+00 0.000000000000e+00 0.000000000000e+00 0.000000000000e+00 0.000000000000e+00 0.000000000000e+00 0.000000000000e+00 0.000000000000e+00 0.000000000000e+00 -0.000000000000e+00 0.000000000000e+00  0.000000000000e+00
1.666666666667e+00 0.000000000000e+00 0.000000000000e+00 0.000000000000e+00 0.000000000000e+00 0.000000000000e+00 0.000000000000e+00 0.000000000000e+00 0.000000000000e+00 0.000000000000e+00 -0.000000000000e+00 0.000000000000e+00  0.000000000000e+00
2.222222222222e+00 0.000000000000e+00 0.000000000000e+00 0.000000000000e+00 0.000000000000e+00 0.000000000000e+00 0.000000000000e+00 0.000000000000e+00 0.000000000000e+00 0.000000000000e+00 -0.000000000000e+00 0.000000000000e+00  0.000000000000e+00
2.777777777778e+00 0.000000000000e+00 0.000000000000e+00 0.000000000000e+00 0.000000000000e+00 0.000000000000e+00 0.000000000000e+00 0.000000000000e+00 0.000000000000e+00 0.000000000000e+00 -0.000000000000e+00 0.000000000000e+00  0.000000000000e+00
3.333333333333e+00 0.000000000000e+00 0.000000000000e+00 0.000000000000e+00 0.000000000000e+00 0.000000000000e+00 0.000000000000e+00 0.000000000000e+00 0.000000000000e+00 0.000000000000e+00 -0.000000000000e+00 0.000000000000e+00  0.000000000000e+00
3.888888888889e+00 0.000000000000e+00 0.000000000000e+00 0.000000000000e+00 0.000000000000e+00 0.000000000000e+00 0.000000000000e+00 0.000000000000e+00 0.000000000000e+00 0.000000000000e+00 -0.000000000000e+00 0.000000000000e+00  0.000000000000e+00
4.444444444444e+00 0.000000000000e+00 0.000000000000e+00 0.000000000000e+00 0.000000000000e+00 0.000000000000e+00 0.000000000000e+00 0.000000000000e+00 0.000000000000e+00 0.000000000000e+00 -0.000000000000e+00 0.000000000000e+00  0.000000000000e+00
5.000000000000e+00 0.000000000000e+00 9.551012500411e-03 5.241800681968e+02 -9.967196859047e+01 -9.203606903848e+01 1.395487266245e+02 2.000082976176e-02 -1.036588473341e-02 -1.204240937448e-02 -1.905642419276e+02 5.660839700200e+02  3.329062470787e-02
5.526479744387e+00 0.000000000000e+00 3.301965285809e-03 3.560820778424e+02 -9.868623386423e+00 4.462270387250e+01 1.301574052972e+02 1.174808297235e-02 -1.026336832188e-03 -4.447804474086e-03 -1.769540623374e+02 2.792395233589e+02  1.460183879005e-02
6.108536036092e+00 0.000000000000e+00 1.623824008478e-03 1.912141317440e+02 5.003680877411e+00 7.006493967426e+01 8.837549944421e+01 5.347608879587e-03 5.203828112507e-04 -9.521491080371e-04 -1.165515236208e+02 1.134425153226e+02  5.950430613707e-03
6.751613711279e+00 0.000000000000e+00 1.136386380615e-03 1.331471262238e+02 1.253552008984e+00 6.487531692859e+01 6.944893912107e+01 3.312305729343e-03 1.303694089343e-04 -2.378283540091e-04 -8.915712742450e+01 6.613941850523e+01  3.444804833159e-03
7.462504976728e+00 0.000000000000e+00 1.012016520610e-03 9.763124758186e+01 5.001289279208e-01 5.587396430741e+01 5.615420227041e+01 2.156806356196e-03 5.201340850377e-05 -1.457237407617e-05 -6.988647138656e+01 4.162688615075e+01  2.166003690033e-03
8.248740147909e+00 0.000000000000e+00 1.001930120918e-03 7.790778105767e+01 6.497400749716e-01 4.866462035297e+01 4.813616758775e+01 1.548123900436e-03 6.757296779705e-05 2.747954379138e-05 -5.823618966613e+01 2.953238605259e+01  1.539025443533e-03
9.117163628135e+00 0.000000000000e+00 1.018126920959e-03 6.440766741797e+01 8.544371966839e-01 4.335973070982e+01 4.256457236613e+01 1.135840942695e-03 8.886146845513e-05 4.134823387157e-05 -5.011065683131e+01 2.150754629710e+01  1.126307412892e-03
1.007684735867e+01 0.000000000000e+00 1.060080601784e-03 5.506397369974e+01 9.015211872587e-02 3.957630132163e+01 3.870577711677e+01 8.506262223144e-04 9.375820347491e-06 4.526725865282e-05 -4.444868404604e+01 1.594153643720e+01  8.290791853581e-04
1.113781315977e+01 0.000000000000e+00 1.087114218428e-03 4.862526601199e+01 4.181744707614e-02 3.658807428240e+01 3.596250000032e+01 6.584638326066e-04 4.349014495919e-06 3.252986266801e-05 -4.039194676490e+01 1.236206825690e+01  6.428606494031e-04
1.231076239245e+01 0.000000000000e+00 1.114727457120e-03 4.391886482211e+01 2.226096312265e-01 3.450257765704e+01 3.401563208567e+01 5.149681022949e-04 2.315140164755e-05 2.532116971125e-05 -3.747902485494e+01 9.676645309304e+00  5.043824694588e-04
1.360674535649e+01 0.000000000000e+00 1.145423855355e-03 4.021450110598e+01 1.848833369559e-01 3.306394733298e+01 3.257592943061e+01 3.972057271188e-04 1.922786704342e-05 2.537693092318e-05 -3.528479262319e+01 7.413550062651e+00  3.865820075907e-04
1.503955188946e+01 0.000000000000e+00 1.179768920144e-03 3.732706040586e+01 6.595255123541e-03 3.206102211638e+01 3.152938001687e+01 3.014793802276e-04 6.859065328483e-07 2.764538917440e-05 -3.363915417971e+01 5.550998174451e+00  2.886537386799e-04
1.662325557874e+01 0.000000000000e+00 1.211722297706e-03 3.538522142472e+01 1.383485562306e-01 3.127372185409e+01 3.083350971063e+01 2.366890091329e-04 1.438824984799e-05 2.289103145986e-05 -3.249748432981e+01 4.354947583890e+00  2.274833972236e-04
1.837344851328e+01 0.000000000000e+00 1.253100213518e-03 3.380668692997e+01 9.427885285322e-02 3.084464453253e+01 3.037268602315e+01 1.785680471546e-04 9.805000696735e-06 2.454184248745e-05 -3.167467249522e+01 3.228167687671e+00  1.685077883266e-04
2.030866971233e+01 0.000000000000e+00 1.298270797258e-03 3.268186423844e+01 9.995237551074e-03 3.061078744317e+01 3.012624273005e+01 1.328923184363e-04 1.039504705312e-06 2.519632508272e-05 -3.113963147055e+01 2.351163902589e+00  1.222704655705e-04
2.244687637061e+01 0.000000000000e+00 1.346395546584e-03 3.194655115956e+01 1.696649929599e-02 3.050170555051e+01 3.004289457084e+01 9.899014261371e-05 1.764515926783e-06 2.385817094288e-05 -3.083038376030e+01 1.721005800318e+00  8.953143280799e-05
2.481028520733e+01 0.000000000000e+00 1.398999476045e-03 3.146720768863e+01 3.472209128818e-02 3.055553666712e+01 3.010127966203e+01 7.102825738286e-05 3.611097493971e-06 2.362136426456e-05 -3.070800800593e+01 1.206334653755e+00  6.296282975836e-05
2.742248370087e+01 0.000000000000e+00 1.454844015883e-03 3.125506050988e+01 2.708784216359e-02 3.065873895321e+01 3.028329683723e+01 5.053171097776e-05 2.817135585014e-06 1.952299003103e-05 -3.073236543344e+01 8.500833265152e-01  4.440585122633e-05
3.030957546784e+01 0.000000000000e+00 1.511597575960e-03 3.119649174654e+01 2.617226302629e-02 3.095373619644e+01 3.057549260036e+01 3.229195560153e-05 2.721915354734e-06 1.966866699604e-05 -3.090857351445e+01 5.439431674139e-01  2.857820159124e-05
3.350289432936e+01 0.000000000000e+00 1.566261530152e-03 3.136146410529e+01 1.143185853318e-02 3.130766583501e+01 3.100252395090e+01 1.866488802848e-05 1.188913287451e-06 1.586737797355e-05 -3.122388463040e+01 3.358779406983e-01  1.755646433951e-05
3.703011579382e+01 0.000000000000e+00 1.615797162074e-03 3.163667878580e+01 2.394740639642e-02 3.174470047274e+01 3.149637575580e+01 7.295757560134e-06 2.490530265227e-06 1.291288528090e-05 -3.162591833812e+01 2.196129091823e-01  1.201539126490e-05
4.092785441703e+01 0.000000000000e+00 1.661053623038e-03 3.201603288912e+01 1.644951796358e-02 3.228803703068e+01 3.209476511476e+01 -4.094075733260e-06 1.710749868213e-06 1.005013962808e-05 -3.213294501152e+01 2.440927791997e-01  1.294962512027e-05
4.523771677800e+01 0.000000000000e+00 1.704105430083e-03 3.238720678530e+01 4.040375548953e-03 3.294398842218e+01 3.274320087355e+01 -1.851169258915e-05 4.201990570911e-07 1.044095252885e-05 -3.269146536034e+01 4.884419973425e-01  2.540680337074e-05
5.000000000000e+01 0.000000000000e+00 1.768450797498e-03 3.258329283143e+01 -4.818793436491e-03 3.371623003665e+01 3.338097955134e+01 -4.147970943555e-05 -5.011545173951e-07 1.743302523628e-05 -3.322683413981e+01 1.008063248670e+00  5.242467885147e-05
