 TITLE = "Time curves in points"
 VARIABLES = "TIME "  "DISPLACEMENT_X1"  "DISPLACEMENT_Y1"  "STRESS_XX"  "STRESS_XY"  "STRESS_YY"  "STRESS_ZZ"  "STRAIN_XX"  "STRAIN_XY"  "STRAIN_YY"  "STRAIN_PLS"  p_(1st_Invariant)  q_(2nd_Invariant)   Effective_Strain
 ZONE T="POINT=POINT11"
0.000000000000e+00 0.000000000000e+00 0.000000000000e+00 -5.662701493195e+06 -6.102356867684e-04 -1.321297014744e+07 -5.662701492192e+06 0.000000000000e+00 0.000000000000e+00 0.000000000000e+00 0.000000000000e+00 8.179457710944e+06 7.550268654751e+06  0.000000000000e+00
2.000000000000e-02 -5.235677949903e-12 -7.088506243389e-04 -4.082617106863e+06 1.354376421659e-03 4.489592363377e+04 -1.211316354969e+06 -1.066483136009e-04 1.550175338266e-13 3.270983087538e-04 0.000000000000e+00 1.749679179399e+06 3.664614653252e+06  3.914736892740e-04
