 TITLE = "Profiles along polylines"
 VARIABLES = "DIST" "DISPLACEMENT_X1" "DISPLACEMENT_Y1" "STRESS_XX" "STRESS_XY" "STRESS_YY" "STRESS_ZZ" "STRAIN_XX" "STRAIN_XY" "STRAIN_YY" "STRAIN_PLS"  p_(1st_Invariant)  q_(2nd_Invariant)   Effective_Strain
 ZONE T="TIME=0.000000000000e+00"
0.000000000000e+00 0.000000000000e+00 0.000000000000e+00 -5.675785714726e+06 3.182975312351e-05 -1.324350000000e+07 -5.675785714419e+06 0.000000000000e+00 0.000000000000e+00 0.000000000000e+00 0.000000000000e+00 8.198357143050e+06 7.567714285431e+06  0.000000000000e+00
2.771288594735e+00 0.000000000000e+00 0.000000000000e+00 -5.675785714794e+06 2.576749138381e-04 -1.324349999990e+07 -5.675785714408e+06 0.000000000000e+00 0.000000000000e+00 0.000000000000e+00 0.000000000000e+00 8.198357143034e+06 7.567714285298e+06  0.000000000000e+00
5.088453386307e+00 0.000000000000e+00 0.000000000000e+00 -5.675785714997e+06 2.885083046780e-04 -1.324349999974e+07 -5.675785714420e+06 0.000000000000e+00 0.000000000000e+00 0.000000000000e+00 0.000000000000e+00 8.198357143051e+06 7.567714285027e+06  0.000000000000e+00
7.025401218877e+00 0.000000000000e+00 0.000000000000e+00 -5.675785715030e+06 1.085608633002e-04 -1.324349999961e+07 -5.675785714392e+06 0.000000000000e+00 0.000000000000e+00 0.000000000000e+00 0.000000000000e+00 8.198357143010e+06 7.567714284898e+06  0.000000000000e+00
8.644496023202e+00 0.000000000000e+00 0.000000000000e+00 -5.675785714870e+06 3.723087036503e-06 -1.324349999982e+07 -5.675785714408e+06 0.000000000000e+00 0.000000000000e+00 0.000000000000e+00 0.000000000000e+00 8.198357143034e+06 7.567714285185e+06  0.000000000000e+00
9.998174884078e+00 0.000000000000e+00 0.000000000000e+00 -5.675785715141e+06 2.910661700025e-05 -1.324349999978e+07 -5.675785714477e+06 0.000000000000e+00 0.000000000000e+00 0.000000000000e+00 0.000000000000e+00 8.198357143133e+06 7.567714284973e+06  0.000000000000e+00
1.112962402407e+01 0.000000000000e+00 0.000000000000e+00 -5.675785715481e+06 1.713489544059e-04 -1.324349999966e+07 -5.675785714543e+06 0.000000000000e+00 0.000000000000e+00 0.000000000000e+00 0.000000000000e+00 8.198357143228e+06 7.567714284648e+06  0.000000000000e+00
1.207544789055e+01 0.000000000000e+00 0.000000000000e+00 -5.675785715457e+06 4.257205059481e-05 -1.324349999973e+07 -5.675785714557e+06 0.000000000000e+00 0.000000000000e+00 0.000000000000e+00 0.000000000000e+00 8.198357143249e+06 7.567714284728e+06  0.000000000000e+00
1.286635021652e+01 0.000000000000e+00 0.000000000000e+00 -5.675785715386e+06 -7.499895037766e-05 -1.324349999987e+07 -5.675785714577e+06 0.000000000000e+00 0.000000000000e+00 0.000000000000e+00 0.000000000000e+00 8.198357143278e+06 7.567714284890e+06  0.000000000000e+00
1.352739027168e+01 0.000000000000e+00 0.000000000000e+00 -5.675785715551e+06 3.911466822272e-04 -1.324349999960e+07 -5.675785714546e+06 0.000000000000e+00 0.000000000000e+00 0.000000000000e+00 0.000000000000e+00 8.198357143234e+06 7.567714284556e+06  0.000000000000e+00
1.408000000000e+01 0.000000000000e+00 0.000000000000e+00 -5.675785715889e+06 8.663052587076e-04 -1.324349999924e+07 -5.675785714539e+06 0.000000000000e+00 0.000000000000e+00 0.000000000000e+00 0.000000000000e+00 8.198357143222e+06 7.567714284026e+06  0.000000000000e+00
1.465000000000e+01 0.000000000000e+00 0.000000000000e+00 -5.675785716067e+06 4.768882471689e-04 -1.324349999965e+07 -5.675785714714e+06 0.000000000000e+00 0.000000000000e+00 0.000000000000e+00 0.000000000000e+00 8.198357143476e+06 7.567714284255e+06  0.000000000000e+00
1.522000000000e+01 0.000000000000e+00 0.000000000000e+00 -5.675785715967e+06 -4.244914003096e-04 -1.324350000023e+07 -5.675785714860e+06 0.000000000000e+00 0.000000000000e+00 0.000000000000e+00 0.000000000000e+00 8.198357143687e+06 7.567714284820e+06  0.000000000000e+00
1.567618708187e+01 0.000000000000e+00 0.000000000000e+00 -5.675785716745e+06 -9.080544332785e-04 -1.324350000005e+07 -5.675785715038e+06 0.000000000000e+00 0.000000000000e+00 0.000000000000e+00 0.000000000000e+00 8.198357143943e+06 7.567714284155e+06  0.000000000000e+00
1.601230646764e+01 0.000000000000e+00 0.000000000000e+00 -5.675785717103e+06 -1.030308103411e-04 -1.324349999971e+07 -5.675785715044e+06 0.000000000000e+00 0.000000000000e+00 0.000000000000e+00 0.000000000000e+00 8.198357143952e+06 7.567714283637e+06  0.000000000000e+00
1.626000000000e+01 0.000000000000e+00 0.000000000000e+00 -5.675785716373e+06 3.397904410146e-03 -1.324350000252e+07 -5.675785715668e+06 0.000000000000e+00 0.000000000000e+00 0.000000000000e+00 0.000000000000e+00 8.198357144854e+06 7.567714286500e+06  0.000000000000e+00
1.636000000000e+01 0.000000000000e+00 0.000000000000e+00 -5.675785716621e+06 2.603583474415e-03 -1.324350000090e+07 -5.675785715255e+06 0.000000000000e+00 0.000000000000e+00 0.000000000000e+00 0.000000000000e+00 8.198357144257e+06 7.567714284958e+06  0.000000000000e+00
1.655254661512e+01 0.000000000000e+00 0.000000000000e+00 -5.675785719049e+06 6.872433046265e-04 -1.324349999783e+07 -5.675785715063e+06 0.000000000000e+00 0.000000000000e+00 0.000000000000e+00 0.000000000000e+00 8.198357143980e+06 7.567714280771e+06  0.000000000000e+00
1.671286624106e+01 0.000000000000e+00 0.000000000000e+00 -5.675785718726e+06 1.312443529150e-04 -1.324350000027e+07 -5.675785715697e+06 0.000000000000e+00 0.000000000000e+00 0.000000000000e+00 0.000000000000e+00 8.198357144896e+06 7.567714283053e+06  0.000000000000e+00
1.684635003096e+01 0.000000000000e+00 0.000000000000e+00 -5.675785713344e+06 3.896142000881e-03 -1.324350000484e+07 -5.675785715455e+06 0.000000000000e+00 0.000000000000e+00 0.000000000000e+00 0.000000000000e+00 8.198357144546e+06 7.567714290440e+06  0.000000000000e+00
1.695745861502e+01 0.000000000000e+00 0.000000000000e+00 -5.675785715273e+06 1.657479302868e-03 -1.324350000015e+07 -5.675785714627e+06 0.000000000000e+00 0.000000000000e+00 0.000000000000e+00 0.000000000000e+00 8.198357143350e+06 7.567714285201e+06  0.000000000000e+00
1.705000000000e+01 0.000000000000e+00 0.000000000000e+00 -5.675785715902e+06 -4.540718655319e-03 -1.324349999405e+07 -5.675785712986e+06 0.000000000000e+00 0.000000000000e+00 0.000000000000e+00 0.000000000000e+00 8.198357140979e+06 7.567714279606e+06  0.000000000000e+00
1.716700338981e+01 0.000000000000e+00 0.000000000000e+00 -5.675785714132e+06 -6.441117226480e-04 -1.324349999656e+07 -5.675785713208e+06 0.000000000000e+00 0.000000000000e+00 0.000000000000e+00 0.000000000000e+00 8.198357141300e+06 7.567714282891e+06  0.000000000000e+00
1.731435117068e+01 0.000000000000e+00 0.000000000000e+00 -5.675785712995e+06 -1.012212630902e-03 -1.324349999599e+07 -5.675785712696e+06 0.000000000000e+00 0.000000000000e+00 0.000000000000e+00 0.000000000000e+00 8.198357140561e+06 7.567714283146e+06  0.000000000000e+00
1.750000000000e+01 0.000000000000e+00 0.000000000000e+00 -5.675785713545e+06 1.507950637578e-03 -1.324349999906e+07 -5.675785713781e+06 0.000000000000e+00 0.000000000000e+00 0.000000000000e+00 0.000000000000e+00 8.198357142128e+06 7.567714285396e+06  0.000000000000e+00
1.768564882932e+01 0.000000000000e+00 0.000000000000e+00 -5.675785717079e+06 -2.471248514466e-03 -1.324349999644e+07 -5.675785714057e+06 0.000000000000e+00 0.000000000000e+00 0.000000000000e+00 0.000000000000e+00 8.198357142526e+06 7.567714280876e+06  0.000000000000e+00
1.783299661019e+01 0.000000000000e+00 0.000000000000e+00 -5.675785711715e+06 -1.361299783724e-03 -1.324350000507e+07 -5.675785715037e+06 0.000000000000e+00 0.000000000000e+00 0.000000000000e+00 0.000000000000e+00 8.198357143942e+06 7.567714291698e+06  0.000000000000e+00
1.795000000000e+01 0.000000000000e+00 0.000000000000e+00 -5.675785712231e+06 5.411739621973e-03 -1.324350000700e+07 -5.675785715770e+06 0.000000000000e+00 0.000000000000e+00 0.000000000000e+00 0.000000000000e+00 8.198357145001e+06 7.567714293002e+06  0.000000000000e+00
1.804254138498e+01 0.000000000000e+00 0.000000000000e+00 -5.675785714679e+06 6.798426285736e-04 -1.324350000558e+07 -5.675785716077e+06 0.000000000000e+00 0.000000000000e+00 0.000000000000e+00 0.000000000000e+00 8.198357145445e+06 7.567714290201e+06  0.000000000000e+00
1.815364996904e+01 0.000000000000e+00 0.000000000000e+00 -5.675785711599e+06 -5.218231328750e-04 -1.324350000473e+07 -5.675785714899e+06 0.000000000000e+00 0.000000000000e+00 0.000000000000e+00 0.000000000000e+00 8.198357143743e+06 7.567714291482e+06  0.000000000000e+00
1.828713375894e+01 0.000000000000e+00 0.000000000000e+00 -5.675785713339e+06 4.225406904787e-03 -1.324350000184e+07 -5.675785714555e+06 0.000000000000e+00 0.000000000000e+00 0.000000000000e+00 0.000000000000e+00 8.198357143246e+06 7.567714287898e+06  0.000000000000e+00
1.844745338488e+01 0.000000000000e+00 0.000000000000e+00 -5.675785712228e+06 4.718973480157e-03 -1.324349999856e+07 -5.675785713236e+06 0.000000000000e+00 0.000000000000e+00 0.000000000000e+00 0.000000000000e+00 8.198357141340e+06 7.567714285826e+06  0.000000000000e+00
1.864000000000e+01 0.000000000000e+00 0.000000000000e+00 -5.675785713180e+06 1.624538117744e-03 -1.324350000051e+07 -5.675785714108e+06 0.000000000000e+00 0.000000000000e+00 0.000000000000e+00 0.000000000000e+00 8.198357142601e+06 7.567714286870e+06  0.000000000000e+00
1.874000000000e+01 0.000000000000e+00 0.000000000000e+00 -5.675785712072e+06 -1.606293865514e-03 -1.324350000123e+07 -5.675785713989e+06 0.000000000000e+00 0.000000000000e+00 0.000000000000e+00 0.000000000000e+00 8.198357142429e+06 7.567714288196e+06  0.000000000000e+00
1.898769353236e+01 0.000000000000e+00 0.000000000000e+00 -5.675785711886e+06 1.664238333658e-04 -1.324350000260e+07 -5.675785714346e+06 0.000000000000e+00 0.000000000000e+00 0.000000000000e+00 0.000000000000e+00 8.198357142944e+06 7.567714289485e+06  0.000000000000e+00
1.932381291813e+01 0.000000000000e+00 0.000000000000e+00 -5.675785712337e+06 7.325248815587e-04 -1.324350000154e+07 -5.675785714164e+06 0.000000000000e+00 0.000000000000e+00 0.000000000000e+00 0.000000000000e+00 8.198357142681e+06 7.567714288291e+06  0.000000000000e+00
1.978000000000e+01 0.000000000000e+00 0.000000000000e+00 -5.675785713337e+06 1.181955758983e-04 -1.324350000045e+07 -5.675785714137e+06 0.000000000000e+00 0.000000000000e+00 0.000000000000e+00 0.000000000000e+00 8.198357142642e+06 7.567714286716e+06  0.000000000000e+00
2.035000000000e+01 0.000000000000e+00 0.000000000000e+00 -5.675785713090e+06 5.616862498895e-04 -1.324350000045e+07 -5.675785714063e+06 0.000000000000e+00 0.000000000000e+00 0.000000000000e+00 0.000000000000e+00 8.198357142535e+06 7.567714286877e+06  0.000000000000e+00
2.092000000000e+01 0.000000000000e+00 0.000000000000e+00 -5.675785712679e+06 6.520552023954e-04 -1.324350000082e+07 -5.675785714049e+06 0.000000000000e+00 0.000000000000e+00 0.000000000000e+00 0.000000000000e+00 8.198357142516e+06 7.567714287455e+06  0.000000000000e+00
2.147260972832e+01 0.000000000000e+00 0.000000000000e+00 -5.675785712735e+06 4.241926261872e-04 -1.324350000094e+07 -5.675785714101e+06 0.000000000000e+00 0.000000000000e+00 0.000000000000e+00 0.000000000000e+00 8.198357142591e+06 7.567714287517e+06  0.000000000000e+00
2.213364978348e+01 0.000000000000e+00 0.000000000000e+00 -5.675785713325e+06 3.289342965375e-04 -1.324350000033e+07 -5.675785714097e+06 0.000000000000e+00 0.000000000000e+00 0.000000000000e+00 0.000000000000e+00 8.198357142584e+06 7.567714286620e+06  0.000000000000e+00
2.292455210945e+01 0.000000000000e+00 0.000000000000e+00 -5.675785713648e+06 3.094107560291e-04 -1.324350000029e+07 -5.675785714181e+06 0.000000000000e+00 0.000000000000e+00 0.000000000000e+00 0.000000000000e+00 8.198357142707e+06 7.567714286375e+06  0.000000000000e+00
2.387037597593e+01 0.000000000000e+00 0.000000000000e+00 -5.675785713290e+06 3.521105264835e-04 -1.324350000058e+07 -5.675785714162e+06 0.000000000000e+00 0.000000000000e+00 0.000000000000e+00 0.000000000000e+00 8.198357142679e+06 7.567714286858e+06  0.000000000000e+00
2.500182511592e+01 0.000000000000e+00 0.000000000000e+00 -5.675785713262e+06 3.160625813041e-04 -1.324350000048e+07 -5.675785714124e+06 0.000000000000e+00 0.000000000000e+00 0.000000000000e+00 0.000000000000e+00 8.198357142624e+06 7.567714286792e+06  0.000000000000e+00
2.635550397680e+01 0.000000000000e+00 0.000000000000e+00 -5.675785713725e+06 2.025896516989e-04 -1.324350000009e+07 -5.675785714143e+06 0.000000000000e+00 0.000000000000e+00 0.000000000000e+00 0.000000000000e+00 8.198357142651e+06 7.567714286153e+06  0.000000000000e+00
2.797459878112e+01 0.000000000000e+00 0.000000000000e+00 -5.675785713653e+06 1.014570668595e-04 -1.324349999989e+07 -5.675785714063e+06 0.000000000000e+00 0.000000000000e+00 0.000000000000e+00 0.000000000000e+00 8.198357142535e+06 7.567714286032e+06  0.000000000000e+00
2.991154661369e+01 0.000000000000e+00 0.000000000000e+00 -5.675785713564e+06 3.659370141644e-05 -1.324350000018e+07 -5.675785714122e+06 0.000000000000e+00 0.000000000000e+00 0.000000000000e+00 0.000000000000e+00 8.198357142621e+06 7.567714286334e+06  0.000000000000e+00
3.222871140527e+01 0.000000000000e+00 0.000000000000e+00 -5.675785713676e+06 -1.514490476531e-04 -1.324350000028e+07 -5.675785714187e+06 0.000000000000e+00 0.000000000000e+00 0.000000000000e+00 0.000000000000e+00 8.198357142714e+06 7.567714286349e+06  0.000000000000e+00
3.500000000000e+01 0.000000000000e+00 0.000000000000e+00 -5.675785713734e+06 -3.858627866199e-05 -1.324350000008e+07 -5.675785714143e+06 0.000000000000e+00 0.000000000000e+00 0.000000000000e+00 0.000000000000e+00 8.198357142652e+06 7.567714286138e+06  0.000000000000e+00
 TITLE = "Profiles along polylines"
 VARIABLES = "DIST" "DISPLACEMENT_X1" "DISPLACEMENT_Y1" "STRESS_XX" "STRESS_XY" "STRESS_YY" "STRESS_ZZ" "STRAIN_XX" "STRAIN_XY" "STRAIN_YY" "STRAIN_PLS"  p_(1st_Invariant)  q_(2nd_Invariant)   Effective_Strain
 ZONE T="TIME=2.000000000000e-02"
0.000000000000e+00 0.000000000000e+00 -2.352165811245e-05 -5.736743933626e+06 1.004161417507e+01 -1.333982654860e+07 -5.722971144668e+06 -5.115607213274e-07 7.459461170809e-10 -1.825241538610e-06 0.000000000000e+00 8.266513875631e+06 7.609978356896e+06  1.630791475662e-06
2.771288594735e+00 -1.174533156738e-06 -2.349739936739e-05 -5.738520276335e+06 1.170581438975e+02 -1.334784301880e+07 -5.725908988542e+06 -4.684192465410e-07 8.695728690821e-09 -2.013876234370e-06 0.000000000000e+00 8.270757427894e+06 7.615636220551e+06  1.825377368287e-06
5.088453386307e+00 -2.299901476837e-06 -2.343782058134e-05 -5.749729432921e+06 2.156171303247e+02 -1.336756698027e+07 -5.735188923958e+06 -5.400760257523e-07 1.601725110636e-08 -2.401797208498e-06 0.000000000000e+00 8.284161779050e+06 7.625118208844e+06  2.182642552117e-06
7.025401218877e+00 -3.315999244994e-06 -2.335623524314e-05 -5.765494762281e+06 3.217064681729e+02 -1.339617433715e+07 -5.748500729828e+06 -6.312068959494e-07 2.389818671404e-08 -2.969917678037e-06 0.000000000000e+00 8.303389943085e+06 7.639190788181e+06  2.710334667715e-06
8.644496023202e+00 -4.410702449392e-06 -2.326054189293e-05 -5.791595812765e+06 4.369598343344e+02 -1.344155798926e+07 -5.769946140606e+06 -8.041306630499e-07 3.245987313113e-08 -3.859052348663e-06 0.000000000000e+00 8.334366647542e+06 7.660809993466e+06  3.526881024247e-06
9.998174884078e+00 -5.442938513623e-06 -2.315607389057e-05 -5.823058606909e+06 5.629517507318e+02 -1.350314842602e+07 -5.797862109880e+06 -9.358698649835e-07 4.181927074930e-08 -5.109818288323e-06 0.000000000000e+00 8.374689714271e+06 7.692719077426e+06  4.712665588231e-06
1.112962402407e+01 -6.644256200204e-06 -2.304619451400e-05 -5.877765304464e+06 7.152890608930e+02 -1.359630450115e+07 -5.842220941684e+06 -1.320219154093e-06 5.313574608041e-08 -6.922287332896e-06 0.000000000000e+00 8.438763582432e+06 7.736372717543e+06  6.366362731538e-06
1.207544789055e+01 -7.684048104538e-06 -2.293367008037e-05 -5.936263307248e+06 8.968530257913e+02 -1.372417011036e+07 -5.898130025282e+06 -1.416379011064e-06 6.662336446772e-08 -9.594958281966e-06 0.000000000000e+00 8.519521147629e+06 7.807043446799e+06  8.971765290684e-06
1.286635021652e+01 -8.477878060304e-06 -2.282028924229e-05 -6.002935675807e+06 1.113778210346e+03 -1.389421490430e+07 -5.969145174032e+06 -1.255075750177e-06 8.273781548274e-08 -1.327320224185e-05 0.000000000000e+00 8.622098584713e+06 7.908228857736e+06  1.269309951388e-05
1.352739027168e+01 -9.265891719420e-06 -2.270744227226e-05 -6.115781259028e+06 1.387967152954e+03 -1.414515111300e+07 -6.078279711610e+06 -1.392914581118e-06 1.031061023057e-07 -1.854012146391e-05 0.000000000000e+00 8.779737361214e+06 8.048186515710e+06  1.788528451015e-05
1.408000000000e+01 -9.416913396301e-06 -2.259652591848e-05 -6.210294204304e+06 1.718954687948e+03 -1.449859002215e+07 -6.212665267935e+06 8.806812790259e-08 1.276937124649e-07 -2.667638886755e-05 0.000000000000e+00 8.973849831462e+06 8.287111075258e+06  2.672144711065e-05
1.465000000000e+01 -8.278260445361e-06 -2.246106666576e-05 -6.325946130101e+06 2.225140414895e+03 -1.510396569859e+07 -6.428973548607e+06 3.826732737667e-06 1.652961096805e-07 -4.112746355906e-05 0.000000000000e+00 9.286295125766e+06 8.726962836621e+06  4.316917791524e-05
1.522000000000e+01 -3.497261260883e-06 -2.229712075132e-05 -6.419782144756e+06 3.031231682711e+03 -1.635737979759e+07 -6.833148582704e+06 1.535361059343e-05 2.251772422493e-07 -7.267062881044e-05 0.000000000000e+00 9.870103508350e+06 9.737498505428e+06  8.144115851746e-05
1.567618708187e+01 9.362921799705e-06 -2.214106591312e-05 -6.235372390183e+06 3.970971211783e+03 -1.875140214689e+07 -7.496032361122e+06 4.682451326974e-05 2.949865003308e-07 -1.369700614568e-04 0.000000000000e+00 1.082760229940e+07 1.193573852049e+07  1.654301976356e-04
1.601230646764e+01 3.555678782623e-05 -2.201732208785e-05 -5.110642523912e+06 4.258457179723e+03 -2.330908414993e+07 -8.525918002151e+06 1.268530892682e-04 3.163425410046e-07 -2.680024977726e-04 0.000000000000e+00 1.231521489200e+07 1.675394721203e+07  3.491622689540e-04
1.626000000000e+01 7.949911431359e-05 -2.194068083065e-05 -2.794828737054e+06 2.629635017826e+03 -2.870188197709e+07 -9.449013214243e+06 2.471554234646e-04 1.953440631941e-07 -4.340200233940e-04 0.000000000000e+00 1.364857464279e+07 2.330371832699e+07  5.972685335817e-04
1.636000000000e+01 1.112038507818e-04 -2.192492862591e-05 -3.323779617095e+05 -2.954745921203e+02 -3.337593833330e+07 -1.011249488850e+07 3.632614858824e-04 -2.194976006491e-08 -5.829842258920e-04 0.000000000000e+00 1.460693706117e+07 2.939996063404e+07  8.268042285531e-04
1.655254661512e+01 0.000000000000e+00 0.000000000000e+00 0.000000000000e+00 0.000000000000e+00 0.000000000000e+00 0.000000000000e+00 0.000000000000e+00 0.000000000000e+00 0.000000000000e+00 0.000000000000e+00 -0.000000000000e+00 0.000000000000e+00  0.000000000000e+00
1.671286624106e+01 0.000000000000e+00 0.000000000000e+00 0.000000000000e+00 0.000000000000e+00 0.000000000000e+00 0.000000000000e+00 0.000000000000e+00 0.000000000000e+00 0.000000000000e+00 0.000000000000e+00 -0.000000000000e+00 0.000000000000e+00  0.000000000000e+00
1.684635003096e+01 0.000000000000e+00 0.000000000000e+00 0.000000000000e+00 0.000000000000e+00 0.000000000000e+00 0.000000000000e+00 0.000000000000e+00 0.000000000000e+00 0.000000000000e+00 0.000000000000e+00 -0.000000000000e+00 0.000000000000e+00  0.000000000000e+00
1.695745861502e+01 0.000000000000e+00 0.000000000000e+00 0.000000000000e+00 0.000000000000e+00 0.000000000000e+00 0.000000000000e+00 0.000000000000e+00 0.000000000000e+00 0.000000000000e+00 0.000000000000e+00 -0.000000000000e+00 0.000000000000e+00  0.000000000000e+00
1.705000000000e+01 0.000000000000e+00 0.000000000000e+00 0.000000000000e+00 0.000000000000e+00 0.000000000000e+00 0.000000000000e+00 0.000000000000e+00 0.000000000000e+00 0.000000000000e+00 0.000000000000e+00 -0.000000000000e+00 0.000000000000e+00  0.000000000000e+00
1.716700338981e+01 0.000000000000e+00 0.000000000000e+00 0.000000000000e+00 0.000000000000e+00 0.000000000000e+00 0.000000000000e+00 0.000000000000e+00 0.000000000000e+00 0.000000000000e+00 0.000000000000e+00 -0.000000000000e+00 0.000000000000e+00  0.000000000000e+00
1.731435117068e+01 0.000000000000e+00 0.000000000000e+00 0.000000000000e+00 0.000000000000e+00 0.000000000000e+00 0.000000000000e+00 0.000000000000e+00 0.000000000000e+00 0.000000000000e+00 0.000000000000e+00 -0.000000000000e+00 0.000000000000e+00  0.000000000000e+00
1.750000000000e+01 0.000000000000e+00 0.000000000000e+00 0.000000000000e+00 0.000000000000e+00 0.000000000000e+00 0.000000000000e+00 0.000000000000e+00 0.000000000000e+00 0.000000000000e+00 0.000000000000e+00 -0.000000000000e+00 0.000000000000e+00  0.000000000000e+00
1.768564882932e+01 0.000000000000e+00 0.000000000000e+00 0.000000000000e+00 0.000000000000e+00 0.000000000000e+00 0.000000000000e+00 0.000000000000e+00 0.000000000000e+00 0.000000000000e+00 0.000000000000e+00 -0.000000000000e+00 0.000000000000e+00  0.000000000000e+00
1.783299661019e+01 0.000000000000e+00 0.000000000000e+00 0.000000000000e+00 0.000000000000e+00 0.000000000000e+00 0.000000000000e+00 0.000000000000e+00 0.000000000000e+00 0.000000000000e+00 0.000000000000e+00 -0.000000000000e+00 0.000000000000e+00  0.000000000000e+00
1.795000000000e+01 0.000000000000e+00 0.000000000000e+00 0.000000000000e+00 0.000000000000e+00 0.000000000000e+00 0.000000000000e+00 0.000000000000e+00 0.000000000000e+00 0.000000000000e+00 0.000000000000e+00 -0.000000000000e+00 0.000000000000e+00  0.000000000000e+00
1.804254138498e+01 0.000000000000e+00 0.000000000000e+00 0.000000000000e+00 0.000000000000e+00 0.000000000000e+00 0.000000000000e+00 0.000000000000e+00 0.000000000000e+00 0.000000000000e+00 0.000000000000e+00 -0.000000000000e+00 0.000000000000e+00  0.000000000000e+00
1.815364996904e+01 0.000000000000e+00 0.000000000000e+00 0.000000000000e+00 0.000000000000e+00 0.000000000000e+00 0.000000000000e+00 0.000000000000e+00 0.000000000000e+00 0.000000000000e+00 0.000000000000e+00 -0.000000000000e+00 0.000000000000e+00  0.000000000000e+00
1.828713375894e+01 0.000000000000e+00 0.000000000000e+00 0.000000000000e+00 0.000000000000e+00 0.000000000000e+00 0.000000000000e+00 0.000000000000e+00 0.000000000000e+00 0.000000000000e+00 0.000000000000e+00 -0.000000000000e+00 0.000000000000e+00  0.000000000000e+00
1.844745338488e+01 0.000000000000e+00 0.000000000000e+00 0.000000000000e+00 0.000000000000e+00 0.000000000000e+00 0.000000000000e+00 0.000000000000e+00 0.000000000000e+00 0.000000000000e+00 0.000000000000e+00 -0.000000000000e+00 0.000000000000e+00  0.000000000000e+00
1.864000000000e+01 -1.112038617591e-04 -2.192492574185e-05 -3.323779625497e+05 2.954745067994e+02 -3.337593832567e+07 -1.011249488647e+07 3.632614857016e-04 2.194946741879e-08 -5.829842256658e-04 0.000000000000e+00 1.460693705823e+07 2.939996062659e+07  8.268042282008e-04
1.874000000000e+01 -7.949912530446e-05 -2.194067802149e-05 -2.794828731346e+06 -2.629633880599e+03 -2.870188196877e+07 -9.449013210034e+06 2.471554234229e-04 -1.953441118055e-07 -4.340200232270e-04 0.000000000000e+00 1.364857463672e+07 2.330371832406e+07  5.972685333935e-04
1.898769353236e+01 -3.555679877144e-05 -2.201731941547e-05 -5.110642504547e+06 -4.258454503616e+03 -2.330908414722e+07 -8.525917995530e+06 1.268530895737e-04 -3.163423469172e-07 -2.680024977848e-04 0.000000000000e+00 1.231521488243e+07 1.675394722411e+07  3.491622691932e-04
1.932381291813e+01 -9.362932626593e-06 -2.214106333264e-05 -6.235372367393e+06 -3.970965559268e+03 -1.875140214439e+07 -7.496032353536e+06 4.682451370321e-05 -2.949860673903e-07 -1.369700615579e-04 0.000000000000e+00 1.082760228844e+07 1.193573853433e+07  1.654301980335e-04
1.978000000000e+01 3.497250671183e-06 -2.229711817654e-05 -6.419782119609e+06 -3.031227026084e+03 -1.635737979653e+07 -6.833148574841e+06 1.535361116459e-05 -2.251768735751e-07 -7.267062902800e-05 0.000000000000e+00 9.870103496992e+06 9.737498521405e+06  8.144115909155e-05
2.035000000000e+01 8.278250221756e-06 -2.246106406962e-05 -6.325946100146e+06 -2.225136234615e+03 -1.510396569855e+07 -6.428973539607e+06 3.826733429585e-06 -1.652958762966e-07 -4.112746383751e-05 0.000000000000e+00 9.286295112766e+06 8.726962856235e+06  4.316917858111e-05
2.092000000000e+01 9.416903583542e-06 -2.259652334264e-05 -6.210294172789e+06 -1.718951984774e+03 -1.449859002415e+07 -6.212665259081e+06 8.806886851602e-08 -1.276936244502e-07 -2.667638919390e-05 0.000000000000e+00 8.973849818673e+06 8.287111097446e+06  2.672144780785e-05
2.147260972832e+01 9.265882323720e-06 -2.270743972061e-05 -6.115781227420e+06 -1.387965880040e+03 -1.414515111592e+07 -6.078279703002e+06 -1.392913814845e-06 -1.031060683144e-07 -1.854012182594e-05 0.000000000000e+00 8.779737348780e+06 8.048186538652e+06  1.788528520824e-05
2.213364978348e+01 8.477869177420e-06 -2.282028671541e-05 -6.002935644359e+06 -1.113778133474e+03 -1.389421490653e+07 -5.969145165268e+06 -1.255074966322e-06 -8.273782863605e-08 -1.327320261549e-05 0.000000000000e+00 8.622098572054e+06 7.908228880004e+06  1.269310021871e-05
2.292455210945e+01 7.684039844840e-06 -2.293366759516e-05 -5.936263276208e+06 -8.968536947479e+02 -1.372417011297e+07 -5.898130016752e+06 -1.416378228151e-06 -6.662344030893e-08 -9.594958661074e-06 0.000000000000e+00 8.519521135309e+06 7.807043469110e+06  8.971765962938e-06
2.387037597593e+01 6.644248660929e-06 -2.304619207808e-05 -5.877765274500e+06 -7.152896092959e+02 -1.359630450490e+07 -5.842220933818e+06 -1.320218400545e-06 -5.313582570448e-08 -6.922287715756e-06 0.000000000000e+00 8.438763571071e+06 7.736372740128e+06  6.366363363535e-06
2.500182511592e+01 5.442931817576e-06 -2.315607149936e-05 -5.823058577814e+06 -5.629523767644e+02 -1.350314842974e+07 -5.797862102266e+06 -9.358691238104e-07 -4.181934289572e-08 -5.109818669903e-06 0.000000000000e+00 8.374689703274e+06 7.692719099443e+06  4.712666220632e-06
2.635550397680e+01 4.410696737625e-06 -2.326053955198e-05 -5.791595785618e+06 -4.369607886803e+02 -1.344155799288e+07 -5.769946133550e+06 -8.041299495017e-07 -3.245995935148e-08 -3.859052725873e-06 0.000000000000e+00 8.334366637350e+06 7.660810014152e+06  3.526881624049e-06
2.797459878112e+01 3.315994665607e-06 -2.335623296967e-05 -5.765494735933e+06 -3.217072919365e+02 -1.339617434127e+07 -5.748500723161e+06 -6.312062038728e-07 -2.389826350924e-08 -2.969918056257e-06 0.000000000000e+00 8.303389933455e+06 7.639190808781e+06  2.710335258152e-06
2.991154661369e+01 2.299898205350e-06 -2.343781839107e-05 -5.749729407567e+06 -2.156176324534e+02 -1.336756698470e+07 -5.735188917679e+06 -5.400753594260e-07 -1.601731255778e-08 -2.401797578632e-06 0.000000000000e+00 8.284161769981e+06 7.625118229058e+06  2.182643116714e-06
3.222871140527e+01 1.174531396550e-06 -2.349739723808e-05 -5.738520252146e+06 -1.170584950633e+02 -1.334784302317e+07 -5.725908982594e+06 -4.684186023387e-07 -8.695762668485e-09 -2.013876594989e-06 0.000000000000e+00 8.270757419303e+06 7.615636239960e+06  1.825377910412e-06
3.500000000000e+01 0.000000000000e+00 -2.352165601533e-05 -5.736743909875e+06 -1.004165291590e+01 -1.333982655279e+07 -5.722971138798e+06 -5.115600837713e-07 -7.459484930576e-10 -1.825241899132e-06 0.000000000000e+00 8.266513867153e+06 7.609978375868e+06  1.630791979422e-06
