 TITLE = "Time curves in points"
 VARIABLES = "TIME "  "DISPLACEMENT_X1"  "DISPLACEMENT_Y1"  "STRESS_XX"  "STRESS_XY"  "STRESS_YY"  "STRESS_ZZ"  "STRAIN_XX"  "STRAIN_XY"  "STRAIN_YY"  "STRAIN_PLS"  p_(1st_Invariant)  q_(2nd_Invariant)   Effective_Strain
 ZONE T="POINT=POINT12"
0.000000000000e+00 0.000000000000e+00 0.000000000000e+00 -5.675785713180e+06 1.624538117744e-03 -1.324350000051e+07 -5.675785714108e+06 0.000000000000e+00 0.000000000000e+00 0.000000000000e+00 0.000000000000e+00 8.198357142601e+06 7.567714286870e+06  0.000000000000e+00
2.000000000000e-02 -1.112038617591e-04 -2.192492574185e-05 -3.323779625497e+05 2.954745067994e+02 -3.337593832567e+07 -1.011249488647e+07 3.632614857016e-04 2.194946741879e-08 -5.829842256658e-04 0.000000000000e+00 1.460693705823e+07 2.939996062659e+07  8.268042282008e-04
