 TITLE = "Time curves in points"
 VARIABLES = "TIME "  "DISPLACEMENT_X1"  "DISPLACEMENT_Y1"  "STRESS_XX"  "STRESS_XY"  "STRESS_YY"  "STRESS_ZZ"  "STRAIN_XX"  "STRAIN_XY"  "STRAIN_YY"  "STRAIN_PLS"  p_(1st_Invariant)  q_(2nd_Invariant)   Effective_Strain
 ZONE T="POINT=POINT8"
0.000000000000e+00 0.000000000000e+00 0.000000000000e+00 -5.675785713337e+06 1.181955758983e-04 -1.324350000045e+07 -5.675785714137e+06 0.000000000000e+00 0.000000000000e+00 0.000000000000e+00 0.000000000000e+00 8.198357142642e+06 7.567714286716e+06  0.000000000000e+00
2.000000000000e-02 3.497250671183e-06 -2.229711817654e-05 -6.419782119609e+06 -3.031227026084e+03 -1.635737979653e+07 -6.833148574841e+06 1.535361116459e-05 -2.251768735751e-07 -7.267062902800e-05 0.000000000000e+00 9.870103496992e+06 9.737498521405e+06  8.144115909155e-05
