VARIABLES  = "X","Y","Z", "DISPLACEMENT_X1", "DISPLACEMENT_Y1", "STRESS_XX", "STRESS_XY", "STRESS_YY", "STRESS_ZZ", "STRAIN_XX", "STRAIN_XY", "STRAIN_YY", "STRAIN_PLS"
ZONE T="0.000000000000e+00s", N=1729, E=3152, F=FEPOINT, ET=QUADRILATERAL
STRANDID=1, SOLUTIONTIME=0.000000000000e+00
5.274890831691e-01 3.601931519005e-01 0.000000000000e+00 0.000000000000e+00 0.000000000000e+00 -5.671690177042e+06 9.137396442519e-05 -1.323394374080e+07 -5.671690175352e+06 0.000000000000e+00 0.000000000000e+00 0.000000000000e+00 0.000000000000e+00 
6.601442824766e-01 3.171499013949e-01 0.000000000000e+00 0.000000000000e+00 0.000000000000e+00 -5.672108229138e+06 6.257903739362e-05 -1.323491920402e+07 -5.672108229947e+06 0.000000000000e+00 0.000000000000e+00 0.000000000000e+00 0.000000000000e+00 
6.195223679727e-01 5.109623326886e-01 0.000000000000e+00 0.000000000000e+00 0.000000000000e+00 -5.669982128578e+06 -5.364782469759e-04 -1.322995829037e+07 -5.669982125685e+06 0.000000000000e+00 0.000000000000e+00 0.000000000000e+00 0.000000000000e+00 
0.000000000000e+00 7.871337589362e-01 0.000000000000e+00 0.000000000000e+00 0.000000000000e+00 -5.666803973256e+06 -5.298735097415e-04 -1.322254261027e+07 -5.666803975057e+06 0.000000000000e+00 0.000000000000e+00 0.000000000000e+00 0.000000000000e+00 
2.219892622809e-01 8.842849139646e-01 0.000000000000e+00 0.000000000000e+00 0.000000000000e+00 -5.665735724532e+06 9.434421504356e-05 -1.322005001092e+07 -5.665735720634e+06 0.000000000000e+00 0.000000000000e+00 0.000000000000e+00 0.000000000000e+00 
0.000000000000e+00 9.474533848814e-01 0.000000000000e+00 0.000000000000e+00 0.000000000000e+00 -5.664851584778e+06 -9.119129952586e-04 -1.321798703295e+07 -5.664851585317e+06 0.000000000000e+00 0.000000000000e+00 0.000000000000e+00 0.000000000000e+00 
7.217978663560e-01 4.223464425004e-01 0.000000000000e+00 0.000000000000e+00 0.000000000000e+00 -5.670991419406e+06 2.967982875138e-03 -1.323231331167e+07 -5.670991419322e+06 0.000000000000e+00 0.000000000000e+00 0.000000000000e+00 0.000000000000e+00 
1.462097179408e-01 7.577934371578e-01 0.000000000000e+00 0.000000000000e+00 0.000000000000e+00 -5.667164011982e+06 7.301912591311e-04 -1.322338268416e+07 -5.667164008842e+06 0.000000000000e+00 0.000000000000e+00 0.000000000000e+00 0.000000000000e+00 
2.224029670984e-01 1.118095219660e+00 0.000000000000e+00 0.000000000000e+00 0.000000000000e+00 -5.663059229029e+06 -1.669411878441e-04 -1.321380486086e+07 -5.663059226966e+06 0.000000000000e+00 0.000000000000e+00 0.000000000000e+00 0.000000000000e+00 
2.500066048588e-01 3.741613255361e-01 0.000000000000e+00 0.000000000000e+00 0.000000000000e+00 -5.671499038892e+06 -3.865554600060e-03 -1.323349776227e+07 -5.671499040350e+06 0.000000000000e+00 0.000000000000e+00 0.000000000000e+00 0.000000000000e+00 
2.688279416994e-01 4.984093656919e-01 0.000000000000e+00 0.000000000000e+00 0.000000000000e+00 -5.670105782420e+06 -2.174542597271e-03 -1.323024682263e+07 -5.670105781515e+06 0.000000000000e+00 0.000000000000e+00 0.000000000000e+00 0.000000000000e+00 
1.722075445643e-01 4.157457896301e-01 0.000000000000e+00 0.000000000000e+00 0.000000000000e+00 -5.671082710234e+06 -3.941478553794e-03 -1.323252633935e+07 -5.671082714876e+06 0.000000000000e+00 0.000000000000e+00 0.000000000000e+00 0.000000000000e+00 
8.779064490726e-02 4.413533761815e-01 0.000000000000e+00 0.000000000000e+00 0.000000000000e+00 -5.670707754201e+06 2.118653365282e-03 -1.323165144278e+07 -5.670707759094e+06 0.000000000000e+00 0.000000000000e+00 0.000000000000e+00 0.000000000000e+00 
0.000000000000e+00 5.425413849766e-01 0.000000000000e+00 0.000000000000e+00 0.000000000000e+00 -5.669549354022e+06 1.983367174200e-03 -1.322894848225e+07 -5.669549350880e+06 0.000000000000e+00 0.000000000000e+00 0.000000000000e+00 0.000000000000e+00 
0.000000000000e+00 4.500000000000e-01 0.000000000000e+00 0.000000000000e+00 0.000000000000e+00 -5.670655581388e+06 3.607154342553e-03 -1.323152968196e+07 -5.670655579004e+06 0.000000000000e+00 0.000000000000e+00 0.000000000000e+00 0.000000000000e+00 
5.425413849766e-01 0.000000000000e+00 0.000000000000e+00 0.000000000000e+00 0.000000000000e+00 -5.675785714679e+06 6.798426285736e-04 -1.324350000558e+07 -5.675785716077e+06 0.000000000000e+00 0.000000000000e+00 0.000000000000e+00 0.000000000000e+00 
4.413533761815e-01 8.779064490726e-02 0.000000000000e+00 0.000000000000e+00 0.000000000000e+00 -5.674766278874e+06 4.512709896085e-03 -1.324112132708e+07 -5.674766281785e+06 0.000000000000e+00 0.000000000000e+00 0.000000000000e+00 0.000000000000e+00 
4.500000000000e-01 0.000000000000e+00 0.000000000000e+00 0.000000000000e+00 0.000000000000e+00 -5.675785712231e+06 5.411739621973e-03 -1.324350000700e+07 -5.675785715770e+06 0.000000000000e+00 0.000000000000e+00 0.000000000000e+00 0.000000000000e+00 
5.916341546874e-01 7.351899944897e-01 0.000000000000e+00 0.000000000000e+00 0.000000000000e+00 -5.667542079801e+06 -1.316401581758e-03 -1.322426484565e+07 -5.667542077634e+06 0.000000000000e+00 0.000000000000e+00 0.000000000000e+00 0.000000000000e+00 
4.603340314152e-01 6.378082249701e-01 0.000000000000e+00 0.000000000000e+00 0.000000000000e+00 -5.668657399506e+06 -4.488352353600e-04 -1.322686726205e+07 -5.668657398467e+06 0.000000000000e+00 0.000000000000e+00 0.000000000000e+00 0.000000000000e+00 
3.397056259675e-01 7.310947758343e-01 0.000000000000e+00 0.000000000000e+00 0.000000000000e+00 -5.667533966404e+06 -2.196493521255e-04 -1.322424591917e+07 -5.667533965671e+06 0.000000000000e+00 0.000000000000e+00 0.000000000000e+00 0.000000000000e+00 
4.477276554199e-01 8.510992295494e-01 0.000000000000e+00 0.000000000000e+00 0.000000000000e+00 -5.666190364801e+06 -1.219007978605e-03 -1.322111084552e+07 -5.666190363097e+06 0.000000000000e+00 0.000000000000e+00 0.000000000000e+00 0.000000000000e+00 
6.087594943952e-01 1.830905763997e-01 0.000000000000e+00 0.000000000000e+00 0.000000000000e+00 -5.673699100794e+06 -1.487297049526e-03 -1.323863124449e+07 -5.673699103586e+06 0.000000000000e+00 0.000000000000e+00 0.000000000000e+00 0.000000000000e+00 
5.058400153822e-01 2.440735940061e-01 0.000000000000e+00 0.000000000000e+00 0.000000000000e+00 -5.672979081270e+06 1.280537285895e-03 -1.323695120184e+07 -5.672979084934e+06 0.000000000000e+00 0.000000000000e+00 0.000000000000e+00 0.000000000000e+00 
4.966796411828e-01 4.736556835311e-01 0.000000000000e+00 0.000000000000e+00 0.000000000000e+00 -5.670408980176e+06 -5.408209492777e-04 -1.323095427970e+07 -5.670408977962e+06 0.000000000000e+00 0.000000000000e+00 0.000000000000e+00 0.000000000000e+00 
7.871337589362e-01 0.000000000000e+00 0.000000000000e+00 0.000000000000e+00 0.000000000000e+00 -5.675785713339e+06 4.225406904787e-03 -1.324350000184e+07 -5.675785714555e+06 0.000000000000e+00 0.000000000000e+00 0.000000000000e+00 0.000000000000e+00 
9.416232473704e-01 1.624304614484e-01 0.000000000000e+00 0.000000000000e+00 0.000000000000e+00 -5.673868615525e+06 4.063631397739e-03 -1.323902677147e+07 -5.673868616098e+06 0.000000000000e+00 0.000000000000e+00 0.000000000000e+00 0.000000000000e+00 
7.641358949221e-01 1.778493288416e-01 0.000000000000e+00 0.000000000000e+00 0.000000000000e+00 -5.673752632641e+06 4.705146825338e-03 -1.323875614488e+07 -5.673752633255e+06 0.000000000000e+00 0.000000000000e+00 0.000000000000e+00 0.000000000000e+00 
9.474533848814e-01 0.000000000000e+00 0.000000000000e+00 0.000000000000e+00 0.000000000000e+00 -5.675785712228e+06 4.718973480157e-03 -1.324349999856e+07 -5.675785713236e+06 0.000000000000e+00 0.000000000000e+00 0.000000000000e+00 0.000000000000e+00 
4.362591128962e-01 1.053222667063e+00 0.000000000000e+00 0.000000000000e+00 0.000000000000e+00 -5.663851890742e+06 -1.601441854245e-03 -1.321565440327e+07 -5.663851888203e+06 0.000000000000e+00 0.000000000000e+00 0.000000000000e+00 0.000000000000e+00 
9.855490035665e-02 5.552253179019e-01 0.000000000000e+00 0.000000000000e+00 0.000000000000e+00 -5.669396116357e+06 -8.828111556121e-04 -1.322859094627e+07 -5.669396118788e+06 0.000000000000e+00 0.000000000000e+00 0.000000000000e+00 0.000000000000e+00 
5.567521161807e-01 9.623733361308e-02 0.000000000000e+00 0.000000000000e+00 0.000000000000e+00 -5.674644836733e+06 -3.895836569833e-03 -1.324083796373e+07 -5.674644840139e+06 0.000000000000e+00 0.000000000000e+00 0.000000000000e+00 0.000000000000e+00 
4.157457896301e-01 1.722075445643e-01 0.000000000000e+00 0.000000000000e+00 0.000000000000e+00 -5.673836754404e+06 3.172889301722e-03 -1.323895243118e+07 -5.673836755676e+06 0.000000000000e+00 0.000000000000e+00 0.000000000000e+00 0.000000000000e+00 
3.741613255361e-01 2.500066048588e-01 0.000000000000e+00 0.000000000000e+00 0.000000000000e+00 -5.672951124459e+06 2.255880370919e-03 -1.323688594965e+07 -5.672951122232e+06 0.000000000000e+00 0.000000000000e+00 0.000000000000e+00 0.000000000000e+00 
8.171541746504e-01 4.985615746079e-01 0.000000000000e+00 0.000000000000e+00 0.000000000000e+00 -5.670205574660e+06 5.615740244619e-03 -1.323047967712e+07 -5.670205575534e+06 0.000000000000e+00 0.000000000000e+00 0.000000000000e+00 0.000000000000e+00 
9.545126062423e-01 3.258526016114e-01 0.000000000000e+00 0.000000000000e+00 0.000000000000e+00 -5.672086775746e+06 4.162119367106e-03 -1.323486914418e+07 -5.672086775978e+06 0.000000000000e+00 0.000000000000e+00 0.000000000000e+00 0.000000000000e+00 
1.053222667063e+00 4.362591128962e-01 0.000000000000e+00 0.000000000000e+00 0.000000000000e+00 -5.670810363760e+06 2.268827783529e-03 -1.323189085269e+07 -5.670810364936e+06 0.000000000000e+00 0.000000000000e+00 0.000000000000e+00 0.000000000000e+00 
1.738881707763e-01 5.029960597197e-01 0.000000000000e+00 0.000000000000e+00 0.000000000000e+00 -5.670075916081e+06 -3.373206272710e-03 -1.323017715256e+07 -5.670075920592e+06 0.000000000000e+00 0.000000000000e+00 0.000000000000e+00 0.000000000000e+00 
7.385551708030e-01 6.511055808615e-01 0.000000000000e+00 0.000000000000e+00 0.000000000000e+00 -5.668394646383e+06 9.533488670863e-04 -1.322625416786e+07 -5.668394644273e+06 0.000000000000e+00 0.000000000000e+00 0.000000000000e+00 0.000000000000e+00 
0.000000000000e+00 1.140000000000e+00 0.000000000000e+00 0.000000000000e+00 0.000000000000e+00 -5.662701493195e+06 -6.102356867684e-04 -1.321297014744e+07 -5.662701492192e+06 0.000000000000e+00 0.000000000000e+00 0.000000000000e+00 0.000000000000e+00 
4.367444702627e-01 3.112762776229e-01 0.000000000000e+00 0.000000000000e+00 0.000000000000e+00 -5.672252240974e+06 3.182653570887e-03 -1.323525522191e+07 -5.672252238864e+06 0.000000000000e+00 0.000000000000e+00 0.000000000000e+00 0.000000000000e+00 
3.181980515339e-01 3.181980515339e-01 0.000000000000e+00 0.000000000000e+00 0.000000000000e+00 -5.672174664159e+06 -8.281792274759e-04 -1.323507421061e+07 -5.672174662432e+06 0.000000000000e+00 0.000000000000e+00 0.000000000000e+00 0.000000000000e+00 
4.171770108882e-01 3.968810810960e-01 0.000000000000e+00 0.000000000000e+00 0.000000000000e+00 -5.671274602310e+06 5.648496864923e-04 -1.323297405602e+07 -5.671274597499e+06 0.000000000000e+00 0.000000000000e+00 0.000000000000e+00 0.000000000000e+00 
8.130069997139e-01 3.300269882479e-01 0.000000000000e+00 0.000000000000e+00 0.000000000000e+00 -5.672015655143e+06 5.114139762197e-03 -1.323470319999e+07 -5.672015656540e+06 0.000000000000e+00 0.000000000000e+00 0.000000000000e+00 0.000000000000e+00 
2.302046756190e-01 7.019914859149e-01 0.000000000000e+00 0.000000000000e+00 0.000000000000e+00 -5.667817009374e+06 1.867499507362e-03 -1.322490634867e+07 -5.667817007412e+06 0.000000000000e+00 0.000000000000e+00 0.000000000000e+00 0.000000000000e+00 
3.281978317700e-01 4.243957902718e-01 0.000000000000e+00 0.000000000000e+00 0.000000000000e+00 -5.670968159324e+06 -6.864692219224e-04 -1.323225902795e+07 -5.670968156181e+06 0.000000000000e+00 0.000000000000e+00 0.000000000000e+00 0.000000000000e+00 
6.333500656423e-01 9.478753580249e-01 0.000000000000e+00 0.000000000000e+00 0.000000000000e+00 -5.665083051708e+06 -1.737008269888e-03 -1.321852711914e+07 -5.665083051256e+06 0.000000000000e+00 0.000000000000e+00 0.000000000000e+00 0.000000000000e+00 
8.061017305527e-01 8.061017305527e-01 0.000000000000e+00 0.000000000000e+00 0.000000000000e+00 -5.666638726100e+06 1.360479867414e-03 -1.322215702484e+07 -5.666638725282e+06 0.000000000000e+00 0.000000000000e+00 0.000000000000e+00 0.000000000000e+00 
3.956911463744e-01 5.124636225679e-01 0.000000000000e+00 0.000000000000e+00 0.000000000000e+00 -5.669978202478e+06 -3.150969513800e-04 -1.322994913338e+07 -5.669978200757e+06 0.000000000000e+00 0.000000000000e+00 0.000000000000e+00 0.000000000000e+00 
9.478753580249e-01 6.333500656423e-01 0.000000000000e+00 0.000000000000e+00 0.000000000000e+00 -5.668581477835e+06 4.395758152063e-03 -1.322669012117e+07 -5.668581479703e+06 0.000000000000e+00 0.000000000000e+00 0.000000000000e+00 0.000000000000e+00 
6.536499690359e-01 0.000000000000e+00 0.000000000000e+00 0.000000000000e+00 0.000000000000e+00 -5.675785711599e+06 -5.218231328750e-04 -1.324350000473e+07 -5.675785714899e+06 0.000000000000e+00 0.000000000000e+00 0.000000000000e+00 0.000000000000e+00 
6.796849806491e-01 9.903948014293e-02 0.000000000000e+00 0.000000000000e+00 0.000000000000e+00 -5.674661460213e+06 2.083330650507e-03 -1.324087674722e+07 -5.674661462230e+06 0.000000000000e+00 0.000000000000e+00 0.000000000000e+00 0.000000000000e+00 
0.000000000000e+00 6.536499690359e-01 0.000000000000e+00 0.000000000000e+00 0.000000000000e+00 -5.668277817024e+06 8.385979470218e-06 -1.322598157085e+07 -5.668277816362e+06 0.000000000000e+00 0.000000000000e+00 0.000000000000e+00 0.000000000000e+00 
1.073908802677e-01 6.708041116246e-01 0.000000000000e+00 0.000000000000e+00 0.000000000000e+00 -5.668110220347e+06 -6.266236342727e-04 -1.322559051079e+07 -5.668110219342e+06 0.000000000000e+00 0.000000000000e+00 0.000000000000e+00 0.000000000000e+00 
1.140000000000e+00 0.000000000000e+00 0.000000000000e+00 0.000000000000e+00 0.000000000000e+00 -5.675785713180e+06 1.624538117744e-03 -1.324350000051e+07 -5.675785714108e+06 0.000000000000e+00 0.000000000000e+00 0.000000000000e+00 0.000000000000e+00 
1.118095219660e+00 2.224029670984e-01 0.000000000000e+00 0.000000000000e+00 0.000000000000e+00 -5.673183780452e+06 1.445413856269e-03 -1.323742882443e+07 -5.673183781464e+06 0.000000000000e+00 0.000000000000e+00 0.000000000000e+00 0.000000000000e+00 
3.237018493841e-01 6.084057693700e-01 0.000000000000e+00 0.000000000000e+00 0.000000000000e+00 -5.668892404171e+06 6.077499911209e-05 -1.322741561023e+07 -5.668892404320e+06 0.000000000000e+00 0.000000000000e+00 0.000000000000e+00 0.000000000000e+00 
1.943668820947e-01 5.961168951400e-01 0.000000000000e+00 0.000000000000e+00 0.000000000000e+00 -5.668991278715e+06 3.486616266357e-04 -1.322764631935e+07 -5.668991279419e+06 0.000000000000e+00 0.000000000000e+00 0.000000000000e+00 0.000000000000e+00 
4.991830586611e-01 1.592358963502e-01 0.000000000000e+00 0.000000000000e+00 0.000000000000e+00 -5.673978133145e+06 2.280641843469e-03 -1.323928232771e+07 -5.673978138258e+06 0.000000000000e+00 0.000000000000e+00 0.000000000000e+00 0.000000000000e+00 
2.153237403070e-01 1.221161613735e+00 0.000000000000e+00 0.000000000000e+00 0.000000000000e+00 -5.661793899596e+06 3.537368048052e-04 -1.321085243236e+07 -5.661793899586e+06 0.000000000000e+00 0.000000000000e+00 0.000000000000e+00 0.000000000000e+00 
1.221161613735e+00 2.153237403070e-01 0.000000000000e+00 0.000000000000e+00 0.000000000000e+00 -5.673166072953e+06 -1.303037983781e-03 -1.323738751017e+07 -5.673166074936e+06 0.000000000000e+00 0.000000000000e+00 0.000000000000e+00 0.000000000000e+00 
0.000000000000e+00 1.240000000000e+00 0.000000000000e+00 0.000000000000e+00 0.000000000000e+00 -5.661472705013e+06 -6.404584246610e-04 -1.321010297209e+07 -5.661472703131e+06 0.000000000000e+00 0.000000000000e+00 0.000000000000e+00 0.000000000000e+00 
1.240000000000e+00 0.000000000000e+00 0.000000000000e+00 0.000000000000e+00 0.000000000000e+00 -5.675785712072e+06 -1.606293865514e-03 -1.324350000123e+07 -5.675785713989e+06 0.000000000000e+00 0.000000000000e+00 0.000000000000e+00 0.000000000000e+00 
1.165218849775e+00 4.241049777238e-01 0.000000000000e+00 0.000000000000e+00 0.000000000000e+00 -5.670837758246e+06 3.667776256025e-04 -1.323195477602e+07 -5.670837760279e+06 0.000000000000e+00 0.000000000000e+00 0.000000000000e+00 0.000000000000e+00 
4.241049777238e-01 1.165218849775e+00 0.000000000000e+00 0.000000000000e+00 0.000000000000e+00 -5.662418401488e+06 -2.285584174438e-03 -1.321230959780e+07 -5.662418399787e+06 0.000000000000e+00 0.000000000000e+00 0.000000000000e+00 0.000000000000e+00 
6.200000000000e-01 1.073871500693e+00 0.000000000000e+00 0.000000000000e+00 0.000000000000e+00 -5.663396864602e+06 -1.620009326117e-03 -1.321459267938e+07 -5.663396863195e+06 0.000000000000e+00 0.000000000000e+00 0.000000000000e+00 0.000000000000e+00 
1.073871500693e+00 6.200000000000e-01 0.000000000000e+00 0.000000000000e+00 0.000000000000e+00 -5.668559431701e+06 1.413216573086e-03 -1.322663868005e+07 -5.668559433526e+06 0.000000000000e+00 0.000000000000e+00 0.000000000000e+00 0.000000000000e+00 
9.498951094675e-01 7.970566360113e-01 0.000000000000e+00 0.000000000000e+00 0.000000000000e+00 -5.666522389332e+06 2.949021013143e-03 -1.322188557781e+07 -5.666522390142e+06 0.000000000000e+00 0.000000000000e+00 0.000000000000e+00 0.000000000000e+00 
7.970566360113e-01 9.498951094675e-01 0.000000000000e+00 0.000000000000e+00 0.000000000000e+00 -5.664837180496e+06 -2.276149947535e-04 -1.321795341513e+07 -5.664837178688e+06 0.000000000000e+00 0.000000000000e+00 0.000000000000e+00 0.000000000000e+00 
9.126820546328e-01 2.823015424662e+00 0.000000000000e+00 0.000000000000e+00 0.000000000000e+00 -5.643866403673e+06 -6.594877481246e-04 -1.316902160562e+07 -5.643866402788e+06 0.000000000000e+00 0.000000000000e+00 0.000000000000e+00 0.000000000000e+00 
1.465104840998e+00 2.436551828030e+00 0.000000000000e+00 0.000000000000e+00 0.000000000000e+00 -5.648038518150e+06 -4.392809122154e-04 -1.317875653878e+07 -5.648038517079e+06 0.000000000000e+00 0.000000000000e+00 0.000000000000e+00 0.000000000000e+00 
1.422681175982e+00 3.256557742335e+00 0.000000000000e+00 0.000000000000e+00 0.000000000000e+00 -5.638589139794e+06 -3.483969701054e-04 -1.315670799080e+07 -5.638589139179e+06 0.000000000000e+00 0.000000000000e+00 0.000000000000e+00 0.000000000000e+00 
4.830946886447e-01 1.653095271723e+00 0.000000000000e+00 0.000000000000e+00 0.000000000000e+00 -5.657099073347e+06 -1.995857924562e-03 -1.319989783751e+07 -5.657099073256e+06 0.000000000000e+00 0.000000000000e+00 0.000000000000e+00 0.000000000000e+00 
9.070975749545e-01 1.456406576746e+00 0.000000000000e+00 0.000000000000e+00 0.000000000000e+00 -5.659516900143e+06 -3.448318909614e-06 -1.320553942761e+07 -5.659516898325e+06 0.000000000000e+00 0.000000000000e+00 0.000000000000e+00 0.000000000000e+00 
9.769180272609e-01 1.917342174029e+00 0.000000000000e+00 0.000000000000e+00 0.000000000000e+00 -5.653983191171e+06 -6.340147424160e-04 -1.319262744336e+07 -5.653983190359e+06 0.000000000000e+00 0.000000000000e+00 0.000000000000e+00 0.000000000000e+00 
4.888451572198e+00 1.654973103015e+00 0.000000000000e+00 0.000000000000e+00 0.000000000000e+00 -5.657367618560e+06 4.544113705332e-04 -1.320052444562e+07 -5.657367619253e+06 0.000000000000e+00 0.000000000000e+00 0.000000000000e+00 0.000000000000e+00 
5.744718117337e+00 1.046974635846e+00 0.000000000000e+00 0.000000000000e+00 0.000000000000e+00 -5.664519244314e+06 2.876810707925e-04 -1.321721157273e+07 -5.664519245113e+06 0.000000000000e+00 0.000000000000e+00 0.000000000000e+00 0.000000000000e+00 
5.815248921403e+00 2.743861934776e+00 0.000000000000e+00 0.000000000000e+00 0.000000000000e+00 -5.644645561978e+06 3.939006572840e-04 -1.317083964523e+07 -5.644645562163e+06 0.000000000000e+00 0.000000000000e+00 0.000000000000e+00 0.000000000000e+00 
0.000000000000e+00 5.428028782210e+00 0.000000000000e+00 0.000000000000e+00 0.000000000000e+00 -5.613687394359e+06 -5.517050788202e-04 -1.309860391925e+07 -5.613687394083e+06 0.000000000000e+00 0.000000000000e+00 0.000000000000e+00 0.000000000000e+00 
1.173319728299e+00 5.801563455476e+00 0.000000000000e+00 0.000000000000e+00 0.000000000000e+00 -5.609671988124e+06 -2.164812577774e-04 -1.308923463861e+07 -5.609671988021e+06 0.000000000000e+00 0.000000000000e+00 0.000000000000e+00 0.000000000000e+00 
0.000000000000e+00 6.278086851761e+00 0.000000000000e+00 0.000000000000e+00 0.000000000000e+00 -5.603616805487e+06 -5.697121015687e-04 -1.307510587807e+07 -5.603616805067e+06 0.000000000000e+00 0.000000000000e+00 0.000000000000e+00 0.000000000000e+00 
2.558112980483e+00 4.012140364017e+00 0.000000000000e+00 0.000000000000e+00 0.000000000000e+00 -5.630357348261e+06 -2.334854398498e-04 -1.313750047645e+07 -5.630357347413e+06 0.000000000000e+00 0.000000000000e+00 0.000000000000e+00 0.000000000000e+00 
1.740539943909e+00 3.985668263965e+00 0.000000000000e+00 0.000000000000e+00 0.000000000000e+00 -5.630542116762e+06 -3.988010657699e-05 -1.313793160395e+07 -5.630542116215e+06 0.000000000000e+00 0.000000000000e+00 0.000000000000e+00 0.000000000000e+00 
2.173879176485e+00 2.953956310327e+00 0.000000000000e+00 0.000000000000e+00 0.000000000000e+00 -5.642108280569e+06 -6.089213001347e-05 -1.316491931813e+07 -5.642108279610e+06 0.000000000000e+00 0.000000000000e+00 0.000000000000e+00 0.000000000000e+00 
6.834535249966e+00 1.500115342452e+00 0.000000000000e+00 0.000000000000e+00 0.000000000000e+00 -5.658522361141e+06 4.300559625868e-04 -1.320321884420e+07 -5.658522361604e+06 0.000000000000e+00 0.000000000000e+00 0.000000000000e+00 0.000000000000e+00 
2.312125944166e+00 5.124225865783e+00 0.000000000000e+00 0.000000000000e+00 0.000000000000e+00 -5.617525771478e+06 -5.524249149293e-04 -1.310756013242e+07 -5.617525771170e+06 0.000000000000e+00 0.000000000000e+00 0.000000000000e+00 0.000000000000e+00 
1.235648593543e+00 4.623666072542e+00 0.000000000000e+00 0.000000000000e+00 0.000000000000e+00 -5.623573041914e+06 -4.097246343249e-04 -1.312167043081e+07 -5.623573041817e+06 0.000000000000e+00 0.000000000000e+00 0.000000000000e+00 0.000000000000e+00 
9.644492689762e-01 3.255362372319e+00 0.000000000000e+00 0.000000000000e+00 0.000000000000e+00 -5.638832236590e+06 -6.405699955512e-04 -1.315727521619e+07 -5.638832235834e+06 0.000000000000e+00 0.000000000000e+00 0.000000000000e+00 0.000000000000e+00 
4.833868992114e+00 8.748937999735e+00 0.000000000000e+00 0.000000000000e+00 0.000000000000e+00 -5.576487778114e+06 -3.965566746061e-04 -1.301180481434e+07 -5.576487777737e+06 0.000000000000e+00 0.000000000000e+00 0.000000000000e+00 0.000000000000e+00 
3.380756637548e+00 8.933812247663e+00 0.000000000000e+00 0.000000000000e+00 0.000000000000e+00 -5.574372906767e+06 -4.645409694972e-04 -1.300687011476e+07 -5.574372906459e+06 0.000000000000e+00 0.000000000000e+00 0.000000000000e+00 0.000000000000e+00 
3.967502998825e+00 7.050894084890e+00 0.000000000000e+00 0.000000000000e+00 0.000000000000e+00 -5.595640085330e+06 -4.342824621997e-04 -1.305649353103e+07 -5.595640084909e+06 0.000000000000e+00 0.000000000000e+00 0.000000000000e+00 0.000000000000e+00 
2.842422947327e+00 7.484243079138e+00 0.000000000000e+00 0.000000000000e+00 0.000000000000e+00 -5.590151988231e+06 -4.225646275199e-04 -1.304368797217e+07 -5.590151988121e+06 0.000000000000e+00 0.000000000000e+00 0.000000000000e+00 0.000000000000e+00 
1.359733883415e+00 1.423334678283e+00 0.000000000000e+00 0.000000000000e+00 0.000000000000e+00 -5.659587650073e+06 2.818592047793e-05 -1.320570451646e+07 -5.659587649961e+06 0.000000000000e+00 0.000000000000e+00 0.000000000000e+00 0.000000000000e+00 
1.589643723422e+00 1.873186873279e+00 0.000000000000e+00 0.000000000000e+00 0.000000000000e+00 -5.654447342097e+06 -1.500322302292e-04 -1.319371046215e+07 -5.654447341275e+06 0.000000000000e+00 0.000000000000e+00 0.000000000000e+00 0.000000000000e+00 
3.305634118726e+00 1.437817075962e+00 0.000000000000e+00 0.000000000000e+00 0.000000000000e+00 -5.659270503841e+06 1.339804224652e-04 -1.320496450861e+07 -5.659270503735e+06 0.000000000000e+00 0.000000000000e+00 0.000000000000e+00 0.000000000000e+00 
2.476827672014e+00 1.473701957247e+00 0.000000000000e+00 0.000000000000e+00 0.000000000000e+00 -5.659160323203e+06 5.677576649858e-04 -1.320470742140e+07 -5.659160323381e+06 0.000000000000e+00 0.000000000000e+00 0.000000000000e+00 0.000000000000e+00 
2.823476133693e+00 8.762389950237e-01 0.000000000000e+00 0.000000000000e+00 0.000000000000e+00 -5.666025542466e+06 5.853320262007e-04 -1.322072626589e+07 -5.666025542508e+06 0.000000000000e+00 0.000000000000e+00 0.000000000000e+00 0.000000000000e+00 
1.911064785850e+00 8.726435894487e-01 0.000000000000e+00 0.000000000000e+00 0.000000000000e+00 -5.665612929982e+06 5.900875407963e-04 -1.321976350696e+07 -5.665612931083e+06 0.000000000000e+00 0.000000000000e+00 0.000000000000e+00 0.000000000000e+00 
1.480658185310e+00 9.441705426826e-01 0.000000000000e+00 0.000000000000e+00 0.000000000000e+00 -5.665167371107e+06 2.884756180371e-05 -1.321872386709e+07 -5.665167371460e+06 0.000000000000e+00 0.000000000000e+00 0.000000000000e+00 0.000000000000e+00 
1.660663097753e+00 4.793189421322e-01 0.000000000000e+00 0.000000000000e+00 0.000000000000e+00 -5.670425922022e+06 1.011714453904e-03 -1.323099382107e+07 -5.670425922929e+06 0.000000000000e+00 0.000000000000e+00 0.000000000000e+00 0.000000000000e+00 
0.000000000000e+00 3.420000000000e+00 0.000000000000e+00 0.000000000000e+00 0.000000000000e+00 -5.636547450487e+06 -4.789764264225e-04 -1.315194405336e+07 -5.636547451154e+06 0.000000000000e+00 0.000000000000e+00 0.000000000000e+00 0.000000000000e+00 
7.964725740007e-01 3.746583986747e+00 0.000000000000e+00 0.000000000000e+00 0.000000000000e+00 -5.633022905129e+06 -9.188874732338e-04 -1.314372011176e+07 -5.633022905067e+06 0.000000000000e+00 0.000000000000e+00 0.000000000000e+00 0.000000000000e+00 
0.000000000000e+00 4.009542446487e+00 0.000000000000e+00 0.000000000000e+00 0.000000000000e+00 -5.629631985264e+06 -3.652779052641e-05 -1.313580796815e+07 -5.629631986024e+06 0.000000000000e+00 0.000000000000e+00 0.000000000000e+00 0.000000000000e+00 
6.704045013900e+00 7.961841063371e+00 0.000000000000e+00 0.000000000000e+00 0.000000000000e+00 -5.585091026500e+06 -1.529700150158e-04 -1.303187906065e+07 -5.585091026146e+06 0.000000000000e+00 0.000000000000e+00 0.000000000000e+00 0.000000000000e+00 
8.787859058236e+00 9.331273264579e+00 0.000000000000e+00 0.000000000000e+00 0.000000000000e+00 -5.569861099618e+06 -5.757213616099e-05 -1.299634256474e+07 -5.569861099308e+06 0.000000000000e+00 0.000000000000e+00 0.000000000000e+00 0.000000000000e+00 
7.294934425517e+00 1.032749884486e+01 0.000000000000e+00 0.000000000000e+00 0.000000000000e+00 -5.558272701496e+06 -3.127435839977e-04 -1.296930296891e+07 -5.558272701122e+06 0.000000000000e+00 0.000000000000e+00 0.000000000000e+00 0.000000000000e+00 
9.374625952803e-01 2.376430442774e+00 0.000000000000e+00 0.000000000000e+00 0.000000000000e+00 -5.648809494492e+06 -5.132842157005e-04 -1.318055548540e+07 -5.648809493967e+06 0.000000000000e+00 0.000000000000e+00 0.000000000000e+00 0.000000000000e+00 
4.667604276772e-01 2.102745086855e+00 0.000000000000e+00 0.000000000000e+00 0.000000000000e+00 -5.651561075593e+06 -1.145106534523e-03 -1.318697584273e+07 -5.651561075498e+06 0.000000000000e+00 0.000000000000e+00 0.000000000000e+00 0.000000000000e+00 
6.053877643748e-01 1.361938885461e+00 0.000000000000e+00 0.000000000000e+00 0.000000000000e+00 -5.660385001404e+06 -2.350700059582e-03 -1.320756499754e+07 -5.660384999684e+06 0.000000000000e+00 0.000000000000e+00 0.000000000000e+00 0.000000000000e+00 
2.942602954648e+00 2.220914616281e+00 0.000000000000e+00 0.000000000000e+00 0.000000000000e+00 -5.649991219665e+06 4.642909543296e-04 -1.318331284557e+07 -5.649991219572e+06 0.000000000000e+00 0.000000000000e+00 0.000000000000e+00 0.000000000000e+00 
4.482358406394e+00 2.869215699304e+00 0.000000000000e+00 0.000000000000e+00 0.000000000000e+00 -5.643595838761e+06 2.128493658333e-04 -1.316839029120e+07 -5.643595838988e+06 0.000000000000e+00 0.000000000000e+00 0.000000000000e+00 0.000000000000e+00 
4.633649783484e+00 0.000000000000e+00 0.000000000000e+00 0.000000000000e+00 0.000000000000e+00 -5.675785713325e+06 3.289342965375e-04 -1.324350000033e+07 -5.675785714097e+06 0.000000000000e+00 0.000000000000e+00 0.000000000000e+00 0.000000000000e+00 
4.163379759845e+00 9.557854181675e-01 0.000000000000e+00 0.000000000000e+00 0.000000000000e+00 -5.664788842915e+06 5.816304977642e-04 -1.321784063535e+07 -5.664788843480e+06 0.000000000000e+00 0.000000000000e+00 0.000000000000e+00 0.000000000000e+00 
3.972609728322e+00 0.000000000000e+00 0.000000000000e+00 0.000000000000e+00 0.000000000000e+00 -5.675785712735e+06 4.241926261872e-04 -1.324350000094e+07 -5.675785714101e+06 0.000000000000e+00 0.000000000000e+00 0.000000000000e+00 0.000000000000e+00 
8.812823687237e+00 7.720887913704e+00 0.000000000000e+00 0.000000000000e+00 0.000000000000e+00 -5.588933210204e+06 1.599514013049e-04 -1.304084415693e+07 -5.588933210141e+06 0.000000000000e+00 0.000000000000e+00 0.000000000000e+00 0.000000000000e+00 
1.474449693823e+01 8.667093029504e+00 0.000000000000e+00 0.000000000000e+00 0.000000000000e+00 -5.579542311734e+06 -1.292146589157e-05 -1.301893206058e+07 -5.579542311694e+06 0.000000000000e+00 0.000000000000e+00 0.000000000000e+00 0.000000000000e+00 
1.267928763497e+01 7.280291238065e+00 0.000000000000e+00 0.000000000000e+00 0.000000000000e+00 -5.592317317174e+06 5.527040274886e-05 -1.304874040705e+07 -5.592317317266e+06 0.000000000000e+00 0.000000000000e+00 0.000000000000e+00 0.000000000000e+00 
1.523262243528e+01 5.446667986122e+00 0.000000000000e+00 0.000000000000e+00 0.000000000000e+00 -5.615900676739e+06 -1.042149954889e-05 -1.310376824604e+07 -5.615900676833e+06 0.000000000000e+00 0.000000000000e+00 0.000000000000e+00 0.000000000000e+00 