 TITLE = "Time curves in points"
 VARIABLES = "TIME "  "DISPLACEMENT_X1"  "DISPLACEMENT_Y1"  "STRESS_XX"  "STRESS_XY"  "STRESS_YY"  "STRESS_ZZ"  "STRAIN_XX"  "STRAIN_XY"  "STRAIN_YY"  "STRAIN_PLS"  p_(1st_Invariant)  q_(2nd_Invariant)   Effective_Strain
 ZONE T="POINT=POINT10"
0.000000000000e+00 0.000000000000e+00 0.000000000000e+00 -5.649383288214e+06 -1.153591111525e-04 -1.318189433750e+07 -5.649383287713e+06 0.000000000000e+00 0.000000000000e+00 0.000000000000e+00 0.000000000000e+00 8.160220304475e+06 7.532511049534e+06  0.000000000000e+00
2.000000000000e-02 -5.417429690562e-12 -4.256400215800e-04 -7.318895447061e+06 1.297906863329e-02 -7.926342239594e+06 -4.573571305997e+06 -1.019691823638e-04 9.727289192110e-13 1.552474900298e-04 0.000000000000e+00 6.606269664217e+06 3.094096732364e+06  2.243433906646e-04
