 TITLE = "Time curves in points"
 VARIABLES = "TIME "  "DISPLACEMENT_X1"  "DISPLACEMENT_Y1"  "STRESS_XX"  "STRESS_XY"  "STRESS_YY"  "STRESS_ZZ"  "STRAIN_XX"  "STRAIN_XY"  "STRAIN_YY"  "STRAIN_PLS"  p_(1st_Invariant)  q_(2nd_Invariant)   Effective_Strain
 ZONE T="POINT=POINT13"
0.000000000000e+00 0.000000000000e+00 0.000000000000e+00 -5.675785712679e+06 6.520552023954e-04 -1.324350000082e+07 -5.675785714049e+06 0.000000000000e+00 0.000000000000e+00 0.000000000000e+00 0.000000000000e+00 8.198357142516e+06 7.567714287455e+06  0.000000000000e+00
2.000000000000e-02 9.416903583542e-06 -2.259652334264e-05 -6.210294172789e+06 -1.718951984774e+03 -1.449859002415e+07 -6.212665259081e+06 8.806886851602e-08 -1.276936244502e-07 -2.667638919390e-05 0.000000000000e+00 8.973849818673e+06 8.287111097446e+06  2.672144780785e-05
