 TITLE = "Profiles along polylines"
 VARIABLES = "DIST" "DISPLACEMENT_X1" "DISPLACEMENT_Y1" "STRESS_XX" "STRESS_XY" "STRESS_YY" "STRESS_ZZ" "STRAIN_XX" "STRAIN_XY" "STRAIN_YY" "STRAIN_PLS"  p_(1st_Invariant)  q_(2nd_Invariant)   Effective_Strain
 ZONE T="TIME=0.000000000000e+00"
0.000000000000e+00 0.000000000000e+00 0.000000000000e+00 -1.134365859631e+07 2.337485152519e-07 -2.646853672472e+07 -1.134365859631e+07 0.000000000000e+00 0.000000000000e+00 0.000000000000e+00 0.000000000000e+00 1.638528463911e+07 1.512487812841e+07  0.000000000000e+00
7.070220833141e+00 0.000000000000e+00 0.000000000000e+00 -1.126604286933e+07 -1.209887382662e-06 -2.628743336177e+07 -1.126604286933e+07 0.000000000000e+00 0.000000000000e+00 0.000000000000e+00 0.000000000000e+00 1.627317303347e+07 1.502139049244e+07  0.000000000000e+00
1.414774882844e+01 0.000000000000e+00 0.000000000000e+00 -1.118426850700e+07 -3.963361274975e-07 -2.609662651633e+07 -1.118426850700e+07 0.000000000000e+00 0.000000000000e+00 0.000000000000e+00 0.000000000000e+00 1.615505451011e+07 1.491235800933e+07  0.000000000000e+00
2.124946316189e+01 0.000000000000e+00 0.000000000000e+00 -1.110589528848e+07 6.721010967321e-07 -2.591375567310e+07 -1.110589528847e+07 0.000000000000e+00 0.000000000000e+00 0.000000000000e+00 0.000000000000e+00 1.604184875002e+07 1.480786038463e+07  0.000000000000e+00
2.836603873868e+01 0.000000000000e+00 0.000000000000e+00 -1.102284878035e+07 -6.428299547463e-07 -2.571998048747e+07 -1.102284878035e+07 0.000000000000e+00 0.000000000000e+00 0.000000000000e+00 0.000000000000e+00 1.592189268272e+07 1.469713170712e+07  0.000000000000e+00
3.549924657106e+01 0.000000000000e+00 0.000000000000e+00 -1.094412870443e+07 -8.717286634052e-07 -2.553630031033e+07 -1.094412870443e+07 0.000000000000e+00 0.000000000000e+00 0.000000000000e+00 0.000000000000e+00 1.580818590640e+07 1.459217160590e+07  0.000000000000e+00
4.265511446664e+01 0.000000000000e+00 0.000000000000e+00 -1.086060445401e+07 -3.791139929884e-06 -2.534141039268e+07 -1.086060445401e+07 0.000000000000e+00 0.000000000000e+00 0.000000000000e+00 0.000000000000e+00 1.568753976690e+07 1.448080593867e+07  0.000000000000e+00
4.981981579660e+01 0.000000000000e+00 0.000000000000e+00 -1.078152199885e+07 -3.183175878334e-06 -2.515688466397e+07 -1.078152199884e+07 0.000000000000e+00 0.000000000000e+00 0.000000000000e+00 0.000000000000e+00 1.557330955389e+07 1.437536266512e+07  0.000000000000e+00
5.701521859668e+01 0.000000000000e+00 0.000000000000e+00 -1.069756261695e+07 -6.296944284258e-07 -2.496097943958e+07 -1.069756261696e+07 0.000000000000e+00 0.000000000000e+00 0.000000000000e+00 0.000000000000e+00 1.545203489116e+07 1.426341682262e+07  0.000000000000e+00
6.421890326873e+01 0.000000000000e+00 0.000000000000e+00 -1.061806551722e+07 4.710951106302e-07 -2.477548620688e+07 -1.061806551723e+07 0.000000000000e+00 0.000000000000e+00 0.000000000000e+00 0.000000000000e+00 1.533720574711e+07 1.415742068965e+07  0.000000000000e+00
7.144659158985e+01 0.000000000000e+00 0.000000000000e+00 -1.053371251625e+07 4.786196590409e-06 -2.457866253795e+07 -1.053371251626e+07 0.000000000000e+00 0.000000000000e+00 0.000000000000e+00 0.000000000000e+00 1.521536252349e+07 1.404495002169e+07  0.000000000000e+00
7.869028999687e+01 0.000000000000e+00 0.000000000000e+00 -1.045378569132e+07 5.415566684852e-06 -2.439216661307e+07 -1.045378569132e+07 0.000000000000e+00 0.000000000000e+00 0.000000000000e+00 0.000000000000e+00 1.509991266523e+07 1.393838092175e+07  0.000000000000e+00
8.594947181161e+01 0.000000000000e+00 0.000000000000e+00 -1.036903873215e+07 8.426196884111e-07 -2.419442370831e+07 -1.036903873214e+07 0.000000000000e+00 0.000000000000e+00 0.000000000000e+00 0.000000000000e+00 1.497750039086e+07 1.382538497617e+07  0.000000000000e+00
9.323342025208e+01 0.000000000000e+00 0.000000000000e+00 -1.028864481561e+07 -1.169224009516e-06 -2.400683790307e+07 -1.028864481560e+07 0.000000000000e+00 0.000000000000e+00 0.000000000000e+00 0.000000000000e+00 1.486137584476e+07 1.371819308746e+07  0.000000000000e+00
1.005263594919e+02 0.000000000000e+00 0.000000000000e+00 -1.020351933285e+07 -2.292068259431e-06 -2.380821177668e+07 -1.020351933286e+07 0.000000000000e+00 0.000000000000e+00 0.000000000000e+00 0.000000000000e+00 1.473841681413e+07 1.360469244382e+07  0.000000000000e+00
1.078485282901e+02 0.000000000000e+00 0.000000000000e+00 -1.012268572547e+07 8.325653349312e-07 -2.361960002612e+07 -1.012268572548e+07 0.000000000000e+00 0.000000000000e+00 0.000000000000e+00 0.000000000000e+00 1.462165715902e+07 1.349691430064e+07  0.000000000000e+00
1.151821840634e+02 0.000000000000e+00 0.000000000000e+00 -1.003712619903e+07 5.329131678323e-06 -2.341996113108e+07 -1.003712619903e+07 0.000000000000e+00 0.000000000000e+00 0.000000000000e+00 0.000000000000e+00 1.449807117638e+07 1.338283493205e+07  0.000000000000e+00
1.225358463513e+02 0.000000000000e+00 0.000000000000e+00 -9.955975018044e+06 5.338537363837e-06 -2.323060837545e+07 -9.955975018048e+06 0.000000000000e+00 0.000000000000e+00 0.000000000000e+00 0.000000000000e+00 1.438085280385e+07 1.327463335740e+07  0.000000000000e+00
1.299104489107e+02 0.000000000000e+00 0.000000000000e+00 -9.869911700832e+06 1.577236160409e-06 -2.302979396856e+07 -9.869911700818e+06 0.000000000000e+00 0.000000000000e+00 0.000000000000e+00 0.000000000000e+00 1.425653912340e+07 1.315988226774e+07  0.000000000000e+00
1.372956046872e+02 0.000000000000e+00 0.000000000000e+00 -9.788396156042e+06 1.102735542954e-07 -2.283959103071e+07 -9.788396156025e+06 0.000000000000e+00 0.000000000000e+00 0.000000000000e+00 0.000000000000e+00 1.413879444759e+07 1.305119487467e+07  0.000000000000e+00
1.447113823214e+02 0.000000000000e+00 0.000000000000e+00 -9.701848094535e+06 5.838011697993e-08 -2.263764555391e+07 -9.701848094534e+06 0.000000000000e+00 0.000000000000e+00 0.000000000000e+00 0.000000000000e+00 1.401378058099e+07 1.293579745938e+07  0.000000000000e+00
1.521370678941e+02 0.000000000000e+00 0.000000000000e+00 -9.619894655884e+06 1.119600910083e-06 -2.244642086378e+07 -9.619894655900e+06 0.000000000000e+00 0.000000000000e+00 0.000000000000e+00 0.000000000000e+00 1.389540339185e+07 1.282652620789e+07  0.000000000000e+00
1.595852106441e+02 0.000000000000e+00 0.000000000000e+00 -9.532976028715e+06 3.775896232672e-06 -2.224361073377e+07 -9.532976028745e+06 0.000000000000e+00 0.000000000000e+00 0.000000000000e+00 0.000000000000e+00 1.376985426374e+07 1.271063470504e+07  0.000000000000e+00
1.670525220784e+02 0.000000000000e+00 0.000000000000e+00 -9.450560984527e+06 6.772742237645e-06 -2.205130896398e+07 -9.450560984551e+06 0.000000000000e+00 0.000000000000e+00 0.000000000000e+00 0.000000000000e+00 1.365081031102e+07 1.260074797944e+07  0.000000000000e+00
1.745321583134e+02 0.000000000000e+00 0.000000000000e+00 -9.363270169109e+06 -1.700807408017e-06 -2.184763039459e+07 -9.363270169110e+06 0.000000000000e+00 0.000000000000e+00 0.000000000000e+00 0.000000000000e+00 1.352472357760e+07 1.248436022548e+07  0.000000000000e+00
1.820413181550e+02 0.000000000000e+00 0.000000000000e+00 -9.280392731287e+06 2.964412606651e-06 -2.165424970631e+07 -9.280392731279e+06 0.000000000000e+00 0.000000000000e+00 0.000000000000e+00 0.000000000000e+00 1.340501172296e+07 1.237385697503e+07  0.000000000000e+00
1.895610536006e+02 0.000000000000e+00 0.000000000000e+00 -9.192680556020e+06 -3.740868162484e-06 -2.144958796402e+07 -9.192680556012e+06 0.000000000000e+00 0.000000000000e+00 0.000000000000e+00 0.000000000000e+00 1.327831635868e+07 1.225690740800e+07  0.000000000000e+00
1.971036768020e+02 0.000000000000e+00 0.000000000000e+00 -9.109774917019e+06 -8.768044902428e-06 -2.125614147301e+07 -9.109774917010e+06 0.000000000000e+00 0.000000000000e+00 0.000000000000e+00 0.000000000000e+00 1.315856376901e+07 1.214636655600e+07  0.000000000000e+00
2.046657001721e+02 0.000000000000e+00 0.000000000000e+00 -9.021169951857e+06 -2.636186615630e-06 -2.104939655433e+07 -9.021169951857e+06 0.000000000000e+00 0.000000000000e+00 0.000000000000e+00 0.000000000000e+00 1.303057881935e+07 1.202822660248e+07  0.000000000000e+00
2.122398168550e+02 0.000000000000e+00 0.000000000000e+00 -8.937567454636e+06 1.926543860340e-06 -2.085432406082e+07 -8.937567454638e+06 0.000000000000e+00 0.000000000000e+00 0.000000000000e+00 0.000000000000e+00 1.290981965670e+07 1.191675660619e+07  0.000000000000e+00
2.198443451662e+02 0.000000000000e+00 0.000000000000e+00 -8.848796190849e+06 -2.286554581716e-06 -2.064719111193e+07 -8.848796190835e+06 0.000000000000e+00 0.000000000000e+00 0.000000000000e+00 0.000000000000e+00 1.278159449787e+07 1.179839492109e+07  0.000000000000e+00
2.274601001588e+02 0.000000000000e+00 0.000000000000e+00 -8.764734814943e+06 -4.547811112741e-06 -2.045104790148e+07 -8.764734814927e+06 0.000000000000e+00 0.000000000000e+00 0.000000000000e+00 0.000000000000e+00 1.266017251045e+07 1.168631308654e+07  0.000000000000e+00
2.350972038012e+02 0.000000000000e+00 0.000000000000e+00 -8.675614736198e+06 -4.427158870983e-06 -2.024310105111e+07 -8.675614736193e+06 0.000000000000e+00 0.000000000000e+00 0.000000000000e+00 0.000000000000e+00 1.253144350783e+07 1.156748631492e+07  0.000000000000e+00
2.427558923997e+02 0.000000000000e+00 0.000000000000e+00 -8.591085139391e+06 5.999530021643e-06 -2.004586532533e+07 -8.591085139417e+06 0.000000000000e+00 0.000000000000e+00 0.000000000000e+00 0.000000000000e+00 1.240934520138e+07 1.145478018593e+07  0.000000000000e+00
2.504262328183e+02 0.000000000000e+00 0.000000000000e+00 -8.501572599282e+06 6.192184407677e-06 -1.983700273179e+07 -8.501572599321e+06 0.000000000000e+00 0.000000000000e+00 0.000000000000e+00 0.000000000000e+00 1.228004931013e+07 1.133543013248e+07  0.000000000000e+00
2.581263234159e+02 0.000000000000e+00 0.000000000000e+00 -8.416590200337e+06 3.904981157995e-06 -1.963871046749e+07 -8.416590200349e+06 0.000000000000e+00 0.000000000000e+00 0.000000000000e+00 0.000000000000e+00 1.215729695606e+07 1.122212026715e+07  0.000000000000e+00
2.658400190923e+02 0.000000000000e+00 0.000000000000e+00 -8.326575658970e+06 -6.916746526196e-06 -1.942867653750e+07 -8.326575658942e+06 0.000000000000e+00 0.000000000000e+00 0.000000000000e+00 0.000000000000e+00 1.202727595181e+07 1.110210087855e+07  0.000000000000e+00
2.735716031658e+02 0.000000000000e+00 0.000000000000e+00 -8.241246413174e+06 -5.669358026724e-06 -1.922957496403e+07 -8.241246413162e+06 0.000000000000e+00 0.000000000000e+00 0.000000000000e+00 0.000000000000e+00 1.190402259679e+07 1.098832855086e+07  0.000000000000e+00
2.813288623489e+02 0.000000000000e+00 0.000000000000e+00 -8.150717627677e+06 -1.956966387966e-05 -1.901834113119e+07 -8.150717627661e+06 0.000000000000e+00 0.000000000000e+00 0.000000000000e+00 0.000000000000e+00 1.177325879551e+07 1.086762350352e+07  0.000000000000e+00
2.890983981244e+02 0.000000000000e+00 0.000000000000e+00 -8.064972601707e+06 -1.855125517234e-05 -1.881826940395e+07 -8.064972601698e+06 0.000000000000e+00 0.000000000000e+00 0.000000000000e+00 0.000000000000e+00 1.164940486912e+07 1.075329680225e+07  0.000000000000e+00
2.968929691466e+02 0.000000000000e+00 0.000000000000e+00 -7.974000852570e+06 -2.682436641637e-05 -1.860600198936e+07 -7.974000852579e+06 0.000000000000e+00 0.000000000000e+00 0.000000000000e+00 0.000000000000e+00 1.151800123150e+07 1.063200113679e+07  0.000000000000e+00
3.047064798793e+02 0.000000000000e+00 0.000000000000e+00 -7.887772406561e+06 -2.297322469959e-05 -1.840480228203e+07 -7.887772406578e+06 0.000000000000e+00 0.000000000000e+00 0.000000000000e+00 0.000000000000e+00 1.139344903172e+07 1.051702987546e+07  0.000000000000e+00
3.125326753387e+02 0.000000000000e+00 0.000000000000e+00 -7.796417701666e+06 -1.576263158460e-05 -1.819164130389e+07 -7.796417701666e+06 0.000000000000e+00 0.000000000000e+00 0.000000000000e+00 0.000000000000e+00 1.126149223574e+07 1.039522360222e+07  0.000000000000e+00
3.203902333055e+02 0.000000000000e+00 0.000000000000e+00 -7.709685520687e+06 -2.421477518737e-06 -1.798926621494e+07 -7.709685520689e+06 0.000000000000e+00 0.000000000000e+00 0.000000000000e+00 0.000000000000e+00 1.113621241877e+07 1.027958069426e+07  0.000000000000e+00
3.282608085761e+02 0.000000000000e+00 0.000000000000e+00 -7.617842564247e+06 1.161245393529e-05 -1.777496598332e+07 -7.617842564271e+06 0.000000000000e+00 0.000000000000e+00 0.000000000000e+00 0.000000000000e+00 1.100355037061e+07 1.015712341906e+07  0.000000000000e+00
3.361498600136e+02 0.000000000000e+00 0.000000000000e+00 -7.530768289934e+06 2.611472366108e-05 -1.757179267660e+07 -7.530768289960e+06 0.000000000000e+00 0.000000000000e+00 0.000000000000e+00 0.000000000000e+00 1.087777641883e+07 1.004102438665e+07  0.000000000000e+00
3.440650150977e+02 0.000000000000e+00 0.000000000000e+00 -7.438409015446e+06 1.981810371081e-05 -1.735628770274e+07 -7.438409015454e+06 0.000000000000e+00 0.000000000000e+00 0.000000000000e+00 0.000000000000e+00 1.074436857788e+07 9.917878687286e+06  0.000000000000e+00
3.519934549381e+02 0.000000000000e+00 0.000000000000e+00 -7.350906728896e+06 1.680828434651e-05 -1.715211570064e+07 -7.350906728859e+06 0.000000000000e+00 0.000000000000e+00 0.000000000000e+00 0.000000000000e+00 1.061797638613e+07 9.801208971758e+06  0.000000000000e+00
3.599454933141e+02 0.000000000000e+00 0.000000000000e+00 -7.258101182643e+06 4.294181937863e-07 -1.693556942607e+07 -7.258101182613e+06 0.000000000000e+00 0.000000000000e+00 0.000000000000e+00 0.000000000000e+00 1.048392393044e+07 9.677468243438e+06  0.000000000000e+00
3.679189082206e+02 0.000000000000e+00 0.000000000000e+00 -7.170103109176e+06 -1.456064984278e-05 -1.673024058810e+07 -7.170103109184e+06 0.000000000000e+00 0.000000000000e+00 0.000000000000e+00 0.000000000000e+00 1.035681560215e+07 9.560137478924e+06  0.000000000000e+00
3.759060000135e+02 0.000000000000e+00 0.000000000000e+00 -7.076892447750e+06 -2.376459961865e-05 -1.651274904477e+07 -7.076892447755e+06 0.000000000000e+00 0.000000000000e+00 0.000000000000e+00 0.000000000000e+00 1.022217798009e+07 9.435856597013e+06  0.000000000000e+00
3.839210253241e+02 0.000000000000e+00 0.000000000000e+00 -6.988535497713e+06 -2.340134555745e-05 -1.630658282797e+07 -6.988535497705e+06 0.000000000000e+00 0.000000000000e+00 0.000000000000e+00 0.000000000000e+00 1.009455127446e+07 9.318047330261e+06  0.000000000000e+00
3.919534812235e+02 0.000000000000e+00 0.000000000000e+00 -6.895839202159e+06 -2.076905094961e-05 -1.609029147172e+07 -6.895839202162e+06 0.000000000000e+00 0.000000000000e+00 0.000000000000e+00 0.000000000000e+00 9.960656625346e+06 9.194452269555e+06  0.000000000000e+00
4.000000000000e+02 0.000000000000e+00 0.000000000000e+00 -6.814580607757e+06 -1.758600657303e-05 -1.590068808486e+07 -6.814580607785e+06 0.000000000000e+00 0.000000000000e+00 0.000000000000e+00 0.000000000000e+00 9.843283100134e+06 9.086107477089e+06  0.000000000000e+00
4.078483509821e+02 0.000000000000e+00 0.000000000000e+00 -6.720449515478e+06 -9.814346332303e-06 -1.568104886953e+07 -6.720449515504e+06 0.000000000000e+00 0.000000000000e+00 0.000000000000e+00 0.000000000000e+00 9.707315966839e+06 8.960599354044e+06  0.000000000000e+00
4.152299968033e+02 0.000000000000e+00 0.000000000000e+00 -6.634262111146e+06 -4.804034959487e-06 -1.547994492610e+07 -6.634262111175e+06 0.000000000000e+00 0.000000000000e+00 0.000000000000e+00 0.000000000000e+00 9.582823049475e+06 8.845682814943e+06  0.000000000000e+00
4.221730480211e+02 0.000000000000e+00 0.000000000000e+00 -6.552675400681e+06 -4.404455492157e-06 -1.528957593502e+07 -6.552675400710e+06 0.000000000000e+00 0.000000000000e+00 0.000000000000e+00 0.000000000000e+00 9.464975578803e+06 8.736900534322e+06  0.000000000000e+00
4.287030242355e+02 0.000000000000e+00 0.000000000000e+00 -6.479199262987e+06 -1.016851904198e-05 -1.511813161351e+07 -6.479199262950e+06 0.000000000000e+00 0.000000000000e+00 0.000000000000e+00 0.000000000000e+00 9.358843379816e+06 8.638932350544e+06  0.000000000000e+00
4.348463496730e+02 0.000000000000e+00 0.000000000000e+00 -6.411850894617e+06 -7.193727747868e-06 -1.496098542052e+07 -6.411850894542e+06 0.000000000000e+00 0.000000000000e+00 0.000000000000e+00 0.000000000000e+00 9.261562403227e+06 8.549134525944e+06  0.000000000000e+00
4.406211355678e+02 0.000000000000e+00 0.000000000000e+00 -6.344630105189e+06 8.448251594971e-06 -1.480413691212e+07 -6.344630105191e+06 0.000000000000e+00 0.000000000000e+00 0.000000000000e+00 0.000000000000e+00 9.164465707499e+06 8.459506806926e+06  0.000000000000e+00
4.460547738156e+02 0.000000000000e+00 0.000000000000e+00 -6.285082929263e+06 -6.040396103530e-06 -1.466519350159e+07 -6.285082929255e+06 0.000000000000e+00 0.000000000000e+00 0.000000000000e+00 0.000000000000e+00 9.078453120034e+06 8.380110572326e+06  0.000000000000e+00
4.511646868338e+02 0.000000000000e+00 0.000000000000e+00 -6.225547407644e+06 -2.091564991003e-05 -1.452627728424e+07 -6.225547407564e+06 0.000000000000e+00 0.000000000000e+00 0.000000000000e+00 0.000000000000e+00 8.992457366482e+06 8.300729876632e+06  0.000000000000e+00
4.559705175445e+02 0.000000000000e+00 0.000000000000e+00 -6.173040024924e+06 -4.163021275046e-05 -1.440376005786e+07 -6.173040024835e+06 0.000000000000e+00 0.000000000000e+00 0.000000000000e+00 0.000000000000e+00 8.916613369206e+06 8.230720032979e+06  0.000000000000e+00
4.604929189399e+02 0.000000000000e+00 0.000000000000e+00 -6.119954080166e+06 -2.283570709071e-05 -1.427989285368e+07 -6.119954080154e+06 0.000000000000e+00 0.000000000000e+00 0.000000000000e+00 0.000000000000e+00 8.839933671334e+06 8.159938773522e+06  0.000000000000e+00
4.647447386486e+02 0.000000000000e+00 0.000000000000e+00 -6.072087036844e+06 -2.621915920368e-05 -1.416820308577e+07 -6.072087036784e+06 0.000000000000e+00 0.000000000000e+00 0.000000000000e+00 0.000000000000e+00 8.770792386465e+06 8.096116048955e+06  0.000000000000e+00
4.687438090223e+02 0.000000000000e+00 0.000000000000e+00 -6.027517546622e+06 1.724029721216e-05 -1.406420760860e+07 -6.027517546568e+06 0.000000000000e+00 0.000000000000e+00 0.000000000000e+00 0.000000000000e+00 8.706414233931e+06 8.036690062009e+06  0.000000000000e+00
4.725049215215e+02 0.000000000000e+00 0.000000000000e+00 -5.986171471034e+06 4.085878437137e-05 -1.396773343201e+07 -5.986171470912e+06 0.000000000000e+00 0.000000000000e+00 0.000000000000e+00 0.000000000000e+00 8.646692124651e+06 7.981561961034e+06  0.000000000000e+00
4.760433207100e+02 0.000000000000e+00 0.000000000000e+00 -5.943988893063e+06 4.433191483070e-05 -1.386930741643e+07 -5.943988892847e+06 0.000000000000e+00 0.000000000000e+00 0.000000000000e+00 0.000000000000e+00 8.585761734112e+06 7.925318523472e+06  0.000000000000e+00
4.793701278799e+02 0.000000000000e+00 0.000000000000e+00 -5.906962453079e+06 3.200093949734e-05 -1.378291238967e+07 -5.906962452824e+06 0.000000000000e+00 0.000000000000e+00 0.000000000000e+00 0.000000000000e+00 8.532279098524e+06 7.875949936717e+06  0.000000000000e+00
4.825000000000e+02 0.000000000000e+00 0.000000000000e+00 -5.872986509994e+06 3.921569129894e-05 -1.370363518882e+07 -5.872986509644e+06 0.000000000000e+00 0.000000000000e+00 0.000000000000e+00 0.000000000000e+00 8.483202736152e+06 7.830648678999e+06  0.000000000000e+00
4.860000000000e+02 0.000000000000e+00 0.000000000000e+00 -5.830967677817e+06 4.078305238629e-05 -1.360559124667e+07 -5.830967677345e+06 0.000000000000e+00 0.000000000000e+00 0.000000000000e+00 0.000000000000e+00 8.422508867277e+06 7.774623569086e+06  0.000000000000e+00
4.895000000000e+02 0.000000000000e+00 0.000000000000e+00 -5.792288518076e+06 2.097532736294e-05 -1.351533987371e+07 -5.792288517535e+06 0.000000000000e+00 0.000000000000e+00 0.000000000000e+00 0.000000000000e+00 8.366638969773e+06 7.723051355903e+06  0.000000000000e+00
4.930000000000e+02 0.000000000000e+00 0.000000000000e+00 -5.752059867171e+06 2.942098428605e-05 -1.342147302140e+07 -5.752059866571e+06 0.000000000000e+00 0.000000000000e+00 0.000000000000e+00 0.000000000000e+00 8.308530918380e+06 7.669413154528e+06  0.000000000000e+00
4.965000000000e+02 0.000000000000e+00 0.000000000000e+00 -5.712752439494e+06 2.700015543528e-05 -1.332975569050e+07 -5.712752438998e+06 0.000000000000e+00 0.000000000000e+00 0.000000000000e+00 0.000000000000e+00 8.251753522997e+06 7.617003251252e+06  0.000000000000e+00
5.000000000000e+02 0.000000000000e+00 0.000000000000e+00 -5.675785714726e+06 3.182975312351e-05 -1.324350000000e+07 -5.675785714419e+06 0.000000000000e+00 0.000000000000e+00 0.000000000000e+00 0.000000000000e+00 8.198357143050e+06 7.567714285431e+06  0.000000000000e+00
5.035000000000e+02 0.000000000000e+00 0.000000000000e+00 -5.638818990075e+06 -8.157648346008e-06 -1.315724430939e+07 -5.638818989838e+06 0.000000000000e+00 0.000000000000e+00 0.000000000000e+00 0.000000000000e+00 8.144960763100e+06 7.518425319429e+06  0.000000000000e+00
5.070000000000e+02 0.000000000000e+00 0.000000000000e+00 -5.599511562333e+06 4.328431606489e-05 -1.306552697841e+07 -5.599511562222e+06 0.000000000000e+00 0.000000000000e+00 0.000000000000e+00 0.000000000000e+00 8.088183367654e+06 7.466015416130e+06  0.000000000000e+00
5.105000000000e+02 0.000000000000e+00 0.000000000000e+00 -5.559282911074e+06 4.395893075000e-05 -1.297166012613e+07 -5.559282911162e+06 0.000000000000e+00 0.000000000000e+00 0.000000000000e+00 0.000000000000e+00 8.030075316123e+06 7.412377215015e+06  0.000000000000e+00
5.140000000000e+02 0.000000000000e+00 0.000000000000e+00 -5.520603751204e+06 2.589223054859e-05 -1.288140875350e+07 -5.520603751412e+06 0.000000000000e+00 0.000000000000e+00 0.000000000000e+00 0.000000000000e+00 7.974205418706e+06 7.360805002194e+06  0.000000000000e+00
5.175000000000e+02 0.000000000000e+00 0.000000000000e+00 -5.478584919010e+06 -3.827073566377e-06 -1.278336481149e+07 -5.478584919149e+06 0.000000000000e+00 0.000000000000e+00 0.000000000000e+00 0.000000000000e+00 7.913511549882e+06 7.304779892408e+06  0.000000000000e+00
5.206298721201e+02 0.000000000000e+00 0.000000000000e+00 -5.444608975861e+06 -5.329496554054e-06 -1.270408761059e+07 -5.444608975934e+06 0.000000000000e+00 0.000000000000e+00 0.000000000000e+00 0.000000000000e+00 7.864435187461e+06 7.259478634689e+06  0.000000000000e+00
5.239566792900e+02 0.000000000000e+00 0.000000000000e+00 -5.407582535614e+06 -6.070429430376e-05 -1.261769258386e+07 -5.407582535842e+06 0.000000000000e+00 0.000000000000e+00 0.000000000000e+00 0.000000000000e+00 7.810952551772e+06 7.210110048130e+06  0.000000000000e+00
5.274950784785e+02 0.000000000000e+00 0.000000000000e+00 -5.365399957396e+06 -3.250848163933e-05 -1.251926656833e+07 -5.365399957717e+06 0.000000000000e+00 0.000000000000e+00 0.000000000000e+00 0.000000000000e+00 7.750022161146e+06 7.153866610771e+06  0.000000000000e+00
5.312561909777e+02 0.000000000000e+00 0.000000000000e+00 -5.324053881664e+06 -1.501666342319e-05 -1.242279239164e+07 -5.324053881991e+06 0.000000000000e+00 0.000000000000e+00 0.000000000000e+00 0.000000000000e+00 7.690300051765e+06 7.098738509811e+06  0.000000000000e+00
5.352552613514e+02 0.000000000000e+00 0.000000000000e+00 -5.279484391623e+06 -3.860871736275e-06 -1.231879691440e+07 -5.279484391807e+06 0.000000000000e+00 0.000000000000e+00 0.000000000000e+00 0.000000000000e+00 7.625921899277e+06 7.039312522687e+06  0.000000000000e+00
5.395070810601e+02 0.000000000000e+00 0.000000000000e+00 -5.231617348361e+06 3.743333100757e-05 -1.220710714635e+07 -5.231617348414e+06 0.000000000000e+00 0.000000000000e+00 0.000000000000e+00 0.000000000000e+00 7.556780614376e+06 6.975489797964e+06  0.000000000000e+00
5.440294824555e+02 0.000000000000e+00 0.000000000000e+00 -5.178531403765e+06 7.374057442540e-06 -1.208323994209e+07 -5.178531403755e+06 0.000000000000e+00 0.000000000000e+00 0.000000000000e+00 0.000000000000e+00 7.480100916535e+06 6.904708538326e+06  0.000000000000e+00
5.488353131662e+02 0.000000000000e+00 0.000000000000e+00 -5.126024021037e+06 1.082497102402e-05 -1.196072271566e+07 -5.126024021009e+06 0.000000000000e+00 0.000000000000e+00 0.000000000000e+00 0.000000000000e+00 7.404256919235e+06 6.834698694637e+06  0.000000000000e+00
5.539452261844e+02 0.000000000000e+00 0.000000000000e+00 -5.066488499262e+06 1.654751982400e-05 -1.182180649849e+07 -5.066488499327e+06 0.000000000000e+00 0.000000000000e+00 0.000000000000e+00 0.000000000000e+00 7.318261165694e+06 6.755317999200e+06  0.000000000000e+00
5.593788644322e+02 0.000000000000e+00 0.000000000000e+00 -5.006941323310e+06 -4.340886031445e-06 -1.168286308798e+07 -5.006941323387e+06 0.000000000000e+00 0.000000000000e+00 0.000000000000e+00 0.000000000000e+00 7.232248578226e+06 6.675921764632e+06  0.000000000000e+00
5.651536503270e+02 0.000000000000e+00 0.000000000000e+00 -4.939720534085e+06 -1.826908460694e-05 -1.152601457959e+07 -4.939720534104e+06 0.000000000000e+00 0.000000000000e+00 0.000000000000e+00 0.000000000000e+00 7.135151882594e+06 6.586294045500e+06  0.000000000000e+00
5.712969757645e+02 0.000000000000e+00 0.000000000000e+00 -4.872372165758e+06 -1.680828434650e-05 -1.136886838663e+07 -4.872372165717e+06 0.000000000000e+00 0.000000000000e+00 0.000000000000e+00 0.000000000000e+00 7.037870906035e+06 6.496496220894e+06  0.000000000000e+00
5.778269519789e+02 0.000000000000e+00 0.000000000000e+00 -4.798896027880e+06 -1.471697882269e-05 -1.119742406508e+07 -4.798896027889e+06 0.000000000000e+00 0.000000000000e+00 0.000000000000e+00 0.000000000000e+00 6.931738706951e+06 6.398528037200e+06  0.000000000000e+00
5.847700031967e+02 0.000000000000e+00 0.000000000000e+00 -4.717309317349e+06 -4.583487850895e-06 -1.100705507398e+07 -4.717309317400e+06 0.000000000000e+00 0.000000000000e+00 0.000000000000e+00 0.000000000000e+00 6.813891236244e+06 6.289745756609e+06  0.000000000000e+00
5.921516490179e+02 0.000000000000e+00 0.000000000000e+00 -4.631121912973e+06 8.945779925234e-06 -1.080595113048e+07 -4.631121913035e+06 0.000000000000e+00 0.000000000000e+00 0.000000000000e+00 0.000000000000e+00 6.689398318829e+06 6.174829217474e+06  0.000000000000e+00
6.000000000000e+02 0.000000000000e+00 0.000000000000e+00 -4.536990820750e+06 3.097923344339e-05 -1.058631191508e+07 -4.536990820750e+06 0.000000000000e+00 0.000000000000e+00 0.000000000000e+00 0.000000000000e+00 6.553431185528e+06 6.049321094334e+06  0.000000000000e+00
6.080465187765e+02 0.000000000000e+00 0.000000000000e+00 -4.455732226532e+06 4.370076089935e-05 -1.039670852840e+07 -4.455732226480e+06 0.000000000000e+00 0.000000000000e+00 0.000000000000e+00 0.000000000000e+00 6.436057660472e+06 5.940976301897e+06  0.000000000000e+00
6.160789746759e+02 0.000000000000e+00 0.000000000000e+00 -4.363035930917e+06 2.187308382850e-06 -1.018041717223e+07 -4.363035930944e+06 0.000000000000e+00 0.000000000000e+00 0.000000000000e+00 0.000000000000e+00 6.302163011363e+06 5.817381241299e+06  0.000000000000e+00
6.240939999865e+02 0.000000000000e+00 0.000000000000e+00 -4.274678980866e+06 -4.386292789097e-06 -9.974250955406e+06 -4.274678980882e+06 0.000000000000e+00 0.000000000000e+00 0.000000000000e+00 0.000000000000e+00 6.174536305718e+06 5.699571974533e+06  0.000000000000e+00
6.320810917794e+02 0.000000000000e+00 0.000000000000e+00 -4.181468319413e+06 3.127876934194e-05 -9.756759412043e+06 -4.181468319437e+06 0.000000000000e+00 0.000000000000e+00 0.000000000000e+00 0.000000000000e+00 6.039898683631e+06 5.575291092618e+06  0.000000000000e+00
6.400545066859e+02 0.000000000000e+00 0.000000000000e+00 -4.093470245933e+06 5.244610242296e-05 -9.551430573966e+06 -4.093470245970e+06 0.000000000000e+00 0.000000000000e+00 0.000000000000e+00 0.000000000000e+00 5.912790355289e+06 5.457960328015e+06  0.000000000000e+00
6.480065450619e+02 0.000000000000e+00 0.000000000000e+00 -4.000664699717e+06 5.768474491996e-05 -9.334884299399e+06 -4.000664699735e+06 0.000000000000e+00 0.000000000000e+00 0.000000000000e+00 0.000000000000e+00 5.778737899617e+06 5.334219599673e+06  0.000000000000e+00
6.559349849023e+02 0.000000000000e+00 0.000000000000e+00 -3.913162413138e+06 7.070221367056e-05 -9.130712297228e+06 -3.913162413110e+06 0.000000000000e+00 0.000000000000e+00 0.000000000000e+00 0.000000000000e+00 5.652345707825e+06 5.217549884105e+06  0.000000000000e+00
6.638501399864e+02 0.000000000000e+00 0.000000000000e+00 -3.820803138590e+06 5.278859910924e-05 -8.915207323287e+06 -3.820803138563e+06 0.000000000000e+00 0.000000000000e+00 0.000000000000e+00 0.000000000000e+00 5.518937866813e+06 5.094404184710e+06  0.000000000000e+00
6.717391914239e+02 0.000000000000e+00 0.000000000000e+00 -3.733728864360e+06 6.346567383690e-06 -8.712034016507e+06 -3.733728864260e+06 0.000000000000e+00 0.000000000000e+00 0.000000000000e+00 0.000000000000e+00 5.393163915042e+06 4.978305152198e+06  0.000000000000e+00
6.796097666945e+02 0.000000000000e+00 0.000000000000e+00 -3.641885907915e+06 1.172402482551e-05 -8.497733784880e+06 -3.641885907838e+06 0.000000000000e+00 0.000000000000e+00 0.000000000000e+00 0.000000000000e+00 5.260501866878e+06 4.855847877003e+06  0.000000000000e+00
6.874673246613e+02 0.000000000000e+00 0.000000000000e+00 -3.555153726893e+06 -2.293689929347e-05 -8.295358696041e+06 -3.555153726880e+06 0.000000000000e+00 0.000000000000e+00 0.000000000000e+00 0.000000000000e+00 5.135222049938e+06 4.740204969154e+06  0.000000000000e+00
6.952935201207e+02 0.000000000000e+00 0.000000000000e+00 -3.463799021980e+06 -4.484111918436e-05 -8.082197718157e+06 -3.463799022041e+06 0.000000000000e+00 0.000000000000e+00 0.000000000000e+00 0.000000000000e+00 5.003265254060e+06 4.618398696146e+06  0.000000000000e+00
7.031070308534e+02 0.000000000000e+00 0.000000000000e+00 -3.377570575984e+06 -4.233207149016e-05 -7.880998010684e+06 -3.377570576000e+06 0.000000000000e+00 0.000000000000e+00 0.000000000000e+00 0.000000000000e+00 4.878713054222e+06 4.503427434692e+06  0.000000000000e+00