 TITLE = "Time curves in points"
 VARIABLES = "TIME "  "DISPLACEMENT_X1"  "DISPLACEMENT_Y1"  "STRESS_XX"  "STRESS_XY"  "STRESS_YY"  "STRESS_ZZ"  "STRAIN_XX"  "STRAIN_XY"  "STRAIN_YY"  "STRAIN_PLS"  p_(1st_Invariant)  q_(2nd_Invariant)   Effective_Strain
 ZONE T="POINT=POINT7"
0.000000000000e+00 0.000000000000e+00 0.000000000000e+00 -5.675785712072e+06 -1.606293865514e-03 -1.324350000123e+07 -5.675785713989e+06 0.000000000000e+00 0.000000000000e+00 0.000000000000e+00 0.000000000000e+00 8.198357142429e+06 7.567714288196e+06  0.000000000000e+00
2.000000000000e-02 -7.949912530446e-05 -2.194067802149e-05 -2.794828731346e+06 -2.629633880599e+03 -2.870188196877e+07 -9.449013210034e+06 2.471554234229e-04 -1.953441118055e-07 -4.340200232270e-04 0.000000000000e+00 1.364857463672e+07 2.330371832406e+07  5.972685333935e-04
