 TITLE = "Time curves in points"
 VARIABLES = "TIME "  "DISPLACEMENT_X1"  "DISPLACEMENT_Y1"  "STRESS_XX"  "STRESS_XY"  "STRESS_YY"  "STRESS_ZZ"  "STRAIN_XX"  "STRAIN_XY"  "STRAIN_YY"  "STRAIN_PLS"  p_(1st_Invariant)  q_(2nd_Invariant)   Effective_Strain
 ZONE T="POINT=POINT9"
0.000000000000e+00 0.000000000000e+00 0.000000000000e+00 -5.661472705013e+06 -6.404584246610e-04 -1.321010297209e+07 -5.661472703131e+06 0.000000000000e+00 0.000000000000e+00 0.000000000000e+00 0.000000000000e+00 8.177682793412e+06 7.548630268019e+06  0.000000000000e+00
2.000000000000e-02 -5.358296410735e-12 -6.760640419080e-04 -5.933123300789e+06 1.071228735964e-02 -6.353779654207e+05 -1.970550379863e+06 -1.471812798502e-04 8.433468322391e-13 3.299698139549e-04 0.000000000000e+00 2.846350548691e+06 4.772356606979e+06  4.232112791380e-04
