 TITLE = "Time curves in points"
 VARIABLES = "TIME "  "DISPLACEMENT_X1"  "DISPLACEMENT_Y1"  "STRESS_XX"  "STRESS_XY"  "STRESS_YY"  "STRESS_ZZ"  "STRAIN_XX"  "STRAIN_XY"  "STRAIN_YY"  "STRAIN_PLS"  p_(1st_Invariant)  q_(2nd_Invariant)   Effective_Strain
 ZONE T="POINT=POINT15"
0.000000000000e+00 0.000000000000e+00 0.000000000000e+00 -5.636547450487e+06 -4.789764264225e-04 -1.315194405336e+07 -5.636547451154e+06 0.000000000000e+00 0.000000000000e+00 0.000000000000e+00 0.000000000000e+00 8.141679651666e+06 7.515396602538e+06  0.000000000000e+00
2.000000000000e-02 -5.091132469779e-12 -3.002846784924e-04 -6.552436260017e+06 1.040931760144e-02 -1.067056150686e+07 -5.166899330063e+06 -5.146280028017e-05 8.088446980673e-13 7.472156437227e-05 0.000000000000e+00 7.463299032314e+06 4.958274169975e+06  1.098959186632e-04
