 TITLE = "Time curves in points"
 VARIABLES = "TIME "  "DISPLACEMENT_X1"  "DISPLACEMENT_Y1"  "STRESS_XX"  "STRESS_XY"  "STRESS_YY"  "STRESS_ZZ"  "STRAIN_XX"  "STRAIN_XY"  "STRAIN_YY"  "STRAIN_PLS"  p_(1st_Invariant)  q_(2nd_Invariant)   Effective_Strain
 ZONE T="POINT=POINT5"
0.000000000000e+00 0.000000000000e+00 0.000000000000e+00 0.000000000000e+00 0.000000000000e+00 0.000000000000e+00 0.000000000000e+00 0.000000000000e+00 0.000000000000e+00 0.000000000000e+00 0.000000000000e+00 -0.000000000000e+00 0.000000000000e+00  0.000000000000e+00
1.000000000000e+01 1.835543541356e-03 -4.813619489961e-03 5.137354998628e+00 2.365451596242e+00 -4.756072487492e+01 -1.230277726413e+01 1.087374123681e-04 2.949668979364e-05 -2.198296395260e-04 0.000000000000e+00 1.824204904681e+01 4.667944340367e+01  2.943854030906e-04
2.000000000000e+01 3.671101488484e-03 -9.627242905661e-03 1.027482651933e+01 4.730927088491e+00 -9.512145593874e+01 -2.460552253163e+01 2.174753517435e-04 5.899367756553e-05 -4.396595171347e-04 0.000000000000e+00 3.648405065035e+01 9.335898991762e+01  5.887715089383e-04
3.000000000000e+01 5.506657803957e-03 -1.444086233907e-02 1.541228918326e+01 7.096421822548e+00 -1.426822077207e+02 -3.690827637587e+01 3.262132893730e-04 8.849090527876e-05 -6.594894704441e-04 0.000000000000e+00 5.472606497112e+01 1.400385505852e+02  8.831577561239e-04
4.000000000000e+01 7.342204968981e-03 -1.925447447919e-02 2.054967176282e+01 9.461965514947e+00 -1.902428973018e+02 -4.921103540630e+01 4.349507600201e-04 1.179887434923e-04 -8.793190036016e-04 0.000000000000e+00 7.296808698175e+01 1.867179989392e+02  1.177543448636e-03
5.000000000000e+01 9.188817459375e-03 -2.416808571888e-02 2.612668117454e+01 1.222005084917e+01 -2.381633455828e+02 -6.149063267840e+01 5.462848471256e-04 1.523814943975e-04 -1.101536006026e-03 0.000000000000e+00 9.117576569556e+01 2.341316267314e+02  1.477572839128e-03
6.000000000000e+01 1.105246250739e-02 -2.928632305420e-02 3.250470743862e+01 1.576574758425e+01 -2.868159748261e+02 -7.375026754237e+01 6.624887275277e-04 1.965955957823e-04 -1.328442544205e-03 0.000000000000e+00 1.093538449766e+02 2.829701099338e+02  1.788764546524e-03
7.000000000000e+01 1.293297246907e-02 -3.469897147139e-02 3.987730722921e+01 2.044238912032e+01 -3.363783722801e+02 -8.598530886476e+01 7.847403323403e-04 2.549123437913e-04 -1.561174730816e-03 0.000000000000e+00 1.274954579719e+02 3.336268636795e+02  2.114980287259e-03
8.000000000000e+01 1.486735828805e-02 -4.067610644437e-02 4.921622484138e+01 2.742452638358e+01 -3.870149591114e+02 -9.796163293831e+01 9.176386492789e-04 3.419781443675e-04 -1.802217451732e-03 0.000000000000e+00 1.452534557361e+02 3.873134524706e+02  2.468740564694e-03
9.000000000000e+01 1.896084027123e-02 -5.414094132341e-02 9.141488578241e+01 5.277407968496e+01 -4.131180795594e+02 -9.901045586886e+01 1.313781349790e-03 7.295903374712e-04 -2.167815824663e-03 2.451317389377e-04 1.402378832153e+02 4.506603732523e+02  3.297027307520e-03
1.000000000000e+02 4.258989238671e-02 -1.403664101836e-01 7.986302934438e+01 7.406424735438e+01 -4.178731357921e+02 -1.503766147439e+02 5.724859380533e-03 3.685667581662e-03 -6.716267901077e-03 6.892684358545e-03 1.627955737305e+02 4.501216774299e+02  1.253333137315e-02
