 TITLE = "Time curves in points"
 VARIABLES = "TIME "  "DISPLACEMENT_X1"  "DISPLACEMENT_Y1"  "STRESS_XX"  "STRESS_XY"  "STRESS_YY"  "STRESS_ZZ"  "STRAIN_XX"  "STRAIN_XY"  "STRAIN_YY"  "STRAIN_PLS"  p_(1st_Invariant)  q_(2nd_Invariant)   Effective_Strain
 ZONE T="POINT=POINT0"
0.000000000000e+00 0.000000000000e+00 0.000000000000e+00 0.000000000000e+00 0.000000000000e+00 0.000000000000e+00 0.000000000000e+00 0.000000000000e+00 0.000000000000e+00 0.000000000000e+00 0.000000000000e+00 -0.000000000000e+00 0.000000000000e+00  0.000000000000e+00
1.000000000000e+01 2.359316405554e-03 0.000000000000e+00 -3.342096621095e+00 4.508299505288e+00 -1.317932544568e+02 -3.918925181259e+01 2.235032875642e-04 5.621755787164e-05 -5.773763335478e-04 0.000000000000e+00 5.810820096350e+01 1.150699100047e+02  7.223876384892e-04
2.000000000000e+01 4.718655982900e-03 0.000000000000e+00 -6.684219554089e+00 9.016610722610e+00 -2.635868159628e+02 -7.837860029989e+01 4.470070138331e-04 1.124352617899e-04 -1.154753978758e-03 0.000000000000e+00 1.162165452722e+02 2.301400736884e+02  1.444776873400e-03
3.000000000000e+01 7.077993418084e-03 0.000000000000e+00 -1.002632802504e+01 1.352491769251e+01 -3.953802331267e+02 -1.175679027340e+02 6.705105431346e-04 1.686529127437e-04 -1.732131011148e-03 0.000000000000e+00 1.743248212952e+02 3.452101199108e+02  2.167165371685e-03
4.000000000000e+01 9.437318368151e-03 0.000000000000e+00 -1.336844022757e+01 1.803322889413e+01 -5.271738390040e+02 -1.567572609771e+02 8.940143971337e-04 2.248706164661e-04 -2.309508872183e-03 0.000000000000e+00 2.324331800696e+02 4.602803314671e+02  2.889554903002e-03
5.000000000000e+01 1.152139942679e-02 0.000000000000e+00 -1.213271828634e+01 2.215555358616e+01 -5.413213283974e+02 -2.047280776089e+02 1.827555992555e-03 4.821501113347e-04 -3.366640053468e-03 1.371290500921e-03 2.527273747642e+02 4.654963938144e+02  4.639434830841e-03
6.000000000000e+01 1.288147029088e-02 0.000000000000e+00 -4.017102657000e+00 2.078784128116e+01 -5.254814530504e+02 -2.282672458764e+02 3.064954508492e-03 6.883419177019e-04 -4.603193448392e-03 3.160004360133e-03 2.525886005279e+02 4.545009826623e+02  6.790681730323e-03
7.000000000000e+01 1.316056278168e-02 0.000000000000e+00 -3.099960222941e+00 1.882644875060e+01 -5.252804259580e+02 -2.443991875482e+02 4.430663647124e-03 8.783343428518e-04 -5.999380036521e-03 5.104833634154e-03 2.575931912430e+02 4.538274104927e+02  9.193421009785e-03
8.000000000000e+01 1.225518677206e-02 0.000000000000e+00 -3.769657514294e+00 1.582748446336e+01 -5.261496374132e+02 -2.549380603870e+02 6.056800322183e-03 1.061165557247e-03 -7.650034199573e-03 7.413147420496e-03 2.616191184382e+02 4.533349672706e+02  1.203830552951e-02
9.000000000000e+01 1.578481714202e-02 0.000000000000e+00 -3.752192621947e+00 1.093543715132e+01 -5.267393904879e+02 -2.637289467389e+02 1.039312927704e-02 1.534426502304e-03 -1.200537008196e-02 1.353890203162e-02 2.647401766162e+02 4.533186065275e+02  1.959547918086e-02
1.000000000000e+02 5.067901827980e-02 0.000000000000e+00 -3.322765182652e+00 1.087372510864e+01 -5.268711686129e+02 -2.652493594499e+02 4.319874322105e-02 5.467012678665e-03 -4.481346619429e-02 5.977500777333e-02 2.651477644152e+02 4.537972399294e+02  7.681099055527e-02
