 TITLE = "Time curves in points"
 VARIABLES = "TIME "  "DISPLACEMENT_X1"  "DISPLACEMENT_Y1"  "STRESS_XX"  "STRESS_XY"  "STRESS_YY"  "STRESS_ZZ"  "STRAIN_XX"  "STRAIN_XY"  "STRAIN_YY"  "STRAIN_PLS"  p_(1st_Invariant)  q_(2nd_Invariant)   Effective_Strain
 ZONE T="POINT=POINT6"
0.000000000000e+00 0.000000000000e+00 0.000000000000e+00 0.000000000000e+00 0.000000000000e+00 0.000000000000e+00 0.000000000000e+00 0.000000000000e+00 0.000000000000e+00 0.000000000000e+00 0.000000000000e+00 -0.000000000000e+00 0.000000000000e+00  0.000000000000e+00
1.000000000000e+00 1.777777896758e-04 -2.000000000000e-03 -5.995918602114e-07 -3.006157037916e-08 -1.587301587124e+04 -6.349206348736e+03 4.444444443695e-04 -4.208619853082e-15 -6.666666665753e-04 0.000000000000e+00 7.407407406859e+03 1.383777442188e+04  9.686442095317e-04
2.000000000000e+00 3.555556277144e-04 -3.999999999998e-03 1.650382222983e-06 1.189159056478e-05 -3.174603178908e+04 -1.269841271497e+04 8.888888901636e-04 1.664822679069e-12 -1.333333335188e-03 0.000000000000e+00 1.481481483414e+04 2.767554888681e+04  1.937288422077e-03
3.000000000000e+00 5.333334030420e-04 -6.000000000000e-03 7.073008924231e-07 2.153605243460e-06 -4.761904765293e+04 -1.904761906089e+04 1.333333334312e-03 3.015047340844e-13 -2.000000001443e-03 0.000000000000e+00 2.222222223771e+04 4.151332330196e+04  2.905932631137e-03
4.000000000000e+00 7.111111105856e-04 -8.000000000000e-03 -2.019672148344e+02 -1.598802655534e-07 -6.352160311813e+04 -2.552982157643e+04 1.777777777903e-03 -2.244418963953e-14 -2.666666666806e-03 8.845427799044e-06 2.975113063646e+04 5.520077880882e+04  3.874576838931e-03
5.000000000000e+00 1.078438342817e-03 -1.000000000000e-02 -4.046557899654e+02 1.295930412307e-01 -6.719866825151e+04 -3.086097143142e+04 2.802206162492e-03 2.375549835300e-08 -3.344825527160e-03 1.072662652170e-03 3.282143182430e+04 5.792001153942e+04  5.330394721839e-03
6.000000000000e+00 1.487449522145e-03 -1.200000000000e-02 -4.204436803088e+02 -2.550644128717e-01 -6.955871978823e+04 -3.499615808342e+04 3.887425805951e-03 -4.209748851741e-08 -4.017129226544e-03 2.232693175986e-03 3.499177385065e+04 5.987550384610e+04  6.845852645650e-03
7.000000000000e+00 1.909278631584e-03 -1.400000000000e-02 -4.228101437564e+02 -7.034564207015e-01 -7.126789739378e+04 -3.827535099803e+04 5.014507384796e-03 -1.386567102959e-07 -4.689678227381e-03 3.456822169283e-03 3.665535284519e+04 6.140174817232e+04  8.405640508000e-03
8.000000000000e+00 2.337621164860e-03 -1.600000000000e-02 -4.220868469393e+02 -1.194989851811e+00 -7.253916638083e+04 -4.086546906063e+04 6.173489645986e-03 -2.658514191414e-07 -5.363001456418e-03 4.729062421448e-03 3.794224076280e+04 6.260895876741e+04  9.999109620625e-03
9.000000000000e+00 2.770120791006e-03 -1.800000000000e-02 -4.199494112107e+02 -1.694422983615e+00 -7.350974101390e+04 -4.290685662305e+04 7.356134773773e-03 -4.194539073256e-07 -6.036862606195e-03 6.036772802351e-03 3.894551568272e+04 6.357590530703e+04  1.161741814715e-02
1.000000000000e+01 3.206281466505e-03 -2.000000000000e-02 -4.172361724523e+02 -2.164574180976e+00 -7.427423600998e+04 -4.451791198605e+04 8.555838784807e-03 -5.927995359348e-07 -6.710872043208e-03 7.370062443082e-03 3.973646138949e+04 6.436289645341e+04  1.325350222595e-02
1.100000000000e+01 3.646689221480e-03 -2.200000000000e-02 -4.144487232209e+02 -2.578902803230e+00 -7.489729213965e+04 -4.579518694171e+04 9.767497169279e-03 -7.791840596999e-07 -7.384640968804e-03 8.721411531359e-03 4.036897593486e+04 6.501552865088e+04  1.490189198627e-02
1.200000000000e+01 3.944118414900e-03 -2.400000000000e-02 -4.291673471975e+02 -3.387233301165e+00 -7.548127388658e+04 -4.685964340233e+04 1.100921433041e-02 -1.094985848435e-06 -8.071178391849e-03 1.010903121107e-02 4.092336154537e+04 6.560413707657e+04  1.658927536747e-02
1.300000000000e+01 5.550552240613e-04 -2.600000000000e-02 -3.617935943387e+01 -3.696689606891e+00 -7.126023733061e+04 -4.501403358483e+04 1.090753080233e-02 -1.138309731236e-06 -7.904898520156e-03 1.010903121107e-02 3.877015009162e+04 6.238884955527e+04  1.636106893827e-02
1.400000000000e+01 -2.714097367520e-03 -2.800000000000e-02 -6.624806784211e+01 -3.981074018432e+00 -6.800646302025e+04 -4.372455134405e+04 1.081516223589e-02 -1.178123548852e-06 -7.767398075285e-03 1.010903121107e-02 3.726575414405e+04 5.963024225375e+04  1.616495844558e-02
1.500000000000e+01 -5.984100017172e-03 -3.000000000000e-02 -9.586171499483e+01 -4.268073213961e+00 -6.474980774216e+04 -4.243373469168e+04 1.072273211492e-02 -1.218303436226e-06 -7.629789371485e-03 1.010903121107e-02 3.575980138294e+04 5.687985342266e+04  1.596880903005e-02
1.600000000000e+01 -9.255375412887e-03 -3.200000000000e-02 -1.249814378280e+02 -4.556254812964e+00 -6.148839111277e+04 -4.114081592906e+04 1.063018942094e-02 -1.258648860086e-06 -7.491994520812e-03 1.010903121107e-02 3.425139615989e+04 5.413774407177e+04  1.577251516640e-02
1.700000000000e+01 -1.252786967592e-02 -3.400000000000e-02 -1.535024261534e+02 -4.844615318190e+00 -5.822267893699e+04 -3.984593945408e+04 1.053755159851e-02 -1.299019330818e-06 -7.354036021756e-03 1.010903121107e-02 3.274070693907e+04 5.140633965139e+04  1.557611564542e-02
1.800000000000e+01 -1.580154978345e-02 -3.600000000000e-02 -1.813239196872e+02 -5.131403488608e+00 -5.495302365745e+04 -3.854920593967e+04 1.044483274795e-02 -1.339169674677e-06 -7.215931498196e-03 1.010903121107e-02 3.122785117227e+04 4.868839110388e+04  1.537964243794e-02
1.900000000000e+01 -1.912282108019e-02 -3.800000000000e-02 -1.881392346017e+02 -5.429269264647e+00 -5.150840661618e+04 -3.717408524913e+04 1.034809722757e-02 -1.380870883322e-06 -7.071066753645e-03 1.010903121107e-02 2.962354369997e+04 4.586503566238e+04  1.517416202812e-02
2.000000000000e+01 -2.238981838660e-02 -4.000000000000e-02 -2.186873795477e+02 -5.709560655465e+00 -4.826440381743e+04 -3.588870338761e+04 1.025598212712e-02 -1.420111678037e-06 -6.933963288039e-03 1.010903121107e-02 2.812393152819e+04 4.320821141153e+04  1.497930658856e-02
