 TITLE = "Time curves in points"
 VARIABLES = "TIME "  "DISPLACEMENT_X1"  "DISPLACEMENT_Y1"  "STRESS_XX"  "STRESS_XY"  "STRESS_YY"  "STRESS_ZZ"  "STRAIN_XX"  "STRAIN_XY"  "STRAIN_YY"  "STRAIN_PLS"  p_(1st_Invariant)  q_(2nd_Invariant)   Effective_Strain
 ZONE T="POINT=POINT3"
0.000000000000e+00 0.000000000000e+00 0.000000000000e+00 0.000000000000e+00 0.000000000000e+00 0.000000000000e+00 0.000000000000e+00 0.000000000000e+00 0.000000000000e+00 0.000000000000e+00 0.000000000000e+00 -0.000000000000e+00 0.000000000000e+00  0.000000000000e+00
1.000000000000e+00 4.444444560837e-04 -2.000000000000e-03 -2.205009271468e-08 -3.146315983047e-08 -1.587301584514e+04 -6.349206338064e+03 4.444444436630e-04 -4.404842376265e-15 -6.666666654952e-04 0.000000000000e+00 7.407407394408e+03 1.383777439962e+04  9.686442079732e-04
2.000000000000e+00 8.888889588771e-04 -3.999999999998e-03 5.482546839630e-06 1.465029476288e-06 -3.174603142364e+04 -1.269841256726e+04 8.888888800922e-04 2.051041266803e-13 -1.333333319946e-03 0.000000000000e+00 1.481481466181e+04 2.767554857148e+04  1.937288400003e-03
3.000000000000e+00 1.333333401334e-03 -6.000000000000e-03 3.977987338051e-07 9.541953609111e-07 -4.761904736919e+04 -1.904761894752e+04 1.333333326354e-03 1.335873505275e-13 -1.999999989517e-03 0.000000000000e+00 2.222222210544e+04 4.151332305433e+04  2.905932613803e-03
4.000000000000e+00 1.777777777319e-03 -8.000000000000e-03 -2.019672152393e+02 1.728484507264e-07 -6.352160311900e+04 -2.552982157671e+04 1.777777777867e-03 2.426467953070e-14 -2.666666666806e-03 8.845427748952e-06 2.975113063698e+04 5.520077880926e+04  3.874576838903e-03
5.000000000000e+00 2.757030228545e-03 -1.000000000000e-02 -4.127645561724e+02 -5.585905611082e+00 -6.714532219676e+04 -3.074665075796e+04 2.769953995053e-03 -1.018472916284e-06 -3.325225534098e-03 1.038087498414e-03 3.276824583697e+04 5.787159221536e+04  5.285876923635e-03
6.000000000000e+00 3.817190935963e-03 -1.200000000000e-02 -4.270147842936e+02 -6.643968441704e+00 -6.949843895462e+04 -3.486247658762e+04 3.839395589618e-03 -1.468718027565e-06 -3.988731575169e-03 2.180503212817e-03 3.492931010885e+04 5.981769312030e+04  6.779768651039e-03
7.000000000000e+00 4.916109947924e-03 -1.400000000000e-02 -4.264314048755e+02 -6.813158916650e+00 -7.120412929969e+04 -3.813643485999e+04 4.951461295664e-03 -1.811827087870e-06 -4.653126584439e-03 3.387697177427e-03 3.658899852152e+04 6.133921899546e+04  8.319155125859e-03
8.000000000000e+00 6.041440636780e-03 -1.600000000000e-02 -4.228857242974e+02 -6.437883077374e+00 -7.247340430518e+04 -4.072852421360e+04 6.095368069458e-03 -2.067287185308e-06 -5.318381190560e-03 4.642864766380e-03 3.787493808102e+04 6.254422188544e+04  9.892228975385e-03
9.000000000000e+00 7.185833845876e-03 -1.800000000000e-02 -4.183942903862e+02 -5.591639619967e+00 -7.344317250417e+04 -4.277699879369e+04 7.263666928111e-03 -2.220106733085e-06 -5.984649153929e-03 5.934282667029e-03 3.887952186275e+04 6.351095970885e+04  1.149118773933e-02
1.000000000000e+01 8.344651709131e-03 -2.000000000000e-02 -4.138920368663e+02 -4.401657489757e+00 -7.420776635957e+04 -4.439821579759e+04 8.450418537100e-03 -2.269132928443e-06 -6.651865332700e-03 7.252831435978e-03 3.967329139801e+04 6.429916813302e+04  1.310984162441e-02
1.100000000000e+01 9.515156027299e-03 -2.200000000000e-02 -4.098638830740e+02 -3.034735246129e+00 -7.483156202013e+04 -4.568690109589e+04 9.650818371059e-03 -2.227408426190e-06 -7.319773594673e-03 8.591346157009e-03 4.030944233303e+04 6.495387043134e+04  1.474310690024e-02
1.200000000000e+01 1.060009657565e-02 -2.400000000000e-02 -3.737970179876e+02 6.925258244613e+00 -7.526829729830e+04 -4.667208497258e+04 1.087326517754e-02 -4.558770911295e-07 -7.992332705863e-03 9.959394214050e-03 4.077139309629e+04 6.546167308776e+04  1.640146430120e-02
1.300000000000e+01 7.151764085475e-03 -2.600000000000e-02 3.052703287519e+01 5.170059042614e+00 -7.125249908569e+04 -4.490403606719e+04 1.077780443772e-02 -7.016049794093e-07 -7.834990254358e-03 9.959394214050e-03 3.870866937334e+04 6.242846481145e+04  1.618617110355e-02
1.400000000000e+01 3.828962883202e-03 -2.800000000000e-02 3.048712913255e+01 3.568927570874e+00 -6.818672175919e+04 -4.367774109809e+04 1.069196099662e-02 -9.257633854529e-07 -7.706226489340e-03 9.959394214050e-03 3.727799190938e+04 5.985268169742e+04  1.600308196206e-02
1.500000000000e+01 5.052385341377e-04 -3.000000000000e-02 3.044473525828e+01 1.981659484826e+00 -6.511494011544e+04 -4.244904539814e+04 1.060594933005e-02 -1.147980917500e-06 -7.577210473274e-03 9.959394214050e-03 3.584451359277e+04 5.728076054068e+04  1.581972800159e-02
1.600000000000e+01 -2.819875014472e-03 -3.200000000000e-02 3.039292571734e+01 4.069626924591e-01 -6.203383418475e+04 -4.121662374968e+04 1.051967618799e-02 -1.368438468431e-06 -7.447802573518e-03 9.959394214050e-03 3.440668833624e+04 5.471124620556e+04  1.563591466073e-02
1.700000000000e+01 -6.146313055188e-03 -3.400000000000e-02 3.032358230285e+01 -1.154722939771e+00 -5.894388343296e+04 -3.998067118633e+04 1.043315465452e-02 -1.587074456943e-06 -7.318022700327e-03 9.959394214050e-03 3.296474367900e+04 5.214614186191e+04  1.545167442195e-02
1.800000000000e+01 -9.474033747767e-03 -3.600000000000e-02 3.022564474244e+01 -2.704184252711e+00 -5.584537378205e+04 -3.874130650099e+04 1.034639227092e-02 -1.803999040755e-06 -7.187882552737e-03 9.959394214050e-03 3.151881821276e+04 4.958761678918e+04  1.526702822643e-02
1.900000000000e+01 -1.285359868939e-02 -3.800000000000e-02 2.957131710954e+01 -3.767273501580e+00 -5.239787210046e+04 -3.736256755941e+04 1.024983474207e-02 -1.952831535596e-06 -7.043069160936e-03 9.959394214050e-03 2.991028944759e+04 4.675932709556e+04  1.506168124290e-02
2.000000000000e+01 -1.617401412106e-02 -4.000000000000e-02 2.951516601092e+01 -5.393865871828e+00 -4.934933733575e+04 -3.614317611396e+04 1.016447341031e-02 -2.180554467431e-06 -6.915029128588e-03 9.959394214050e-03 2.848766609457e+04 4.427831036527e+04  1.488024836929e-02
