 TITLE = "Time curves in points"
 VARIABLES = "TIME "  "DISPLACEMENT_X1"  "DISPLACEMENT_Y1"  "STRESS_XX"  "STRESS_XY"  "STRESS_YY"  "STRESS_ZZ"  "STRAIN_XX"  "STRAIN_XY"  "STRAIN_YY"  "STRAIN_PLS"  p_(1st_Invariant)  q_(2nd_Invariant)   Effective_Strain
 ZONE T="POINT=POINT6"
0.000000000000e+00 0.000000000000e+00 0.000000000000e+00 0.000000000000e+00 0.000000000000e+00 0.000000000000e+00 0.000000000000e+00 0.000000000000e+00 0.000000000000e+00 0.000000000000e+00 0.000000000000e+00 -0.000000000000e+00 0.000000000000e+00  0.000000000000e+00
1.000000000000e+00 1.777777896758e-04 -2.000000000000e-03 -5.995918602114e-07 -3.006157037916e-08 -1.587301587124e+04 -6.349206348736e+03 4.444444443695e-04 -4.208619853082e-15 -6.666666665753e-04 0.000000000000e+00 7.407407406859e+03 1.383777442188e+04  9.686442095317e-04
2.000000000000e+00 3.555556277144e-04 -3.999999999998e-03 1.650382222983e-06 1.189159056478e-05 -3.174603178908e+04 -1.269841271497e+04 8.888888901636e-04 1.664822679069e-12 -1.333333335188e-03 0.000000000000e+00 1.481481483414e+04 2.767554888681e+04  1.937288422077e-03
3.000000000000e+00 5.333334030420e-04 -6.000000000000e-03 7.073008924231e-07 2.153605243460e-06 -4.761904765293e+04 -1.904761906089e+04 1.333333334312e-03 3.015047340844e-13 -2.000000001443e-03 0.000000000000e+00 2.222222223771e+04 4.151332330196e+04  2.905932631137e-03
4.000000000000e+00 7.111111105856e-04 -8.000000000000e-03 -2.019672148344e+02 -1.598802655534e-07 -6.352160311813e+04 -2.552982157643e+04 1.777777777903e-03 -2.244418963953e-14 -2.666666666806e-03 8.845427799044e-06 2.975113063646e+04 5.520077880882e+04  3.874576838931e-03
5.000000000000e+00 1.078438342817e-03 -1.000000000000e-02 -4.046557899654e+02 1.295930412307e-01 -6.719866825151e+04 -3.086097143142e+04 2.802206162492e-03 2.375549835300e-08 -3.344825527160e-03 1.072662652170e-03 3.282143182430e+04 5.792001153942e+04  5.330394721839e-03
6.000000000000e+00 1.487449522145e-03 -1.200000000000e-02 -4.204436803088e+02 -2.550644128717e-01 -6.955871978823e+04 -3.499615808342e+04 3.887425805951e-03 -4.209748851741e-08 -4.017129226544e-03 2.232693175986e-03 3.499177385065e+04 5.987550384610e+04  6.845852645650e-03
7.000000000000e+00 1.909278631584e-03 -1.400000000000e-02 -4.228101437564e+02 -7.034564207015e-01 -7.126789739378e+04 -3.827535099803e+04 5.014507384796e-03 -1.386567102959e-07 -4.689678227381e-03 3.456822169283e-03 3.665535284519e+04 6.140174817232e+04  8.405640508000e-03
8.000000000000e+00 2.337621164860e-03 -1.600000000000e-02 -4.220868469393e+02 -1.194989851811e+00 -7.253916638083e+04 -4.086546906063e+04 6.173489645986e-03 -2.658514191414e-07 -5.363001456418e-03 4.729062421448e-03 3.794224076280e+04 6.260895876741e+04  9.999109620625e-03
9.000000000000e+00 2.770120791006e-03 -1.800000000000e-02 -4.199494112107e+02 -1.694422983615e+00 -7.350974101390e+04 -4.290685662305e+04 7.356134773773e-03 -4.194539073256e-07 -6.036862606195e-03 6.036772802351e-03 3.894551568272e+04 6.357590530703e+04  1.161741814715e-02
1.000000000000e+01 3.206281466505e-03 -2.000000000000e-02 -4.172361724523e+02 -2.164574180976e+00 -7.427423600998e+04 -4.451791198605e+04 8.555838784807e-03 -5.927995359348e-07 -6.710872043208e-03 7.370062443082e-03 3.973646138949e+04 6.436289645341e+04  1.325350222595e-02
1.100000000000e+01 3.646689221480e-03 -2.200000000000e-02 -4.144487232209e+02 -2.578902803230e+00 -7.489729213965e+04 -4.579518694171e+04 9.767497169279e-03 -7.791840596999e-07 -7.384640968804e-03 8.721411531359e-03 4.036897593486e+04 6.501552865088e+04  1.490189198627e-02
1.200000000000e+01 3.944118354889e-03 -2.400000000000e-02 -4.291673494120e+02 -3.387230743132e+00 -7.548127390269e+04 -4.685964342319e+04 1.100921435578e-02 -1.094985368023e-06 -8.071178405942e-03 1.010903123938e-02 4.092336155843e+04 6.560413709008e+04  1.658927540201e-02
1.300000000000e+01 5.550552783703e-04 -2.600000000000e-02 -3.617937931078e+01 -3.696684753662e+00 -7.126023739746e+04 -4.501403363306e+04 1.090753082838e-02 -1.138308929497e-06 -7.904898535885e-03 1.010903123938e-02 3.877015013661e+04 6.238884959622e+04  1.636106897477e-02
1.400000000000e+01 -2.714097560535e-03 -2.800000000000e-02 -6.624807884055e+01 -3.981072405370e+00 -6.800646290589e+04 -4.372455131624e+04 1.081516225723e-02 -1.178123200736e-06 -7.767398083652e-03 1.010903123938e-02 3.726575410033e+04 5.963024215051e+04  1.616495847181e-02
1.500000000000e+01 -5.984100054068e-03 -3.000000000000e-02 -9.586172240827e+01 -4.268070186438e+00 -6.474980775794e+04 -4.243373471449e+04 1.072273214006e-02 -1.218302890086e-06 -7.629789385418e-03 1.010903123938e-02 3.575980139828e+04 5.687985343177e+04  1.596880906427e-02
1.600000000000e+01 -9.255375485896e-03 -3.200000000000e-02 -1.249814182113e+02 -4.556255704643e+00 -6.148839111935e+04 -4.114081593737e+04 1.063018944696e-02 -1.258648862635e-06 -7.491994535115e-03 1.010903123938e-02 3.425139615831e+04 5.413774409687e+04  1.577251520173e-02
1.700000000000e+01 -1.252786978391e-02 -3.400000000000e-02 -1.535024298134e+02 -4.844612902883e+00 -5.822267891557e+04 -3.984593946050e+04 1.053755162276e-02 -1.299018870388e-06 -7.354036034232e-03 1.010903123938e-02 3.274070693530e+04 5.140633963331e+04  1.557611567766e-02
1.800000000000e+01 -1.580154985588e-02 -3.600000000000e-02 -1.813239473106e+02 -5.131405182439e+00 -5.495302364517e+04 -3.854920595934e+04 1.044483277146e-02 -1.339169789526e-06 -7.215931510385e-03 1.010903123938e-02 3.122785118394e+04 4.868839107293e+04  1.537964246927e-02
1.900000000000e+01 -1.912282113827e-02 -3.800000000000e-02 -1.881392382328e+02 -5.429265221395e+00 -5.150840661581e+04 -3.717408526397e+04 1.034809725242e-02 -1.380870194980e-06 -7.071066767006e-03 1.010903123938e-02 2.962354370600e+04 4.586503566228e+04  1.517416206163e-02
2.000000000000e+01 -2.238981847141e-02 -4.000000000000e-02 -2.186873891836e+02 -5.709558043716e+00 -4.826440378204e+04 -3.588870339084e+04 1.025598215073e-02 -1.420111190105e-06 -6.933963299761e-03 1.010903123938e-02 2.812393152069e+04 4.320821137833e+04  1.497930661963e-02
