 TITLE = "Time curves in points"
 VARIABLES = "TIME "  "DISPLACEMENT_X1"  "DISPLACEMENT_Y1"  "STRESS_XX"  "STRESS_XY"  "STRESS_YY"  "STRESS_ZZ"  "STRAIN_XX"  "STRAIN_XY"  "STRAIN_YY"  "STRAIN_PLS"  p_(1st_Invariant)  q_(2nd_Invariant)   Effective_Strain
 ZONE T="POINT=POINT3"
0.000000000000e+00 0.000000000000e+00 0.000000000000e+00 0.000000000000e+00 0.000000000000e+00 0.000000000000e+00 0.000000000000e+00 0.000000000000e+00 0.000000000000e+00 0.000000000000e+00 0.000000000000e+00 -0.000000000000e+00 0.000000000000e+00  0.000000000000e+00
1.000000000000e+00 0.000000000000e+00 -5.000000000000e-05 -1.613178395105e+04 1.487109738920e-04 -3.764057471350e+04 -1.613170759937e+04 -5.220243668039e-10 2.033504605153e-12 -1.470583480947e-04 0.000000000000e+00 2.330135542131e+04 2.150882893840e+04  1.470580870832e-04
2.000000000000e+00 0.000000000000e+00 -1.000000000000e-04 -3.226348655727e+04 1.488293960178e-04 -7.528121375007e+04 -3.226341009220e+04 -5.227995855244e-10 2.035123933786e-12 -2.941171708867e-04 0.000000000000e+00 4.660270346651e+04 4.301776542538e+04  2.941169094873e-04
3.000000000000e+00 0.000000000000e+00 -1.500000000000e-04 -4.839518900877e+04 1.488085778423e-04 -1.129218529266e+05 -4.839511258061e+04 -5.225472349960e-10 2.034839261750e-12 -4.411759946659e-04 0.000000000000e+00 6.990405150533e+04 6.452670213194e+04  4.411757333926e-04
4.000000000000e+00 0.000000000000e+00 -2.000000000000e-04 -6.452689159463e+04 1.488964611842e-04 -1.505624919728e+05 -6.452681507023e+04 -5.232052638850e-10 2.036040996739e-12 -5.882348175458e-04 0.000000000000e+00 9.320539954589e+04 8.603563864039e+04  5.882345559433e-04
5.000000000000e+00 0.000000000000e+00 -2.500000000000e-04 -8.065859390061e+04 1.487019594659e-04 -1.882031312838e+05 -8.065851755533e+04 -5.219805649996e-10 2.033381340027e-12 -7.352936422672e-04 0.000000000000e+00 1.165067475799e+05 1.075445755559e+05  7.352933812770e-04
6.000000000000e+00 0.000000000000e+00 -3.000000000000e-04 -9.907649731241e+04 4.957613145437e-02 -2.170739387675e+05 -9.907652960921e+04 -5.225868070788e-10 2.035059452845e-12 -8.823524652304e-04 5.057869264170e-05 1.384089885630e+05 1.179974253067e+05  8.823522039371e-04
