 TITLE = "Profiles along polylines"
 VARIABLES = "DIST" "DISPLACEMENT_X1" "DISPLACEMENT_Y1" "STRESS_XX" "STRESS_XY" "STRESS_YY" "STRESS_ZZ" "STRAIN_XX" "STRAIN_XY" "STRAIN_YY" "STRAIN_PLS"  p_(1st_Invariant)  q_(2nd_Invariant)   Effective_Strain
 ZONE T="TIME=0.000000000000e+00"
0.000000000000e+00 0.000000000000e+00 0.000000000000e+00 0.000000000000e+00 0.000000000000e+00 0.000000000000e+00 0.000000000000e+00 0.000000000000e+00 0.000000000000e+00 0.000000000000e+00 0.000000000000e+00 -0.000000000000e+00 0.000000000000e+00  0.000000000000e+00
2.000000000000e-02 0.000000000000e+00 0.000000000000e+00 0.000000000000e+00 0.000000000000e+00 0.000000000000e+00 0.000000000000e+00 0.000000000000e+00 0.000000000000e+00 0.000000000000e+00 0.000000000000e+00 -0.000000000000e+00 0.000000000000e+00  0.000000000000e+00
4.000000000000e-02 0.000000000000e+00 0.000000000000e+00 0.000000000000e+00 0.000000000000e+00 0.000000000000e+00 0.000000000000e+00 0.000000000000e+00 0.000000000000e+00 0.000000000000e+00 0.000000000000e+00 -0.000000000000e+00 0.000000000000e+00  0.000000000000e+00
6.000000000000e-02 0.000000000000e+00 0.000000000000e+00 0.000000000000e+00 0.000000000000e+00 0.000000000000e+00 0.000000000000e+00 0.000000000000e+00 0.000000000000e+00 0.000000000000e+00 0.000000000000e+00 -0.000000000000e+00 0.000000000000e+00  0.000000000000e+00
8.000000000000e-02 0.000000000000e+00 0.000000000000e+00 0.000000000000e+00 0.000000000000e+00 0.000000000000e+00 0.000000000000e+00 0.000000000000e+00 0.000000000000e+00 0.000000000000e+00 0.000000000000e+00 -0.000000000000e+00 0.000000000000e+00  0.000000000000e+00
1.000000000000e-01 0.000000000000e+00 0.000000000000e+00 0.000000000000e+00 0.000000000000e+00 0.000000000000e+00 0.000000000000e+00 0.000000000000e+00 0.000000000000e+00 0.000000000000e+00 0.000000000000e+00 -0.000000000000e+00 0.000000000000e+00  0.000000000000e+00
1.200000000000e-01 0.000000000000e+00 0.000000000000e+00 0.000000000000e+00 0.000000000000e+00 0.000000000000e+00 0.000000000000e+00 0.000000000000e+00 0.000000000000e+00 0.000000000000e+00 0.000000000000e+00 -0.000000000000e+00 0.000000000000e+00  0.000000000000e+00
1.400000000000e-01 0.000000000000e+00 0.000000000000e+00 0.000000000000e+00 0.000000000000e+00 0.000000000000e+00 0.000000000000e+00 0.000000000000e+00 0.000000000000e+00 0.000000000000e+00 0.000000000000e+00 -0.000000000000e+00 0.000000000000e+00  0.000000000000e+00
1.600000000000e-01 0.000000000000e+00 0.000000000000e+00 0.000000000000e+00 0.000000000000e+00 0.000000000000e+00 0.000000000000e+00 0.000000000000e+00 0.000000000000e+00 0.000000000000e+00 0.000000000000e+00 -0.000000000000e+00 0.000000000000e+00  0.000000000000e+00
1.800000000000e-01 0.000000000000e+00 0.000000000000e+00 0.000000000000e+00 0.000000000000e+00 0.000000000000e+00 0.000000000000e+00 0.000000000000e+00 0.000000000000e+00 0.000000000000e+00 0.000000000000e+00 -0.000000000000e+00 0.000000000000e+00  0.000000000000e+00
2.000000000000e-01 0.000000000000e+00 0.000000000000e+00 0.000000000000e+00 0.000000000000e+00 0.000000000000e+00 0.000000000000e+00 0.000000000000e+00 0.000000000000e+00 0.000000000000e+00 0.000000000000e+00 -0.000000000000e+00 0.000000000000e+00  0.000000000000e+00
2.200000000000e-01 0.000000000000e+00 0.000000000000e+00 0.000000000000e+00 0.000000000000e+00 0.000000000000e+00 0.000000000000e+00 0.000000000000e+00 0.000000000000e+00 0.000000000000e+00 0.000000000000e+00 -0.000000000000e+00 0.000000000000e+00  0.000000000000e+00
2.400000000000e-01 0.000000000000e+00 0.000000000000e+00 0.000000000000e+00 0.000000000000e+00 0.000000000000e+00 0.000000000000e+00 0.000000000000e+00 0.000000000000e+00 0.000000000000e+00 0.000000000000e+00 -0.000000000000e+00 0.000000000000e+00  0.000000000000e+00
2.600000000000e-01 0.000000000000e+00 0.000000000000e+00 0.000000000000e+00 0.000000000000e+00 0.000000000000e+00 0.000000000000e+00 0.000000000000e+00 0.000000000000e+00 0.000000000000e+00 0.000000000000e+00 -0.000000000000e+00 0.000000000000e+00  0.000000000000e+00
2.800000000000e-01 0.000000000000e+00 0.000000000000e+00 0.000000000000e+00 0.000000000000e+00 0.000000000000e+00 0.000000000000e+00 0.000000000000e+00 0.000000000000e+00 0.000000000000e+00 0.000000000000e+00 -0.000000000000e+00 0.000000000000e+00  0.000000000000e+00
3.000000000000e-01 0.000000000000e+00 0.000000000000e+00 0.000000000000e+00 0.000000000000e+00 0.000000000000e+00 0.000000000000e+00 0.000000000000e+00 0.000000000000e+00 0.000000000000e+00 0.000000000000e+00 -0.000000000000e+00 0.000000000000e+00  0.000000000000e+00
3.200000000000e-01 0.000000000000e+00 0.000000000000e+00 0.000000000000e+00 0.000000000000e+00 0.000000000000e+00 0.000000000000e+00 0.000000000000e+00 0.000000000000e+00 0.000000000000e+00 0.000000000000e+00 -0.000000000000e+00 0.000000000000e+00  0.000000000000e+00
3.400000000000e-01 0.000000000000e+00 0.000000000000e+00 0.000000000000e+00 0.000000000000e+00 0.000000000000e+00 0.000000000000e+00 0.000000000000e+00 0.000000000000e+00 0.000000000000e+00 0.000000000000e+00 -0.000000000000e+00 0.000000000000e+00  0.000000000000e+00
 ZONE T="TIME=6.000000000000e+00"
0.000000000000e+00 -5.335060371260e-12 0.000000000000e+00 -9.907650503203e+04 1.200497275922e+01 -2.170737886763e+05 -9.907660697643e+04 -5.453056256722e-13 -2.218464356214e-12 -8.823529305455e-04 5.058014375342e-05 1.384089668949e+05 1.179972345042e+05  8.823529302728e-04
2.000000000000e-02 -5.640994366263e-12 -1.764705862644e-05 -9.907649183718e+04 1.030663703281e+01 -2.170738225125e+05 -9.907659379291e+04 -4.539850640664e-13 -1.114294163135e-10 -8.823529315614e-04 5.057990899315e-05 1.384089693809e+05 1.179972810478e+05  8.823529313344e-04
4.000000000000e-02 -6.264979076880e-12 -3.529411726830e-05 -9.907647037142e+04 7.218951028328e+00 -2.170738779975e+05 -9.907657220220e+04 -1.380206105850e-12 -1.925771755307e-10 -8.823529326224e-04 5.057952376310e-05 1.384089735237e+05 1.179973573732e+05  8.823529319324e-04
6.000000000000e-02 -6.305940690758e-12 -5.294117594158e-05 -9.907645971279e+04 5.055209268781e+00 -2.170739052871e+05 -9.907656167189e+04 -4.124453913590e-13 -2.312863974857e-10 -8.823529346245e-04 5.057933573093e-05 1.384089755572e+05 1.179973949196e+05  8.823529344183e-04
8.000000000000e-02 -4.997283569252e-12 -7.058823466727e-05 -9.907645485921e+04 3.539978586413e+00 -2.170739190525e+05 -9.907655682061e+04 -3.927184731750e-13 -2.298370026090e-10 -8.823529377991e-04 5.057924463969e-05 1.384089769108e+05 1.179974133720e+05  8.823529376028e-04
1.000000000000e-01 -2.222423302247e-12 -8.823529344923e-05 -9.907645222144e+04 2.479036918280e+00 -2.170739257404e+05 -9.907655447240e+04 1.778817325389e-12 -2.065673884427e-10 -8.823529409113e-04 5.057920148048e-05 1.384089774781e+05 1.179974224717e+05  8.823529418008e-04
1.200000000000e-01 1.229714285653e-12 -1.058823522888e-04 -9.907645111393e+04 1.735343309060e+00 -2.170739291837e+05 -9.907655345258e+04 2.435713741337e-12 -1.872387456086e-10 -8.823529432165e-04 5.057918067805e-05 1.384089779167e+05 1.179974269387e+05  8.823529444344e-04
1.400000000000e-01 3.923121088147e-12 -1.235294111569e-04 -9.907645078934e+04 1.212667387614e+00 -2.170739310007e+05 -9.907655301097e+04 1.557722038862e-12 -1.919915754067e-10 -8.823529440961e-04 5.057916995734e-05 1.384089782670e+05 1.179974291193e+05  8.823529448750e-04
1.600000000000e-01 4.426134160548e-12 -1.411764700391e-04 -9.907645039441e+04 8.440013697367e-01 -2.170739317461e+05 -9.907655270395e+04 2.217160780344e-12 -2.279320100219e-10 -8.823529444906e-04 5.057916495242e-05 1.384089782815e+05 1.179974302060e+05  8.823529455993e-04
1.800000000000e-01 2.097030087583e-12 -1.588235289295e-04 -9.907645061410e+04 5.834994109799e-01 -2.170739323615e+05 -9.907655269188e+04 4.806360929829e-13 -2.830038115103e-10 -8.823529445167e-04 5.057916182748e-05 1.384089785558e+05 1.179974307129e+05  8.823529447571e-04
2.000000000000e-01 -2.391446053817e-12 -1.764705878154e-04 -9.907645043929e+04 4.002191078043e-01 -2.170739324897e+05 -9.907655258311e+04 9.770425719811e-13 -3.307914618123e-10 -8.823529445464e-04 5.057916066142e-05 1.384089785040e+05 1.179974309805e+05  8.823529450351e-04
2.200000000000e-01 -7.117344823073e-12 -1.941176467132e-04 -9.907645038874e+04 2.731435951501e-01 -2.170739326097e+05 -9.907655260328e+04 1.507757604157e-12 -3.426947487514e-10 -8.823529452835e-04 5.057916065580e-05 1.384089785339e+05 1.179974311147e+05  8.823529460376e-04
2.400000000000e-01 -9.652377485367e-12 -2.117647056071e-04 -9.907645075092e+04 1.873098544056e-01 -2.170739328422e+05 -9.907655263876e+04 -9.423093844045e-13 -3.021329148995e-10 -8.823529442529e-04 5.057915897720e-05 1.384089787440e+05 1.179974311478e+05  8.823529437819e-04
2.600000000000e-01 -8.199775661053e-12 -2.294117644902e-04 -9.907645046037e+04 1.309992022548e-01 -2.170739327063e+05 -9.907655255380e+04 5.982650054062e-13 -2.158836481998e-10 -8.823529445886e-04 5.057915945781e-05 1.384089785735e+05 1.179974311995e+05  8.823529448878e-04
2.800000000000e-01 -2.627108372073e-12 -2.470588233784e-04 -9.907645073542e+04 9.437951100412e-02 -2.170739328424e+05 -9.907655256758e+04 -1.361090893549e-12 -1.128412101544e-10 -8.823529435789e-04 5.057915816740e-05 1.384089787151e+05 1.179974311910e+05  8.823529428983e-04
3.000000000000e-01 5.212816537713e-12 -2.647058822508e-04 -9.907645092768e+04 6.953736556494e-02 -2.170739329778e+05 -9.907655265337e+04 -2.158776949548e-12 -2.842777663723e-11 -8.823529437698e-04 5.057915804671e-05 1.384089788529e+05 1.179974311874e+05  8.823529426904e-04
3.200000000000e-01 1.213643854239e-11 -2.823529411311e-04 -9.907645091659e+04 5.095257767992e-02 -2.170739329622e+05 -9.907655262780e+04 -2.265991066479e-12 1.303680000324e-11 -8.823529435181e-04 5.057915782809e-05 1.384089788355e+05 1.179974311901e+05  8.823529423851e-04
3.400000000000e-01 1.522214817484e-11 -3.000000000000e-04 -9.907645139746e+04 4.244471178449e-02 -2.170739332225e+05 -9.907655273678e+04 -5.053003523937e-12 1.304834081836e-11 -8.823529427012e-04 5.057915652173e-05 1.384089791189e+05 1.179974311554e+05  8.823529401747e-04
