 TITLE = "Time curves in points"
 VARIABLES = "TIME "  "DISPLACEMENT_X1"  "DISPLACEMENT_Y1"  "STRESS_XX"  "STRESS_XY"  "STRESS_YY"  "STRESS_ZZ"  "STRAIN_XX"  "STRAIN_XY"  "STRAIN_YY"  "STRAIN_ZZ"  p_(1st_Invariant)  q_(2nd_Invariant)   Effective_Strain
 ZONE T="POINT=POINT3"
0.000000000000e+00 0.000000000000e+00 0.000000000000e+00 0.000000000000e+00 0.000000000000e+00 0.000000000000e+00 0.000000000000e+00 0.000000000000e+00 0.000000000000e+00 0.000000000000e+00 0.000000000000e+00 -0.000000000000e+00 0.000000000000e+00  0.000000000000e+00
2.000000000000e+00 0.000000000000e+00 0.000000000000e+00 -4.991512088262e+05 9.350163583360e-07 -4.991512088248e+05 -3.344313092064e+05 -1.029322431380e-05 1.162948002149e-16 -1.029322431372e-05 3.307993188905e-14 4.442445756191e+05 1.647198996191e+05  1.029322434684e-05
4.000000000000e+00 0.000000000000e+00 0.000000000000e+00 -9.993908447503e+05 -7.954618599262e+01 -9.993049177400e+05 -6.694801540824e+05 -2.067656416250e-05 -1.002007420363e-08 -2.067115784145e-05 3.906839398844e-09 8.893919721909e+05 3.298677643297e+05  2.067777565476e-05
6.000000000000e+00 0.000000000000e+00 0.000000000000e+00 -1.499646687651e+06 -1.638570455451e+02 -1.499471356431e+06 -1.004495088266e+06 -3.112626870707e-05 -2.070535846783e-08 -3.111520344867e-05 9.904690032161e-09 1.334537710783e+06 4.950640384111e+05  3.113066289988e-05
8.000000000000e+00 0.000000000000e+00 0.000000000000e+00 -1.999898258723e+06 -2.477609289923e+02 -1.999634211078e+06 -1.339504601480e+06 -4.164171362984e-05 -3.140583862393e-08 -4.162499768990e-05 1.607333212059e-08 1.779679023760e+06 6.602618124756e+05  4.164946703028e-05
1.000000000000e+01 0.000000000000e+00 0.000000000000e+00 -2.500147836512e+06 -3.314837976591e+02 -2.499795401096e+06 -1.674512579837e+06 -5.222336807293e-05 -4.215042150373e-08 -5.220098691597e-05 2.229569223466e-08 2.224818605815e+06 8.254592950687e+05  5.223452780252e-05
1.200000000000e+01 0.000000000000e+00 0.000000000000e+00 -3.000396068423e+06 -4.151292126951e+02 -2.999955430309e+06 -2.009520096420e+06 -6.287167268209e-05 -5.295266266069e-08 -6.284360252041e-05 2.853901438339e-08 2.669957198384e+06 9.906559873801e+05  6.288624819654e-05
1.400000000000e+01 0.000000000000e+00 0.000000000000e+00 -3.500643200195e+06 -4.987487579561e+02 -3.500114475738e+06 -2.344527575004e+06 -7.358705905811e-05 -6.381959057937e-08 -7.355327155395e-05 3.478960915698e-08 3.115095083646e+06 1.155851676473e+06  7.360504373400e-05
1.600000000000e+01 0.000000000000e+00 0.000000000000e+00 -4.000889343539e+06 -5.823715107009e+02 -4.000272611152e+06 -2.679535221387e+06 -8.436995638503e-05 -7.475540835441e-08 -8.433042058292e-05 4.104029771043e-08 3.560232392026e+06 1.321046249029e+06  8.439133505702e-05
1.800000000000e+01 0.000000000000e+00 0.000000000000e+00 -4.501134558565e+06 -6.660154024404e+02 -4.500429873547e+06 -3.014543146612e+06 -9.522079413795e-05 -8.576292140135e-08 -9.517547739526e-05 4.728697101362e-08 4.005369192908e+06 1.486239642422e+06  9.524554665972e-05
2.000000000000e+01 0.000000000000e+00 0.000000000000e+00 -5.001378880499e+06 -7.496922802431e+02 -5.000586283026e+06 -3.349551418107e+06 -1.061400030864e-04 -9.684417392555e-08 -1.060888715738e-04 5.352691003569e-08 4.450505527211e+06 1.651431816808e+06  1.061681059834e-04
2.720000000000e+01 0.000000000000e+00 -3.000000000000e-05 -5.002568364106e+06 -8.397172138170e+02 -5.001685976734e+06 -8.434076922615e+06 -2.241891370744e-05 -1.085543207853e-07 -2.236189645444e-05 -2.499428362593e-04 6.146110421151e+06 3.431950145459e+06  2.275525142150e-04
3.440000000000e+01 0.000000000000e+00 -6.000000000000e-05 -5.014926047950e+06 -1.085318711800e+04 -5.009629146636e+06 -1.370021827864e+07 6.058964645317e-05 -1.373935464254e-06 6.092551239122e-05 -4.987770239171e-04 7.908257824409e+06 8.687962229460e+06  5.595397394596e-04
4.160000000000e+01 0.000000000000e+00 -9.000000000000e-05 -4.998350537852e+06 -1.239242447394e+04 -4.992235072648e+06 -1.879488648770e+07 1.449077785100e-04 -1.574961968930e-06 1.452981946707e-04 -7.494625914048e-04 9.595157366067e+06 1.379961139186e+07  8.945698011715e-04
4.880000000000e+01 0.000000000000e+00 -1.200000000000e-04 -4.988326051996e+06 -9.574313344779e+02 -4.987036444532e+06 -2.367134611124e+07 2.294545166722e-04 -1.308561220784e-08 2.295129088981e-04 -1.000826840615e-03 1.121556953592e+07 1.868366496995e+07  1.230310554648e-03
5.600000000000e+01 0.000000000000e+00 -1.500000000000e-04 -4.978949003811e+06 9.164230501021e+03 -4.982018661277e+06 -2.832835028604e+07 3.139656168695e-04 1.434536563109e-06 3.137102036486e-04 -1.252117125760e-03 1.276310598371e+07 2.334787200039e+07  1.565957022860e-03
6.320000000000e+01 0.000000000000e+00 -1.800000000000e-04 -4.970381269378e+06 1.827056375202e+04 -4.977414539923e+06 -3.278559962721e+07 3.984515824252e-04 2.795476744735e-06 3.978982018524e-04 -1.503378559581e-03 1.424446514550e+07 2.781172039348e+07  1.901559676552e-03
7.040000000000e+01 0.000000000000e+00 -2.100000000000e-04 -4.962575412898e+06 2.652837696423e+04 -4.973237034462e+06 -3.705963908717e+07 4.829148698579e-04 4.082683070512e-06 4.820771418220e-04 -1.754617700416e-03 1.566515051151e+07 3.209176708595e+07  2.237125000075e-03
7.760000000000e+01 0.000000000000e+00 -2.400000000000e-04 -4.955454723551e+06 3.405566099112e+04 -4.969453551488e+06 -4.116498477844e+07 5.673573609296e-04 5.304394809483e-06 5.662474437313e-04 -2.005837357024e-03 1.702996435116e+07 3.620258072495e+07  2.572656344163e-03
8.480000000000e+01 0.000000000000e+00 -2.700000000000e-04 -4.948944190002e+06 4.094551479800e+04 -4.966024411568e+06 -4.511448338731e+07 6.517807219580e-04 6.466926156444e-06 6.504096370740e-04 -2.257039436649e-03 1.834315066296e+07 4.015706443506e+07  2.908156429604e-03
9.200000000000e+01 0.000000000000e+00 -2.999999999999e-04 -4.942975774435e+06 4.727448588599e+04 -4.962910859912e+06 -4.891956233167e+07 7.361864218594e-04 7.575487958584e-06 7.345642486047e-04 -2.508225345157e-03 1.960848298867e+07 4.396669865083e+07  3.243627523539e-03
9.920000000000e+01 0.000000000000e+00 -3.300000000000e-04 -4.937489868571e+06 5.310675745838e+04 -4.960078005291e+06 -5.259043381969e+07 8.205757539128e-04 8.634522693427e-06 8.187117655684e-04 -2.759396211646e-03 2.082933389785e+07 4.764174269695e+07  3.579071581789e-03
1.064000000000e+02 0.000000000000e+00 -3.600000000000e-04 -4.932434015043e+06 5.849679307883e+04 -4.957494492452e+06 -5.613626226281e+07 9.049498997776e-04 9.647883760715e-06 9.028526680536e-04 -3.010553035354e-03 2.200873025677e+07 5.119140287683e+07  3.914490408906e-03
1.136000000000e+02 0.000000000000e+00 -3.900000000000e-04 -4.927763264978e+06 6.349130829730e+04 -4.955133548529e+06 -5.956530266319e+07 9.893098773747e-04 1.061896879002e-05 9.869873557158e-04 -3.261696633942e-03 2.314939982556e+07 5.462397009662e+07  4.249885526242e-03
1.208000000000e+02 0.000000000000e+00 -4.200000000000e-04 -4.923437373689e+06 6.813057132071e+04 -4.952970706009e+06 -6.288501861523e+07 1.073656681963e-03 1.155078165779e-05 1.071116273103e-03 -3.512827865196e-03 2.425380889831e+07 5.794694037583e+07  4.585258517324e-03
1.280000000000e+02 0.000000000000e+00 -4.500000000000e-04 -4.919421872285e+06 7.244964893214e+04 -4.950985254919e+06 -6.610217828409e+07 1.157991149107e-03 1.244602477310e-05 1.155239763606e-03 -3.763947378580e-03 2.532419513710e+07 6.116710954832e+07  4.920610632914e-03
1.352000000000e+02 0.000000000000e+00 -4.800000000000e-04 -4.915686666097e+06 7.647910225148e+04 -4.949159163797e+06 -6.922293931725e+07 1.242314027348e-03 1.330711405577e-05 1.239358133414e-03 -4.015055748449e-03 2.636259504905e+07 6.429065940509e+07  5.255942989341e-03
1.424000000000e+02 0.000000000000e+00 -5.100000000000e-04 -4.912204643514e+06 8.024578604783e+04 -4.947475966672e+06 -7.225292106970e+07 1.326626055343e-03 1.413623894188e-05 1.323471719606e-03 -4.266153599231e-03 2.737086722663e+07 6.732323116760e+07  5.591256764760e-03
1.496000000000e+02 0.000000000000e+00 -5.400000000000e-04 -4.908952497680e+06 8.377328924280e+04 -4.945921742385e+06 -7.519726444593e+07 1.410927861707e-03 1.493536687408e-05 1.407580790199e-03 -4.517241436588e-03 2.835071289533e+07 7.026998442683e+07  5.926552929075e-03
1.568000000000e+02 0.000000000000e+00 -5.700000000001e-04 -4.905909373323e+06 8.708258953110e+04 -4.944484017767e+06 -7.806068536235e+07 1.495220041501e-03 1.570631179273e-05 1.491685606824e-03 -4.768319754215e-03 2.930369291781e+07 7.313565183047e+07  6.261832420081e-03
1.640000000000e+02 0.000000000000e+00 -6.000000000000e-04 -4.903056784756e+06 9.019225763999e+04 -4.943151754702e+06 -8.084752002744e+07 1.579503134023e-03 1.645071589723e-05 1.575786407060e-03 -5.019388993502e-03 3.023124285563e+07 7.592458440969e+07  6.597096082568e-03
1.712000000000e+02 0.000000000000e+00 -6.300000000000e-04 -4.900378265125e+06 9.311884379242e+04 -4.941915151909e+06 -8.356176487190e+07 1.663777637627e-03 1.717008274647e-05 1.659883412417e-03 -5.270449568264e-03 3.113468609631e+07 7.864079178429e+07  6.932344704408e-03
1.784000000000e+02 0.000000000000e+00 -6.600000000000e-04 -4.897859067693e+06 9.587715061493e+04 -4.940765447547e+06 -8.620711130739e+07 1.748044020674e-03 1.786579414500e-05 1.743976836483e-03 -5.521501883009e-03 3.201524527421e+07 8.128797716980e+07  7.267579044315e-03
1.856000000000e+02 0.000000000000e+00 -6.900000000000e-04 -4.895486007720e+06 9.848045057343e+04 -4.939694842410e+06 -8.878697566722e+07 1.832302709310e-03 1.853912144898e-05 1.828066870871e-03 -5.772546296194e-03 3.287405217245e+07 8.386956743605e+07  7.602799781934e-03
1.928000000000e+02 0.000000000000e+00 -7.200000000000e-04 -4.893247522533e+06 1.009406795432e+05 -4.938696631831e+06 -9.130452607114e+07 1.916554080209e-03 1.919123752959e-05 1.912153676089e-03 -6.023583124357e-03 3.371215674183e+07 8.638873987648e+07  7.938007513805e-03
2.000000000000e+02 0.000000000000e+00 -7.500000000000e-04 -4.891132971125e+06 1.032685874579e+05 -4.937764578817e+06 -9.376270614010e+07 2.000798505881e-03 1.982322336469e-05 1.996237423610e-03 -6.274612700619e-03 3.453053456335e+07 8.884844658689e+07  8.273202855566e-03
2.072000000000e+02 0.000000000000e+00 -7.800000000000e-04 -4.889132576250e+06 1.054739055825e+05 -4.936892891085e+06 -9.616425547592e+07 2.085036343425e-03 2.043608394403e-05 2.080318285550e-03 -6.525635345858e-03 3.533009364775e+07 9.125143498612e+07  8.608386402451e-03
2.144000000000e+02 0.000000000000e+00 -8.100000000000e-04 -4.887237998647e+06 1.075654508046e+05 -4.936076863359e+06 -9.851172790760e+07 2.169267882298e-03 2.103075183978e-05 2.164396378120e-03 -6.776651300039e-03 3.611168092320e+07 9.360026545437e+07  8.943558606246e-03
2.216000000000e+02 0.000000000000e+00 -8.400000000000e-04 -4.885441316732e+06 1.095512220174e+05 -4.935311879964e+06 -1.008075083929e+08 2.253493426300e-03 2.160809167762e-05 2.248471844764e-03 -7.027660839716e-03 3.687608719652e+07 9.589732924399e+07  9.278719975398e-03
2.288000000000e+02 0.000000000000e+00 -8.700000000000e-04 -4.883735379699e+06 1.114385028599e+05 -4.934593811481e+06 -1.030538273489e+08 2.337713255788e-03 2.216890965497e-05 2.332544816086e-03 -7.278664220091e-03 3.762405218002e+07 9.814486243565e+07  9.613870978222e-03
2.360000000000e+02 0.000000000000e+00 -8.999999999999e-04 -4.882113823822e+06 1.132339334722e+05 -4.933919060686e+06 -1.052527736215e+08 2.421927617483e-03 2.271395695507e-05 2.416615398802e-03 -7.529661655958e-03 3.835626883534e+07 1.003449588767e+08  9.949012013261e-03
2.432000000000e+02 0.000000000000e+00 -9.300000000000e-04 -4.880570676816e+06 1.149435772993e+05 -4.933284190763e+06 -1.074063068048e+08 2.506136773137e-03 2.324393391359e-05 2.500683723962e-03 -7.780653415871e-03 3.907338722413e+07 1.024995828848e+08  1.028414355195e-02
2.504000000000e+02 0.000000000000e+00 -9.600000000001e-04 -4.879100708144e+06 1.165730227641e+05 -4.932686303346e+06 -1.095162665254e+08 2.590340921877e-03 2.375950734480e-05 2.584749867841e-03 -8.031639648608e-03 3.977601784565e+07 1.046105781682e+08  1.061926588682e-02
2.576000000000e+02 0.000000000000e+00 -9.900000000000e-04 -4.877698913161e+06 1.181273290184e+05 -4.932122535668e+06 -1.115843834795e+08 2.674540297117e-03 2.426128089792e-05 2.668813949391e-03 -8.282620600104e-03 4.046473497610e+07 1.066796793721e+08  1.095437944543e-02
2.648000000000e+02 0.000000000000e+00 -1.020000000000e-03 -4.876360848305e+06 1.196112030674e+05 -4.931590426045e+06 -1.136122867861e+08 2.758735091480e-03 2.474983970197e-05 2.752876052565e-03 -8.533596444144e-03 4.114007935349e+07 1.087085190825e+08  1.128948454503e-02
2.720000000000e+02 0.000000000000e+00 -1.050000000000e-03 -4.875082363460e+06 1.210289474616e+05 -4.931087645340e+06 -1.156015121748e+08 2.842925492306e-03 2.522572378453e-05 2.836936264047e-03 -8.784567353313e-03 4.180256072785e+07 1.106986362809e+08  1.162458149993e-02
2.792000000000e+02 0.000000000000e+00 -1.080000000000e-03 -4.873859693557e+06 1.223845476051e+05 -4.930612126928e+06 -1.175535091472e+08 2.927111679751e-03 2.568944758013e-05 2.920994666831e-03 -9.035533507881e-03 4.245266032257e+07 1.126514833967e+08  1.195967062636e-02
2.864000000000e+02 0.000000000000e+00 -1.110000000000e-03 -4.872689335464e+06 1.236816684979e+05 -4.930161929109e+06 -1.194696470115e+08 3.011293820096e-03 2.614149059932e-05 3.005051337634e-03 -9.286495063782e-03 4.309083275871e+07 1.145684324707e+08  1.229475220581e-02
2.936000000000e+02 0.000000000000e+00 -1.140000000000e-03 -4.871568133650e+06 1.249236931366e+05 -4.929735343763e+06 -1.213512209434e+08 3.095472068648e-03 2.658230286364e-05 3.089106347452e-03 -9.537452177113e-03 4.371750814027e+07 1.164507811200e+08  1.262982651125e-02
3.008000000000e+02 0.000000000000e+00 -1.170000000000e-03 -4.870493066366e+06 1.261137749502e+05 -4.929330704863e+06 -1.231994570642e+08 3.179646578849e-03 2.701231659266e-05 3.173159768109e-03 -9.788404995105e-03 4.433309361181e+07 1.182997578185e+08  1.296489380608e-02
3.080000000000e+02 0.000000000000e+00 -1.200000000000e-03 -4.869461408668e+06 1.272548257457e+05 -4.928946541766e+06 -1.250155173865e+08 3.263817491610e-03 2.743193587986e-05 3.257211664541e-03 -1.003935365847e-02 4.493797511230e+07 1.201165266845e+08  1.329995433716e-02
3.152000000000e+02 0.000000000000e+00 -1.230000000000e-03 -4.868470632416e+06 1.283495476667e+05 -4.928581495006e+06 -1.268005041575e+08 3.347984940547e-03 2.784154244579e-05 3.341262098375e-03 -1.029029830069e-02 4.553251876165e+07 1.219021919163e+08  1.363500833860e-02
3.224000000000e+02 0.000000000000e+00 -1.260000000000e-03 -4.867518384761e+06 1.294004560061e+05 -4.928234302782e+06 -1.285554638862e+08 3.432149052677e-03 2.824149893239e-05 3.425311128206e-03 -1.054123904809e-02 4.611707219124e+07 1.236578018366e+08  1.397005603232e-02
3.296000000000e+02 0.000000000000e+00 -1.290000000000e-03 -4.866602483785e+06 1.304098911720e+05 -4.927903802066e+06 -1.302813911136e+08 3.516309951379e-03 2.863214873782e-05 3.509358812483e-03 -1.079217602999e-02 4.669196579983e+07 1.253843526652e+08  1.430509764118e-02
3.368000000000e+02 0.000000000000e+00 -1.320000000000e-03 -4.865720913766e+06 1.313800311975e+05 -4.927588926666e+06 -1.319792316406e+08 3.600467747611e-03 2.901381644428e-05 3.593405201106e-03 -1.104310935416e-02 4.725751382702e+07 1.270827917492e+08  1.464013335579e-02
3.440000000000e+02 0.000000000000e+00 -1.350000000000e-03 -4.864871771739e+06 1.323129225429e+05 -4.927288674435e+06 -1.336498858511e+08 3.684622554749e-03 2.938681596955e-05 3.677450347019e-03 -1.129403913931e-02 4.781401543244e+07 1.287540209304e+08  1.497516338033e-02
3.512000000000e+02 0.000000000000e+00 -1.380000000000e-03 -4.864053316655e+06 1.332104530224e+05 -4.927002130144e+06 -1.352942114220e+08 3.768774473358e-03 2.975143618236e-05 3.761494296946e-03 -1.154496548703e-02 4.836175562294e+07 1.303988992182e+08  1.531018789208e-02
3.584000000000e+02 0.000000000000e+00 -1.410000000000e-03 -4.863263922376e+06 1.340744049939e+05 -4.926728455159e+06 -1.369130261801e+08 3.852923606999e-03 3.010795878446e-05 3.845537100589e-03 -1.179588851470e-02 4.890100618588e+07 1.320182456763e+08  1.564520708706e-02
3.656000000000e+02 0.000000000000e+00 -1.440000000000e-03 -4.862502047201e+06 1.349064405839e+05 -4.926466842953e+06 -1.385071102003e+08 3.937070045876e-03 3.045664940780e-05 3.929578797702e-03 -1.204680830531e-02 4.943202636348e+07 1.336128415575e+08  1.598022111510e-02
3.728000000000e+02 0.000000000000e+00 -1.470000000000e-03 -4.861766272530e+06 1.357081191743e+05 -4.926216567238e+06 -1.400772084434e+08 4.021213881781e-03 3.079776196826e-05 4.013619431688e-03 -1.229772495994e-02 4.995506376104e+07 1.351834328987e+08  1.631523014656e-02
3.800000000000e+02 0.000000000000e+00 -1.500000000000e-03 -4.861055267910e+06 1.364809016228e+05 -4.925976947917e+06 -1.416240326430e+08 4.105355200231e-03 3.113153785186e-05 4.097659042095e-03 -1.254863856869e-02 5.047035495295e+07 1.367307324422e+08  1.665023433572e-02
3.872000000000e+02 0.000000000000e+00 -1.530000000000e-03 -4.860367783540e+06 1.372261601080e+05 -4.925747348298e+06 -1.431482633092e+08 4.189494084042e-03 3.145820769907e-05 4.181697667688e-03 -1.279954922038e-02 5.097812614701e+07 1.382554216443e+08  1.698523383369e-02
3.944000000000e+02 0.000000000000e+00 -1.560000000000e-03 -4.859702652751e+06 1.379451837161e+05 -4.925527179397e+06 -1.446505515125e+08 4.273630611592e-03 3.177799161327e-05 4.265735344786e-03 -1.305045699898e-02 5.147859378155e+07 1.397581524562e+08  1.732022878320e-02
4.016000000000e+02 0.000000000000e+00 -1.590000000000e-03 -4.859058780851e+06 1.386391845142e+05 -4.925315891173e+06 -1.461315205609e+08 4.357764857699e-03 3.209109976728e-05 4.349772108060e-03 -1.330136198473e-02 5.197196507765e+07 1.412395490109e+08  1.765521932057e-02
4.088000000000e+02 0.000000000000e+00 -1.620000000000e-03 -4.858435141096e+06 1.393093039051e+05 -4.925112972021e+06 -1.475917675332e+08 4.441896892370e-03 3.239773333392e-05 4.433807988885e-03 -1.355226425003e-02 5.245843854877e+07 1.427002091587e+08  1.799020557013e-02
4.160000000000e+02 0.000000000000e+00 -1.650000000000e-03 -4.857830758846e+06 1.399566157251e+05 -4.924917932897e+06 -1.490318649002e+08 4.526026792119e-03 3.269808411089e-05 4.517843027059e-03 -1.380316389080e-02 5.293820453066e+07 1.441407061046e+08  1.832518768713e-02
4.232000000000e+02 0.000000000000e+00 -1.680000000000e-03 -4.857244740314e+06 1.405821351371e+05 -4.924730340555e+06 -1.504523615007e+08 4.610154614781e-03 3.299233696459e-05 4.601877244927e-03 -1.405406095798e-02 5.341144552720e+07 1.455615893529e+08  1.866016576370e-02
4.304000000000e+02 0.000000000000e+00 -1.710000000000e-03 -4.856676227120e+06 1.411868167927e+05 -4.924549771514e+06 -1.518537841773e+08 4.694280426041e-03 3.328066745406e-05 4.685910674380e-03 -1.430495552752e-02 5.387833672532e+07 1.469633863891e+08  1.899513992561e-02
4.376000000000e+02 0.000000000000e+00 -1.740000000000e-03 -4.856124415442e+06 1.417715673553e+05 -4.924375835073e+06 -1.532366387590e+08 4.778404285885e-03 3.356324632295e-05 4.769943342692e-03 -1.455584766433e-02 5.433904633650e+07 1.483466036413e+08  1.933011028238e-02
4.448000000000e+02 0.000000000000e+00 -1.770000000000e-03 -4.855588537584e+06 1.423372298812e+05 -4.924208152169e+06 -1.546014112747e+08 4.862526257205e-03 3.384023062946e-05 4.853975282078e-03 -1.480673744513e-02 5.479373598815e+07 1.497117277133e+08  1.966507695917e-02
4.520000000000e+02 0.000000000000e+00 -1.800000000000e-03 -4.855067901748e+06 1.428846212721e+05 -4.924046403878e+06 -1.559485687969e+08 4.946646389861e-03 3.411178067676e-05 4.938006511888e-03 -1.505762491923e-02 5.524256103419e+07 1.510592261845e+08  2.000004004079e-02
4.592000000000e+02 0.000000000000e+00 -1.830000000000e-03 -4.854561814429e+06 1.434145017608e+05 -4.923890248003e+06 -1.572785605932e+08 5.030764741059e-03 3.437804402375e-05 5.022037060665e-03 -1.530851015277e-02 5.568567088520e+07 1.523895488418e+08  2.033499963703e-02
4.664000000000e+02 0.000000000000e+00 -1.860000000000e-03 -4.854069645822e+06 1.439275934850e+05 -4.923739389109e+06 -1.585918189390e+08 5.114881361961e-03 3.463916347645e-05 5.106066951841e-03 -1.555939320417e-02 5.612320932463e+07 1.537031284246e+08  2.066995584440e-02
4.736000000000e+02 0.000000000000e+00 -1.890000000000e-03 -4.853590799442e+06 1.444245840346e+05 -4.923593547937e+06 -1.598887599671e+08 5.198996301301e-03 3.489527793441e-05 5.190096207624e-03 -1.581027412835e-02 5.655531477151e+07 1.550003815049e+08  2.100490875400e-02
4.808000000000e+02 0.000000000000e+00 -1.920000000000e-03 -4.853124696646e+06 1.449061209446e+05 -4.923452448773e+06 -1.611697844778e+08 5.283109608386e-03 3.514651864002e-05 5.274124851479e-03 -1.606115298156e-02 5.698212054107e+07 1.562817093110e+08  2.133985845916e-02
4.880000000000e+02 0.000000000000e+00 -1.950000000000e-03 -4.852670806694e+06 1.453728210353e+05 -4.923315848137e+06 -1.624352786762e+08 5.367221328463e-03 3.539301307567e-05 5.358152904043e-03 -1.631202981617e-02 5.740375511033e+07 1.575474984364e+08  2.167480504582e-02
4.952000000000e+02 0.000000000000e+00 -1.980000000000e-03 -4.852228619472e+06 1.458252701919e+05 -4.923183510092e+06 -1.636856148745e+08 5.451331506252e-03 3.563488405959e-05 5.442180386159e-03 -1.656290468415e-02 5.782034233469e+07 1.587981215673e+08  2.200974859932e-02
5.024000000000e+02 0.000000000000e+00 -2.010000000000e-03 -4.851797640507e+06 1.462640244365e+05 -4.923055201043e+06 -1.649211521232e+08 5.535440184579e-03 3.587224952933e-05 5.526207317744e-03 -1.681377763210e-02 5.823200165492e+07 1.600339381192e+08  2.234468919824e-02
5.096000000000e+02 0.000000000000e+00 -2.040000000000e-03 -4.851377435886e+06 1.466896104642e+05 -4.922930735081e+06 -1.661422369123e+08 5.619547403625e-03 3.610522207885e-05 5.610233717082e-03 -1.706464871144e-02 5.863884836110e+07 1.612552948927e+08  2.267962692375e-02
5.168000000000e+02 0.000000000000e+00 -2.070000000000e-03 -4.850967550566e+06 1.471025336625e+05 -4.922809896082e+06 -1.673492036432e+08 5.703653204385e-03 3.633391263236e-05 5.694259603410e-03 -1.731551796626e-02 5.904099369662e+07 1.624625266256e+08  2.301456185058e-02
5.240000000000e+02 0.000000000000e+00 -2.100000000000e-03 -4.850567580752e+06 1.475032725106e+05 -4.922692506581e+06 -1.685423752748e+08 5.787757624982e-03 3.655842676922e-05 5.778284994322e-03 -1.756638544319e-02 5.943854512072e+07 1.636559565684e+08  2.334949405369e-02
5.312000000000e+02 0.000000000000e+00 -2.130000000000e-03 -4.850177136781e+06 1.478922780603e+05 -4.922578391985e+06 -1.697220637895e+08 5.871860701895e-03 3.677886374112e-05 5.862309906783e-03 -1.781725118506e-02 5.983160643942e+07 1.648358969861e+08  2.368442360310e-02
5.384000000000e+02 0.000000000000e+00 -2.160000000000e-03 -4.849795847091e+06 1.482699918487e+05 -4.922467389978e+06 -1.708885707000e+08 5.955962470799e-03 3.699532602094e-05 5.946334356559e-03 -1.806811523339e-02 6.022027797902e+07 1.660026496591e+08  2.401935056647e-02
5.456000000000e+02 0.000000000000e+00 -2.190000000000e-03 -4.849423346420e+06 1.486368224780e+05 -4.922359331486e+06 -1.720421875185e+08 6.040062968043e-03 3.720790550159e-05 6.030358361862e-03 -1.831897763171e-02 6.060465673213e+07 1.671565063673e+08  2.435427501505e-02
5.528000000000e+02 0.000000000000e+00 -2.220000000000e-03 -4.849059306406e+06 1.489931654030e+05 -4.922254077316e+06 -1.731831961791e+08 6.124162225406e-03 3.741669423485e-05 6.114381936503e-03 -1.856983841734e-02 6.098483652095e+07 1.682977492793e+08  2.468919700931e-02
5.600000000000e+02 0.000000000000e+00 -2.250000000000e-03 -4.848703416380e+06 1.493393977521e+05 -4.922151498123e+06 -1.743118694623e+08 6.208260273306e-03 3.762178102990e-05 6.198405093442e-03 -1.882069762608e-02 6.136090812559e+07 1.694266513959e+08  2.502411660713e-02
5.672000000000e+02 0.000000000000e+00 -2.280000000000e-03 -4.848355356250e+06 1.496758785830e+05 -4.922051447309e+06 -1.754284714281e+08 6.292357147863e-03 3.782325113544e-05 6.282427851941e-03 -1.907155530563e-02 6.173295941057e+07 1.705434770112e+08  2.535903388424e-02
5.744000000000e+02 0.000000000000e+00 -2.310000000000e-03 -4.848014841705e+06 1.500029515103e+05 -4.921953806387e+06 -1.765332576530e+08 6.376452873995e-03 3.802118736499e-05 6.366450220712e-03 -1.932241147858e-02 6.210107543371e+07 1.716484819033e+08  2.569394888038e-02
5.816000000000e+02 0.000000000000e+00 -2.340000000000e-03 -4.847681598638e+06 1.503209444621e+05 -4.921858460570e+06 -1.776264757812e+08 6.460547484180e-03 3.821566955311e-05 6.450472216426e-03 -1.957326619085e-02 6.246533861347e+07 1.727419139114e+08  2.602886166635e-02
5.888000000000e+02 0.000000000000e+00 -2.370000000000e-03 -4.847355360941e+06 1.506301714085e+05 -4.921765296208e+06 -1.787083656836e+08 6.544641005502e-03 3.840677521980e-05 6.534493850945e-03 -1.982411947271e-02 6.282582878025e+07 1.738240130968e+08  2.636377229220e-02
5.960000000000e+02 0.000000000000e+00 -2.400000000000e-03 -4.847035877039e+06 1.509309319645e+05 -4.921674208146e+06 -1.797791598592e+08 6.628733465025e-03 3.859457896567e-05 6.618515136535e-03 -2.007497135673e-02 6.318262331479e+07 1.748950121371e+08  2.669868081045e-02
6.032000000000e+02 0.000000000000e+00 -2.430000000000e-03 -4.846722904166e+06 1.512235132845e+05 -4.921585094298e+06 -1.808390837269e+08 6.712824890003e-03 3.877915329763e-05 6.702536086053e-03 -2.032582187682e-02 6.353579724177e+07 1.759551366240e+08  2.703358727534e-02
6.104000000000e+02 0.000000000000e+00 -2.460000000000e-03 -4.846416220950e+06 1.515081903615e+05 -4.921497867612e+06 -1.818883558913e+08 6.796915304232e-03 3.896056849832e-05 6.786556709573e-03 -2.057667106169e-02 6.388542332663e+07 1.770046053167e+08  2.736849173274e-02
6.176000000000e+02 0.000000000000e+00 -2.490000000000e-03 -4.846115592194e+06 1.517852263183e+05 -4.921412423104e+06 -1.829271884621e+08 6.881004737561e-03 3.913889250545e-05 6.870577023254e-03 -2.082751895164e-02 6.423157215913e+07 1.780436304953e+08  2.770339424623e-02
6.248000000000e+02 0.000000000000e+00 -2.520000000000e-03 -4.845820821081e+06 1.520548729931e+05 -4.921328687982e+06 -1.839557871961e+08 6.965093208089e-03 3.931419098424e-05 6.954597032264e-03 -2.107836556275e-02 6.457431223505e+07 1.790724180516e+08  2.803829484374e-02
6.320000000000e+02 0.000000000000e+00 -2.550000000000e-03 -4.845531699810e+06 1.523173725718e+05 -4.921246574340e+06 -1.849743519072e+08 7.049180743389e-03 3.948652810990e-05 7.038616751408e-03 -2.132921093413e-02 6.491371006043e+07 1.800911679477e+08  2.837319358578e-02
6.392000000000e+02 0.000000000000e+00 -2.580000000000e-03 -4.845248042779e+06 1.525729564738e+05 -4.921166011885e+06 -1.859830765720e+08 7.133267364790e-03 3.965596558385e-05 7.122636189615e-03 -2.158005509190e-02 6.524983020888e+07 1.811000742884e+08  2.870809051382e-02
6.464000000000e+02 0.000000000000e+00 -2.610000000000e-03 -4.844969665097e+06 1.528218473159e+05 -4.921086926579e+06 -1.869821495856e+08 7.217353093453e-03 3.982256366867e-05 7.206655356030e-03 -2.183089806054e-02 6.558273539242e+07 1.820993255985e+08  2.904298566769e-02
6.536000000000e+02 0.000000000000e+00 -2.640000000000e-03 -4.844696389875e+06 1.530642571128e+05 -4.921009245637e+06 -1.879717539897e+08 7.301437950340e-03 3.998637974376e-05 7.290674260812e-03 -2.208173986610e-02 6.591248654174e+07 1.830891050448e+08  2.937787908917e-02
6.608000000000e+02 0.000000000000e+00 -2.670000000000e-03 -4.844428048501e+06 1.533003927980e+05 -4.920932906263e+06 -1.889520676857e+08 7.385521957818e-03 4.014747181087e-05 7.374692913943e-03 -2.233258053831e-02 6.623914288017e+07 1.840695906445e+08  2.971277082436e-02
6.680000000000e+02 0.000000000000e+00 -2.700000000000e-03 -4.844164479586e+06 1.535304497232e+05 -4.920857844490e+06 -1.899232635850e+08 7.469605135392e-03 4.030589387477e-05 7.458711324415e-03 -2.258342010111e-02 6.656276196969e+07 1.850409554219e+08  3.004766091162e-02
6.752000000000e+02 0.000000000000e+00 -2.730000000000e-03 -4.843905524812e+06 1.537546164716e+05 -4.920783996997e+06 -1.908855098140e+08 7.553687502684e-03 4.046169899744e-05 7.542729501239e-03 -2.283425857822e-02 6.688339977861e+07 1.860033676145e+08  3.038254938915e-02
6.824000000000e+02 0.000000000000e+00 -2.760000000000e-03 -4.843651047166e+06 1.539730755268e+05 -4.920711318859e+06 -1.918389699127e+08 7.637769078237e-03 4.061493959109e-05 7.626747452461e-03 -2.308509599612e-02 6.720111075958e+07 1.869569908534e+08  3.071743629686e-02
6.896000000000e+02 0.000000000000e+00 -2.790000000000e-03 -4.843400893585e+06 1.541860011092e+05 -4.920639745364e+06 -1.927838029469e+08 7.721849881108e-03 4.076566573271e-05 7.710765187073e-03 -2.333593237635e-02 6.751594786195e+07 1.879019843134e+08  3.105232167048e-02
6.968000000000e+02 0.000000000000e+00 -2.820000000000e-03 -4.843154926844e+06 1.543935610902e+05 -4.920569224559e+06 -1.937201637152e+08 7.805929929515e-03 4.091392631724e-05 7.794782713481e-03 -2.358676774236e-02 6.782796262221e+07 1.888385028879e+08  3.138720554690e-02
7.040000000000e+02 0.000000000000e+00 -2.850000000000e-03 -4.842913019440e+06 1.545959169696e+05 -4.920499711225e+06 -1.946482028962e+08 7.890009241369e-03 4.105976887918e-05 7.878800040040e-03 -2.383760211905e-02 6.813720520894e+07 1.897666973419e+08  3.172208796430e-02
7.112000000000e+02 0.000000000000e+00 -2.880000000000e-03 -4.842675056625e+06 1.547932238905e+05 -4.920431169823e+06 -1.955680671574e+08 7.974087830386e-03 4.120323943994e-05 7.962817171237e-03 -2.408843552254e-02 6.844372446130e+07 1.906867144184e+08  3.205696894801e-02
7.184000000000e+02 0.000000000000e+00 -2.910000000000e-03 -4.842440899674e+06 1.549856317537e+05 -4.920363538547e+06 -1.964798993346e+08 8.058165716291e-03 4.134438316118e-05 8.046834117646e-03 -2.433926797718e-02 6.874756792428e+07 1.915986970533e+08  3.239184853765e-02
7.256000000000e+02 0.000000000000e+00 -2.940000000000e-03 -4.842210440854e+06 1.551732844980e+05 -4.920296783592e+06 -1.973838385588e+08 8.142242914328e-03 4.148324367887e-05 8.130850885727e-03 -2.459009950431e-02 6.904878192775e+07 1.925027844486e+08  3.272672676555e-02