 TITLE = "Time curves in points"
 VARIABLES = "TIME "  "DISPLACEMENT_X1"  "DISPLACEMENT_Y1"  "STRESS_XX"  "STRESS_XY"  "STRESS_YY"  "STRESS_ZZ"  "STRAIN_XX"  "STRAIN_XY"  "STRAIN_YY"  "STRAIN_ZZ"  p_(1st_Invariant)  q_(2nd_Invariant)   Effective_Strain
 ZONE T="POINT=POINT3"
0.000000000000e+00 0.000000000000e+00 0.000000000000e+00 0.000000000000e+00 0.000000000000e+00 0.000000000000e+00 0.000000000000e+00 0.000000000000e+00 0.000000000000e+00 0.000000000000e+00 0.000000000000e+00 -0.000000000000e+00 0.000000000000e+00  0.000000000000e+00
2.000000000000e+00 0.000000000000e+00 0.000000000000e+00 -4.990699114466e+05 9.352689025896e-07 -4.990699114453e+05 -3.343768399622e+05 -1.029322431380e-05 1.162948002149e-16 -1.029322431372e-05 3.307993188905e-14 4.441722209514e+05 1.646930714838e+05  1.029322434684e-05
4.000000000000e+00 0.000000000000e+00 0.000000000000e+00 -9.989648227575e+05 -4.896869000121e+00 -9.989199809880e+05 -6.695278714821e+05 -2.060071934680e-05 -6.284648566047e-10 -2.059791360812e-05 -1.107180619599e-08 8.891375584092e+05 3.294145327889e+05  2.058824484342e-05
6.000000000000e+00 0.000000000000e+00 0.000000000000e+00 -1.498862989019e+06 -9.978170533962e+00 -1.498773067718e+06 -1.004682245417e+06 -3.090832494050e-05 -1.279999491923e-09 -3.090269858103e-05 -2.220176797505e-08 1.334106100718e+06 4.941357893900e+05  3.088331045675e-05
8.000000000000e+00 0.000000000000e+00 0.000000000000e+00 -1.998760431501e+06 -1.496475692348e+01 -1.998625604757e+06 -1.339835759107e+06 -4.121597686259e-05 -1.919595087497e-09 -4.120754078769e-05 -3.331144382897e-08 1.779073931788e+06 6.588572698784e+05  4.117844816364e-05
1.000000000000e+01 0.000000000000e+00 0.000000000000e+00 -2.498657178265e+06 -1.985721404558e+01 -2.498477620987e+06 -1.674988341865e+06 -5.152367710169e-05 -2.547326002256e-09 -5.151244226762e-05 -4.439663233436e-08 2.224041047039e+06 8.235790731595e+05  5.147366416097e-05
1.200000000000e+01 0.000000000000e+00 0.000000000000e+00 -2.998553276371e+06 -2.465941190375e+01 -2.998329160345e+06 -2.010139964638e+06 -6.183142763001e-05 -3.163677845203e-09 -6.181740479731e-05 -5.545454690739e-08 2.669007467118e+06 9.883012737016e+05  6.176896310361e-05
1.400000000000e+01 0.000000000000e+00 0.000000000000e+00 -3.498448758661e+06 -2.937603342566e+01 -3.498180252179e+06 -2.345290608915e+06 -7.213922980548e-05 -3.769237629609e-09 -7.212242951555e-05 -6.648334617957e-08 3.113973206585e+06 1.153023921075e+06  7.206434807879e-05
1.600000000000e+01 0.000000000000e+00 0.000000000000e+00 -3.998343648432e+06 -3.401244735472e+01 -3.998030915982e+06 -2.680440265779e+06 -8.244708453430e-05 -4.364677920548e-09 -8.242751709017e-05 -7.748194194792e-08 3.558938276731e+06 1.317747045576e+06  8.235982096060e-05
1.800000000000e+01 0.000000000000e+00 0.000000000000e+00 -4.498237964074e+06 -3.857432860143e+01 -4.497881166220e+06 -3.015588929458e+06 -9.275499251679e-05 -4.950709446126e-09 -9.273266797541e-05 -8.844954900085e-08 4.003902686584e+06 1.482470669397e+06  9.265538311098e-05
2.000000000000e+01 0.000000000000e+00 0.000000000000e+00 -4.998131717965e+06 -4.306756101124e+01 -4.997731011304e+06 -3.350736599190e+06 -1.030629541838e-04 -5.528068960175e-09 -1.030378823535e-04 -9.938580588177e-08 4.448866442820e+06 1.647194803688e+06  1.029510351977e-04
2.720000000000e+01 0.000000000000e+00 -3.000000000000e-05 -4.998946766243e+06 -4.943768429700e+01 -4.998510529519e+06 -8.522539328047e+06 -1.932610499264e-05 -6.592074197608e-09 -1.929869642160e-05 -2.501145163263e-04 6.173332207937e+06 3.523810701458e+06  2.308021171222e-04
3.440000000000e+01 0.000000000000e+00 -6.000000000000e-05 -5.043962461553e+06 3.251358525690e+04 -5.051264083742e+06 -1.378299917917e+07 6.458935536879e-05 4.098306990708e-06 6.410685521408e-05 -5.029694207773e-04 7.959408574821e+06 8.735569719303e+06  5.673620875156e-04
4.160000000000e+01 0.000000000000e+00 -9.000000000000e-05 -5.091102189794e+06 6.515158423887e+04 -5.106164608245e+06 -1.903396960644e+07 1.484716404502e-04 8.223410585983e-06 1.474763603315e-04 -7.558633920976e-04 9.743745468160e+06 1.393579920772e+07  9.039500254120e-04
4.880000000000e+01 0.000000000000e+00 -1.200000000000e-04 -5.133930340129e+06 9.596392476457e+04 -5.155918170609e+06 -2.427030756161e+07 2.324218051618e-04 1.212517181557e-05 2.309679822107e-04 -1.008749757616e-03 1.152005202412e+07 1.912611503766e+07  1.240623060208e-03
5.600000000000e+01 0.000000000000e+00 -1.500000000000e-04 -5.172254058968e+06 1.249369018054e+05 -5.200322832810e+06 -2.949252751344e+07 3.164369018022e-04 1.580035551715e-05 3.145795310757e-04 -1.261607086824e-03 1.328836813507e+07 2.430721448848e+07  1.577353549734e-03
6.320000000000e+01 0.000000000000e+00 -1.800000000000e-04 -5.206052635331e+06 1.522038752585e+05 -5.239434486896e+06 -3.470068856679e+07 4.004989363453e-04 1.926464935763e-05 3.982880488920e-04 -1.514373740807e-03 1.504872522967e+07 2.947913797210e+07  1.914059056011e-03
7.040000000000e+01 0.000000000000e+00 -2.100000000000e-04 -5.235478637093e+06 1.779868792679e+05 -5.273549191326e+06 -3.989448123039e+07 4.845747705564e-04 2.254523025670e-05 4.820509514581e-04 -1.766949075112e-03 1.680116968627e+07 3.464135477545e+07  2.250601790770e-03
7.760000000000e+01 0.000000000000e+00 -2.400000000000e-04 -5.260844112979e+06 2.026156479168e+05 -5.303198846750e+06 -4.507370805261e+07 5.686232656080e-04 2.568316025443e-05 5.658125546114e-04 -2.019213376875e-03 1.854591700411e+07 3.979325099873e+07  2.586814953089e-03
8.480000000000e+01 0.000000000000e+00 -2.700000000000e-04 -5.282531458379e+06 2.264829260106e+05 -5.329000262459e+06 -5.023805828762e+07 6.525928584286e-04 2.872752604318e-05 6.495057297811e-04 -2.271019520314e-03 2.028319666949e+07 4.493402280926e+07  2.922493646910e-03
9.200000000000e+01 0.000000000000e+00 -3.000000000000e-04 -5.300701909966e+06 2.499676208486e+05 -5.351263331866e+06 -5.538680985375e+07 7.364252962788e-04 3.172543205224e-05 7.330622693248e-04 -2.522192741212e-03 2.201292503186e+07 5.006271858392e+07  3.257401343561e-03
9.920000000000e+01 0.000000000000e+00 -3.300000000000e-04 -5.315263524479e+06 2.732981468434e+05 -5.369947388536e+06 -6.051952282594e+07 8.200717649216e-04 3.470464785117e-05 8.164298674294e-04 -2.772577435264e-03 2.373491124632e+07 5.517896817419e+07  3.591332721519e-03
1.064000000000e+02 0.000000000000e+00 -3.600000000000e-04 -5.325977303533e+06 2.965857808430e+05 -5.384813695508e+06 -6.563578237745e+07 9.034914485200e-04 3.767816841104e-05 8.995676161206e-04 -3.022036165517e-03 2.544885779216e+07 6.028259722191e+07  3.924109869221e-03
1.136000000000e+02 0.000000000000e+00 -3.900000000000e-04 -5.332579922287e+06 3.198173786583e+05 -5.395569857336e+06 -7.073482068375e+07 9.866490085518e-04 4.064363341701e-05 9.824420645855e-04 -3.270448254797e-03 2.715432348779e+07 6.537311550570e+07  4.255577652112e-03
1.208000000000e+02 0.000000000000e+00 -4.200000000000e-04 -5.334899130555e+06 3.427963930022e+05 -5.401987015439e+06 -7.581530734564e+07 1.069516254676e-03 4.357620192499e-05 1.065028806454e-03 -3.517721774022e-03 2.885073116388e+07 7.044939027087e+07  4.585617137541e-03
1.280000000000e+02 0.000000000000e+00 -4.500000000000e-04 -5.332922717835e+06 3.651028797365e+05 -5.403968458173e+06 -8.087535536551e+07 1.152075736905e-03 4.642366158455e-05 1.147316128568e-03 -3.763808496227e-03 3.053741551384e+07 7.550958290250e+07  4.914164042125e-03
1.352000000000e+02 0.000000000000e+00 -4.800000000000e-04 -5.326801735767e+06 3.861294591681e+05 -5.401555800274e+06 -8.591286112946e+07 1.234320894108e-03 4.911058409959e-05 1.229304969395e-03 -4.008704460479e-03 3.221373955517e+07 8.055148483528e+07  5.241209493648e-03
1.424000000000e+02 0.000000000000e+00 -5.100000000000e-04 -5.316856211363e+06 4.051688179328e+05 -5.394928738465e+06 -9.092610357272e+07 1.316247557097e-03 5.154842540110e-05 1.311000783228e-03 -4.252425880764e-03 3.387929617418e+07 8.557311542842e+07  5.566767961428e-03
1.496000000000e+02 0.000000000000e+00 -5.400000000000e-04 -5.303552580984e+06 4.214994518159e+05 -5.384369044673e+06 -9.591471623569e+07 1.397849950568e-03 5.364543259981e-05 1.392410465972e-03 -4.494997234915e-03 3.553421262045e+07 9.057372478654e+07  5.890862159758e-03
1.568000000000e+02 0.000000000000e+00 -5.700000000000e-04 -5.287614415492e+06 4.344665980289e+05 -5.370354662118e+06 -1.008804058880e+08 1.479122505626e-03 5.531656839693e-05 1.473545309443e-03 -4.736465004692e-03 3.717945832188e+07 9.555441141041e+07  6.213539524363e-03
1.640000000000e+02 0.000000000000e+00 -6.000000000000e-04 -5.270082726806e+06 4.435389645214e+05 -5.353631811541e+06 -1.058261985451e+08 1.560062422415e-03 5.649090075045e-05 1.554422670652e-03 -4.976907454348e-03 3.881663769447e+07 1.005173030772e+08  6.534884371948e-03
1.712000000000e+02 0.000000000000e+00 -6.300000000000e-04 -5.251989960359e+06 4.482888941510e+05 -5.334961966689e+06 -1.107546692627e+08 1.640666742516e-03 5.710923783568e-05 1.635058239370e-03 -5.216399161366e-03 4.044720706325e+07 1.054640760835e+08  6.854977081285e-03
1.784000000000e+02 0.000000000000e+00 -6.600000000000e-04 -5.234088208867e+06 4.483698903289e+05 -5.314901353316e+06 -1.156668516415e+08 1.720930859174e-03 5.712135207243e-05 1.715461271265e-03 -5.454985857485e-03 4.207194706789e+07 1.103951106614e+08  7.173865755650e-03
1.856000000000e+02 0.000000000000e+00 -6.900000000000e-04 -5.216949848332e+06 4.435664752157e+05 -5.293901800297e+06 -1.205611482669e+08 1.800852594969e-03 5.649277975233e-05 1.795638571425e-03 -5.692703155541e-03 4.369066663850e+07 1.153083011880e+08  7.491589130379e-03
1.928000000000e+02 0.000000000000e+00 -7.200000000000e-04 -5.201186486241e+06 4.339884775745e+05 -5.272557367987e+06 -1.254293469134e+08 1.880445246107e-03 5.523110373850e-05 1.875605415959e-03 -5.929627097443e-03 4.530103025587e+07 1.201948414104e+08  7.808239586251e-03
2.000000000000e+02 0.000000000000e+00 -7.499999999998e-04 -5.187836447657e+06 4.206985546714e+05 -5.252152394412e+06 -1.302543578430e+08 1.959776255766e-03 5.347092458720e-05 1.955413679408e-03 -6.166003950616e-03 4.689811556170e+07 1.250364990735e+08  8.124127711773e-03
2.072000000000e+02 0.000000000000e+00 -7.800000000000e-04 -5.178640600720e+06 4.063289731802e+05 -5.235124234225e+06 -1.350288006375e+08 2.039004638933e-03 5.156085688176e-05 2.035178128731e-03 -6.402371275371e-03 4.848085515747e+07 1.298238350721e+08  8.439935812765e-03
2.144000000000e+02 0.000000000000e+00 -8.100000000000e-04 -5.174815700052e+06 3.931195178931e+05 -5.223294493443e+06 -1.397556520472e+08 2.118261145185e-03 4.980463822808e-05 2.114991292259e-03 -6.639159549567e-03 5.005125408025e+07 1.345583262916e+08  8.756211163801e-03
2.216000000000e+02 0.000000000000e+00 -8.400000000000e-04 -5.176567130017e+06 3.818829402990e+05 -5.217075629008e+06 -1.444371064057e+08 2.197584397177e-03 4.831787560920e-05 2.194879095753e-03 -6.876488295595e-03 5.161024972159e+07 1.392418604753e+08  9.073106320434e-03
2.288000000000e+02 0.000000000000e+00 -8.700000000000e-04 -5.183721486746e+06 3.728383470110e+05 -5.216329313609e+06 -1.490744068103e+08 2.276974487417e-03 4.713684509940e-05 2.274840056547e-03 -7.114349503200e-03 5.315815253687e+07 1.438758334429e+08  9.390611873951e-03
2.360000000000e+02 0.000000000000e+00 -9.000000000000e-04 -5.196019268642e+06 3.660190485133e+05 -5.220776969863e+06 -1.536683912565e+08 2.356419459053e-03 4.627268438522e-05 2.354864223595e-03 -7.352697057476e-03 5.469506249832e+07 1.484613482757e+08  9.708669809608e-03
2.432000000000e+02 0.000000000000e+00 -9.300000000000e-04 -5.213209296165e+06 3.613964350495e+05 -5.230131588650e+06 -1.582196347007e+08 2.435903275619e-03 4.572800903781e-05 2.434938755890e-03 -7.591474085440e-03 5.622099186185e+07 1.529992454364e+08  1.002720794741e-02
2.504000000000e+02 0.000000000000e+00 -9.600000000000e-04 -5.235080735370e+06 3.589214261878e+05 -5.244142885880e+06 -1.627285123076e+08 2.515408703458e-03 4.550255856229e-05 2.515049967260e-03 -7.830622868439e-03 5.773591197630e+07 1.574901276751e+08  1.034615239439e-02
2.576000000000e+02 0.000000000000e+00 -9.900000000000e-04 -5.261474962491e+06 3.585399136417e+05 -5.262614488795e+06 -1.671952376652e+08 2.594918371925e-03 4.559535717247e-05 2.595184047136e-03 -8.070088589021e-03 5.923977570550e+07 1.619343837151e+08  1.066543218934e-02
2.648000000000e+02 0.000000000000e+00 -1.020000000000e-03 -5.292289428769e+06 3.601991079439e+05 -5.285410262143e+06 -1.716198793840e+08 2.674414919282e-03 4.600564514893e-05 2.675327046878e-03 -8.309820042068e-03 6.073252635830e+07 1.663321996879e+08  1.098498006826e-02
2.720000000000e+02 0.000000000000e+00 -1.050000000000e-03 -5.327476674950e+06 3.638499070835e+05 -5.312454381010e+06 -1.760024022171e+08 2.753881406779e-03 4.673326322266e-05 2.755465221849e-03 -8.549770914771e-03 6.221411109102e+07 1.706836006289e+08  1.130473410583e-02
2.792000000000e+02 0.000000000000e+00 -1.080000000000e-03 -5.367043736896e+06 3.694467297844e+05 -5.343730921047e+06 -1.803426744029e+08 2.833300989370e-03 4.777867627058e-05 2.835584684472e-03 -8.789898948760e-03 6.368448302027e+07 1.749884582416e+08  1.162463652195e-02
2.864000000000e+02 0.000000000000e+00 -1.110000000000e-03 -5.411046787629e+06 3.769464057799e+05 -5.379278325679e+06 -1.846404808002e+08 2.912656832321e-03 4.914285356398e-05 2.915671324534e-03 -9.030165513880e-03 6.514360197116e+07 1.792465094079e+08  1.194463315825e-02
2.936000000000e+02 0.000000000000e+00 -1.140000000000e-03 -5.459579787351e+06 3.863064788088e+05 -5.419177557912e+06 -1.888955395183e+08 2.991932313800e-03 5.082705243631e-05 2.995711036090e-03 -9.270535597624e-03 6.659143228785e+07 1.834573843555e+08  1.226467366814e-02
3.008000000000e+02 0.000000000000e+00 -1.170000000000e-03 -5.512769377215e+06 3.974828480598e+05 -5.463546349494e+06 -1.931075072478e+08 3.071110822487e-03 5.283248676843e-05 3.075689547768e-03 -9.510977035366e-03 6.802794099149e+07 1.876206173597e+08  1.258471054757e-02
3.080000000000e+02 0.000000000000e+00 -1.200000000000e-03 -5.570774706198e+06 4.104270749501e+05 -5.512538272214e+06 -1.972759845460e+08 3.150175389065e-03 5.515992646638e-05 3.155592092674e-03 -9.751459619941e-03 6.945309917480e+07 1.917356525275e+08  1.290469788223e-02
3.152000000000e+02 0.000000000000e+00 -1.230000000000e-03 -5.633788327948e+06 4.250849419246e+05 -5.566343215179e+06 -2.014005357870e+08 3.229108570951e-03 5.780946224301e-05 3.235403305939e-03 -9.991955038667e-03 7.086688911005e+07 1.958018630185e+08  1.322459116520e-02
3.224000000000e+02 0.000000000000e+00 -1.260000000000e-03 -5.702033324704e+06 4.413992948224e+05 -5.625185177552e+06 -2.054807428297e+08 3.307893165397e-03 6.078090455799e-05 3.315107870739e-03 -1.023243892425e-02 7.226932044399e+07 1.998186072437e+08  1.354435002543e-02
3.296000000000e+02 0.000000000000e+00 -1.290000000000e-03 -5.775754123593e+06 4.593154411694e+05 -5.689314463727e+06 -2.095162608178e+08 3.386513267170e-03 6.407457916547e-05 3.394691453860e-03 -1.047289337942e-02 7.366044313502e+07 2.037852931689e+08  1.386394175364e-02
3.368000000000e+02 0.000000000000e+00 -1.320000000000e-03 -5.855209293044e+06 4.787853697090e+05 -5.759001608840e+06 -2.135068402641e+08 3.464954630519e-03 6.769195922069e-05 3.474140960099e-03 -1.071330756549e-02 7.504035038866e+07 2.077014070479e+08  1.418334220418e-02
3.440000000000e+02 0.000000000000e+00 -1.350000000000e-03 -5.940659790937e+06 4.997702436929e+05 -5.834526149840e+06 -2.174523517935e+08 3.543205275157e-03 7.163604743640e-05 3.553445076217e-03 -1.095367865083e-02 7.640917924477e+07 2.115665496600e+08  1.450253732263e-02
3.512000000000e+02 0.000000000000e+00 -1.380000000000e-03 -6.032360499420e+06 5.222397947197e+05 -5.916167893946e+06 -2.213527961271e+08 3.621255694258e-03 7.591128590827e-05 3.632594467994e-03 -1.119401183935e-02 7.776710817349e+07 2.153804548822e+08  1.482152337638e-02
3.584000000000e+02 0.000000000000e+00 -1.410000000000e-03 -6.130554809569e+06 5.461703087766e+05 -6.004200391969e+06 -2.252083143750e+08 3.699098996554e-03 8.052325177286e-05 3.711581972264e-03 -1.143432045792e-02 7.911435652552e+07 2.191430059354e+08  1.514030720624e-02
3.656000000000e+02 0.000000000000e+00 -1.440000000000e-03 -6.235471049352e+06 5.715433236868e+05 -6.098886391621e+06 -2.290191933974e+08 3.776730967545e-03 8.547846274255e-05 3.790402696545e-03 -1.167462591218e-02 8.045118361278e+07 2.228542447933e+08  1.545890626168e-02
3.728000000000e+02 0.000000000000e+00 -1.470000000000e-03 -6.347320270401e+06 5.983446827231e+05 -6.200474658736e+06 -2.327858601989e+08 3.854149934274e-03 9.078423746679e-05 3.869053922889e-03 -1.191495714261e-02 8.177788504267e+07 2.265143692651e+08  1.577734794118e-02
3.800000000000e+02 0.000000000000e+00 -1.500000000000e-03 -6.466293807393e+06 6.265634389810e+05 -6.309196552216e+06 -2.365088615421e+08 3.931356390781e-03 9.644852517092e-05 3.947534775611e-03 -1.215534932899e-02 8.309478396723e+07 2.301237155330e+08  1.609566794279e-02
3.872000000000e+02 0.000000000000e+00 -1.530000000000e-03 -6.592561234951e+06 6.561911727763e+05 -6.425263065776e+06 -2.401888509483e+08 4.008352803769e-03 1.024798010194e-04 4.025846067548e-03 -1.239584313186e-02 8.440222508300e+07 2.336827476488e+08  1.641390933215e-02
3.944000000000e+02 0.000000000000e+00 -1.560000000000e-03 -6.726264421722e+06 6.872217132255e+05 -6.548858029743e+06 -2.438265935409e+08 4.085144024835e-03 1.088870294847e-04 4.103990755599e-03 -1.263648535627e-02 8.570057199746e+07 2.371920687469e+08  1.673212364168e-02
4.016000000000e+02 0.000000000000e+00 -1.590000000000e-03 -6.867506254390e+06 7.196502171891e+05 -6.680125760399e+06 -2.474229615541e+08 4.161737805351e-03 1.156795119906e-04 4.181974526881e-03 -1.287732940981e-02 8.699019785629e+07 2.406524283593e+08  1.705037187848e-02
4.088000000000e+02 0.000000000000e+00 -1.620000000000e-03 -7.016372274524e+06 7.534727363991e+05 -6.819192412637e+06 -2.509789041086e+08 4.238143304641e-03 1.228668050147e-04 4.259804304675e-03 -1.311843267463e-02 8.827148959859e+07 2.440646706933e+08  1.736872040397e-02
4.160000000000e+02 0.000000000000e+00 -1.650000000000e-03 -7.172952727840e+06 7.886906531535e+05 -6.966191113943e+06 -2.544953035258e+08 4.314366949290e-03 1.304594536483e-04 4.337483781716e-03 -1.335984591653e-02 8.954481578919e+07 2.474295673961e+08  1.768722605833e-02
4.232000000000e+02 0.000000000000e+00 -1.680000000000e-03 -7.337315604736e+06 8.253108817185e+05 -7.121233264240e+06 -2.579730377471e+08 4.390415093585e-03 1.384691147263e-04 4.415016203705e-03 -1.360161871795e-02 9.081052887201e+07 2.507479078138e+08  1.800594432353e-02
4.304000000000e+02 0.000000000000e+00 -1.710000000000e-03 -7.509520946872e+06 8.633428409223e+05 -7.284420941483e+06 -2.614130274510e+08 4.466294491737e-03 1.469080663351e-04 4.492404992430e-03 -1.384380223580e-02 9.206898977979e+07 2.540205327299e+08  1.832493262371e-02
4.376000000000e+02 0.000000000000e+00 -1.740000000000e-03 -7.689614969217e+06 9.027981902781e+05 -7.455840757748e+06 -2.648162283450e+08 4.542012497702e-03 1.557891719283e-04 4.569653957680e-03 -1.408644916321e-02 9.332056135733e+07 2.572483326700e+08  1.864425049655e-02
4.448000000000e+02 0.000000000000e+00 -1.769999999999e-03 -7.877625565919e+06 9.436907012115e+05 -7.635558851376e+06 -2.681836386749e+08 4.617577598134e-03 1.651258841133e-04 4.646767873211e-03 -1.432961477536e-02 9.456560769740e+07 2.604322601652e+08  1.896396119855e-02
4.520000000000e+02 0.000000000000e+00 -1.800000000000e-03 -8.073563457057e+06 9.860361530537e+05 -7.823621854716e+06 -2.715162880742e+08 4.692999242523e-03 1.749322499540e-04 4.723752320241e-03 -1.457335639355e-02 9.580449112865e+07 2.635733175477e+08  1.928413101117e-02
4.592000000000e+02 0.000000000000e+00 -1.830000000000e-03 -8.277428840493e+06 1.029852199776e+06 -8.020063480274e+06 -2.748152240095e+08 4.768287323505e-03 1.852228970247e-04 4.800613170213e-03 -1.481773236577e-02 9.703757211009e+07 2.666725367802e+08  1.960482770809e-02
4.664000000000e+02 0.000000000000e+00 -1.860000000000e-03 -8.489215567266e+06 1.075159643456e+06 -8.224909535793e+06 -2.780814668109e+08 4.843450941926e-03 1.960133004196e-04 4.877355253913e-03 -1.506279863333e-02 9.826519730466e+07 2.697309299118e+08  1.992611585313e-02
4.736000000000e+02 0.000000000000e+00 -1.890000000000e-03 -8.708913008231e+06 1.121982397597e+06 -8.438179714764e+06 -2.813159941066e+08 4.918497939112e-03 2.073198050844e-04 4.953981893223e-03 -1.530860743620e-02 9.948769560987e+07 2.727494716913e+08  2.024805504632e-02
4.808000000000e+02 0.000000000000e+00 -1.920000000000e-03 -8.936493898139e+06 1.170347615357e+06 -8.659875001400e+06 -2.845197598715e+08 4.993436022599e-03 2.191597001730e-04 5.030496087979e-03 -1.555520929109e-02 1.007053762570e+08 2.757291310003e+08  2.057070306862e-02
4.880000000000e+02 0.000000000000e+00 -1.950000000000e-03 -9.171911808204e+06 1.220285365864e+06 -8.889975070104e+06 -2.876936885442e+08 5.068272767171e-03 2.315511802134e-04 5.106900547324e-03 -1.580265257198e-02 1.019185251408e+08 2.786708675388e+08  2.089411548692e-02
4.952000000000e+02 0.000000000000e+00 -1.980000000000e-03 -9.415094312240e+06 1.271828968330e+06 -9.128431643023e+06 -2.908386624721e+08 5.143015650005e-03 2.445134350638e-04 5.183197741731e-03 -1.605098268627e-02 1.031273961424e+08 2.815756260213e+08  2.121834488653e-02
5.024000000000e+02 0.000000000000e+00 -2.010000000000e-03 -9.665928776910e+06 1.325016292384e+06 -9.375154741053e+06 -2.939555162504e+08 5.217672647684e-03 2.580669498646e-04 5.259390519891e-03 -1.630024204058e-02 1.043321999228e+08 2.844443445221e+08  2.154344146554e-02
5.096000000000e+02 0.000000000000e+00 -2.040000000000e-03 -9.924240438770e+06 1.379891388685e+06 -9.629991526426e+06 -2.970450167584e+08 5.292252843658e-03 2.722338740598e-04 5.335482740973e-03 -1.655046907582e-02 1.055330829079e+08 2.872779560873e+08  2.186945271715e-02
5.168000000000e+02 0.000000000000e+00 -2.070000000000e-03 -1.018976455107e+07 1.436506794692e+06 -9.892699647101e+06 -3.001078382772e+08 5.366767190257e-03 2.870385420713e-04 5.411480055333e-03 -1.680169690804e-02 1.067301008251e+08 2.900773911574e+08  2.219642287928e-02
5.240000000000e+02 0.000000000000e+00 -2.100000000000e-03 -1.046212431291e+07 1.494924211096e+06 -1.016292619962e+07 -3.031445341200e+08 5.441228819208e-03 3.025076360973e-04 5.487390235674e-03 -1.705395106891e-02 1.079231948775e+08 2.928435707848e+08  2.252439102512e-02
5.312000000000e+02 0.000000000000e+00 -2.130000000000e-03 -1.074083602256e+07 1.555210720306e+06 -1.044021268094e+07 -3.061555360519e+08 5.515652631016e-03 3.186693286917e-04 5.563222819311e-03 -1.730724810288e-02 1.091121949185e+08 2.955774009684e+08  2.285338926594e-02
5.384000000000e+02 0.000000000000e+00 -2.160000000000e-03 -1.102529738210e+07 1.617437627085e+06 -1.072398373567e+07 -3.091411274739e+08 5.590055150794e-03 3.355529803269e-04 5.638989016414e-03 -1.756159301593e-02 1.102968028639e+08 2.982797573127e+08  2.318344009001e-02
5.456000000000e+02 0.000000000000e+00 -2.190000000000e-03 -1.131470461382e+07 1.681687380391e+06 -1.101346767297e+07 -3.121013458126e+08 5.664456362005e-03 3.531906479120e-04 5.714703589545e-03 -1.781697401674e-02 1.114765060331e+08 3.009514687326e+08  2.351455304896e-02
5.528000000000e+02 0.000000000000e+00 -2.220000000000e-03 -1.160811301166e+07 1.748041509345e+06 -1.130775490977e+07 -3.150360355949e+08 5.738877547569e-03 3.716142438455e-04 5.790382743662e-03 -1.807336206287e-02 1.126506345054e+08 3.035933108624e+08  2.384672207159e-02
5.600000000000e+02 0.000000000000e+00 -2.250000000000e-03 -1.190470469817e+07 1.816545956503e+06 -1.160605378228e+07 -3.179451387736e+08 5.813334470435e-03 3.908473307650e-04 5.866037550131e-03 -1.833072259775e-02 1.138186324180e+08 3.062060339951e+08  2.417993011566e-02
5.672000000000e+02 0.000000000000e+00 -2.280000000000e-03 -1.220388262392e+07 1.887204642425e+06 -1.190777919060e+07 -3.208287972011e+08 5.887835947781e-03 4.109034086017e-04 5.941672729734e-03 -1.858902391848e-02 1.149801530052e+08 3.087903740338e+08  2.451415606364e-02
5.744000000000e+02 0.000000000000e+00 -2.310000000000e-03 -1.250520136634e+07 1.959994283654e+06 -1.221248661973e+07 -3.236872726608e+08 5.962386591751e-03 4.317892973581e-04 6.017289368191e-03 -1.884823801613e-02 1.161349868823e+08 3.113470402798e+08  2.484937838088e-02
5.816000000000e+02 0.000000000000e+00 -2.340000000000e-03 -1.280830297413e+07 2.034876560506e+06 -1.251981210604e+07 -3.265208715064e+08 6.036988869013e-03 4.535079907362e-04 6.092886838118e-03 -1.910833940613e-02 1.172829955289e+08 3.138767023230e+08  2.518557602922e-02
5.888000000000e+02 0.000000000000e+00 -2.370000000000e-03 -1.311288290732e+07 2.111804530685e+06 -1.282944069528e+07 -3.293299103096e+08 6.111644248047e-03 4.760601649297e-04 6.168463846747e-03 -1.936930463135e-02 1.184240779707e+08 3.163799885699e+08  2.552272911334e-02
5.960000000000e+02 0.000000000000e+00 -2.400000000000e-03 -1.341867435119e+07 2.190725778148e+06 -1.314109208093e+07 -3.321146950960e+08 6.186353453640e-03 4.994449072130e-04 6.244018636032e-03 -1.963111128132e-02 1.195581538427e+08 3.188574805360e+08  2.586081814392e-02
6.032000000000e+02 0.000000000000e+00 -2.430000000000e-03 -1.372543872358e+07 2.271584091326e+06 -1.345451185601e+07 -3.348755157824e+08 6.261116758894e-03 5.236600866881e-04 6.319549249004e-03 -1.989373782512e-02 1.206851554540e+08 3.213097164163e+08  2.619982415223e-02
6.104000000000e+02 0.000000000000e+00 -2.460000000000e-03 -1.403296031549e+07 2.354320491630e+06 -1.376946670040e+07 -3.376126394104e+08 6.335933939666e-03 5.487025660399e-04 6.395053455535e-03 -2.015716292270e-02 1.218050221421e+08 3.237371894089e+08  2.653972793858e-02
6.176000000000e+02 0.000000000000e+00 -2.490000000000e-03 -1.434104430698e+07 2.438873996915e+06 -1.408574267653e+07 -3.403263155990e+08 6.410804409172e-03 5.745683649934e-04 6.470528885409e-03 -2.042136570504e-02 1.229177008609e+08 3.261403550140e+08  2.688051048205e-02
6.248000000000e+02 0.000000000000e+00 -2.520000000000e-03 -1.464951175499e+07 2.525182295169e+06 -1.440314055500e+07 -3.430167797419e+08 6.485727505096e-03 6.012527997123e-04 6.545973302976e-03 -2.068632605798e-02 1.240231440173e+08 3.285196390761e+08  2.722215350087e-02
6.320000000000e+02 0.000000000000e+00 -2.550000000000e-03 -1.495819908354e+07 2.613182104823e+06 -1.472147550495e+07 -3.456842555343e+08 6.560702459288e-03 6.287505491420e-04 6.621384570243e-03 -2.095202457173e-02 1.251213100409e+08 3.308754407195e+08  2.756463936124e-02
6.392000000000e+02 0.000000000000e+00 -2.580000000000e-03 -1.526695518323e+07 2.702809621480e+06 -1.504057441657e+07 -3.483289585171e+08 6.635728588752e-03 6.570557491209e-04 6.696760830434e-03 -2.121844279828e-02 1.262121627056e+08 3.332081386824e+08  2.790795151718e-02
6.464000000000e+02 0.000000000000e+00 -2.610000000000e-03 -1.557564066399e+07 2.794000610074e+06 -1.536027529464e+07 -3.509510930486e+08 6.710805112246e-03 6.861619893500e-04 6.772100315855e-03 -2.148556269369e-02 1.272956696691e+08 3.355180889622e+08  2.825207375543e-02
6.536000000000e+02 0.000000000000e+00 -2.640000000000e-03 -1.588412629332e+07 2.886690768418e+06 -1.568042586686e+07 -3.535508565849e+08 6.785931301385e-03 7.160623941155e-04 6.847401490945e-03 -2.175336692015e-02 1.283718029150e+08 3.378056305738e+08  2.859699064045e-02
6.608000000000e+02 0.000000000000e+00 -2.670000000000e-03 -1.619229160307e+07 2.980815826646e+06 -1.600088230307e+07 -3.561284395441e+08 6.861106470070e-03 7.467496282220e-04 6.922663037982e-03 -2.202183869260e-02 1.294405378167e+08 3.400710867504e+08  2.894268734030e-02
6.680000000000e+02 0.000000000000e+00 -2.700000000001e-03 -1.650002397132e+07 3.076311834573e+06 -1.632150844556e+07 -3.586840259079e+08 6.936329971625e-03 7.782159643587e-04 6.997883840253e-03 -2.229096169233e-02 1.305018527749e+08 3.423147663915e+08  2.928914952711e-02
6.752000000000e+02 0.000000000000e+00 -2.730000000000e-03 -1.680721780733e+07 3.173115108490e+06 -1.664217501237e+07 -3.612177939542e+08 7.011601197777e-03 8.104532499354e-04 7.073062987772e-03 -2.256072001839e-02 1.315557289246e+08 3.445369655981e+08  2.963636332061e-02
6.824000000000e+02 0.000000000000e+00 -2.760000000000e-03 -1.711377394111e+07 3.271162560006e+06 -1.696275919604e+07 -3.637299174256e+08 7.086919591796e-03 8.434529907143e-04 7.148199765982e-03 -2.283109818038e-02 1.326021501876e+08 3.467379693537e+08  2.998431528081e-02
6.896000000000e+02 0.000000000000e+00 -2.790000000000e-03 -1.741959908463e+07 3.370391664433e+06 -1.728314409970e+07 -3.662205645777e+08 7.162284580822e-03 8.772063319934e-04 7.223293594312e-03 -2.310208087364e-02 1.336411025873e+08 3.489180511227e+08  3.033299211070e-02
6.968000000000e+02 0.000000000000e+00 -2.820000000000e-03 -1.772460499168e+07 3.470740598248e+06 -1.760321802759e+07 -3.686898992066e+08 7.237695614441e-03 9.117040873436e-04 7.298344050913e-03 -2.337365301032e-02 1.346725740753e+08 3.510774746557e+08  3.068238071468e-02
7.040000000000e+02 0.000000000000e+00 -2.850000000000e-03 -1.802870956949e+07 3.572148295942e+06 -1.792287563640e+07 -3.711380806270e+08 7.313152015537e-03 9.469367511569e-04 7.373350714522e-03 -2.364579949434e-02 1.356965552776e+08 3.532164928388e+08  3.103246781533e-02
7.112000000000e+02 0.000000000000e+00 -2.880000000000e-03 -1.833183488929e+07 3.674554534377e+06 -1.824201601500e+07 -3.735652628050e+08 7.388653044109e-03 9.828945151749e-04 7.448313222204e-03 -2.391850514238e-02 1.367130379031e+08 3.553353487846e+08  3.138323993102e-02
7.184000000000e+02 0.000000000000e+00 -2.910000000000e-03 -1.863390866007e+07 3.777900054318e+06 -1.856054420787e+07 -3.759715971158e+08 7.464197838567e-03 1.019567307453e-03 7.523231200740e-03 -2.419175478280e-02 1.377220166612e+08 3.574342770964e+08  3.173468340954e-02
7.256000000000e+02 0.000000000000e+00 -2.940000000000e-03 -1.893486251678e+07 3.882126578251e+06 -1.887836955790e+07 -3.783572300328e+08 7.539785411813e-03 1.056944791896e-03 7.598104254164e-03 -2.446553300588e-02 1.387234873692e+08 3.595135032451e+08  3.208678416582e-02