 TITLE = "Time curves in points"
 VARIABLES = "TIME "  "DISPLACEMENT_X1"  "DISPLACEMENT_Y1"  "STRESS_XX"  "STRESS_XY"  "STRESS_YY"  "STRESS_ZZ"  "STRAIN_XX"  "STRAIN_XY"  "STRAIN_YY"  "STRAIN_ZZ"  p_(1st_Invariant)  q_(2nd_Invariant)   Effective_Strain
 ZONE T="POINT=POINT1"
0.000000000000e+00 0.000000000000e+00 0.000000000000e+00 0.000000000000e+00 0.000000000000e+00 0.000000000000e+00 0.000000000000e+00 0.000000000000e+00 0.000000000000e+00 0.000000000000e+00 0.000000000000e+00 -0.000000000000e+00 0.000000000000e+00  0.000000000000e+00
2.000000000000e+00 -3.087967291818e-07 0.000000000000e+00 -4.991669731084e+05 -1.630527922448e-05 -4.991669732883e+05 -3.344418721023e+05 -1.029322429489e-05 -2.038549111959e-15 -1.029322430614e-05 -2.778537167899e-15 4.442586061663e+05 1.647251010961e+05  1.029322429774e-05
4.000000000000e+00 -6.202732622472e-07 0.000000000000e+00 -9.991759548455e+05 -4.080138587149e+01 -9.992659462706e+05 -6.692327360055e+05 -2.066977558941e-05 -5.157779456072e-09 -2.067541497093e-05 1.155077584801e-08 8.892248790405e+05 3.299882313230e+05  2.068414856180e-05
6.000000000000e+00 -9.336789382315e-07 0.000000000000e+00 -1.499119013431e+06 -6.836684371076e+01 -1.499323346170e+06 -1.004023339433e+06 -3.110901205020e-05 -8.671865356358e-09 -3.112187024380e-05 2.147957292530e-08 1.334155233011e+06 4.951978861437e+05  3.113692633390e-05
8.000000000000e+00 -1.249055167380e-06 0.000000000000e+00 -1.999053354897e+06 -9.426568001777e+01 -1.999376968021e+06 -1.338812874636e+06 -4.161356992308e-05 -1.199537717512e-08 -4.163400723802e-05 3.132216681694e-08 1.779081065851e+06 6.604023664732e+05  4.165511968900e-05
1.000000000000e+01 -1.566417840078e-06 0.000000000000e+00 -2.498984661545e+06 -1.193462400554e+02 -2.499430771629e+06 -1.673602808583e+06 -5.218408615082e-05 -1.523472347523e-08 -5.221235653663e-05 4.116172759275e-08 2.224006080586e+06 8.256050242775e+05  5.223939547289e-05
1.200000000000e+01 -1.885780531050e-06 0.000000000000e+00 -2.998914399083e+06 -1.438540903127e+02 -2.999485701693e+06 -2.008393482339e+06 -6.282104414531e-05 -1.842046644919e-08 -6.285737078334e-05 5.102036545209e-08 2.668931194372e+06 9.908067229084e+05  6.289024379139e-05
1.400000000000e+01 -2.207156312078e-06 0.000000000000e+00 -3.498843120949e+06 -1.678943771964e+02 -3.499542090693e+06 -2.343184997555e+06 -7.352489153844e-05 -2.156548931558e-08 -7.356948574218e-05 6.090742053681e-08 3.113856736399e+06 1.156007803327e+06  7.360811566937e-05
1.600000000000e+01 -2.530558120852e-06 0.000000000000e+00 -3.998771084346e+06 -1.915223836554e+02 -3.999600085302e+06 -2.677977389578e+06 -8.429606448714e-05 -2.467639569465e-08 -8.434913267833e-05 7.082775182645e-08 3.558782853075e+06 1.321208431951e+06  8.439344967138e-05
1.800000000000e+01 -2.855998876342e-06 0.000000000000e+00 -4.498698425668e+06 -2.147709785942e+02 -4.499659759304e+06 -3.012770668626e+06 -9.513499547326e-05 -2.775696497360e-08 -9.519674222222e-05 8.078435099291e-08 4.003709617866e+06 1.486408703562e+06  9.524668034322e-05
2.000000000000e+01 -3.183491526431e-06 0.000000000000e+00 -4.998625224585e+06 -2.376616314554e+02 -4.999721154974e+06 -3.347564837503e+06 -1.060421163259e-04 -3.080954026491e-08 -1.061127459644e-04 9.077916709204e-08 4.448637072354e+06 1.651608676278e+06  1.061682413436e-04
2.720000000000e+01 -6.717228226059e-07 0.000000000000e+00 -4.999358160392e+06 -2.928202476439e+02 -5.000552108388e+06 -8.428431293465e+06 -2.230956914584e-05 -3.787212172889e-08 -2.238675687162e-05 -2.498977354637e-04 6.142780520748e+06 3.428476352509e+06  2.275495917284e-04
3.440000000000e+01 1.846445031108e-06 0.000000000000e+00 -4.988946769999e+06 3.347558801598e+03 -4.995373864687e+06 -1.371448670498e+07 6.195958584545e-05 4.200762495989e-07 6.155086606672e-05 -5.004679234126e-04 7.899602446556e+06 8.722330090727e+06  5.622237315937e-04
4.160000000000e+01 4.358724285172e-06 0.000000000000e+00 -4.988039337062e+06 3.985871739014e+03 -5.002187989736e+06 -1.882538546975e+07 1.461871090315e-04 5.050836337244e-07 1.452764288479e-04 -7.513338720292e-04 9.605204265515e+06 1.383027895732e+07  8.970664142298e-04
4.880000000000e+01 6.864548961453e-06 0.000000000000e+00 -4.999296935062e+06 -2.979878982306e+02 -5.007806694490e+06 -2.367408825061e+07 2.293399726347e-04 -9.037506995773e-08 2.288073251984e-04 -1.000687978224e-03 1.122706396005e+07 1.867053789745e+07  1.229761723618e-03
5.600000000000e+01 9.370608757569e-06 0.000000000000e+00 -5.009527219842e+06 -4.061868693643e+03 -5.012480735284e+06 -2.830809334686e+07 3.124862900883e-04 -6.374558808353e-07 3.123448555165e-04 -1.249998612672e-03 1.277670043400e+07 2.329709057200e+07  1.562414580393e-03
6.320000000000e+01 1.187691066634e-05 0.000000000000e+00 -5.018865604574e+06 -7.428705744321e+03 -5.016299191285e+06 -3.274543637598e+07 3.956250151271e-04 -1.148308666795e-06 3.958904028207e-04 -1.499268471160e-03 1.426020039061e+07 2.772785705252e+07  1.895027237814e-03
7.040000000000e+01 1.438341994216e-05 0.000000000000e+00 -5.027429581683e+06 -1.046340191325e+04 -5.019365015402e+06 -3.700200272150e+07 4.787542991487e-04 -1.628146871088e-06 4.794428931148e-04 -1.748496257429e-03 1.568293243953e+07 3.197861132107e+07  2.227596718398e-03
7.760000000000e+01 1.689011418725e-05 0.000000000000e+00 -5.035316008064e+06 -1.321307718357e+04 -5.021776778180e+06 -4.109190605292e+07 5.618737872217e-04 -2.080489516144e-06 5.630016079597e-04 -1.997683448343e-03 1.704966627972e+07 3.606336882754e+07  2.560123868322e-03
8.480000000000e+01 1.939697596345e-05 0.000000000000e+00 -5.042605080491e+06 -1.571493630963e+04 -5.023619797789e+06 -4.502769281183e+07 6.449835570661e-04 -2.508058890775e-06 6.465659780837e-04 -2.246832052831e-03 1.836463923004e+07 3.999459301450e+07  2.892610406982e-03
9.200000000000e+01 2.190399204251e-05 0.000000000000e+00 -5.049364161386e+06 -1.799943426548e+04 -5.024966801687e+06 -4.882055499018e+07 7.280838773471e-04 -2.913091096908e-06 7.301355677706e-04 -2.495944238177e-03 1.963162865109e+07 4.378340570614e+07  3.225058397151e-03
9.920000000000e+01 2.441115064046e-05 0.000000000000e+00 -5.055650521713e+06 -2.009202642339e+04 -5.025879973571e+06 -5.248051187444e+07 8.111750628596e-04 -3.297486228729e-06 8.137099863396e-04 -2.745022038739e-03 2.085401412324e+07 4.743976639695e+07  3.557469825457e-03
1.064000000000e+02 2.691844215111e-05 0.000000000000e+00 -5.061513234160e+06 -2.201425735309e+04 -5.026412408592e+06 -5.601656740349e+07 8.942574558108e-04 -3.662888146466e-06 8.972889141616e-04 -2.994067393677e-03 2.203483101541e+07 5.097262790771e+07  3.889846638361e-03
1.136000000000e+02 2.942585848670e-05 0.000000000000e+00 -5.066994683693e+06 -2.378455530479e+04 -5.026609598724e+06 -5.943684150090e+07 9.773313918651e-04 -4.010740908388e-06 9.808720810419e-04 -3.243082099840e-03 2.317681526111e+07 5.439006620588e+07  4.222190664565e-03
1.208000000000e+02 3.193339126549e-05 0.000000000000e+00 -5.072131694548e+06 -2.541879541409e+04 -5.026510958610e+06 -6.274868049084e+07 1.060397170060e-03 -4.342323572967e-06 1.064459206690e-03 -3.492067720117e-03 2.428244104800e+07 5.769938948767e+07  4.554503477098e-03
1.280000000000e+02 3.444103377767e-05 0.000000000000e+00 -5.076956421285e+06 -2.693073223606e+04 -5.026150576883e+06 -6.595875404411e+07 1.143455098116e-03 -4.658775580845e-06 1.148050066309e-03 -3.741025760128e-03 2.535395368076e+07 6.090723429898e+07  4.886786624668e-03
1.352000000000e+02 3.694878022215e-05 0.000000000000e+00 -5.081497098740e+06 -2.833236213056e+04 -5.025558008668e+06 -6.907313483437e+07 1.226505463684e-03 -4.961120739578e-06 1.231644465063e-03 -3.989957605937e-03 2.639339664726e+07 6.401964441815e+07  5.219041541808e-03
1.424000000000e+02 3.945662492213e-05 0.000000000000e+00 -5.085778624950e+06 -2.963419523113e+04 -5.024759114458e+06 -7.209736730012e+07 1.309548529316e-03 -5.250282728862e-06 1.315242212253e-03 -4.238864502218e-03 2.740263501318e+07 6.704213890566e+07  5.551269511340e-03
1.496000000000e+02 4.196456285077e-05 0.000000000000e+00 -5.089823023732e+06 -3.084546402469e+04 -5.023776514371e+06 -7.503652755935e+07 1.392584544963e-03 -5.527094820850e-06 1.398843138914e-03 -4.487747604325e-03 2.838337569915e+07 6.997977155963e+07  5.883471731341e-03
1.568000000000e+02 4.447258940018e-05 0.000000000000e+00 -5.093649891697e+06 -3.197433981356e+04 -5.022630093957e+06 -7.789527457206e+07 1.475613742537e-03 -5.792318012438e-06 1.482447089913e-03 -4.736607974799e-03 2.933718485257e+07 7.283718160148e+07  6.215649304924e-03
1.640000000000e+02 4.698070029150e-05 0.000000000000e+00 -5.097276690056e+06 -3.302805590318e+04 -5.021337363726e+06 -8.067789455074e+07 1.558636337608e-03 -6.046643684994e-06 1.566053921192e-03 -4.985446587848e-03 3.026550286817e+07 7.561863776045e+07  6.547803244110e-03
1.712000000000e+02 4.948889162837e-05 0.000000000000e+00 -5.100719060438e+06 -3.401305734573e+04 -5.019913923694e+06 -8.338834015850e+07 1.641652546452e-03 -6.290706677918e-06 1.649663501439e-03 -5.234264376264e-03 3.116965771421e+07 7.832807708132e+07  6.879934526100e-03
1.784000000000e+02 5.199715990684e-05 0.000000000000e+00 -5.103991020924e+06 -3.493508211977e+04 -5.018373369677e+06 -8.603026331048e+07 1.724662549015e-03 -6.525085808287e-06 1.733275712440e-03 -5.483062159692e-03 3.205087590036e+07 8.096913767482e+07  7.212044003204e-03
1.856000000000e+02 5.450550182209e-05 0.000000000000e+00 -5.107105207116e+06 -3.579927578253e+04 -5.016728010864e+06 -8.860704606454e+07 1.807666539316e-03 -6.750315615834e-06 1.816890442758e-03 -5.731840748681e-03 3.291029309417e+07 8.354518912862e+07  7.544132528903e-03
1.928000000000e+02 5.701391426668e-05 0.000000000000e+00 -5.110073016717e+06 -3.661025177024e+04 -5.014988560231e+06 -9.112182522609e+07 1.890664666503e-03 -6.966887338111e-06 1.900507587426e-03 -5.980600828836e-03 3.374896226768e+07 8.605935719504e+07  7.876200812422e-03
2.000000000000e+02 5.952239439837e-05 0.000000000000e+00 -5.112904777714e+06 -3.737216718499e+04 -5.013164850890e+06 -9.357751708655e+07 1.973657107149e-03 -7.175255996089e-06 1.984127050541e-03 -6.229343113840e-03 3.456786223838e+07 8.851454808674e+07  8.208249609150e-03
2.072000000000e+02 6.203093933433e-05 0.000000000000e+00 -5.115609846450e+06 -3.808877027664e+04 -5.011265537352e+06 -9.597683618802e+07 2.056644002289e-03 -7.375842010506e-06 2.067748734735e-03 -6.478068209899e-03 3.536790385727e+07 9.091346734218e+07  8.540279548394e-03
2.144000000000e+02 6.453954694532e-05 0.000000000000e+00 -5.118196747771e+06 -3.876345098229e+04 -5.009298352572e+06 -9.832231456604e+07 2.139625498135e-03 -7.569035221563e-06 2.151372567867e-03 -6.726776730636e-03 3.614993655546e+07 9.325863886962e+07  8.872291281971e-03
2.216000000000e+02 6.704821461445e-05 0.000000000000e+00 -5.120673245951e+06 -3.939928367910e+04 -5.007270338950e+06 -1.006163170518e+08 2.222601726740e-03 -7.755198203814e-06 2.234998461610e-03 -6.975469217005e-03 3.691475354557e+07 9.555242009829e+07  9.204285373743e-03
2.288000000000e+02 6.955694029467e-05 0.000000000000e+00 -5.123046433308e+06 -3.999905986505e+04 -5.005187750123e+06 -1.028610560716e+08 2.305572814507e-03 -7.934667980436e-06 2.318626346628e-03 -7.224146192736e-03 3.766309675169e+07 9.779701678281e+07  9.536262376935e-03
2.360000000000e+02 7.206572206510e-05 0.000000000000e+00 -5.125322798810e+06 -4.056531909120e+04 -5.003056205789e+06 -1.050586043079e+08 2.388538879039e-03 -8.107758228734e-06 2.402256157839e-03 -7.472808145143e-03 3.839566110417e+07 9.999449555245e+07  9.868222805996e-03
2.432000000000e+02 7.457455776018e-05 0.000000000000e+00 -5.127508308507e+06 -4.110038342875e+04 -5.000880921159e+06 -1.072109063727e+08 2.471500039465e-03 -8.274763564952e-06 2.485887822097e-03 -7.721455537991e-03 3.911309853413e+07 1.021467954296e+08  1.020016714847e-02
2.504000000000e+02 7.708344569680e-05 0.000000000000e+00 -5.129608432059e+06 -4.160637003278e+04 -4.998666468426e+06 -1.093197889431e+08 2.554456400359e-03 -8.435957996479e-06 2.569521282290e-03 -7.970088801216e-03 3.981602128119e+07 1.042557380714e+08  1.053209585874e-02
2.576000000000e+02 7.959238413842e-05 0.000000000000e+00 -5.131628204215e+06 -4.208521835010e+04 -4.996417047280e+06 -1.113869702736e+08 2.637408065749e-03 -8.591598493980e-06 2.653156479604e-03 -8.218708344517e-03 4.050500517504e+07 1.063230371160e+08  1.086400936978e-02
2.648000000000e+02 8.210137148182e-05 0.000000000000e+00 -5.133572276287e+06 -4.253870750297e+04 -4.994136454617e+06 -1.134140685499e+08 2.720355132732e-03 -8.741926208653e-06 2.736793359703e-03 -8.467314553727e-03 4.118059242694e+07 1.083503065257e+08  1.119590808939e-02
2.720000000000e+02 8.461040620592e-05 0.000000000000e+00 -5.135444939308e+06 -4.296847120236e+04 -4.991828138313e+06 -1.154026095275e+08 2.803297694648e-03 -8.887167392154e-06 2.820431871018e-03 -8.715907794407e-03 4.184329420171e+07 1.103390681872e+08  1.152779240457e-02
2.792000000000e+02 8.711948685633e-05 0.000000000000e+00 -5.137250163998e+06 -4.337601286923e+04 -4.989495232505e+06 -1.173540334268e+08 2.886235839935e-03 -9.027534875347e-06 2.904071964220e-03 -8.964488411230e-03 4.249359294112e+07 1.122907587691e+08  1.185966268004e-02
2.864000000000e+02 8.962861207329e-05 0.000000000000e+00 -5.138991627276e+06 -4.376271742146e+04 -4.987140587402e+06 -1.192697012340e+08 2.969169653744e-03 -9.163228861819e-06 2.987713593169e-03 -9.213056732661e-03 4.313194448290e+07 1.142067359946e+08  1.219151926422e-02
2.936000000000e+02 9.213778056998e-05 0.000000000000e+00 -5.140672749096e+06 -4.412986324452e+04 -4.984766801525e+06 -1.211509004009e+08 3.052099216585e-03 -9.294438168875e-06 3.071356714212e-03 -9.461613070288e-03 4.375877998385e+07 1.160882843068e+08  1.252336248754e-02
3.008000000000e+02 9.464699109957e-05 0.000000000000e+00 -5.142296695033e+06 -4.447863121406e+04 -4.982376240598e+06 -1.229988500302e+08 3.135024606136e-03 -9.421340761023e-06 3.155001284996e-03 -9.710157718462e-03 4.437450765529e+07 1.179366200432e+08  1.285519266239e-02
3.080000000000e+02 9.715624249356e-05 0.000000000000e+00 -5.143866424262e+06 -4.481011458420e+04 -4.979971070974e+06 -1.248147056708e+08 3.217945896296e-03 -9.544104925965e-06 3.238647265875e-03 -9.958690959294e-03 4.497951438868e+07 1.197528961903e+08  1.318701008834e-02
3.152000000000e+02 9.966553363602e-05 0.000000000000e+00 -5.145384680778e+06 -4.512532570623e+04 -4.977553261575e+06 -1.265995636187e+08 3.300863158270e-03 -9.662889537044e-06 3.322294618909e-03 -1.020721305960e-02 4.557416718701e+07 1.215382066882e+08  1.351881504916e-02
3.224000000000e+02 1.021748635034e-04 0.000000000000e+00 -5.146854031368e+06 -4.542520403865e+04 -4.975124617594e+06 -1.283544649586e+08 3.383776461433e-03 -9.777845058309e-06 3.405943309296e-03 -1.045572427845e-02 4.615881453585e+07 1.232935904357e+08  1.385060782148e-02
3.296000000000e+02 1.046842309369e-04 0.000000000000e+00 -5.148276874834e+06 -4.571062233696e+04 -4.972686796349e+06 -1.300803990653e+08 3.466685867185e-03 -9.889114078715e-06 3.489593297762e-03 -1.070422484686e-02 4.673378757884e+07 1.250200347801e+08  1.418238864765e-02
3.368000000000e+02 1.071936351499e-04 0.000000000000e+00 -5.149655449087e+06 -4.598239148177e+04 -4.970241295950e+06 -1.317783072450e+08 3.549591442477e-03 -9.996831510224e-06 3.573244557430e-03 -1.095271501081e-02 4.729940133003e+07 1.267184791598e+08  1.451415779391e-02
3.440000000000e+02 1.097030751620e-04 0.000000000000e+00 -5.150991855327e+06 -4.624126744555e+04 -4.967789511103e+06 -1.334490855473e+08 3.632493247303e-03 -1.010112580150e-05 3.656897055000e-03 -1.120119499029e-02 4.785595563789e+07 1.283898178765e+08  1.484591549381e-02
3.512000000000e+02 1.122125500600e-04 0.000000000000e+00 -5.152288055647e+06 -4.648795331744e+04 -4.965332694683e+06 -1.350935876585e+08 3.715391336534e-03 -1.020211835856e-05 3.740550759420e-03 -1.144966498943e-02 4.840373613626e+07 1.300349030097e+08  1.517766196359e-02
3.584000000000e+02 1.147220588745e-04 0.000000000000e+00 -5.153545898275e+06 -4.672310767854e+04 -4.962872044712e+06 -1.367126276604e+08 3.798285768436e-03 -1.029992565228e-05 3.824205637781e-03 -1.169812521266e-02 4.894301520112e+07 1.316545471180e+08  1.550939742053e-02
3.656000000000e+02 1.172316010008e-04 0.000000000000e+00 -5.154767113337e+06 -4.694734219519e+04 -4.960408592657e+06 -1.383069823790e+08 3.881176597128e-03 -1.039465708604e-05 3.907861669377e-03 -1.194657586150e-02 4.947405269500e+07 1.332495256469e+08  1.584112208303e-02
3.728000000000e+02 1.197411755820e-04 0.000000000000e+00 -5.155953328697e+06 -4.716123082291e+04 -4.957943325595e+06 -1.398773935575e+08 3.964063873786e-03 -1.048641770176e-05 3.991518825061e-03 -1.219501711816e-02 4.999709673726e+07 1.348205790324e+08  1.617283614443e-02
3.800000000000e+02 1.222507818872e-04 0.000000000000e+00 -5.157106075498e+06 -4.736531000640e+04 -4.955477137690e+06 -1.414245700141e+08 4.046947648479e-03 -1.057530731397e-05 4.075177079933e-03 -1.244344916170e-02 5.051238440910e+07 1.363684148801e+08  1.650453979654e-02
3.872000000000e+02 1.247604191594e-04 0.000000000000e+00 -5.158226800763e+06 -4.756008261078e+04 -4.953010868761e+06 -1.429491895598e+08 4.129827970809e-03 -1.066142127767e-05 4.158836408272e-03 -1.269187216578e-02 5.102014240978e+07 1.378937098579e+08  1.683623322507e-02
3.944000000000e+02 1.272700867426e-04 0.000000000000e+00 -5.159316862384e+06 -4.774601958387e+04 -4.950545260788e+06 -1.444519007236e+08 4.212704885918e-03 -1.074485036497e-05 4.242496787660e-03 -1.294028629270e-02 5.152058761558e+07 1.393971114449e+08  1.716791660378e-02
4.016000000000e+02 1.297797839664e-04 0.000000000000e+00 -5.160377543859e+06 -4.792356296057e+04 -4.948081011180e+06 -1.459333244772e+08 4.295578439288e-03 -1.082568131187e-05 4.326158195259e-03 -1.318869170132e-02 5.201392767741e+07 1.408792396226e+08  1.749959010296e-02
4.088000000000e+02 1.322895102162e-04 0.000000000000e+00 -5.161410059865e+06 -4.809312808680e+04 -4.945618772161e+06 -1.473940558030e+08 4.378448678041e-03 -1.090399709851e-05 4.409820610131e-03 -1.343708855233e-02 5.250036154502e+07 1.423406884401e+08  1.783125389647e-02
4.160000000000e+02 1.347992648274e-04 0.000000000000e+00 -5.162415554125e+06 -4.825510453362e+04 -4.943159096898e+06 -1.488346648998e+08 4.461315635700e-03 -1.097987669127e-05 4.493484009610e-03 -1.368547697295e-02 5.298007985028e+07 1.437820272479e+08  1.816290811705e-02
4.232000000000e+02 1.373090472315e-04 0.000000000000e+00 -5.163395110288e+06 -4.840985982369e+04 -4.940702555900e+06 -1.502556989396e+08 4.544179361470e-03 -1.105339613419e-05 4.577148374313e-03 -1.393385712174e-02 5.345326553525e+07 1.452038023909e+08  1.849455293825e-02
4.304000000000e+02 1.398188569201e-04 0.000000000000e+00 -5.164349755426e+06 -4.855773905673e+04 -4.938249623755e+06 -1.516576829414e+08 4.627039892312e-03 -1.112462781809e-05 4.660813686836e-03 -1.418222913193e-02 5.392009410685e+07 1.466065381376e+08  1.882618850311e-02
4.376000000000e+02 1.423286933573e-04 0.000000000000e+00 -5.165280460762e+06 -4.869906779500e+04 -4.935800759246e+06 -1.530411211228e+08 4.709897268598e-03 -1.119364129260e-05 4.744479928889e-03 -1.443059313905e-02 5.438073411427e+07 1.479907379906e+08  1.915781495829e-02
4.448000000000e+02 1.448385557584e-04 0.000000000000e+00 -5.166188150035e+06 -4.883415313852e+04 -4.933356392526e+06 -1.544064978173e+08 4.792751522084e-03 -1.126050330044e-05 4.828147073899e-03 -1.467894925098e-02 5.483534745329e+07 1.493568856067e+08  1.948943241430e-02
4.520000000000e+02 1.473484439253e-04 0.000000000000e+00 -5.167073693422e+06 -4.896328378686e+04 -4.930916878775e+06 -1.557542788153e+08 4.875602694060e-03 -1.132527733397e-05 4.911815114820e-03 -1.492729760975e-02 5.528408979582e+07 1.507054461635e+08  1.982104103033e-02
4.592000000000e+02 1.498583572391e-04 0.000000000000e+00 -5.167937925360e+06 -4.908673346005e+04 -4.928482583484e+06 -1.570849119982e+08 4.958450818408e-03 -1.138802488767e-05 4.995484030656e-03 -1.517563832811e-02 5.572711083568e+07 1.520368669428e+08  2.015264092561e-02
4.664000000000e+02 1.523682952270e-04 0.000000000000e+00 -5.168781631070e+06 -4.920476006650e+04 -4.926053821370e+06 -1.583988283697e+08 5.041295928939e-03 -1.144880464635e-05 5.079153805226e-03 -1.542397151905e-02 5.616455460738e+07 1.533515783984e+08  2.048423222200e-02
4.736000000000e+02 1.548782574325e-04 0.000000000000e+00 -5.169605560999e+06 -4.931760762082e+04 -4.923630882486e+06 -1.596964428847e+08 5.124138058126e-03 -1.150767307646e-05 5.162824422930e-03 -1.567229729211e-02 5.659655977605e+07 1.546499949648e+08  2.081581503750e-02
4.808000000000e+02 1.573882434349e-04 0.000000000000e+00 -5.170410430195e+06 -4.942550700717e+04 -4.921214040132e+06 -1.609781552674e+08 5.206977240081e-03 -1.156468446773e-05 5.246495869387e-03 -1.592061575931e-02 5.702325991259e+07 1.559325158724e+08  2.114738949402e-02
4.880000000000e+02 1.598982527749e-04 0.000000000000e+00 -5.171196914495e+06 -4.952867652589e+04 -4.918803531932e+06 -1.622443506564e+08 5.289813504289e-03 -1.161989088227e-05 5.330168128894e-03 -1.616892701876e-02 5.744478370096e+07 1.571995258031e+08  2.147895569657e-02
4.952000000000e+02 1.624082850388e-04 0.000000000000e+00 -5.171965662719e+06 -4.962732322246e+04 -4.916399583648e+06 -1.634954004012e+08 5.372646881636e-03 -1.167334255079e-05 5.413841187321e-03 -1.641723117217e-02 5.786125521585e+07 1.584513956690e+08  2.181051375527e-02
5.024000000000e+02 1.649183398297e-04 0.000000000000e+00 -5.172717291273e+06 -4.972164312981e+04 -4.914002399180e+06 -1.647316626734e+08 5.455477402346e-03 -1.172508771149e-05 5.497515031093e-03 -1.666552831804e-02 5.827279412127e+07 1.596884832319e+08  2.214206377695e-02
5.096000000000e+02 1.674284167518e-04 0.000000000000e+00 -5.173452387151e+06 -4.981182209230e+04 -4.911612160604e+06 -1.659534830699e+08 5.538305094780e-03 -1.177517278104e-05 5.581189646657e-03 -1.691381854909e-02 5.867951587255e+07 1.609111337042e+08  2.247360586175e-02
5.168000000000e+02 1.699385154420e-04 0.000000000000e+00 -5.174171511647e+06 -4.989803658083e+04 -4.909229035895e+06 -1.671611952272e+08 5.621129987742e-03 -1.182364254558e-05 5.664865021591e-03 -1.716210195860e-02 5.908153192492e+07 1.621196803577e+08  2.280514011117e-02
5.240000000000e+02 1.724486355011e-04 0.000000000000e+00 -5.174875199921e+06 -4.998045392293e+04 -4.906853174974e+06 -1.683551213209e+08 5.703952107300e-03 -1.187054005124e-05 5.748541142249e-03 -1.741037863132e-02 5.947894989858e+07 1.633144450256e+08  2.313666661615e-02
5.312000000000e+02 1.749587765966e-04 0.000000000000e+00 -5.175563963009e+06 -5.005923320419e+04 -4.904484715215e+06 -1.695355726450e+08 5.786771481334e-03 -1.191590687950e-05 5.832217997228e-03 -1.765864865617e-02 5.987187377442e+07 1.644957386780e+08  2.346818547386e-02
5.384000000000e+02 1.774689383833e-04 0.000000000000e+00 -5.176238291549e+06 -5.013452555141e+04 -4.902123782857e+06 -1.707028500607e+08 5.869588136391e-03 -1.195978310230e-05 5.915895574733e-03 -1.790691211811e-02 6.026040404503e+07 1.656638618674e+08  2.379969677663e-02
5.456000000000e+02 1.799791205173e-04 0.000000000000e+00 -5.176898650030e+06 -5.020647451495e+04 -4.899770480436e+06 -1.718572444286e+08 5.952402096219e-03 -1.200220729463e-05 5.999573862947e-03 -1.815516909371e-02 6.064463785302e+07 1.668191051711e+08  2.413120060703e-02
5.528000000000e+02 1.824893226870e-04 0.000000000000e+00 -5.177545487626e+06 -5.027521685801e+04 -4.897424909156e+06 -1.729990371161e+08 6.035213386325e-03 -1.204321680983e-05 6.083252851207e-03 -1.840341966419e-02 6.102466917096e+07 1.679617496814e+08  2.446269705366e-02
5.600000000000e+02 1.849995445821e-04 0.000000000000e+00 -5.178179232024e+06 -5.034088260155e+04 -4.895087163396e+06 -1.741285003816e+08 6.118022033237e-03 -1.208284762823e-05 6.166932528895e-03 -1.865166391080e-02 6.140058892568e+07 1.690920673958e+08  2.479418620574e-02
5.672000000000e+02 1.875097857699e-04 0.000000000000e+00 -5.178800293815e+06 -5.040359581141e+04 -4.892757317896e+06 -1.752458976652e+08 6.200828055431e-03 -1.212113465746e-05 6.250612881273e-03 -1.889990189372e-02 6.177248509231e+07 1.702103215117e+08  2.512566812532e-02
5.744000000000e+02 1.900200462377e-04 0.000000000000e+00 -5.179409064316e+06 -5.046347389896e+04 -4.890435427498e+06 -1.763514842026e+08 6.283631482023e-03 -1.215811115956e-05 6.334293907635e-03 -1.914813370642e-02 6.214044289815e+07 1.713167670419e+08  2.545714292007e-02
5.816000000000e+02 1.925303253954e-04 0.000000000000e+00 -5.180005921411e+06 -5.052062996525e+04 -4.888121573499e+06 -1.774455070603e+08 6.366432331768e-03 -1.219381000720e-05 6.417975588049e-03 -1.939635940226e-02 6.250454485175e+07 1.724116508232e+08  2.578861064272e-02
5.888000000000e+02 1.950406231086e-04 0.000000000000e+00 -5.180591225187e+06 -5.057517068549e+04 -4.885815791917e+06 -1.785282057169e+08 6.449230627357e-03 -1.222826227658e-05 6.501657917754e-03 -1.964457905572e-02 6.286487091132e+07 1.734952121363e+08  2.612007137675e-02
5.960000000000e+02 1.975509390771e-04 0.000000000000e+00 -5.181165322248e+06 -5.062719856744e+04 -4.883518131491e+06 -1.795998122700e+08 6.532026390975e-03 -1.226149848390e-05 6.585340886472e-03 -1.989279273405e-02 6.322149857459e+07 1.745676828813e+08  2.645152519532e-02
6.032000000000e+02 2.000612730449e-04 0.000000000000e+00 -5.181728545933e+06 -5.067681110629e+04 -4.881228628603e+06 -1.806605517529e+08 6.614819643746e-03 -1.229354795236e-05 6.669024485423e-03 -2.014100050304e-02 6.357450297581e+07 1.756292879066e+08  2.678297217041e-02
6.104000000000e+02 2.025716247674e-04 0.000000000000e+00 -5.182281214834e+06 -5.072410130655e+04 -4.878947309830e+06 -1.817106424109e+08 6.697610405885e-03 -1.232443901294e-05 6.752708706191e-03 -2.038920242559e-02 6.392395697854e+07 1.766802452851e+08  2.711441237078e-02
6.176000000000e+02 2.050819938262e-04 0.000000000000e+00 -5.182823636709e+06 -5.076915868061e+04 -4.876674215355e+06 -1.827502959606e+08 6.780398696833e-03 -1.235419953004e-05 6.836393534584e-03 -2.063739855684e-02 6.426993127088e+07 1.777207665592e+08  2.744584585421e-02
6.248000000000e+02 2.075923802343e-04 0.000000000000e+00 -5.183356105285e+06 -5.081206760639e+04 -4.874409344676e+06 -1.837797179384e+08 6.863184539278e-03 -1.238285575394e-05 6.920078970779e-03 -2.088558897122e-02 6.461249446280e+07 1.787510571191e+08  2.777727270652e-02
6.320000000000e+02 2.101027835557e-04 0.000000000000e+00 -5.183878904641e+06 -5.085290965458e+04 -4.872152719889e+06 -1.847991077627e+08 6.945967948622e-03 -1.241043370607e-05 7.003765000001e-03 -2.113377371338e-02 6.495171312907e+07 1.797713162298e+08  2.810869297267e-02
6.392000000000e+02 2.126132036062e-04 0.000000000000e+00 -5.184392307317e+06 -5.089176245436e+04 -4.869904350217e+06 -1.858086591522e+08 7.028748945741e-03 -1.243695836225e-05 7.087451615880e-03 -2.138195284616e-02 6.528765193659e+07 1.807817374696e+08  2.844010672274e-02
6.464000000000e+02 2.151236402118e-04 0.000000000000e+00 -5.184896575677e+06 -5.092870022968e+04 -4.867664238012e+06 -1.868085602625e+08 7.111527550438e-03 -1.246245390934e-05 7.171138812385e-03 -2.163012642985e-02 6.562037369206e+07 1.817825088615e+08  2.877151402390e-02
6.536000000000e+02 2.176340931046e-04 0.000000000000e+00 -5.185391961764e+06 -5.096379415853e+04 -4.865432382448e+06 -1.877989938654e+08 7.194303779277e-03 -1.248694389898e-05 7.254826580342e-03 -2.187829451423e-02 6.594993940319e+07 1.827738130518e+08  2.910291492959e-02
6.608000000000e+02 2.201445620758e-04 0.000000000000e+00 -5.185878709665e+06 -5.099711229013e+04 -4.863208781249e+06 -1.887801376148e+08 7.277077650622e-03 -1.251045111647e-05 7.338514912583e-03 -2.212645715435e-02 6.627640836856e+07 1.837558275737e+08  2.943430950047e-02
6.680000000000e+02 2.226550469022e-04 0.000000000000e+00 -5.186357053156e+06 -5.102871987273e+04 -4.860993428125e+06 -1.897521642023e+08 7.359849182131e-03 -1.253299772291e-05 7.422203801440e-03 -2.237461440222e-02 6.659983822785e+07 1.847287250049e+08  2.976569779348e-02
6.752000000000e+02 2.251655473942e-04 0.000000000000e+00 -5.186827218442e+06 -5.105867930687e+04 -4.858786312965e+06 -1.907152415564e+08 7.442618391607e-03 -1.255460515443e-05 7.505893240385e-03 -2.262276631086e-02 6.692028502926e+07 1.856926731661e+08  3.009707986730e-02
6.824000000000e+02 2.276760633066e-04 0.000000000000e+00 -5.187289422490e+06 -5.108705044889e+04 -4.856587419211e+06 -1.916695329753e+08 7.525385293693e-03 -1.257529425921e-05 7.589583221013e-03 -2.287091292411e-02 6.723780327234e+07 1.866478352553e+08  3.042845576885e-02
6.896000000000e+02 2.301865944923e-04 0.000000000000e+00 -5.187743875035e+06 -5.111389052130e+04 -4.854396730824e+06 -1.926151973720e+08 7.608149906827e-03 -1.259508517191e-05 7.673273738225e-03 -2.311905429619e-02 6.755244599261e+07 1.875943700886e+08  3.075982555902e-02
6.968000000000e+02 2.326971407583e-04 0.000000000000e+00 -5.188190779442e+06 -5.113925459973e+04 -4.852214229838e+06 -1.935523893681e+08 7.690912247333e-03 -1.261399759208e-05 7.756964785385e-03 -2.336719047532e-02 6.786426479245e+07 1.885324321950e+08  3.109118929085e-02
7.040000000000e+02 2.352077018382e-04 0.000000000000e+00 -5.188630330348e+06 -5.116319551465e+04 -4.850039896248e+06 -1.944812594385e+08 7.773672329352e-03 -1.263205065722e-05 7.840656353402e-03 -2.361532150180e-02 6.817330988837e+07 1.894621719622e+08  3.142254700713e-02
7.112000000000e+02 2.377182776188e-04 0.000000000000e+00 -5.189062716249e+06 -5.118576386772e+04 -4.847873703022e+06 -1.954019541238e+08 7.856430169781e-03 -1.264926290027e-05 7.924348438297e-03 -2.386344742612e-02 6.847963018104e+07 1.903837358501e+08  3.175389876481e-02
7.184000000000e+02 2.402288679556e-04 0.000000000000e+00 -5.189488119659e+06 -5.120700795761e+04 -4.845715622153e+06 -1.963146161173e+08 7.939185784266e-03 -1.266565213928e-05 8.008041035081e-03 -2.411156829491e-02 6.878327328637e+07 1.912972664747e+08  3.208524461582e-02