 TITLE = "Time curves in points"
 VARIABLES = "TIME "  "DISPLACEMENT_X1"  "DISPLACEMENT_Y1"  "STRESS_XX"  "STRESS_XY"  "STRESS_YY"  "STRESS_ZZ"  "STRAIN_XX"  "STRAIN_XY"  "STRAIN_YY"  "STRAIN_ZZ"  p_(1st_Invariant)  q_(2nd_Invariant)   Effective_Strain
 ZONE T="POINT=POINT0"
0.000000000000e+00 0.000000000000e+00 0.000000000000e+00 0.000000000000e+00 0.000000000000e+00 0.000000000000e+00 0.000000000000e+00 0.000000000000e+00 0.000000000000e+00 0.000000000000e+00 0.000000000000e+00 -0.000000000000e+00 0.000000000000e+00  0.000000000000e+00
2.000000000000e+00 0.000000000000e+00 0.000000000000e+00 -4.991669731256e+05 -3.312966324893e-06 -4.991669731276e+05 -3.344418719609e+05 -1.029322430045e-05 -4.140783737193e-16 -1.029322430057e-05 1.587694794942e-15 4.442586060714e+05 1.647251011657e+05  1.029322430210e-05
4.000000000000e+00 0.000000000000e+00 0.000000000000e+00 -9.994269078656e+05 8.513722329796e+01 -9.993722303176e+05 -6.695048545826e+05 -2.067563985546e-05 1.072021919115e-08 -2.067219687186e-05 4.375403738561e-09 8.894346642553e+05 3.298947508649e+05  2.067830231888e-05
6.000000000000e+00 0.000000000000e+00 0.000000000000e+00 -1.499691204627e+06 1.769778663042e+02 -1.499581311324e+06 -1.004528544406e+06 -3.112405466371e-05 2.235484954610e-08 -3.111711403236e-05 1.077046928059e-08 1.334600353453e+06 4.951078176081e+05  3.113137947648e-05
8.000000000000e+00 0.000000000000e+00 0.000000000000e+00 -1.999951400075e+06 2.685065266227e+02 -1.999786940821e+06 -1.339547333067e+06 -4.163819339818e-05 3.402269462173e-08 -4.162777458220e-05 1.731888634329e-08 1.779761891321e+06 6.603220165148e+05  4.165034554181e-05
1.000000000000e+01 0.000000000000e+00 0.000000000000e+00 -2.500209802402e+06 3.598665684970e+02 -2.499991044061e+06 -1.674564961050e+06 -5.221853411246e-05 4.574230364731e-08 -5.220463233233e-05 2.391091197681e-08 2.224921935838e+06 8.255357192293e+05  5.223555560614e-05
1.200000000000e+01 0.000000000000e+00 0.000000000000e+00 -3.000466984904e+06 4.511411719791e+02 -3.000194052501e+06 -2.009582407364e+06 -6.286551871944e-05 5.752467387832e-08 -6.284812009832e-05 3.051582462449e-08 2.670081148256e+06 9.907484476778e+05  6.288741596750e-05
1.400000000000e+01 0.000000000000e+00 0.000000000000e+00 -3.500723142964e+06 5.423739806620e+02 -3.500396095002e+06 -2.344600044972e+06 -7.357957907098e-05 6.937583426608e-08 -7.355866536508e-05 3.712068576102e-08 3.115239760979e+06 1.155959990431e+06  7.360634321489e-05
1.600000000000e+01 0.000000000000e+00 0.000000000000e+00 -4.000978358750e+06 6.335901702588e+02 -4.000597217381e+06 -2.679618049358e+06 -8.436114448504e-05 8.129949401438e-08 -8.433669497821e-05 4.371875153130e-08 3.560397875163e+06 1.321170235715e+06  8.439275861889e-05
1.800000000000e+01 0.000000000000e+00 0.000000000000e+00 -4.501232671941e+06 7.248055108416e+02 -4.500797437299e+06 -3.014636510315e+06 -9.521064449273e-05 9.329818256731e-08 -9.518263689609e-05 5.030620276969e-08 4.005555539852e+06 1.486379122253e+06  9.524708706940e-05
2.000000000000e+01 0.000000000000e+00 0.000000000000e+00 -5.001486104001e+06 8.160304927765e+02 -5.000996761908e+06 -3.349655481067e+06 -1.061285098962e-04 1.053737685634e-07 -1.060969208308e-04 5.688048429674e-08 4.450712782325e+06 1.651586611045e+06  1.061697562481e-04
2.720000000000e+01 0.000000000000e+00 0.000000000000e+00 -5.002659590447e+06 9.112712910465e+02 -5.002116408363e+06 -8.430520038957e+06 -2.240750573489e-05 1.177959211223e-07 -2.237240659751e-05 -2.499358381121e-04 6.145098679256e+06 3.428132435180e+06  2.275459754470e-04
3.440000000000e+01 0.000000000000e+00 0.000000000000e+00 -5.013895369649e+06 1.083639495245e+04 -5.012952450871e+06 -1.371336103953e+07 6.102475029547e-05 1.372129984234e-06 6.108563122175e-05 -4.997123622965e-04 7.913402953350e+06 8.699957413829e+06  5.607725916639e-04
4.160000000000e+01 0.000000000000e+00 0.000000000000e+00 -4.996399528183e+06 1.188568938197e+04 -4.993614334190e+06 -1.880534961497e+07 1.452808856330e-04 1.510371783419e-06 1.454629103227e-04 -7.502198097500e-04 9.598454492446e+06 1.381035823830e+07  8.955955423457e-04
4.880000000000e+01 0.000000000000e+00 0.000000000000e+00 -4.988275766330e+06 5.773609166540e+01 -4.986383090726e+06 -2.366470703183e+07 2.293623850574e-04 -1.050013671309e-07 2.294808464148e-04 -1.000589613830e-03 1.121312196296e+07 1.867737767549e+07  1.230011247289e-03
5.600000000000e+01 0.000000000000e+00 0.000000000000e+00 -4.980626152598e+06 -1.032499513608e+04 -4.979498950990e+06 -2.830536719515e+07 3.133931719814e-04 -1.589524907377e-06 3.134545569648e-04 -1.250822856877e-03 1.275516409958e+07 2.332531151936e+07  1.564249145069e-03
6.320000000000e+01 0.000000000000e+00 0.000000000000e+00 -4.973648197457e+06 -1.967807603635e+04 -4.973206005273e+06 -3.274758459358e+07 3.973965522485e-04 -2.986671544666e-06 3.974046308342e-04 -1.501004059199e-03 1.423147959877e+07 2.777417840782e+07  1.898411698927e-03
7.040000000000e+01 0.000000000000e+00 0.000000000000e+00 -4.967324226740e+06 -2.818802060305e+04 -4.967508812291e+06 -3.700778869372e+07 4.813755976204e-04 -4.312316338400e-06 4.813328837424e-04 -1.751143944212e-03 1.564754057758e+07 3.204040937286e+07  2.232510679737e-03
7.760000000000e+01 0.000000000000e+00 0.000000000000e+00 -4.961596568167e+06 -3.597767535628e+04 -4.962361130667e+06 -4.110036979427e+07 5.653323474180e-04 -5.575588514428e-06 5.652407759151e-04 -2.001247471518e-03 1.700810916437e+07 3.613844467739e+07  2.566552203121e-03
8.480000000000e+01 0.000000000000e+00 0.000000000000e+00 -4.956404661877e+06 -4.314105735258e+04 -4.957709765193e+06 -4.503805894966e+07 6.492684590099e-04 -6.783115408538e-06 6.491296251237e-04 -2.251317923541e-03 1.831739112558e+07 4.008107140411e+07  2.900540762375e-03
9.200000000000e+01 0.000000000000e+00 0.000000000000e+00 -4.951690969902e+06 -4.975412206747e+04 -4.953502516227e+06 -4.883218508518e+07 7.331854575186e-04 -7.940169480941e-06 7.330007272756e-04 -2.501357992933e-03 1.957912619044e+07 4.387967299277e+07  3.234480327327e-03
9.920000000000e+01 0.000000000000e+00 0.000000000000e+00 -4.947404329738e+06 -5.587994811634e+04 -4.949692350632e+06 -5.249287388543e+07 8.170846634112e-04 -9.051146552616e-06 8.168552345846e-04 -2.751369854225e-03 2.079665685527e+07 4.754442410194e+07  3.568374246138e-03
1.064000000000e+02 0.000000000000e+00 0.000000000000e+00 -4.943499618225e+06 -6.157177781528e+04 -4.946237469505e+06 -5.602921455939e+07 9.009672668351e-04 -1.011980707207e-05 9.006942067862e-04 -3.001355410781e-03 2.197298388237e+07 5.108445738879e+07  3.902225521143e-03
1.136000000000e+02 0.000000000000e+00 0.000000000000e+00 -4.939936478637e+06 -6.687508254898e+04 -4.943100271487e+06 -5.944939722490e+07 9.848343883587e-04 -1.114942528634e-05 9.845186588173e-04 -3.251316416331e-03 2.311081132501e+07 5.450800199095e+07  4.236036967598e-03
1.208000000000e+02 0.000000000000e+00 0.000000000000e+00 -4.936680403943e+06 -7.182902916988e+04 -4.940248568315e+06 -6.276082596186e+07 1.068686961924e-03 -1.214288430784e-05 1.068329437491e-03 -3.501254286493e-03 2.421258497804e+07 5.782249540107e+07  4.569810895986e-03
1.280000000000e+02 0.000000000000e+00 0.000000000000e+00 -4.933700695265e+06 -7.646758137320e+04 -4.937653645872e+06 -6.597021861519e+07 1.152525875140e-03 -1.310274261057e-05 1.152127356554e-03 -3.751170376834e-03 2.528052431878e+07 6.103468524493e+07  4.903549522737e-03
1.352000000000e+02 0.000000000000e+00 0.000000000000e+00 -4.930970176216e+06 -8.082038728692e+04 -4.935290045549e+06 -6.908368869641e+07 1.236351953838e-03 -1.403129011707e-05 1.235913178192e-03 -4.001065951377e-03 2.631664963939e+07 6.415071142736e+07  5.237254918970e-03
1.424000000000e+02 0.000000000000e+00 0.000000000000e+00 -4.928465171930e+06 -8.491344535140e+04 -4.933135587520e+06 -7.210681506218e+07 1.320165923600e-03 -1.493058402633e-05 1.319687572998e-03 -4.250942108178e-03 2.732280527388e+07 6.717617580554e+07  5.570928895139e-03
1.496000000000e+02 0.000000000000e+00 0.000000000000e+00 -4.926164394477e+06 -8.876967346344e+04 -4.931170303017e+06 -7.504470295579e+07 1.403968467054e-03 -1.580248406084e-05 1.403451174712e-03 -4.500799867179e-03 2.830067921776e+07 7.011620431974e+07  5.904573143980e-03
1.568000000000e+02 0.000000000000e+00 0.000000000000e+00 -4.924049364565e+06 -9.240934402881e+04 -4.929376873033e+06 -7.790203655134e+07 1.487760197727e-03 -1.664867473042e-05 1.487204554274e-03 -4.750640170836e-03 2.925182092965e+07 7.297549910643e+07  6.238189214509e-03
1.640000000000e+02 0.000000000000e+00 0.000000000000e+00 -4.922103435663e+06 -9.585047221305e+04 -4.927739685837e+06 -8.068312336641e+07 1.571541680747e-03 -1.747069038086e-05 1.570948238497e-03 -5.000463863937e-03 3.017765549597e+07 7.575838386998e+07  6.571778511244e-03
1.712000000000e+02 0.000000000000e+00 0.000000000000e+00 -4.920311913439e+06 -9.910911791469e+04 -4.926244971468e+06 -8.339193467166e+07 1.655313449293e-03 -1.826993147656e-05 1.654682726221e-03 -5.250271779895e-03 3.107949718552e+07 7.846884416551e+07  6.905342396627e-03
1.784000000000e+02 0.000000000000e+00 0.000000000000e+00 -4.918661366801e+06 -1.021996515440e+05 -4.924880128575e+06 -8.603213811284e+07 1.739075986943e-03 -1.904768145046e-05 1.738408470041e-03 -5.500064626297e-03 3.195855986940e+07 8.111056070217e+07  7.238882058552e-03
1.856000000000e+02 0.000000000000e+00 0.000000000000e+00 -4.917140196031e+06 -1.051349636295e+05 -4.923634303490e+06 -8.860712933966e+07 1.822829733009e-03 -1.980511755269e-05 1.822125881400e-03 -5.749843088888e-03 3.281596794639e+07 8.368694039892e+07  7.572398619525e-03
1.928000000000e+02 0.000000000000e+00 0.000000000000e+00 -4.915737470548e+06 -1.079266574122e+05 -4.922497241591e+06 -9.112005766388e+07 1.906575126599e-03 -2.054332391839e-05 1.905835373893e-03 -5.999607833490e-03 3.365276412534e+07 8.620114319840e+07  7.905893182295e-03
2.000000000000e+02 0.000000000000e+00 0.000000000000e+00 -4.914443716491e+06 -1.105852085111e+05 -4.921460083670e+06 -9.357384934028e+07 1.990312550509e-03 -2.126330187417e-05 1.989537306833e-03 -6.249359451964e-03 3.446991771348e+07 8.865610455640e+07  8.239366719582e-03
2.072000000000e+02 0.000000000000e+00 0.000000000000e+00 -4.913250443726e+06 -1.131200888323e+05 -4.920514894253e+06 -9.597122788760e+07 2.074042345320e-03 -2.196597542433e-05 2.073231999929e-03 -6.499098458412e-03 3.526833107519e+07 9.105455623544e+07  8.572820084684e-03
2.144000000000e+02 0.000000000000e+00 0.000000000000e+00 -4.912149581029e+06 -1.155398957624e+05 -4.919654113392e+06 -9.831473345092e+07 2.157764882483e-03 -2.265220223217e-05 2.156919804760e-03 -6.748825438937e-03 3.604884571511e+07 9.339904622414e+07  8.906254233599e-03
2.216000000000e+02 0.000000000000e+00 0.000000000000e+00 -4.911134280281e+06 -1.178524432170e+05 -4.918871356540e+06 -1.006067374668e+08 2.241480449070e-03 -2.332277764005e-05 2.240600990694e-03 -6.998540829242e-03 3.681224770121e+07 9.569195260057e+07  9.239669887982e-03
2.288000000000e+02 0.000000000000e+00 0.000000000000e+00 -4.910197986065e+06 -1.200648525399e+05 -4.918160496244e+06 -1.028494584521e+08 2.325189354600e-03 -2.397844157589e-05 2.324275850504e-03 -7.248245111460e-03 3.755927231148e+07 9.793550024576e+07  9.573067838254e-03
2.360000000000e+02 0.000000000000e+00 0.000000000000e+00 -4.909334771393e+06 -1.221836274274e+05 -4.917515998303e+06 -1.050449743804e+08 2.408891884117e-03 -2.461988352561e-05 2.407944653837e-03 -7.497938728361e-03 3.829060838335e+07 1.001317728843e+08  9.906448811135e-03
2.432000000000e+02 0.000000000000e+00 0.000000000000e+00 -4.908539497191e+06 -1.242147182128e+05 -4.916933084728e+06 -1.071952341876e+08 2.492588277334e-03 -2.524774660246e-05 2.491607626248e-03 -7.747622053213e-03 3.900690225651e+07 1.022827244294e+08  1.023981341863e-02
2.504000000000e+02 0.000000000000e+00 0.000000000000e+00 -4.907807166099e+06 -1.261635812142e+05 -4.916407092970e+06 -1.093020687990e+08 2.576278797293e-03 -2.586263213258e-05 2.575265017403e-03 -7.997295503493e-03 3.970876101935e+07 1.043901906530e+08  1.057316234020e-02
2.576000000000e+02 0.000000000000e+00 0.000000000000e+00 -4.907133410967e+06 -1.280352274281e+05 -4.915933964246e+06 -1.113671997634e+08 2.659963660935e-03 -2.646510268920e-05 2.658917031998e-03 -8.246959413404e-03 4.039675571289e+07 1.064558973322e+08  1.090649612610e-02
2.648000000000e+02 0.000000000000e+00 0.000000000000e+00 -4.906514120480e+06 -1.298342677063e+05 -4.915509873963e+06 -1.133922483939e+08 2.743643091447e-03 -2.705568554364e-05 2.742563881658e-03 -8.496614136913e-03 4.107142412945e+07 1.084814697617e+08  1.123981535254e-02
2.720000000000e+02 0.000000000000e+00 0.000000000000e+00 -4.905945574321e+06 -1.315649525479e+05 -4.915131367674e+06 -1.153787430829e+08 2.827317291440e-03 -2.763487574968e-05 2.826205758239e-03 -8.746259993351e-03 4.173327334162e+07 1.104684399341e+08  1.157312054055e-02
2.792000000000e+02 0.000000000000e+00 0.000000000000e+00 -4.905424337592e+06 -1.332312057824e+05 -4.914795257981e+06 -1.173281263904e+08 2.910986454890e-03 -2.820313842036e-05 2.909842845614e-03 -8.995897290028e-03 4.238278199531e+07 1.124182537319e+08  1.190641219055e-02
2.864000000000e+02 0.000000000000e+00 0.000000000000e+00 -4.904947265860e+06 -1.348366557135e+05 -4.914498630849e+06 -1.192417613172e+08 2.994650763297e-03 -2.876091119697e-05 2.993475315840e-03 -9.245526315232e-03 4.302040240462e+07 1.143322771957e+08  1.223969077144e-02
2.936000000000e+02 0.000000000000e+00 0.000000000000e+00 -4.904511436411e+06 -1.363846625166e+05 -4.914238778679e+06 -1.211209370819e+08 3.078310391436e-03 -2.930860638932e-05 3.077103334797e-03 -9.495147346912e-03 4.364656243234e+07 1.162118023689e+08  1.257295673510e-02
3.008000000000e+02 0.000000000000e+00 0.000000000000e+00 -4.904114182869e+06 -1.378783424177e+05 -4.914013236071e+06 -1.229668743181e+08 3.161965501301e-03 -2.984661283171e-05 3.160727056119e-03 -9.744760643525e-03 4.426166724569e+07 1.180580524595e+08  1.290621050113e-02
3.080000000000e+02 0.000000000000e+00 0.000000000000e+00 -4.903753017707e+06 -1.393205895618e+05 -4.913819703598e+06 -1.247807299008e+08 3.245616249793e-03 -3.037529766413e-05 3.244346628829e-03 -9.994366456131e-03 4.486610087404e+07 1.198721867439e+08  1.323945247666e-02
3.152000000000e+02 0.000000000000e+00 0.000000000000e+00 -4.903425671463e+06 -1.407140951723e+05 -4.913656087918e+06 -1.265636012697e+08 3.329262781978e-03 -3.089500780248e-05 3.327962190586e-03 -1.024396501771e-02 4.546022767636e+07 1.216553048509e+08  1.357268303892e-02
3.224000000000e+02 0.000000000000e+00 0.000000000000e+00 -4.903130004718e+06 -1.420613654899e+05 -4.913520415156e+06 -1.283165305103e+08 3.412905241855e-03 -3.140607155845e-05 3.411573878338e-03 -1.049355656146e-02 4.604439364338e+07 1.234084509291e+08  1.390590256429e-02
3.296000000000e+02 0.000000000000e+00 0.000000000000e+00 -4.902864078820e+06 -1.433647371025e+05 -4.913410901834e+06 -1.300405078225e+08 3.496543755261e-03 -3.190879982410e-05 3.495181811325e-03 -1.074314128493e-02 4.661892760107e+07 1.251326170458e+08  1.423911137539e-02
3.368000000000e+02 0.000000000000e+00 0.000000000000e+00 -4.902626051831e+06 -1.446263908204e+05 -4.913325852162e+06 -1.317364752467e+08 3.580178455830e-03 -3.240348717846e-05 3.578786116893e-03 -1.099271940979e-02 4.718414238357e+07 1.268287470158e+08  1.457230982670e-02
3.440000000000e+02 0.000000000000e+00 0.000000000000e+00 -4.902414236175e+06 -1.458483654254e+05 -4.913263716250e+06 -1.334053294352e+08 3.663809463081e-03 -3.289041338592e-05 3.662386908594e-03 -1.124229112895e-02 4.774033579587e+07 1.284977391154e+08  1.490549822988e-02
3.512000000000e+02 0.000000000000e+00 0.000000000000e+00 -4.902227051912e+06 -1.470325677575e+05 -4.913223043775e+06 -1.350479245997e+08 3.747436890377e-03 -3.336984385056e-05 3.745984294165e-03 -1.149185662294e-02 4.828779156514e+07 1.301404490764e+08  1.523867687808e-02
3.584000000000e+02 0.000000000000e+00 0.000000000000e+00 -4.902063063301e+06 -1.481807842068e+05 -4.913202521565e+06 -1.366650752162e+08 3.831060844131e-03 -3.384203097162e-05 3.829578374623e-03 -1.174141606621e-02 4.882678026701e+07 1.317576927536e+08  1.557184605138e-02
3.656000000000e+02 0.000000000000e+00 0.000000000000e+00 -4.901920877320e+06 -1.492946893670e+05 -4.913200872060e+06 -1.382575584830e+08 3.914681435018e-03 -3.430721467895e-05 3.913169255584e-03 -1.199096964161e-02 4.935756007745e+07 1.333502486847e+08  1.590500604259e-02
3.728000000000e+02 0.000000000000e+00 0.000000000000e+00 -4.901799231184e+06 -1.503758554271e+05 -4.913216941897e+06 -1.398261164159e+08 3.998298760575e-03 -3.476562356089e-05 3.996757029723e-03 -1.224051750713e-02 4.988037752965e+07 1.349188600974e+08  1.623815710648e-02
3.800000000000e+02 0.000000000000e+00 0.000000000000e+00 -4.901696928302e+06 -1.514257591966e+05 -4.913249638042e+06 -1.413714580590e+08 4.081912917899e-03 -3.521747527080e-05 4.080341789506e-03 -1.249005982187e-02 5.039546820846e+07 1.364642371843e+08  1.657129949856e-02
3.872000000000e+02 0.000000000000e+00 0.000000000000e+00 -4.901612881964e+06 -1.524457896057e+05 -4.913297971812e+06 -1.428942613520e+08 4.165523995202e-03 -3.566297736614e-05 4.163923618753e-03 -1.273959673112e-02 5.090305740193e+07 1.379870589258e+08  1.690443345160e-02
3.944000000000e+02 0.000000000000e+00 0.000000000000e+00 -4.901546035536e+06 -1.534372539474e+05 -4.913360979572e+06 -1.443951749739e+08 4.249132082851e-03 -3.610232783015e-05 4.247502603628e-03 -1.298912838316e-02 5.140336066302e+07 1.394879750142e+08  1.723755920356e-02
4.016000000000e+02 0.000000000000e+00 0.000000000000e+00 -4.901495428319e+06 -1.544013839475e+05 -4.913437788854e+06 -1.458748199633e+08 4.332737263495e-03 -3.653571571523e-05 4.331078822778e-03 -1.323865491480e-02 5.189658439349e+07 1.409676074074e+08  1.757067697321e-02
4.088000000000e+02 0.000000000000e+00 0.000000000000e+00 -4.901460158253e+06 -1.553393411864e+05 -4.913527581537e+06 -1.473337912976e+08 4.416339617524e-03 -3.696332168477e-05 4.414652352739e-03 -1.348817646041e-02 5.238292634578e+07 1.424265519456e+08  1.790378697465e-02
4.160000000000e+02 0.000000000000e+00 0.000000000000e+00 -4.901439329630e+06 -1.562522218420e+05 -4.913629541580e+06 -1.487726592592e+08 4.499939224504e-03 -3.738531841355e-05 4.498223269416e-03 -1.373769314510e-02 5.286257604345e+07 1.438653797695e+08  1.823688941188e-02
4.232000000000e+02 0.000000000000e+00 0.000000000000e+00 -4.901432205465e+06 -1.571410613006e+05 -4.913743007773e+06 -1.501919709117e+08 4.583536153079e-03 -3.780187107863e-05 4.581791637963e-03 -1.398720508983e-02 5.333571537500e+07 1.452846386441e+08  1.856998447387e-02
4.304000000000e+02 0.000000000000e+00 0.000000000000e+00 -4.901437983899e+06 -1.580068384184e+05 -4.913867250614e+06 -1.515922512689e+08 4.667130481748e-03 -3.821313783147e-05 4.665357533481e-03 -1.423671242296e-02 5.380251883447e+07 1.466848543509e+08  1.890307236683e-02
4.376000000000e+02 0.000000000000e+00 0.000000000000e+00 -4.901455998622e+06 -1.588504791178e+05 -4.914001672371e+06 -1.529740044538e+08 4.750722274715e-03 -3.861927008455e-05 4.748921017008e-03 -1.448621525508e-02 5.426315404160e+07 1.480665316469e+08  1.923615326492e-02
4.448000000000e+02 0.000000000000e+00 0.000000000000e+00 -4.901485585337e+06 -1.596728603566e+05 -4.914145674496e+06 -1.543377146731e+08 4.834311589902e-03 -3.902041309675e-05 4.832482143343e-03 -1.473571367229e-02 5.471778197764e+07 1.494301553721e+08  1.956922731158e-02
4.520000000000e+02 0.000000000000e+00 0.000000000000e+00 -4.901526095706e+06 -1.604748125209e+05 -4.914298671228e+06 -1.556838476588e+08 4.917898502901e-03 -3.941670590486e-05 4.916040985119e-03 -1.498520781127e-02 5.516655747524e+07 1.507761918772e+08  1.990229471845e-02
4.592000000000e+02 0.000000000000e+00 0.000000000000e+00 -4.901576959172e+06 -1.612571236327e+05 -4.914460151799e+06 -1.570128511227e+08 5.001483068649e-03 -3.980828224060e-05 4.999597594425e-03 -1.523469776029e-02 5.560962941121e+07 1.521050894163e+08  2.023535562814e-02
4.664000000000e+02 0.000000000000e+00 0.000000000000e+00 -4.901637624054e+06 -1.620205408789e+05 -4.914629621630e+06 -1.583251559400e+08 5.085065345849e-03 -4.019527022409e-05 5.083152027230e-03 -1.548418361833e-02 5.604714106191e+07 1.534172793894e+08  2.056841019776e-02
4.736000000000e+02 0.000000000000e+00 0.000000000000e+00 -4.901707574497e+06 -1.627657738469e+05 -4.914806619375e+06 -1.596211769158e+08 5.168645390170e-03 -4.057779298143e-05 5.166704336600e-03 -1.573366547934e-02 5.647923036989e+07 1.547131770912e+08  2.090145857638e-02
4.808000000000e+02 0.000000000000e+00 0.000000000000e+00 -4.901786299875e+06 -1.634934970153e+05 -4.914990686887e+06 -1.609013135845e+08 5.252223258737e-03 -4.095596898006e-05 5.250254577068e-03 -1.598314343813e-02 5.690603019041e+07 1.559931825421e+08  2.123450091533e-02
4.880000000000e+02 0.000000000000e+00 0.000000000000e+00 -4.901873357728e+06 -1.642043511942e+05 -4.915181431512e+06 -1.621659509386e+08 5.335799001001e-03 -4.132991188867e-05 5.333802795702e-03 -1.623261757971e-02 5.732766857594e+07 1.572576811533e+08  2.156753734855e-02
4.952000000000e+02 0.000000000000e+00 0.000000000000e+00 -4.901968308676e+06 -1.648989462646e+05 -4.915378461789e+06 -1.634154601317e+08 5.419372667359e-03 -4.169973117694e-05 5.417349040550e-03 -1.648208798862e-02 5.774426896738e+07 1.585070444950e+08  2.190056801045e-02
5.024000000000e+02 0.000000000000e+00 0.000000000000e+00 -4.902070740200e+06 -1.655778628022e+05 -4.915581411004e+06 -1.646501991414e+08 5.502944306484e-03 -4.206553220045e-05 5.500893358052e-03 -1.673155474737e-02 5.815595043085e+07 1.597416309355e+08  2.223359303168e-02
5.096000000000e+02 0.000000000000e+00 0.000000000000e+00 -4.902180254372e+06 -1.662416537988e+05 -4.915789925603e+06 -1.658705133827e+08 5.586513966640e-03 -4.242741639234e-05 5.584435794198e-03 -1.698101793729e-02 5.856282785423e+07 1.609617862665e+08  2.256661254127e-02
5.168000000000e+02 0.000000000000e+00 0.000000000000e+00 -4.902296491361e+06 -1.668908462651e+05 -4.916003687646e+06 -1.670767362898e+08 5.670081692331e-03 -4.278548144015e-05 5.667976391483e-03 -1.723047763535e-02 5.896501215628e+07 1.621678442621e+08  2.289962666024e-02
5.240000000000e+02 0.000000000000e+00 0.000000000000e+00 -4.902419099178e+06 -1.675259428009e+05 -4.916222385781e+06 -1.682691898378e+08 5.753647526505e-03 -4.313982150158e-05 5.751515190802e-03 -1.747993391264e-02 5.936261044092e+07 1.633601272299e+08  2.323263550210e-02
5.312000000000e+02 0.000000000000e+00 0.000000000000e+00 -4.902547745224e+06 -1.681474229570e+05 -4.916445726397e+06 -1.694481851194e+08 5.837211513036e-03 -4.349052734836e-05 5.835052234056e-03 -1.772938684518e-02 5.975572619701e+07 1.645389465766e+08  2.356563918626e-02
5.384000000000e+02 0.000000000000e+00 0.000000000000e+00 -4.902682128192e+06 -1.687557445616e+05 -4.916673445507e+06 -1.706140227745e+08 5.920773690807e-03 -4.383768653505e-05 5.918587558263e-03 -1.797883649988e-02 6.014445944940e+07 1.657046032255e+08  2.389863781806e-02
5.456000000000e+02 0.000000000000e+00 0.000000000000e+00 -4.902821940312e+06 -1.693513449513e+05 -4.916905271370e+06 -1.717669934798e+08 6.004334100960e-03 -4.418138355500e-05 6.002121202723e-03 -1.822828294579e-02 6.052890689716e+07 1.668573881438e+08  2.423163150718e-02
5.528000000000e+02 0.000000000000e+00 0.000000000000e+00 -4.902966895584e+06 -1.699346421388e+05 -4.917140952632e+06 -1.729073783899e+08 6.087892783251e-03 -4.452169999883e-05 6.085653205410e-03 -1.847772625121e-02 6.090916207936e+07 1.679975827555e+08  2.456462036123e-02
5.600000000000e+02 0.000000000000e+00 0.000000000000e+00 -4.903116754275e+06 -1.705060356418e+05 -4.917380282749e+06 -1.740354495340e+08 6.171449771177e-03 -4.485871454932e-05 6.169183598143e-03 -1.872716647669e-02 6.128531552366e+07 1.691254593136e+08  2.489760447380e-02
5.672000000000e+02 0.000000000000e+00 0.000000000000e+00 -4.903271247091e+06 -1.710659079118e+05 -4.917623024491e+06 -1.751514701423e+08 6.255005098133e-03 -4.519250336150e-05 6.252712412659e-03 -1.897660367150e-02 6.165745480464e+07 1.702412813022e+08  2.523058392714e-02
5.744000000000e+02 0.000000000000e+00 0.000000000000e+00 -4.903430116993e+06 -1.716146248144e+05 -4.917868951805e+06 -1.762556952844e+08 6.338558811477e-03 -4.552313991702e-05 6.336239694682e-03 -1.922603792779e-02 6.202566478439e+07 1.713453040330e+08  2.556355886028e-02
5.816000000000e+02 0.000000000000e+00 0.000000000000e+00 -4.903593176441e+06 -1.721525368877e+05 -4.918117906737e+06 -1.773483717654e+08 6.422110929744e-03 -4.585069536612e-05 6.419765461247e-03 -1.947546927022e-02 6.239002761619e+07 1.724377744844e+08  2.589652931602e-02
5.888000000000e+02 0.000000000000e+00 0.000000000000e+00 -4.903760181738e+06 -1.726799797492e+05 -4.918369674366e+06 -1.784297388832e+08 6.505661493366e-03 -4.617523838756e-05 6.503289751252e-03 -1.972489777002e-02 6.275062291310e+07 1.735189321842e+08  2.622949540557e-02
5.960000000000e+02 0.000000000000e+00 0.000000000000e+00 -4.903930935652e+06 -1.731972753169e+05 -4.918624085109e+06 -1.795000285290e+08 6.589210533071e-03 -4.649683556650e-05 6.586812593973e-03 -1.997432348146e-02 6.310752784991e+07 1.745890092074e+08  2.656245721355e-02
6.032000000000e+02 0.000000000000e+00 0.000000000000e+00 -4.904105241935e+06 -1.737047321596e+05 -4.918880969390e+06 -1.805594655235e+08 6.672758079463e-03 -4.681555126506e-05 6.670334018605e-03 -2.022374645697e-02 6.346081724493e+07 1.756482305582e+08  2.689541482257e-02
6.104000000000e+02 0.000000000000e+00 0.000000000000e+00 -4.904282911631e+06 -1.742026462876e+05 -4.919140163986e+06 -1.816082679143e+08 6.756304163048e-03 -4.713144778316e-05 6.753854054293e-03 -2.047316674916e-02 6.381056366331e+07 1.766968144607e+08  2.722836831536e-02
6.176000000000e+02 0.000000000000e+00 0.000000000000e+00 -4.904463791102e+06 -1.746913019315e+05 -4.919401540139e+06 -1.826466471934e+08 6.839848805527e-03 -4.744458553705e-05 6.837372721404e-03 -2.072258439378e-02 6.415683750820e+07 1.777349725484e+08  2.756131774898e-02
6.248000000000e+02 0.000000000000e+00 0.000000000000e+00 -4.904647685900e+06 -1.751709717870e+05 -4.919664927407e+06 -1.836748087255e+08 6.923392045664e-03 -4.775502291736e-05 6.920890057419e-03 -2.097199946310e-02 6.449970711293e+07 1.787629103689e+08  2.789426323408e-02
6.320000000000e+02 0.000000000000e+00 0.000000000000e+00 -4.904834444138e+06 -1.756419181083e+05 -4.919930197157e+06 -1.846929517250e+08 7.006933904533e-03 -4.806281670918e-05 7.004406082145e-03 -2.122141198850e-02 6.483923878878e+07 1.797808272774e+08  2.822720482274e-02
6.392000000000e+02 0.000000000000e+00 0.000000000000e+00 -4.905023920289e+06 -1.761043926254e+05 -4.920197226250e+06 -1.857012697033e+08 7.090474408443e-03 -4.836802177076e-05 7.087920820690e-03 -2.147082201770e-02 6.517549694996e+07 1.807889169197e+08  2.856014258862e-02
6.464000000000e+02 0.000000000000e+00 0.000000000000e+00 -4.905215963701e+06 -1.765586374564e+05 -4.920465885752e+06 -1.866999506262e+08 7.174013585810e-03 -4.867069137327e-05 7.171434300282e-03 -2.172022960165e-02 6.550854415854e+07 1.817873674018e+08  2.889307661074e-02
6.536000000000e+02 0.000000000000e+00 0.000000000000e+00 -4.905410443103e+06 -1.770048854841e+05 -4.920736065305e+06 -1.876891770795e+08 7.257551459299e-03 -4.897087720842e-05 7.254946542463e-03 -2.196963477926e-02 6.583844119597e+07 1.827763614309e+08  2.922600695032e-02
6.608000000000e+02 0.000000000000e+00 0.000000000000e+00 -4.905607219351e+06 -1.774433607122e+05 -4.921007646158e+06 -1.886691265236e+08 7.341088054765e-03 -4.926862939514e-05 7.338457571940e-03 -2.221903759503e-02 6.616524712970e+07 1.837560765963e+08  2.955893367735e-02
6.680000000000e+02 0.000000000000e+00 0.000000000000e+00 -4.905806174005e+06 -1.778742787852e+05 -4.921280529489e+06 -1.896399714619e+08 7.424623394530e-03 -4.956399660896e-05 7.421967409967e-03 -2.246843808872e-02 6.648901938846e+07 1.847266855105e+08  2.989185685358e-02
6.752000000000e+02 0.000000000000e+00 0.000000000000e+00 -4.906007188148e+06 -1.782978472724e+05 -4.921554615406e+06 -1.906018796345e+08 7.508157501844e-03 -4.985702606511e-05 7.505476078736e-03 -2.271783630157e-02 6.680981381267e+07 1.856883560233e+08  3.022477654317e-02
6.824000000000e+02 0.000000000000e+00 0.000000000000e+00 -4.906210139785e+06 -1.787142661926e+05 -4.921829800394e+06 -1.915550141702e+08 7.591690399439e-03 -5.014776367944e-05 7.588983599939e-03 -2.296723227114e-02 6.712768470347e+07 1.866412513764e+08  3.055769280608e-02
6.896000000000e+02 0.000000000000e+00 0.000000000000e+00 -4.906414931893e+06 -1.791237281028e+05 -4.922106005203e+06 -1.924995337918e+08 7.675222107970e-03 -5.043625393722e-05 7.672489993263e-03 -2.321662603638e-02 6.744268490964e+07 1.875855303811e+08  3.089060570162e-02
6.968000000000e+02 0.000000000000e+00 0.000000000000e+00 -4.906621453903e+06 -1.795264187659e+05 -4.922383136631e+06 -1.934355929427e+08 7.758752649947e-03 -5.072254017849e-05 7.755995280223e-03 -2.346601763611e-02 6.775486584441e+07 1.885213475828e+08  3.122351529076e-02
7.040000000000e+02 0.000000000000e+00 0.000000000000e+00 -4.906829606308e+06 -1.799225172870e+05 -4.922661112006e+06 -1.943633419273e+08 7.842282044326e-03 -5.100666452193e-05 7.839499478810e-03 -2.371540710143e-02 6.806427754854e+07 1.894488533772e+08  3.155642162326e-02
7.112000000000e+02 0.000000000000e+00 0.000000000000e+00 -4.907039301460e+06 -1.803121961914e+05 -4.922939859843e+06 -1.952829271234e+08 7.925810312334e-03 -5.128866775122e-05 7.923002609369e-03 -2.396479447362e-02 6.837096876158e+07 1.903681942221e+08  3.188932476133e-02
7.184000000000e+02 0.000000000000e+00 0.000000000000e+00 -4.907250446955e+06 -1.806956221472e+05 -4.923219303520e+06 -1.961944910417e+08 8.009337473318e-03 -5.156858967507e-05 8.006504690348e-03 -2.421417978577e-02 6.867498693071e+07 1.912795127126e+08  3.222222475713e-02