 TITLE = "Time curves in points"
 VARIABLES = "TIME "  "DISPLACEMENT_X1"  "DISPLACEMENT_Y1"  "STRESS_XX"  "STRESS_XY"  "STRESS_YY"  "STRESS_ZZ"  "STRAIN_XX"  "STRAIN_XY"  "STRAIN_YY"  "STRAIN_ZZ"  p_(1st_Invariant)  q_(2nd_Invariant)   Effective_Strain
 ZONE T="POINT=POINT1"
0.000000000000e+00 0.000000000000e+00 0.000000000000e+00 0.000000000000e+00 0.000000000000e+00 0.000000000000e+00 0.000000000000e+00 0.000000000000e+00 0.000000000000e+00 0.000000000000e+00 0.000000000000e+00 -0.000000000000e+00 0.000000000000e+00  0.000000000000e+00
2.000000000000e+00 -3.087967291818e-07 0.000000000000e+00 -4.989190469084e+05 -1.630330690175e-05 -4.989190470882e+05 -3.342757615482e+05 -1.029322429489e-05 -2.038549111959e-15 -1.029322430614e-05 -2.778537167899e-15 4.440379518483e+05 1.646432854501e+05  1.029322429774e-05
4.000000000000e+00 -6.179943784120e-07 0.000000000000e+00 -9.988557666643e+05 -6.427026169973e+01 -9.986436131008e+05 -6.690938409854e+05 -2.061300566959e-05 -8.065048381275e-09 -2.059971875145e-05 3.205730826145e-09 8.888644069168e+05 3.296559188927e+05  2.060957588769e-05
6.000000000000e+00 -9.271954178955e-07 0.000000000000e+00 -1.498796203740e+06 -1.292146945886e+02 -1.498370283601e+06 -1.003913065052e+06 -3.093300065838e-05 -1.621433482191e-08 -3.090632599323e-05 6.449220016554e-09 1.333693184131e+06 4.946703667690e+05  3.092613392527e-05
8.000000000000e+00 -1.236397007448e-06 0.000000000000e+00 -1.998736093347e+06 -1.941864929673e+02 -1.998095370691e+06 -1.338732749461e+06 -4.125307764785e-05 -2.436688832533e-08 -4.121295067355e-05 9.637723893404e-09 1.778521404500e+06 6.596833016651e+05  4.124268811971e-05
1.000000000000e+01 -1.545599151316e-06 0.000000000000e+00 -2.498675463135e+06 -2.591821242808e+02 -2.497818883107e+06 -1.673552874832e+06 -5.157323790129e-05 -3.252227098904e-08 -5.151959287308e-05 1.277271728877e-08 2.223349073691e+06 8.246947541080e+05  5.155923980654e-05
1.200000000000e+01 -1.854801870801e-06 0.000000000000e+00 -2.998614364607e+06 -3.242023313994e+02 -2.997540849387e+06 -2.008373421542e+06 -6.189348351796e-05 -4.068057957549e-08 -6.182625325385e-05 1.585637190486e-08 2.668176211845e+06 9.897047814143e+05  6.187579226938e-05
1.400000000000e+01 -2.164005187032e-06 0.000000000000e+00 -3.498552841832e+06 -3.892464244684e+02 -3.497261295739e+06 -2.343194371650e+06 -7.221381628079e-05 -4.884173133484e-08 -7.213293248024e-05 1.889062802688e-08 3.113002836407e+06 1.154713435677e+06  7.219234855751e-05
1.600000000000e+01 -2.473209118254e-06 0.000000000000e+00 -3.998490929308e+06 -4.543118928241e+02 -3.996980244078e+06 -2.678015710866e+06 -8.253423755631e-05 -5.700541537754e-08 -8.243963112953e-05 2.187703799692e-08 3.557828961417e+06 1.319720758902e+06  8.250891113768e-05
1.800000000000e+01 -2.782413682423e-06 0.000000000000e+00 -4.498428654107e+06 -5.193950288962e+02 -4.496697715467e+06 -3.012837431245e+06 -9.285474829910e-05 -6.517117076482e-08 -9.274634977790e-05 2.481672765945e-08 4.002654600273e+06 1.484726782831e+06  9.282548186864e-05
2.000000000000e+01 -3.091618895115e-06 0.000000000000e+00 -4.998366037503e+06 -5.844909049743e+02 -4.996413726211e+06 -3.347659522617e+06 -1.031753493237e-04 -7.333838372765e-08 -1.030530889264e-04 2.771076169632e-08 4.447479762110e+06 1.649731536259e+06  1.031420624528e-04
2.720000000000e+01 -5.795105893775e-07 0.000000000000e+00 -4.999278682542e+06 -5.987493128623e+02 -4.997119538749e+06 -8.490081414862e+06 -1.945209439949e-05 -7.574971335431e-08 -1.931599036941e-05 -2.499655668065e-04 6.162159878718e+06 3.491882958868e+06  2.305815918760e-04
3.440000000000e+01 1.922828597530e-06 0.000000000000e+00 -5.025300032004e+06 -1.767003493563e+04 -5.002285905470e+06 -1.360608486745e+07 6.269458438566e-05 -2.321656698741e-06 6.411444846366e-05 -4.981055210561e-04 7.877890268307e+06 8.592369521881e+06  5.615257825529e-04
4.160000000000e+01 4.424631031240e-06 0.000000000000e+00 -5.051333885442e+06 -3.490458725040e+04 -5.006542117588e+06 -1.871830239163e+07 1.447584709819e-04 -4.586753535408e-06 1.475255809939e-04 -7.460642467662e-04 9.592059464887e+06 1.368955284598e+07  8.922448603041e-04
4.880000000000e+01 6.926552388031e-06 0.000000000000e+00 -5.077850654191e+06 -5.171336497524e+04 -5.012248733498e+06 -2.383496091888e+07 2.268805679400e-04 -6.793343967994e-06 2.309379201776e-04 -9.941708925057e-04 1.130835343552e+07 1.879021059941e+07  1.223141780664e-03
5.600000000000e+01 9.428599069112e-06 0.000000000000e+00 -5.104844886009e+06 -6.809500133749e+04 -5.019343219970e+06 -2.895625835599e+07 3.090579172565e-04 -8.941444452384e-06 3.143518251447e-04 -1.242419496238e-03 1.302681548732e+07 2.389457012435e+07  1.554208292620e-03
6.320000000000e+01 1.193072699105e-05 0.000000000000e+00 -5.132245381365e+06 -8.407642625093e+04 -5.027525777251e+06 -3.408156580233e+07 3.912752001071e-04 -1.103462350162e-05 3.977661414265e-04 -1.490773832004e-03 1.474711232031e+07 2.900218762337e+07  1.885399758716e-03
7.040000000000e+01 1.443287416989e-05 0.000000000000e+00 -5.160035064989e+06 -9.967727114366e+04 -5.036530084914e+06 -3.921022287882e+07 4.735150255923e-04 -1.307548012234e-05 4.811791278393e-04 -1.739196448776e-03 1.646892934291e+07 3.411254487838e+07  2.216669158623e-03
7.760000000000e+01 1.693500650382e-05 0.000000000000e+00 -5.188250980662e+06 -1.149107248786e+05 -5.046067534504e+06 -4.434148642538e+07 5.557559112542e-04 -1.506574485179e-05 5.645899997920e-04 -1.987646186164e-03 1.819193498018e+07 3.922502539566e+07  2.547964253986e-03
8.480000000000e+01 1.943712705565e-05 0.000000000000e+00 -5.216969052198e+06 -1.297845016675e+05 -5.055777831705e+06 -4.947441824879e+07 6.379704722497e-04 -1.700641696835e-05 6.479992787746e-04 -2.236073951933e-03 1.991572171090e+07 4.433883440395e+07  2.879222606758e-03
9.200000000000e+01 2.193928159581e-05 0.000000000000e+00 -5.246282148136e+06 -1.443061672710e+05 -5.065273597078e+06 -5.460801941148e+07 7.201298210300e-04 -1.889850779966e-05 7.314088940027e-04 -2.484430184501e-03 2.163985838556e+07 4.945312163150e+07  3.210381281635e-03
9.920000000000e+01 2.444152881583e-05 0.000000000000e+00 -5.276275534600e+06 -1.584882023324e+05 -5.074227297878e+06 -5.974142949988e+07 8.022096541750e-04 -2.074370781927e-05 8.148210583922e-04 -2.732674253810e-03 2.336397744412e+07 5.456714912659e+07  3.541388716946e-03
1.064000000000e+02 2.694388991921e-05 0.000000000000e+00 -5.307014192525e+06 -1.723493017657e+05 -5.082420694721e+06 -6.487398903100e+07 8.841925646762e-04 -2.254450516723e-05 8.982365252015e-04 -2.980776462964e-03 2.508780797275e+07 5.968033513415e+07  3.872207000412e-03
1.136000000000e+02 2.944634107190e-05 0.000000000000e+00 -5.338539589949e+06 -1.859098437573e+05 -5.089723778187e+06 -7.000517418792e+07 9.660667161787e-04 -2.430358796954e-05 9.816543838956e-04 -3.228714992151e-03 2.681114585202e+07 6.479220098227e+07  4.202808038978e-03
1.208000000000e+02 3.194883573590e-05 0.000000000000e+00 -5.370867533857e+06 -1.991849340193e+05 -5.096052404363e+06 -7.513452317338e+07 1.047824075855e-03 -2.602297803037e-05 1.065072887217e-03 -3.476473102775e-03 2.853381437053e+07 6.990231972916e+07  4.533170283233e-03
1.280000000000e+02 3.445131993992e-05 0.000000000000e+00 -5.403983490389e+06 -2.121794700699e+05 -5.101336709847e+06 -8.026158544939e+07 1.129459229023e-03 -2.770342195538e-05 1.148490011236e-03 -3.724037076095e-03 3.025563521654e+07 7.501028355326e+07  4.863276346702e-03
1.352000000000e+02 3.695374195228e-05 0.000000000000e+00 -5.437831551499e+06 -2.248831042779e+05 -5.105487191865e+06 -8.538586502761e+07 1.210968238770e-03 -2.934376080804e-05 1.231903802406e-03 -3.971393625579e-03 3.197639459033e+07 8.011566953282e+07  5.193110014854e-03
1.424000000000e+02 3.945605418092e-05 0.000000000000e+00 -5.472295841755e+06 -2.372633141247e+05 -5.108358244532e+06 -9.050675296343e+07 1.292347558438e-03 -3.094005539484e-05 1.315312451960e-03 -4.218526662250e-03 3.369580234990e+07 8.521799966086e+07  5.522652493445e-03
1.496000000000e+02 4.195820883149e-05 0.000000000000e+00 -5.507178552213e+06 -2.492579110290e+05 -5.109717623471e+06 -9.562346705189e+07 1.373593333140e-03 -3.248463930562e-05 1.398714155334e-03 -4.465414395744e-03 3.541345440919e+07 9.031670676230e+07  5.851879078039e-03
1.568000000000e+02 4.446014794645e-05 0.000000000000e+00 -5.542187433112e+06 -2.607716589174e+05 -5.109228997879e+06 -1.007349967998e+08 1.454700741137e-03 -3.396569409136e-05 1.482106776370e-03 -4.712026895644e-03 3.712880441025e+07 9.541109444654e+07  6.180756215627e-03
1.640000000000e+02 4.696179633980e-05 0.000000000000e+00 -5.576949505888e+06 -2.716818469950e+05 -5.106465905957e+06 -1.058400978276e+08 1.535663763720e-03 -3.536796260262e-05 1.565487612733e-03 -4.958326235491e-03 3.884117107981e+07 1.005003177420e+08  6.509241432563e-03
1.712000000000e+02 4.946305839801e-05 0.000000000000e+00 -5.611057319063e+06 -2.818545779512e+05 -5.100961029401e+06 -1.109373449065e+08 1.616475259585e-03 -3.667482435997e-05 1.648853302952e-03 -5.204269428424e-03 4.054978775164e+07 1.055833885120e+08  6.837286298834e-03
1.784000000000e+02 5.196381505497e-05 0.000000000000e+00 -5.644126507669e+06 -2.911653173584e+05 -5.092282760256e+06 -1.160252396484e+08 1.697128066614e-03 -3.787090729032e-05 1.732199748116e-03 -5.449814143815e-03 4.225388297209e+07 1.106592161934e+08  7.164842697494e-03
1.856000000000e+02 5.446393700854e-05 0.000000000000e+00 -5.675838398143e+06 -2.995161674798e+05 -5.080068790414e+06 -1.211022253038e+08 1.777614806182e-03 -3.894427238497e-05 1.815522559521e-03 -5.694921451977e-03 4.395271083077e+07 1.157265846665e+08  7.491865732754e-03
1.928000000000e+02 5.696329560237e-05 0.000000000000e+00 -5.705955551955e+06 -3.068444396840e+05 -5.064042746302e+06 -1.261666599363e+08 1.857928243231e-03 -3.988747549242e-05 1.898817423627e-03 -5.939557894718e-03 4.564555274486e+07 1.207841093939e+08  7.818316177158e-03
2.000000000000e+02 5.946176102413e-05 0.000000000000e+00 -5.734322022409e+06 -3.131261116845e+05 -5.044026330447e+06 -1.312167645392e+08 1.938061911710e-03 -4.069796396623e-05 1.982080044122e-03 -6.183696697626e-03 4.733170429734e+07 1.258301792953e+08  8.144161965666e-03
2.072000000000e+02 6.195920263305e-05 0.000000000000e+00 -5.760858658976e+06 -3.183772389726e+05 -5.019942157258e+06 -1.362505715590e+08 2.018010533300e-03 -4.137820414021e-05 2.065306153682e-03 -6.427318325504e-03 4.901045745841e+07 1.308629061414e+08  8.469378958583e-03
2.144000000000e+02 6.445549316494e-05 0.000000000000e+00 -5.785556315093e+06 -3.226532796596e+05 -4.991810532168e+06 -1.412659067702e+08 2.097770336862e-03 -4.193554529780e-05 2.148491656863e-03 -6.670410833089e-03 5.068109120581e+07 1.358801113631e+08  8.793951510795e-03
2.216000000000e+02 6.695051513778e-05 0.000000000000e+00 -5.808465900097e+06 -3.260452793641e+05 -4.959740696682e+06 -1.462604193091e+08 2.177339342607e-03 -4.238170222191e-05 2.231632843670e-03 -6.912970010241e-03 5.234287530194e+07 1.408793653455e+08  9.117872847396e-03
2.288000000000e+02 6.944415125605e-05 0.000000000000e+00 -5.829685039903e+06 -3.286722970255e+05 -4.923927820742e+06 -1.512316555870e+08 2.256717763223e-03 -4.273179153737e-05 2.314726066134e-03 -7.154999003237e-03 5.399508948256e+07 1.458580693553e+08  9.441144697038e-03
2.360000000000e+02 7.193628327854e-05 0.000000000000e+00 -5.849342661563e+06 -3.306716581029e+05 -4.884632652639e+06 -1.561771342940e+08 2.335907752842e-03 -4.300312828515e-05 2.397767691676e-03 -7.396506784377e-03 5.563703653607e+07 1.508135483269e+08  9.763775588951e-03
2.432000000000e+02 7.442679639788e-05 0.000000000000e+00 -5.867587587973e+06 -3.321912203553e+05 -4.842121023016e+06 -1.610943029876e+08 2.414910494261e-03 -4.321430949401e-05 2.480754242810e-03 -7.637501777716e-03 5.726800386620e+07 1.557430435528e+08  1.008577308988e-02
2.504000000000e+02 7.691559544636e-05 0.000000000000e+00 -5.884586323739e+06 -3.333862520892e+05 -4.796578984706e+06 -1.659803933162e+08 2.493721442460e-03 -4.338489838420e-05 2.563682940399e-03 -7.877982815136e-03 5.888718620820e+07 1.606436118514e+08  1.040713267584e-02
2.576000000000e+02 7.940261756972e-05 0.000000000000e+00 -5.900530238851e+06 -3.344177068451e+05 -4.748049466849e+06 -1.708322675150e+08 2.572326112100e-03 -4.353528022705e-05 2.646552136835e-03 -8.117931675918e-03 6.049361574025e+07 1.655120005751e+08  1.072782840923e-02
2.648000000000e+02 8.188783672563e-05 0.000000000000e+00 -5.915628944946e+06 -3.354344511747e+05 -4.696436878684e+06 -1.756464284423e+08 2.650700772746e-03 -4.368441649786e-05 2.729361448293e-03 -8.357314216550e-03 6.208616475532e+07 1.703446586197e+08  1.104781446200e-02
2.720000000000e+02 8.437124655561e-05 0.000000000000e+00 -5.930076602565e+06 -3.365461517793e+05 -4.641633737305e+06 -1.804193907797e+08 2.728822178557e-03 -4.384632703715e-05 2.812111118087e-03 -8.596096950885e-03 6.366370037319e+07 1.751380602521e+08  1.136704615727e-02
2.792000000000e+02 8.685283945683e-05 0.000000000000e+00 -5.944046071818e+06 -3.378337502557e+05 -4.583626641483e+06 -1.851479993351e+08 2.806674213123e-03 -4.403142771762e-05 2.894801277871e-03 -8.834259175359e-03 6.522522401613e+07 1.798889728170e+08  1.168549503123e-02
2.864000000000e+02 8.933259590844e-05 0.000000000000e+00 -5.957704128554e+06 -3.393742977341e+05 -4.522489611725e+06 -1.898294223897e+08 2.884246187690e-03 -4.424977535711e-05 2.977431588963e-03 -9.071790246495e-03 6.676987204334e+07 1.845944460190e+08  1.200314512597e-02
2.936000000000e+02 9.181048666727e-05 0.000000000000e+00 -5.971214482768e+06 -3.412495662267e+05 -4.458349789683e+06 -1.944610848066e+08 2.961530510403e-03 -4.451222810235e-05 3.060001315891e-03 -9.308685254525e-03 6.829688302637e+07 1.892517608846e+08  1.231998755936e-02
3.008000000000e+02 9.428647335348e-05 0.000000000000e+00 -5.984735853267e+06 -3.435478630774e+05 -4.391360377666e+06 -1.990406112088e+08 3.038521058009e-03 -4.483073195192e-05 3.142509342030e-03 -9.544941713631e-03 6.980556914657e+07 1.938583875599e+08  1.263601642024e-02
3.080000000000e+02 9.676050840174e-05 0.000000000000e+00 -5.998419976641e+06 -3.463655489529e+05 -4.321683971378e+06 -2.035657928279e+08 3.115212185872e-03 -4.521858511125e-05 3.224954158998e-03 -9.780557485961e-03 7.129529892531e+07 1.984119615693e+08  1.295122620062e-02
3.152000000000e+02 9.923253677726e-05 0.000000000000e+00 -6.012409015406e+06 -3.498082101975e+05 -4.249485729325e+06 -2.080345866125e+08 3.191598493507e-03 -4.569067596443e-05 3.307333916772e-03 -1.001553021659e-02 7.276549378573e+07 2.029102876596e+08  1.326561114304e-02
3.224000000000e+02 1.017024927500e-04 0.000000000000e+00 -6.026831702330e+06 -3.539895832881e+05 -4.174926459124e+06 -2.124451052133e+08 3.267674535787e-03 -4.626343067563e-05 3.389646326158e-03 -1.024985640560e-02 7.421562112493e+07 2.073513351806e+08  1.357916412135e-02
3.296000000000e+02 1.041703000931e-04 0.000000000000e+00 -6.041798276516e+06 -3.590265201029e+05 -4.098148569263e+06 -2.167955895287e+08 3.343434299173e-03 -4.695420709319e-05 3.471888709978e-03 -1.048353003778e-02 7.564517879150e+07 2.117332202234e+08  1.389187503402e-02
3.368000000000e+02 1.066358722450e-04 0.000000000000e+00 -6.057397684156e+06 -3.650326995239e+05 -4.019266968998e+06 -2.210843820061e+08 3.418870896944e-03 -4.778047395240e-05 3.554058073191e-03 -1.071654178273e-02 7.705368221974e+07 2.160541848966e+08  1.420372988492e-02
3.440000000000e+02 1.090991165597e-04 0.000000000000e+00 -6.073699889182e+06 -3.721164570913e+05 -3.938368609992e+06 -2.253099127665e+08 3.493976565066e-03 -4.875952649037e-05 3.636151270992e-03 -1.094887924753e-02 7.844066042189e+07 2.203125825533e+08  1.451471112088e-02
3.512000000000e+02 1.115599356310e-04 0.000000000000e+00 -6.090761290903e+06 -3.803827323925e+05 -3.855520196092e+06 -2.294706978587e+08 3.568742825363e-03 -4.990877918169e-05 3.718165036439e-03 -1.118052766830e-02 7.980565978189e+07 2.245068694958e+08  1.482479842561e-02
3.584000000000e+02 1.140182293533e-04 0.000000000000e+00 -6.108629088768e+06 -3.899348701460e+05 -3.770775970454e+06 -2.335653489129e+08 3.643160755662e-03 -5.124605235512e-05 3.800096030508e-03 -1.141147077603e-02 8.114825132405e+07 2.286356085559e+08  1.513396975173e-02
3.656000000000e+02 1.164738929398e-04 0.000000000000e+00 -6.127343793083e+06 -4.008750340318e+05 -3.684188925615e+06 -2.375925967389e+08 3.717221574322e-03 -5.278966859404e-05 3.881940775141e-03 -1.164169203990e-02 8.246804315253e+07 2.326974857809e+08  1.544220282368e-02
3.728000000000e+02 1.189268075073e-04 0.000000000000e+00 -6.146940795430e+06 -4.133045548743e+05 -3.595823335651e+06 -2.415513107483e+08 3.790917207673e-03 -5.455854146480e-05 3.963695346408e-03 -1.187117557624e-02 8.376469162646e+07 2.366913227253e+08  1.574947617542e-02
3.800000000000e+02 1.213768471659e-04 0.000000000000e+00 -6.167452057932e+06 -4.273254978316e+05 -3.505746952703e+06 -2.454404854514e+08 3.864239844987e-03 -5.657244314176e-05 4.045355601778e-03 -1.209990560169e-02 8.503789482068e+07 2.406160660869e+08  1.605576850755e-02
3.872000000000e+02 1.238238883673e-04 0.000000000000e+00 -6.188907395528e+06 -4.430425688562e+05 -3.414020584725e+06 -2.492592225964e+08 3.937181329245e-03 -5.885233585641e-05 4.126917476718e-03 -1.232786560908e-02 8.628738352555e+07 2.444707745326e+08  1.636105772401e-02
3.944000000000e+02 1.262678032967e-04 0.000000000000e+00 -6.211334444560e+06 -4.605640367408e+05 -3.320707455250e+06 -2.530067493564e+08 4.009733664583e-03 -6.142057487693e-05 4.208376764938e-03 -1.255503914417e-02 8.751293041873e+07 2.482546321638e+08  1.666532185634e-02
4.016000000000e+02 1.287084493960e-04 0.000000000000e+00 -6.234758483127e+06 -4.800020245563e+05 -3.225884464856e+06 -2.566824373273e+08 4.081889626215e-03 -6.430103057667e-05 4.289728775865e-03 -1.278141065231e-02 8.871436009175e+07 2.519669618837e+08  1.696854004485e-02
4.088000000000e+02 1.311456761550e-04 0.000000000000e+00 -6.259202352057e+06 -5.014729085610e+05 -3.129643736321e+06 -2.602858201624e+08 4.153643195899e-03 -6.751923190801e-05 4.370968560645e-03 -1.300696655374e-02 8.989155541693e+07 2.556072422858e+08  1.727069395267e-02
4.160000000000e+02 1.335793388348e-04 0.000000000000e+00 -6.284686451363e+06 -5.250978305072e+05 -3.032084092884e+06 -2.638165892362e+08 4.224989375883e-03 -7.110253102993e-05 4.452091361085e-03 -1.323169531130e-02 9.104445326015e+07 2.591751076621e+08  1.757176798267e-02
4.232000000000e+02 1.360092973061e-04 0.000000000000e+00 -6.311228641181e+06 -5.510030376830e+05 -2.933301772388e+06 -2.672745608207e+08 4.295923383478e-03 -7.508025005538e-05 4.533092559999e-03 -1.345558576198e-02 9.217303041143e+07 2.626703199769e+08  1.787174720327e-02
4.304000000000e+02 1.384354207496e-04 0.000000000000e+00 -6.338843826747e+06 -5.793199185355e+05 -2.833387380871e+06 -2.706596727468e+08 4.366440557225e-03 -7.948379007225e-05 4.613967833106e-03 -1.367862703346e-02 9.327730131815e+07 2.660927673089e+08  1.817061731332e-02
4.376000000000e+02 1.408575824146e-04 0.000000000000e+00 -6.367543507450e+06 -6.101845633256e+05 -2.732437106756e+06 -2.739720095457e+08 4.436537206738e-03 -8.434667412322e-05 4.694712985314e-03 -1.390081001014e-02 9.435733005329e+07 2.694424835194e+08  1.846836645900e-02
4.448000000000e+02 1.432756533015e-04 0.000000000000e+00 -6.397336296486e+06 -6.437375333445e+05 -2.630555965692e+06 -2.772117988681e+08 4.506210689802e-03 -8.970462340648e-05 4.775323743897e-03 -1.412212730239e-02 9.541323037676e+07 2.727196427780e+08  1.876498515522e-02
4.520000000000e+02 1.456895089458e-04 0.000000000000e+00 -6.428228632154e+06 -6.801236887580e+05 -2.527852143433e+06 -2.803793989420e+08 4.575459091741e-03 -9.559564364143e-05 4.855795979039e-03 -1.434257287215e-02 9.644515990586e+07 2.759245495771e+08  1.906046588972e-02
4.592000000000e+02 1.480990371446e-04 0.000000000000e+00 -6.460225159973e+06 -7.194915768672e+05 -2.424433056734e+06 -2.834752918992e+08 4.644281078855e-03 -1.020600442732e-04 4.936125959330e-03 -1.456214201540e-02 9.745331670529e+07 2.790576339067e+08  1.935480318990e-02
4.664000000000e+02 1.505041502459e-04 0.000000000000e+00 -6.493329177150e+06 -7.619925247043e+05 -2.320401588569e+06 -2.865000824803e+08 4.712675872599e-03 -1.091404131156e-04 5.016310760992e-03 -1.478083175315e-02 9.843793774868e+07 2.821194516933e+08  1.964799423866e-02
4.736000000000e+02 1.529047901263e-04 0.000000000000e+00 -6.527543110517e+06 -8.077795942444e+05 -2.215856877558e+06 -2.894544980892e+08 4.780643371306e-03 -1.168815622274e-04 5.096348434647e-03 -1.499864127855e-02 9.939929935910e+07 2.851106842474e+08  1.994003949743e-02
4.808000000000e+02 1.553009106839e-04 0.000000000000e+00 -6.562869161923e+06 -8.570064597542e+05 -2.110904495162e+06 -2.923393856527e+08 4.848184423733e-03 -1.253304512791e-04 5.176237425165e-03 -1.521557197455e-02 1.003377197699e+08 2.880321296336e+08  2.023094259430e-02
4.880000000000e+02 1.576924764144e-04 0.000000000000e+00 -6.599309281930e+06 -9.098255115950e+05 -2.005658019020e+06 -2.951557073407e+08 4.915300919185e-03 -1.345359756860e-04 5.255976527974e-03 -1.543162756143e-02 1.012535582139e+08 2.908846976077e+08  2.052071052617e-02
4.952000000000e+02 1.600794731721e-04 0.000000000000e+00 -6.636864927072e+06 -9.663855215156e+05 -1.900235666594e+06 -2.979045375244e+08 4.981995803481e-03 -1.445486636904e-04 5.335565250105e-03 -1.564681449495e-02 1.021472127060e+08 2.936694084180e+08  2.080935428293e-02
5.024000000000e+02 1.624619035324e-04 0.000000000000e+00 -6.675536741492e+06 -1.026828762255e+06 -1.794760787088e+06 -3.005870502211e+08 5.048272951326e-03 -1.554202521555e-04 5.415003660293e-03 -1.586114157394e-02 1.030191159166e+08 2.963873801454e+08  2.109688834827e-02
5.096000000000e+02 1.648397913324e-04 0.000000000000e+00 -6.715323981331e+06 -1.091287826577e+06 -1.689361654262e+06 -3.032045173975e+08 5.114137311388e-03 -1.672031696097e-04 5.494292546635e-03 -1.607462037207e-02 1.038697343444e+08 2.990398273704e+08  2.138333131279e-02
5.168000000000e+02 1.672131797151e-04 0.000000000000e+00 -6.756224055584e+06 -1.159882094964e+06 -1.584172807801e+06 -3.057583035781e+08 5.179594989771e-03 -1.799499105532e-04 5.573433358767e-03 -1.628726535829e-02 1.046995668138e+08 3.016280552780e+08  2.166870603063e-02
5.240000000000e+02 1.695821340664e-04 0.000000000000e+00 -6.798231895038e+06 -1.232713849555e+06 -1.479334520716e+06 -3.082498617068e+08 5.244653341134e-03 -1.937122871890e-04 5.652428315123e-03 -1.649909418277e-02 1.055091427075e+08 3.041534560350e+08  2.195304002284e-02
5.312000000000e+02 1.719467371805e-04 0.000000000000e+00 -6.841339337914e+06 -1.309864158079e+06 -1.374994040381e+06 -3.106807252242e+08 5.309321007141e-03 -2.085405710664e-04 5.731280252497e-03 -1.671012761584e-02 1.062990195342e+08 3.066175004419e+08  2.223636536618e-02
5.384000000000e+02 1.743070890781e-04 0.000000000000e+00 -6.885534450605e+06 -1.391388751241e+06 -1.271305172191e+06 -3.130525018292e+08 5.373607974222e-03 -2.244825531652e-04 5.809992632058e-03 -1.692038967536e-02 1.070697804840e+08 3.090217321233e+08  2.251871884800e-02
5.456000000000e+02 1.766633051724e-04 0.000000000000e+00 -6.930800936935e+06 -1.477314163515e+06 -1.168428089387e+06 -3.153668663892e+08 5.437525622908e-03 -2.415825688342e-04 5.888569490796e-03 -1.712990769559e-02 1.078220318052e+08 3.113677606829e+08  2.280014201667e-02
5.528000000000e+02 1.790155194991e-04 0.000000000000e+00 -6.977117740869e+06 -1.567634597112e+06 -1.066528492835e+06 -3.176255579371e+08 5.501086891858e-03 -2.598805756417e-04 5.967015561768e-03 -1.733871280905e-02 1.085564013903e+08 3.136572591649e+08  2.308068177372e-02
5.600000000000e+02 1.813638819530e-04 0.000000000000e+00 -7.024458724988e+06 -1.662309494172e+06 -9.657764907161e+05 -3.198303687348e+08 5.564306227710e-03 -2.794112878243e-04 6.045336193310e-03 -1.754683980517e-02 1.092735346502e+08 3.158919536738e+08  2.336039012014e-02
5.672000000000e+02 1.837085563304e-04 0.000000000000e+00 -7.072792474370e+06 -1.761262254183e+06 -8.663448326914e+05 -3.219831323122e+08 5.627199498952e-03 -3.002034634752e-04 6.123537292800e-03 -1.775432693910e-02 1.099740898731e+08 3.180736122336e+08  2.363932383522e-02
5.744000000000e+02 1.860497168830e-04 0.000000000000e+00 -7.122082409338e+06 -1.864380450447e+06 -7.684080329264e+05 -3.240857122654e+08 5.689783957460e-03 -3.222794409504e-04 6.201625217942e-03 -1.796121579957e-02 1.106587342359e+08 3.202040338070e+08  2.391754420136e-02
5.816000000000e+02 1.883875507946e-04 0.000000000000e+00 -7.172287112110e+06 -1.971517683772e+06 -6.721399897159e+05 -3.261399922604e+08 5.752078205352e-03 -3.456549775127e-04 6.279606861083e-03 -1.816755137145e-02 1.113281397874e+08 3.222850392073e+08  2.419511702185e-02
5.888000000000e+02 1.907222545907e-04 0.000000000000e+00 -7.223360898496e+06 -2.082496722378e+06 -5.777122957200e+05 -3.281478607755e+08 5.814102004568e-03 -3.703393561226e-04 6.357489526704e-03 -1.837338158560e-02 1.119829779899e+08 3.243184563029e+08  2.447211194226e-02
5.960000000000e+02 1.930540354350e-04 0.000000000000e+00 -7.275254512880e+06 -2.197113912268e+06 -4.852916001099e+05 -3.301111975527e+08 5.875876094433e-03 -3.963357842583e-04 6.435280966597e-03 -1.857875702491e-02 1.126239145552e+08 3.263061073954e+08  2.474860201887e-02
6.032000000000e+02 1.953831052315e-04 0.000000000000e+00 -7.327915892066e+06 -2.315144135467e+06 -3.950378453348e+05 -3.320318551920e+08 5.937421835037e-03 -4.236419592311e-04 6.512989171597e-03 -1.878373003099e-02 1.132516029765e+08 3.282497912939e+08  2.502466248338e-02
6.104000000000e+02 1.977096813498e-04 0.000000000000e+00 -7.381291039236e+06 -2.436346435167e+06 -3.071025679008e+05 -3.339116479196e+08 5.998761042261e-03 -4.522508472177e-04 6.590622382091e-03 -1.898835439891e-02 1.138666805089e+08 3.301512725176e+08  2.530037031401e-02
6.176000000000e+02 2.000339853749e-04 0.000000000000e+00 -7.435324855694e+06 -2.560469440135e+06 -2.216271144881e+05 -3.357523385190e+08 6.059915702897e-03 -4.821514976801e-04 6.668189031101e-03 -1.919268475131e-02 1.144697634964e+08 3.320122687597e+08  2.557580340216e-02
6.248000000000e+02 2.023562387988e-04 0.000000000000e+00 -7.489962015601e+06 -2.687256416003e+06 -1.387424208809e+05 -3.375556279817e+08 6.120907758129e-03 -5.133298633996e-04 6.745697585213e-03 -1.939677595636e-02 1.150614441394e+08 3.338344402717e+08  2.585103975322e-02
6.320000000000e+02 2.046766647893e-04 0.000000000000e+00 -7.545147556551e+06 -2.816449641258e+06 -5.856720838347e+04 -3.393231474504e+08 6.181758871220e-03 -5.457695427593e-04 6.823156588966e-03 -1.960068267424e-02 1.156422874051e+08 3.356193825133e+08  2.612615692030e-02
6.392000000000e+02 2.069954818025e-04 0.000000000000e+00 -7.600827510827e+06 -2.947793933710e+06 1.879148449869e+04 -3.410564508850e+08 6.242490215838e-03 -5.794524055704e-04 6.900574439039e-03 -1.980445870181e-02 1.162128289704e+08 3.373686183134e+08  2.640123111106e-02
6.464000000000e+02 2.093129078934e-04 0.000000000000e+00 -7.656949329385e+06 -3.081039650543e+06 9.323937610315e+04 -3.427570139582e+08 6.303122400269e-03 -6.143591587778e-04 6.977959517039e-03 -2.000815691579e-02 1.167735746372e+08 3.390835972018e+08  2.667633715078e-02
6.536000000000e+02 2.116291555604e-04 0.000000000000e+00 -7.713462275683e+06 -3.215944698015e+06 1.646943164510e+05 -3.444262306099e+08 6.363675302326e-03 -6.504697342382e-04 7.055320008526e-03 -2.021182874709e-02 1.173249995230e+08 3.407656915345e+08  2.695154776995e-02
6.608000000000e+02 2.139444334530e-04 0.000000000000e+00 -7.770317605210e+06 -3.352276078458e+06 2.330865807890e+05 -3.460654140121e+08 6.424168017804e-03 -6.877636059239e-04 7.132663952696e-03 -2.041552408344e-02 1.178675483455e+08 3.424161976118e+08  2.722693349718e-02
6.680000000000e+02 2.162589449247e-04 0.000000000000e+00 -7.827468777274e+06 -3.489810883472e+06 2.983583142313e+05 -3.476757979481e+08 6.484618814075e-03 -7.262200101150e-04 7.209999188121e-03 -2.061929110121e-02 1.184016361370e+08 3.440363367528e+08  2.750256242980e-02
6.752000000000e+02 2.185728881894e-04 0.000000000000e+00 -7.884871505092e+06 -3.628336877504e+06 3.604632948791e+05 -3.492585392644e+08 6.545045106077e-03 -7.658180888393e-04 7.287333353347e-03 -2.082317617889e-02 1.189276491582e+08 3.456272576829e+08  2.777850012490e-02
6.824000000000e+02 2.208864548951e-04 0.000000000000e+00 -7.942483810226e+06 -3.767652768224e+06 4.193662319406e+05 -3.508147207762e+08 6.605463448829e-03 -8.065369771343e-04 7.364673835731e-03 -2.102722380360e-02 1.194459461182e+08 3.471900391277e+08  2.805480946413e-02
6.896000000000e+02 2.231998306071e-04 0.000000000000e+00 -8.000266011960e+06 -3.907568299393e+06 4.750422799410e+05 -3.523453553338e+08 6.665889566462e-03 -8.483558611816e-04 7.442027784433e-03 -2.123147660907e-02 1.199568596886e+08 3.487256937072e+08  2.833155070123e-02
6.968000000000e+02 2.255131938887e-04 0.000000000000e+00 -8.058180704731e+06 -4.047904164359e+06 5.274762825961e+05 -3.538513897088e+08 6.726338381957e-03 -8.912540040785e-04 7.519402077565e-03 -2.143597537400e-02 1.204606980436e+08 3.502351715129e+08  2.860878144622e-02
7.040000000000e+02 2.278267176871e-04 0.000000000000e+00 -8.116192689539e+06 -4.188491822788e+06 5.766624993876e+05 -3.553337087883e+08 6.786824044174e-03 -9.352107554313e-04 7.596803365955e-03 -2.164075908681e-02 1.209577463261e+08 3.517193642592e+08  2.888655675477e-02
7.112000000000e+02 2.301405677565e-04 0.000000000000e+00 -8.174268954656e+06 -4.329173284449e+06 6.226034257686e+05 -3.567931402061e+08 6.847360012348e-03 -9.802055663813e-04 7.674238019462e-03 -2.184586504135e-02 1.214482685783e+08 3.531791093766e+08  2.916492922720e-02
7.184000000000e+02 2.324549033388e-04 0.000000000000e+00 -8.232378544025e+06 -4.469800704944e+06 6.653097056783e+05 -3.582304573156e+08 6.907959033390e-03 -1.026217952628e-03 7.751712147363e-03 -2.205132877804e-02 1.219325087180e+08 3.546151930585e+08  2.944394893677e-02