 TITLE = "Time curves in points"
 VARIABLES = "TIME "  "DISPLACEMENT_X1"  "DISPLACEMENT_Y1"  "STRESS_XX"  "STRESS_XY"  "STRESS_YY"  "STRESS_ZZ"  "STRAIN_XX"  "STRAIN_XY"  "STRAIN_YY"  "STRAIN_ZZ"  p_(1st_Invariant)  q_(2nd_Invariant)   Effective_Strain
 ZONE T="POINT=POINT2"
0.000000000000e+00 0.000000000000e+00 0.000000000000e+00 0.000000000000e+00 0.000000000000e+00 0.000000000000e+00 0.000000000000e+00 0.000000000000e+00 0.000000000000e+00 0.000000000000e+00 0.000000000000e+00 -0.000000000000e+00 0.000000000000e+00  0.000000000000e+00
2.000000000000e+00 -3.087967292258e-07 0.000000000000e+00 -4.991669730856e+05 -1.969841812290e-06 -4.991669731713e+05 -3.344418716845e+05 -1.029322430223e-05 -2.467381564363e-16 -1.029322430758e-05 1.458692153904e-14 4.442586059805e+05 1.647251014440e+05  1.029322431949e-05
4.000000000000e+00 -6.203347844958e-07 0.000000000000e+00 -9.989534841946e+05 -1.515788088253e+02 -9.992854966103e+05 -6.694008642763e+05 -2.065631532715e-05 -1.901659230506e-08 -2.067715644347e-05 4.368128728884e-10 8.892132816938e+05 3.297188560230e+05  2.066720682611e-05
6.000000000000e+00 -9.337949904895e-07 0.000000000000e+00 -1.498732009370e+06 -2.797160547573e+02 -1.499358795157e+06 -1.004302123304e+06 -3.108564831600e-05 -3.518865442881e-08 -3.112510912453e-05 2.766524841540e-09 1.334130975944e+06 4.947438139524e+05  3.110822372270e-05
8.000000000000e+00 -1.249225154840e-06 0.000000000000e+00 -1.998506630223e+06 -4.052558941356e+02 -1.999428843442e+06 -1.339197480188e+06 -4.158048650388e-05 -5.113242351154e-08 -4.163872630002e-05 5.277893373600e-09 1.779044317951e+06 6.597711134235e+05  4.161500910000e-05
1.000000000000e+01 -1.566641690318e-06 0.000000000000e+00 -2.498280005763e+06 -5.298461953923e+02 -2.499499926100e+06 -1.674091507365e+06 -5.214127150136e-05 -6.705522222267e-08 -5.221855468150e-05 7.865399730520e-09 2.223957146409e+06 8.247996457443e+05  5.218795064542e-05
1.200000000000e+01 -1.886058326564e-06 0.000000000000e+00 -2.998052821144e+06 -6.539714686682e+02 -2.999573091621e+06 -2.008985396632e+06 -6.276843464802e-05 -8.301851785695e-08 -6.286505151896e-05 1.050042360457e-08 2.668870436465e+06 9.898290834754e+05  6.282746377213e-05
1.400000000000e+01 -2.207488203822e-06 0.000000000000e+00 -3.497825310905e+06 -7.778397516140e+02 -3.499648717208e+06 -2.343879603077e+06 -7.346240161357e-05 -9.904913058736e-08 -7.357865459409e-05 1.317131723108e-08 3.113784543730e+06 1.154859276452e+06  7.353396846903e-05
1.600000000000e+01 -2.530944294127e-06 0.000000000000e+00 -3.997597570674e+06 -9.015591445793e+02 -3.999726970058e+06 -2.678774340171e+06 -8.422359697520e-05 -1.151613608830e-07 -8.435979617430e-05 1.587230112971e-08 3.558699626968e+06 1.319890142193e+06  8.430788734659e-05
1.800000000000e+01 -2.856439538735e-06 0.000000000000e+00 -4.497369643954e+06 -1.025192771336e+03 -4.499807937088e+06 -3.013669722175e+06 -9.505244606026e-05 -1.313638769592e-07 -9.520890755109e-05 1.860017971117e-08 4.003615767739e+06 1.484921631451e+06  9.514964550851e-05
2.000000000000e+01 -3.183986899772e-06 0.000000000000e+00 -4.997141552055e+06 -1.148780559728e+03 -4.999891668299e+06 -3.348565817241e+06 -1.059493758080e-04 -1.476624441902e-07 -1.061264207401e-04 2.135299534187e-08 4.448533012532e+06 1.649953711640e+06  1.060596704742e-04
2.720000000000e+01 -6.722710806243e-07 -3.000000000000e-05 -4.997707215738e+06 -1.260019736672e+03 -5.000657146349e+06 -8.429515551033e+06 -2.221134091147e-05 -1.625924702696e-07 -2.240170628740e-05 -2.499657827922e-04 6.142626637707e+06 3.430335015532e+06  2.276594930689e-04
3.440000000000e+01 1.841352963149e-06 -6.000000000000e-05 -4.988145474187e+06 2.446735234591e+03 -4.994437501993e+06 -1.370460985731e+07 6.182820019551e-05 3.059701984060e-07 6.142596263614e-05 -5.000225768224e-04 7.895730944495e+06 8.713321103636e+06  5.616500162901e-04
4.160000000000e+01 4.352835145278e-06 -9.000000000000e-05 -4.986352242860e+06 2.726472944657e+03 -4.998410072665e+06 -1.880663287156e+07 1.459024939605e-04 3.413449847859e-07 1.451247030138e-04 -7.505002180731e-04 9.597131729030e+06 1.381425646775e+07  8.960142648056e-04
4.880000000000e+01 6.864220123105e-06 -1.200000000000e-04 -4.996691058745e+06 -1.218448316170e+03 -5.007117524333e+06 -2.367386811147e+07 2.294670809753e-04 -1.984330038250e-07 2.287898650053e-04 -1.000732031222e-03 1.122589223152e+07 1.867196612251e+07  1.229860692077e-03
5.600000000000e+01 9.375391498546e-06 -1.500000000000e-04 -5.005993962448e+06 -4.696875235889e+03 -5.013820036238e+06 -2.832147422475e+07 3.129521357303e-04 -6.967291128878e-07 3.124517202134e-04 -1.250763344174e-03 1.278042940781e+07 2.331156963016e+07  1.563465797935e-03
6.320000000000e+01 1.188653502316e-05 -1.800000000000e-04 -5.014423209533e+06 -7.872589568331e+03 -5.019351998840e+06 -3.277023872472e+07 3.964073081050e-04 -1.171849031650e-06 3.961152085507e-04 -1.500702880615e-03 1.426800464436e+07 2.775335479852e+07  1.896965241673e-03
7.040000000000e+01 1.439766115210e-05 -2.100000000000e-04 -5.022097324604e+06 -1.078870026812e+04 -5.023927418915e+06 -3.703662220559e+07 4.798383648180e-04 -1.626646969036e-06 4.797803436955e-04 -1.750565554306e-03 1.569421564970e+07 3.201361532681e+07  2.230376688636e-03
7.760000000000e+01 1.690877216452e-05 -2.400000000000e-04 -5.029113742949e+06 -1.347724986555e+04 -5.027693070381e+06 -4.113504733388e+07 5.632480126296e-04 -2.063019023391e-06 5.634469808084e-04 -2.000359517285e-03 1.706395138240e+07 3.610665149400e+07  2.563709509965e-03
8.480000000000e+01 1.941987029842e-05 -2.700000000000e-04 -5.035552768566e+06 -1.596458886626e+04 -5.030763778714e+06 -4.507827823882e+07 6.466381927185e-04 -2.482515798641e-06 6.471150188572e-04 -2.250090964588e-03 1.838153159537e+07 4.004512972674e+07  2.896970790841e-03
9.200000000000e+01 2.193095688577e-05 -2.999999999999e-04 -5.041481874141e+06 -1.827274307315e+04 -5.033233360431e+06 -4.887767124253e+07 7.300104384079e-04 -2.886434752386e-06 7.307843542883e-04 -2.499764946570e-03 1.965079549237e+07 4.384032563141e+07  3.230166281375e-03
9.920000000000e+01 2.444203302547e-05 -3.300000000000e-04 -5.046958172144e+06 -2.042052264895e+04 -5.035179913359e+06 -5.254337708675e+07 8.133660473321e-04 -3.275910644002e-06 8.144548959871e-04 -2.749385781175e-03 2.087517172408e+07 4.750232230687e+07  3.563300895158e-03
1.064000000000e+02 2.695309995767e-05 -3.600000000000e-04 -5.052030658172e+06 -2.242401851549e+04 -5.036669146468e+06 -5.608450634835e+07 8.967061263058e-04 -3.651926660449e-06 8.981265731240e-04 -2.998957225404e-03 2.205773538433e+07 5.104017295746e+07  3.896378903526e-03
1.136000000000e+02 2.946415824814e-05 -3.900000000000e-04 -5.056741434857e+06 -2.429723298059e+04 -5.037757164865e+06 -5.950926735914e+07 9.800316606523e-04 -4.015367543621e-06 9.817993050549e-04 -3.248482595982e-03 2.320125531962e+07 5.446203680049e+07  4.229404074124e-03
1.208000000000e+02 3.197520940947e-05 -4.200000000000e-04 -5.061126971364e+06 -2.605234090149e+04 -5.038491759851e+06 -6.282508233671e+07 1.063343536319e-03 -4.367018716385e-06 1.065473053443e-03 -3.497964901682e-03 2.430823368931e+07 5.777529391811e+07  4.562379839339e-03
1.280000000000e+02 3.448625404876e-05 -4.500000000000e-04 -5.065219042733e+06 -2.770004078423e+04 -5.038914280623e+06 -6.603868378485e+07 1.146642539791e-03 -4.707592462180e-06 1.149147758600e-03 -3.747406803279e-03 2.538093903607e+07 6.098664024982e+07  4.895309223867e-03
1.352000000000e+02 3.699729234771e-05 -4.800000000000e-04 -5.069045431665e+06 -2.924975159261e+04 -5.039060543465e+06 -6.915619757703e+07 1.229929373864e-03 -5.037732262292e-06 1.232823354514e-03 -3.996810673752e-03 2.642143451739e+07 6.410216986915e+07  5.228194919978e-03
1.424000000000e+02 3.950832529478e-05 -5.100000000000e-04 -5.072630552197e+06 -3.070980641596e+04 -5.038961530655e+06 -7.218321466823e+07 1.313204686864e-03 -5.358022786439e-06 1.316499808758e-03 -4.246178712756e-03 2.743160225036e+07 6.712744603348e+07  5.561039436381e-03
1.496000000000e+02 4.201935342060e-05 -5.400000000000e-04 -5.075995924238e+06 -3.208761573422e+04 -5.038644441125e+06 -7.512485120174e+07 1.396469076770e-03 -5.668999153791e-06 1.400177079515e-03 -4.495512921762e-03 2.841316385570e+07 7.006756052769e+07  5.893845053816e-03
1.568000000000e+02 4.453037721712e-05 -5.700000000001e-04 -5.079160666680e+06 -3.338976928941e+04 -5.038133106078e+06 -7.798580077427e+07 1.479723084492e-03 -5.971147141530e-06 1.483855128749e-03 -4.744815123460e-03 2.936769818234e+07 7.292718547471e+07  6.226613847606e-03
1.640000000000e+02 4.704139714987e-05 -6.000000000000e-04 -5.082141666107e+06 -3.462219861695e+04 -5.037448409859e+06 -8.077037974679e+07 1.562967212093e-03 -6.264921081546e-06 1.567533922258e-03 -4.994086987301e-03 3.029665660759e+07 7.571061835142e+07  6.559347722328e-03
1.712000000000e+02 4.955241374527e-05 -6.300000000000e-04 -5.084954069996e+06 -3.579019685143e+04 -5.036608809685e+06 -8.348256685283e+07 1.646201919468e-03 -6.550731985640e-06 1.651213431858e-03 -5.243330056222e-03 3.120137657750e+07 7.842182109033e+07  6.892048437906e-03
1.784000000000e+02 5.206342724774e-05 -6.600000000000e-04 -5.087611383257e+06 -3.689855274578e+04 -5.035630624093e+06 -8.612603719632e+07 1.729427628148e-03 -6.828964999176e-06 1.734893623551e-03 -5.492545732220e-03 3.208309306789e+07 8.106445388493e+07  7.224717591190e-03
1.856000000000e+02 5.457443810241e-05 -6.900000000000e-04 -5.090125730160e+06 -3.795157684031e+04 -5.034528323345e+06 -8.870419283972e+07 1.812644734645e-03 -7.099973314280e-06 1.818574473287e-03 -5.741735330997e-03 3.294294896441e+07 8.364190550164e+07  7.557356685126e-03
1.928000000000e+02 5.708544660168e-05 -7.200000000000e-04 -5.092508006449e+06 -3.895318256190e+04 -5.033314825808e+06 -9.122018906626e+07 1.895853611710e-03 -7.364087430400e-06 1.902255954913e-03 -5.990900074665e-03 3.378200396617e+07 8.615731931768e+07  7.889967116076e-03
2.000000000000e+02 5.959645299108e-05 -7.500000000000e-04 -5.094768073484e+06 -3.990690462515e+04 -5.032001618221e+06 -9.367695751869e+07 1.979054597355e-03 -7.621610030625e-06 1.985938043163e-03 -6.240041083216e-03 3.460124240346e+07 8.861361630273e+07  8.222550161278e-03
2.072000000000e+02 6.210745791077e-05 -7.800000000000e-04 -5.096914799962e+06 -4.081598007833e+04 -5.030598850432e+06 -9.607722712036e+07 2.062248012153e-03 -7.872828792346e-06 2.069620728529e-03 -6.489159416308e-03 3.540158025692e+07 9.101351587185e+07  8.555107036757e-03
2.144000000000e+02 6.461846115066e-05 -8.100000000000e-04 -5.098956260687e+06 -4.168334937733e+04 -5.029115833841e+06 -9.842354211224e+07 2.145434155265e-03 -8.118009122276e-06 2.153303975068e-03 -6.738256038311e-03 3.618387140226e+07 9.335955357362e+07  8.887638839237e-03
2.216000000000e+02 6.712946316491e-05 -8.400000000000e-04 -5.100899771706e+06 -4.251170870675e+04 -5.027560752473e+06 -1.007182786196e+08 2.228613307702e-03 -8.357401755332e-06 2.236987771111e-03 -6.987331870447e-03 3.694891304792e+07 9.565409778401e+07  9.220146625323e-03
2.288000000000e+02 6.964046416689e-05 -8.700000000000e-04 -5.102752005477e+06 -4.330351011678e+04 -5.025940972658e+06 -1.029636588622e+08 2.311785725946e-03 -8.591236589372e-06 2.320672098654e-03 -7.236387754675e-03 3.769745061345e+07 9.789936370409e+07  9.552631356853e-03
2.360000000000e+02 7.215146419302e-05 -8.999999999999e-04 -5.104519028297e+06 -4.406103140298e+04 -5.024263195775e+06 -1.051617644261e+08 2.394951659336e-03 -8.819737607112e-06 2.404356935469e-03 -7.485424487748e-03 3.843018221671e+07 1.000974265366e+08  9.885093944742e-03
2.432000000000e+02 7.466246382316e-05 -9.300000000000e-04 -5.106206455881e+06 -4.478631501409e+04 -5.022533412189e+06 -1.073145480509e+08 2.478111341931e-03 -9.043099575875e-06 2.488042278755e-03 -7.734442844656e-03 3.914776263966e+07 1.022502332186e+08  1.021753528014e-02
2.504000000000e+02 7.717346278558e-05 -9.600000000001e-04 -5.107819330013e+06 -4.548130535366e+04 -5.020757050638e+06 -1.094238432972e+08 2.561264986003e-03 -9.261525325331e-06 2.571728098941e-03 -7.983443494707e-03 3.985080655929e+07 1.043596120759e+08  1.054995612423e-02
2.576000000000e+02 7.968446154201e-05 -9.900000000000e-04 -5.109362322969e+06 -4.614776732884e+04 -5.018938989756e+06 -1.114913750197e+08 2.644412803641e-03 -9.475197077898e-06 2.655414392072e-03 -8.232427121872e-03 4.053989211080e+07 1.064272831882e+08  1.088235726553e-02
2.648000000000e+02 8.219546015357e-05 -1.020000000000e-03 -5.110839761559e+06 -4.678731486038e+04 -5.017083700567e+06 -1.135187671774e+08 2.727554985961e-03 -9.684281215883e-06 2.739101141834e-03 -8.481394344716e-03 4.121556354652e+07 1.084548661159e+08  1.121473941041e-02
2.720000000000e+02 8.470645875107e-05 -1.050000000000e-03 -5.112255583380e+06 -4.740146659688e+04 -5.015195198879e+06 -1.155075507290e+08 2.810691717577e-03 -9.888943071356e-06 2.822788335461e-03 -8.730345749506e-03 4.187833383709e+07 1.104438878413e+08  1.154710323149e-02
2.792000000000e+02 8.721745746674e-05 -1.080000000000e-03 -5.113613438556e+06 -4.799162039208e+04 -5.013277139958e+06 -1.174591706254e+08 2.893823172055e-03 -1.008933580590e-05 2.906475961160e-03 -8.979281890718e-03 4.252868706797e+07 1.123957896629e+08  1.187944936448e-02
2.864000000000e+02 8.972845642246e-05 -1.110000000000e-03 -5.114916701005e+06 -4.855907164608e+04 -5.011332851649e+06 -1.193749921348e+08 2.976949514356e-03 -1.028560370232e-05 2.990164007683e-03 -9.228203293756e-03 4.316708056249e+07 1.143119334984e+08  1.221177841199e-02
2.936000000000e+02 9.223945572429e-05 -1.140000000000e-03 -5.116168478159e+06 -4.910503118738e+04 -5.009365350932e+06 -1.212563065634e+08 3.060070901232e-03 -1.047788587252e-05 3.073852464128e-03 -9.477110453737e-03 4.379394679750e+07 1.161936075919e+08  1.254409094237e-02
3.008000000000e+02 9.475045548047e-05 -1.170000000000e-03 -5.117371666179e+06 -4.963061781182e+04 -5.007377397408e+06 -1.231043365529e+08 3.143187480835e-03 -1.066631142961e-05 3.157541320395e-03 -9.726003841575e-03 4.440969520549e+07 1.180420317575e+08  1.287638749586e-02
3.080000000000e+02 9.726145578627e-05 -1.200000000000e-03 -5.118528939217e+06 -5.013688011549e+04 -5.005371496214e+06 -1.249202408215e+08 3.226299394163e-03 -1.085100513120e-05 3.241230566711e-03 -9.974883901774e-03 4.501471375233e+07 1.198583621240e+08  1.320866858284e-02
3.152000000000e+02 9.977245673458e-05 -1.230000000000e-03 -5.119642786018e+06 -5.062479326389e+04 -5.003349939862e+06 -1.267051185867e+08 3.309406775908e-03 -1.103208439426e-05 3.324920193879e-03 -1.022375105826e-02 4.560937043752e+07 1.216436955183e+08  1.354093469024e-02
3.224000000000e+02 1.022834583891e-04 -1.260000000000e-03 -5.120715519977e+06 -5.109526955930e+04 -5.001314819139e+06 -1.284600135320e+08 3.392509753351e-03 -1.120966142861e-05 3.408610192354e-03 -1.047260571080e-02 4.619401462372e+07 1.233990734221e+08  1.387318627691e-02
3.296000000000e+02 1.047944608848e-04 -1.290000000000e-03 -5.121749295503e+06 -5.154916197011e+04 -4.999268043710e+06 -1.301859175605e+08 3.475608450183e-03 -1.138384299677e-05 3.492300555559e-03 -1.072144824680e-02 4.676897829992e+07 1.251254857066e+08  1.420542378902e-02
3.368000000000e+02 1.073054642371e-04 -1.320000000000e-03 -5.122746121320e+06 -5.198726935921e+04 -4.997211363460e+06 -1.318837740521e+08 3.558702981385e-03 -1.155473095219e-05 3.575991273463e-03 -1.097027902524e-02 4.733457717895e+07 1.268238738724e+08  1.453764763825e-02
3.440000000000e+02 1.098164685139e-04 -1.350000000000e-03 -5.123707872004e+06 -5.241033952656e+04 -4.995146371171e+06 -1.335544810555e+08 3.641793457020e-03 -1.172242207241e-05 3.659682338298e-03 -1.121909839038e-02 4.789111176621e+07 1.284951342349e+08  1.486985822016e-02
3.512000000000e+02 1.123274737784e-04 -1.380000000000e-03 -5.124636300324e+06 -5.281907472272e+04 -4.993074531704e+06 -1.351988941554e+08 3.724879983420e-03 -1.188700898940e-05 3.743373742622e-03 -1.146790667292e-02 4.843886832914e+07 1.301401207700e+08  1.520205591508e-02
3.584000000000e+02 1.148384802204e-04 -1.410000000000e-03 -5.125533044340e+06 -5.321413530107e+04 -4.990997190389e+06 -1.368178291879e+08 3.807962667718e-03 -1.204858052961e-05 3.827065483659e-03 -1.171670420323e-02 4.897811980754e+07 1.317596478221e+08  1.553424110570e-02
3.656000000000e+02 1.173494877214e-04 -1.440000000000e-03 -5.126399639493e+06 -5.359614102454e+04 -4.988915568744e+06 -1.384120643461e+08 3.891041599854e-03 -1.220722119402e-05 3.910757548759e-03 -1.196549126212e-02 4.950912651811e+07 1.333544922061e+08  1.586641411164e-02
3.728000000000e+02 1.198604963968e-04 -1.470000000000e-03 -5.127237524747e+06 -5.396567402257e+04 -4.986830794030e+06 -1.399823428506e+08 3.974116875346e-03 -1.236301137703e-05 3.994449933483e-03 -1.221426814415e-02 5.003213705645e+07 1.349253958595e+08  1.619857527311e-02
3.800000000000e+02 1.223715063057e-04 -1.500000000000e-03 -5.128048049577e+06 -5.432328511724e+04 -4.984743897709e+06 -1.415293748135e+08 4.057188583765e-03 -1.251602912571e-05 4.078142631869e-03 -1.246303512521e-02 5.054738892027e+07 1.364730677040e+08  1.653072490794e-02
3.872000000000e+02 1.248825174718e-04 -1.530000000000e-03 -5.128832482215e+06 -5.466949215720e+04 -4.982655828163e+06 -1.430538392008e+08 4.140256810323e-03 -1.266634861898e-05 4.161835637124e-03 -1.271179246709e-02 5.105510917040e+07 1.379981855975e+08  1.686286331724e-02
3.944000000000e+02 1.273935299566e-04 -1.560000000000e-03 -5.129592014452e+06 -5.500478356574e+04 -4.980567448982e+06 -1.445563856469e+08 4.223321636862e-03 -1.281404089710e-05 4.245528944060e-03 -1.296054042180e-02 5.155551503677e+07 1.395013981466e+08  1.719499079146e-02
4.016000000000e+02 1.299045437956e-04 -1.590000000000e-03 -5.130327768093e+06 -5.532962106477e+04 -4.978479558223e+06 -1.460376361183e+08 4.306383142433e-03 -1.295917433617e-05 4.329222546910e-03 -1.320927923110e-02 5.204881448153e+07 1.409833263581e+08  1.752710760908e-02
4.088000000000e+02 1.324155589441e-04 -1.620000000000e-03 -5.131040798794e+06 -5.564444165593e+04 -4.976392892140e+06 -1.474981864283e+08 4.389441401528e-03 -1.310181487036e-05 4.412916437518e-03 -1.345800912107e-02 5.253520670641e+07 1.424445651495e+08  1.785921402946e-02
4.160000000000e+02 1.349265756688e-04 -1.650000000000e-03 -5.131732103886e+06 -5.594965499995e+04 -4.974308103137e+06 -1.489386078238e+08 4.472496490348e-03 -1.324202415355e-05 4.496610618436e-03 -1.370673032867e-02 5.301488267696e+07 1.438856849428e+08  1.819131032900e-02
4.232000000000e+02 1.374375937745e-04 -1.680000000000e-03 -5.132402621006e+06 -5.624565433332e+04 -4.972225822935e+06 -1.503594480576e+08 4.555548475649e-03 -1.337986397090e-05 4.580305077004e-03 -1.395544305254e-02 5.348802550052e+07 1.453072327061e+08  1.852339673348e-02
4.304000000000e+02 1.399486133656e-04 -1.710000000000e-03 -5.133053237272e+06 -5.653280848470e+04 -4.970146608854e+06 -1.517612329078e+08 4.638597425837e-03 -1.351539203579e-05 4.663999810841e-03 -1.420414750198e-02 5.395481091798e+07 1.467097334955e+08  1.885547348529e-02
4.376000000000e+02 1.424596344305e-04 -1.740000000000e-03 -5.133684791820e+06 -5.681146668271e+04 -4.968070976926e+06 -1.531444671963e+08 4.721643404082e-03 -1.364866368021e-05 4.747694813926e-03 -1.445284386931e-02 5.441540765500e+07 1.480936914553e+08  1.918754080538e-02
4.448000000000e+02 1.449706571192e-04 -1.770000000000e-03 -5.134298072743e+06 -5.708196575561e+04 -4.965999395295e+06 -1.545096360135e+08 4.804686476787e-03 -1.377973485463e-05 4.831390085831e-03 -1.470153235453e-02 5.486997782718e+07 1.494595910480e+08  1.951959892680e-02
4.520000000000e+02 1.474816813289e-04 -1.800000000000e-03 -5.134893833854e+06 -5.734461704471e+04 -4.963932306969e+06 -1.558572055583e+08 4.887726701310e-03 -1.390865537262e-05 4.915085617928e-03 -1.495021313064e-02 5.531867723303e+07 1.508078978740e+08  1.985164804696e-02
4.592000000000e+02 1.499927071280e-04 -1.830000000000e-03 -5.135472783513e+06 -5.759972170491e+04 -4.961870103036e+06 -1.571876242540e+08 4.970764136275e-03 -1.403547589140e-05 4.998781407477e-03 -1.519888637498e-02 5.576165571353e+07 1.521390598070e+08  2.018368837121e-02
4.664000000000e+02 1.525037345359e-04 -1.860000000000e-03 -5.136035594468e+06 -5.784756453514e+04 -4.959813147204e+06 -1.585013235838e+08 5.053798837892e-03 -1.416024453912e-05 5.082477450307e-03 -1.544755225650e-02 5.619905744181e+07 1.534535078119e+08  2.051572009455e-02
4.736000000000e+02 1.550147635796e-04 -1.890000000000e-03 -5.136582904136e+06 -5.808841714468e+04 -4.957761770916e+06 -1.597987189425e+08 5.136830860599e-03 -1.428300811881e-05 5.166173742675e-03 -1.569621093850e-02 5.663102120584e+07 1.547516567994e+08  2.084774340569e-02
4.808000000000e+02 1.575257942539e-04 -1.920000000000e-03 -5.137115318243e+06 -5.832253674376e+04 -4.955716278567e+06 -1.610802104137e+08 5.219860256163e-03 -1.440381114717e-05 5.249870279915e-03 -1.594486257599e-02 5.705768067016e+07 1.560339063980e+08  2.117975848322e-02
4.880000000000e+02 1.600368266020e-04 -1.950000000000e-03 -5.137633411038e+06 -5.855016948270e+04 -4.953676944469e+06 -1.623461835408e+08 5.302887075613e-03 -1.452269723898e-05 5.333567059166e-03 -1.619350732192e-02 5.747916463209e+07 1.573006417267e+08  2.151176550422e-02
4.952000000000e+02 1.625478606306e-04 -1.980000000000e-03 -5.138137728489e+06 -5.877154904322e+04 -4.951644020531e+06 -1.635970099958e+08 5.385911367578e-03 -1.463970808002e-05 5.417264076494e-03 -1.644214532142e-02 5.789559724829e+07 1.585522340589e+08  2.184376463619e-02
5.024000000000e+02 1.650588963530e-04 -2.010000000000e-03 -5.138628789687e+06 -5.898689808462e+04 -4.949617735600e+06 -1.648330482518e+08 5.468933179234e-03 -1.475488388489e-05 5.500961328323e-03 -1.669077671516e-02 5.830709825902e+07 1.597890414935e+08  2.217575604163e-02
5.096000000000e+02 1.675699337821e-04 -2.040000000000e-03 -5.139107088822e+06 -5.919643019912e+04 -4.947598300226e+06 -1.660546442053e+08 5.551952556881e-03 -1.486826418402e-05 5.584658811197e-03 -1.693940164039e-02 5.871378319811e+07 1.610114095750e+08  2.250773987926e-02
5.168000000000e+02 1.700809729283e-04 -2.070000000000e-03 -5.139573095041e+06 -5.940034789112e+04 -4.945585898740e+06 -1.672621317324e+08 5.634969543844e-03 -1.497988647625e-05 5.668356521738e-03 -1.718802022645e-02 5.911576357539e+07 1.622196718526e+08  2.283971629840e-02
5.240000000000e+02 1.725920138199e-04 -2.100000000000e-03 -5.140027255935e+06 -5.959884553122e+04 -4.943580703661e+06 -1.684558332830e+08 5.717984184119e-03 -1.508978759524e-05 5.752054457270e-03 -1.743663260323e-02 5.951314708087e+07 1.634141504663e+08  2.317168544962e-02
5.312000000000e+02 1.751030564495e-04 -2.130000000000e-03 -5.140469999486e+06 -5.979210660692e+04 -4.941582869584e+06 -1.696360603506e+08 5.800996518462e-03 -1.519800195439e-05 5.835752614044e-03 -1.768523889188e-02 5.990603773990e+07 1.645951566183e+08  2.350364747261e-02
5.384000000000e+02 1.776141008337e-04 -2.160000000000e-03 -5.140901729235e+06 -5.998031143006e+04 -4.939592533473e+06 -1.708031139937e+08 5.884006587874e-03 -1.530456565470e-05 5.919450989248e-03 -1.793383921220e-02 6.029453608546e+07 1.657629910969e+08  2.383560250627e-02
5.456000000000e+02 1.801251469758e-04 -2.190000000000e-03 -5.141322835367e+06 -6.016362693783e+04 -4.937609817750e+06 -1.719572852750e+08 5.967014430098e-03 -1.540951053800e-05 6.003149579714e-03 -1.818243367717e-02 6.067873930938e+07 1.669179447086e+08  2.416755068090e-02
5.528000000000e+02 1.826361948941e-04 -2.220000000000e-03 -5.141733687674e+06 -6.034221538214e+04 -4.935634833725e+06 -1.730988557277e+08 6.050020083630e-03 -1.551286890061e-05 6.086848382896e-03 -1.843102239973e-02 6.105874141637e+07 1.680602987461e+08  2.449949212743e-02
5.600000000000e+02 1.851472445658e-04 -2.250000000000e-03 -5.142134639417e+06 -6.051623219083e+04 -4.933667682111e+06 -1.742280977377e+08 6.133023584948e-03 -1.561467211718e-05 6.170547394972e-03 -1.867960548625e-02 6.143463335309e+07 1.691903253684e+08  2.483142696855e-02
5.672000000000e+02 1.876582960859e-04 -2.280000000000e-03 -5.142526028106e+06 -6.068582596727e+04 -4.931708447864e+06 -1.753452749890e+08 6.216024972132e-03 -1.571495046640e-05 6.254246616143e-03 -1.892818304902e-02 6.180650315500e+07 1.703082880482e+08  2.516335533573e-02
5.744000000000e+02 1.901693493255e-04 -2.310000000000e-03 -5.142908176861e+06 -6.085113882611e+04 -4.929757206343e+06 -1.764506426956e+08 6.299024274912e-03 -1.581373316030e-05 6.337946039242e-03 -1.917675517531e-02 6.217443602626e+07 1.714144418004e+08  2.549527732751e-02
5.816000000000e+02 1.926804044050e-04 -2.340000000000e-03 -5.143281394081e+06 -6.101230721006e+04 -4.927814025888e+06 -1.775444481709e+08 6.382021531377e-03 -1.591104867435e-05 6.421645665504e-03 -1.942532197604e-02 6.253851453031e+07 1.725090337501e+08  2.582719307448e-02
5.888000000000e+02 1.951914612803e-04 -2.370000000000e-03 -5.143645975844e+06 -6.116946162095e+04 -4.925878963737e+06 -1.786269309599e+08 6.465016772285e-03 -1.600692443924e-05 6.505345490758e-03 -1.967388354134e-02 6.289881863315e+07 1.735923032656e+08  2.615910268010e-02
5.960000000000e+02 1.977025199569e-04 -2.400000000000e-03 -5.144002203340e+06 -6.132272839963e+04 -4.923952067037e+06 -1.796983232541e+08 6.548010029338e-03 -1.610138779233e-05 6.589045512578e-03 -1.992243996324e-02 6.325542584148e+07 1.746644823744e+08  2.649100625102e-02
6.032000000000e+02 2.002135804407e-04 -2.430000000000e-03 -5.144350348164e+06 -6.147222765049e+04 -4.922033377377e+06 -1.807588501764e+08 6.631001333332e-03 -1.619446457273e-05 6.672745728617e-03 -2.017099133171e-02 6.360841130066e+07 1.757257960429e+08  2.682290389144e-02
6.104000000000e+02 2.027246427280e-04 -2.460000000000e-03 -5.144690670816e+06 -6.161807372818e+04 -4.920122931945e+06 -1.818087300656e+08 6.713990714744e-03 -1.628617927183e-05 6.756446136291e-03 -2.041953773497e-02 6.395784788945e+07 1.767764624609e+08  2.715479570355e-02
6.176000000000e+02 2.052357068975e-04 -2.490000000000e-03 -5.145023418207e+06 -6.176037929229e+04 -4.918220751804e+06 -1.828481747509e+08 6.796978203920e-03 -1.637655747471e-05 6.840146735834e-03 -2.066807926200e-02 6.430380630697e+07 1.778166933238e+08  2.748668179161e-02
6.248000000000e+02 2.077467728235e-04 -2.520000000000e-03 -5.145348829520e+06 -6.189925041358e+04 -4.916326862074e+06 -1.838773897435e+08 6.879963826100e-03 -1.646562266297e-05 6.923847520738e-03 -2.091661598473e-02 6.464635514505e+07 1.788466940107e+08  2.781856223692e-02
6.320000000000e+02 2.102578406027e-04 -2.550000000000e-03 -5.145667133261e+06 -6.203478971316e+04 -4.914441275043e+06 -1.848965746104e+08 6.962947611251e-03 -1.655339809059e-05 7.007548491973e-03 -2.116514799083e-02 6.498556100623e+07 1.798666639682e+08  2.815043714261e-02
6.392000000000e+02 2.127689102198e-04 -2.580000000000e-03 -5.145978548334e+06 -6.216709637085e+04 -4.912564002312e+06 -1.859059231018e+08 7.045929586535e-03 -1.663990670181e-05 7.091249646841e-03 -2.141367535774e-02 6.532148855081e+07 1.808767968313e+08  2.848230659837e-02
6.464000000000e+02 2.152799816480e-04 -2.610000000000e-03 -5.146283285741e+06 -6.229626491268e+04 -4.910695048036e+06 -1.869056233928e+08 7.128909776950e-03 -1.672517023980e-05 7.174950982313e-03 -2.166219815776e-02 6.565420057552e+07 1.818772806677e+08  2.881417068749e-02
6.536000000000e+02 2.177910549036e-04 -2.640000000000e-03 -5.146581549237e+06 -6.242238562674e+04 -4.908834412740e+06 -1.878958583261e+08 7.211888208237e-03 -1.680920940748e-05 7.258652496869e-03 -2.191071646579e-02 6.598375809604e+07 1.828682982179e+08  2.914602949696e-02
6.608000000000e+02 2.203021299878e-04 -2.670000000000e-03 -5.146873531284e+06 -6.254554786786e+04 -4.906982091365e+06 -1.888768055874e+08 7.294864905673e-03 -1.689204599263e-05 7.342354188541e-03 -2.215923035350e-02 6.631022040335e+07 1.838500270738e+08  2.947788311011e-02
6.680000000000e+02 2.228132069037e-04 -2.700000000000e-03 -5.147159419364e+06 -6.266583586320e+04 -4.905138075109e+06 -1.898486379018e+08 7.377839893184e-03 -1.697369998385e-05 7.426056055472e-03 -2.240773989012e-02 6.663364513210e+07 1.848226398715e+08  2.980973160722e-02
6.752000000000e+02 2.253242856413e-04 -2.730000000000e-03 -5.147439393114e+06 -6.278333122866e+04 -4.903302351962e+06 -1.908115232158e+08 7.460813194037e-03 -1.705419117261e-05 7.509758095428e-03 -2.265624514232e-02 6.695408832029e+07 1.857863044735e+08  3.014157506545e-02
6.824000000000e+02 2.278353662289e-04 -2.760000000000e-03 -5.147713625430e+06 -6.289811237512e+04 -4.901474908695e+06 -1.917656248953e+08 7.543784832909e-03 -1.713353867477e-05 7.593460307496e-03 -2.290474618026e-02 6.727160447647e+07 1.867411841660e+08  3.047341356684e-02
6.896000000000e+02 2.303464486365e-04 -2.790000000000e-03 -5.147982282542e+06 -6.301025514639e+04 -4.899655724967e+06 -1.927111018372e+08 7.626754830653e-03 -1.721176129638e-05 7.677162688875e-03 -2.315324306394e-02 6.758624661490e+07 1.876874377731e+08  3.080524718044e-02
6.968000000000e+02 2.328575328582e-04 -2.820000000000e-03 -5.148245524439e+06 -6.311983265093e+04 -4.897844779349e+06 -1.936481086777e+08 7.709723209008e-03 -1.728887734986e-05 7.760865237609e-03 -2.340173585537e-02 6.789806632715e+07 1.886252198616e+08  3.113707597811e-02
7.040000000000e+02 2.353686189393e-04 -2.850000000000e-03 -5.148503505267e+06 -6.322691524698e+04 -4.896042048856e+06 -1.945767959515e+08 7.792689991269e-03 -1.736490457362e-05 7.844567953500e-03 -2.365022462083e-02 6.820711383520e+07 1.895546809008e+08  3.146890003770e-02
7.112000000000e+02 2.378797068393e-04 -2.880000000000e-03 -5.148756373325e+06 -6.333157095982e+04 -4.894247505944e+06 -1.954973101772e+08 7.875655196702e-03 -1.743986036320e-05 7.928270833547e-03 -2.389870941519e-02 6.851343801882e+07 1.904759673489e+08  3.180071942222e-02
7.184000000000e+02 2.403907965417e-04 -2.910000000000e-03 -5.149004271710e+06 -6.343386552853e+04 -4.892461122912e+06 -1.964097940489e+08 7.958618845527e-03 -1.751376174643e-05 8.011973875553e-03 -2.414719029557e-02 6.881708648118e+07 1.913892218423e+08  3.213253419775e-02