 TITLE = "Time curves in points"
 VARIABLES = "TIME "  "DISPLACEMENT_X1"  "DISPLACEMENT_Y1"  "STRESS_XX"  "STRESS_XY"  "STRESS_YY"  "STRESS_ZZ"  "STRAIN_XX"  "STRAIN_XY"  "STRAIN_YY"  "STRAIN_ZZ"  p_(1st_Invariant)  q_(2nd_Invariant)   Effective_Strain
 ZONE T="POINT=POINT0"
0.000000000000e+00 0.000000000000e+00 0.000000000000e+00 0.000000000000e+00 0.000000000000e+00 0.000000000000e+00 0.000000000000e+00 0.000000000000e+00 0.000000000000e+00 0.000000000000e+00 0.000000000000e+00 -0.000000000000e+00 0.000000000000e+00  0.000000000000e+00
2.000000000000e+00 0.000000000000e+00 0.000000000000e+00 -4.989190469260e+05 -3.313878812461e-06 -4.989190469281e+05 -3.342757614072e+05 -1.029322430045e-05 -4.140783737193e-16 -1.029322430057e-05 1.587694794942e-15 4.440379517538e+05 1.646432855198e+05  1.029322430210e-05
4.000000000000e+00 0.000000000000e+00 0.000000000000e+00 -9.986583267177e+05 4.070711970675e-01 -9.986036987004e+05 -6.692723679914e+05 -2.060156516061e-05 7.396114589333e-11 -2.059814800750e-05 -8.883689522764e-09 8.888447978032e+05 3.293586481162e+05  2.059097310759e-05
6.000000000000e+00 0.000000000000e+00 0.000000000000e+00 -1.498400926672e+06 9.419505898205e-01 -1.498291611691e+06 -1.004272750177e+06 -3.091000560814e-05 1.638355446671e-10 -3.090316759463e-05 -1.784087086794e-08 1.333655096180e+06 4.940735280775e+05  3.088874629948e-05
8.000000000000e+00 0.000000000000e+00 0.000000000000e+00 -1.998142910431e+06 1.450594281914e+00 -1.997979175292e+06 -1.339272873663e+06 -4.121848099032e-05 2.502155429428e-10 -4.120823883495e-05 -2.680102023893e-08 1.778464986462e+06 6.587881844637e+05  4.118655984980e-05
1.000000000000e+01 0.000000000000e+00 0.000000000000e+00 -2.497884290884e+06 1.934052639058e+00 -2.497666412367e+06 -1.674272690440e+06 -5.152699207400e-05 3.332331039695e-10 -5.151336311755e-05 -3.576132930860e-08 2.223274464564e+06 8.235026828099e+05  5.148441762265e-05
1.200000000000e+01 0.000000000000e+00 0.000000000000e+00 -2.997625102117e+06 2.395699549885e+00 -2.997353360134e+06 -2.009272187396e+06 -6.183553983362e-05 4.133122862658e-10 -6.181854161110e-05 -4.472006655674e-08 2.668083549882e+06 9.882170717599e+05  6.178232241373e-05
1.400000000000e+01 0.000000000000e+00 0.000000000000e+00 -3.497365369365e+06 2.840320195261e+00 -3.497040044685e+06 -2.344271356748e+06 -7.214412491088e-05 4.910535443287e-10 -7.212377500934e-05 -5.367606301825e-08 3.112892256932e+06 1.152931384712e+06  7.208027605657e-05
1.600000000000e+01 0.000000000000e+00 0.000000000000e+00 -3.997105111392e+06 3.273678347763e+00 -3.996726484148e+06 -2.679270196469e+06 -8.245274767256e-05 5.671796266727e-10 -8.242906363771e-05 -6.262864557257e-08 3.557700597336e+06 1.317645642113e+06  8.237827956888e-05
1.800000000000e+01 0.000000000000e+00 0.000000000000e+00 -4.496844342726e+06 3.702104392952e+00 -4.496412691494e+06 -3.014268705976e+06 -9.276140834107e-05 6.424840819308e-10 -9.273440761993e-05 -7.157735597504e-08 4.002508580065e+06 1.482359858283e+06  9.267633358114e-05
2.000000000000e+01 0.000000000000e+00 0.000000000000e+00 -4.996583074783e+06 4.132376992231e+00 -4.996098675920e+06 -3.349266886561e+06 -1.030701070203e-04 7.178164668858e-10 -1.030398069199e-04 -8.052193165751e-08 4.447316212422e+06 1.647074042229e+06  1.029744383893e-04
2.720000000000e+01 0.000000000000e+00 0.000000000000e+00 -4.997425365114e+06 -5.764585390070e-01 -4.996890917013e+06 -8.491991366279e+06 -1.933389777164e-05 4.924585880269e-10 -1.930034337280e-05 -2.500967213179e-04 6.162102549469e+06 3.494833255865e+06  2.307796025768e-04
3.440000000000e+01 0.000000000000e+00 0.000000000000e+00 -5.061239963547e+06 -4.201711699405e+04 -5.069899602708e+06 -1.373478448443e+07 6.416965333526e-05 -5.321077450868e-06 6.359034412013e-05 -5.027858190358e-04 7.955308016896e+06 8.669523406374e+06  5.667409834454e-04
4.160000000000e+01 0.000000000000e+00 0.000000000000e+00 -5.124266597474e+06 -8.357397496510e+04 -5.142267231396e+06 -1.896538616776e+07 1.477265878083e-04 -1.060107368231e-05 1.465239660676e-04 -7.555799007340e-04 9.743973332210e+06 1.383288545037e+07  9.028925023554e-04
4.880000000000e+01 0.000000000000e+00 0.000000000000e+00 -5.181919249086e+06 -1.219538119746e+05 -5.208532598874e+06 -2.417967973136e+07 2.314103201700e-04 -1.549097248655e-05 2.296326782116e-04 -1.008470336387e-03 1.152337719311e+07 1.898564288519e+07  1.239283280498e-03
5.600000000000e+01 0.000000000000e+00 0.000000000000e+00 -5.234219481264e+06 -1.571516762085e+05 -5.268646093955e+06 -2.937852056419e+07 3.152307011910e-04 -1.998727883709e-05 3.129310473583e-04 -1.261490953429e-03 1.329379537980e+07 2.412864155772e+07  1.575953370029e-03
6.320000000000e+01 0.000000000000e+00 0.000000000000e+00 -5.281410935524e+06 -1.892611154493e+05 -5.322859162824e+06 -3.456242764264e+07 3.991887629975e-04 -2.409964233196e-05 3.964196040050e-04 -1.514657612460e-03 1.505556591366e+07 2.926215081690e+07  1.912918777804e-03
7.040000000000e+01 0.000000000000e+00 0.000000000000e+00 -5.323976849193e+06 -2.183870725494e+05 -5.371702861700e+06 -3.973143920379e+07 4.832717582198e-04 -2.783951130154e-05 4.800824826450e-04 -1.767957634974e-03 1.680903963823e+07 3.438570475091e+07  2.250153167344e-03
7.760000000000e+01 0.000000000000e+00 0.000000000000e+00 -5.362456909821e+06 -2.446398076536e+05 -5.415777214602e+06 -4.488538942837e+07 5.674618867935e-04 -3.121927970077e-05 5.638979275419e-04 -2.021366158310e-03 1.855454118427e+07 3.949857224027e+07  2.587612954352e-03
8.480000000000e+01 0.000000000000e+00 0.000000000000e+00 -5.397441669923e+06 -2.681351985921e+05 -5.455739646245e+06 -5.002422969880e+07 6.517408542836e-04 -3.425232283904e-05 6.478432269515e-04 -2.274859865105e-03 2.029247033832e+07 4.460008572246e+07  2.925255515015e-03
9.200000000000e+01 0.000000000000e+00 0.000000000000e+00 -5.429506216687e+06 -2.889970442412e+05 -5.492231025191e+06 -5.514800848640e+07 7.360907893515e-04 -3.695318064920e-05 7.318961407398e-04 -2.528416044116e-03 2.202324857609e+07 4.968969084917e+07  3.263039321623e-03
9.920000000000e+01 0.000000000000e+00 0.000000000000e+00 -5.459154846908e+06 -3.073566284990e+05 -5.525817826181e+06 -6.025681359937e+07 8.204950019322e-04 -3.933745730753e-05 8.160358315419e-04 -2.782011445793e-03 2.374726209082e+07 5.476694512027e+07  3.600923590784e-03
1.064000000000e+02 0.000000000000e+00 0.000000000000e+00 -5.486806554240e+06 -3.233514155183e+05 -5.556978515507e+06 -6.535076246936e+07 9.049385899135e-04 -4.142168415261e-05 9.002434149734e-04 -3.035623067955e-03 2.546484917970e+07 5.983152211944e+07  3.938869617738e-03
1.136000000000e+02 0.000000000000e+00 0.000000000000e+00 -5.512782285530e+06 -3.371209409067e+05 -5.586090064699e+06 -7.043000678860e+07 9.894091632105e-04 -4.322281041607e-05 9.845027391012e-04 -3.289229539286e-03 2.717629304628e+07 6.488322915238e+07  4.276842882014e-03
1.208000000000e+02 0.000000000000e+00 0.000000000000e+00 -5.537316959342e+06 -3.487996553705e+05 -5.613437902987e+06 -7.549472404176e+07 1.073896522795e-03 -4.475727571304e-05 1.068800206145e-03 -3.542811074177e-03 2.888182630136e+07 6.992198767091e+07  4.614812720553e-03
1.280000000000e+02 0.000000000000e+00 0.000000000000e+00 -5.560582501499e+06 -3.585114129793e+05 -5.639237950508e+06 -8.054509289396e+07 1.158391718524e-03 -4.604029065182e-05 1.153123898051e-03 -3.796348183373e-03 3.058163778199e+07 7.494778606765e+07  4.952750113844e-03
1.352000000000e+02 0.000000000000e+00 0.000000000000e+00 -5.582710673079e+06 -3.663677278378e+05 -5.663660051675e+06 -8.558127187018e+07 1.242886157401e-03 -4.708560994757e-05 1.237462642768e-03 -4.049820397971e-03 3.227588086498e+07 7.996063524339e+07  5.290625500669e-03
1.424000000000e+02 0.000000000000e+00 0.000000000000e+00 -5.603793458771e+06 -3.724666222568e+05 -5.686827643520e+06 -9.060340536388e+07 1.327371888478e-03 -4.790533110377e-05 1.321806352358e-03 -4.303207161057e-03 3.396467548872e+07 8.496057461771e+07  5.628409986792e-03
1.496000000000e+02 0.000000000000e+00 0.000000000000e+00 -5.623885178315e+06 -3.768924785627e+05 -5.708818845737e+06 -9.561162230867e+07 1.411841672571e-03 -4.850979948632e-05 1.406146168071e-03 -4.556488237878e-03 3.564810877757e+07 8.994766924636e+07  5.966075872029e-03
1.568000000000e+02 0.000000000000e+00 0.000000000000e+00 -5.643010100831e+06 -3.797188656861e+05 -5.729675669331e+06 -1.006060166327e+08 1.496288554878e-03 -4.890796220852e-05 1.490473925527e-03 -4.809642794882e-03 3.732623413429e+07 9.492198194726e+07  6.303595268621e-03
1.640000000000e+02 0.000000000000e+00 0.000000000000e+00 -5.661163381963e+06 -3.810125508764e+05 -5.749406921499e+06 -1.055866515052e+08 1.580706055335e-03 -4.910789571081e-05 1.574782212481e-03 -5.062649856059e-03 3.899907393622e+07 9.988357570951e+07  6.640940702731e-03
1.712000000000e+02 0.000000000000e+00 0.000000000000e+00 -5.678310005532e+06 -3.808368972492e+05 -5.767988554909e+06 -1.105535736418e+08 1.665088592462e-03 -4.911725034283e-05 1.659064699144e-03 -5.315489372739e-03 4.066662406742e+07 1.048325284143e+08  6.978086576665e-03
1.784000000000e+02 0.000000000000e+00 0.000000000000e+00 -5.694391377136e+06 -3.792530092272e+05 -5.785371137096e+06 -1.155067931185e+08 1.749431034938e-03 -4.894340004976e-05 1.743315631352e-03 -5.568141241227e-03 4.232885187757e+07 1.097689056432e+08  7.315007715413e-03
1.856000000000e+02 0.000000000000e+00 0.000000000000e+00 -5.709325537511e+06 -3.763191741207e+05 -5.801480510050e+06 -1.204462808300e+08 1.833728784674e-03 -4.859336831301e-05 1.827529883924e-03 -5.820585511677e-03 4.398569562585e+07 1.146927577039e+08  7.651679644718e-03
1.928000000000e+02 0.000000000000e+00 0.000000000000e+00 -5.723007066795e+06 -3.720911763874e+05 -5.816218198155e+06 -1.253719719989e+08 1.917977992927e-03 -4.807386812197e-05 1.911703143474e-03 -6.072802970816e-03 4.563706575463e+07 1.196041229966e+08  7.988079376614e-03
2.000000000000e+02 0.000000000000e+00 0.000000000000e+00 -5.735310999767e+06 -3.666231889753e+05 -5.829465767166e+06 -1.302837541347e+08 2.002175376774e-03 -4.739141708590e-05 1.995831696035e-03 -6.324774810980e-03 4.728284363387e+07 1.245030118529e+08  8.324184884861e-03
2.072000000000e+02 0.000000000000e+00 0.000000000000e+00 -5.746090805559e+06 -3.599684355597e+05 -5.841083084308e+06 -1.351814698143e+08 2.086318521170e-03 -4.655242222815e-05 2.079912711605e-03 -6.576483363131e-03 4.892288123471e+07 1.293894112085e+08  8.659976134258e-03
2.144000000000e+02 0.000000000000e+00 0.000000000000e+00 -5.755178478374e+06 -3.521798535574e+05 -5.850908548411e+06 -1.400649223006e+08 2.170406179128e-03 -4.556326491895e-05 2.163944536186e-03 -6.827912977452e-03 5.055700310912e+07 1.342632900706e+08  8.995436259814e-03
2.216000000000e+02 0.000000000000e+00 0.000000000000e+00 -5.762383171357e+06 -3.433107085083e+05 -5.858757794711e+06 -1.449338831945e+08 2.254438684185e-03 -4.443037922255e-05 2.247927100504e-03 -7.079051144315e-03 5.218500805351e+07 1.391246085083e+08  9.330553100174e-03
2.288000000000e+02 0.000000000000e+00 0.000000000000e+00 -5.767496338928e+06 -3.334156019239e+05 -5.864428935834e+06 -1.497880681099e+08 2.338417585956e-03 -4.316038106849e-05 2.331861549697e-03 -7.329887736250e-03 5.380666446154e+07 1.439732881441e+08  9.665318074447e-03
2.360000000000e+02 0.000000000000e+00 0.000000000000e+00 -5.770297084488e+06 -3.225511349193e+05 -5.867707924007e+06 -1.546271239820e+08 2.422345497209e-03 -4.176014988882e-05 2.415750090045e-03 -7.580414902291e-03 5.542170966350e+07 1.488091941114e+08  9.999725924343e-03
2.432000000000e+02 0.000000000000e+00 0.000000000000e+00 -5.770567194623e+06 -3.107766341238e+05 -5.868383467347e+06 -1.594506342314e+08 2.506225919522e-03 -4.023691625032e-05 2.499595822930e-03 -7.830627570153e-03 5.702986163113e+07 1.536321252455e+08  1.033377504673e-02
2.504000000000e+02 0.000000000000e+00 0.000000000000e+00 -5.768101053260e+06 -2.981550925968e+05 -5.866256731730e+06 -1.642581398169e+08 2.590063526383e-03 -3.859837615121e-05 2.583403042162e-03 -8.080524975304e-03 5.863083253395e+07 1.584418253300e+08  1.066746931338e-02
2.576000000000e+02 0.000000000000e+00 0.000000000000e+00 -5.762714665222e+06 -2.847547224193e+05 -5.861150163896e+06 -1.690491439516e+08 2.673864172069e-03 -3.685288549257e-05 2.667177255667e-03 -8.330111313089e-03 6.022433626025e+07 1.632379788937e+08  1.100081873926e-02
2.648000000000e+02 0.000000000000e+00 0.000000000000e+00 -5.754240486497e+06 -2.706507569561e+05 -5.852902052319e+06 -1.738230923387e+08 2.757634933175e-03 -3.500968707895e-05 2.750925243991e-03 -8.579395525095e-03 6.181007829249e+07 1.680201967515e+08  1.133383931929e-02
2.720000000000e+02 0.000000000000e+00 0.000000000000e+00 -5.742512159469e+06 -2.559277482129e+05 -5.841350917051e+06 -1.785793296524e+08 2.841384039811e-03 -3.307920359094e-05 2.834655013393e-03 -8.828390067720e-03 6.338773090965e+07 1.727879879243e+08  1.166655173920e-02
2.792000000000e+02 0.000000000000e+00 0.000000000000e+00 -5.727346304935e+06 -2.406833329998e+05 -5.826317142706e+06 -1.833170993790e+08 2.925121655237e-03 -3.107352875426e-05 2.918376585339e-03 -9.077111989814e-03 6.495692094221e+07 1.775407777692e+08  1.199898323834e-02
2.864000000000e+02 0.000000000000e+00 0.000000000000e+00 -5.708538218039e+06 -2.250337535198e+05 -5.807598662264e+06 -1.880355676188e+08 3.008860554072e-03 -2.900715944232e-05 3.002102675247e-03 -9.325584645418e-03 6.651723483302e+07 1.822779360952e+08  1.233117000159e-02
2.936000000000e+02 0.000000000000e+00 0.000000000000e+00 -5.685871393512e+06 -2.091189651034e+05 -5.784980247386e+06 -1.927338074565e+08 3.092615530443e-03 -2.689768646418e-05 3.085848116011e-03 -9.573836582044e-03 6.806821969914e+07 1.869987521179e+08  1.266315546148e-02
3.008000000000e+02 0.000000000000e+00 0.000000000000e+00 -5.659119400000e+06 -1.931067315698e+05 -5.758234998617e+06 -1.974107661188e+08 3.176402695356e-03 -2.476636984007e-05 3.169629180908e-03 -9.821899575650e-03 6.960937350581e+07 1.917023999189e+08  1.299498763908e-02
3.080000000000e+02 0.000000000000e+00 0.000000000000e+00 -5.628038830846e+06 -1.771967870594e+05 -5.727117237422e+06 -2.020652808702e+08 3.260239940533e-03 -2.263875025198e-05 3.253464051919e-03 -1.006980948377e-02 7.114014564616e+07 1.963879614022e+08  1.332672045838e-02
3.152000000000e+02 0.000000000000e+00 0.000000000000e+00 -5.592371398742e+06 -1.616235093157e+05 -5.691364587091e+06 -2.066960717299e+08 3.344146636469e-03 -2.054509476578e-05 3.337372519605e-03 -1.031760540808e-02 7.265993590526e+07 2.010544169038e+08  1.365841260225e-02
3.224000000000e+02 0.000000000000e+00 0.000000000000e+00 -5.551849234505e+06 -1.466557177599e+05 -5.650703278059e+06 -2.113016862389e+08 3.428142346506e-03 -1.852049187265e-05 3.421374697562e-03 -1.056532608537e-02 7.416807958383e+07 2.057005846366e+08  1.399012261201e-02
3.296000000000e+02 0.000000000000e+00 0.000000000000e+00 -5.506198856239e+06 -1.325928270990e+05 -5.604852296082e+06 -2.158804296475e+08 3.512245338469e-03 -1.660448353406e-05 3.505489522093e-03 -1.081300546716e-02 7.566382693327e+07 2.103250468075e+08  1.432190296880e-02
3.368000000000e+02 0.000000000000e+00 0.000000000000e+00 -5.455175921244e+06 -1.197567014225e+05 -5.553558708414e+06 -2.204302115734e+08 3.596468389878e-03 -1.484012199760e-05 3.589730515892e-03 -1.106066219335e-02 7.714631540101e+07 2.149259612393e+08  1.465378535128e-02
3.440000000000e+02 0.000000000000e+00 0.000000000000e+00 -5.398628600668e+06 -1.084781222321e+05 -5.496663129331e+06 -2.249482433511e+08 3.680810436846e-03 -1.327229608851e-05 3.674097287150e-03 -1.130827835140e-02 7.861451169368e+07 2.195006943208e+08  1.498575097328e-02
3.512000000000e+02 0.000000000000e+00 0.000000000000e+00 -5.336589325869e+06 -9.908738719051e+04 -5.434201446399e+06 -2.294307678224e+08 3.765246596104e-03 -1.194700631034e-05 3.758564835002e-03 -1.155577486886e-02 8.006718619822e+07 2.240454541184e+08  1.531769565448e-02
3.584000000000e+02 0.000000000000e+00 0.000000000000e+00 -5.269268507950e+06 -9.193984066194e+04 -5.366431438137e+06 -2.338736482765e+08 3.849735726027e-03 -1.091708574784e-05 3.843088663293e-03 -1.180303151488e-02 8.150311607420e+07 2.285558692692e+08  1.564945619195e-02
3.656000000000e+02 0.000000000000e+00 0.000000000000e+00 -5.197019992374e+06 -8.744278363515e+04 -5.293837441142e+06 -2.382732636169e+08 3.934234435282e-03 -1.024911450156e-05 3.927615617701e-03 -1.204992391694e-02 8.292137368347e+07 2.330278992034e+08  1.598085983113e-02
3.728000000000e+02 0.000000000000e+00 0.000000000000e+00 -5.120184908841e+06 -8.589678826109e+04 -5.216884916083e+06 -2.426267562714e+08 4.018703139826e-03 -9.997266777698e-06 4.012096447653e-03 -1.229633842241e-02 8.432127536545e+07 2.374582827338e+08  1.631174841041e-02
3.800000000000e+02 0.000000000000e+00 0.000000000000e+00 -5.039117136466e+06 -8.741145971823e+04 -5.135964041260e+06 -2.469310904240e+08 4.103088053199e-03 -1.018482182049e-05 4.096474428177e-03 -1.254212671021e-02 8.570205720059e+07 2.418436117694e+08  1.664191828615e-02
3.872000000000e+02 0.000000000000e+00 0.000000000000e+00 -4.954405239536e+06 -9.206428145009e+04 -5.051711445655e+06 -2.511825000038e+08 4.187304468337e-03 -1.083048008049e-05 4.180661212879e-03 -1.278706380335e-02 8.706287222965e+07 2.461795077286e+08  1.697105798673e-02
3.944000000000e+02 0.000000000000e+00 0.000000000000e+00 -4.866239558775e+06 -9.975577166043e+04 -4.964319155650e+06 -2.553788200451e+08 4.271297828856e-03 -1.192752691310e-05 4.264601919525e-03 -1.303099240156e-02 8.840312625318e+07 2.504636146874e+08  1.729895558361e-02
4.016000000000e+02 0.000000000000e+00 0.000000000000e+00 -4.774517132205e+06 -1.102685266729e+05 -4.873652201511e+06 -2.595189628477e+08 4.355036192402e-03 -1.345106851291e-05 4.348266725693e-03 -1.327380588334e-02 8.972237739381e+07 2.546949642608e+08  1.762547371537e-02
4.088000000000e+02 0.000000000000e+00 0.000000000000e+00 -4.679076127487e+06 -1.233562617980e+05 -4.779514650370e+06 -2.636021675797e+08 4.438492264597e-03 -1.537087557152e-05 4.431630624231e-03 -1.351540796257e-02 9.102025278586e+07 2.588729749753e+08  1.795049013353e-02
4.160000000000e+02 0.000000000000e+00 0.000000000000e+00 -4.579735466506e+06 -1.387915068315e+05 -4.681707251591e+06 -2.676278777995e+08 4.521640991290e-03 -1.765857996861e-05 4.514669693762e-03 -1.375570669565e-02 9.229644017253e+07 2.629972811336e+08  1.827388863148e-02
4.232000000000e+02 0.000000000000e+00 0.000000000000e+00 -4.476308011156e+06 -1.563890616844e+05 -4.580050625502e+06 -2.715957347727e+08 4.604459722261e-03 -2.029139301875e-05 4.597360498273e-03 -1.399461507597e-02 9.355069780313e+07 2.670677079336e+08  1.859555941544e-02
4.304000000000e+02 0.000000000000e+00 0.000000000000e+00 -4.368675834351e+06 -1.759949319412e+05 -4.474454791661e+06 -2.755055895868e+08 4.686926153560e-03 -2.325061044128e-05 4.679678405839e-03 -1.423205088001e-02 9.478290673760e+07 2.710842111430e+08  1.891539707029e-02
4.376000000000e+02 0.000000000000e+00 0.000000000000e+00 -4.256852578892e+06 -1.974579224378e+05 -4.364963597306e+06 -2.793574551282e+08 4.769014850799e-03 -2.651731686288e-05 4.761595424183e-03 -1.446793249208e-02 9.599309043480e+07 2.750467756102e+08  1.923329354286e-02
4.448000000000e+02 0.000000000000e+00 0.000000000000e+00 -4.140957613626e+06 -2.206059738252e+05 -4.251711113454e+06 -2.831514224731e+08 4.850695891785e-03 -3.006863427091e-05 4.843080197353e-03 -1.470217453094e-02 9.718136373340e+07 2.789553662917e+08  1.954913306130e-02
4.520000000000e+02 0.000000000000e+00 0.000000000000e+00 -4.021158840749e+06 -2.452439028798e+05 -4.134861864882e+06 -2.868876181157e+08 4.931935563707e-03 -3.387722455763e-05 4.924098940190e-03 -1.493468608131e-02 9.834787960711e+07 2.828099439076e+08  1.986279116246e-02
4.592000000000e+02 0.000000000000e+00 0.000000000000e+00 -3.897655274011e+06 -2.711683768897e+05 -4.014603800686e+06 -2.905662063114e+08 5.012696688125e-03 -3.791351333036e-05 5.004615007513e-03 -1.516536988365e-02 9.949282179538e+07 2.866104795067e+08  2.017413382286e-02
4.664000000000e+02 0.000000000000e+00 0.000000000000e+00 -3.770727173228e+06 -2.981863889539e+05 -3.891211278835e+06 -2.941874280457e+08 5.092937238805e-03 -4.214850630340e-05 5.084586535425e-03 -1.539412151082e-02 1.006164554992e+08 2.903569369086e+08  2.048301477038e-02
4.736000000000e+02 0.000000000000e+00 0.000000000000e+00 -3.640705374035e+06 -3.261181399615e+05 -3.765014693720e+06 -2.977516321610e+08 5.172611901379e-03 -4.655435834885e-05 5.163967975561e-03 -1.562083182042e-02 1.017191174096e+08 2.940493343611e+08  2.078927948412e-02
4.808000000000e+02 0.000000000000e+00 0.000000000000e+00 -3.507768158929e+06 -3.547805560100e+05 -3.636182317854e+06 -3.012592520054e+08 5.251679486644e-03 -5.110212415889e-05 5.242718695727e-03 -1.584539403286e-02 1.028010674941e+08 2.976879317747e+08  2.109278026244e-02
4.880000000000e+02 0.000000000000e+00 0.000000000000e+00 -3.371932577434e+06 -3.839893954902e+05 -3.504713108548e+06 -3.047107950992e+08 5.330103716646e-03 -5.576213879930e-05 5.320803672207e-03 -1.606770505410e-02 1.038624802617e+08 3.012732283260e+08  2.139337828292e-02
4.952000000000e+02 0.000000000000e+00 0.000000000000e+00 -3.233126937865e+06 -4.135641808273e+05 -3.370514839293e+06 -3.081068489838e+08 5.407851171335e-03 -6.050475964082e-05 5.398190999801e-03 -1.628766456419e-02 1.049034969203e+08 3.048058930118e+08  2.169094042276e-02
5.024000000000e+02 0.000000000000e+00 0.000000000000e+00 -3.091229710183e+06 -4.433282740445e+05 -3.233444794097e+06 -3.114480695168e+08 5.484889898082e-03 -6.530040427504e-05 5.474850358017e-03 -1.650517380144e-02 1.059242480070e+08 3.082867131530e+08  2.198533658156e-02
5.096000000000e+02 0.000000000000e+00 0.000000000000e+00 -2.946084131815e+06 -4.731084233994e+05 -3.093325193499e+06 -3.147351772552e+08 5.561189021465e-03 -7.011953001563e-05 5.550752552217e-03 -1.672013551145e-02 1.069248621935e+08 3.117165757676e+08  2.227643920711e-02
5.168000000000e+02 0.000000000000e+00 0.000000000000e+00 -2.797507412171e+06 -5.027342899647e+05 -2.949952738381e+06 -3.179689505785e+08 5.636718395016e-03 -7.493262281086e-05 5.625869134356e-03 -1.693245366939e-02 1.079054702430e+08 3.150964513272e+08  2.256412265616e-02
5.240000000000e+02 0.000000000000e+00 0.000000000000e+00 -2.645292234884e+06 -5.320383684446e+05 -2.803100335679e+06 -3.211502289649e+08 5.711448740685e-03 -7.971025586196e-05 5.700172521661e-03 -1.714203406088e-02 1.088662071785e+08 3.184273954296e+08  2.284826390805e-02
5.312000000000e+02 0.000000000000e+00 0.000000000000e+00 -2.489210201859e+06 -5.608559478309e+05 -2.652520633130e+06 -3.242799078759e+08 5.785351474837e-03 -8.442316177176e-05 5.773635812321e-03 -1.734878412413e-02 1.098072129036e+08 3.217105402072e+08  2.312874223241e-02
5.384000000000e+02 0.000000000000e+00 0.000000000000e+00 -2.329011559973e+06 -5.890250337938e+05 -2.497945818112e+06 -3.273589369791e+08 5.858398735596e-03 -8.904230505232e-05 5.846232804190e-03 -1.755261310253e-02 1.107286314524e+08 3.249470927996e+08  2.340543937051e-02
5.456000000000e+02 0.000000000000e+00 0.000000000000e+00 -2.164425606169e+06 -6.163862916092e+05 -2.339088069010e+06 -3.303883172527e+08 5.930563326098e-03 -9.353896318257e-05 5.917937931406e-03 -1.775343202212e-02 1.116306103093e+08 3.281383320453e+08  2.367823945902e-02
5.528000000000e+02 0.000000000000e+00 0.000000000000e+00 -1.995159898180e+06 -6.427830747777e+05 -2.175638856890e+06 -3.333691052456e+08 6.001818840137e-03 -9.788482565656e-05 5.988726380125e-03 -1.795115412600e-02 1.125133013336e+08 3.312856135021e+08  2.394702959253e-02
5.600000000000e+02 0.000000000000e+00 0.000000000000e+00 -1.820899820540e+06 -6.680615016311e+05 -2.007268580519e+06 -3.363024115510e+08 6.072139611958e-03 -1.020521043241e-04 6.058574030347e-03 -1.814569483513e-02 1.133768599840e+08 3.343903683373e+08  2.421169973831e-02
5.672000000000e+02 0.000000000000e+00 0.000000000000e+00 -1.641307008739e+06 -6.920706381629e+05 -1.833625126304e+06 -3.391894001696e+08 6.141500703587e-03 -1.060136623461e-04 6.127457430409e-03 -1.833697174210e-02 1.142214441015e+08 3.374541042190e+08  2.447214271988e-02
5.744000000000e+02 0.000000000000e+00 0.000000000000e+00 -1.456021510623e+06 -7.146627859066e+05 -1.654336199055e+06 -3.420312877146e+08 6.209877693831e-03 -1.097431605152e-04 6.195353570174e-03 -1.852490434452e-02 1.150472151414e+08 3.404784022952e+08  2.472825374113e-02
5.816000000000e+02 0.000000000000e+00 0.000000000000e+00 -1.264660201577e+06 -7.356941005130e+05 -1.469008013803e+06 -3.448293479051e+08 6.277246707946e-03 -1.132152546817e-04 6.262239887307e-03 -1.870941419862e-02 1.158543387068e+08 3.434649231581e+08  2.497993056850e-02
5.888000000000e+02 0.000000000000e+00 0.000000000000e+00 -1.066817650216e+06 -7.550255263527e+05 -1.277226491836e+06 -3.475849127986e+08 6.343584229369e-03 -1.164058383067e-04 6.328094051774e-03 -1.889042464798e-02 1.166429856469e+08 3.464154070719e+08  2.522707306935e-02
5.960000000000e+02 0.000000000000e+00 0.000000000000e+00 -8.620628350006e+05 -7.725242764891e+05 -1.078554447249e+06 -3.502993810831e+08 6.408867198571e-03 -1.192923622884e-04 6.392894027533e-03 -1.906786108278e-02 1.174133327884e+08 3.493316853449e+08  2.546958356410e-02
6.032000000000e+02 0.000000000000e+00 0.000000000000e+00 -6.499378286789e+05 -7.880658943637e+05 -8.725308470152e+05 -3.529742209551e+08 6.473072860917e-03 -1.218542303022e-04 6.456617876236e-03 -1.924165063992e-02 1.181655632103e+08 3.522156842705e+08  2.570736636589e-02
6.104000000000e+02 0.000000000000e+00 0.000000000000e+00 -4.299554303437e+05 -8.015371148266e+05 -6.586692165762e+05 -3.556109813450e+08 6.536178791165e-03 -1.240732952604e-04 6.519243723583e-03 -1.941172236383e-02 1.188998686640e+08 3.550694383748e+08  2.594032795155e-02
6.176000000000e+02 0.000000000000e+00 0.000000000000e+00 -2.015967729675e+05 -8.128397340580e+05 -4.364561855285e+05 -3.582113037768e+08 6.598162880365e-03 -1.259344761355e-04 6.580749677955e-03 -1.957800727911e-02 1.196164522451e+08 3.578951042467e+08  2.616837700288e-02
6.248000000000e+02 0.000000000000e+00 0.000000000000e+00 3.568966006288e+04 -8.218959080987e+05 -2.053517256718e+05 -3.607769354457e+08 6.659003253137e-03 -1.274265408901e-04 6.641113661534e-03 -1.974043838243e-02 1.203155325038e+08 3.606949740434e+08  2.639142428986e-02
6.320000000000e+02 0.000000000000e+00 0.000000000000e+00 2.824932490302e+05 -8.286552053710e+05 3.521452701741e+04 -3.633097500616e+08 6.718678502347e-03 -1.285430808532e-04 6.700313541260e-03 -1.989895125235e-02 1.209973474285e+08 3.634715008436e+08  2.660938348151e-02
6.392000000000e+02 0.000000000000e+00 0.000000000000e+00 5.394398623795e+05 -8.331040369063e+05 2.858399772096e+05 -3.658117663354e+08 6.777167650718e-03 -1.292837360637e-04 6.758326967296e-03 -2.005348434023e-02 1.216621621653e+08 3.662273148724e+08  2.682217135624e-02
6.464000000000e+02 0.000000000000e+00 0.000000000000e+00 8.071939307648e+05 -8.352782667002e+05 5.471486442969e+05 -3.682851774143e+08 6.834450638324e-03 -1.296557466228e-04 6.815131709764e-03 -2.020398046673e-02 1.223102782797e+08 3.689652538473e+08  2.702970973138e-02
6.536000000000e+02 0.000000000000e+00 0.000000000000e+00 1.086453765085e+06 -8.352803401860e+05 8.197832448510e+05 -3.707323702475e+08 6.890508745781e-03 -1.296759689552e-04 6.870705901162e-03 -2.035038843107e-02 1.229420444125e+08 3.716883761483e+08  2.723192742846e-02
6.608000000000e+02 0.000000000000e+00 0.000000000000e+00 1.377945265326e+06 -8.333027127662e+05 1.104394567710e+06 -3.731559387728e+08 6.945325718616e-03 -1.293735446519e-04 6.925028934938e-03 -2.049266637002e-02 1.235578663133e+08 3.743999656753e+08  2.742876467083e-02
6.680000000000e+02 0.000000000000e+00 0.000000000000e+00 1.682403667437e+06 -8.296607177094e+05 1.401617426941e+06 -3.755586659391e+08 6.998889615655e-03 -1.287935912417e-04 6.978083026583e-03 -2.063078724537e-02 1.241582149482e+08 3.771034928873e+08  2.762018031066e-02
6.752000000000e+02 0.000000000000e+00 0.000000000000e+00 2.000537857535e+06 -8.248396887858e+05 1.712027242753e+06 -3.779434451830e+08 7.051196339950e-03 -1.280025113207e-04 7.029856354444e-03 -2.076474882635e-02 1.247436266942e+08 3.798024969593e+08  2.780616519680e-02
6.824000000000e+02 0.000000000000e+00 0.000000000000e+00 2.332952849796e+06 -8.195615004262e+05 2.036052986107e+06 -3.803130708577e+08 7.102255847240e-03 -1.270955825490e-04 7.080348724490e-03 -2.089459122581e-02 1.253146883406e+08 3.825002942477e+08  2.798676571970e-02
6.896000000000e+02 0.000000000000e+00 0.000000000000e+00 2.679990054371e+06 -8.148586380762e+05 2.373810329033e+06 -3.826697277270e+08 7.152102230665e-03 -1.262053099409e-04 7.129581060951e-03 -2.102042553309e-02 1.258719757812e+08 3.851993048452e+08  2.816212230753e-02
6.968000000000e+02 0.000000000000e+00 0.000000000000e+00 3.041392841259e+06 -8.120572000356e+05 2.724782991355e+06 -3.850137561914e+08 7.200805584106e-03 -1.254981600603e-04 7.177607603880e-03 -2.114246974608e-02 1.264158601196e+08 3.878994910550e+08  2.833251731161e-02
7.040000000000e+02 0.000000000000e+00 0.000000000000e+00 3.415654286236e+06 -8.123750269907e+05 3.087260434470e+06 -3.873412565713e+08 7.248480338724e-03 -1.251245750678e-04 7.224528382804e-03 -2.126108318688e-02 1.269461139502e+08 3.905953518898e+08  2.849841916292e-02
7.112000000000e+02 0.000000000000e+00 0.000000000000e+00 3.798880985707e+06 -8.157432492061e+05 3.457416053620e+06 -3.896416252945e+08 7.295303410851e-03 -1.250811310811e-04 7.270518734445e-03 -2.137685001418e-02 1.274617760851e+08 3.932724230806e+08  2.866058795859e-02
7.184000000000e+02 0.000000000000e+00 0.000000000000e+00 4.183638909165e+06 -8.191754032247e+05 3.828404941244e+06 -3.918977169729e+08 7.341557175646e-03 -1.250261478484e-04 7.315887642337e-03 -2.149074643852e-02 1.279618910408e+08 3.959064008853e+08  2.882029100234e-02