 TITLE = "Time curves in points"
 VARIABLES = "TIME "  "DISPLACEMENT_X1"  "DISPLACEMENT_Y1"  "STRESS_XX"  "STRESS_XY"  "STRESS_YY"  "STRESS_ZZ"  "STRAIN_XX"  "STRAIN_XY"  "STRAIN_YY"  "STRAIN_ZZ"  p_(1st_Invariant)  q_(2nd_Invariant)   Effective_Strain
 ZONE T="POINT=POINT2"
0.000000000000e+00 0.000000000000e+00 0.000000000000e+00 0.000000000000e+00 0.000000000000e+00 0.000000000000e+00 0.000000000000e+00 0.000000000000e+00 0.000000000000e+00 0.000000000000e+00 0.000000000000e+00 -0.000000000000e+00 0.000000000000e+00  0.000000000000e+00
2.000000000000e+00 -3.087967292258e-07 0.000000000000e+00 -4.989190468858e+05 -1.966117089684e-06 -4.989190469715e+05 -3.342757611307e+05 -1.029322430223e-05 -2.467381564363e-16 -1.029322430758e-05 1.458692153904e-14 4.440379516627e+05 1.646432857979e+05  1.029322431949e-05
4.000000000000e+00 -6.180500757864e-07 0.000000000000e+00 -9.986646591796e+05 -2.388952375412e+02 -9.986950505248e+05 -6.693458201842e+05 -2.059928817186e-05 -2.981460862090e-08 -2.060114819869e-05 -1.077452860196e-08 8.889018432962e+05 3.293342956575e+05  2.058950847929e-05
6.000000000000e+00 -9.273071465028e-07 0.000000000000e+00 -1.498416961903e+06 -4.791479571962e+02 -1.498476313864e+06 -1.004421767150e+06 -3.090556272919e-05 -5.979911581360e-08 -3.090919348031e-05 -2.163729698588e-08 1.333771680972e+06 4.940255704861e+05  3.088591463651e-05
8.000000000000e+00 -1.236564372510e-06 0.000000000000e+00 -1.998169881954e+06 -7.186827999779e+02 -1.998256239431e+06 -1.339497415804e+06 -4.121196481331e-05 -8.969442260450e-08 -4.121724446846e-05 -3.249745956387e-08 1.778641179063e+06 6.587168252965e+05  4.118240046510e-05
1.000000000000e+01 -1.545821752378e-06 0.000000000000e+00 -2.497923376852e+06 -9.574903829410e+02 -2.498034783267e+06 -1.674572709910e+06 -5.151849445377e-05 -1.194993535334e-07 -5.152530109655e-05 -4.335374002754e-08 2.223510290010e+06 8.234080459133e+05  5.147896046941e-05
1.200000000000e+01 -1.855079309054e-06 0.000000000000e+00 -2.997677452843e+06 -1.195578837216e+03 -2.997811955031e+06 -2.009647653022e+06 -6.182515217770e-05 -1.492149199066e-07 -6.183336409873e-05 -5.420605549991e-08 2.668379020299e+06 9.880992277208e+05  6.177559312282e-05
1.400000000000e+01 -2.164337064454e-06 0.000000000000e+00 -3.497432113164e+06 -1.432956508678e+03 -3.497587764010e+06 -2.344722252108e+06 -7.213193832145e-05 -1.788421600305e-07 -7.214143418303e-05 -6.505453594715e-08 3.113247376427e+06 1.152790366182e+06  7.207229786425e-05
1.600000000000e+01 -2.473595039538e-06 0.000000000000e+00 -3.997187358383e+06 -1.669631725400e+03 -3.997362218109e+06 -2.679796514206e+06 -8.243885311549e-05 -2.083821101277e-07 -8.244951203204e-05 -7.589937803239e-08 3.558115363566e+06 1.317481456610e+06  8.236907448268e-05
1.800000000000e+01 -2.782853255648e-06 0.000000000000e+00 -4.496943187326e+06 -1.905612818709e+03 -4.497135326113e+06 -3.014870449481e+06 -9.274589664488e-05 -2.378358069893e-07 -9.275759834675e-05 -8.674093832931e-08 4.002982987640e+06 1.482172491622e+06  9.266592275810e-05
2.000000000000e+01 -3.092111732896e-06 0.000000000000e+00 -4.996699597490e+06 -2.140908065998e+03 -4.996907095868e+06 -3.349944069048e+06 -1.030530689315e-04 -2.672042807576e-07 -1.030656937895e-04 -9.757965348959e-08 4.447850254135e+06 1.646863462183e+06  1.029628424466e-04
2.720000000000e+01 -5.800364716716e-07 -3.000000000000e-05 -4.997456401722e+06 -2.355848492213e+03 -4.997836849114e+06 -8.492885052328e+06 -1.930637107827e-05 -2.940263048234e-07 -1.932949505977e-05 -2.501268348563e-04 6.162726101055e+06 3.495240824259e+06  2.308094644933e-04
3.440000000000e+01 1.937411616893e-06 -6.000000000000e-05 -5.020246169610e+06 -2.893254891092e+03 -5.033046773694e+06 -1.372339429315e+07 6.542052221513e-05 -3.033673643742e-07 6.449954467544e-05 -5.035244412046e-04 7.925562412152e+06 8.696756330676e+06  5.684852769975e-04
4.160000000000e+01 4.453867458646e-06 -9.000000000000e-05 -5.042793235984e+06 -3.820445912192e+03 -5.071505883629e+06 -1.894637244461e+07 1.503405791541e-04 -3.666045737230e-07 1.482932190772e-04 -7.572572519337e-04 9.686890521408e+06 1.388924671979e+07  9.065761072905e-04
4.880000000000e+01 6.969984281286e-06 -1.200000000000e-04 -5.065104223588e+06 -4.456790564472e+03 -5.113217656339e+06 -2.416233012183e+07 2.354724003078e-04 -3.968290538158e-07 2.320728556098e-04 -1.011387101951e-03 1.144688400059e+07 1.907321625751e+07  1.245163400155e-03
5.600000000000e+01 9.485818791299e-06 -1.500000000000e-04 -5.087272007815e+06 -4.736097277557e+03 -5.158560615407e+06 -2.937142390637e+07 3.208375389818e-04 -3.849403865080e-07 3.158400344709e-04 -1.265964315154e-03 1.320575217653e+07 2.424858757565e+07  1.584309153687e-03
6.320000000000e+01 1.200132136305e-05 -1.800000000000e-04 -5.109358104046e+06 -4.675822879787e+03 -5.207802502636e+06 -3.457313380488e+07 4.064497301216e-04 -3.326633792416e-07 3.995931552696e-04 -1.521018305993e-03 1.496343147052e+07 2.941467816855e+07  1.924048997814e-03
7.040000000000e+01 1.451641979706e-05 -2.100000000000e-04 -5.131459624744e+06 -4.321647088822e+03 -5.261136968693e+06 -3.976654983929e+07 4.923153902452e-04 -2.453536507447e-07 4.833301444766e-04 -1.776565747199e-03 1.671971547758e+07 3.457043476595e+07  2.264401924670e-03
7.760000000000e+01 1.703106174022e-05 -2.400000000000e-04 -5.153668682523e+06 -3.734560653801e+03 -5.318709394463e+06 -4.495062768286e+07 5.784391732217e-04 -1.304053679366e-07 5.670497274205e-04 -2.032620334579e-03 1.847433525328e+07 3.971469636678e+07  2.605383465638e-03
8.480000000000e+01 1.954522980882e-05 -2.700000000000e-04 -5.176077486374e+06 -2.992693842411e+03 -5.380603435125e+06 -5.012421602281e+07 6.648232417385e-04 2.490092831063e-09 6.507519349834e-04 -2.289192165198e-03 2.022696564810e+07 4.484622564882e+07  2.947004948954e-03
9.200000000000e+01 2.205892076685e-05 -3.000000000000e-04 -5.198787764234e+06 -2.184013761440e+03 -5.446864848762e+06 -5.528610378463e+07 7.514674156694e-04 1.422747225689e-07 7.344373565865e-04 -2.546287898648e-03 2.197725213254e+07 4.996373952524e+07  3.289273358799e-03
9.920000000000e+01 2.457212562002e-05 -3.300000000000e-04 -5.221913141735e+06 -1.391226680054e+03 -5.517530286039e+06 -6.043507403958e+07 8.383700812773e-04 2.784860882853e-07 8.181063689477e-04 -2.803911974833e-03 2.372483915579e+07 5.506594750553e+07  3.632192625833e-03
1.064000000000e+02 2.708481875181e-05 -3.600000000000e-04 -5.245573774314e+06 -6.775589914204e+02 -5.592648738173e+06 -6.556994645975e+07 9.255294821261e-04 4.031054164266e-07 9.017586837973e-04 -3.062068404372e-03 2.546938965741e+07 6.015158620377e+07  3.975765845414e-03
1.136000000000e+02 2.959695878243e-05 -3.900000000000e-04 -5.269888982480e+06 -8.041030410776e+01 -5.672290770519e+06 -7.068960199162e+07 1.012944828269e-03 5.113971325463e-07 9.853933462928e-04 -3.320762506715e-03 2.721059391487e+07 6.521944317402e+07  4.319997578067e-03
1.208000000000e+02 3.210849577598e-05 -4.200000000000e-04 -5.294971723972e+06 3.859766587035e+02 -5.756543903667e+06 -7.579297828118e+07 1.100616650888e-03 6.015857810159e-07 1.069009000306e-03 -3.580001523776e-03 2.894816463627e+07 7.026835745422e+07  4.664894777218e-03
1.280000000000e+02 3.461938098576e-05 -4.500000000000e-04 -5.320924470955e+06 7.231436472998e+02 -5.845504164782e+06 -8.087906123288e+07 1.188546896172e-03 6.739166453925e-07 1.152604243683e-03 -3.839794892591e-03 3.068182995621e+07 7.529721742607e+07  5.010467287576e-03
1.352000000000e+02 3.712956813628e-05 -4.800000000000e-04 -5.347835417795e+06 9.412787276475e+02 -5.939272648976e+06 -8.594687801411e+07 1.276739033275e-03 7.297525085862e-07 1.236177683796e-03 -4.100154274652e-03 3.241132869363e+07 8.030495746534e+07  5.356727958086e-03
1.424000000000e+02 3.963900694374e-05 -5.100000000000e-04 -5.375775054346e+06 1.054284518133e+03 -6.037953151845e+06 -9.099547985706e+07 1.365197950835e-03 7.709623686514e-07 1.319727729061e-03 -4.361092927969e-03 3.413640268775e+07 8.529054367535e+07  5.703691860250e-03
1.496000000000e+02 4.214764625026e-05 -5.400000000000e-04 -5.404795785119e+06 1.076977983321e+03 -6.141644030816e+06 -9.602392332108e+07 1.453929572086e-03 7.995657942061e-07 1.403252705378e-03 -4.622625030560e-03 3.585678771234e+07 9.025295939216e+07  6.051375476206e-03
1.568000000000e+02 4.465544228397e-05 -5.700000000000e-04 -5.434934769995e+06 1.023930319039e+03 -6.250424315375e+06 -1.010312420408e+08 1.542940011061e-03 8.175667056262e-07 1.486751153331e-03 -4.884764471301e-03 3.757220037541e+07 9.519118237007e+07  6.399795210229e-03
1.640000000000e+02 4.716236542705e-05 -6.000000000000e-04 -5.466217017557e+06 9.094383623276e+02 -6.364336073375e+06 -1.060164077283e+08 1.632234363479e-03 8.269346142174e-07 1.570222081762e-03 -5.147522889518e-03 3.928232027306e+07 1.001041529105e+08  6.748964940446e-03
1.712000000000e+02 4.966840021542e-05 -6.300000000000e-04 -5.498656804800e+06 7.484750555609e+02 -6.483370214484e+06 -1.109782942470e+08 1.721815562437e-03 8.297254188376e-07 1.653664984329e-03 -5.410907500680e-03 4.098677375542e+07 1.049907441810e+08  7.098893270188e-03
1.784000000000e+02 5.217353538935e-05 -6.600000000000e-04 -5.532258074642e+06 5.583190294963e+02 -6.607461952825e+06 -1.159156556418e+08 1.811683612656e-03 8.282993582396e-07 1.737079515707e-03 -5.674919265701e-03 4.268512522308e+07 1.098497422192e+08  7.449581145326e-03
1.856000000000e+02 5.467775336466e-05 -6.900000000000e-04 -5.567014982347e+06 3.600064784824e+02 -6.736500571621e+06 -1.208271467917e+08 1.901835812585e-03 8.255311736056e-07 1.820465144306e-03 -5.939553009565e-03 4.437688744856e+07 1.146798614338e+08  7.801021910084e-03
1.928000000000e+02 5.718102314918e-05 -7.200000000000e-04 -5.602913442304e+06 1.775566898189e+02 -6.870374715408e+06 -1.257114508328e+08 1.992269570177e-03 8.247716336039e-07 1.903820866342e-03 -6.204802831260e-03 4.606157966350e+07 1.194798488974e+08  8.153208002940e-03
2.000000000000e+02 5.968329917889e-05 -7.499999999998e-04 -5.639932600854e+06 3.598906889041e+01 -7.009000724755e+06 -1.305673619085e+08 2.082984318035e-03 8.296245917176e-07 1.987145131616e-03 -6.470665926399e-03 4.773876507802e+07 1.242485524249e+08  8.506135717131e-03
2.072000000000e+02 6.218452422466e-05 -7.800000000000e-04 -5.678044633242e+06 -4.070244714018e+01 -7.152315734349e+06 -1.353937722976e+08 2.173981220756e-03 8.436642524425e-07 2.070435954974e-03 -6.737142083420e-03 4.940804422172e+07 1.289849112498e+08  8.859804606686e-03
2.144000000000e+02 6.468462420676e-05 -8.100000000000e-04 -5.717215733740e+06 -3.042195055416e+01 -7.300274567647e+06 -1.401896573873e+08 2.265262797582e-03 8.703127794968e-07 2.153690756680e-03 -7.004232828845e-03 5.106904922956e+07 1.336879420623e+08  9.214216364717e-03
2.216000000000e+02 6.718350186199e-05 -8.400000000000e-04 -5.757406869728e+06 8.743544060638e+01 -7.452852127000e+06 -1.449540757063e+08 2.356832902370e-03 9.129063812554e-07 2.236906146366e-03 -7.271941213419e-03 5.272144490101e+07 1.383567375224e+08  9.569374496584e-03
2.288000000000e+02 6.968103707734e-05 -8.700000000000e-04 -5.798577552125e+06 3.380222407689e+02 -7.610029529424e+06 -1.496861271453e+08 2.448695390412e-03 9.755775686343e-07 2.320077897301e-03 -7.540269402346e-03 5.436491140896e+07 1.429904294011e+08  9.925281221978e-03
2.360000000000e+02 7.217708723395e-05 -9.000000000000e-04 -5.840686407061e+06 7.524816277845e+02 -7.771785768738e+06 -1.543849278282e+08 2.540853458006e-03 1.063478936611e-06 2.403200957064e-03 -7.809217408799e-03 5.599913333466e+07 1.475881672629e+08  1.028193587862e-02
2.432000000000e+02 7.467149710674e-05 -9.300000000000e-04 -5.883688988708e+06 1.363805330356e+03 -7.938090629094e+06 -1.590496090362e+08 2.633309652746e-03 1.182194169558e-06 2.486269815524e-03 -8.078783315232e-03 5.762379621801e+07 1.521491219767e+08  1.063933532956e-02
2.504000000000e+02 7.716410383112e-05 -9.600000000000e-04 -5.927537834769e+06 2.205892315821e+03 -8.108899822854e+06 -1.636793126626e+08 2.726065625460e-03 1.337651921429e-06 2.569278665495e-03 -8.348962945604e-03 5.923858344007e+07 1.566724835154e+08  1.099747358749e-02
2.576000000000e+02 7.965473400355e-05 -9.900000000000e-04 -5.972183801648e+06 3.315063307727e+03 -8.284158424045e+06 -1.682731923466e+08 2.819122104503e-03 1.536437542306e-06 2.652221270765e-03 -8.619749790428e-03 6.084317819076e+07 1.611574597137e+08  1.135634166193e-02
2.648000000000e+02 8.214319614245e-05 -1.020000000000e-03 -6.017576826624e+06 4.731592721621e+03 -8.463811498298e+06 -1.728304225473e+08 2.912479338848e-03 1.786131674414e-06 2.735090674039e-03 -8.891135666689e-03 6.243727029073e+07 1.656032797434e+08  1.171592830306e-02
2.720000000000e+02 8.462928895078e-05 -1.050000000000e-03 -6.063667894473e+06 6.501086851400e+03 -8.647817710327e+06 -1.773502342569e+08 3.006138276894e-03 2.095639746828e-06 2.817879439534e-03 -9.163113464738e-03 6.402057328724e+07 1.700092221745e+08  1.207622347142e-02
2.792000000000e+02 8.711280321744e-05 -1.080000000000e-03 -6.110412700281e+06 8.673987306775e+03 -8.836161227704e+06 -1.818319298372e+08 3.100101381725e-03 2.475199410495e-06 2.900579718405e-03 -9.435679112589e-03 6.559283458838e+07 1.743746221474e+08  1.243722075467e-02
2.864000000000e+02 8.959352121183e-05 -1.110000000000e-03 -6.157776897835e+06 1.130262751921e+04 -9.028853217554e+06 -1.862748641282e+08 3.194372527028e-03 2.935910890024e-06 2.983183287808e-03 -9.708831788092e-03 6.715383141454e+07 1.786988491035e+08  1.279891754987e-02
2.936000000000e+02 9.207121766888e-05 -1.140000000000e-03 -6.205740407576e+06 1.443739861994e+04 -9.225923706803e+06 -1.906784096927e+08 3.288956249183e-03 3.489045397778e-06 3.065681667478e-03 -9.982572856222e-03 6.870335793568e+07 1.829812738252e+08  1.316131367855e-02
3.008000000000e+02 9.454565937671e-05 -1.170000000000e-03 -6.254298203794e+06 1.812425576241e+04 -9.427415477691e+06 -1.950419388058e+08 3.383857302284e-03 4.145568853421e-06 3.148066156958e-03 -1.025690508433e-02 7.024121749575e+07 1.872212530117e+08  1.352441039466e-02
3.080000000000e+02 9.701661135093e-05 -1.200000000000e-03 -6.303457831887e+06 2.240385233604e+04 -9.633382178394e+06 -1.993648353661e+08 3.479080955985e-03 4.915964208836e-06 3.230328051479e-03 -1.053183328206e-02 7.176722512544e+07 1.914181433823e+08  1.388821128446e-02
3.152000000000e+02 9.948384506067e-05 -1.230000000000e-03 -6.353235017917e+06 2.731120832121e+04 -9.843887787290e+06 -2.036465153848e+08 3.574633621652e-03 5.810144645340e-06 3.312458914678e-03 -1.080736550163e-02 7.328121272999e+07 1.955713246795e+08  1.425272392305e-02
3.224000000000e+02 1.019471396109e-04 -1.260000000000e-03 -6.403648257537e+06 3.287540712671e+04 -1.005900467022e+07 -2.078864331033e+08 3.670523242421e-03 6.837350829892e-06 3.394450622680e-03 -1.108351344795e-02 7.478302867702e+07 1.996802095163e+08  1.461796050889e-02
3.296000000000e+02 1.044062798031e-04 -1.290000000000e-03 -6.454713775548e+06 3.911961870359e+04 -1.027880993557e+07 -2.120840777799e+08 3.766759417186e-03 8.006107671574e-06 3.476295303724e-03 -1.136029227782e-02 7.627253383034e+07 2.037442445372e+08  1.498393770068e-02
3.368000000000e+02 1.068610565735e-04 -1.320000000000e-03 -6.506442196157e+06 4.606174550611e+04 -1.050338020694e+07 -2.162389682727e+08 3.863353305901e-03 9.324320751802e-06 3.557985348827e-03 -1.163772017131e-02 7.774959689193e+07 2.077629092677e+08  1.535067614875e-02
3.440000000000e+02 1.093112675037e-04 -1.350000000000e-03 -6.558837258760e+06 5.371549465751e+04 -1.073278592087e+07 -2.203506441217e+08 3.960317297546e-03 1.079946267650e-05 3.639513420631e-03 -1.191581758915e-02 7.921408910045e+07 2.117357106371e+08  1.571819958937e-02
3.512000000000e+02 1.117567137112e-04 -1.380000000000e-03 -6.611895329261e+06 6.209130343351e+04 -1.096708779882e+07 -2.244186566950e+08 4.057664663364e-03 1.243874488152e-05 3.720872339590e-03 -1.219460643615e-02 8.066587994102e+07 2.156621760929e+08  1.608653377762e-02
3.584000000000e+02 1.141972017722e-04 -1.410000000000e-03 -6.665605074571e+06 7.119662785946e+04 -1.120633822354e+07 -2.284425807089e+08 4.155409791038e-03 1.424920037853e-05 3.802055131717e-03 -1.247411055017e-02 8.210484133566e+07 2.195418646203e+08  1.645570712301e-02
3.656000000000e+02 1.166325478206e-04 -1.440000000000e-03 -6.719947479732e+06 8.103587803171e+04 -1.145058012635e+07 -2.324220197514e+08 4.253568243971e-03 1.623769581288e-05 3.883055155122e-03 -1.275435594194e-02 8.353084911916e+07 2.233743727958e+08  1.682575102413e-02
3.728000000000e+02 1.190625817352e-04 -1.470000000000e-03 -6.774896063678e+06 9.161070071176e+04 -1.169984271851e+07 -2.363566015193e+08 4.352156507133e-03 1.841099004607e-05 3.963866237099e-03 -1.303537043249e-02 8.494378010048e+07 2.271593319781e+08  1.719669944417e-02
3.800000000000e+02 1.214871454725e-04 -1.500000000000e-03 -6.830417374677e+06 1.029201340669e+05 -1.195413916110e+07 -2.402459702767e+08 4.451191672262e-03 2.077576312468e-05 4.044482615438e-03 -1.331718299527e-02 8.634350893751e+07 2.308964016296e+08  1.756858806442e-02
3.872000000000e+02 1.239060898701e-04 -1.530000000000e-03 -6.886471364031e+06 1.149607264376e+05 -1.221346440699e+07 -2.440897780084e+08 4.550691078187e-03 2.333863898763e-05 4.124898829467e-03 -1.359982294849e-02 8.772990459313e+07 2.345852613050e+08  1.794145324005e-02
3.944000000000e+02 1.263192803468e-04 -1.560000000000e-03 -6.943011851138e+06 1.277266014472e+05 -1.247779175765e+07 -2.478876829139e+08 4.650672073998e-03 2.610619746233e-05 4.205109908134e-03 -1.388331969611e-02 8.910282884088e+07 2.382256105468e+08  1.831533171044e-02
4.016000000000e+02 1.287266087215e-04 -1.590000000000e-03 -6.999987421663e+06 1.412102247593e+05 -1.274706987438e+07 -2.516393549166e+08 4.751151925414e-03 2.908508736450e-05 4.285111754374e-03 -1.416770298042e-02 9.046213740422e+07 2.418171753409e+08  1.869026098907e-02
4.088000000000e+02 1.311279892533e-04 -1.620000000000e-03 -7.057342912560e+06 1.554032687577e+05 -1.302125124098e+07 -2.553445515816e+08 4.852150468266e-03 3.228216262387e-05 4.364900991643e-03 -1.445300808106e-02 9.180771524504e+07 2.453597695021e+08  1.906628586490e-02
4.160000000000e+02 1.335233045464e-04 -1.650000000000e-03 -7.115016972882e+06 1.702909954659e+05 -1.330028371821e+07 -2.590030336608e+08 4.953687899615e-03 3.570366721309e-05 4.444473209762e-03 -1.473926950306e-02 9.313944478398e+07 2.488532155702e+08  1.944345010340e-02
4.232000000000e+02 1.359124304600e-04 -1.680000000000e-03 -7.172943364147e+06 1.858551642947e+05 -1.358409796477e+07 -2.626145598844e+08 5.055784087256e-03 3.935563524735e-05 4.523823777961e-03 -1.502652049002e-02 9.445720040443e+07 2.522973449826e+08  1.982179599706e-02
4.304000000000e+02 1.382952575995e-04 -1.710000000000e-03 -7.231053635789e+06 2.020772385925e+05 -1.387263637944e+07 -2.661789941330e+08 5.158462140334e-03 4.324436233569e-05 4.602948521628e-03 -1.531480095260e-02 9.576089471609e+07 2.556920899082e+08  2.020137447824e-02
4.376000000000e+02 1.406716907323e-04 -1.740000000000e-03 -7.289277063057e+06 2.189372279262e+05 -1.416584316655e+07 -2.696962745588e+08 5.261747454147e-03 4.737622996971e-05 4.681843715312e-03 -1.560415555505e-02 9.705046492946e+07 2.590374571994e+08  2.058224271279e-02
4.448000000000e+02 1.430416549755e-04 -1.769999999999e-03 -7.347540816464e+06 2.364136763110e+05 -1.446365842678e+07 -2.731664017292e+08 5.365667323858e-03 5.175770209472e-05 4.760506296249e-03 -1.589463316362e-02 9.832586699080e+07 2.623335192913e+08  2.096446345548e-02
4.520000000000e+02 1.454050902554e-04 -1.800000000000e-03 -7.405769297278e+06 2.544831719821e+05 -1.476601102742e+07 -2.765894114103e+08 5.470250082613e-03 5.639521204684e-05 4.838933693533e-03 -1.618628487624e-02 9.958706391165e+07 2.655803907461e+08  2.134810255307e-02
4.592000000000e+02 1.477619434663e-04 -1.830000000000e-03 -7.463884013371e+06 2.731201688807e+05 -1.507281158101e+07 -2.799653463090e+08 5.575524058979e-03 6.129512500318e-05 4.917123585056e-03 -1.647916168492e-02 1.008340139678e+08 2.687782034079e+08  2.173322594962e-02
4.664000000000e+02 1.501121603686e-04 -1.860000000000e-03 -7.521802824097e+06 2.922961419799e+05 -1.538394499996e+07 -2.832942288994e+08 5.681516476370e-03 6.646354860513e-05 4.995073652057e-03 -1.677331194227e-02 1.020666589078e+08 2.719270831531e+08  2.211989646070e-02
4.736000000000e+02 1.524556885111e-04 -1.890000000000e-03 -7.579439729033e+06 3.119799551725e+05 -1.569926765439e+07 -2.865760593543e+08 5.788253085241e-03 7.190633139381e-05 5.072781685697e-03 -1.706878066478e-02 1.032849222459e+08 2.750271492403e+08  2.250817293358e-02
4.808000000000e+02 1.547924790566e-04 -1.920000000000e-03 -7.636705729334e+06 3.321387170933e+05 -1.601861503131e+07 -2.898108411510e+08 5.895758853536e-03 7.762918382463e-05 5.150245635434e-03 -1.736561099041e-02 1.044887206372e+08 2.780785357456e+08  2.289811208715e-02
4.880000000000e+02 1.571224911478e-04 -1.950000000000e-03 -7.693509384016e+06 3.527384150443e+05 -1.634180751515e+07 -2.929986026263e+08 6.004058617615e-03 8.363773504067e-05 5.227463747923e-03 -1.766384560387e-02 1.056779731752e+08 2.810814100204e+08  2.328977034336e-02
4.952000000000e+02 1.594456937778e-04 -1.980000000000e-03 -7.749757482218e+06 3.737446003976e+05 -1.666865307801e+07 -2.961394056908e+08 6.113177278514e-03 8.993761684783e-05 5.304434625380e-03 -1.796352720027e-02 1.068526054170e+08 2.840359797356e+08  2.368320442220e-02
5.024000000000e+02 1.617620674037e-04 -2.010000000000e-03 -7.805355348064e+06 3.951225888377e+05 -1.699894917371e+07 -2.992333514442e+08 6.223139932732e-03 9.653447745911e-05 5.381157275532e-03 -1.826469878017e-02 1.080125519887e+08 2.869424974034e+08  2.407847172957e-02
5.096000000000e+02 1.640716028365e-04 -2.040000000000e-03 -7.860207087318e+06 4.168375135458e+05 -1.733248258642e+07 -3.022805765099e+08 6.333971653178e-03 1.034339590750e-04 5.457631074053e-03 -1.856740315532e-02 1.091577553946e+08 2.898012566275e+08  2.447562973031e-02
5.168000000000e+02 1.663743054768e-04 -2.070000000000e-03 -7.914216033869e+06 4.388545172193e+05 -1.766902941175e+07 -3.052812538093e+08 6.445697414848e-03 1.106417031809e-04 5.533855905846e-03 -1.887168294067e-02 1.102881664183e+08 2.926125926220e+08  2.487473596756e-02
5.240000000000e+02 1.686701953046e-04 -2.100000000000e-03 -7.967284990531e+06 4.611387542760e+05 -1.800835498544e+07 -3.082355888668e+08 6.558341887771e-03 1.181633052088e-04 5.609832166430e-03 -1.917758011659e-02 1.114037429476e+08 2.953768783939e+08  2.527584751492e-02
5.312000000000e+02 1.709593065327e-04 -2.130000000000e-03 -8.019316951852e+06 4.836557853682e+05 -1.835021461957e+07 -3.111438173436e+08 6.671929243294e-03 1.260043631316e-04 5.685560750385e-03 -1.948513566576e-02 1.125044496383e+08 2.980945215179e+08  2.567902050441e-02
5.384000000000e+02 1.732416834119e-04 -2.160000000000e-03 -8.070215029622e+06 5.063713565209e+05 -1.869435396027e+07 -3.140061989069e+08 6.786482889744e-03 1.341703724060e-04 5.761042914610e-03 -1.979438884208e-02 1.135902559656e+08 3.007659578447e+08  2.608430918742e-02
5.456000000000e+02 1.755173840330e-04 -2.190000000000e-03 -8.119883672989e+06 5.292520183283e+05 -1.904051051124e+07 -3.168230197114e+08 6.902025424749e-03 1.426668320922e-04 5.836280403889e-03 -2.010537731249e-02 1.146611379652e+08 3.033916525897e+08  2.649176610840e-02
5.528000000000e+02 1.777864800345e-04 -2.220000000000e-03 -8.168227937506e+06 5.522645552774e+05 -1.938841504176e+07 -3.195945927812e+08 7.018578732181e-03 1.514990642321e-04 5.911275443701e-03 -2.041813717337e-02 1.157170785868e+08 3.059721004014e+08  2.690144216221e-02
5.600000000000e+02 1.800490521321e-04 -2.250000000000e-03 -8.215155100192e+06 5.753768020689e+05 -1.973779511428e+07 -3.223212587732e+08 7.136163941709e-03 1.606723687088e-04 5.986030586699e-03 -2.073270289353e-02 1.167580696625e+08 3.085078235864e+08  2.731338644202e-02
5.672000000000e+02 1.823051849831e-04 -2.280000000000e-03 -8.260574485533e+06 5.985573879099e+05 -2.008837657289e+07 -3.250033824519e+08 7.254801346504e-03 1.701919185552e-04 6.060548543079e-03 -2.104910690171e-02 1.177841111701e+08 3.109993679548e+08  2.772764569840e-02
5.744000000000e+02 1.845549686435e-04 -2.310000000000e-03 -8.304397926062e+06 6.217758846126e+05 -2.043988466665e+07 -3.276413525341e+08 7.374510376379e-03 1.800627613309e-04 6.134832229555e-03 -2.136737960408e-02 1.187952117089e+08 3.134473018772e+08  2.814426436138e-02
5.816000000000e+02 1.867985005043e-04 -2.340000000000e-03 -8.346540149746e+06 6.450028721554e+05 -2.079204501302e+07 -3.302355813020e+08 7.495309572800e-03 1.902898010702e-04 6.208884834898e-03 -2.168754941609e-02 1.197913888216e+08 3.158522152277e+08  2.856328458477e-02
5.888000000000e+02 1.890358890868e-04 -2.370000000000e-03 -8.386919120795e+06 6.682100610022e+05 -2.114458481139e+07 -3.327865060637e+08 7.617216671604e-03 2.008778025665e-04 6.282709946150e-03 -2.200964306848e-02 1.207726699986e+08 3.182147200811e+08  2.898474664985e-02
5.960000000000e+02 1.912672503643e-04 -2.400000000000e-03 -8.425456321078e+06 6.913703069514e+05 -2.149723360878e+07 -3.352945841176e+08 7.740248397465e-03 2.118313605963e-04 6.356311427243e-03 -2.233368509060e-02 1.217390913491e+08 3.205354451630e+08  2.940868827683e-02
6.032000000000e+02 1.934927090937e-04 -2.430000000000e-03 -8.462076981875e+06 7.144576494080e+05 -2.184972492301e+07 -3.377602939664e+08 7.864420583552e-03 2.231548855993e-04 6.429693462247e-03 -2.265969810095e-02 1.226906986238e+08 3.228150361727e+08  2.983514499306e-02
6.104000000000e+02 1.957123964128e-04 -2.460000000000e-03 -8.496710309515e+06 7.374473789117e+05 -2.220179781793e+07 -3.401841340551e+08 7.989748193364e-03 2.348526062084e-04 6.502860474274e-03 -2.298770278824e-02 1.236275473942e+08 3.250541536615e+08  3.026415008246e-02
6.176000000000e+02 1.979264508498e-04 -2.490000000000e-03 -8.529289726330e+06 7.603160247112e+05 -2.255319825223e+07 -3.425666232268e+08 8.116245427820e-03 2.469285446044e-04 6.575817157667e-03 -2.331771817942e-02 1.245497037351e+08 3.272534727311e+08  3.069573491955e-02
6.248000000000e+02 2.001350178690e-04 -2.520000000000e-03 -8.559752924444e+06 7.830413806709e+05 -2.290367869669e+07 -3.449082954683e+08 8.243925501623e-03 2.593865023520e-04 6.648568463985e-03 -2.364976118623e-02 1.254572423631e+08 3.294136779363e+08  3.112992838379e-02
6.320000000000e+02 2.023382474997e-04 -2.550000000000e-03 -8.588042029699e+06 8.056025083344e+05 -2.325299900232e+07 -3.472096974353e+08 8.372800589975e-03 2.722300409332e-04 6.721119522459e-03 -2.398384644293e-02 1.263502461558e+08 3.315354603241e+08  3.156675662518e-02
6.392000000000e+02 2.045362955688e-04 -2.580000000000e-03 -8.614103665002e+06 8.279797572011e+05 -2.360092724049e+07 -3.494713884252e+08 8.502881911076e-03 2.854624778218e-04 6.793475679450e-03 -2.431998652542e-02 1.272288064436e+08 3.336195169879e+08  3.200624333935e-02
6.464000000000e+02 2.067293188023e-04 -2.610000000000e-03 -8.637889043218e+06 8.501547492211e+05 -2.394724047049e+07 -3.516939368917e+08 8.634179633088e-03 2.990868645963e-04 6.865642334292e-03 -2.465819162451e-02 1.280930221351e+08 3.356665471864e+08  3.244840930853e-02
6.536000000000e+02 2.089174757601e-04 -2.640000000000e-03 -8.659354015286e+06 8.721104068400e+05 -2.429172582333e+07 -3.538779216426e+08 8.766703051460e-03 3.131059935219e-04 6.937624967749e-03 -2.499846994934e-02 1.289430004938e+08 3.376772530221e+08  3.289327290756e-02
6.608000000000e+02 2.111009243136e-04 -2.670000000000e-03 -8.678459115857e+06 8.938309483516e+05 -2.463418103824e+07 -3.560239297551e+08 8.900460576191e-03 3.275223853481e-04 7.009429055960e-03 -2.534082764376e-02 1.297788566364e+08 3.396523370985e+08  3.334084996808e-02
6.680000000000e+02 2.132798199618e-04 -2.700000000001e-03 -8.695169524403e+06 9.153018665779e+05 -2.497441505122e+07 -3.581325555863e+08 9.035459799022e-03 3.423382801864e-04 7.081060012536e-03 -2.568526887556e-02 1.306007133873e+08 3.415925012955e+08  3.379115387206e-02
6.752000000000e+02 2.154543139484e-04 -2.730000000000e-03 -8.709455276213e+06 9.365100420078e+05 -2.531224851681e+07 -3.602043995451e+08 9.171707508630e-03 3.575556754960e-04 7.152523122806e-03 -2.603179587407e-02 1.314087011127e+08 3.434984452051e+08  3.424419556401e-02
6.824000000000e+02 2.176245530595e-04 -2.760000000000e-03 -8.721290797179e+06 9.574435104776e+05 -2.564751414587e+07 -3.622400681704e+08 9.309209885408e-03 3.731762503141e-04 7.223823535527e-03 -2.638040925017e-02 1.322029577045e+08 3.453708663202e+08  3.469998396592e-02
6.896000000000e+02 2.197906777857e-04 -2.790000000000e-03 -8.730655342450e+06 9.780916810821e+05 -2.598005706898e+07 -3.642401727898e+08 9.447972478979e-03 3.892014500509e-04 7.294966198396e-03 -2.673110801581e-02 1.329836284004e+08 3.472104583124e+08  3.515852595414e-02
6.968000000000e+02 2.219528226687e-04 -2.820000000000e-03 -8.737532590994e+06 9.984451549694e+05 -2.630973464396e+07 -3.662053287066e+08 9.588000320479e-03 4.056324340801e-04 7.365955868454e-03 -2.708388978093e-02 1.337508653138e+08 3.490179105463e+08  3.561982661701e-02
7.040000000000e+02 2.241111151297e-04 -2.850000000000e-03 -8.741910714162e+06 1.018495738011e+06 -2.663641673409e+07 -3.681361547964e+08 9.729298017488e-03 4.224700990800e-04 7.436797070499e-03 -2.743875096625e-02 1.345048274149e+08 3.507939075320e+08  3.608388949809e-02
7.112000000000e+02 2.262656755257e-04 -2.880000000000e-03 -8.743782180100e+06 1.038236366677e+06 -2.695998500514e+07 -3.700332712263e+08 9.871869709371e-03 4.397150674794e-04 7.507494098725e-03 -2.779568673015e-02 1.352456794705e+08 3.525391270964e+08  3.655071649662e-02
7.184000000000e+02 2.284166180282e-04 -2.910000000000e-03 -8.743143653105e+06 1.057661040339e+06 -2.728033310650e+07 -3.718973002081e+08 1.001571925389e-02 4.573676922847e-04 7.578051043333e-03 -2.815469140609e-02 1.359735923226e+08 3.542542411260e+08  3.702030841612e-02
7.256000000000e+02 2.305640493335e-04 -2.940000000000e-03 -8.739995802400e+06 1.076764723518e+06 -2.759736566317e+07 -3.737288625344e+08 1.016085007502e-02 4.754280330986e-04 7.648471748430e-03 -2.851575817681e-02 1.366887413333e+08 3.559399126933e+08  3.749266453384e-02