<?xml version="1.0"?>
<!-- Time step: 500 | Time: 1.000000000000e+00 -->
<VTKFile type="UnstructuredGrid" version="0.1" byte_order="LittleEndian">
  <UnstructuredGrid>
    <Piece NumberOfPoints="11" NumberOfCells="10">
      <Points>
        <DataArray type="Float64" NumberOfComponents="3" format="ascii">
          0.000000000000e+00 0.000000000000e+00 0.000000000000e+00
          1.000000000000e-02 0.000000000000e+00 0.000000000000e+00
          2.000000000000e-02 0.000000000000e+00 0.000000000000e+00
          3.000000000000e-02 0.000000000000e+00 0.000000000000e+00
          4.000000000000e-02 0.000000000000e+00 0.000000000000e+00
          5.000000000000e-02 0.000000000000e+00 0.000000000000e+00
          6.000000000000e-02 0.000000000000e+00 0.000000000000e+00
          7.000000000000e-02 0.000000000000e+00 0.000000000000e+00
          8.000000000000e-02 0.000000000000e+00 0.000000000000e+00
          9.000000000000e-02 0.000000000000e+00 0.000000000000e+00
          1.000000000000e-01 0.000000000000e+00 0.000000000000e+00
        </DataArray>
      </Points>
      <Cells>
        <DataArray type="Int64" Name="connectivity" format="ascii">
          0 1 
          1 2 
          2 3 
          3 4 
          4 5 
          5 6 
          6 7 
          7 8 
          8 9 
          9 10 
        </DataArray>
        <DataArray type="Int64" Name="offsets" format="ascii">
          2 4 6 8 10 12 14 16 18 20 
        </DataArray>
        <DataArray type="UInt8" Name="types" format="ascii">
          3 3 3 3 3 3 3 3 3 3 
        </DataArray>
      </Cells>
      <PointData Scalars="PRESSURE1">
        <DataArray type="Float64" Name="PRESSURE1" format="ascii">
          6.920823058205e+04 6.920820613290e+04 6.920818957498e+04 6.920817924846e+04 6.920817327139e+04 6.920817005386e+04 6.920816845118e+04 6.920816771976e+04 6.920816741796e+04 6.920816730879e+04 6.920816728271e+04 
        </DataArray>
        <DataArray type="Float64" Name="TEMPERATURE1" format="ascii">
          5.350829822850e+02 5.350829788802e+02 5.350829707151e+02 5.350829616859e+02 5.350829544906e+02 5.350829498353e+02 5.350829472532e+02 5.350829459949e+02 5.350829454526e+02 5.350829452499e+02 5.350829452004e+02 
        </DataArray>
        <DataArray type="Float64" Name="TEMPERATURE2" format="ascii">
          5.349842070482e+02 5.349842051531e+02 5.349842004075e+02 5.349841948411e+02 5.349841901565e+02 5.349841870250e+02 5.349841852880e+02 5.349841844710e+02 5.349841841424e+02 5.349841840307e+02 5.349841840057e+02 
        </DataArray>
        <DataArray type="Float64" Name="CONCENTRATION1" format="ascii">
          0.000000000000e+00 0.000000000000e+00 0.000000000000e+00 0.000000000000e+00 0.000000000000e+00 0.000000000000e+00 0.000000000000e+00 0.000000000000e+00 0.000000000000e+00 0.000000000000e+00 0.000000000000e+00 
        </DataArray>
      </PointData>
      <CellData>
      </CellData>
    </Piece>
  </UnstructuredGrid>
</VTKFile>
