 TITLE = "Time curves in points"
 VARIABLES = "TIME "  "Tracer" 
 ZONE T="POINT=POINT8"
0.000000000000e+00 0.000000000000e+00 
2.160000000000e+04 0.000000000000e+00 
4.320000000000e+04 7.955078207696e-25 
6.480000000000e+04 4.469730049941e-23 
8.640000000000e+04 9.274118979757e-22 
1.080000000000e+05 1.172477225603e-20 
1.296000000000e+05 1.082779926885e-19 
1.512000000000e+05 7.972243015073e-19 
1.728000000000e+05 4.935438048925e-18 
1.944000000000e+05 2.657711579490e-17 
2.160000000000e+05 1.271840725142e-16 
2.376000000000e+05 5.501462971577e-16 
2.592000000000e+05 2.176750172720e-15 
2.808000000000e+05 7.952385019581e-15 
3.024000000000e+05 2.703211074051e-14 
3.240000000000e+05 8.604891032673e-14 
3.456000000000e+05 2.579132766898e-13 
3.672000000000e+05 7.313626201290e-13 
3.888000000000e+05 1.970275551951e-12 
4.104000000000e+05 5.061271790123e-12 
4.320000000000e+05 1.243827225032e-11 
4.536000000000e+05 2.933020124303e-11 
4.752000000000e+05 6.654032556135e-11 
4.968000000000e+05 1.455872020697e-10 
5.184000000000e+05 3.078863019825e-10 
5.400000000000e+05 6.306164854801e-10 
5.616000000000e+05 1.253299682335e-09 
5.832000000000e+05 2.421041196325e-09 
6.048000000000e+05 4.552949935488e-09 
6.264000000000e+05 8.347603489505e-09 
6.480000000000e+05 1.494161880545e-08 
6.696000000000e+05 2.614252431175e-08 
6.912000000000e+05 4.476316376008e-08 
7.128000000000e+05 7.509178688811e-08 
7.344000000000e+05 1.235396068168e-07 
7.560000000000e+05 1.995157281153e-07 
7.776000000000e+05 3.165876375609e-07 
7.992000000000e+05 4.939934991696e-07 
8.208000000000e+05 7.585798304754e-07 
8.424000000000e+05 1.147244224774e-06 
8.640000000000e+05 1.709967082283e-06 
8.856000000000e+05 2.513518271318e-06 
9.072000000000e+05 3.645923762920e-06 
9.288000000000e+05 5.221773146381e-06 
9.504000000000e+05 7.388441222341e-06 
9.720000000000e+05 1.033328540172e-05 
9.936000000000e+05 1.429186539837e-05 
1.015200000000e+06 1.955721280507e-05 
1.036800000000e+06 2.649015592411e-05 
1.058400000000e+06 3.553068012653e-05 
1.080000000000e+06 4.721027666341e-05 
1.101600000000e+06 6.216520397610e-05 
1.123200000000e+06 8.115055598054e-05 
1.144800000000e+06 1.050550024125e-04 
1.166400000000e+06 1.349160380258e-04 
1.188000000000e+06 1.719355511287e-04 
1.209600000000e+06 2.174954984671e-04 
1.231200000000e+06 2.731734535832e-04 
1.252800000000e+06 3.407577801526e-04 
1.274400000000e+06 4.222621709581e-04 
1.296000000000e+06 5.199392874845e-04 
1.317600000000e+06 6.362932348343e-04 
1.339200000000e+06 7.740906118562e-04 
1.360800000000e+06 9.363698869572e-04 
1.382400000000e+06 1.126448865806e-03 
1.404000000000e+06 1.347930037684e-03 
1.425600000000e+06 1.604703612120e-03 
1.447200000000e+06 1.900948086059e-03 
1.468800000000e+06 2.241128213582e-03 
1.490400000000e+06 2.629990284338e-03 
1.512000000000e+06 3.072554652682e-03 
1.533600000000e+06 3.574105496302e-03 
1.555200000000e+06 4.140177820077e-03 
1.576800000000e+06 4.776541757433e-03 
1.598400000000e+06 5.489184256750e-03 
1.620000000000e+06 6.284288273994e-03 
1.641600000000e+06 7.168209623970e-03 
1.663200000000e+06 8.147451671168e-03 
1.684800000000e+06 9.228638066506e-03 
1.706400000000e+06 1.041848375825e-02 
1.728000000000e+06 1.172376452362e-02 
1.749600000000e+06 1.315128528223e-02 
1.771200000000e+06 1.470784746288e-02 
1.792800000000e+06 1.640021570237e-02 
1.814400000000e+06 1.823508415782e-02 
1.836000000000e+06 2.021904271345e-02 
1.857600000000e+06 2.235854335891e-02 
1.879200000000e+06 2.465986700899e-02 
1.900800000000e+06 2.712909102443e-02 
1.922400000000e+06 2.977205768096e-02 
1.944000000000e+06 3.259434381853e-02 
1.965600000000e+06 3.560123188590e-02 
1.987200000000e+06 3.879768257684e-02 
2.008800000000e+06 4.218830923483e-02 
2.030400000000e+06 4.577735418139e-02 
2.052000000000e+06 4.956866710261e-02 
2.073600000000e+06 5.356568560568e-02 
2.095200000000e+06 5.777141803583e-02 
2.116800000000e+06 6.218842862191e-02 
2.138400000000e+06 6.681882499779e-02 
2.160000000000e+06 7.166424812581e-02 
2.181600000000e+06 7.672586462867e-02 
2.203200000000e+06 8.200436151741e-02 
2.224800000000e+06 8.749994328510e-02 
2.246400000000e+06 9.321233131962e-02 
2.268000000000e+06 9.914076557348e-02 
2.289600000000e+06 1.052840084150e-01 
2.311200000000e+06 1.116403505726e-01 
2.332800000000e+06 1.182076190736e-01 
2.354400000000e+06 1.249831870684e-01 
2.376000000000e+06 1.319639854242e-01 
2.397600000000e+06 1.391465159650e-01 
2.419200000000e+06 1.465268662295e-01 
2.440800000000e+06 1.541007256153e-01 
2.462400000000e+06 1.618634027740e-01 
2.484000000000e+06 1.698098441221e-01 
2.505600000000e+06 1.779346533295e-01 
2.527200000000e+06 1.862321116531e-01 
2.548800000000e+06 1.946961989775e-01 
2.570400000000e+06 2.033206154351e-01 
2.592000000000e+06 2.120988034754e-01 
2.613600000000e+06 2.210239702599e-01 
2.635200000000e+06 2.300891102642e-01 
2.656800000000e+06 2.392870279711e-01 
2.678400000000e+06 2.486103605492e-01 
2.700000000000e+06 2.580516004103e-01 
2.721600000000e+06 2.676031175538e-01 
2.743200000000e+06 2.772571816040e-01 
2.764800000000e+06 2.870059834601e-01 
2.786400000000e+06 2.968416564809e-01 
2.808000000000e+06 3.067562971341e-01 
2.829600000000e+06 3.167419850486e-01 
2.851200000000e+06 3.267908024119e-01 
2.872800000000e+06 3.368948526637e-01 
2.894400000000e+06 3.470462784410e-01 
2.916000000000e+06 3.572372787397e-01 
2.937600000000e+06 3.674601252590e-01 
2.959200000000e+06 3.777071779046e-01 
2.980800000000e+06 3.879708994305e-01 
3.002400000000e+06 3.982438692053e-01 
3.024000000000e+06 4.085187960918e-01 
3.045600000000e+06 4.187885304368e-01 
3.067200000000e+06 4.290460751694e-01 
3.088800000000e+06 4.392845960113e-01 
3.110400000000e+06 4.494974308074e-01 
3.132000000000e+06 4.596780979861e-01 
3.153600000000e+06 4.698203041642e-01 
3.175200000000e+06 4.799179509127e-01 
3.196800000000e+06 4.899651407036e-01 
3.218400000000e+06 4.999561820580e-01 
3.240000000000e+06 5.098855939215e-01 
3.261600000000e+06 5.197481092896e-01 
3.283200000000e+06 5.295386781130e-01 
3.304800000000e+06 5.392524695086e-01 
3.326400000000e+06 5.488848733075e-01 
3.348000000000e+06 5.584315009689e-01 
3.369600000000e+06 5.678881858915e-01 
3.391200000000e+06 5.772509831535e-01 
3.412800000000e+06 5.865161687121e-01 
3.434400000000e+06 5.956802380953e-01 
3.456000000000e+06 6.047399046166e-01 
3.477600000000e+06 6.136920971446e-01 
3.499200000000e+06 6.225339574582e-01 
3.520800000000e+06 6.312628372182e-01 
3.542400000000e+06 6.398762945855e-01 
3.564000000000e+06 6.483720905155e-01 
3.585600000000e+06 6.567481847572e-01 
3.607200000000e+06 6.650027315848e-01 
3.628800000000e+06 6.731340752900e-01 
3.650400000000e+06 6.811407454597e-01 
3.672000000000e+06 6.890214520665e-01 
3.693600000000e+06 6.967750803939e-01 
3.715200000000e+06 7.044006858217e-01 
3.736800000000e+06 7.118974884927e-01 
3.758400000000e+06 7.192648678826e-01 
3.780000000000e+06 7.265023572928e-01 
3.801600000000e+06 7.336096382861e-01 
3.823200000000e+06 7.405865350823e-01 
3.844800000000e+06 7.474330089319e-01 
3.866400000000e+06 7.541491524836e-01 
3.888000000000e+06 7.607351841602e-01 
3.909600000000e+06 7.671914425575e-01 
3.931200000000e+06 7.735183808791e-01 
3.952800000000e+06 7.797165614191e-01 
3.974400000000e+06 7.857866501037e-01 
3.996000000000e+06 7.917294111029e-01 
4.017600000000e+06 7.975457015202e-01 
4.039200000000e+06 8.032364661696e-01 
4.060800000000e+06 8.088027324487e-01 
4.082400000000e+06 8.142456053123e-01 
4.104000000000e+06 8.195662623549e-01 
4.125600000000e+06 8.247659490072e-01 
4.147200000000e+06 8.298459738498e-01 
4.168800000000e+06 8.348077040506e-01 
4.190400000000e+06 8.396525609275e-01 
4.212000000000e+06 8.443820156400e-01 
4.233600000000e+06 8.489975850129e-01 
4.255200000000e+06 8.535008274920e-01 
4.276800000000e+06 8.578933392349e-01 
4.298400000000e+06 8.621767503376e-01 
4.320000000000e+06 8.663527211962e-01 
4.341600000000e+06 8.704229390049e-01 
4.363200000000e+06 8.743891143898e-01 
4.384800000000e+06 8.782529781775e-01 
4.406400000000e+06 8.820162782981e-01 
4.428000000000e+06 8.856807768205e-01 
4.449600000000e+06 8.892482471194e-01 
4.471200000000e+06 8.927204711722e-01 
4.492800000000e+06 8.960992369828e-01 
4.514400000000e+06 8.993863361313e-01 
4.536000000000e+06 9.025835614470e-01 
4.557600000000e+06 9.056927048014e-01 
4.579200000000e+06 9.087155550203e-01 
4.600800000000e+06 9.116538959099e-01 
4.622400000000e+06 9.145095043961e-01 
4.644000000000e+06 9.172841487735e-01 
4.665600000000e+06 9.199795870598e-01 
4.687200000000e+06 9.225975654549e-01 
4.708800000000e+06 9.251398168994e-01 
4.730400000000e+06 9.276080597303e-01 
4.752000000000e+06 9.300039964315e-01 
4.773600000000e+06 9.323293124737e-01 
4.795200000000e+06 9.345856752432e-01 
4.816800000000e+06 9.367747330540e-01 
4.838400000000e+06 9.388981142426e-01 
4.860000000000e+06 9.409574263388e-01 
4.881600000000e+06 9.429542553139e-01 
4.903200000000e+06 9.448901648985e-01 
4.924800000000e+06 9.467666959713e-01 
4.946400000000e+06 9.485853660119e-01 
4.968000000000e+06 9.503476686179e-01 
4.989600000000e+06 9.520550730815e-01 
5.011200000000e+06 9.537090240231e-01 
5.032800000000e+06 9.553109410799e-01 
5.054400000000e+06 9.568622186461e-01 
5.076000000000e+06 9.583642256617e-01 
5.097600000000e+06 9.598183054484e-01 
5.119200000000e+06 9.612257755899e-01 
5.140800000000e+06 9.625879278524e-01 
5.162400000000e+06 9.639060281461e-01 
5.184000000000e+06 9.651813165226e-01 
5.205600000000e+06 9.664150072071e-01 
5.227200000000e+06 9.676082886641e-01 
5.248800000000e+06 9.687623236922e-01 
5.270400000000e+06 9.698782495492e-01 
5.292000000000e+06 9.709571781024e-01 
5.313600000000e+06 9.720001960046e-01 
5.335200000000e+06 9.730083648929e-01 
5.356800000000e+06 9.739827216084e-01 
5.378400000000e+06 9.749242784366e-01 
5.400000000000e+06 9.758340233650e-01 
5.421600000000e+06 9.767129203574e-01 
5.443200000000e+06 9.775619096443e-01 
5.464800000000e+06 9.783819080260e-01 
5.486400000000e+06 9.791738091889e-01 
5.508000000000e+06 9.799384840330e-01 
5.529600000000e+06 9.806767810092e-01 
5.551200000000e+06 9.813895264658e-01 
5.572800000000e+06 9.820775250028e-01 
5.594400000000e+06 9.827415598335e-01 
5.616000000000e+06 9.833823931511e-01 
5.637600000000e+06 9.840007665012e-01 
5.659200000000e+06 9.845974011579e-01 
5.680800000000e+06 9.851729985034e-01 
5.702400000000e+06 9.857282404106e-01 
5.724000000000e+06 9.862637896264e-01 
5.745600000000e+06 9.867802901575e-01 
5.767200000000e+06 9.872783676559e-01 
5.788800000000e+06 9.877586298045e-01 
5.810400000000e+06 9.882216667023e-01 
5.832000000000e+06 9.886680512483e-01 
5.853600000000e+06 9.890983395235e-01 
5.875200000000e+06 9.895130711715e-01 
5.896800000000e+06 9.899127697761e-01 
5.918400000000e+06 9.902979432362e-01 
5.940000000000e+06 9.906690841373e-01 
5.961600000000e+06 9.910266701197e-01 
5.983200000000e+06 9.913711642428e-01 
6.004800000000e+06 9.917030153450e-01 
6.026400000000e+06 9.920226583997e-01 
6.048000000000e+06 9.923305148664e-01 
6.069600000000e+06 9.926269930367e-01 
6.091200000000e+06 9.929124883760e-01 
6.112800000000e+06 9.931873838598e-01 
6.134400000000e+06 9.934520503040e-01 
6.156000000000e+06 9.937068466910e-01 
6.177600000000e+06 9.939521204895e-01 
6.199200000000e+06 9.941882079685e-01 
6.220800000000e+06 9.944154345065e-01 
6.242400000000e+06 9.946341148939e-01 
6.264000000000e+06 9.948445536301e-01 
6.285600000000e+06 9.950470452151e-01 
6.307200000000e+06 9.952418744343e-01 
6.328800000000e+06 9.954293166384e-01 
6.350400000000e+06 9.956096380166e-01 
6.372000000000e+06 9.957830958643e-01 
6.393600000000e+06 9.959499388450e-01 
6.415200000000e+06 9.961104072461e-01 
6.436800000000e+06 9.962647332289e-01 
6.458400000000e+06 9.964131410728e-01 
6.480000000000e+06 9.965558474141e-01 
6.501600000000e+06 9.966930614785e-01 
6.523200000000e+06 9.968249853083e-01 
6.544800000000e+06 9.969518139840e-01 
6.566400000000e+06 9.970737358402e-01 
6.588000000000e+06 9.971909326764e-01 
6.609600000000e+06 9.973035799618e-01 
6.631200000000e+06 9.974118470353e-01 
6.652800000000e+06 9.975158973000e-01 
6.674400000000e+06 9.976158884129e-01 
6.696000000000e+06 9.977119724688e-01 
6.717600000000e+06 9.978042961800e-01 
6.739200000000e+06 9.978930010504e-01 
6.760800000000e+06 9.979782235453e-01 
6.782400000000e+06 9.980600952565e-01 
6.804000000000e+06 9.981387430620e-01 
6.825600000000e+06 9.982142892819e-01 
6.847200000000e+06 9.982868518299e-01 
6.868800000000e+06 9.983565443596e-01 
6.890400000000e+06 9.984234764076e-01 
6.912000000000e+06 9.984877535313e-01 
6.933600000000e+06 9.985494774438e-01 
6.955200000000e+06 9.986087461436e-01 
6.976800000000e+06 9.986656540413e-01 
6.998400000000e+06 9.987202920821e-01 
7.020000000000e+06 9.987727478645e-01 
7.041600000000e+06 9.988231057554e-01 
7.063200000000e+06 9.988714470020e-01 
7.084800000000e+06 9.989178498398e-01 
7.106400000000e+06 9.989623895972e-01 
7.128000000000e+06 9.990051387973e-01 
7.149600000000e+06 9.990461672559e-01 
7.171200000000e+06 9.990855421768e-01 
7.192800000000e+06 9.991233282438e-01 
7.214400000000e+06 9.991595877101e-01 
7.236000000000e+06 9.991943804842e-01 
7.257600000000e+06 9.992277642135e-01 
7.279200000000e+06 9.992597943654e-01 
7.300800000000e+06 9.992905243049e-01 
7.322400000000e+06 9.993200053704e-01 
7.344000000000e+06 9.993482869465e-01 
7.365600000000e+06 9.993754165349e-01 
7.387200000000e+06 9.994014398225e-01 
7.408800000000e+06 9.994264007473e-01 
7.430400000000e+06 9.994503415621e-01 
7.452000000000e+06 9.994733028962e-01 
7.473600000000e+06 9.994953238149e-01 
7.495200000000e+06 9.995164418765e-01 
7.516800000000e+06 9.995366931886e-01 
7.538400000000e+06 9.995561124610e-01 
7.560000000000e+06 9.995747330575e-01 
7.581600000000e+06 9.995925870461e-01 
7.603200000000e+06 9.996097052470e-01 
7.624800000000e+06 9.996261172793e-01 
7.646400000000e+06 9.996418516057e-01 
7.668000000000e+06 9.996569355756e-01 
7.689600000000e+06 9.996713954675e-01 
7.711200000000e+06 9.996852565287e-01 
7.732800000000e+06 9.996985430145e-01 
7.754400000000e+06 9.997112782255e-01 
7.776000000000e+06 9.997234845440e-01 
7.797600000000e+06 9.997351834684e-01 
7.819200000000e+06 9.997463956474e-01 
7.840800000000e+06 9.997571409118e-01 
7.862400000000e+06 9.997674383061e-01 
7.884000000000e+06 9.997773061185e-01 
7.905600000000e+06 9.997867619098e-01 
7.927200000000e+06 9.997958225414e-01 
7.948800000000e+06 9.998045042022e-01 
7.970400000000e+06 9.998128224345e-01 
7.992000000000e+06 9.998207921589e-01 
8.013600000000e+06 9.998284276987e-01 
8.035200000000e+06 9.998357428026e-01 
8.056800000000e+06 9.998427506672e-01 
8.078400000000e+06 9.998494639585e-01 
8.100000000000e+06 9.998558948326e-01 
8.121600000000e+06 9.998620549556e-01 
8.143200000000e+06 9.998679555226e-01 
8.164800000000e+06 9.998736072764e-01 
8.186400000000e+06 9.998790205249e-01 
8.208000000000e+06 9.998842051586e-01 
8.229600000000e+06 9.998891706668e-01 
8.251200000000e+06 9.998939261532e-01 
8.272800000000e+06 9.998984803516e-01 
8.294400000000e+06 9.999028416402e-01 
8.316000000000e+06 9.999070180557e-01 
8.337600000000e+06 9.999110173070e-01 
8.359200000000e+06 9.999148467881e-01 
8.380800000000e+06 9.999185135906e-01 
8.402400000000e+06 9.999220245158e-01 
8.424000000000e+06 9.999253860863e-01 
8.445600000000e+06 9.999286045570e-01 
8.467200000000e+06 9.999316859261e-01 
8.488800000000e+06 9.999346359450e-01 
8.510400000000e+06 9.999374601286e-01 
8.532000000000e+06 9.999401637644e-01 
8.553600000000e+06 9.999427519218e-01 
8.575200000000e+06 9.999452294612e-01 
8.596800000000e+06 9.999476010419e-01 
8.618400000000e+06 9.999498711306e-01 
8.640000000000e+06 9.999520440089e-01 
8.661600000000e+06 9.999541237811e-01 
8.683200000000e+06 9.999561143811e-01 
8.704800000000e+06 9.999580195795e-01 
8.726400000000e+06 9.999598429903e-01 
8.748000000000e+06 9.999615880770e-01 
8.769600000000e+06 9.999632581588e-01 
8.791200000000e+06 9.999648564167e-01 
8.812800000000e+06 9.999663858991e-01 
8.834400000000e+06 9.999678495267e-01 
8.856000000000e+06 9.999692500987e-01 
8.877600000000e+06 9.999705902968e-01 
8.899200000000e+06 9.999718726905e-01 
8.920800000000e+06 9.999730997418e-01 
8.942400000000e+06 9.999742738094e-01 
8.964000000000e+06 9.999753971528e-01 
8.985600000000e+06 9.999764719368e-01 
9.007200000000e+06 9.999775002353e-01 
9.028800000000e+06 9.999784840346e-01 
9.050400000000e+06 9.999794252376e-01 
9.072000000000e+06 9.999803256669e-01 
9.093600000000e+06 9.999811870683e-01 
9.115200000000e+06 9.999820111140e-01 
9.136800000000e+06 9.999827994053e-01 
9.158400000000e+06 9.999835534761e-01 
9.180000000000e+06 9.999842747952e-01 
9.201600000000e+06 9.999849647692e-01 
9.223200000000e+06 9.999856247453e-01 
9.244800000000e+06 9.999862560135e-01 
9.266400000000e+06 9.999868598089e-01 
9.288000000000e+06 9.999874373144e-01 
9.309600000000e+06 9.999879896625e-01 
9.331200000000e+06 9.999885179375e-01 
9.352800000000e+06 9.999890231776e-01 
9.374400000000e+06 9.999895063769e-01 
9.396000000000e+06 9.999899684870e-01 
9.417600000000e+06 9.999904104190e-01 
9.439200000000e+06 9.999908330451e-01 
9.460800000000e+06 9.999912372002e-01 
9.482400000000e+06 9.999916236836e-01 
9.504000000000e+06 9.999919932605e-01 
9.525600000000e+06 9.999923466631e-01 
9.547200000000e+06 9.999926845926e-01 
9.568800000000e+06 9.999930077199e-01 
9.590400000000e+06 9.999933166872e-01 
9.612000000000e+06 9.999936121092e-01 
9.633600000000e+06 9.999938945743e-01 
9.655200000000e+06 9.999941646453e-01 
9.676800000000e+06 9.999944228613e-01 
9.698400000000e+06 9.999946697378e-01 
9.720000000000e+06 9.999949057684e-01 
9.741600000000e+06 9.999951314252e-01 
9.763200000000e+06 9.999953471602e-01 
9.784800000000e+06 9.999955534059e-01 
9.806400000000e+06 9.999957505758e-01 
9.828000000000e+06 9.999959390661e-01 
9.849600000000e+06 9.999961192555e-01 
9.871200000000e+06 9.999962915065e-01 
9.892800000000e+06 9.999964561658e-01 
9.914400000000e+06 9.999966135653e-01 
9.936000000000e+06 9.999967640224e-01 
9.957600000000e+06 9.999969078408e-01 
9.979200000000e+06 9.999970453110e-01 
1.000080000000e+07 9.999971767110e-01 
1.002240000000e+07 9.999973023068e-01 
1.004400000000e+07 9.999974223525e-01 
1.006560000000e+07 9.999975370916e-01 
1.008720000000e+07 9.999976467569e-01 
1.010880000000e+07 9.999977515709e-01 
1.013040000000e+07 9.999978517466e-01 
1.015200000000e+07 9.999979474877e-01 
1.017360000000e+07 9.999980389890e-01 
1.019520000000e+07 9.999981264370e-01 
1.021680000000e+07 9.999982100097e-01 
1.023840000000e+07 9.999982898777e-01 
1.026000000000e+07 9.999983662040e-01 
1.028160000000e+07 9.999984391445e-01 
1.030320000000e+07 9.999985088484e-01 
1.032480000000e+07 9.999985754582e-01 
1.034640000000e+07 9.999986391103e-01 
1.036800000000e+07 9.999986999351e-01 
1.038960000000e+07 9.999987580573e-01 
1.041120000000e+07 9.999988135963e-01 
1.043280000000e+07 9.999988666659e-01 
1.045440000000e+07 9.999989173752e-01 
1.047600000000e+07 9.999989658286e-01 
1.049760000000e+07 9.999990121257e-01 
1.051920000000e+07 9.999990563618e-01 
1.054080000000e+07 9.999990986281e-01 
1.056240000000e+07 9.999991390117e-01 
1.058400000000e+07 9.999991775960e-01 
1.060560000000e+07 9.999992144606e-01 
1.062720000000e+07 9.999992496816e-01 
1.064880000000e+07 9.999992833319e-01 
1.067040000000e+07 9.999993154810e-01 
1.069200000000e+07 9.999993461956e-01 
1.071360000000e+07 9.999993755392e-01 
1.073520000000e+07 9.999994035727e-01 
1.075680000000e+07 9.999994303542e-01 
1.077840000000e+07 9.999994559393e-01 
1.080000000000e+07 9.999994803811e-01 
