 TITLE = "Profiles along polylines"
 VARIABLES = "DIST" "PRESSURE1" "SATURATION1" "SATURATION2" 
 ZONE T="TIME=0.000000000000e+00"
0.000000000000e+00 9.806700000000e+04 1.000000000000e+00 0.000000000000e+00 
3.333333330000e-01 9.806700000000e+04 1.000000000000e+00 0.000000000000e+00 
6.666666670000e-01 9.806700000000e+04 1.000000000000e+00 0.000000000000e+00 
1.000000000000e+00 9.806700000000e+04 1.000000000000e+00 0.000000000000e+00 
1.333333333000e+00 9.806700000000e+04 1.000000000000e+00 0.000000000000e+00 
1.666666667000e+00 9.806700000000e+04 1.000000000000e+00 0.000000000000e+00 
2.000000000000e+00 9.806700000000e+04 1.000000000000e+00 0.000000000000e+00 
2.333333333000e+00 9.806700000000e+04 1.000000000000e+00 0.000000000000e+00 
2.666666667000e+00 9.806700000000e+04 1.000000000000e+00 0.000000000000e+00 
3.000000000000e+00 9.806700000000e+04 1.000000000000e+00 0.000000000000e+00 
3.333333333000e+00 9.806700000000e+04 1.000000000000e+00 0.000000000000e+00 
3.666666667000e+00 9.806700000000e+04 1.000000000000e+00 0.000000000000e+00 
4.000000000000e+00 9.806700000000e+04 1.000000000000e+00 0.000000000000e+00 
4.333333333000e+00 9.806700000000e+04 1.000000000000e+00 0.000000000000e+00 
4.666666667000e+00 9.806700000000e+04 1.000000000000e+00 0.000000000000e+00 
5.000000000000e+00 9.806700000000e+04 8.999977480000e-01 1.000022520000e-01 
5.333333333000e+00 9.806700000000e+04 8.999977480000e-01 1.000022520000e-01 
5.666666667000e+00 9.806700000000e+04 8.999977480000e-01 1.000022520000e-01 
6.000000000000e+00 9.806700000000e+04 8.999977480000e-01 1.000022520000e-01 
6.333333333000e+00 9.806700000000e+04 8.999977480000e-01 1.000022520000e-01 
6.666666667000e+00 9.806700000000e+04 8.999977480000e-01 1.000022520000e-01 
7.000000000000e+00 9.806700000000e+04 8.999977480000e-01 1.000022520000e-01 
7.333333333000e+00 9.806700000000e+04 8.999977480000e-01 1.000022520000e-01 
7.666666667000e+00 9.806700000000e+04 8.999977480000e-01 1.000022520000e-01 
8.000000000000e+00 9.806700000000e+04 8.999977480000e-01 1.000022520000e-01 
8.333333333000e+00 9.806700000000e+04 8.999977480000e-01 1.000022520000e-01 
8.666666667000e+00 9.806700000000e+04 8.999977480000e-01 1.000022520000e-01 
9.000000000000e+00 9.806700000000e+04 8.999977480000e-01 1.000022520000e-01 
9.333333333000e+00 9.806700000000e+04 8.999977480000e-01 1.000022520000e-01 
9.666666667000e+00 9.806700000000e+04 8.999977480000e-01 1.000022520000e-01 
1.000000000000e+01 9.806700000000e+04 8.999977480000e-01 1.000022520000e-01 
1.033333333000e+01 9.806700000000e+04 1.000000000000e+00 0.000000000000e+00 
1.066666667000e+01 9.806700000000e+04 1.000000000000e+00 0.000000000000e+00 
1.100000000000e+01 9.806700000000e+04 1.000000000000e+00 0.000000000000e+00 
1.133333333000e+01 9.806700000000e+04 1.000000000000e+00 0.000000000000e+00 
1.166666667000e+01 9.806700000000e+04 1.000000000000e+00 0.000000000000e+00 
1.200000000000e+01 9.806700000000e+04 1.000000000000e+00 0.000000000000e+00 
1.233333333000e+01 9.806700000000e+04 1.000000000000e+00 0.000000000000e+00 
1.266666667000e+01 9.806700000000e+04 1.000000000000e+00 0.000000000000e+00 
1.300000000000e+01 9.806700000000e+04 1.000000000000e+00 0.000000000000e+00 
1.333333333000e+01 9.806700000000e+04 1.000000000000e+00 0.000000000000e+00 
1.366666667000e+01 9.806700000000e+04 1.000000000000e+00 0.000000000000e+00 
1.400000000000e+01 9.806700000000e+04 1.000000000000e+00 0.000000000000e+00 
1.433333333000e+01 9.806700000000e+04 1.000000000000e+00 0.000000000000e+00 
1.466666667000e+01 9.806700000000e+04 1.000000000000e+00 0.000000000000e+00 
1.500000000000e+01 9.806700000000e+04 1.000000000000e+00 0.000000000000e+00 
1.533333333000e+01 9.806700000000e+04 1.000000000000e+00 0.000000000000e+00 
1.566666667000e+01 9.806700000000e+04 1.000000000000e+00 0.000000000000e+00 
1.600000000000e+01 9.806700000000e+04 1.000000000000e+00 0.000000000000e+00 
1.633333333000e+01 9.806700000000e+04 1.000000000000e+00 0.000000000000e+00 
1.666666667000e+01 9.806700000000e+04 1.000000000000e+00 0.000000000000e+00 
1.700000000000e+01 9.806700000000e+04 1.000000000000e+00 0.000000000000e+00 
1.733333333000e+01 9.806700000000e+04 1.000000000000e+00 0.000000000000e+00 
1.766666667000e+01 9.806700000000e+04 1.000000000000e+00 0.000000000000e+00 
1.800000000000e+01 9.806700000000e+04 1.000000000000e+00 0.000000000000e+00 
1.833333333000e+01 9.806700000000e+04 1.000000000000e+00 0.000000000000e+00 
1.866666667000e+01 9.806700000000e+04 1.000000000000e+00 0.000000000000e+00 
1.900000000000e+01 9.806700000000e+04 1.000000000000e+00 0.000000000000e+00 
1.933333333000e+01 9.806700000000e+04 1.000000000000e+00 0.000000000000e+00 
1.966666667000e+01 9.806700000000e+04 1.000000000000e+00 0.000000000000e+00 
2.000000000000e+01 9.806700000000e+04 1.000000000000e+00 0.000000000000e+00 
2.033333333000e+01 9.806700000000e+04 1.000000000000e+00 0.000000000000e+00 
2.066666667000e+01 9.806700000000e+04 1.000000000000e+00 0.000000000000e+00 
2.100000000000e+01 9.806700000000e+04 1.000000000000e+00 0.000000000000e+00 
2.133333333000e+01 9.806700000000e+04 1.000000000000e+00 0.000000000000e+00 
2.166666667000e+01 9.806700000000e+04 1.000000000000e+00 0.000000000000e+00 
2.200000000000e+01 9.806700000000e+04 1.000000000000e+00 0.000000000000e+00 
2.233333333000e+01 9.806700000000e+04 1.000000000000e+00 0.000000000000e+00 
2.266666667000e+01 9.806700000000e+04 1.000000000000e+00 0.000000000000e+00 
2.300000000000e+01 9.806700000000e+04 1.000000000000e+00 0.000000000000e+00 
2.333333333000e+01 9.806700000000e+04 1.000000000000e+00 0.000000000000e+00 
2.366666667000e+01 9.806700000000e+04 1.000000000000e+00 0.000000000000e+00 
2.400000000000e+01 9.806700000000e+04 1.000000000000e+00 0.000000000000e+00 
2.433333333000e+01 9.806700000000e+04 1.000000000000e+00 0.000000000000e+00 
2.466666667000e+01 9.806700000000e+04 1.000000000000e+00 0.000000000000e+00 
2.500000000000e+01 9.806700000000e+04 1.000000000000e+00 0.000000000000e+00 
2.533333333000e+01 9.806700000000e+04 1.000000000000e+00 0.000000000000e+00 
2.566666667000e+01 9.806700000000e+04 1.000000000000e+00 0.000000000000e+00 
2.600000000000e+01 9.806700000000e+04 1.000000000000e+00 0.000000000000e+00 
2.633333333000e+01 9.806700000000e+04 1.000000000000e+00 0.000000000000e+00 
2.666666667000e+01 9.806700000000e+04 1.000000000000e+00 0.000000000000e+00 
2.700000000000e+01 9.806700000000e+04 1.000000000000e+00 0.000000000000e+00 
2.733333333000e+01 9.806700000000e+04 1.000000000000e+00 0.000000000000e+00 
2.766666667000e+01 9.806700000000e+04 1.000000000000e+00 0.000000000000e+00 
2.800000000000e+01 9.806700000000e+04 1.000000000000e+00 0.000000000000e+00 
2.833333333000e+01 9.806700000000e+04 1.000000000000e+00 0.000000000000e+00 
2.866666667000e+01 9.806700000000e+04 1.000000000000e+00 0.000000000000e+00 
2.900000000000e+01 9.806700000000e+04 1.000000000000e+00 0.000000000000e+00 
2.933333333000e+01 9.806700000000e+04 1.000000000000e+00 0.000000000000e+00 
2.966666667000e+01 9.806700000000e+04 1.000000000000e+00 0.000000000000e+00 
3.000000000000e+01 9.806700000000e+04 1.000000000000e+00 0.000000000000e+00 
3.033333333000e+01 9.806700000000e+04 1.000000000000e+00 0.000000000000e+00 
3.066666667000e+01 9.806700000000e+04 1.000000000000e+00 0.000000000000e+00 
3.100000000000e+01 9.806700000000e+04 1.000000000000e+00 0.000000000000e+00 
3.133333333000e+01 9.806700000000e+04 1.000000000000e+00 0.000000000000e+00 
3.166666667000e+01 9.806700000000e+04 1.000000000000e+00 0.000000000000e+00 
3.200000000000e+01 9.806700000000e+04 1.000000000000e+00 0.000000000000e+00 
3.233333333000e+01 9.806700000000e+04 1.000000000000e+00 0.000000000000e+00 
3.266666667000e+01 9.806700000000e+04 1.000000000000e+00 0.000000000000e+00 
3.300000000000e+01 9.806700000000e+04 1.000000000000e+00 0.000000000000e+00 
3.333333333000e+01 9.806700000000e+04 1.000000000000e+00 0.000000000000e+00 
3.366666667000e+01 9.806700000000e+04 1.000000000000e+00 0.000000000000e+00 
3.400000000000e+01 9.806700000000e+04 1.000000000000e+00 0.000000000000e+00 
3.433333333000e+01 9.806700000000e+04 1.000000000000e+00 0.000000000000e+00 
3.466666667000e+01 9.806700000000e+04 1.000000000000e+00 0.000000000000e+00 
3.500000000000e+01 9.806700000000e+04 1.000000000000e+00 0.000000000000e+00 
3.533333333000e+01 9.806700000000e+04 1.000000000000e+00 0.000000000000e+00 
3.566666667000e+01 9.806700000000e+04 1.000000000000e+00 0.000000000000e+00 
3.600000000000e+01 9.806700000000e+04 1.000000000000e+00 0.000000000000e+00 
3.633333333000e+01 9.806700000000e+04 1.000000000000e+00 0.000000000000e+00 
3.666666667000e+01 9.806700000000e+04 1.000000000000e+00 0.000000000000e+00 
3.700000000000e+01 9.806700000000e+04 1.000000000000e+00 0.000000000000e+00 
3.733333333000e+01 9.806700000000e+04 1.000000000000e+00 0.000000000000e+00 
3.766666667000e+01 9.806700000000e+04 1.000000000000e+00 0.000000000000e+00 
3.800000000000e+01 9.806700000000e+04 1.000000000000e+00 0.000000000000e+00 
3.833333333000e+01 9.806700000000e+04 1.000000000000e+00 0.000000000000e+00 
3.866666667000e+01 9.806700000000e+04 1.000000000000e+00 0.000000000000e+00 
3.900000000000e+01 9.806700000000e+04 1.000000000000e+00 0.000000000000e+00 
3.933333333000e+01 9.806700000000e+04 1.000000000000e+00 0.000000000000e+00 
3.966666667000e+01 9.806700000000e+04 1.000000000000e+00 0.000000000000e+00 
4.000000000000e+01 9.806700000000e+04 1.000000000000e+00 0.000000000000e+00 
4.033333333000e+01 9.806700000000e+04 1.000000000000e+00 0.000000000000e+00 
4.066666667000e+01 9.806700000000e+04 1.000000000000e+00 0.000000000000e+00 
4.100000000000e+01 9.806700000000e+04 1.000000000000e+00 0.000000000000e+00 
4.133333333000e+01 9.806700000000e+04 1.000000000000e+00 0.000000000000e+00 
4.166666667000e+01 9.806700000000e+04 1.000000000000e+00 0.000000000000e+00 
4.200000000000e+01 9.806700000000e+04 1.000000000000e+00 0.000000000000e+00 
4.233333333000e+01 9.806700000000e+04 1.000000000000e+00 0.000000000000e+00 
4.266666667000e+01 9.806700000000e+04 1.000000000000e+00 0.000000000000e+00 
4.300000000000e+01 9.806700000000e+04 1.000000000000e+00 0.000000000000e+00 
4.333333333000e+01 9.806700000000e+04 1.000000000000e+00 0.000000000000e+00 
4.366666667000e+01 9.806700000000e+04 1.000000000000e+00 0.000000000000e+00 
4.400000000000e+01 9.806700000000e+04 1.000000000000e+00 0.000000000000e+00 
4.433333333000e+01 9.806700000000e+04 1.000000000000e+00 0.000000000000e+00 
4.466666667000e+01 9.806700000000e+04 1.000000000000e+00 0.000000000000e+00 
4.500000000000e+01 9.806700000000e+04 1.000000000000e+00 0.000000000000e+00 
4.533333333000e+01 9.806700000000e+04 1.000000000000e+00 0.000000000000e+00 
4.566666667000e+01 9.806700000000e+04 1.000000000000e+00 0.000000000000e+00 
4.600000000000e+01 9.806700000000e+04 1.000000000000e+00 0.000000000000e+00 
4.633333333000e+01 9.806700000000e+04 1.000000000000e+00 0.000000000000e+00 
4.666666667000e+01 9.806700000000e+04 1.000000000000e+00 0.000000000000e+00 
4.700000000000e+01 9.806700000000e+04 1.000000000000e+00 0.000000000000e+00 
4.733333333000e+01 9.806700000000e+04 1.000000000000e+00 0.000000000000e+00 
4.766666667000e+01 9.806700000000e+04 1.000000000000e+00 0.000000000000e+00 
4.800000000000e+01 9.806700000000e+04 1.000000000000e+00 0.000000000000e+00 
4.833333333000e+01 9.806700000000e+04 1.000000000000e+00 0.000000000000e+00 
4.866666667000e+01 9.806700000000e+04 1.000000000000e+00 0.000000000000e+00 
4.900000000000e+01 9.806700000000e+04 1.000000000000e+00 0.000000000000e+00 
4.933333333000e+01 9.806700000000e+04 1.000000000000e+00 0.000000000000e+00 
4.966666667000e+01 9.806700000000e+04 1.000000000000e+00 0.000000000000e+00 
5.000000000000e+01 9.806700000000e+04 1.000000000000e+00 0.000000000000e+00 
 TITLE = "Profiles along polylines"
 VARIABLES = "DIST" "PRESSURE1" "SATURATION1" "SATURATION2" 
 ZONE T="TIME=2.160000000000e+04"
0.000000000000e+00 9.810000000000e+04 1.000000000000e+00 0.000000000000e+00 
3.333333330000e-01 9.806924540972e+04 1.000000000000e+00 0.000000000000e+00 
6.666666670000e-01 9.803849081935e+04 1.000000000000e+00 0.000000000000e+00 
1.000000000000e+00 9.800773622906e+04 1.000000000000e+00 0.000000000000e+00 
1.333333333000e+00 9.797698163878e+04 1.000000000000e+00 0.000000000000e+00 
1.666666667000e+00 9.794622704840e+04 1.000000000000e+00 0.000000000000e+00 
2.000000000000e+00 9.791547245812e+04 1.000000000000e+00 0.000000000000e+00 
2.333333333000e+00 9.788471786783e+04 1.000000000000e+00 0.000000000000e+00 
2.666666667000e+00 9.785396327746e+04 1.000000000000e+00 0.000000000000e+00 
3.000000000000e+00 9.782320868717e+04 1.000000000000e+00 0.000000000000e+00 
3.333333333000e+00 9.779245409688e+04 1.000000000000e+00 0.000000000000e+00 
3.666666667000e+00 9.776169950649e+04 1.000000000000e+00 0.000000000000e+00 
4.000000000000e+00 9.773094491620e+04 1.000000000000e+00 0.000000000000e+00 
4.333333333000e+00 9.770019032590e+04 1.000000000000e+00 0.000000000000e+00 
4.666666667000e+00 9.766943573552e+04 1.000000000000e+00 0.000000000000e+00 
5.000000000000e+00 9.763109327458e+04 8.999977480000e-01 1.000022520000e-01 
5.333333333000e+00 9.758189630599e+04 8.999977480000e-01 1.000022520000e-01 
5.666666667000e+00 9.753269933725e+04 8.999977480000e-01 1.000022520000e-01 
6.000000000000e+00 9.748350236866e+04 8.999977480000e-01 1.000022520000e-01 
6.333333333000e+00 9.743430540006e+04 8.999977480000e-01 1.000022520000e-01 
6.666666667000e+00 9.738510843131e+04 8.999977480000e-01 1.000022520000e-01 
7.000000000000e+00 9.733591146271e+04 8.999977480000e-01 1.000022520000e-01 
7.333333333000e+00 9.728671449411e+04 8.999977480000e-01 1.000022520000e-01 
7.666666667000e+00 9.723751752535e+04 8.999977480000e-01 1.000022520000e-01 
8.000000000000e+00 9.718832055673e+04 8.999977480000e-01 1.000022520000e-01 
8.333333333000e+00 9.713912358811e+04 8.999977480000e-01 1.000022520000e-01 
8.666666667000e+00 9.708992661933e+04 8.999977480000e-01 1.000022520000e-01 
9.000000000000e+00 9.704072965070e+04 8.999977480000e-01 1.000022520000e-01 
9.333333333000e+00 9.699153268207e+04 8.999977480000e-01 1.000022520000e-01 
9.666666667000e+00 9.694233571328e+04 8.999977480000e-01 1.000022520000e-01 
1.000000000000e+01 9.689313874464e+04 8.999977480000e-01 1.000022520000e-01 
1.033333333000e+01 9.685479628399e+04 1.000000000000e+00 0.000000000000e+00 
1.066666667000e+01 9.682404169299e+04 1.000000000000e+00 0.000000000000e+00 
1.100000000000e+01 9.679328710292e+04 1.000000000000e+00 0.000000000000e+00 
1.133333333000e+01 9.676253251283e+04 1.000000000000e+00 0.000000000000e+00 
1.166666667000e+01 9.673177792182e+04 1.000000000000e+00 0.000000000000e+00 
1.200000000000e+01 9.670102333173e+04 1.000000000000e+00 0.000000000000e+00 
1.233333333000e+01 9.667026874163e+04 1.000000000000e+00 0.000000000000e+00 
1.266666667000e+01 9.663951415060e+04 1.000000000000e+00 0.000000000000e+00 
1.300000000000e+01 9.660875956048e+04 1.000000000000e+00 0.000000000000e+00 
1.333333333000e+01 9.657800497036e+04 1.000000000000e+00 0.000000000000e+00 
1.366666667000e+01 9.654725037931e+04 1.000000000000e+00 0.000000000000e+00 
1.400000000000e+01 9.651649578918e+04 1.000000000000e+00 0.000000000000e+00 
1.433333333000e+01 9.648574119904e+04 1.000000000000e+00 0.000000000000e+00 
1.466666667000e+01 9.645498660797e+04 1.000000000000e+00 0.000000000000e+00 
1.500000000000e+01 9.642423201782e+04 1.000000000000e+00 0.000000000000e+00 
1.533333333000e+01 9.639347742766e+04 1.000000000000e+00 0.000000000000e+00 
1.566666667000e+01 9.636272283658e+04 1.000000000000e+00 0.000000000000e+00 
1.600000000000e+01 9.633196824641e+04 1.000000000000e+00 0.000000000000e+00 
1.633333333000e+01 9.630121365623e+04 1.000000000000e+00 0.000000000000e+00 
1.666666667000e+01 9.627045906512e+04 1.000000000000e+00 0.000000000000e+00 
1.700000000000e+01 9.623970447493e+04 1.000000000000e+00 0.000000000000e+00 
1.733333333000e+01 9.620894988474e+04 1.000000000000e+00 0.000000000000e+00 
1.766666667000e+01 9.617819529361e+04 1.000000000000e+00 0.000000000000e+00 
1.800000000000e+01 9.614744070341e+04 1.000000000000e+00 0.000000000000e+00 
1.833333333000e+01 9.611668611319e+04 1.000000000000e+00 0.000000000000e+00 
1.866666667000e+01 9.608593152205e+04 1.000000000000e+00 0.000000000000e+00 
1.900000000000e+01 9.605517693183e+04 1.000000000000e+00 0.000000000000e+00 
1.933333333000e+01 9.602442234160e+04 1.000000000000e+00 0.000000000000e+00 
1.966666667000e+01 9.599366775044e+04 1.000000000000e+00 0.000000000000e+00 
2.000000000000e+01 9.596291316019e+04 1.000000000000e+00 0.000000000000e+00 
2.033333333000e+01 9.593215856995e+04 1.000000000000e+00 0.000000000000e+00 
2.066666667000e+01 9.590140397877e+04 1.000000000000e+00 0.000000000000e+00 
2.100000000000e+01 9.587064938851e+04 1.000000000000e+00 0.000000000000e+00 
2.133333333000e+01 9.583989479825e+04 1.000000000000e+00 0.000000000000e+00 
2.166666667000e+01 9.580914020706e+04 1.000000000000e+00 0.000000000000e+00 
2.200000000000e+01 9.577838561679e+04 1.000000000000e+00 0.000000000000e+00 
2.233333333000e+01 9.574763102651e+04 1.000000000000e+00 0.000000000000e+00 
2.266666667000e+01 9.571687643530e+04 1.000000000000e+00 0.000000000000e+00 
2.300000000000e+01 9.568612184501e+04 1.000000000000e+00 0.000000000000e+00 
2.333333333000e+01 9.565536725472e+04 1.000000000000e+00 0.000000000000e+00 
2.366666667000e+01 9.562461266350e+04 1.000000000000e+00 0.000000000000e+00 
2.400000000000e+01 9.559385807320e+04 1.000000000000e+00 0.000000000000e+00 
2.433333333000e+01 9.556310348289e+04 1.000000000000e+00 0.000000000000e+00 
2.466666667000e+01 9.553234889166e+04 1.000000000000e+00 0.000000000000e+00 
2.500000000000e+01 9.550159430135e+04 1.000000000000e+00 0.000000000000e+00 
2.533333333000e+01 9.547083971103e+04 1.000000000000e+00 0.000000000000e+00 
2.566666667000e+01 9.544008511979e+04 1.000000000000e+00 0.000000000000e+00 
2.600000000000e+01 9.540933052947e+04 1.000000000000e+00 0.000000000000e+00 
2.633333333000e+01 9.537857593914e+04 1.000000000000e+00 0.000000000000e+00 
2.666666667000e+01 9.534782134788e+04 1.000000000000e+00 0.000000000000e+00 
2.700000000000e+01 9.531706675755e+04 1.000000000000e+00 0.000000000000e+00 
2.733333333000e+01 9.528631216721e+04 1.000000000000e+00 0.000000000000e+00 
2.766666667000e+01 9.525555757595e+04 1.000000000000e+00 0.000000000000e+00 
2.800000000000e+01 9.522480298560e+04 1.000000000000e+00 0.000000000000e+00 
2.833333333000e+01 9.519404839526e+04 1.000000000000e+00 0.000000000000e+00 
2.866666667000e+01 9.516329380399e+04 1.000000000000e+00 0.000000000000e+00 
2.900000000000e+01 9.513253921363e+04 1.000000000000e+00 0.000000000000e+00 
2.933333333000e+01 9.510178462328e+04 1.000000000000e+00 0.000000000000e+00 
2.966666667000e+01 9.507103003200e+04 1.000000000000e+00 0.000000000000e+00 
3.000000000000e+01 9.504027544164e+04 1.000000000000e+00 0.000000000000e+00 
3.033333333000e+01 9.500952085128e+04 1.000000000000e+00 0.000000000000e+00 
3.066666667000e+01 9.497876626000e+04 1.000000000000e+00 0.000000000000e+00 
3.100000000000e+01 9.494801166963e+04 1.000000000000e+00 0.000000000000e+00 
3.133333333000e+01 9.491725707927e+04 1.000000000000e+00 0.000000000000e+00 
3.166666667000e+01 9.488650248797e+04 1.000000000000e+00 0.000000000000e+00 
3.200000000000e+01 9.485574789760e+04 1.000000000000e+00 0.000000000000e+00 
3.233333333000e+01 9.482499330723e+04 1.000000000000e+00 0.000000000000e+00 
3.266666667000e+01 9.479423871594e+04 1.000000000000e+00 0.000000000000e+00 
3.300000000000e+01 9.476348412556e+04 1.000000000000e+00 0.000000000000e+00 
3.333333333000e+01 9.473272953519e+04 1.000000000000e+00 0.000000000000e+00 
3.366666667000e+01 9.470197494389e+04 1.000000000000e+00 0.000000000000e+00 
3.400000000000e+01 9.467122035351e+04 1.000000000000e+00 0.000000000000e+00 
3.433333333000e+01 9.464046576313e+04 1.000000000000e+00 0.000000000000e+00 
3.466666667000e+01 9.460971117182e+04 1.000000000000e+00 0.000000000000e+00 
3.500000000000e+01 9.457895658144e+04 1.000000000000e+00 0.000000000000e+00 
3.533333333000e+01 9.454820199106e+04 1.000000000000e+00 0.000000000000e+00 
3.566666667000e+01 9.451744739975e+04 1.000000000000e+00 0.000000000000e+00 
3.600000000000e+01 9.448669280937e+04 1.000000000000e+00 0.000000000000e+00 
3.633333333000e+01 9.445593821898e+04 1.000000000000e+00 0.000000000000e+00 
3.666666667000e+01 9.442518362768e+04 1.000000000000e+00 0.000000000000e+00 
3.700000000000e+01 9.439442903729e+04 1.000000000000e+00 0.000000000000e+00 
3.733333333000e+01 9.436367444690e+04 1.000000000000e+00 0.000000000000e+00 
3.766666667000e+01 9.433291985559e+04 1.000000000000e+00 0.000000000000e+00 
3.800000000000e+01 9.430216526520e+04 1.000000000000e+00 0.000000000000e+00 
3.833333333000e+01 9.427141067481e+04 1.000000000000e+00 0.000000000000e+00 
3.866666667000e+01 9.424065608350e+04 1.000000000000e+00 0.000000000000e+00 
3.900000000000e+01 9.420990149311e+04 1.000000000000e+00 0.000000000000e+00 
3.933333333000e+01 9.417914690272e+04 1.000000000000e+00 0.000000000000e+00 
3.966666667000e+01 9.414839231141e+04 1.000000000000e+00 0.000000000000e+00 
4.000000000000e+01 9.411763772102e+04 1.000000000000e+00 0.000000000000e+00 
4.033333333000e+01 9.408688313063e+04 1.000000000000e+00 0.000000000000e+00 
4.066666667000e+01 9.405612853931e+04 1.000000000000e+00 0.000000000000e+00 
4.100000000000e+01 9.402537394892e+04 1.000000000000e+00 0.000000000000e+00 
4.133333333000e+01 9.399461935853e+04 1.000000000000e+00 0.000000000000e+00 
4.166666667000e+01 9.396386476722e+04 1.000000000000e+00 0.000000000000e+00 
4.200000000000e+01 9.393311017682e+04 1.000000000000e+00 0.000000000000e+00 
4.233333333000e+01 9.390235558643e+04 1.000000000000e+00 0.000000000000e+00 
4.266666667000e+01 9.387160099512e+04 1.000000000000e+00 0.000000000000e+00 
4.300000000000e+01 9.384084640472e+04 1.000000000000e+00 0.000000000000e+00 
4.333333333000e+01 9.381009181433e+04 1.000000000000e+00 0.000000000000e+00 
4.366666667000e+01 9.377933722301e+04 1.000000000000e+00 0.000000000000e+00 
4.400000000000e+01 9.374858263262e+04 1.000000000000e+00 0.000000000000e+00 
4.433333333000e+01 9.371782804223e+04 1.000000000000e+00 0.000000000000e+00 
4.466666667000e+01 9.368707345091e+04 1.000000000000e+00 0.000000000000e+00 
4.500000000000e+01 9.365631886052e+04 1.000000000000e+00 0.000000000000e+00 
4.533333333000e+01 9.362556427013e+04 1.000000000000e+00 0.000000000000e+00 
4.566666667000e+01 9.359480967881e+04 1.000000000000e+00 0.000000000000e+00 
4.600000000000e+01 9.356405508842e+04 1.000000000000e+00 0.000000000000e+00 
4.633333333000e+01 9.353330049802e+04 1.000000000000e+00 0.000000000000e+00 
4.666666667000e+01 9.350254590671e+04 1.000000000000e+00 0.000000000000e+00 
4.700000000000e+01 9.347179131631e+04 1.000000000000e+00 0.000000000000e+00 
4.733333333000e+01 9.344103672592e+04 1.000000000000e+00 0.000000000000e+00 
4.766666667000e+01 9.341028213460e+04 1.000000000000e+00 0.000000000000e+00 
4.800000000000e+01 9.337952754421e+04 1.000000000000e+00 0.000000000000e+00 
4.833333333000e+01 9.334877295381e+04 1.000000000000e+00 0.000000000000e+00 
4.866666667000e+01 9.331801836250e+04 1.000000000000e+00 0.000000000000e+00 
4.900000000000e+01 9.328726377210e+04 1.000000000000e+00 0.000000000000e+00 
4.933333333000e+01 9.325650918171e+04 1.000000000000e+00 0.000000000000e+00 
4.966666667000e+01 9.322575459039e+04 1.000000000000e+00 0.000000000000e+00 
5.000000000000e+01 9.319500000000e+04 1.000000000000e+00 0.000000000000e+00 
 TITLE = "Profiles along polylines"
 VARIABLES = "DIST" "PRESSURE1" "SATURATION1" "SATURATION2" 
 ZONE T="TIME=4.320000000000e+04"
0.000000000000e+00 9.810000000000e+04 1.000000000000e+00 0.000000000000e+00 
3.333333330000e-01 9.806924540972e+04 1.000000000000e+00 0.000000000000e+00 
6.666666670000e-01 9.803849081935e+04 1.000000000000e+00 0.000000000000e+00 
1.000000000000e+00 9.800773622906e+04 1.000000000000e+00 0.000000000000e+00 
1.333333333000e+00 9.797698163878e+04 1.000000000000e+00 0.000000000000e+00 
1.666666667000e+00 9.794622704840e+04 1.000000000000e+00 0.000000000000e+00 
2.000000000000e+00 9.791547245812e+04 1.000000000000e+00 0.000000000000e+00 
2.333333333000e+00 9.788471786783e+04 1.000000000000e+00 0.000000000000e+00 
2.666666667000e+00 9.785396327746e+04 1.000000000000e+00 0.000000000000e+00 
3.000000000000e+00 9.782320868717e+04 1.000000000000e+00 0.000000000000e+00 
3.333333333000e+00 9.779245409688e+04 1.000000000000e+00 0.000000000000e+00 
3.666666667000e+00 9.776169950649e+04 1.000000000000e+00 0.000000000000e+00 
4.000000000000e+00 9.773094491620e+04 1.000000000000e+00 0.000000000000e+00 
4.333333333000e+00 9.770019032590e+04 1.000000000000e+00 0.000000000000e+00 
4.666666667000e+00 9.766943573552e+04 1.000000000000e+00 0.000000000000e+00 
5.000000000000e+00 9.763109327458e+04 8.999977480000e-01 1.000022520000e-01 
5.333333333000e+00 9.758189630599e+04 8.999977480000e-01 1.000022520000e-01 
5.666666667000e+00 9.753269933725e+04 8.999977480000e-01 1.000022520000e-01 
6.000000000000e+00 9.748350236866e+04 8.999977480000e-01 1.000022520000e-01 
6.333333333000e+00 9.743430540006e+04 8.999977480000e-01 1.000022520000e-01 
6.666666667000e+00 9.738510843131e+04 8.999977480000e-01 1.000022520000e-01 
7.000000000000e+00 9.733591146271e+04 8.999977480000e-01 1.000022520000e-01 
7.333333333000e+00 9.728671449411e+04 8.999977480000e-01 1.000022520000e-01 
7.666666667000e+00 9.723751752535e+04 8.999977480000e-01 1.000022520000e-01 
8.000000000000e+00 9.718832055673e+04 8.999977480000e-01 1.000022520000e-01 
8.333333333000e+00 9.713912358811e+04 8.999977480000e-01 1.000022520000e-01 
8.666666667000e+00 9.708992661933e+04 8.999977480000e-01 1.000022520000e-01 
9.000000000000e+00 9.704072965070e+04 8.999977480000e-01 1.000022520000e-01 
9.333333333000e+00 9.699153268207e+04 8.999977480000e-01 1.000022520000e-01 
9.666666667000e+00 9.694233571328e+04 8.999977480000e-01 1.000022520000e-01 
1.000000000000e+01 9.689313874464e+04 8.999977480000e-01 1.000022520000e-01 
1.033333333000e+01 9.685479628399e+04 1.000000000000e+00 0.000000000000e+00 
1.066666667000e+01 9.682404169299e+04 1.000000000000e+00 0.000000000000e+00 
1.100000000000e+01 9.679328710292e+04 1.000000000000e+00 0.000000000000e+00 
1.133333333000e+01 9.676253251283e+04 1.000000000000e+00 0.000000000000e+00 
1.166666667000e+01 9.673177792182e+04 1.000000000000e+00 0.000000000000e+00 
1.200000000000e+01 9.670102333173e+04 1.000000000000e+00 0.000000000000e+00 
1.233333333000e+01 9.667026874163e+04 1.000000000000e+00 0.000000000000e+00 
1.266666667000e+01 9.663951415060e+04 1.000000000000e+00 0.000000000000e+00 
1.300000000000e+01 9.660875956048e+04 1.000000000000e+00 0.000000000000e+00 
1.333333333000e+01 9.657800497036e+04 1.000000000000e+00 0.000000000000e+00 
1.366666667000e+01 9.654725037931e+04 1.000000000000e+00 0.000000000000e+00 
1.400000000000e+01 9.651649578918e+04 1.000000000000e+00 0.000000000000e+00 
1.433333333000e+01 9.648574119904e+04 1.000000000000e+00 0.000000000000e+00 
1.466666667000e+01 9.645498660797e+04 1.000000000000e+00 0.000000000000e+00 
1.500000000000e+01 9.642423201782e+04 1.000000000000e+00 0.000000000000e+00 
1.533333333000e+01 9.639347742766e+04 1.000000000000e+00 0.000000000000e+00 
1.566666667000e+01 9.636272283658e+04 1.000000000000e+00 0.000000000000e+00 
1.600000000000e+01 9.633196824641e+04 1.000000000000e+00 0.000000000000e+00 
1.633333333000e+01 9.630121365623e+04 1.000000000000e+00 0.000000000000e+00 
1.666666667000e+01 9.627045906512e+04 1.000000000000e+00 0.000000000000e+00 
1.700000000000e+01 9.623970447493e+04 1.000000000000e+00 0.000000000000e+00 
1.733333333000e+01 9.620894988474e+04 1.000000000000e+00 0.000000000000e+00 
1.766666667000e+01 9.617819529361e+04 1.000000000000e+00 0.000000000000e+00 
1.800000000000e+01 9.614744070341e+04 1.000000000000e+00 0.000000000000e+00 
1.833333333000e+01 9.611668611319e+04 1.000000000000e+00 0.000000000000e+00 
1.866666667000e+01 9.608593152205e+04 1.000000000000e+00 0.000000000000e+00 
1.900000000000e+01 9.605517693183e+04 1.000000000000e+00 0.000000000000e+00 
1.933333333000e+01 9.602442234160e+04 1.000000000000e+00 0.000000000000e+00 
1.966666667000e+01 9.599366775044e+04 1.000000000000e+00 0.000000000000e+00 
2.000000000000e+01 9.596291316019e+04 1.000000000000e+00 0.000000000000e+00 
2.033333333000e+01 9.593215856995e+04 1.000000000000e+00 0.000000000000e+00 
2.066666667000e+01 9.590140397877e+04 1.000000000000e+00 0.000000000000e+00 
2.100000000000e+01 9.587064938851e+04 1.000000000000e+00 0.000000000000e+00 
2.133333333000e+01 9.583989479825e+04 1.000000000000e+00 0.000000000000e+00 
2.166666667000e+01 9.580914020706e+04 1.000000000000e+00 0.000000000000e+00 
2.200000000000e+01 9.577838561679e+04 1.000000000000e+00 0.000000000000e+00 
2.233333333000e+01 9.574763102651e+04 1.000000000000e+00 0.000000000000e+00 
2.266666667000e+01 9.571687643530e+04 1.000000000000e+00 0.000000000000e+00 
2.300000000000e+01 9.568612184501e+04 1.000000000000e+00 0.000000000000e+00 
2.333333333000e+01 9.565536725472e+04 1.000000000000e+00 0.000000000000e+00 
2.366666667000e+01 9.562461266350e+04 1.000000000000e+00 0.000000000000e+00 
2.400000000000e+01 9.559385807320e+04 1.000000000000e+00 0.000000000000e+00 
2.433333333000e+01 9.556310348289e+04 1.000000000000e+00 0.000000000000e+00 
2.466666667000e+01 9.553234889166e+04 1.000000000000e+00 0.000000000000e+00 
2.500000000000e+01 9.550159430135e+04 1.000000000000e+00 0.000000000000e+00 
2.533333333000e+01 9.547083971103e+04 1.000000000000e+00 0.000000000000e+00 
2.566666667000e+01 9.544008511979e+04 1.000000000000e+00 0.000000000000e+00 
2.600000000000e+01 9.540933052947e+04 1.000000000000e+00 0.000000000000e+00 
2.633333333000e+01 9.537857593914e+04 1.000000000000e+00 0.000000000000e+00 
2.666666667000e+01 9.534782134788e+04 1.000000000000e+00 0.000000000000e+00 
2.700000000000e+01 9.531706675755e+04 1.000000000000e+00 0.000000000000e+00 