VARIABLES  = "X","Y","Z", "DISPLACEMENT_X1", "DISPLACEMENT_Y1", "STRESS_XX", "STRESS_XY", "STRESS_YY", "STRESS_ZZ", "STRAIN_XX", "STRAIN_XY", "STRAIN_YY"
ZONE T="0.000000000000e+00s", N=5, E=4, F=FEPOINT, ET=QUADRILATERAL
STRANDID=1, SOLUTIONTIME=0.000000000000e+00
0.000000000000e+00 0.000000000000e+00 0.000000000000e+00 0.000000000000e+00 0.000000000000e+00 0.000000000000e+00 0.000000000000e+00 0.000000000000e+00 0.000000000000e+00 0.000000000000e+00 0.000000000000e+00 0.000000000000e+00 
4.000000000000e+00 0.000000000000e+00 0.000000000000e+00 0.000000000000e+00 0.000000000000e+00 0.000000000000e+00 0.000000000000e+00 0.000000000000e+00 0.000000000000e+00 0.000000000000e+00 0.000000000000e+00 0.000000000000e+00 
4.000000000000e+00 3.000000000000e+00 0.000000000000e+00 0.000000000000e+00 0.000000000000e+00 0.000000000000e+00 0.000000000000e+00 0.000000000000e+00 0.000000000000e+00 0.000000000000e+00 0.000000000000e+00 0.000000000000e+00 
0.000000000000e+00 3.000000000000e+00 0.000000000000e+00 0.000000000000e+00 0.000000000000e+00 0.000000000000e+00 0.000000000000e+00 0.000000000000e+00 0.000000000000e+00 0.000000000000e+00 0.000000000000e+00 0.000000000000e+00 
2.000007028086e+00 1.500016891052e+00 0.000000000000e+00 0.000000000000e+00 0.000000000000e+00 0.000000000000e+00 0.000000000000e+00 0.000000000000e+00 0.000000000000e+00 0.000000000000e+00 0.000000000000e+00 0.000000000000e+00 
1  5  4  1
3  5  2  3
4  5  3  4
2  5  1  2
VARIABLES  = "X","Y","Z", "DISPLACEMENT_X1", "DISPLACEMENT_Y1", "STRESS_XX", "STRESS_XY", "STRESS_YY", "STRESS_ZZ", "STRAIN_XX", "STRAIN_XY", "STRAIN_YY"
ZONE T="1.797693134862e+308s", N=5, E=4, F=FEPOINT, ET=QUADRILATERAL
STRANDID=1, SOLUTIONTIME=1.797693134862e+308
0.000000000000e+00 0.000000000000e+00 0.000000000000e+00 -1.000000000000e-04 3.619897829996e-05 -5.393762627250e+01 1.130496806136e+02 -1.290473555687e+02 -7.319399273646e+01 1.347945652477e-06 1.582695528591e-05 -3.909735398254e-06 
4.000000000000e+00 0.000000000000e+00 0.000000000000e+00 -1.000000000000e-04 -3.619892383988e-05 2.362562891442e+00 1.063942658404e+02 1.570333617674e+01 7.226359627271e+00 -3.404657715081e-07 1.489519721765e-05 5.933883584625e-07 
4.000000000000e+00 3.000000000000e+00 0.000000000000e+00 0.000000000000e+00 0.000000000000e+00 2.153081999243e+02 1.314537886792e+02 5.330158067051e+02 2.993296026518e+02 -5.881498190921e-06 1.840353041509e-05 1.635803428373e-05 
0.000000000000e+00 3.000000000000e+00 0.000000000000e+00 0.000000000000e+00 0.000000000000e+00 -1.887744222268e+02 1.381091123622e+02 -5.291946951455e+02 -2.871876469489e+02 6.888925730548e-06 1.933527573071e-05 -1.694049337376e-05 
2.000007028086e+00 1.500016891052e+00 0.000000000000e+00 -3.943342779390e-05 -7.749153373263e-11 -6.260235321104e+00 2.202820874206e+02 -2.737908885433e+01 -1.345572967017e+01 5.036846044348e-07 3.083949223888e-05 -9.746351428909e-07 
1  5  4  1
3  5  2  3
4  5  3  4
2  5  1  2
