VARIABLES  = "X","Y","Z", "PRESSURE1", "DISPLACEMENT_X1", "DISPLACEMENT_Y1", "STRESS_XX", "STRESS_XY", "STRESS_YY", "STRESS_ZZ", "STRAIN_XX", "STRAIN_XY", "STRAIN_YY"
ZONE T="0.000000000000e+00s", N=5, E=4, F=FEPOINT, ET=QUADRILATERAL
STRANDID=1, SOLUTIONTIME=0.000000000000e+00
0.000000000000e+00 0.000000000000e+00 0.000000000000e+00 0.000000000000e+00 0.000000000000e+00 0.000000000000e+00 0.000000000000e+00 0.000000000000e+00 0.000000000000e+00 0.000000000000e+00 0.000000000000e+00 0.000000000000e+00 0.000000000000e+00 
4.000000000000e+00 0.000000000000e+00 0.000000000000e+00 0.000000000000e+00 0.000000000000e+00 0.000000000000e+00 0.000000000000e+00 0.000000000000e+00 0.000000000000e+00 0.000000000000e+00 0.000000000000e+00 0.000000000000e+00 0.000000000000e+00 
4.000000000000e+00 3.000000000000e+00 0.000000000000e+00 0.000000000000e+00 0.000000000000e+00 0.000000000000e+00 0.000000000000e+00 0.000000000000e+00 0.000000000000e+00 0.000000000000e+00 0.000000000000e+00 0.000000000000e+00 0.000000000000e+00 
0.000000000000e+00 3.000000000000e+00 0.000000000000e+00 0.000000000000e+00 0.000000000000e+00 0.000000000000e+00 0.000000000000e+00 0.000000000000e+00 0.000000000000e+00 0.000000000000e+00 0.000000000000e+00 0.000000000000e+00 0.000000000000e+00 
2.000007028086e+00 1.500016891052e+00 0.000000000000e+00 0.000000000000e+00 0.000000000000e+00 0.000000000000e+00 0.000000000000e+00 0.000000000000e+00 0.000000000000e+00 0.000000000000e+00 0.000000000000e+00 0.000000000000e+00 0.000000000000e+00 
1  5  4  1
3  5  2  3
4  5  3  4
2  5  1  2
VARIABLES  = "X","Y","Z", "PRESSURE1", "DISPLACEMENT_X1", "DISPLACEMENT_Y1", "STRESS_XX", "STRESS_XY", "STRESS_YY", "STRESS_ZZ", "STRAIN_XX", "STRAIN_XY", "STRAIN_YY"
ZONE T="8.640000000000e+04s", N=5, E=4, F=FEPOINT, ET=QUADRILATERAL
STRANDID=1, SOLUTIONTIME=8.640000000000e+04
0.000000000000e+00 0.000000000000e+00 0.000000000000e+00 0.000000000000e+00 -1.000000000000e-04 -4.485063453179e-05 -1.571542012272e+02 -6.193822025792e+02 5.173262769202e+01 -4.216862941409e+01 -8.048990026920e-06 -8.671350836108e-05 6.573087997427e-06 
4.000000000000e+00 0.000000000000e+00 0.000000000000e+00 2.000000000000e+04 -1.000000000000e-04 -5.573980919903e-04 1.405614821218e+04 4.715317108295e+02 1.896329186270e+04 1.320777602995e+04 5.938605275610e-05 6.601443951612e-05 4.028861082923e-04 
4.000000000000e+00 3.000000000000e+00 0.000000000000e+00 6.307518541617e+02 0.000000000000e+00 0.000000000000e+00 2.649597759539e+03 -1.058887381923e+03 2.084324016324e+03 1.893568710345e+03 5.292203344355e-05 -1.482442334692e-04 1.335287141853e-05 
0.000000000000e+00 3.000000000000e+00 0.000000000000e+00 0.000000000000e+00 0.000000000000e+00 0.000000000000e+00 4.777445670066e+02 4.646125415474e+02 4.164557130653e+02 3.576801120288e+02 8.404511848448e-06 6.504575581663e-05 4.114292072559e-06 
2.000007028086e+00 1.500016891052e+00 0.000000000000e+00 4.505392028215e+03 -3.172726172958e-05 -4.143914602444e-05 4.591615351248e+03 4.800099993455e+02 3.923674959851e+03 3.406116124440e+03 8.298494587658e-05 6.720139990838e-05 3.622911847881e-05 
1  5  4  1
3  5  2  3
4  5  3  4
2  5  1  2
