 TITLE = "Time curves in points"
 VARIABLES = "TIME "  "PRESSURE1"  "PRESSURE2"  "PRESSURE_W"  "SATURATION1" SATURATION2  "VELOCITY_X1"  "VELOCITY_Y1"  "VELOCITY_X2"  "VELOCITY_Y2" 
 ZONE T="POINT=POINT0"
0.000000000000e+00 0.000000000000e+00 1.013250000000e+05 1.013250000000e+05 1.000000000000e+00 4.440892098501e-16 0.000000000000e+00 0.000000000000e+00 0.000000000000e+00 0.000000000000e+00 
1.000000000000e-03 0.000000000000e+00 1.013250000000e+05 1.013250000000e+05 1.000000000000e+00 0.000000000000e+00 -2.708071073379e-18 -2.618878270995e-04 -3.986681420110e-24 1.781853363846e-11 
2.000000000000e-03 0.000000000000e+00 1.013250000000e+05 1.013250000000e+05 1.000000000000e+00 0.000000000000e+00 1.166698622810e-18 -2.589451235984e-04 -4.546574029155e-23 3.750722385099e-11 
3.000000000000e-03 0.000000000000e+00 1.013250000000e+05 1.013250000000e+05 1.000000000000e+00 0.000000000000e+00 -7.904471180487e-18 -2.560413083571e-04 6.294942849349e-24 5.693572190397e-11 
4.000000000000e-03 0.000000000000e+00 1.013250000000e+05 1.013250000000e+05 1.000000000000e+00 1.110223024625e-16 1.041493332651e-17 -2.531758704173e-04 -3.923072079555e-23 7.610744523495e-11 
5.000000000000e-03 0.000000000000e+00 1.013250000000e+05 1.013250000000e+05 1.000000000000e+00 1.110223024625e-16 5.349742810808e-18 -2.503482023306e-04 2.826121139603e-23 9.502645690481e-11 
6.000000000000e-03 0.000000000000e+00 1.013250000000e+05 1.013250000000e+05 1.000000000000e+00 0.000000000000e+00 -2.444062808567e-18 -2.475578134451e-04 2.473679718974e-25 1.136960385454e-10 
7.000000000000e-03 0.000000000000e+00 1.013250000000e+05 1.013250000000e+05 1.000000000000e+00 0.000000000000e+00 5.726005717295e-18 -2.448041876886e-04 2.710098089645e-23 1.321196419377e-10 
8.000000000000e-03 0.000000000000e+00 1.013250000000e+05 1.013250000000e+05 1.000000000000e+00 0.000000000000e+00 4.173509746867e-19 -2.420868369961e-04 -1.682020132755e-23 1.503005315698e-10 
9.000000000000e-03 0.000000000000e+00 1.013250000000e+05 1.013250000000e+05 1.000000000000e+00 0.000000000000e+00 -1.210964848762e-18 -2.394051427881e-04 -6.757356176859e-23 1.682428451126e-10 
1.000000000000e-02 0.000000000000e+00 1.013250000000e+05 1.013250000000e+05 1.000000000000e+00 0.000000000000e+00 -2.466195920041e-18 -2.367587303941e-04 -3.891589116910e-23 1.859490884260e-10 
2.000000000000e-02 0.000000000000e+00 1.013250000000e+05 1.013250000000e+05 1.000000000000e+00 2.220446049250e-16 2.047255937358e-18 -2.133880921577e-04 9.723538231031e-24 3.423125737216e-10 
3.000000000000e-02 0.000000000000e+00 1.013250000000e+05 1.013250000000e+05 1.000000000000e+00 0.000000000000e+00 -3.697705212740e-18 -2.085146498679e-04 -4.226438695046e-23 3.749168195917e-10 
4.000000000000e-02 0.000000000000e+00 1.013250000000e+05 1.013250000000e+05 1.000000000000e+00 0.000000000000e+00 3.368886288777e-18 -2.038361027469e-04 -1.854072562942e-23 4.062166800808e-10 
5.000000000000e-02 0.000000000000e+00 1.013250000000e+05 1.013250000000e+05 1.000000000000e+00 0.000000000000e+00 4.358520801624e-18 -1.992840271437e-04 -1.062398809406e-23 4.366699378358e-10 
6.000000000000e-02 0.000000000000e+00 1.013250000000e+05 1.013250000000e+05 1.000000000000e+00 0.000000000000e+00 5.504674664417e-18 -1.948545330028e-04 -3.252433185677e-23 4.663026040298e-10 
7.000000000000e-02 0.000000000000e+00 1.013250000000e+05 1.013250000000e+05 1.000000000000e+00 0.000000000000e+00 -2.444062861033e-18 -1.905437859090e-04 -2.637466500931e-23 4.951403198773e-10 
8.000000000000e-02 0.000000000000e+00 1.013250000000e+05 1.013250000000e+05 1.000000000000e+00 1.110223024625e-16 -9.798384450511e-18 -1.863473899375e-04 -1.797154235485e-23 5.232124853513e-10 
9.000000000000e-02 0.000000000000e+00 1.013250000000e+05 1.013250000000e+05 1.000000000000e+00 0.000000000000e+00 -6.165489519854e-18 -1.822635970327e-04 -2.695153766657e-23 5.505307864419e-10 
1.000000000000e-01 0.000000000000e+00 1.013250000000e+05 1.013250000000e+05 1.000000000000e+00 1.110223024625e-16 -1.145042127168e-17 -1.782888898096e-04 1.402406517988e-23 5.771187488790e-10 
2.000000000000e-01 0.000000000000e+00 1.013250000000e+05 1.013250000000e+05 1.000000000000e+00 0.000000000000e+00 1.960307837813e-18 -1.470019664168e-04 -1.146569954698e-23 7.863583024997e-10 
3.000000000000e-01 0.000000000000e+00 1.013250000000e+05 1.013250000000e+05 1.000000000000e+00 1.110223024625e-16 -3.457412316781e-18 -1.316977788363e-04 3.325172231201e-23 8.886332145078e-10 
4.000000000000e-01 0.000000000000e+00 1.013250000000e+05 1.013250000000e+05 1.000000000000e+00 0.000000000000e+00 6.829400753390e-19 -1.204570926690e-04 -2.967310796318e-23 9.637049412433e-10 
5.000000000000e-01 0.000000000000e+00 1.013250000000e+05 1.013250000000e+05 1.000000000000e+00 0.000000000000e+00 4.865999157311e-18 -1.113500345907e-04 -2.422522596426e-24 1.024489180712e-09 
6.000000000000e-01 0.000000000000e+00 1.013250000000e+05 1.013250000000e+05 1.000000000000e+00 0.000000000000e+00 4.029692277155e-18 -1.037520546037e-04 1.824239941307e-23 1.075167288846e-09 
7.000000000000e-01 0.000000000000e+00 1.013250000000e+05 1.013250000000e+05 1.000000000000e+00 1.110223024625e-16 5.262786319436e-18 -9.733071419569e-05 1.765590532870e-23 1.117965722548e-09 
8.000000000000e-01 0.000000000000e+00 1.013250000000e+05 1.013250000000e+05 1.000000000000e+00 0.000000000000e+00 2.796591883635e-18 -9.175131423896e-05 -6.692524477484e-23 1.155125423128e-09 
9.000000000000e-01 0.000000000000e+00 1.013250000000e+05 1.013250000000e+05 1.000000000000e+00 0.000000000000e+00 3.324638090955e-18 -8.683691990625e-05 5.831413104096e-23 1.187831446616e-09 
1.000000000000e+00 0.000000000000e+00 1.013250000000e+05 1.013250000000e+05 1.000000000000e+00 0.000000000000e+00 4.315833193169e-18 -8.248123803420e-05 -2.038494799803e-25 1.216796010885e-09 
2.000000000000e+00 0.000000000000e+00 1.013250000000e+05 1.013250000000e+05 1.000000000000e+00 1.110223024625e-16 7.068165458041e-18 -6.089434092777e-05 4.622015981389e-23 1.359465893800e-09 
3.000000000000e+00 0.000000000000e+00 1.013250000000e+05 1.013250000000e+05 1.000000000000e+00 0.000000000000e+00 -1.717031702493e-18 -4.845737661582e-05 -6.361751073311e-23 1.441008496201e-09 
4.000000000000e+00 0.000000000000e+00 1.013250000000e+05 1.013250000000e+05 1.000000000000e+00 0.000000000000e+00 3.039515288375e-18 -4.094255651821e-05 8.521142082625e-23 1.489735201706e-09 
5.000000000000e+00 0.000000000000e+00 1.013250000000e+05 1.013250000000e+05 1.000000000000e+00 0.000000000000e+00 -8.081273528120e-18 -3.588810217540e-05 4.230838801970e-24 1.522109149110e-09 
6.000000000000e+00 0.000000000000e+00 1.013250000000e+05 1.013250000000e+05 1.000000000000e+00 0.000000000000e+00 5.069025565720e-19 -3.223658653071e-05 -9.057567908182e-23 1.545191172306e-09 
7.000000000000e+00 0.000000000000e+00 1.013250000000e+05 1.013250000000e+05 1.000000000000e+00 0.000000000000e+00 4.294301185590e-18 -2.953465314774e-05 -5.727718708328e-23 1.562002589981e-09 
8.000000000000e+00 0.000000000000e+00 1.013250000000e+05 1.013250000000e+05 1.000000000000e+00 0.000000000000e+00 2.642097485882e-18 -2.747590056306e-05 -8.749094801651e-23 1.574582988571e-09 
9.000000000000e+00 0.000000000000e+00 1.013250000000e+05 1.013250000000e+05 1.000000000000e+00 0.000000000000e+00 -1.629523007189e-18 -2.586216246991e-05 -1.975940417466e-23 1.584248667101e-09 
1.000000000000e+01 0.000000000000e+00 1.013250000000e+05 1.013250000000e+05 1.000000000000e+00 0.000000000000e+00 -2.203824480250e-20 -2.458707044342e-05 1.494841302867e-23 1.591702660043e-09 
1.100000000000e+01 0.000000000000e+00 1.013250000000e+05 1.013250000000e+05 1.000000000000e+00 0.000000000000e+00 4.139489076479e-18 -2.354503818806e-05 -3.593220857086e-23 1.597643877043e-09 
1.200000000000e+01 0.000000000000e+00 1.013250000000e+05 1.013250000000e+05 1.000000000000e+00 1.110223024625e-16 -7.948856763958e-18 -2.267688294330e-05 -2.291840570802e-23 1.602461012299e-09 
1.300000000000e+01 0.000000000000e+00 1.013250000000e+05 1.013250000000e+05 1.000000000000e+00 0.000000000000e+00 -3.434962123694e-18 -2.194200648335e-05 -5.756192370553e-24 1.606418814255e-09 
1.400000000000e+01 0.000000000000e+00 1.013250000000e+05 1.013250000000e+05 1.000000000000e+00 0.000000000000e+00 -4.976378430527e-18 -2.130548018761e-05 2.492136309591e-24 1.609744137824e-09 
1.500000000000e+01 0.000000000000e+00 1.013250000000e+05 1.013250000000e+05 1.000000000000e+00 0.000000000000e+00 -4.624945936232e-19 -2.074525818867e-05 -2.209935527340e-23 1.612577687117e-09 
1.600000000000e+01 0.000000000000e+00 1.013250000000e+05 1.013250000000e+05 1.000000000000e+00 2.220446049250e-16 -8.367143862922e-18 -2.024322036947e-05 -2.120042167564e-23 1.615033798289e-09 
1.700000000000e+01 0.000000000000e+00 1.013250000000e+05 1.013250000000e+05 1.000000000000e+00 1.110223024625e-16 6.055320711256e-18 -1.978813889650e-05 3.649276542824e-23 1.617180619475e-09 
1.800000000000e+01 0.000000000000e+00 1.013250000000e+05 1.013250000000e+05 1.000000000000e+00 2.220446049250e-16 5.944957762507e-18 -1.937139885995e-05 -1.165597145471e-23 1.619068710573e-09 
1.900000000000e+01 0.000000000000e+00 1.013250000000e+05 1.013250000000e+05 1.000000000000e+00 0.000000000000e+00 -3.060652785082e-18 -1.898664395079e-05 -2.883872192926e-23 1.620733432527e-09 
2.000000000000e+01 0.000000000000e+00 1.013250000000e+05 1.013250000000e+05 1.000000000000e+00 0.000000000000e+00 -6.430199365302e-18 -1.863051902702e-05 -7.041245698171e-23 1.622190047749e-09 
2.100000000000e+01 0.000000000000e+00 1.013250000000e+05 1.013250000000e+05 1.000000000000e+00 1.110223024625e-16 -5.130623089109e-18 -1.829687853260e-05 5.207257048965e-23 1.623472494538e-09 
2.200000000000e+01 0.000000000000e+00 1.013250000000e+05 1.013250000000e+05 1.000000000000e+00 0.000000000000e+00 -1.937414039266e-18 -1.798482748433e-05 -3.587117830560e-23 1.624579678283e-09 
2.300000000000e+01 0.000000000000e+00 1.013250000000e+05 1.013250000000e+05 1.000000000000e+00 2.220446049250e-16 9.203933472540e-18 -1.768830020908e-05 2.793107896801e-23 1.625545199683e-09 
2.400000000000e+01 0.000000000000e+00 1.013250000000e+05 1.013250000000e+05 1.000000000000e+00 0.000000000000e+00 -4.271758785196e-18 -1.740657098666e-05 4.421975627599e-23 1.626367235672e-09 
2.500000000000e+01 0.000000000000e+00 1.013250000000e+05 1.013250000000e+05 1.000000000000e+00 0.000000000000e+00 -4.227888714443e-18 -1.713815488976e-05 -1.286010029322e-23 1.627049391159e-09 
2.600000000000e+01 0.000000000000e+00 1.013250000000e+05 1.013250000000e+05 1.000000000000e+00 1.110223024625e-16 -3.303133577740e-18 -1.688205421461e-05 -4.189483608426e-23 1.627592431154e-09 
2.700000000000e+01 0.000000000000e+00 1.013250000000e+05 1.013250000000e+05 1.000000000000e+00 0.000000000000e+00 1.211113981415e-18 -1.663695388368e-05 -1.274539464700e-23 1.627999712492e-09 
2.800000000000e+01 0.000000000000e+00 1.013250000000e+05 1.013250000000e+05 1.000000000000e+00 1.110223024625e-16 -1.292641141531e-17 -1.640180465101e-05 -3.801575413187e-23 1.628273340044e-09 
2.900000000000e+01 0.000000000000e+00 1.013250000000e+05 1.013250000000e+05 1.000000000000e+00 0.000000000000e+00 7.420089238884e-18 -1.617699393840e-05 -3.557689091205e-23 1.628406383257e-09 
3.000000000000e+01 0.000000000000e+00 1.013250000000e+05 1.013250000000e+05 1.000000000000e+00 0.000000000000e+00 3.082569945591e-19 -1.596071413280e-05 -4.787900199837e-23 1.628407175810e-09 
3.100000000000e+01 0.000000000000e+00 1.013250000000e+05 1.013250000000e+05 1.000000000000e+00 2.220446049250e-16 -3.060678747054e-18 -1.575248035507e-05 -1.196978319023e-23 1.628275755984e-09 
3.200000000000e+01 0.000000000000e+00 1.013250000000e+05 1.013250000000e+05 1.000000000000e+00 0.000000000000e+00 1.030570421037e-17 -1.555191445601e-05 2.227639732252e-23 1.628012050092e-09 
3.300000000000e+01 0.000000000000e+00 1.013250000000e+05 1.013250000000e+05 1.000000000000e+00 0.000000000000e+00 9.048687278968e-18 -1.535853160868e-05 -3.978647147219e-23 1.627617272297e-09 
3.400000000000e+01 0.000000000000e+00 1.013250000000e+05 1.013250000000e+05 1.000000000000e+00 0.000000000000e+00 -7.640795822495e-18 -1.517170646500e-05 5.586035988217e-23 1.627094136526e-09 
3.500000000000e+01 0.000000000000e+00 1.013250000000e+05 1.013250000000e+05 1.000000000000e+00 0.000000000000e+00 -3.060691502790e-18 -1.499114127870e-05 -1.206563503299e-23 1.626443718244e-09 
3.600000000000e+01 0.000000000000e+00 1.013250000000e+05 1.013250000000e+05 1.000000000000e+00 0.000000000000e+00 -5.292129497858e-19 -1.481651206451e-05 7.280536937823e-23 1.625667796291e-09 
3.700000000000e+01 0.000000000000e+00 1.013250000000e+05 1.013250000000e+05 1.000000000000e+00 0.000000000000e+00 5.305688953856e-18 -1.464730922291e-05 8.786752547488e-23 1.624769888083e-09 
3.800000000000e+01 0.000000000000e+00 1.013250000000e+05 1.013250000000e+05 1.000000000000e+00 1.110223024625e-16 -1.011925851857e-18 -1.448323426035e-05 4.331983098633e-23 1.623752562040e-09 
3.900000000000e+01 0.000000000000e+00 1.013250000000e+05 1.013250000000e+05 1.000000000000e+00 0.000000000000e+00 7.441524273548e-18 -1.432408728399e-05 -1.068206078199e-23 1.622618150307e-09 
4.000000000000e+01 0.000000000000e+00 1.013250000000e+05 1.013250000000e+05 1.000000000000e+00 0.000000000000e+00 5.548453927093e-18 -1.417036623363e-05 4.383857584506e-23 1.621364715762e-09 
4.100000000000e+01 0.000000000000e+00 1.013250000000e+05 1.013250000000e+05 1.000000000000e+00 0.000000000000e+00 3.963706871663e-18 -1.402178159600e-05 1.732233147781e-23 1.619995855242e-09 
4.200000000000e+01 0.000000000000e+00 1.013250000000e+05 1.013250000000e+05 1.000000000000e+00 0.000000000000e+00 -8.101292487241e-18 -1.387675288553e-05 -1.032741476671e-23 1.618524079353e-09 
4.300000000000e+01 0.000000000000e+00 1.013250000000e+05 1.013250000000e+05 1.000000000000e+00 1.110223024625e-16 -2.774193853588e-18 -1.373548946691e-05 -3.271971758737e-23 1.616950154391e-09 
4.400000000000e+01 0.000000000000e+00 1.013250000000e+05 1.013250000000e+05 1.000000000000e+00 0.000000000000e+00 -9.907149379971e-18 -1.359790730793e-05 -5.283323150781e-23 1.615277013295e-09 
4.500000000000e+01 0.000000000000e+00 1.013250000000e+05 1.013250000000e+05 1.000000000000e+00 0.000000000000e+00 -3.190796453648e-18 -1.346389728681e-05 -1.180325746475e-22 1.613507941773e-09 
4.600000000000e+01 0.000000000000e+00 1.013250000000e+05 1.013250000000e+05 1.000000000000e+00 3.330669073875e-16 -7.046197605504e-18 -1.333329547061e-05 1.092645076242e-22 1.611646761500e-09 
4.700000000000e+01 0.000000000000e+00 1.013250000000e+05 1.013250000000e+05 1.000000000000e+00 2.220446049250e-16 1.297870492037e-18 -1.320597894650e-05 7.837034523405e-23 1.609697174307e-09 
4.800000000000e+01 0.000000000000e+00 1.013250000000e+05 1.013250000000e+05 1.000000000000e+00 0.000000000000e+00 -4.537075980691e-18 -1.308204190476e-05 8.929721037066e-23 1.607661569912e-09 
4.900000000000e+01 0.000000000000e+00 1.013250000000e+05 1.013250000000e+05 1.000000000000e+00 0.000000000000e+00 -1.232941722531e-17 -1.296147629027e-05 -7.628189753375e-24 1.605543130496e-09 
5.000000000000e+01 0.000000000000e+00 1.013250000000e+05 1.013250000000e+05 1.000000000000e+00 0.000000000000e+00 -4.222829403796e-18 -1.284410048197e-05 -5.271194845760e-23 1.603346273681e-09 
5.100000000000e+01 0.000000000000e+00 1.013250000000e+05 1.013250000000e+05 1.000000000000e+00 0.000000000000e+00 3.103882063950e-18 -1.272981604483e-05 -5.227447520450e-23 1.601074895747e-09 
5.200000000000e+01 0.000000000000e+00 1.013250000000e+05 1.013250000000e+05 1.000000000000e+00 0.000000000000e+00 -3.562833815150e-18 -1.261900283908e-05 -7.764273474694e-23 1.598729699305e-09 
5.300000000000e+01 0.000000000000e+00 1.013250000000e+05 1.013250000000e+05 1.000000000000e+00 0.000000000000e+00 8.171583657031e-18 -1.251076811609e-05 -6.268663899058e-23 1.596319842694e-09 
5.400000000000e+01 0.000000000000e+00 1.013250000000e+05 1.013250000000e+05 1.000000000000e+00 0.000000000000e+00 -7.289997150694e-18 -1.240527828223e-05 -2.565017062908e-23 1.593847354886e-09 
5.500000000000e+01 0.000000000000e+00 1.013250000000e+05 1.013250000000e+05 1.000000000000e+00 0.000000000000e+00 -9.447651330023e-18 -1.230247789916e-05 -7.596151247324e-24 1.591315694695e-09 
5.600000000000e+01 0.000000000000e+00 1.013250000000e+05 1.013250000000e+05 1.000000000000e+00 0.000000000000e+00 6.378978699556e-19 -1.220221506307e-05 5.657754786462e-23 1.588728924728e-09 
5.700000000000e+01 0.000000000000e+00 1.013250000000e+05 1.013250000000e+05 1.000000000000e+00 1.110223024625e-16 -7.418773106361e-18 -1.210398409743e-05 7.742718483587e-23 1.586093441515e-09 
5.800000000000e+01 0.000000000000e+00 1.013250000000e+05 1.013250000000e+05 1.000000000000e+00 0.000000000000e+00 6.408432569252e-18 -1.200774951883e-05 -4.247663336562e-24 1.583412493970e-09 
5.900000000000e+01 0.000000000000e+00 1.013250000000e+05 1.013250000000e+05 1.000000000000e+00 0.000000000000e+00 -1.129721595313e-17 -1.191345316575e-05 -1.455161354527e-22 1.580689488295e-09 
6.000000000000e+01 0.000000000000e+00 1.013250000000e+05 1.013250000000e+05 1.000000000000e+00 0.000000000000e+00 1.395522711567e-17 -1.182102596051e-05 7.778856967369e-23 1.577927896364e-09 
6.100000000000e+01 0.000000000000e+00 1.013250000000e+05 1.013250000000e+05 1.000000000000e+00 0.000000000000e+00 6.323198448009e-18 -1.173042185554e-05 9.053770713896e-23 1.575131014331e-09 
6.200000000000e+01 0.000000000000e+00 1.013250000000e+05 1.013250000000e+05 1.000000000000e+00 0.000000000000e+00 2.655933190785e-19 -1.164155542897e-05 8.795011206318e-23 1.572302346511e-09 
6.300000000000e+01 0.000000000000e+00 1.013250000000e+05 1.013250000000e+05 1.000000000000e+00 0.000000000000e+00 -1.339284636252e-18 -1.155435115093e-05 9.353812167974e-23 1.569445238772e-09 
6.400000000000e+01 0.000000000000e+00 1.013250000000e+05 1.013250000000e+05 1.000000000000e+00 0.000000000000e+00 -5.738953635148e-19 -1.146943478630e-05 2.465102589080e-23 1.566558236484e-09 
6.500000000000e+01 0.000000000000e+00 1.013250000000e+05 1.013250000000e+05 1.000000000000e+00 0.000000000000e+00 4.112914966438e-18 -1.138570538966e-05 1.473986090093e-22 1.563651237260e-09 
6.600000000000e+01 0.000000000000e+00 1.013250000000e+05 1.013250000000e+05 1.000000000000e+00 0.000000000000e+00 4.973748512689e-18 -1.130387438645e-05 1.480481196232e-22 1.560721854322e-09 
6.700000000000e+01 0.000000000000e+00 1.013250000000e+05 1.013250000000e+05 1.000000000000e+00 0.000000000000e+00 -4.197396833498e-18 -1.122325801014e-05 1.624158884780e-22 1.557776819275e-09 
6.800000000000e+01 0.000000000000e+00 1.013250000000e+05 1.013250000000e+05 1.000000000000e+00 0.000000000000e+00 6.396920547717e-18 -1.114391809683e-05 1.109615412798e-22 1.554817718635e-09 
6.900000000000e+01 0.000000000000e+00 1.013250000000e+05 1.013250000000e+05 1.000000000000e+00 1.110223024625e-16 -1.246713663242e-17 -1.106588717945e-05 -6.463452271112e-23 1.551846216177e-09 
7.000000000000e+01 0.000000000000e+00 1.013250000000e+05 1.013250000000e+05 1.000000000000e+00 0.000000000000e+00 -3.964365067016e-18 -1.098916165013e-05 1.133334833717e-23 1.548864155309e-09 
7.100000000000e+01 0.000000000000e+00 1.013250000000e+05 1.013250000000e+05 1.000000000000e+00 1.110223024625e-16 -5.526478753410e-18 -1.091369993603e-05 -1.011438020415e-22 1.545873621907e-09 
7.200000000000e+01 0.000000000000e+00 1.013250000000e+05 1.013250000000e+05 1.000000000000e+00 0.000000000000e+00 -4.251540554353e-18 -1.083947043908e-05 -3.962247804565e-23 1.542876655862e-09 
7.300000000000e+01 0.000000000000e+00 1.013250000000e+05 1.013250000000e+05 1.000000000000e+00 1.110223024625e-16 -1.146636065259e-17 -1.076647387219e-05 -8.825772113873e-23 1.539875107712e-09 
7.400000000000e+01 0.000000000000e+00 1.013250000000e+05 1.013250000000e+05 1.000000000000e+00 0.000000000000e+00 -1.294411940492e-17 -1.069465866466e-05 -1.008978625702e-23 1.536871192366e-09 
7.500000000000e+01 0.000000000000e+00 1.013250000000e+05 1.013250000000e+05 1.000000000000e+00 0.000000000000e+00 -7.599789779350e-18 -1.062399139082e-05 -5.723619896943e-23 1.533866980567e-09 
7.600000000000e+01 0.000000000000e+00 1.013250000000e+05 1.013250000000e+05 1.000000000000e+00 0.000000000000e+00 -2.507470850195e-18 -1.055448713094e-05 -1.437978302356e-22 1.530864159459e-09 
7.700000000000e+01 0.000000000000e+00 1.013250000000e+05 1.013250000000e+05 1.000000000000e+00 1.110223024625e-16 4.910057139315e-18 -1.048607981634e-05 -1.386383248499e-22 1.527864848992e-09 
7.800000000000e+01 0.000000000000e+00 1.013250000000e+05 1.013250000000e+05 1.000000000000e+00 0.000000000000e+00 -7.088286375846e-18 -1.041876290106e-05 -1.401628682592e-22 1.524870621353e-09 
7.900000000000e+01 0.000000000000e+00 1.013250000000e+05 1.013250000000e+05 1.000000000000e+00 0.000000000000e+00 3.943684813498e-18 -1.035248905971e-05 -8.696821177841e-23 1.521883137313e-09 
8.000000000000e+01 0.000000000000e+00 1.013250000000e+05 1.013250000000e+05 1.000000000000e+00 0.000000000000e+00 -3.243840117150e-18 -1.028721298167e-05 -3.684577717793e-22 1.518903840005e-09 
8.100000000000e+01 0.000000000000e+00 1.013250000000e+05 1.013250000000e+05 1.000000000000e+00 0.000000000000e+00 6.038474055445e-18 -1.022325798662e-05 1.255262895334e-22 1.515931503481e-09 
8.200000000000e+01 0.000000000000e+00 1.013250000000e+05 1.013250000000e+05 1.000000000000e+00 0.000000000000e+00 2.935949102876e-18 -1.016006957016e-05 2.103517780752e-22 1.512970587480e-09 
8.300000000000e+01 0.000000000000e+00 1.013250000000e+05 1.013250000000e+05 1.000000000000e+00 0.000000000000e+00 -6.759100140120e-18 -1.009781447870e-05 1.937554781058e-22 1.510020636130e-09 
8.400000000000e+01 0.000000000000e+00 1.013250000000e+05 1.013250000000e+05 1.000000000000e+00 0.000000000000e+00 8.137314094916e-18 -1.003646319822e-05 1.235275210084e-22 1.507082494630e-09 
8.500000000000e+01 0.000000000000e+00 1.013250000000e+05 1.013250000000e+05 1.000000000000e+00 0.000000000000e+00 9.037572190863e-19 -9.975995128835e-06 5.985937637864e-23 1.504157024851e-09 
8.600000000000e+01 0.000000000000e+00 1.013250000000e+05 1.013250000000e+05 1.000000000000e+00 0.000000000000e+00 1.259359822758e-17 -9.916413151045e-06 9.067274021584e-23 1.501245053581e-09 
8.700000000000e+01 0.000000000000e+00 1.013250000000e+05 1.013250000000e+05 1.000000000000e+00 0.000000000000e+00 -2.667293882519e-19 -9.857703884392e-06 -1.728614955472e-22 1.498347643676e-09 
8.800000000000e+01 0.000000000000e+00 1.013250000000e+05 1.013250000000e+05 1.000000000000e+00 0.000000000000e+00 3.288679597023e-19 -9.799809603059e-06 1.211721137196e-22 1.495466257957e-09 
8.900000000000e+01 0.000000000000e+00 1.013250000000e+05 1.013250000000e+05 1.000000000000e+00 0.000000000000e+00 -3.908725303719e-19 -9.742744771634e-06 -1.386698424649e-22 1.492601926165e-09 
9.000000000000e+01 0.000000000000e+00 1.013250000000e+05 1.013250000000e+05 1.000000000000e+00 0.000000000000e+00 -1.059993292098e-17 -9.686501749141e-06 -2.171369523480e-22 1.489755801635e-09 
9.100000000000e+01 0.000000000000e+00 1.013250000000e+05 1.013250000000e+05 1.000000000000e+00 0.000000000000e+00 -1.105266355100e-17 -9.631060815991e-06 -3.930632202970e-24 1.486929035929e-09 
9.200000000000e+01 0.000000000000e+00 1.013250000000e+05 1.013250000000e+05 1.000000000000e+00 0.000000000000e+00 -3.122851286778e-18 -9.576905181275e-06 2.402752681741e-22 1.484119278461e-09 
9.300000000000e+01 0.000000000000e+00 1.013250000000e+05 1.013250000000e+05 1.000000000000e+00 2.220446049250e-16 -6.697197809474e-18 -9.523182110139e-06 1.276501490438e-22 1.481332897228e-09 
9.400000000000e+01 0.000000000000e+00 1.013250000000e+05 1.013250000000e+05 1.000000000000e+00 0.000000000000e+00 8.566775810026e-18 -9.470196460393e-06 9.334005125061e-23 1.478568308325e-09 
9.500000000000e+01 0.000000000000e+00 1.013250000000e+05 1.013250000000e+05 1.000000000000e+00 0.000000000000e+00 7.703959146341e-18 -9.417905618859e-06 1.082010024901e-22 1.475826012579e-09 
9.600000000000e+01 0.000000000000e+00 1.013250000000e+05 1.013250000000e+05 1.000000000000e+00 1.110223024625e-16 -8.546290977462e-18 -9.366306530153e-06 1.185715910557e-22 1.473106015286e-09 
9.700000000000e+01 0.000000000000e+00 1.013250000000e+05 1.013250000000e+05 1.000000000000e+00 0.000000000000e+00 3.779880321676e-18 -9.315374069228e-06 -1.364503807064e-22 1.470408242808e-09 
9.800000000000e+01 0.000000000000e+00 1.013250000000e+05 1.013250000000e+05 1.000000000000e+00 0.000000000000e+00 1.561252436931e-18 -9.265382556368e-06 9.086166109174e-23 1.467730451014e-09 
9.900000000000e+01 0.000000000000e+00 1.013250000000e+05 1.013250000000e+05 1.000000000000e+00 1.110223024625e-16 1.035439974628e-17 -9.215893446196e-06 1.415961079718e-22 1.465075081341e-09 
1.000000000000e+02 0.000000000000e+00 1.013250000000e+05 1.013250000000e+05 1.000000000000e+00 0.000000000000e+00 -3.369216120448e-18 -9.167033770375e-06 -3.205392527021e-23 1.462440874343e-09 
1.010000000000e+02 0.000000000000e+00 1.013250000000e+05 1.013250000000e+05 1.000000000000e+00 0.000000000000e+00 -8.836029349903e-19 -9.118808177207e-06 -1.223500571968e-22 1.459827587672e-09 
1.020000000000e+02 0.000000000000e+00 1.013250000000e+05 1.013250000000e+05 1.000000000000e+00 0.000000000000e+00 1.581544391043e-18 -9.071189711872e-06 1.456993366959e-22 1.457235475916e-09 
1.030000000000e+02 0.000000000000e+00 1.013250000000e+05 1.013250000000e+05 1.000000000000e+00 0.000000000000e+00 -2.752934988996e-18 -9.024205870006e-06 -5.188833434881e-24 1.454664727613e-09 
1.040000000000e+02 0.000000000000e+00 1.013250000000e+05 1.013250000000e+05 1.000000000000e+00 0.000000000000e+00 5.485520272557e-18 -8.977823398301e-06 5.076949793190e-24 1.452116174549e-09 
1.050000000000e+02 0.000000000000e+00 1.013250000000e+05 1.013250000000e+05 1.000000000000e+00 1.110223024625e-16 -8.299532321119e-18 -8.932048185736e-06 1.224571605104e-22 1.449590534281e-09 
1.060000000000e+02 0.000000000000e+00 1.013250000000e+05 1.013250000000e+05 1.000000000000e+00 0.000000000000e+00 -5.485585384332e-18 -8.886853332841e-06 2.915332276588e-22 1.447088776945e-09 
1.070000000000e+02 0.000000000000e+00 1.013250000000e+05 1.013250000000e+05 1.000000000000e+00 0.000000000000e+00 3.944913688425e-18 -8.842250775692e-06 4.676792270391e-23 1.444611544171e-09 
1.080000000000e+02 0.000000000000e+00 1.013250000000e+05 1.013250000000e+05 1.000000000000e+00 0.000000000000e+00 -6.738493182961e-18 -8.798185638670e-06 5.827921246976e-23 1.442159760998e-09 
1.090000000000e+02 0.000000000000e+00 1.013250000000e+05 1.013250000000e+05 1.000000000000e+00 0.000000000000e+00 -1.828560190962e-18 -8.754687527430e-06 -1.129818232856e-22 1.439733572874e-09 
1.100000000000e+02 0.000000000000e+00 1.013250000000e+05 1.013250000000e+05 1.000000000000e+00 0.000000000000e+00 4.172167364912e-18 -8.711742724545e-06 1.575407172401e-22 1.437333161627e-09 
1.110000000000e+02 0.000000000000e+00 1.013250000000e+05 1.013250000000e+05 1.000000000000e+00 0.000000000000e+00 8.895462042660e-18 -8.669337632007e-06 -4.263016580601e-23 1.434958444967e-09 
1.120000000000e+02 0.000000000000e+00 1.013250000000e+05 1.013250000000e+05 1.000000000000e+00 0.000000000000e+00 -3.697608022369e-18 -8.627457940440e-06 -4.075206332324e-23 1.432609089679e-09 
1.130000000000e+02 0.000000000000e+00 1.013250000000e+05 1.013250000000e+05 1.000000000000e+00 0.000000000000e+00 2.404475814752e-18 -8.586106153683e-06 1.597490553374e-22 1.430284419661e-09 
1.140000000000e+02 0.000000000000e+00 1.013250000000e+05 1.013250000000e+05 1.000000000000e+00 2.220446049250e-16 3.945175492019e-18 -8.545251311285e-06 1.387159413240e-22 1.427983775042e-09 
1.150000000000e+02 0.000000000000e+00 1.013250000000e+05 1.013250000000e+05 1.000000000000e+00 0.000000000000e+00 -4.253341445647e-18 -8.504910232002e-06 -4.050167239477e-23 1.425706011468e-09 
1.160000000000e+02 0.000000000000e+00 1.013250000000e+05 1.013250000000e+05 1.000000000000e+00 3.330669073875e-16 3.369274637480e-18 -8.465079092190e-06 1.064504950903e-22 1.423449984857e-09 
1.170000000000e+02 0.000000000000e+00 1.013250000000e+05 1.013250000000e+05 1.000000000000e+00 0.000000000000e+00 -4.909915987160e-18 -8.425922237143e-06 7.877322944329e-23 1.421213402717e-09 
1.180000000000e+02 0.000000000000e+00 1.013250000000e+05 1.013250000000e+05 1.000000000000e+00 0.000000000000e+00 -3.282349849845e-19 -8.387102903064e-06 1.349683685333e-22 1.418997484592e-09 
1.190000000000e+02 0.000000000000e+00 1.013250000000e+05 1.013250000000e+05 1.000000000000e+00 0.000000000000e+00 -1.222454606028e-17 -8.348731835309e-06 2.459236411385e-23 1.416800815375e-09 
1.200000000000e+02 0.000000000000e+00 1.013250000000e+05 1.013250000000e+05 1.000000000000e+00 0.000000000000e+00 -6.965481906241e-19 -8.310831890010e-06 3.944296540056e-24 1.414623066691e-09 
