 TITLE = "Profiles along polylines"
 VARIABLES = "DIST" "PRESSURE1" "PRESSURE2" "PRESSURE_W" "SATURATION1" SATURATION2 "VELOCITY_X1" "VELOCITY_Y1" "VELOCITY_X2" "VELOCITY_Y2" 
 ZONE T="TIME=0.000000000000e+00"
0.000000000000e+00 0.000000000000e+00 1.013250000000e+05 1.013250000000e+05 1.000000000000e+00 4.440892098501e-16 0.000000000000e+00 0.000000000000e+00 0.000000000000e+00 0.000000000000e+00 
4.166666666667e-02 0.000000000000e+00 1.013250000000e+05 1.013250000000e+05 1.000000000000e+00 4.440892098501e-16 0.000000000000e+00 0.000000000000e+00 0.000000000000e+00 0.000000000000e+00 
8.333333333333e-02 0.000000000000e+00 1.013250000000e+05 1.013250000000e+05 1.000000000000e+00 4.440892098501e-16 0.000000000000e+00 0.000000000000e+00 0.000000000000e+00 0.000000000000e+00 
1.250000000000e-01 0.000000000000e+00 1.013250000000e+05 1.013250000000e+05 1.000000000000e+00 4.440892098501e-16 0.000000000000e+00 0.000000000000e+00 0.000000000000e+00 0.000000000000e+00 
1.666666666667e-01 0.000000000000e+00 1.013250000000e+05 1.013250000000e+05 1.000000000000e+00 4.440892098501e-16 0.000000000000e+00 0.000000000000e+00 0.000000000000e+00 0.000000000000e+00 
2.083333333333e-01 0.000000000000e+00 1.013250000000e+05 1.013250000000e+05 1.000000000000e+00 4.440892098501e-16 0.000000000000e+00 0.000000000000e+00 0.000000000000e+00 0.000000000000e+00 
2.500000000000e-01 0.000000000000e+00 1.013250000000e+05 1.013250000000e+05 1.000000000000e+00 4.440892098501e-16 0.000000000000e+00 0.000000000000e+00 0.000000000000e+00 0.000000000000e+00 
2.916666666667e-01 0.000000000000e+00 1.013250000000e+05 1.013250000000e+05 1.000000000000e+00 4.440892098501e-16 0.000000000000e+00 0.000000000000e+00 0.000000000000e+00 0.000000000000e+00 
3.333333333333e-01 0.000000000000e+00 1.013250000000e+05 1.013250000000e+05 1.000000000000e+00 4.440892098501e-16 0.000000000000e+00 0.000000000000e+00 0.000000000000e+00 0.000000000000e+00 
3.750000000000e-01 0.000000000000e+00 1.013250000000e+05 1.013250000000e+05 1.000000000000e+00 4.440892098501e-16 0.000000000000e+00 0.000000000000e+00 0.000000000000e+00 0.000000000000e+00 
4.166666666667e-01 0.000000000000e+00 1.013250000000e+05 1.013250000000e+05 1.000000000000e+00 4.440892098501e-16 0.000000000000e+00 0.000000000000e+00 0.000000000000e+00 0.000000000000e+00 
4.583333333333e-01 0.000000000000e+00 1.013250000000e+05 1.013250000000e+05 1.000000000000e+00 4.440892098501e-16 0.000000000000e+00 0.000000000000e+00 0.000000000000e+00 0.000000000000e+00 
5.000000000000e-01 0.000000000000e+00 1.013250000000e+05 1.013250000000e+05 1.000000000000e+00 4.440892098501e-16 0.000000000000e+00 0.000000000000e+00 0.000000000000e+00 0.000000000000e+00 
5.416666666667e-01 0.000000000000e+00 1.013250000000e+05 1.013250000000e+05 1.000000000000e+00 4.440892098501e-16 0.000000000000e+00 0.000000000000e+00 0.000000000000e+00 0.000000000000e+00 
5.833333333333e-01 0.000000000000e+00 1.013250000000e+05 1.013250000000e+05 1.000000000000e+00 4.440892098501e-16 0.000000000000e+00 0.000000000000e+00 0.000000000000e+00 0.000000000000e+00 
6.250000000000e-01 0.000000000000e+00 1.013250000000e+05 1.013250000000e+05 1.000000000000e+00 4.440892098501e-16 0.000000000000e+00 0.000000000000e+00 0.000000000000e+00 0.000000000000e+00 
6.666666666667e-01 0.000000000000e+00 1.013250000000e+05 1.013250000000e+05 1.000000000000e+00 4.440892098501e-16 0.000000000000e+00 0.000000000000e+00 0.000000000000e+00 0.000000000000e+00 
7.083333333333e-01 0.000000000000e+00 1.013250000000e+05 1.013250000000e+05 1.000000000000e+00 4.440892098501e-16 0.000000000000e+00 0.000000000000e+00 0.000000000000e+00 0.000000000000e+00 
7.500000000000e-01 0.000000000000e+00 1.013250000000e+05 1.013250000000e+05 1.000000000000e+00 4.440892098501e-16 0.000000000000e+00 0.000000000000e+00 0.000000000000e+00 0.000000000000e+00 
7.916666666667e-01 0.000000000000e+00 1.013250000000e+05 1.013250000000e+05 1.000000000000e+00 4.440892098501e-16 0.000000000000e+00 0.000000000000e+00 0.000000000000e+00 0.000000000000e+00 
8.333333333333e-01 0.000000000000e+00 1.013250000000e+05 1.013250000000e+05 1.000000000000e+00 4.440892098501e-16 0.000000000000e+00 0.000000000000e+00 0.000000000000e+00 0.000000000000e+00 
8.750000000000e-01 0.000000000000e+00 1.013250000000e+05 1.013250000000e+05 1.000000000000e+00 4.440892098501e-16 0.000000000000e+00 0.000000000000e+00 0.000000000000e+00 0.000000000000e+00 
9.166666666667e-01 0.000000000000e+00 1.013250000000e+05 1.013250000000e+05 1.000000000000e+00 4.440892098501e-16 0.000000000000e+00 0.000000000000e+00 0.000000000000e+00 0.000000000000e+00 
9.583333333333e-01 0.000000000000e+00 1.013250000000e+05 1.013250000000e+05 1.000000000000e+00 4.440892098501e-16 0.000000000000e+00 0.000000000000e+00 0.000000000000e+00 0.000000000000e+00 
1.000000000000e+00 0.000000000000e+00 1.013250000000e+05 1.013250000000e+05 1.000000000000e+00 3.330669073875e-16 0.000000000000e+00 0.000000000000e+00 0.000000000000e+00 0.000000000000e+00 
 TITLE = "Profiles along polylines"
 VARIABLES = "DIST" "PRESSURE1" "PRESSURE2" "PRESSURE_W" "SATURATION1" SATURATION2 "VELOCITY_X1" "VELOCITY_Y1" "VELOCITY_X2" "VELOCITY_Y2" 
 ZONE T="TIME=1.000000000000e-03"
0.000000000000e+00 0.000000000000e+00 1.013250000000e+05 1.013250000000e+05 1.000000000000e+00 0.000000000000e+00 -3.610761431172e-18 -2.618878265619e-04 3.709857347220e-23 1.781322122758e-11 
4.166666666667e-02 1.262945601986e-07 1.013203978806e+05 1.013203978805e+05 1.000000000000e+00 4.773959005888e-14 -7.015369991372e-16 -2.618878262648e-04 -1.927791785364e-21 1.781249355858e-11 
8.333333333333e-02 1.272903839857e-07 1.013157957602e+05 1.013157957601e+05 1.000000000000e+00 4.818367926873e-14 -1.122611037394e-16 -2.618878256684e-04 5.117148716310e-21 1.781178561039e-11 
1.250000000000e-01 1.281383170130e-07 1.013111936389e+05 1.013111936387e+05 1.000000000000e+00 4.862776847858e-14 2.282547010292e-16 -2.618878250682e-04 9.610470709826e-21 1.781107740806e-11 
1.666666666667e-01 1.287720175131e-07 1.013065915166e+05 1.013065915165e+05 1.000000000000e+00 4.884981308351e-14 4.820799821758e-17 -2.618878244643e-04 8.801064097860e-21 1.781036922002e-11 
2.083333333333e-01 1.293670925663e-07 1.013019893934e+05 1.013019893933e+05 1.000000000000e+00 4.896083538597e-14 -6.327026737436e-16 -2.618878238568e-04 4.403497221311e-21 1.780966104657e-11 
2.500000000000e-01 1.300475841937e-07 1.012973872692e+05 1.012973872691e+05 1.000000000000e+00 4.929390229336e-14 -5.969646751790e-16 -2.618878232461e-04 6.690010244082e-21 1.780895288552e-11 
2.916666666667e-01 1.305217298422e-07 1.012927851441e+05 1.012927851440e+05 1.000000000000e+00 4.940492459582e-14 9.856191135527e-16 -2.618878226344e-04 2.093990437057e-20 1.780824472369e-11 
3.333333333333e-01 1.303137622650e-07 1.012881830181e+05 1.012881830180e+05 1.000000000000e+00 4.929390229336e-14 2.350883844373e-15 -2.618878220240e-04 3.045191218219e-20 1.780753654411e-11 
3.750000000000e-01 1.295962353074e-07 1.012835808911e+05 1.012835808910e+05 1.000000000000e+00 4.896083538597e-14 4.078268401835e-16 -2.618878214145e-04 1.142919877611e-20 1.780682834708e-11 
4.166666666667e-01 1.292498252811e-07 1.012789787632e+05 1.012789787631e+05 1.000000000000e+00 4.884981308351e-14 -2.943975920588e-15 -2.618878208035e-04 -1.702902028665e-20 1.780612014840e-11 
4.583333333333e-01 1.295435322592e-07 1.012743766344e+05 1.012743766342e+05 1.000000000000e+00 4.907185768843e-14 -1.412885329086e-15 -2.618878201925e-04 -1.984496046737e-21 1.780541194237e-11 
5.000000000000e-01 1.295002645935e-07 1.012697745045e+05 1.012697745044e+05 1.000000000000e+00 4.929390229336e-14 4.583145657009e-15 -2.618878195869e-04 4.849853836367e-20 1.780470369391e-11 
5.416666666667e-01 1.284723631419e-07 1.012651723738e+05 1.012651723737e+05 1.000000000000e+00 4.862776847858e-14 4.470721229377e-15 -2.618878189871e-04 4.318152809732e-20 1.780399539711e-11 
5.833333333333e-01 1.272556021971e-07 1.012605702422e+05 1.012605702420e+05 1.000000000000e+00 4.840572387366e-14 -3.694089661221e-15 -2.618878183859e-04 -2.968049186003e-20 1.780328709626e-11 
6.250000000000e-01 1.267033861970e-07 1.012559681096e+05 1.012559681094e+05 1.000000000000e+00 4.796163466381e-14 -5.488421143106e-15 -2.618878177824e-04 -4.485838014865e-20 1.780257880063e-11 
6.666666666667e-01 1.268006924454e-07 1.012513659761e+05 1.012513659759e+05 1.000000000000e+00 4.818367926873e-14 2.877114059620e-15 -2.618878171847e-04 2.826749849348e-20 1.780187045709e-11 
7.083333333333e-01 1.272374868892e-07 1.012467638416e+05 1.012467638415e+05 1.000000000000e+00 4.829470157119e-14 5.421129275529e-15 -2.618878165939e-04 5.112451417801e-20 1.780116206093e-11 
7.500000000000e-01 1.270824926080e-07 1.012421617063e+05 1.012421617062e+05 1.000000000000e+00 4.818367926873e-14 -6.498853231987e-16 -2.618878160010e-04 -3.139712372776e-21 1.780045367267e-11 
7.916666666667e-01 1.256532059951e-07 1.012375595700e+05 1.012375595699e+05 1.000000000000e+00 4.762856775642e-14 -2.342249987918e-15 -2.618878154058e-04 -2.198843659467e-20 1.779974528845e-11 
8.333333333333e-01 1.247017212502e-07 1.012329574328e+05 1.012329574327e+05 1.000000000000e+00 4.729550084903e-14 6.438613149991e-16 -2.618878148177e-04 1.840738413564e-21 1.779903659754e-11 
8.750000000000e-01 2.380779510646e-07 1.012283552949e+05 1.012283552946e+05 9.999999999999e-01 9.003908729710e-14 6.305668641417e-15 -2.618878139818e-04 4.155606247770e-20 1.779808181897e-11 
9.166666666667e-01 1.148372163778e-04 1.012237532697e+05 1.012237531549e+05 9.999999999565e-01 4.352440630129e-11 1.430539767324e-14 -2.618875496180e-04 9.601322647395e-20 1.755362949769e-11 
9.583333333333e-01 1.135752684528e-01 1.012192637762e+05 1.012191502009e+05 9.999999569538e-01 4.304616263440e-08 1.491302703473e-14 -2.616262814547e-04 1.020016761417e-19 -2.213063189990e-10 
1.000000000000e+00 1.112582487378e+02 1.013250000000e+05 1.012137417513e+05 9.999578320111e-01 4.216798885426e-05 3.563827649610e-15 -2.613420609512e-04 1.963225895554e-22 -4.604016186252e-10 
 TITLE = "Profiles along polylines"
 VARIABLES = "DIST" "PRESSURE1" "PRESSURE2" "PRESSURE_W" "SATURATION1" SATURATION2 "VELOCITY_X1" "VELOCITY_Y1" "VELOCITY_X2" "VELOCITY_Y2" 
 ZONE T="TIME=5.000000000000e+00"
0.000000000000e+00 0.000000000000e+00 1.013250000000e+05 1.013250000000e+05 1.000000000000e+00 0.000000000000e+00 -1.497193743046e-18 -3.588814064162e-05 1.168904247735e-22 1.521593740135e-09 
4.166666666667e-02 1.799448833595e+00 1.009734323819e+05 1.009716329331e+05 9.999993179909e-01 6.820091026372e-07 -3.651270875361e-16 -3.588732689055e-05 1.066770500608e-19 1.518024101577e-09 
8.333333333333e-02 2.812276213104e+00 1.006210757903e+05 1.006182635141e+05 9.999989341192e-01 1.065880807394e-06 -3.990633476022e-16 -3.588518131541e-05 1.466421946998e-20 1.515452071720e-09 
1.250000000000e-01 3.355287009490e+00 1.002682452017e+05 1.002648899147e+05 9.999987283127e-01 1.271687329440e-06 -6.033825833948e-16 -3.588206546158e-05 -2.217858781983e-19 1.511734124497e-09 
1.666666666667e-01 3.636847877458e+00 9.991514777483e+04 9.991151092695e+04 9.999986215983e-01 1.378401714103e-06 -7.703520914304e-16 -3.587832875079e-05 -9.957434609694e-19 1.507293836272e-09 
2.083333333333e-01 3.781426777224e+00 9.956190724626e+04 9.955812581949e+04 9.999985668014e-01 1.433198562717e-06 -9.565304295934e-16 -3.587422361217e-05 -1.119938955813e-18 1.502435220486e-09 
2.500000000000e-01 3.858219153051e+00 9.920859239345e+04 9.920473417430e+04 9.999985376964e-01 1.462303641286e-06 -1.139923260912e-15 -3.586990849550e-05 -1.504550591191e-19 1.497348153213e-09 
2.916666666667e-01 3.904252629909e+00 9.885524000796e+04 9.885133575533e+04 9.999985202492e-01 1.479750789346e-06 -1.808221698224e-15 -3.586547080855e-05 -7.593131296350e-19 1.492137006871e-09 
3.333333333333e-01 3.940476718932e+00 9.850187089433e+04 9.849793041761e+04 9.999985065199e-01 1.493480081383e-06 -2.119048155222e-15 -3.586094801133e-05 -2.135773998580e-18 1.486846582356e-09 
3.750000000000e-01 3.983303917071e+00 9.814850134647e+04 9.814451804255e+04 9.999984902880e-01 1.509712017511e-06 -1.030666575110e-15 -3.585633643879e-05 -2.412678435319e-18 1.481473220969e-09 
4.166666666667e-01 4.055954246994e+00 9.779515442958e+04 9.779109847533e+04 9.999984627528e-01 1.537247219296e-06 -2.915483273862e-16 -3.585158044638e-05 -2.475831033606e-19 1.475952809679e-09 
4.583333333333e-01 4.206256077021e+00 9.744187768375e+04 9.743767142767e+04 9.999984057869e-01 1.594213115741e-06 -7.759762558961e-16 -3.584652835996e-05 1.886805707324e-18 1.470110548622e-09 
5.000000000000e-01 4.542882315140e+00 9.708877916316e+04 9.708423628085e+04 9.999982782022e-01 1.721797826315e-06 -1.146325992124e-15 -3.584082510930e-05 -6.553288085871e-19 1.463538506764e-09 
5.416666666667e-01 5.313685607991e+00 9.673610534590e+04 9.673079166029e+04 9.999979860600e-01 2.013939982337e-06 -2.322222609543e-15 -3.583367960709e-05 -6.675998618200e-18 1.455331374253e-09 
5.833333333333e-01 7.073008308296e+00 9.638440753587e+04 9.637733452757e+04 9.999973192591e-01 2.680740879057e-06 -2.518273877598e-15 -3.582339162659e-05 -8.795464194644e-18 1.443551691717e-09 
6.250000000000e-01 1.102653046434e+01 9.603488483994e+04 9.602385830947e+04 9.999958208347e-01 4.179165311369e-06 -4.674069026501e-15 -3.580644861643e-05 -1.606563457604e-17 1.424214489189e-09 
6.666666666667e-01 1.970732687076e+01 9.569005655963e+04 9.567034923276e+04 9.999925307260e-01 7.469273957339e-06 -1.487933835445e-15 -3.577593809319e-05 -1.917573956261e-17 1.389513347086e-09 
7.083333333333e-01 3.821488560403e+01 9.535499449801e+04 9.531677961241e+04 9.999855161762e-01 1.448382379288e-05 6.387079862756e-15 -3.571907745015e-05 3.515541399348e-17 1.325079936726e-09 
7.500000000000e-01 7.628189048055e+01 9.503937855998e+04 9.496309666950e+04 9.999710884007e-01 2.891159931107e-05 -4.004939689801e-14 -3.561409713114e-05 2.287210537703e-17 1.206555538682e-09 
7.916666666667e-01 1.512667351802e+02 9.476047310892e+04 9.460920637374e+04 9.999426683947e-01 5.733160530064e-05 -3.290426740785e-14 -3.542787510442e-05 -9.572760826470e-17 9.970251163149e-10 
8.333333333333e-01 2.915451647183e+02 9.454650036183e+04 9.425495519711e+04 9.998895014671e-01 1.104985328799e-04 3.994498211757e-14 -3.511744318604e-05 1.242249235564e-16 6.486955789251e-10 
8.750000000000e-01 5.386283595904e+02 9.443874718981e+04 9.390011883022e+04 9.997958544654e-01 2.041455345684e-04 4.002106681324e-13 -3.463811900103e-05 3.198043035054e-16 1.116392522097e-10 
9.166666666667e-01 9.459005612921e+02 9.449030962063e+04 9.354440905934e+04 9.996800719383e-01 3.199280616701e-04 3.007216774818e-12 -3.322686297535e-05 1.671848703529e-15 -1.502346343308e-09 
9.583333333333e-01 1.996005470445e+03 9.518124592935e+04 9.318524045890e+04 1.000000000000e+00 0.000000000000e+00 9.363775031426e-12 -2.261481490770e-05 -2.618605250767e-15 -1.391493945190e-08 
1.000000000000e+00 8.528347792380e+03 1.013250000000e+05 9.279665220762e+04 9.410745125143e-01 5.892548748570e-02 5.133393792062e-12 -1.142719125920e-05 -2.804780626234e-17 -2.662962899761e-08 
 TITLE = "Profiles along polylines"
 VARIABLES = "DIST" "PRESSURE1" "PRESSURE2" "PRESSURE_W" "SATURATION1" SATURATION2 "VELOCITY_X1" "VELOCITY_Y1" "VELOCITY_X2" "VELOCITY_Y2" 
 ZONE T="TIME=1.000000000000e+01"
0.000000000000e+00 0.000000000000e+00 1.013250000000e+05 1.013250000000e+05 1.000000000000e+00 0.000000000000e+00 1.299184928608e-18 -2.458708536934e-05 1.511099032142e-23 1.591163815188e-09 
4.166666666667e-02 3.187527829775e+00 1.009573805608e+05 1.009541930330e+05 9.999987918951e-01 1.208104922767e-06 -7.296066427207e-16 -2.458646537185e-05 -2.681480919484e-20 1.587587795194e-09 
8.333333333333e-02 5.362220382117e+00 1.005887465663e+05 1.005833843459e+05 9.999979676649e-01 2.032335147062e-06 -7.076603541180e-16 -2.458478408452e-05 -1.321394708489e-19 1.585572697130e-09 
1.250000000000e-01 6.800473607068e+00 1.002193727953e+05 1.002125723217e+05 9.999974225525e-01 2.577447501872e-06 -1.091459951765e-15 -2.458216090653e-05 -2.121957321628e-20 1.582442620435e-09 
1.666666666667e-01 7.730657113400e+00 9.984948628278e+04 9.984175562566e+04 9.999970700036e-01 2.929996352541e-06 -1.399322893492e-15 -2.457877434429e-05 3.944485265788e-19 1.578418201840e-09 
2.083333333333e-01 8.332502190407e+00 9.947926570772e+04 9.947093320553e+04 9.999968418983e-01 3.158101655298e-06 -1.546322882039e-15 -2.457478667187e-05 3.538702640506e-19 1.573698319715e-09 
2.500000000000e-01 8.746228935910e+00 9.910885046723e+04 9.910010423829e+04 9.999966850918e-01 3.314908228913e-06 -1.625293024282e-15 -2.457031183831e-05 -2.503132795102e-19 1.568422574378e-09 
2.916666666667e-01 9.089946621843e+00 9.873835797857e+04 9.872926803195e+04 9.999965548193e-01 3.445180669304e-06 -1.362457432873e-15 -2.456538509166e-05 7.044743081083e-19 1.562636467988e-09 
3.333333333333e-01 9.485979388836e+00 9.836790985884e+04 9.835842387945e+04 9.999964047190e-01 3.595281048430e-06 -1.895704132420e-15 -2.455992363115e-05 3.335618550490e-19 1.556246711867e-09 
3.750000000000e-01 1.010064173674e+01 9.799767148238e+04 9.798757084064e+04 9.999961717558e-01 3.828244224735e-06 -2.092972561242e-15 -2.455366182196e-05 -4.363939518984e-19 1.548947702214e-09 
4.166666666667e-01 1.120737909049e+01 9.762791477778e+04 9.761670739869e+04 9.999957522913e-01 4.247708748961e-06 -2.431987532461e-15 -2.454603927139e-05 -3.496823972307e-19 1.540094611857e-09 
4.583333333333e-01 1.329007138315e+01 9.725912097176e+04 9.724583090038e+04 9.999949629300e-01 5.037069955138e-06 -3.071587831332e-15 -2.453601580983e-05 -2.286766830709e-18 1.528494291934e-09 
5.000000000000e-01 1.721115277049e+01 9.689214780049e+04 9.687493664772e+04 9.999934768010e-01 6.523199011510e-06 -1.520858714664e-15 -2.452178790836e-05 3.761117305733e-19 1.512086565748e-09 
5.416666666667e-01 2.447586300405e+01 9.652849233609e+04 9.650401647309e+04 9.999907234032e-01 9.276596837138e-06 -1.039234347646e-15 -2.450039524189e-05 2.249079088080e-18 1.487505272019e-09 
5.833333333333e-01 3.762396218375e+01 9.617068059445e+04 9.613305663227e+04 9.999857401421e-01 1.425985790715e-05 -1.709752925634e-15 -2.446724879260e-05 1.123423735862e-18 1.449557080528e-09 
6.250000000000e-01 6.076289173072e+01 9.582279783788e+04 9.576203494615e+04 9.999769702564e-01 2.302974359503e-05 -3.792547450163e-15 -2.441570002001e-05 3.951288641067e-18 1.390754284672e-09 
6.666666666667e-01 1.002065816379e+02 9.549112397611e+04 9.539091739447e+04 9.999620207035e-01 3.797929650673e-05 -6.800654169305e-15 -2.433690568710e-05 -5.080622524404e-19 1.301184715873e-09 
7.083333333333e-01 1.650901899022e+02 9.518474506461e+04 9.501965487470e+04 9.999374291671e-01 6.257083287498e-05 5.691419420662e-15 -2.422036796494e-05 6.863274704118e-18 1.169132221188e-09 
7.500000000000e-01 2.677095330853e+02 9.491589102410e+04 9.464818149102e+04 9.998985354099e-01 1.014645901346e-04 3.392361036070e-14 -2.405545472293e-05 1.218240897692e-17 9.827648386771e-10 
7.916666666667e-01 4.232797711642e+02 9.469969578111e+04 9.427641600995e+04 9.998395727339e-01 1.604272660689e-04 1.541484995361e-13 -2.383355740823e-05 1.160198833148e-16 7.324797986589e-10 
8.333333333333e-01 6.490480752175e+02 9.455331484678e+04 9.390426677156e+04 9.997540042890e-01 2.459957109879e-04 4.366461584647e-13 -2.354901922738e-05 -5.051650666322e-17 4.118014132387e-10 
8.750000000000e-01 9.635028411542e+02 9.449513876886e+04 9.353163592771e+04 9.996608485076e-01 3.391514924138e-04 2.313094447225e-12 -2.284047843729e-05 -1.526081331071e-16 -3.989901394293e-10 
9.166666666667e-01 1.592508591146e+03 9.474982126197e+04 9.315731267082e+04 9.987263054616e-01 1.273694538373e-03 9.089476410320e-12 -2.080604015156e-05 -1.309355806750e-16 -2.714105645957e-09 
9.583333333333e-01 3.055051100142e+03 9.583357796465e+04 9.277852686450e+04 9.982335022209e-01 1.766497779148e-03 6.549080586307e-11 -1.146705617236e-05 -3.153991157517e-17 -1.347841811371e-08 
1.000000000000e+00 8.949478835217e+03 1.013250000000e+05 9.237552116478e+04 9.310116619650e-01 6.898833803504e-02 1.099004846627e-11 -3.174782832107e-06 -2.987351853410e-19 -2.380237204568e-08 
 TITLE = "Profiles along polylines"
 VARIABLES = "DIST" "PRESSURE1" "PRESSURE2" "PRESSURE_W" "SATURATION1" SATURATION2 "VELOCITY_X1" "VELOCITY_Y1" "VELOCITY_X2" "VELOCITY_Y2" 
 ZONE T="TIME=2.000000000000e+01"
0.000000000000e+00 0.000000000000e+00 1.013250000000e+05 1.013250000000e+05 1.000000000000e+00 0.000000000000e+00 -4.558648352959e-18 -1.863047079064e-05 2.097284874994e-23 1.621641273696e-09 
4.166666666667e-02 5.347806333112e+00 1.009503485329e+05 1.009450007265e+05 9.999979731279e-01 2.026872078176e-06 -3.544114578635e-15 -1.862992501629e-05 3.253236735022e-20 1.618052870772e-09 
8.333333333333e-02 9.584874302808e+00 1.005745848889e+05 1.005650000146e+05 9.999963672368e-01 3.632763209582e-06 -3.955521237296e-15 -1.862841478012e-05 6.881177370411e-20 1.616242820049e-09 
1.250000000000e-01 1.298227669542e+01 1.001979785514e+05 1.001849962748e+05 9.999950795873e-01 4.920412690401e-06 -5.331797596880e-15 -1.862586368442e-05 1.325173833239e-19 1.613198185702e-09 
1.666666666667e-01 1.582729105963e+01 9.982081513629e+04 9.980498784524e+04 9.999940012984e-01 5.998701584575e-06 -6.223183288207e-15 -1.862218634279e-05 1.102621326647e-19 1.608826760538e-09 
2.083333333333e-01 1.844283226830e+01 9.944341571857e+04 9.942497288630e+04 9.999930099821e-01 6.990017858088e-06 -6.591962389713e-15 -1.861720717474e-05 2.113991630451e-19 1.602930580788e-09 
2.500000000000e-01 2.121910560729e+01 9.906616831463e+04 9.904494920902e+04 9.999919577468e-01 8.042253216378e-06 -6.688389270874e-15 -1.861061054189e-05 3.737495967310e-19 1.595148696007e-09 
2.916666666667e-01 2.466139260150e+01 9.868957540999e+04 9.866491401739e+04 9.999906530856e-01 9.346914410013e-06 -6.520275350880e-15 -1.860187783282e-05 2.003161520143e-19 1.584885695147e-09 
3.333333333333e-01 2.945759844176e+01 9.831432114341e+04 9.828486354496e+04 9.999888352756e-01 1.116472438545e-05 -5.598126323922e-15 -1.859021396722e-05 3.084732400341e-19 1.571229192140e-09 
3.750000000000e-01 3.656814089439e+01 9.794136071410e+04 9.790479257320e+04 9.999861403089e-01 1.385969108036e-05 -4.597059535952e-15 -1.857446962719e-05 3.914297376536e-20 1.552863811805e-09 
4.166666666667e-01 4.733831048908e+01 9.757203214261e+04 9.752469383212e+04 9.999820583069e-01 1.794169305858e-05 -4.072794067957e-15 -1.855307171805e-05 -4.987061337867e-20 1.527996100260e-09 
4.583333333333e-01 6.362867516367e+01 9.720818598409e+04 9.714455730893e+04 9.999758840958e-01 2.411590417373e-05 -2.814386021524e-15 -1.852398272956e-05 1.249224125005e-18 1.494313681014e-09 
5.000000000000e-01 8.795199556347e+01 9.685232152435e+04 9.676436952879e+04 9.999666653142e-01 3.333468583844e-05 -1.232866946555e-15 -1.848471817707e-05 2.418042268308e-18 1.449010894442e-09 
5.416666666667e-01 1.235956811187e+02 9.650770860395e+04 9.638411292283e+04 9.999531560009e-01 4.684399910082e-05 -9.781761836145e-16 -1.843245744339e-05 2.546283257648e-18 1.388919115215e-09 
5.833333333333e-01 1.746980994924e+02 9.617846355481e+04 9.600376545531e+04 9.999337876733e-01 6.621232668858e-05 2.308527296283e-15 -1.836428659950e-05 -7.157880222136e-19 1.310782542727e-09 
6.250000000000e-01 2.462356452729e+02 9.586953638776e+04 9.562330074249e+04 9.999066742281e-01 9.332577191490e-05 9.060531062207e-15 -1.827762625222e-05 -5.594811234109e-18 1.211736372622e-09 
6.666666666667e-01 3.438584480654e+02 9.558654744507e+04 9.524268899701e+04 9.998696742096e-01 1.303257904011e-04 1.955536488364e-14 -1.817099044410e-05 -1.930213220485e-17 1.090150396286e-09 
7.083333333333e-01 4.734490423461e+02 9.533534852097e+04 9.486189947863e+04 9.998205580785e-01 1.794419215394e-04 1.397700557525e-15 -1.804562201919e-05 -1.866981814264e-17 9.474562651521e-10 
7.500000000000e-01 6.400348137837e+02 9.512094127893e+04 9.448090646515e+04 9.997574204052e-01 2.425795947723e-04 -6.335887701148e-14 -1.790994040649e-05 -1.424621046139e-17 7.931617466963e-10 
7.916666666667e-01 8.448359936311e+02 9.494454138478e+04 9.409970539115e+04 9.996974443123e-01 3.025556876981e-04 9.040798505880e-15 -1.770399205217e-05 6.015503270444e-17 5.576783991662e-10 
8.333333333333e-01 1.127296319020e+03 9.484537966917e+04 9.371808335015e+04 9.994161155440e-01 5.838844560391e-04 4.468936396341e-13 -1.719797176205e-05 1.923934927078e-16 -1.833593246116e-11 
8.750000000000e-01 1.617308073385e+03 9.495265906589e+04 9.333535099251e+04 9.985473061016e-01 1.452693898372e-03 4.676460462676e-13 -1.614369902207e-05 2.758083259065e-16 -1.216096979917e-09 
9.166666666667e-01 2.492732532190e+03 9.544329554533e+04 9.295056301314e+04 9.968535182082e-01 3.146481791818e-03 1.237363204708e-12 -1.384233764001e-05 2.155302765196e-15 -3.886853509053e-09 
9.583333333333e-01 4.295020551764e+03 9.685588286544e+04 9.256086231368e+04 9.899063321480e-01 1.009366785195e-02 -2.886693109563e-11 -6.622356937466e-06 -1.376005899435e-14 -1.218570453477e-08 
1.000000000000e+00 9.170966663366e+03 1.013250000000e+05 9.215403333663e+04 9.238777431843e-01 7.612225681566e-02 -7.595585532285e-12 -1.042333335738e-06 -1.055617521680e-16 -1.937162452781e-08 
 TITLE = "Profiles along polylines"
 VARIABLES = "DIST" "PRESSURE1" "PRESSURE2" "PRESSURE_W" "SATURATION1" SATURATION2 "VELOCITY_X1" "VELOCITY_Y1" "VELOCITY_X2" "VELOCITY_Y2" 
 ZONE T="TIME=3.000000000000e+01"
0.000000000000e+00 0.000000000000e+00 1.013250000000e+05 1.013250000000e+05 1.000000000000e+00 0.000000000000e+00 7.795741797282e-18 -1.596071450069e-05 2.958198452902e-23 1.627855919081e-09 
4.166666666667e-02 8.033902915412e+00 1.009489146352e+05 1.009408807323e+05 9.999969550705e-01 3.044929543838e-06 1.814081031806e-15 -1.595987652019e-05 -6.174104160153e-21 1.623905272572e-09 
8.333333333333e-02 1.510436360090e+01 1.005718635584e+05 1.005567591947e+05 9.999942752952e-01 5.724704848498e-06 2.131390043041e-15 -1.595747349064e-05 -1.975152098446e-20 1.621024826900e-09 
1.250000000000e-01 2.166833869603e+01 1.001943011275e+05 1.001726327888e+05 9.999917874830e-01 8.212517049078e-06 3.035758601353e-15 -1.595328414855e-05 -3.238276756567e-20 1.616023982444e-09 
1.666666666667e-01 2.824892867855e+01 9.981674750831e+04 9.978849857964e+04 9.999892933735e-01 1.070662645852e-05 3.849410614689e-15 -1.594701868598e-05 -1.007180548535e-19 1.608574004290e-09 
2.083333333333e-01 3.547292685466e+01 9.943982602148e+04 9.940435309462e+04 9.999865554060e-01 1.344459400721e-05 4.720157795878e-15 -1.593824636927e-05 -7.363604559269e-21 1.598183031007e-09 
2.500000000000e-01 4.411374547658e+01 9.906430583959e+04 9.902019209411e+04 9.999832804493e-01 1.671955067328e-05 5.415870949185e-15 -1.592637815461e-05 2.180292593401e-19 1.584177924891e-09 
2.916666666667e-01 5.513933547030e+01 9.869114965306e+04 9.863601031759e+04 9.999791016405e-01 2.089835953667e-05 5.803020134130e-15 -1.591065385485e-05 3.908168138624e-19 1.565691718693e-09 
3.333333333333e-01 6.976300345019e+01 9.832156422022e+04 9.825180121677e+04 9.999735591241e-01 2.644087593773e-05 6.534330695902e-15 -1.589014058436e-05 9.653932892439e-19 1.541664304912e-09 
3.750000000000e-01 8.949293777808e+01 9.795704963650e+04 9.786755669872e+04 9.999660812817e-01 3.391871834735e-05 7.895772940477e-15 -1.586375014751e-05 4.396283439643e-20 1.510864853039e-09 
4.166666666667e-01 1.161739836054e+02 9.759944089792e+04 9.748326691431e+04 9.999559688985e-01 4.403110152618e-05 8.729952367474e-15 -1.583028309382e-05 -7.785133390490e-19 1.471944272983e-09 
4.583333333333e-01 1.520130290145e+02 9.725093316758e+04 9.709892013857e+04 9.999423855419e-01 5.761445812680e-05 8.229820650305e-15 -1.578850654024e-05 -4.370614043162e-18 1.423525098328e-09 
5.000000000000e-01 1.995774073059e+02 9.691408020698e+04 9.671450279967e+04 9.999243581669e-01 7.564183314290e-05 5.854104208118e-15 -1.573727366401e-05 -3.070756635300e-18 1.364337100280e-09 
5.416666666667e-01 2.617530121467e+02 9.659175273946e+04 9.632999972731e+04 9.999007929909e-01 9.920700913368e-05 2.249241120113e-15 -1.567570147590e-05 -9.639579466685e-18 1.293417129348e-09 
5.833333333333e-01 3.416419046105e+02 9.628703663253e+04 9.594539472792e+04 9.998705143017e-01 1.294856982664e-04 -6.373161765579e-15 -1.560345413843e-05 -3.846100400066e-17 1.210427056352e-09 
6.250000000000e-01 4.423591977428e+02 9.600303090041e+04 9.556067170267e+04 9.998323414405e-01 1.676585595366e-04 -1.627202593833e-14 -1.552124911611e-05 -2.295746395019e-17 1.116224506412e-09 
6.666666666667e-01 5.666422507737e+02 9.574245902786e+04 9.517581677709e+04 9.997852369205e-01 2.147630794657e-04 -2.849968058781e-15 -1.543178768327e-05 -2.310717776945e-17 1.013917935493e-09 
7.083333333333e-01 7.161168804989e+02 9.550693915855e+04 9.479082227805e+04 9.997285845411e-01 2.714154588778e-04 -3.028791648132e-15 -1.534110800800e-05 -4.576242455441e-17 9.104056491784e-10 
7.500000000000e-01 8.901319144868e+02 9.529582493239e+04 9.440569301791e+04 9.996823667621e-01 3.176332378771e-04 -4.895199512685e-14 -1.518812048260e-05 -4.609601009701e-17 7.346735806816e-10 
7.916666666667e-01 1.125312562278e+03 9.514554321948e+04 9.402023065720e+04 9.994104818044e-01 5.895181955639e-04 1.463579695141e-13 -1.482698772205e-05 1.861563432402e-17 3.235537047058e-10 
8.333333333333e-01 1.501884642269e+03 9.513589695837e+04 9.363401231610e+04 9.987149939514e-01 1.285006048562e-03 6.186939672879e-13 -1.416313663389e-05 -5.127533563034e-17 -4.300311330154e-10 
8.750000000000e-01 2.109406769823e+03 9.535596970195e+04 9.324656293213e+04 9.976739181732e-01 2.326081826760e-03 3.402644666591e-14 -1.306856198402e-05 3.052526342638e-16 -1.692664720996e-09 
9.166666666667e-01 3.107911627989e+03 9.596495827383e+04 9.285704664584e+04 9.944870741437e-01 5.512925856287e-03 -2.958516823170e-12 -1.074373567092e-05 3.615557092949e-15 -4.395154893951e-09 
9.583333333333e-01 5.033882502790e+03 9.749649802789e+04 9.246261552510e+04 9.832999066571e-01 1.670009334293e-02 1.030611104018e-12 -4.861800293803e-06 -1.290404920018e-15 -1.117855769353e-08 