 TITLE = "Profiles along polylines"
 VARIABLES = "DIST" "PRESSURE1" "PRESSURE2" "PRESSURE_W" "SATURATION1" SATURATION2 "VELOCITY_X1" "VELOCITY_Y1" "VELOCITY_X2" "VELOCITY_Y2" 
 ZONE T="TIME=0.000000000000e+00"
0.000000000000e+00 0.000000000000e+00 1.013250000000e+05 1.013250000000e+05 1.000000000000e+00 4.440892098501e-16 0.000000000000e+00 0.000000000000e+00 0.000000000000e+00 0.000000000000e+00 
4.166666666667e-02 0.000000000000e+00 1.013250000000e+05 1.013250000000e+05 1.000000000000e+00 4.440892098501e-16 0.000000000000e+00 0.000000000000e+00 0.000000000000e+00 0.000000000000e+00 
8.333333333333e-02 0.000000000000e+00 1.013250000000e+05 1.013250000000e+05 1.000000000000e+00 4.440892098501e-16 0.000000000000e+00 0.000000000000e+00 0.000000000000e+00 0.000000000000e+00 
1.250000000000e-01 0.000000000000e+00 1.013250000000e+05 1.013250000000e+05 1.000000000000e+00 4.440892098501e-16 0.000000000000e+00 0.000000000000e+00 0.000000000000e+00 0.000000000000e+00 
1.666666666667e-01 0.000000000000e+00 1.013250000000e+05 1.013250000000e+05 1.000000000000e+00 4.440892098501e-16 0.000000000000e+00 0.000000000000e+00 0.000000000000e+00 0.000000000000e+00 
2.083333333333e-01 0.000000000000e+00 1.013250000000e+05 1.013250000000e+05 1.000000000000e+00 4.440892098501e-16 0.000000000000e+00 0.000000000000e+00 0.000000000000e+00 0.000000000000e+00 
2.500000000000e-01 0.000000000000e+00 1.013250000000e+05 1.013250000000e+05 1.000000000000e+00 4.440892098501e-16 0.000000000000e+00 0.000000000000e+00 0.000000000000e+00 0.000000000000e+00 
2.916666666667e-01 0.000000000000e+00 1.013250000000e+05 1.013250000000e+05 1.000000000000e+00 4.440892098501e-16 0.000000000000e+00 0.000000000000e+00 0.000000000000e+00 0.000000000000e+00 
3.333333333333e-01 0.000000000000e+00 1.013250000000e+05 1.013250000000e+05 1.000000000000e+00 4.440892098501e-16 0.000000000000e+00 0.000000000000e+00 0.000000000000e+00 0.000000000000e+00 
3.750000000000e-01 0.000000000000e+00 1.013250000000e+05 1.013250000000e+05 1.000000000000e+00 4.440892098501e-16 0.000000000000e+00 0.000000000000e+00 0.000000000000e+00 0.000000000000e+00 
4.166666666667e-01 0.000000000000e+00 1.013250000000e+05 1.013250000000e+05 1.000000000000e+00 4.440892098501e-16 0.000000000000e+00 0.000000000000e+00 0.000000000000e+00 0.000000000000e+00 
4.583333333333e-01 0.000000000000e+00 1.013250000000e+05 1.013250000000e+05 1.000000000000e+00 4.440892098501e-16 0.000000000000e+00 0.000000000000e+00 0.000000000000e+00 0.000000000000e+00 
5.000000000000e-01 0.000000000000e+00 1.013250000000e+05 1.013250000000e+05 1.000000000000e+00 4.440892098501e-16 0.000000000000e+00 0.000000000000e+00 0.000000000000e+00 0.000000000000e+00 
5.416666666667e-01 0.000000000000e+00 1.013250000000e+05 1.013250000000e+05 1.000000000000e+00 4.440892098501e-16 0.000000000000e+00 0.000000000000e+00 0.000000000000e+00 0.000000000000e+00 
5.833333333333e-01 0.000000000000e+00 1.013250000000e+05 1.013250000000e+05 1.000000000000e+00 4.440892098501e-16 0.000000000000e+00 0.000000000000e+00 0.000000000000e+00 0.000000000000e+00 
6.250000000000e-01 0.000000000000e+00 1.013250000000e+05 1.013250000000e+05 1.000000000000e+00 4.440892098501e-16 0.000000000000e+00 0.000000000000e+00 0.000000000000e+00 0.000000000000e+00 
6.666666666667e-01 0.000000000000e+00 1.013250000000e+05 1.013250000000e+05 1.000000000000e+00 4.440892098501e-16 0.000000000000e+00 0.000000000000e+00 0.000000000000e+00 0.000000000000e+00 
7.083333333333e-01 0.000000000000e+00 1.013250000000e+05 1.013250000000e+05 1.000000000000e+00 4.440892098501e-16 0.000000000000e+00 0.000000000000e+00 0.000000000000e+00 0.000000000000e+00 
7.500000000000e-01 0.000000000000e+00 1.013250000000e+05 1.013250000000e+05 1.000000000000e+00 4.440892098501e-16 0.000000000000e+00 0.000000000000e+00 0.000000000000e+00 0.000000000000e+00 
7.916666666667e-01 0.000000000000e+00 1.013250000000e+05 1.013250000000e+05 1.000000000000e+00 4.440892098501e-16 0.000000000000e+00 0.000000000000e+00 0.000000000000e+00 0.000000000000e+00 
8.333333333333e-01 0.000000000000e+00 1.013250000000e+05 1.013250000000e+05 1.000000000000e+00 4.440892098501e-16 0.000000000000e+00 0.000000000000e+00 0.000000000000e+00 0.000000000000e+00 
8.750000000000e-01 0.000000000000e+00 1.013250000000e+05 1.013250000000e+05 1.000000000000e+00 4.440892098501e-16 0.000000000000e+00 0.000000000000e+00 0.000000000000e+00 0.000000000000e+00 
9.166666666667e-01 0.000000000000e+00 1.013250000000e+05 1.013250000000e+05 1.000000000000e+00 4.440892098501e-16 0.000000000000e+00 0.000000000000e+00 0.000000000000e+00 0.000000000000e+00 
9.583333333333e-01 0.000000000000e+00 1.013250000000e+05 1.013250000000e+05 1.000000000000e+00 4.440892098501e-16 0.000000000000e+00 0.000000000000e+00 0.000000000000e+00 0.000000000000e+00 
1.000000000000e+00 0.000000000000e+00 1.013250000000e+05 1.013250000000e+05 1.000000000000e+00 3.330669073875e-16 0.000000000000e+00 0.000000000000e+00 0.000000000000e+00 0.000000000000e+00 
 TITLE = "Profiles along polylines"
 VARIABLES = "DIST" "PRESSURE1" "PRESSURE2" "PRESSURE_W" "SATURATION1" SATURATION2 "VELOCITY_X1" "VELOCITY_Y1" "VELOCITY_X2" "VELOCITY_Y2" 
 ZONE T="TIME=1.000000000000e-03"
0.000000000000e+00 0.000000000000e+00 1.013250000000e+05 1.013250000000e+05 1.000000000000e+00 0.000000000000e+00 -2.708071073379e-18 -2.618878270995e-04 -3.986681420110e-24 1.781853363846e-11 
4.166666666667e-02 1.260388701164e-07 1.013203978815e+05 1.013203978813e+05 1.000000000000e+00 4.773959005888e-14 -5.270362718729e-16 -2.618878268031e-04 -1.266433202321e-21 1.781780577778e-11 
8.333333333333e-02 1.268293115244e-07 1.013157957619e+05 1.013157957617e+05 1.000000000000e+00 4.818367926873e-14 -4.715225598064e-17 -2.618878262086e-04 4.342509938006e-21 1.781709764311e-11 
1.250000000000e-01 1.274924822468e-07 1.013111936414e+05 1.013111936412e+05 1.000000000000e+00 4.840572387366e-14 1.248671581656e-16 -2.618878256109e-04 6.775064970737e-21 1.781638924897e-11 
1.666666666667e-01 1.280197876608e-07 1.013065915199e+05 1.013065915198e+05 1.000000000000e+00 4.862776847858e-14 -8.522039569302e-17 -2.618878250103e-04 6.042315939507e-21 1.781568086492e-11 
2.083333333333e-01 1.285354634525e-07 1.013019893976e+05 1.013019893974e+05 1.000000000000e+00 4.884981308351e-14 -4.816329784605e-16 -2.618878244067e-04 3.776856679515e-21 1.781497249138e-11 
2.500000000000e-01 1.290719748282e-07 1.012973872743e+05 1.012973872741e+05 1.000000000000e+00 4.907185768843e-14 -2.344091242754e-16 -2.618878238008e-04 7.268500107451e-21 1.781426412441e-11 
2.916666666667e-01 1.293711916361e-07 1.012927851500e+05 1.012927851499e+05 1.000000000000e+00 4.907185768843e-14 9.562582455489e-16 -2.618878231943e-04 1.789627173318e-20 1.781355575322e-11 
3.333333333333e-01 1.291585246741e-07 1.012881830249e+05 1.012881830247e+05 1.000000000000e+00 4.907185768843e-14 1.536510493466e-15 -2.618878225887e-04 2.103008931139e-20 1.781284736725e-11 
3.750000000000e-01 1.286824012064e-07 1.012835808988e+05 1.012835808986e+05 1.000000000000e+00 4.884981308351e-14 -1.695270344720e-16 -2.618878219831e-04 4.825080669562e-21 1.781213896896e-11 
4.166666666667e-01 1.285488961523e-07 1.012789787717e+05 1.012789787716e+05 1.000000000000e+00 4.884981308351e-14 -2.143043829762e-15 -2.618878213765e-04 -1.119245054817e-20 1.781143056766e-11 
4.583333333333e-01 1.287700527814e-07 1.012743766438e+05 1.012743766436e+05 1.000000000000e+00 4.884981308351e-14 -1.915686605158e-16 -2.618878207706e-04 6.638088343969e-21 1.781072215395e-11 
5.000000000000e-01 1.285941857028e-07 1.012697745148e+05 1.012697745147e+05 1.000000000000e+00 4.873879078104e-14 3.769230667197e-15 -2.618878201690e-04 3.912824634135e-20 1.781001370375e-11 
5.416666666667e-01 1.276945562309e-07 1.012651723850e+05 1.012651723849e+05 1.000000000000e+00 4.851674617612e-14 2.274475455402e-15 -2.618878195709e-04 2.275929636351e-20 1.780930522092e-11 
5.833333333333e-01 1.267179217599e-07 1.012605702543e+05 1.012605702541e+05 1.000000000000e+00 4.796163466381e-14 -3.762597629652e-15 -2.618878189712e-04 -3.058993883041e-20 1.780859673582e-11 
6.250000000000e-01 1.263609670128e-07 1.012559681226e+05 1.012559681225e+05 1.000000000000e+00 4.796163466381e-14 -3.677572672155e-15 -2.618878183710e-04 -2.842030424483e-20 1.780788824389e-11 
6.666666666667e-01 1.267921859386e-07 1.012513659900e+05 1.012513659898e+05 1.000000000000e+00 4.818367926873e-14 2.879831026518e-15 -2.618878177749e-04 2.965560238453e-20 1.780717971540e-11 
7.083333333333e-01 1.274374638808e-07 1.012467638565e+05 1.012467638563e+05 1.000000000000e+00 4.840572387366e-14 2.163484118287e-15 -2.618878171771e-04 2.646629191121e-20 1.780647119301e-11 
7.500000000000e-01 1.268675402299e-07 1.012421617220e+05 1.012421617219e+05 1.000000000000e+00 4.818367926873e-14 -1.236392458045e-14 -2.618878165529e-04 -8.429073153725e-20 1.780576284177e-11 
7.916666666667e-01 1.250191452737e-07 1.012375595866e+05 1.012375595864e+05 1.000000000000e+00 4.729550084903e-14 -5.396810808565e-14 -2.618878158208e-04 -3.685937649765e-19 1.780505519686e-11 
8.333333333333e-01 1.244614382931e-07 1.012329574498e+05 1.012329574497e+05 1.000000000000e+00 4.707345624411e-14 -2.349115859964e-13 -2.618878146349e-04 -1.572467823722e-18 1.780435032127e-11 
8.750000000000e-01 2.400663697426e-07 1.012283553109e+05 1.012283553106e+05 9.999999999999e-01 9.103828801926e-14 -9.747780628668e-13 -2.618878107737e-04 -6.513840152543e-18 1.780341546874e-11 
9.166666666667e-01 1.148569512962e-04 1.012237532768e+05 1.012237531620e+05 9.999999999565e-01 4.353206684016e-11 -5.543384255378e-12 -2.618875375666e-04 -3.698652771573e-17 1.755896064100e-11 
9.583333333333e-01 1.135655201203e-01 1.012192637452e+05 1.012191501797e+05 9.999999569575e-01 4.304246803422e-08 -8.099056104866e-12 -2.616262784570e-04 -5.406761622723e-17 -2.213820565611e-10 
1.000000000000e+00 1.112582508970e+02 1.013250000000e+05 1.012137417491e+05 9.999578320103e-01 4.216798967249e-05 -3.065202110261e-12 -2.613420733053e-04 -9.175619692331e-21 -4.605585688213e-10 
 TITLE = "Profiles along polylines"
 VARIABLES = "DIST" "PRESSURE1" "PRESSURE2" "PRESSURE_W" "SATURATION1" SATURATION2 "VELOCITY_X1" "VELOCITY_Y1" "VELOCITY_X2" "VELOCITY_Y2" 
 ZONE T="TIME=5.000000000000e+00"
0.000000000000e+00 0.000000000000e+00 1.013250000000e+05 1.013250000000e+05 1.000000000000e+00 0.000000000000e+00 -8.081273528120e-18 -3.588810217540e-05 4.230838801970e-24 1.522109149110e-09 
4.166666666667e-02 1.799449189594e+00 1.009734323229e+05 1.009716328737e+05 9.999993179908e-01 6.820092371962e-07 1.089557252040e-15 -3.588728842652e-05 -5.519047468875e-20 1.518538302525e-09 
8.333333333333e-02 2.812277181392e+00 1.006210756725e+05 1.006182633953e+05 9.999989341188e-01 1.065881174545e-06 1.145127632374e-15 -3.588514285673e-05 -1.241706397322e-19 1.515965403350e-09 
1.250000000000e-01 3.355288566276e+00 1.002682450252e+05 1.002648897367e+05 9.999987283121e-01 1.271687919413e-06 1.510366561819e-15 -3.588202701025e-05 -2.912032741331e-19 1.512246199193e-09 
1.666666666667e-01 3.636849853117e+00 9.991514753941e+04 9.991151068956e+04 9.999986215975e-01 1.378402462726e-06 1.885690053473e-15 -3.587829030948e-05 2.755276934039e-19 1.507804409303e-09 
2.083333333333e-01 3.781429051355e+00 9.956190695183e+04 9.955812552278e+04 9.999985668006e-01 1.433199424916e-06 2.675832890173e-15 -3.587418518412e-05 1.458580092131e-18 1.502944149572e-09 
2.500000000000e-01 3.858221747958e+00 9.920859204004e+04 9.920473381830e+04 9.999985376954e-01 1.462304624500e-06 3.329013667901e-15 -3.586987008210e-05 1.512650507586e-18 1.497855359924e-09 
2.916666666667e-01 3.904255873418e+00 9.885523959593e+04 9.885133534006e+04 9.999985202480e-01 1.479752018474e-06 3.677800387121e-15 -3.586543240635e-05 -5.306334323284e-19 1.492642451436e-09 
3.333333333333e-01 3.940479554928e+00 9.850187042264e+04 9.849792994308e+04 9.999985065188e-01 1.493481156079e-06 3.970930215943e-15 -3.586090961696e-05 -3.935208427291e-19 1.487350240038e-09 
3.750000000000e-01 3.983305647782e+00 9.814850081443e+04 9.814451750878e+04 9.999984902873e-01 1.509712673653e-06 4.055921570269e-15 -3.585629805640e-05 3.070802600008e-18 1.481975062205e-09 
4.166666666667e-01 4.055954465949e+00 9.779515383681e+04 9.779109788234e+04 9.999984627527e-01 1.537247302230e-06 4.915791812673e-15 -3.585154208077e-05 4.334402808300e-18 1.476452786111e-09 
4.583333333333e-01 4.206253337333e+00 9.744187702883e+04 9.743767077549e+04 9.999984057879e-01 1.594212077460e-06 3.979909433691e-15 -3.584649001765e-05 3.097762960274e-18 1.470608552461e-09 
5.000000000000e-01 4.542875521653e+00 9.708877844504e+04 9.708423556952e+04 9.999982782047e-01 1.721795251486e-06 7.441953372711e-16 -3.584078680463e-05 -1.941644383406e-18 1.464034296325e-09 
5.416666666667e-01 5.313670474463e+00 9.673610456036e+04 9.673079088989e+04 9.999979860658e-01 2.013934246481e-06 -1.437815002255e-15 -3.583364135596e-05 -5.021515070304e-18 1.455824428735e-09 
5.833333333333e-01 7.072967405779e+00 9.638440666558e+04 9.637733369818e+04 9.999973192746e-01 2.680725376569e-06 -3.388932886350e-15 -3.582335346945e-05 -6.419822379978e-18 1.444040857210e-09 
6.250000000000e-01 1.102643130933e+01 9.603488385260e+04 9.602385742129e+04 9.999958208723e-01 4.179127730652e-06 -1.632495346914e-15 -3.580641065186e-05 -1.440880974838e-18 1.424697308156e-09 
6.666666666667e-01 1.970710018287e+01 9.569005538636e+04 9.567034828618e+04 9.999925308120e-01 7.469188040288e-06 7.825066896105e-16 -3.577590050400e-05 8.562800218529e-18 1.389984872853e-09 
7.083333333333e-01 3.821436909106e+01 9.535499297728e+04 9.531677860819e+04 9.999855163720e-01 1.448362802936e-05 -4.885160903990e-15 -3.571904059433e-05 2.107229325285e-17 1.325530494474e-09 
7.500000000000e-01 7.628081250166e+01 9.503937642162e+04 9.496309560912e+04 9.999710888093e-01 2.891119074633e-05 -2.548515091100e-16 -3.561406152838e-05 2.920114315151e-17 1.206967330175e-09 
7.916666666667e-01 1.512646621565e+02 9.476046992169e+04 9.460920525953e+04 9.999426691804e-01 5.733081960391e-05 1.244537241082e-14 -3.542784162594e-05 1.534321023748e-16 9.973684430547e-10 
8.333333333333e-01 2.915412480225e+02 9.454649528123e+04 9.425495403321e+04 9.998895029516e-01 1.104970484129e-04 1.610839406765e-13 -3.511741279166e-05 1.439740871680e-16 6.489244541403e-10 
8.750000000000e-01 5.386216306124e+02 9.443873925246e+04 9.390011762184e+04 9.997958570158e-01 2.041429842183e-04 3.647753252002e-13 -3.463809071502e-05 -5.935132070456e-17 1.116906404278e-10 
9.166666666667e-01 9.458897162167e+02 9.449029752374e+04 9.354440780752e+04 9.996800837822e-01 3.199162177751e-04 1.280931793689e-12 -3.322683064215e-05 -1.465299767762e-15 -1.502839231825e-09 
9.583333333333e-01 1.995990485100e+03 9.518122963326e+04 9.318523914816e+04 1.000000000000e+00 0.000000000000e+00 4.091152317877e-12 -2.261470980137e-05 -3.182726179016e-15 -1.391968002734e-08 
1.000000000000e+00 8.528349370648e+03 1.013250000000e+05 9.279665062935e+04 9.410745325589e-01 5.892546744113e-02 5.428008569536e-13 -1.142704020618e-05 -3.406750314765e-17 -2.663872876694e-08 
 TITLE = "Profiles along polylines"
 VARIABLES = "DIST" "PRESSURE1" "PRESSURE2" "PRESSURE_W" "SATURATION1" SATURATION2 "VELOCITY_X1" "VELOCITY_Y1" "VELOCITY_X2" "VELOCITY_Y2" 
 ZONE T="TIME=1.000000000000e+01"
0.000000000000e+00 0.000000000000e+00 1.013250000000e+05 1.013250000000e+05 1.000000000000e+00 0.000000000000e+00 -2.203824480250e-20 -2.458707044342e-05 1.494841302867e-23 1.591702660043e-09 
4.166666666667e-02 3.187526673544e+00 1.009573805366e+05 1.009541930099e+05 9.999987918955e-01 1.208104484451e-06 2.270402685758e-16 -2.458645044740e-05 -6.927574120618e-21 1.588125430342e-09 
8.333333333333e-02 5.362218670357e+00 1.005887465185e+05 1.005833842998e+05 9.999979676655e-01 2.032334498248e-06 4.351378465372e-16 -2.458476916420e-05 -7.040850384188e-20 1.586109651848e-09 
1.250000000000e-01 6.800471527009e+00 1.002193727242e+05 1.002125722526e+05 9.999974225533e-01 2.577446713614e-06 7.237623548416e-16 -2.458214599294e-05 -1.414733053240e-19 1.582978517770e-09 
1.666666666667e-01 7.730654763004e+00 9.984948618833e+04 9.984175553357e+04 9.999970700045e-01 2.929995461587e-06 9.644528904664e-16 -2.457875944018e-05 1.776737498618e-19 1.578952738496e-09 
2.083333333333e-01 8.332499783544e+00 9.947926559023e+04 9.947093309044e+04 9.999968418993e-01 3.158100743028e-06 1.043201483259e-15 -2.457477178032e-05 3.859582147365e-19 1.574231261459e-09 
2.500000000000e-01 8.746225828223e+00 9.910885032606e+04 9.910010410024e+04 9.999966850929e-01 3.314907051077e-06 9.879736614741e-16 -2.457029696331e-05 1.126023313676e-19 1.568953734966e-09 
2.916666666667e-01 9.089941955090e+00 9.873835781291e+04 9.872926787095e+04 9.999965548211e-01 3.445178900385e-06 1.039189261928e-15 -2.456537023762e-05 8.458792661595e-19 1.563165676016e-09 
3.333333333333e-01 9.485971709164e+00 9.836790966726e+04 9.835842369555e+04 9.999964047219e-01 3.595278137314e-06 1.087863015102e-15 -2.455990880226e-05 1.155546254103e-18 1.556773770150e-09 
3.750000000000e-01 1.010062658496e+01 9.799767126046e+04 9.798757063387e+04 9.999961717615e-01 3.828238482217e-06 9.283648380317e-16 -2.455364702637e-05 -3.857855655258e-19 1.549472312216e-09 
4.166666666667e-01 1.120735025909e+01 9.762791451938e+04 9.761670716912e+04 9.999957523022e-01 4.247697821702e-06 9.173669809763e-16 -2.454602452396e-05 -4.823950832590e-19 1.540616259560e-09 
4.583333333333e-01 1.329001806755e+01 9.725912066616e+04 9.724583064809e+04 9.999949629503e-01 5.037049747969e-06 1.347424028290e-15 -2.453600113364e-05 1.643637906092e-20 1.529012085116e-09 
5.000000000000e-01 1.721104963948e+01 9.689214742249e+04 9.687493637285e+04 9.999934768401e-01 6.523159923777e-06 1.492550419340e-15 -2.452177335223e-05 -2.416826846985e-18 1.512598935349e-09 
5.416666666667e-01 2.447566929073e+01 9.652849184516e+04 9.650401617587e+04 9.999907234766e-01 9.276523417867e-06 1.138050476368e-15 -2.450038089710e-05 -1.816738735742e-18 1.488009530588e-09 
5.833333333333e-01 3.762361095602e+01 9.617067992407e+04 9.613305631311e+04 9.999857402752e-01 1.425972478830e-05 3.123344390285e-15 -2.446723478683e-05 4.089777571502e-18 1.450048831746e-09 
6.250000000000e-01 6.076227469308e+01 9.582279688037e+04 9.576203460568e+04 9.999769704903e-01 2.302950973143e-05 7.472703997130e-16 -2.441568651338e-05 -7.416298651105e-19 1.391226637399e-09 
6.666666666667e-01 1.002055419722e+02 9.549112257556e+04 9.539091703359e+04 9.999620210975e-01 3.797890246293e-05 -4.052880704945e-15 -2.433689286636e-05 9.041822849630e-19 1.301627478147e-09 
7.083333333333e-01 1.650884991604e+02 9.518474299376e+04 9.501965449460e+04 9.999374298079e-01 6.257019206679e-05 -6.360252690754e-15 -2.422035599714e-05 -1.775098878429e-18 1.169531245263e-09 
7.500000000000e-01 2.677069054509e+02 9.491588799854e+04 9.464818109309e+04 9.998985364058e-01 1.014635942350e-04 -5.200085160311e-14 -2.405544361751e-05 -2.039782298551e-17 9.831019852738e-10 
7.916666666667e-01 4.232758400429e+02 9.469969143545e+04 9.427641559540e+04 9.998395742239e-01 1.604257761346e-04 -2.469868456990e-13 -2.383354667323e-05 -1.012626166852e-16 7.327333292834e-10 
8.333333333333e-01 6.490425892950e+02 9.455330892956e+04 9.390426634026e+04 9.997540063682e-01 2.459936317689e-04 -9.783708291089e-13 -2.354900566544e-05 -2.510817413048e-16 4.119471550258e-10 
8.750000000000e-01 9.634955998102e+02 9.449513107078e+04 9.353163547097e+04 9.996608564159e-01 3.391435841500e-04 -4.357023177614e-12 -2.284044919417e-05 -1.494231761256e-16 -3.991160632956e-10 
9.166666666667e-01 1.592498277399e+03 9.474981042544e+04 9.315731214804e+04 9.987263189694e-01 1.273681030586e-03 -1.385436784820e-11 -2.080592695228e-05 -2.261244896284e-15 -2.715002831578e-09 
9.583333333333e-01 3.055032708116e+03 9.583355876375e+04 9.277852605563e+04 9.982336020421e-01 1.766397957939e-03 -1.155445594894e-10 -1.146697001034e-05 -1.477325655088e-14 -1.348300796561e-08 
1.000000000000e+00 8.949479633295e+03 1.013250000000e+05 9.237552036670e+04 9.310116984847e-01 6.898830151533e-02 -1.550201558086e-11 -3.174789098183e-06 -1.405296903582e-16 -2.381052586789e-08 
 TITLE = "Profiles along polylines"
 VARIABLES = "DIST" "PRESSURE1" "PRESSURE2" "PRESSURE_W" "SATURATION1" SATURATION2 "VELOCITY_X1" "VELOCITY_Y1" "VELOCITY_X2" "VELOCITY_Y2" 
 ZONE T="TIME=2.000000000000e+01"
0.000000000000e+00 0.000000000000e+00 1.013250000000e+05 1.013250000000e+05 1.000000000000e+00 0.000000000000e+00 -6.430199365302e-18 -1.863051902702e-05 -7.041245698171e-23 1.622190047749e-09 
4.166666666667e-02 5.347800837911e+00 1.009503486018e+05 1.009450008010e+05 9.999979731300e-01 2.026869995397e-06 -3.218699577214e-15 -1.862997325408e-05 1.450193342798e-20 1.618600434163e-09 
8.333333333333e-02 9.584863827678e+00 1.005745850273e+05 1.005650001635e+05 9.999963672408e-01 3.632759239425e-06 -3.650966285905e-15 -1.862846302279e-05 6.508537188607e-20 1.616789777163e-09 
1.250000000000e-01 1.298226078862e+01 1.001979787589e+05 1.001849964981e+05 9.999950795933e-01 4.920406661668e-06 -4.929876358963e-15 -1.862591193617e-05 5.070847618309e-20 1.613744122479e-09 
1.666666666667e-01 1.582726811578e+01 9.982081541116e+04 9.980498814304e+04 9.999940013071e-01 5.998692888642e-06 -5.678925593664e-15 -1.862223460873e-05 2.093854681345e-19 1.609371233375e-09 
2.083333333333e-01 1.844279887241e+01 9.944341605748e+04 9.942497325861e+04 9.999930099948e-01 6.990005200658e-06 -6.124544250460e-15 -1.861725546157e-05 3.107134967786e-19 1.603473081863e-09 
2.500000000000e-01 2.121905577154e+01 9.906616871164e+04 9.904494965586e+04 9.999919577657e-01 8.042234328043e-06 -6.457814342434e-15 -1.861065885968e-05 -2.754283622795e-20 1.595688598182e-09 
2.916666666667e-01 2.466131700058e+01 9.868957585583e+04 9.866491453883e+04 9.999906531142e-01 9.346885756489e-06 -6.428214395481e-15 -1.860192619688e-05 -2.843421325050e-19 1.585422174585e-09 
3.333333333333e-01 2.945748261465e+01 9.831432162369e+04 9.828486414108e+04 9.999888353195e-01 1.116468048590e-05 -5.820514649417e-15 -1.859026239937e-05 -1.867485711981e-19 1.571761122737e-09 
3.750000000000e-01 3.656796352020e+01 9.794136120764e+04 9.790479324412e+04 9.999861403761e-01 1.385962385392e-05 -4.904736058378e-15 -1.857451815617e-05 1.850975933174e-19 1.553389630559e-09 
4.166666666667e-01 4.733804056844e+01 9.757203261858e+04 9.752469457801e+04 9.999820584092e-01 1.794159075597e-05 -4.565821910784e-15 -1.855312038042e-05 2.142001509442e-19 1.528513647389e-09 
4.583333333333e-01 6.362826914990e+01 9.720818639918e+04 9.714455813003e+04 9.999758842497e-01 2.411575029049e-05 -4.239757269283e-15 -1.852403157146e-05 -9.672102976484e-20 1.494820023464e-09 
5.000000000000e-01 8.795139471357e+01 9.685232182013e+04 9.676437042542e+04 9.999666655419e-01 3.333445811027e-05 -4.127518215264e-15 -1.848476725531e-05 -1.128403410111e-18 1.449502160963e-09 
5.416666666667e-01 1.235948074343e+02 9.650770870283e+04 9.638411389540e+04 9.999531563320e-01 4.684366796570e-05 -4.800336650284e-15 -1.843250682772e-05 -2.805945908253e-18 1.389390357389e-09 
5.833333333333e-01 1.746968607094e+02 9.617846336505e+04 9.600376650434e+04 9.999337881428e-01 6.621185717748e-05 -1.982982688196e-15 -1.836433635578e-05 7.672929369879e-18 1.311227734523e-09 
6.250000000000e-01 2.462339168630e+02 9.586953578545e+04 9.562330186859e+04 9.999066748832e-01 9.332511683025e-05 3.183374944267e-15 -1.827767643921e-05 9.956530292706e-18 1.212148495290e-09 
6.666666666667e-01 3.438561013536e+02 9.558654630223e+04 9.524269020088e+04 9.998696750990e-01 1.303249009740e-04 3.825974636970e-15 -1.817104114775e-05 3.341901479660e-17 1.090521836075e-09 
7.083333333333e-01 4.734459371448e+02 9.533534669830e+04 9.486190076115e+04 9.998205592554e-01 1.794407446373e-04 -3.578891690169e-14 -1.804567333258e-05 1.179656027099e-17 9.477798771259e-10 
7.500000000000e-01 6.400308143553e+02 9.512093864167e+04 9.448090782732e+04 9.997574219211e-01 2.425780789488e-04 -7.308884303306e-14 -1.790999221129e-05 -9.519965159266e-18 7.934334966643e-10 
7.916666666667e-01 8.448310094924e+02 9.494453784296e+04 9.409970683347e+04 9.996974446588e-01 3.025553411733e-04 -9.461875511742e-14 -1.770404417631e-05 4.743561760532e-17 5.578708740918e-10 
8.333333333333e-01 1.127290161168e+03 9.484537503443e+04 9.371808487326e+04 9.994161280257e-01 5.838719743172e-04 2.515686395660e-13 -1.719802647123e-05 -3.346893820668e-16 -1.833873421985e-11 
8.750000000000e-01 1.617300926738e+03 9.495265352923e+04 9.333535260249e+04 9.985473168202e-01 1.452683179800e-03 2.565667091211e-12 -1.614375889368e-05 -3.085321609271e-16 -1.216508266122e-09 
9.166666666667e-01 2.492725412442e+03 9.544329013290e+04 9.295056472046e+04 9.968535427211e-01 3.146457278896e-03 8.408966758184e-12 -1.384242482200e-05 1.244899097854e-15 -3.888180177829e-09 
9.583333333333e-01 4.295017280227e+03 9.685588147244e+04 9.256086419221e+04 9.899063614108e-01 1.009363858924e-02 6.135278923700e-11 -6.622370359870e-06 -7.870597015638e-15 -1.218984764374e-08 
1.000000000000e+00 9.170964913458e+03 1.013250000000e+05 9.215403508654e+04 9.238777852354e-01 7.612221476458e-02 7.400112133473e-12 -1.042263657422e-06 -6.038041671488e-17 -1.937819896153e-08 
 TITLE = "Profiles along polylines"
 VARIABLES = "DIST" "PRESSURE1" "PRESSURE2" "PRESSURE_W" "SATURATION1" SATURATION2 "VELOCITY_X1" "VELOCITY_Y1" "VELOCITY_X2" "VELOCITY_Y2" 
 ZONE T="TIME=3.000000000000e+01"
0.000000000000e+00 0.000000000000e+00 1.013250000000e+05 1.013250000000e+05 1.000000000000e+00 0.000000000000e+00 3.082569945591e-19 -1.596071413280e-05 -4.787900199837e-23 1.628407175810e-09 
4.166666666667e-02 8.033885775598e+00 1.009489146175e+05 1.009408807317e+05 9.999969550770e-01 3.044923047923e-06 -1.859219271455e-17 -1.595987615460e-05 2.575664458591e-21 1.624455196496e-09 
8.333333333333e-02 1.510432824610e+01 1.005718635219e+05 1.005567591936e+05 9.999942753086e-01 5.724691448661e-06 -1.974253777207e-17 -1.595747313260e-05 3.293632387900e-21 1.621573788709e-09 
1.250000000000e-01 2.166828166790e+01 1.001943010688e+05 1.001726327871e+05 9.999917875046e-01 8.212495435034e-06 1.460664028527e-17 -1.595328380495e-05 -1.330078783517e-20 1.616571274244e-09 
1.666666666667e-01 2.824884368385e+01 9.981674742113e+04 9.978849857744e+04 9.999892934058e-01 1.070659424451e-05 1.295239051818e-17 -1.594701836543e-05 5.754206893029e-21 1.609118809062e-09 
2.083333333333e-01 3.547280403795e+01 9.943982589600e+04 9.940435309196e+04 9.999865554525e-01 1.344454745844e-05 9.012399816801e-17 -1.593824608307e-05 2.150280167342e-19 1.598724368259e-09 
2.500000000000e-01 4.411357049386e+01 9.906430566153e+04 9.902019209103e+04 9.999832805156e-01 1.671948435300e-05 -1.326487892654e-17 -1.592637791762e-05 1.178463879907e-19 1.584714590157e-09 
2.916666666667e-01 5.513908827636e+01 9.869114940247e+04 9.863601031419e+04 9.999791017342e-01 2.089826584761e-05 -3.950947554632e-16 -1.591065368672e-05 -5.659842993225e-19 1.566222216296e-09 
3.333333333333e-01 6.976265805060e+01 9.832156387121e+04 9.825180121316e+04 9.999735592550e-01 2.644074502767e-05 -2.541951370208e-16 -1.589014050879e-05 4.248246182231e-19 1.542186782932e-09 
3.750000000000e-01 8.949246078902e+01 9.795704915586e+04 9.786755669507e+04 9.999660814624e-01 3.391853756374e-05 -2.185597747216e-16 -1.586375018907e-05 -3.891839049866e-19 1.511377046329e-09 
4.166666666667e-01 1.161733335660e+02 9.759944024438e+04 9.748326691082e+04 9.999559691448e-01 4.403085515481e-05 -8.523019887830e-16 -1.583028327398e-05 -1.636454739214e-18 1.472443454269e-09 
4.583333333333e-01 1.520121591585e+02 9.725093229460e+04 9.709892013545e+04 9.999423858716e-01 5.761412844274e-05 7.897970620526e-16 -1.578850686373e-05 -1.102114665530e-18 1.424008087462e-09 
5.000000000000e-01 1.995762559277e+02 9.691407905306e+04 9.671450279714e+04 9.999243586032e-01 7.564139675931e-05 -4.587732526726e-15 -1.573727413194e-05 -1.998234774602e-17 1.364800264324e-09 
5.416666666667e-01 2.617515227039e+02 9.659175124830e+04 9.632999972559e+04 9.999007935554e-01 9.920644462003e-05 -3.931999703676e-15 -1.567570211388e-05 -6.688107181897e-18 1.293856491274e-09 
5.833333333333e-01 3.416400141207e+02 9.628703474141e+04 9.594539472729e+04 9.998705150182e-01 1.294849817519e-04 7.520096223176e-15 -1.560345494696e-05 3.902055211109e-17 1.210838621685e-09 
6.250000000000e-01 4.423568014187e+02 9.600302850479e+04 9.556067170337e+04 9.998323423487e-01 1.676576513057e-04 -1.002821386805e-14 -1.552125006996e-05 -1.796658177817e-17 1.116604431424e-09 
6.666666666667e-01 5.666393051966e+02 9.574245608452e+04 9.517581677932e+04 9.997852380369e-01 2.147619630626e-04 -1.477782978881e-14 -1.543178880170e-05 -5.524522476585e-17 1.014263319607e-09 
7.083333333333e-01 7.161133551577e+02 9.550693563725e+04 9.479082228209e+04 9.997285858773e-01 2.714141227385e-04 3.160015169850e-14 -1.534110923923e-05 -2.493700146191e-17 9.107162071420e-10 
7.500000000000e-01 8.901277058717e+02 9.529582072968e+04 9.440569302381e+04 9.996823671117e-01 3.176328883321e-04 1.106777296513e-13 -1.518812143670e-05 -4.076276431805e-17 7.349248335284e-10 
7.916666666667e-01 1.125307639181e+03 9.514553830334e+04 9.402023066415e+04 9.994104918294e-01 5.895081705538e-04 2.079033721990e-13 -1.482698836721e-05 -8.039884280781e-17 3.236649254750e-10 
8.333333333333e-01 1.501879362259e+03 9.513589168528e+04 9.363401232302e+04 9.987150034828e-01 1.284996517154e-03 7.462887064351e-13 -1.416313690241e-05 3.599963800602e-16 -4.301758083433e-10 
8.750000000000e-01 2.109400994349e+03 9.535596393338e+04 9.324656293903e+04 9.976739320614e-01 2.326067938607e-03 -3.976856179770e-13 -1.306856388742e-05 -1.817742440416e-15 -1.693237875446e-09 
9.166666666667e-01 3.107905725914e+03 9.596495238340e+04 9.285704665749e+04 9.944871035802e-01 5.512896419790e-03 1.157801505244e-13 -1.074373162306e-05 -8.750023635156e-16 -4.396643342703e-09 
9.583333333333e-01 5.033875743779e+03 9.749649126103e+04 9.246261551725e+04 9.832999722151e-01 1.670002778490e-02 3.776942598258e-11 -4.861742233515e-06 7.189464230946e-16 -1.118235982041e-08 