 TITLE = "Time curves in points"
 VARIABLES = "TIME "  "PRESSURE1"  "PRESSURE2"  "PRESSURE_W"  "SATURATION1" SATURATION2  "VELOCITY_X1"  "VELOCITY_Y1"  "VELOCITY_X2"  "VELOCITY_Y2" 
 ZONE T="POINT=POINT0"
0.000000000000e+00 0.000000000000e+00 1.013250000000e+05 1.013250000000e+05 1.000000000000e+00 4.440892098501e-16 0.000000000000e+00 0.000000000000e+00 0.000000000000e+00 0.000000000000e+00 
1.000000000000e-03 0.000000000000e+00 1.013250000000e+05 1.013250000000e+05 1.000000000000e+00 0.000000000000e+00 -3.610761431172e-18 -2.618878265619e-04 3.709857347220e-23 1.781322122758e-11 
2.000000000000e-03 0.000000000000e+00 1.013250000000e+05 1.013250000000e+05 1.000000000000e+00 0.000000000000e+00 2.510462146090e-18 -2.589451110249e-04 -2.678280636195e-23 3.749531900140e-11 
3.000000000000e-03 0.000000000000e+00 1.013250000000e+05 1.013250000000e+05 1.000000000000e+00 1.110223024625e-16 6.737772557572e-18 -2.560413208044e-04 6.727308826401e-23 5.691706496535e-11 
4.000000000000e-03 0.000000000000e+00 1.013250000000e+05 1.013250000000e+05 1.000000000000e+00 1.110223024625e-16 4.799593167111e-18 -2.531758574383e-04 2.613969953678e-23 7.608246064558e-11 
5.000000000000e-03 0.000000000000e+00 1.013250000000e+05 1.013250000000e+05 1.000000000000e+00 0.000000000000e+00 -1.274833057335e-17 -2.503481843788e-04 1.860050127424e-25 9.499509348306e-11 
6.000000000000e-03 0.000000000000e+00 1.013250000000e+05 1.013250000000e+05 1.000000000000e+00 1.110223024625e-16 4.632062754273e-19 -2.475578210093e-04 1.834866850180e-23 1.136581769178e-10 
7.000000000000e-03 0.000000000000e+00 1.013250000000e+05 1.013250000000e+05 1.000000000000e+00 1.110223024625e-16 6.759905669765e-18 -2.448041993931e-04 2.814019047124e-23 1.320755084678e-10 
8.000000000000e-03 0.000000000000e+00 1.013250000000e+05 1.013250000000e+05 1.000000000000e+00 0.000000000000e+00 6.407364956113e-18 -2.420868540493e-04 -1.288850404524e-23 1.502502004079e-10 
9.000000000000e-03 0.000000000000e+00 1.013250000000e+05 1.013250000000e+05 1.000000000000e+00 0.000000000000e+00 1.233097960141e-18 -2.394051420072e-04 5.752132925107e-24 1.681865521867e-10 
1.000000000000e-02 0.000000000000e+00 1.013250000000e+05 1.013250000000e+05 1.000000000000e+00 1.110223024625e-16 -2.752337299079e-18 -2.367587276208e-04 3.776098826439e-24 1.858868077890e-10 
2.000000000000e-02 0.000000000000e+00 1.013250000000e+05 1.013250000000e+05 1.000000000000e+00 2.220446049250e-16 1.410162732895e-18 -2.133878650451e-04 3.212561653435e-23 3.421987984619e-10 
3.000000000000e-02 0.000000000000e+00 1.013250000000e+05 1.013250000000e+05 1.000000000000e+00 0.000000000000e+00 -5.659606183115e-18 -2.085145062975e-04 6.494036524670e-23 3.747914353306e-10 
4.000000000000e-02 0.000000000000e+00 1.013250000000e+05 1.013250000000e+05 1.000000000000e+00 0.000000000000e+00 1.010665886633e-17 -2.038359708712e-04 7.691145453545e-23 4.060806093663e-10 
5.000000000000e-02 0.000000000000e+00 1.013250000000e+05 1.013250000000e+05 1.000000000000e+00 0.000000000000e+00 4.932391755984e-18 -1.992838860193e-04 -4.988574613680e-23 4.365236076243e-10 
6.000000000000e-02 0.000000000000e+00 1.013250000000e+05 1.013250000000e+05 1.000000000000e+00 0.000000000000e+00 4.007568277776e-18 -1.948543950962e-04 -3.091976118975e-23 4.661462091042e-10 
7.000000000000e-02 0.000000000000e+00 1.013250000000e+05 1.013250000000e+05 1.000000000000e+00 0.000000000000e+00 -5.857215135880e-18 -1.905437295127e-04 2.419085545685e-23 4.949736060269e-10 
8.000000000000e-02 0.000000000000e+00 1.013250000000e+05 1.013250000000e+05 1.000000000000e+00 0.000000000000e+00 -9.026904814174e-19 -1.863472525734e-04 -1.422734888353e-23 5.230367987429e-10 
9.000000000000e-02 0.000000000000e+00 1.013250000000e+05 1.013250000000e+05 1.000000000000e+00 1.110223024625e-16 5.548940567867e-18 -1.822634166525e-04 -2.574039498560e-23 5.503461287309e-10 
1.000000000000e-01 0.000000000000e+00 1.013250000000e+05 1.013250000000e+05 1.000000000000e+00 0.000000000000e+00 2.795017273373e-18 -1.782887838032e-04 -3.314580399091e-23 5.769245824777e-10 
2.000000000000e-01 0.000000000000e+00 1.013250000000e+05 1.013250000000e+05 1.000000000000e+00 1.110223024625e-16 7.272101283934e-19 -1.470022493889e-04 4.905970652879e-23 7.860906187217e-10 
3.000000000000e-01 0.000000000000e+00 1.013250000000e+05 1.013250000000e+05 1.000000000000e+00 0.000000000000e+00 2.972086531632e-18 -1.316979574897e-04 2.109080951192e-23 8.883315653424e-10 
4.000000000000e-01 0.000000000000e+00 1.013250000000e+05 1.013250000000e+05 1.000000000000e+00 2.220446049250e-16 -3.721422074033e-18 -1.204573577114e-04 1.756473455529e-24 9.633772711338e-10 
5.000000000000e-01 0.000000000000e+00 1.013250000000e+05 1.013250000000e+05 1.000000000000e+00 0.000000000000e+00 -3.525331751370e-19 -1.113503323601e-04 1.569003171696e-23 1.024140691058e-09 
6.000000000000e-01 0.000000000000e+00 1.013250000000e+05 1.013250000000e+05 1.000000000000e+00 0.000000000000e+00 -5.722915017470e-19 -1.037523339266e-04 6.223998912460e-23 1.074801746924e-09 
7.000000000000e-01 0.000000000000e+00 1.013250000000e+05 1.013250000000e+05 1.000000000000e+00 1.110223024625e-16 4.888130467433e-18 -9.733102938302e-05 -3.961010600857e-24 1.117585435791e-09 
8.000000000000e-01 0.000000000000e+00 1.013250000000e+05 1.013250000000e+05 1.000000000000e+00 0.000000000000e+00 -1.052556739279e-17 -9.175163912609e-05 4.270408681351e-23 1.154732477691e-09 
9.000000000000e-01 0.000000000000e+00 1.013250000000e+05 1.013250000000e+05 1.000000000000e+00 1.110223024625e-16 -5.944228821745e-19 -8.683716161140e-05 -2.908880130644e-23 1.187427973051e-09 
1.000000000000e+00 0.000000000000e+00 1.013250000000e+05 1.013250000000e+05 1.000000000000e+00 0.000000000000e+00 -2.135792922347e-18 -8.248152276295e-05 -8.519911493684e-23 1.216382433182e-09 
2.000000000000e+00 0.000000000000e+00 1.013250000000e+05 1.013250000000e+05 1.000000000000e+00 0.000000000000e+00 -6.759892543161e-18 -6.089461464543e-05 5.681239973516e-23 1.359004034813e-09 
3.000000000000e+00 0.000000000000e+00 1.013250000000e+05 1.013250000000e+05 1.000000000000e+00 1.110223024625e-16 -4.535680642831e-18 -4.845753758796e-05 2.944003325458e-23 1.440519756099e-09 
4.000000000000e+00 0.000000000000e+00 1.013250000000e+05 1.013250000000e+05 1.000000000000e+00 0.000000000000e+00 -1.914914925761e-18 -4.094266175447e-05 4.857497301862e-23 1.489230319957e-09 
5.000000000000e+00 0.000000000000e+00 1.013250000000e+05 1.013250000000e+05 1.000000000000e+00 0.000000000000e+00 -1.497193743046e-18 -3.588814064162e-05 1.168904247735e-22 1.521593740135e-09 
6.000000000000e+00 0.000000000000e+00 1.013250000000e+05 1.013250000000e+05 1.000000000000e+00 0.000000000000e+00 -9.710144529859e-18 -3.223661204317e-05 1.073825199481e-22 1.544668024872e-09 
7.000000000000e+00 0.000000000000e+00 1.013250000000e+05 1.013250000000e+05 1.000000000000e+00 1.110223024625e-16 -2.635528718536e-19 -2.953471465470e-05 9.254815425504e-23 1.561473502606e-09 
8.000000000000e+00 0.000000000000e+00 1.013250000000e+05 1.013250000000e+05 1.000000000000e+00 0.000000000000e+00 -5.416515407339e-18 -2.747589416015e-05 6.004592139354e-23 1.574050090337e-09 
9.000000000000e+00 0.000000000000e+00 1.013250000000e+05 1.013250000000e+05 1.000000000000e+00 0.000000000000e+00 -1.629523007068e-18 -2.586224467496e-05 -1.251874992782e-23 1.583711899529e-09 
1.000000000000e+01 0.000000000000e+00 1.013250000000e+05 1.013250000000e+05 1.000000000000e+00 0.000000000000e+00 1.299184928608e-18 -2.458708536934e-05 1.511099032142e-23 1.591163815188e-09 
1.100000000000e+01 0.000000000000e+00 1.013250000000e+05 1.013250000000e+05 1.000000000000e+00 0.000000000000e+00 4.425724938209e-18 -2.354506755131e-05 3.859565647729e-23 1.597102921076e-09 
1.200000000000e+01 0.000000000000e+00 1.013250000000e+05 1.013250000000e+05 1.000000000000e+00 0.000000000000e+00 1.012897053362e-18 -2.267687179437e-05 4.458673479274e-23 1.601918692997e-09 
1.300000000000e+01 0.000000000000e+00 1.013250000000e+05 1.013250000000e+05 1.000000000000e+00 1.110223024625e-16 9.247981535258e-19 -2.194194159516e-05 -1.243383092426e-23 1.605875511147e-09 
1.400000000000e+01 0.000000000000e+00 1.013250000000e+05 1.013250000000e+05 1.000000000000e+00 0.000000000000e+00 2.113836331474e-18 -2.130550189764e-05 5.476579675491e-23 1.609199126350e-09 
1.500000000000e+01 0.000000000000e+00 1.013250000000e+05 1.013250000000e+05 1.000000000000e+00 0.000000000000e+00 -7.993081920698e-18 -2.074526152872e-05 7.549335132934e-23 1.612031837456e-09 
1.600000000000e+01 0.000000000000e+00 1.013250000000e+05 1.013250000000e+05 1.000000000000e+00 0.000000000000e+00 -9.115946708965e-18 -2.024326101824e-05 2.502392844764e-23 1.614486866137e-09 
1.700000000000e+01 0.000000000000e+00 1.013250000000e+05 1.013250000000e+05 1.000000000000e+00 1.110223024625e-16 1.004039683183e-17 -1.978812508843e-05 2.610069162963e-23 1.616633322171e-09 
1.800000000000e+01 0.000000000000e+00 1.013250000000e+05 1.013250000000e+05 1.000000000000e+00 0.000000000000e+00 5.438362986330e-18 -1.937137794271e-05 1.015111025688e-23 1.618520818062e-09 
1.900000000000e+01 0.000000000000e+00 1.013250000000e+05 1.013250000000e+05 1.000000000000e+00 0.000000000000e+00 1.408895697503e-18 -1.898659514872e-05 -2.864343219093e-23 1.620185158167e-09 
2.000000000000e+01 0.000000000000e+00 1.013250000000e+05 1.013250000000e+05 1.000000000000e+00 0.000000000000e+00 -4.558648352959e-18 -1.863047079064e-05 2.097284874994e-23 1.621641273696e-09 
2.100000000000e+01 0.000000000000e+00 1.013250000000e+05 1.013250000000e+05 1.000000000000e+00 0.000000000000e+00 -1.017265811079e-17 -1.829683244331e-05 5.360035475846e-23 1.622923266955e-09 
2.200000000000e+01 0.000000000000e+00 1.013250000000e+05 1.013250000000e+05 1.000000000000e+00 0.000000000000e+00 -3.060658046238e-18 -1.798473463168e-05 -6.414769697195e-23 1.624030383722e-09 
2.300000000000e+01 0.000000000000e+00 1.013250000000e+05 1.013250000000e+05 1.000000000000e+00 0.000000000000e+00 9.094164939473e-18 -1.768831296900e-05 -3.661533820019e-24 1.624994867523e-09 
2.400000000000e+01 0.000000000000e+00 1.013250000000e+05 1.013250000000e+05 1.000000000000e+00 0.000000000000e+00 8.150504371047e-19 -1.740657313516e-05 -9.854876843933e-24 1.625816691931e-09 
2.500000000000e+01 0.000000000000e+00 1.013250000000e+05 1.013250000000e+05 1.000000000000e+00 1.110223024625e-16 -4.184011186304e-18 -1.713816187291e-05 -2.271246578781e-23 1.626498579708e-09 
2.600000000000e+01 0.000000000000e+00 1.013250000000e+05 1.013250000000e+05 1.000000000000e+00 0.000000000000e+00 1.696042981469e-18 -1.688206308403e-05 2.947052316229e-23 1.627041417515e-09 
2.700000000000e+01 0.000000000000e+00 1.013250000000e+05 1.013250000000e+05 1.000000000000e+00 0.000000000000e+00 6.473440312322e-18 -1.663692682449e-05 7.001981342605e-23 1.627448796104e-09 
2.800000000000e+01 0.000000000000e+00 1.013250000000e+05 1.013250000000e+05 1.000000000000e+00 0.000000000000e+00 5.681603012785e-18 -1.640185681285e-05 -7.533732933808e-24 1.627721795550e-09 
2.900000000000e+01 0.000000000000e+00 1.013250000000e+05 1.013250000000e+05 1.000000000000e+00 0.000000000000e+00 1.202205111802e-17 -1.617701709286e-05 -4.697625180663e-23 1.627854981744e-09 
3.000000000000e+01 0.000000000000e+00 1.013250000000e+05 1.013250000000e+05 1.000000000000e+00 0.000000000000e+00 7.795741797282e-18 -1.596071450069e-05 2.958198452902e-23 1.627855919081e-09 
3.100000000000e+01 0.000000000000e+00 1.013250000000e+05 1.013250000000e+05 1.000000000000e+00 0.000000000000e+00 7.573217807070e-18 -1.575244654309e-05 7.722241273027e-23 1.627724764312e-09 
3.200000000000e+01 0.000000000000e+00 1.013250000000e+05 1.013250000000e+05 1.000000000000e+00 0.000000000000e+00 9.886046027994e-18 -1.555189769184e-05 2.980231728296e-23 1.627461024973e-09 
3.300000000000e+01 0.000000000000e+00 1.013250000000e+05 1.013250000000e+05 1.000000000000e+00 0.000000000000e+00 -8.102062626472e-18 -1.535855277184e-05 -1.219251840067e-24 1.627066118570e-09 
3.400000000000e+01 0.000000000000e+00 1.013250000000e+05 1.013250000000e+05 1.000000000000e+00 0.000000000000e+00 -4.228156552642e-18 -1.517173562578e-05 -7.998859323418e-23 1.626543098102e-09 
3.500000000000e+01 0.000000000000e+00 1.013250000000e+05 1.013250000000e+05 1.000000000000e+00 0.000000000000e+00 4.315538497822e-18 -1.499118626853e-05 -2.114222724070e-23 1.625892785287e-09 
3.600000000000e+01 0.000000000000e+00 1.013250000000e+05 1.013250000000e+05 1.000000000000e+00 0.000000000000e+00 1.805865342708e-18 -1.481654032129e-05 -6.010033675591e-23 1.625117228562e-09 
3.700000000000e+01 0.000000000000e+00 1.013250000000e+05 1.013250000000e+05 1.000000000000e+00 0.000000000000e+00 -6.560500677210e-18 -1.464737780348e-05 -2.507632464203e-23 1.624219345473e-09 
3.800000000000e+01 0.000000000000e+00 1.013250000000e+05 1.013250000000e+05 1.000000000000e+00 2.220446049250e-16 1.737396197621e-18 -1.448326800161e-05 -6.955867159944e-24 1.623202588036e-09 
3.900000000000e+01 0.000000000000e+00 1.013250000000e+05 1.013250000000e+05 1.000000000000e+00 0.000000000000e+00 4.493054218186e-18 -1.432411001167e-05 -6.002995293062e-23 1.622068623714e-09 
4.000000000000e+01 0.000000000000e+00 1.013250000000e+05 1.013250000000e+05 1.000000000000e+00 2.220446049250e-16 5.240206485275e-18 -1.417043382787e-05 1.411502159426e-24 1.620815303721e-09 
4.100000000000e+01 0.000000000000e+00 1.013250000000e+05 1.013250000000e+05 1.000000000000e+00 0.000000000000e+00 6.473171321198e-18 -1.402179390269e-05 3.644547573532e-23 1.619447265823e-09 
4.200000000000e+01 0.000000000000e+00 1.013250000000e+05 1.013250000000e+05 1.000000000000e+00 0.000000000000e+00 5.461488696436e-18 -1.387672675348e-05 -2.099647028290e-23 1.617976233606e-09 
4.300000000000e+01 0.000000000000e+00 1.013250000000e+05 1.013250000000e+05 1.000000000000e+00 0.000000000000e+00 -3.950963753009e-19 -1.373547351828e-05 2.437030748610e-23 1.616402761679e-09 
4.400000000000e+01 0.000000000000e+00 1.013250000000e+05 1.013250000000e+05 1.000000000000e+00 0.000000000000e+00 1.041515754693e-17 -1.359789944078e-05 -1.842294256981e-23 1.614730121385e-09 
4.500000000000e+01 0.000000000000e+00 1.013250000000e+05 1.013250000000e+05 1.000000000000e+00 1.110223024625e-16 6.473063512909e-18 -1.346384643002e-05 -5.155081690754e-23 1.612961924280e-09 
4.600000000000e+01 0.000000000000e+00 1.013250000000e+05 1.013250000000e+05 1.000000000000e+00 0.000000000000e+00 -9.777038769627e-18 -1.333325111932e-05 -1.048678235907e-22 1.611101318693e-09 
4.700000000000e+01 0.000000000000e+00 1.013250000000e+05 1.013250000000e+05 1.000000000000e+00 0.000000000000e+00 1.087489803130e-17 -1.320596056950e-05 9.004942818155e-24 1.609152206358e-09 
4.800000000000e+01 0.000000000000e+00 1.013250000000e+05 1.013250000000e+05 1.000000000000e+00 0.000000000000e+00 -3.877363431224e-18 -1.308201397472e-05 1.507272019396e-23 1.607117343585e-09 
4.900000000000e+01 0.000000000000e+00 1.013250000000e+05 1.013250000000e+05 1.000000000000e+00 1.110223024625e-16 -2.795718172091e-18 -1.296141695766e-05 -5.438231597820e-23 1.604999819985e-09 
5.000000000000e+01 0.000000000000e+00 1.013250000000e+05 1.013250000000e+05 1.000000000000e+00 0.000000000000e+00 -1.146620426731e-18 -1.284402918893e-05 1.042421921608e-23 1.602803774921e-09 
5.100000000000e+01 0.000000000000e+00 1.013250000000e+05 1.013250000000e+05 1.000000000000e+00 0.000000000000e+00 7.024671420819e-18 -1.272977017040e-05 9.663394373484e-23 1.600532983915e-09 
5.200000000000e+01 0.000000000000e+00 1.013250000000e+05 1.013250000000e+05 1.000000000000e+00 0.000000000000e+00 7.684234633965e-18 -1.261895045621e-05 8.934781804785e-25 1.598188613818e-09 
5.300000000000e+01 0.000000000000e+00 1.013250000000e+05 1.013250000000e+05 1.000000000000e+00 0.000000000000e+00 -7.512094538713e-18 -1.251074458280e-05 6.165943281243e-23 1.595779369410e-09 
5.400000000000e+01 0.000000000000e+00 1.013250000000e+05 1.013250000000e+05 1.000000000000e+00 0.000000000000e+00 -8.587388295910e-18 -1.240527775669e-05 1.052275809745e-23 1.593307555291e-09 
5.500000000000e+01 0.000000000000e+00 1.013250000000e+05 1.013250000000e+05 1.000000000000e+00 0.000000000000e+00 2.602263719313e-18 -1.230248192684e-05 -9.905633547566e-24 1.590776711783e-09 
5.600000000000e+01 0.000000000000e+00 1.013250000000e+05 1.013250000000e+05 1.000000000000e+00 0.000000000000e+00 -5.218366362984e-18 -1.220222449062e-05 1.474932264913e-22 1.588190771364e-09 
5.700000000000e+01 0.000000000000e+00 1.013250000000e+05 1.013250000000e+05 1.000000000000e+00 0.000000000000e+00 6.228734777038e-18 -1.210398279590e-05 -1.171763334187e-24 1.585556242110e-09 
5.800000000000e+01 0.000000000000e+00 1.013250000000e+05 1.013250000000e+05 1.000000000000e+00 0.000000000000e+00 3.369028627871e-18 -1.200775838247e-05 1.049094529169e-22 1.582876124318e-09 
5.900000000000e+01 0.000000000000e+00 1.013250000000e+05 1.013250000000e+05 1.000000000000e+00 0.000000000000e+00 2.138054988581e-20 -1.191346419121e-05 1.846471728981e-23 1.580154015698e-09 
6.000000000000e+01 0.000000000000e+00 1.013250000000e+05 1.013250000000e+05 1.000000000000e+00 0.000000000000e+00 -6.823504684379e-18 -1.182104446344e-05 -8.540689331901e-23 1.577393299739e-09 
6.100000000000e+01 0.000000000000e+00 1.013250000000e+05 1.013250000000e+05 1.000000000000e+00 0.000000000000e+00 5.218338310633e-18 -1.173042698657e-05 -8.965287621556e-23 1.574597444794e-09 
6.200000000000e+01 0.000000000000e+00 1.013250000000e+05 1.013250000000e+05 1.000000000000e+00 0.000000000000e+00 -8.916904154835e-18 -1.164154892863e-05 -3.639774511565e-23 1.571769802908e-09 
6.300000000000e+01 0.000000000000e+00 1.013250000000e+05 1.013250000000e+05 1.000000000000e+00 0.000000000000e+00 2.465700558457e-18 -1.155434742489e-05 -1.826500638576e-22 1.568913634763e-09 
6.400000000000e+01 0.000000000000e+00 1.013250000000e+05 1.013250000000e+05 1.000000000000e+00 0.000000000000e+00 4.378741129472e-18 -1.146943614240e-05 -1.504928704325e-22 1.566027567238e-09 
6.500000000000e+01 0.000000000000e+00 1.013250000000e+05 1.013250000000e+05 1.000000000000e+00 0.000000000000e+00 -1.541045463744e-18 -1.138570560142e-05 -5.852824004244e-23 1.563121553075e-09 
6.600000000000e+01 0.000000000000e+00 1.013250000000e+05 1.013250000000e+05 1.000000000000e+00 1.110223024625e-16 -6.632053254160e-18 -1.130387606883e-05 8.521762429670e-23 1.560193144913e-09 
6.700000000000e+01 0.000000000000e+00 1.013250000000e+05 1.013250000000e+05 1.000000000000e+00 0.000000000000e+00 -3.390261557422e-18 -1.122324453053e-05 8.751338107379e-23 1.557249201554e-09 
6.800000000000e+01 0.000000000000e+00 1.013250000000e+05 1.013250000000e+05 1.000000000000e+00 1.110223024625e-16 -1.169312560608e-18 -1.114390551920e-05 -1.095390472353e-22 1.554291089448e-09 
6.900000000000e+01 0.000000000000e+00 1.013250000000e+05 1.013250000000e+05 1.000000000000e+00 1.110223024625e-16 -3.689472823670e-18 -1.106589523924e-05 1.371942010575e-23 1.551320446894e-09 
7.000000000000e+01 0.000000000000e+00 1.013250000000e+05 1.013250000000e+05 1.000000000000e+00 0.000000000000e+00 1.253920957291e-18 -1.098915708101e-05 -6.735112197413e-23 1.548339471971e-09 
7.100000000000e+01 0.000000000000e+00 1.013250000000e+05 1.013250000000e+05 1.000000000000e+00 0.000000000000e+00 -9.245957306877e-19 -1.091370346618e-05 -3.138797753851e-23 1.545349889656e-09 
7.200000000000e+01 0.000000000000e+00 1.013250000000e+05 1.013250000000e+05 1.000000000000e+00 1.110223024625e-16 6.801401734909e-18 -1.083947085415e-05 -3.598012688906e-23 1.542353950594e-09 
7.300000000000e+01 0.000000000000e+00 1.013250000000e+05 1.013250000000e+05 1.000000000000e+00 0.000000000000e+00 -7.662781343646e-18 -1.076646965867e-05 7.789453620613e-23 1.539353442670e-09 
7.400000000000e+01 0.000000000000e+00 1.013250000000e+05 1.013250000000e+05 1.000000000000e+00 0.000000000000e+00 4.580852238439e-18 -1.069464814278e-05 1.319887028642e-23 1.536350579513e-09 
7.500000000000e+01 0.000000000000e+00 1.013250000000e+05 1.013250000000e+05 1.000000000000e+00 2.220446049250e-16 -3.306107681040e-18 -1.062400719564e-05 -4.387201992608e-23 1.533347203966e-09 
7.600000000000e+01 0.000000000000e+00 1.013250000000e+05 1.013250000000e+05 1.000000000000e+00 0.000000000000e+00 1.257285475731e-17 -1.055446042001e-05 -1.540711555350e-22 1.530345678047e-09 
7.700000000000e+01 0.000000000000e+00 1.013250000000e+05 1.013250000000e+05 1.000000000000e+00 0.000000000000e+00 -1.253704743373e-18 -1.048605769887e-05 -1.272295749063e-22 1.527347346941e-09 
7.800000000000e+01 0.000000000000e+00 1.013250000000e+05 1.013250000000e+05 1.000000000000e+00 0.000000000000e+00 4.251822932279e-18 -1.041874706269e-05 -2.590731249078e-22 1.524354086390e-09 
7.900000000000e+01 0.000000000000e+00 1.013250000000e+05 1.013250000000e+05 1.000000000000e+00 0.000000000000e+00 9.161918542348e-18 -1.035245965465e-05 1.928225204502e-22 1.521367699608e-09 
8.000000000000e+01 0.000000000000e+00 1.013250000000e+05 1.013250000000e+05 1.000000000000e+00 0.000000000000e+00 5.771948694881e-18 -1.028720267114e-05 6.932350587786e-23 1.518389278742e-09 
8.100000000000e+01 0.000000000000e+00 1.013250000000e+05 1.013250000000e+05 1.000000000000e+00 1.110223024625e-16 -1.019083853148e-17 -1.022325725357e-05 9.154974480651e-23 1.515417881026e-09 
8.200000000000e+01 0.000000000000e+00 1.013250000000e+05 1.013250000000e+05 1.000000000000e+00 0.000000000000e+00 -9.453737007676e-19 -1.016006521824e-05 2.133351565928e-22 1.512457986551e-09 
8.300000000000e+01 0.000000000000e+00 1.013250000000e+05 1.013250000000e+05 1.000000000000e+00 0.000000000000e+00 -2.402986491712e-18 -1.009782138886e-05 9.569942153444e-23 1.509508953047e-09 
8.400000000000e+01 0.000000000000e+00 1.013250000000e+05 1.013250000000e+05 1.000000000000e+00 1.110223024625e-16 2.486198206045e-18 -1.003645107037e-05 -4.522068002608e-24 1.506571928024e-09 
8.500000000000e+01 0.000000000000e+00 1.013250000000e+05 1.013250000000e+05 1.000000000000e+00 1.110223024625e-16 4.560318496274e-18 -9.975995713493e-06 -6.323947116923e-23 1.503647358408e-09 
8.600000000000e+01 0.000000000000e+00 1.013250000000e+05 1.013250000000e+05 1.000000000000e+00 0.000000000000e+00 4.293675855328e-18 -9.916394799303e-06 9.982536365408e-23 1.500736492831e-09 
8.700000000000e+01 0.000000000000e+00 1.013250000000e+05 1.013250000000e+05 1.000000000000e+00 0.000000000000e+00 5.334587926031e-19 -9.857682379998e-06 -4.277331986778e-23 1.497840079197e-09 
8.800000000000e+01 0.000000000000e+00 1.013250000000e+05 1.013250000000e+05 1.000000000000e+00 0.000000000000e+00 1.170582733579e-18 -9.799791985060e-06 -6.439102054057e-23 1.494959637188e-09 
8.900000000000e+01 0.000000000000e+00 1.013250000000e+05 1.013250000000e+05 1.000000000000e+00 0.000000000000e+00 -1.540839418210e-18 -9.742745372386e-06 6.317511231936e-23 1.492096148263e-09 
9.000000000000e+01 0.000000000000e+00 1.013250000000e+05 1.013250000000e+05 1.000000000000e+00 0.000000000000e+00 1.787035481003e-18 -9.686510986831e-06 -4.248537840553e-23 1.489250926310e-09 
9.100000000000e+01 0.000000000000e+00 1.013250000000e+05 1.013250000000e+05 1.000000000000e+00 0.000000000000e+00 -7.005258812768e-18 -9.631062439022e-06 6.077822792016e-23 1.486425165295e-09 
9.200000000000e+01 0.000000000000e+00 1.013250000000e+05 1.013250000000e+05 1.000000000000e+00 0.000000000000e+00 7.621635399014e-18 -9.576904389538e-06 2.521954301579e-23 1.483616374178e-09 
9.300000000000e+01 0.000000000000e+00 1.013250000000e+05 1.013250000000e+05 1.000000000000e+00 1.110223024625e-16 1.074447455963e-17 -9.523185348370e-06 -8.091196065210e-23 1.480830907404e-09 
9.400000000000e+01 0.000000000000e+00 1.013250000000e+05 1.013250000000e+05 1.000000000000e+00 3.330669073875e-16 8.669612329822e-18 -9.470177907832e-06 1.070975540911e-22 1.478067394389e-09 
9.500000000000e+01 0.000000000000e+00 1.013250000000e+05 1.013250000000e+05 1.000000000000e+00 0.000000000000e+00 8.340821945709e-18 -9.417881335036e-06 2.660779538637e-23 1.475326060367e-09 
9.600000000000e+01 0.000000000000e+00 1.013250000000e+05 1.013250000000e+05 1.000000000000e+00 2.220446049250e-16 4.006038736465e-18 -9.366280151059e-06 -5.220445373329e-23 1.472606992483e-09 
9.700000000000e+01 0.000000000000e+00 1.013250000000e+05 1.013250000000e+05 1.000000000000e+00 0.000000000000e+00 3.965010543381e-18 -9.315359045835e-06 3.333466709661e-22 1.469910051165e-09 
9.800000000000e+01 0.000000000000e+00 1.013250000000e+05 1.013250000000e+05 1.000000000000e+00 0.000000000000e+00 -3.615911448308e-18 -9.265359619672e-06 -1.209017458558e-24 1.467233216197e-09 
9.900000000000e+01 0.000000000000e+00 1.013250000000e+05 1.013250000000e+05 1.000000000000e+00 1.110223024625e-16 -6.142582733627e-18 -9.215869297046e-06 1.140741426009e-23 1.464578750042e-09 
1.000000000000e+02 0.000000000000e+00 1.013250000000e+05 1.013250000000e+05 1.000000000000e+00 0.000000000000e+00 -4.005960389028e-18 -9.167011093823e-06 -1.446527959099e-22 1.461945420117e-09 
1.010000000000e+02 0.000000000000e+00 1.013250000000e+05 1.013250000000e+05 1.000000000000e+00 1.110223024625e-16 -1.479479077198e-18 -9.118790872540e-06 6.470037164911e-23 1.459332977783e-09 
1.020000000000e+02 0.000000000000e+00 1.013250000000e+05 1.013250000000e+05 1.000000000000e+00 1.110223024625e-16 -9.183228270726e-18 -9.071180577891e-06 1.073150578888e-22 1.456741687059e-09 
1.030000000000e+02 0.000000000000e+00 1.013250000000e+05 1.013250000000e+05 1.000000000000e+00 1.110223024625e-16 -1.191820195728e-18 -9.024186807534e-06 1.144302311289e-22 1.454171873131e-09 
1.040000000000e+02 0.000000000000e+00 1.013250000000e+05 1.013250000000e+05 1.000000000000e+00 1.110223024625e-16 -9.718097548674e-18 -8.977810198312e-06 -2.906309544490e-23 1.451624143441e-09 
1.050000000000e+02 0.000000000000e+00 1.013250000000e+05 1.013250000000e+05 1.000000000000e+00 0.000000000000e+00 -5.976789520589e-18 -8.932032660670e-06 -1.470681766491e-22 1.449099372060e-09 
1.060000000000e+02 0.000000000000e+00 1.013250000000e+05 1.013250000000e+05 1.000000000000e+00 0.000000000000e+00 -8.279189122771e-18 -8.886841091926e-06 -1.443049889000e-22 1.446598439995e-09 
1.070000000000e+02 0.000000000000e+00 1.013250000000e+05 1.013250000000e+05 1.000000000000e+00 0.000000000000e+00 -2.834182848259e-18 -8.842248518213e-06 -8.829308262316e-23 1.444121977557e-09 
1.080000000000e+02 0.000000000000e+00 1.013250000000e+05 1.013250000000e+05 1.000000000000e+00 0.000000000000e+00 -4.704314139765e-19 -8.798186735395e-06 1.519654222470e-22 1.441671001299e-09 
1.090000000000e+02 0.000000000000e+00 1.013250000000e+05 1.013250000000e+05 1.000000000000e+00 0.000000000000e+00 1.909631603093e-18 -8.754690925412e-06 -5.681181203179e-23 1.439245618753e-09 
1.100000000000e+02 0.000000000000e+00 1.013250000000e+05 1.013250000000e+05 1.000000000000e+00 0.000000000000e+00 1.520433886277e-18 -8.711741266336e-06 -1.067448991055e-23 1.436846050809e-09 
1.110000000000e+02 0.000000000000e+00 1.013250000000e+05 1.013250000000e+05 1.000000000000e+00 0.000000000000e+00 1.171847831463e-18 -8.669342862475e-06 -2.267331930411e-23 1.434472092868e-09 
1.120000000000e+02 0.000000000000e+00 1.013250000000e+05 1.013250000000e+05 1.000000000000e+00 0.000000000000e+00 -5.465559620984e-18 -8.627456076286e-06 8.109949368563e-23 1.432123581149e-09 
1.130000000000e+02 0.000000000000e+00 1.013250000000e+05 1.013250000000e+05 1.000000000000e+00 1.110223024625e-16 -5.157474836086e-18 -8.586102835195e-06 9.641713850943e-23 1.429799707344e-09 
1.140000000000e+02 0.000000000000e+00 1.013250000000e+05 1.013250000000e+05 1.000000000000e+00 1.110223024625e-16 1.848788411874e-18 -8.545252616952e-06 9.190022622580e-23 1.427499812078e-09 
1.150000000000e+02 0.000000000000e+00 1.013250000000e+05 1.013250000000e+05 1.000000000000e+00 0.000000000000e+00 -2.773171100704e-18 -8.504912001408e-06 1.705634018056e-22 1.425222815639e-09 
1.160000000000e+02 0.000000000000e+00 1.013250000000e+05 1.013250000000e+05 1.000000000000e+00 0.000000000000e+00 4.601790059441e-18 -8.465055174558e-06 2.879736194379e-22 1.422967723060e-09 
1.170000000000e+02 0.000000000000e+00 1.013250000000e+05 1.013250000000e+05 1.000000000000e+00 2.220446049250e-16 -7.046683570493e-18 -8.425884084189e-06 2.292319263805e-22 1.420731994936e-09 
1.180000000000e+02 0.000000000000e+00 1.013250000000e+05 1.013250000000e+05 1.000000000000e+00 0.000000000000e+00 -5.975052516299e-18 -8.387078990547e-06 -4.065159950106e-23 1.418516731327e-09 
1.190000000000e+02 0.000000000000e+00 1.013250000000e+05 1.013250000000e+05 1.000000000000e+00 0.000000000000e+00 8.259103015460e-18 -8.348720136273e-06 8.621565616696e-23 1.416320724882e-09 
1.200000000000e+02 0.000000000000e+00 1.013250000000e+05 1.013250000000e+05 1.000000000000e+00 0.000000000000e+00 -5.760976242956e-19 -8.310807882096e-06 2.844485177639e-22 1.414143796390e-09 
