 TITLE = "Profiles along polylines"
 VARIABLES = "DIST" "PRESSURE1" "SATURATION1" "SATURATION2" 
 ZONE T="TIME=0.000000000000e+00"
0.000000000000e+00 9.806700000000e+04 1.000000000000e+00 0.000000000000e+00 
3.333333333333e-01 9.806700000000e+04 1.000000000000e+00 0.000000000000e+00 
6.666666666667e-01 9.806700000000e+04 1.000000000000e+00 0.000000000000e+00 
1.000000000000e+00 9.806700000000e+04 1.000000000000e+00 0.000000000000e+00 
1.333333333333e+00 9.806700000000e+04 1.000000000000e+00 0.000000000000e+00 
1.666666666667e+00 9.806700000000e+04 1.000000000000e+00 0.000000000000e+00 
2.000000000000e+00 9.806700000000e+04 1.000000000000e+00 0.000000000000e+00 
2.333333333333e+00 9.806700000000e+04 1.000000000000e+00 0.000000000000e+00 
2.666666666667e+00 9.806700000000e+04 1.000000000000e+00 0.000000000000e+00 
3.000000000000e+00 9.806700000000e+04 1.000000000000e+00 0.000000000000e+00 
3.333333333333e+00 9.806700000000e+04 1.000000000000e+00 0.000000000000e+00 
3.666666666667e+00 9.806700000000e+04 1.000000000000e+00 0.000000000000e+00 
4.000000000000e+00 9.806700000000e+04 1.000000000000e+00 0.000000000000e+00 
4.333333333333e+00 9.806700000000e+04 1.000000000000e+00 0.000000000000e+00 
4.666666666667e+00 9.806700000000e+04 1.000000000000e+00 0.000000000000e+00 
5.000000000000e+00 9.806700000000e+04 8.999977480000e-01 1.000022520000e-01 
5.333333333333e+00 9.806700000000e+04 8.999977480000e-01 1.000022520000e-01 
5.666666666667e+00 9.806700000000e+04 8.999977480000e-01 1.000022520000e-01 
6.000000000000e+00 9.806700000000e+04 8.999977480000e-01 1.000022520000e-01 
6.333333333333e+00 9.806700000000e+04 8.999977480000e-01 1.000022520000e-01 
6.666666666667e+00 9.806700000000e+04 8.999977480000e-01 1.000022520000e-01 
7.000000000000e+00 9.806700000000e+04 8.999977480000e-01 1.000022520000e-01 
7.333333333333e+00 9.806700000000e+04 8.999977480000e-01 1.000022520000e-01 
7.666666666667e+00 9.806700000000e+04 8.999977480000e-01 1.000022520000e-01 
8.000000000000e+00 9.806700000000e+04 8.999977480000e-01 1.000022520000e-01 
8.333333333333e+00 9.806700000000e+04 8.999977480000e-01 1.000022520000e-01 
8.666666666667e+00 9.806700000000e+04 8.999977480000e-01 1.000022520000e-01 
9.000000000000e+00 9.806700000000e+04 8.999977480000e-01 1.000022520000e-01 
9.333333333333e+00 9.806700000000e+04 8.999977480000e-01 1.000022520000e-01 
9.666666666667e+00 9.806700000000e+04 8.999977480000e-01 1.000022520000e-01 
1.000000000000e+01 9.806700000000e+04 8.999977480000e-01 1.000022520000e-01 
1.033333333333e+01 9.806700000000e+04 8.999977480000e-01 1.000022520000e-01 
1.066666666667e+01 9.806700000000e+04 1.000000000000e+00 0.000000000000e+00 
1.100000000000e+01 9.806700000000e+04 1.000000000000e+00 0.000000000000e+00 
1.133333333333e+01 9.806700000000e+04 1.000000000000e+00 0.000000000000e+00 
1.166666666667e+01 9.806700000000e+04 1.000000000000e+00 0.000000000000e+00 
1.200000000000e+01 9.806700000000e+04 1.000000000000e+00 0.000000000000e+00 
1.233333333333e+01 9.806700000000e+04 1.000000000000e+00 0.000000000000e+00 
1.266666666667e+01 9.806700000000e+04 1.000000000000e+00 0.000000000000e+00 
1.300000000000e+01 9.806700000000e+04 1.000000000000e+00 0.000000000000e+00 
1.333333333333e+01 9.806700000000e+04 1.000000000000e+00 0.000000000000e+00 
1.366666666667e+01 9.806700000000e+04 1.000000000000e+00 0.000000000000e+00 
1.400000000000e+01 9.806700000000e+04 1.000000000000e+00 0.000000000000e+00 
1.433333333333e+01 9.806700000000e+04 1.000000000000e+00 0.000000000000e+00 
1.466666666667e+01 9.806700000000e+04 1.000000000000e+00 0.000000000000e+00 
1.500000000000e+01 9.806700000000e+04 1.000000000000e+00 0.000000000000e+00 
1.533333333333e+01 9.806700000000e+04 1.000000000000e+00 0.000000000000e+00 
1.566666666667e+01 9.806700000000e+04 1.000000000000e+00 0.000000000000e+00 
1.600000000000e+01 9.806700000000e+04 1.000000000000e+00 0.000000000000e+00 
1.633333333333e+01 9.806700000000e+04 1.000000000000e+00 0.000000000000e+00 
1.666666666667e+01 9.806700000000e+04 1.000000000000e+00 0.000000000000e+00 
1.700000000000e+01 9.806700000000e+04 1.000000000000e+00 0.000000000000e+00 
1.733333333333e+01 9.806700000000e+04 1.000000000000e+00 0.000000000000e+00 
1.766666666667e+01 9.806700000000e+04 1.000000000000e+00 0.000000000000e+00 
1.800000000000e+01 9.806700000000e+04 1.000000000000e+00 0.000000000000e+00 
1.833333333333e+01 9.806700000000e+04 1.000000000000e+00 0.000000000000e+00 
1.866666666667e+01 9.806700000000e+04 1.000000000000e+00 0.000000000000e+00 
1.900000000000e+01 9.806700000000e+04 1.000000000000e+00 0.000000000000e+00 
1.933333333333e+01 9.806700000000e+04 1.000000000000e+00 0.000000000000e+00 
1.966666666667e+01 9.806700000000e+04 1.000000000000e+00 0.000000000000e+00 
2.000000000000e+01 9.806700000000e+04 1.000000000000e+00 0.000000000000e+00 
2.033333333333e+01 9.806700000000e+04 1.000000000000e+00 0.000000000000e+00 
2.066666666667e+01 9.806700000000e+04 1.000000000000e+00 0.000000000000e+00 
2.100000000000e+01 9.806700000000e+04 1.000000000000e+00 0.000000000000e+00 
2.133333333333e+01 9.806700000000e+04 1.000000000000e+00 0.000000000000e+00 
2.166666666667e+01 9.806700000000e+04 1.000000000000e+00 0.000000000000e+00 
2.200000000000e+01 9.806700000000e+04 1.000000000000e+00 0.000000000000e+00 
2.233333333333e+01 9.806700000000e+04 1.000000000000e+00 0.000000000000e+00 
2.266666666667e+01 9.806700000000e+04 1.000000000000e+00 0.000000000000e+00 
2.300000000000e+01 9.806700000000e+04 1.000000000000e+00 0.000000000000e+00 
2.333333333333e+01 9.806700000000e+04 1.000000000000e+00 0.000000000000e+00 
2.366666666667e+01 9.806700000000e+04 1.000000000000e+00 0.000000000000e+00 
2.400000000000e+01 9.806700000000e+04 1.000000000000e+00 0.000000000000e+00 
2.433333333333e+01 9.806700000000e+04 1.000000000000e+00 0.000000000000e+00 
2.466666666667e+01 9.806700000000e+04 1.000000000000e+00 0.000000000000e+00 
2.500000000000e+01 9.806700000000e+04 1.000000000000e+00 0.000000000000e+00 
2.533333333333e+01 9.806700000000e+04 1.000000000000e+00 0.000000000000e+00 
2.566666666667e+01 9.806700000000e+04 1.000000000000e+00 0.000000000000e+00 
2.600000000000e+01 9.806700000000e+04 1.000000000000e+00 0.000000000000e+00 
2.633333333333e+01 9.806700000000e+04 1.000000000000e+00 0.000000000000e+00 
2.666666666667e+01 9.806700000000e+04 1.000000000000e+00 0.000000000000e+00 
2.700000000000e+01 9.806700000000e+04 1.000000000000e+00 0.000000000000e+00 
2.733333333333e+01 9.806700000000e+04 1.000000000000e+00 0.000000000000e+00 
2.766666666667e+01 9.806700000000e+04 1.000000000000e+00 0.000000000000e+00 
2.800000000000e+01 9.806700000000e+04 1.000000000000e+00 0.000000000000e+00 
2.833333333333e+01 9.806700000000e+04 1.000000000000e+00 0.000000000000e+00 
2.866666666667e+01 9.806700000000e+04 1.000000000000e+00 0.000000000000e+00 
2.900000000000e+01 9.806700000000e+04 1.000000000000e+00 0.000000000000e+00 
2.933333333333e+01 9.806700000000e+04 1.000000000000e+00 0.000000000000e+00 
2.966666666667e+01 9.806700000000e+04 1.000000000000e+00 0.000000000000e+00 
3.000000000000e+01 9.806700000000e+04 1.000000000000e+00 0.000000000000e+00 
3.033333333333e+01 9.806700000000e+04 1.000000000000e+00 0.000000000000e+00 
3.066666666667e+01 9.806700000000e+04 1.000000000000e+00 0.000000000000e+00 
3.100000000000e+01 9.806700000000e+04 1.000000000000e+00 0.000000000000e+00 
3.133333333333e+01 9.806700000000e+04 1.000000000000e+00 0.000000000000e+00 
3.166666666667e+01 9.806700000000e+04 1.000000000000e+00 0.000000000000e+00 
3.200000000000e+01 9.806700000000e+04 1.000000000000e+00 0.000000000000e+00 
3.233333333333e+01 9.806700000000e+04 1.000000000000e+00 0.000000000000e+00 
3.266666666667e+01 9.806700000000e+04 1.000000000000e+00 0.000000000000e+00 
3.300000000000e+01 9.806700000000e+04 1.000000000000e+00 0.000000000000e+00 
3.333333333333e+01 9.806700000000e+04 1.000000000000e+00 0.000000000000e+00 
3.366666666667e+01 9.806700000000e+04 1.000000000000e+00 0.000000000000e+00 
3.400000000000e+01 9.806700000000e+04 1.000000000000e+00 0.000000000000e+00 
3.433333333333e+01 9.806700000000e+04 1.000000000000e+00 0.000000000000e+00 
3.466666666667e+01 9.806700000000e+04 1.000000000000e+00 0.000000000000e+00 
3.500000000000e+01 9.806700000000e+04 1.000000000000e+00 0.000000000000e+00 
3.533333333333e+01 9.806700000000e+04 1.000000000000e+00 0.000000000000e+00 
3.566666666667e+01 9.806700000000e+04 1.000000000000e+00 0.000000000000e+00 
3.600000000000e+01 9.806700000000e+04 1.000000000000e+00 0.000000000000e+00 
3.633333333333e+01 9.806700000000e+04 1.000000000000e+00 0.000000000000e+00 
3.666666666667e+01 9.806700000000e+04 1.000000000000e+00 0.000000000000e+00 
3.700000000000e+01 9.806700000000e+04 1.000000000000e+00 0.000000000000e+00 
3.733333333333e+01 9.806700000000e+04 1.000000000000e+00 0.000000000000e+00 
3.766666666667e+01 9.806700000000e+04 1.000000000000e+00 0.000000000000e+00 
3.800000000000e+01 9.806700000000e+04 1.000000000000e+00 0.000000000000e+00 
3.833333333333e+01 9.806700000000e+04 1.000000000000e+00 0.000000000000e+00 
3.866666666667e+01 9.806700000000e+04 1.000000000000e+00 0.000000000000e+00 
3.900000000000e+01 9.806700000000e+04 1.000000000000e+00 0.000000000000e+00 
3.933333333333e+01 9.806700000000e+04 1.000000000000e+00 0.000000000000e+00 
3.966666666667e+01 9.806700000000e+04 1.000000000000e+00 0.000000000000e+00 
4.000000000000e+01 9.806700000000e+04 1.000000000000e+00 0.000000000000e+00 
4.033333333333e+01 9.806700000000e+04 1.000000000000e+00 0.000000000000e+00 
4.066666666667e+01 9.806700000000e+04 1.000000000000e+00 0.000000000000e+00 
4.100000000000e+01 9.806700000000e+04 1.000000000000e+00 0.000000000000e+00 
4.133333333333e+01 9.806700000000e+04 1.000000000000e+00 0.000000000000e+00 
4.166666666667e+01 9.806700000000e+04 1.000000000000e+00 0.000000000000e+00 
4.200000000000e+01 9.806700000000e+04 1.000000000000e+00 0.000000000000e+00 
4.233333333333e+01 9.806700000000e+04 1.000000000000e+00 0.000000000000e+00 
4.266666666667e+01 9.806700000000e+04 1.000000000000e+00 0.000000000000e+00 
4.300000000000e+01 9.806700000000e+04 1.000000000000e+00 0.000000000000e+00 
4.333333333333e+01 9.806700000000e+04 1.000000000000e+00 0.000000000000e+00 
4.366666666667e+01 9.806700000000e+04 1.000000000000e+00 0.000000000000e+00 
4.400000000000e+01 9.806700000000e+04 1.000000000000e+00 0.000000000000e+00 
4.433333333333e+01 9.806700000000e+04 1.000000000000e+00 0.000000000000e+00 
4.466666666667e+01 9.806700000000e+04 1.000000000000e+00 0.000000000000e+00 
4.500000000000e+01 9.806700000000e+04 1.000000000000e+00 0.000000000000e+00 
4.533333333333e+01 9.806700000000e+04 1.000000000000e+00 0.000000000000e+00 
4.566666666667e+01 9.806700000000e+04 1.000000000000e+00 0.000000000000e+00 
4.600000000000e+01 9.806700000000e+04 1.000000000000e+00 0.000000000000e+00 
4.633333333333e+01 9.806700000000e+04 1.000000000000e+00 0.000000000000e+00 
4.666666666667e+01 9.806700000000e+04 1.000000000000e+00 0.000000000000e+00 
4.700000000000e+01 9.806700000000e+04 1.000000000000e+00 0.000000000000e+00 
4.733333333333e+01 9.806700000000e+04 1.000000000000e+00 0.000000000000e+00 
4.766666666667e+01 9.806700000000e+04 1.000000000000e+00 0.000000000000e+00 
4.800000000000e+01 9.806700000000e+04 1.000000000000e+00 0.000000000000e+00 
4.833333333333e+01 9.806700000000e+04 1.000000000000e+00 0.000000000000e+00 
4.866666666667e+01 9.806700000000e+04 1.000000000000e+00 0.000000000000e+00 
4.900000000000e+01 9.806700000000e+04 1.000000000000e+00 0.000000000000e+00 
4.933333333333e+01 9.806700000000e+04 1.000000000000e+00 0.000000000000e+00 
4.966666666667e+01 9.806700000000e+04 1.000000000000e+00 0.000000000000e+00 
5.000000000000e+01 9.806700000000e+04 1.000000000000e+00 0.000000000000e+00 
 TITLE = "Profiles along polylines"
 VARIABLES = "DIST" "PRESSURE1" "SATURATION1" "SATURATION2" 
 ZONE T="TIME=2.160000000000e+04"
0.000000000000e+00 9.810000000000e+04 1.000000000000e+00 0.000000000000e+00 
3.333333333333e-01 9.807000334343e+04 1.000000000000e+00 0.000000000000e+00 
6.666666666667e-01 9.803972937157e+04 1.000000000000e+00 0.000000000000e+00 
1.000000000000e+00 9.800929883074e+04 1.000000000000e+00 0.000000000000e+00 
1.333333333333e+00 9.797878027774e+04 1.000000000000e+00 0.000000000000e+00 
1.666666666667e+00 9.794821293233e+04 1.000000000000e+00 0.000000000000e+00 
2.000000000000e+00 9.791761975105e+04 1.000000000000e+00 0.000000000000e+00 
2.333333333333e+00 9.788701508088e+04 1.000000000000e+00 0.000000000000e+00 
2.666666666667e+00 9.785640944544e+04 1.000000000000e+00 0.000000000000e+00 
3.000000000000e+00 9.782581306307e+04 1.000000000000e+00 0.000000000000e+00 
3.333333333333e+00 9.779523927952e+04 1.000000000000e+00 0.000000000000e+00 
3.666666666667e+00 9.776470908621e+04 1.000000000000e+00 0.000000000000e+00 
4.000000000000e+00 9.773425829981e+04 1.000000000000e+00 0.000000000000e+00 
4.333333333333e+00 9.770394997872e+04 1.000000000000e+00 0.000000000000e+00 
4.666666666667e+00 9.767389669284e+04 1.000000000000e+00 0.000000000000e+00 
5.000000000000e+00 9.763212068906e+04 8.999977480000e-01 1.000022520000e-01 
5.333333333333e+00 9.758398531343e+04 8.999977480000e-01 1.000022520000e-01 
5.666666666667e+00 9.753546706510e+04 8.999977480000e-01 1.000022520000e-01 
6.000000000000e+00 9.748673446878e+04 8.999977480000e-01 1.000022520000e-01 
6.333333333333e+00 9.743788125812e+04 8.999977480000e-01 1.000022520000e-01 
6.666666666667e+00 9.738895968558e+04 8.999977480000e-01 1.000022520000e-01 
7.000000000000e+00 9.733999872899e+04 8.999977480000e-01 1.000022520000e-01 
7.333333333333e+00 9.729101405255e+04 8.999977480000e-01 1.000022520000e-01 
7.666666666667e+00 9.724201334417e+04 8.999977480000e-01 1.000022520000e-01 
8.000000000000e+00 9.719299892462e+04 8.999977480000e-01 1.000022520000e-01 
8.333333333333e+00 9.714396854426e+04 8.999977480000e-01 1.000022520000e-01 
8.666666666667e+00 9.709491465638e+04 8.999977480000e-01 1.000022520000e-01 
9.000000000000e+00 9.704582194806e+04 8.999977480000e-01 1.000022520000e-01 
9.333333333333e+00 9.699666235189e+04 8.999977480000e-01 1.000022520000e-01 
9.666666666667e+00 9.694738599183e+04 8.999977480000e-01 1.000022520000e-01 
1.000000000000e+01 9.689790534688e+04 8.999977480000e-01 1.000022520000e-01 
1.033333333333e+01 9.684806814280e+04 8.999977480000e-01 1.000022520000e-01 
1.066666666667e+01 9.681283550110e+04 1.000000000000e+00 0.000000000000e+00 
1.100000000000e+01 9.678164243620e+04 1.000000000000e+00 0.000000000000e+00 
1.133333333333e+01 9.675068882697e+04 1.000000000000e+00 0.000000000000e+00 
1.166666666667e+01 9.671987214817e+04 1.000000000000e+00 0.000000000000e+00 
1.200000000000e+01 9.668913349446e+04 1.000000000000e+00 0.000000000000e+00 
1.233333333333e+01 9.665843919584e+04 1.000000000000e+00 0.000000000000e+00 
1.266666666667e+01 9.662777007212e+04 1.000000000000e+00 0.000000000000e+00 
1.300000000000e+01 9.659711522197e+04 1.000000000000e+00 0.000000000000e+00 
1.333333333333e+01 9.656646845885e+04 1.000000000000e+00 0.000000000000e+00 
1.366666666667e+01 9.653582627543e+04 1.000000000000e+00 0.000000000000e+00 
1.400000000000e+01 9.650518668466e+04 1.000000000000e+00 0.000000000000e+00 
1.433333333333e+01 9.647454856132e+04 1.000000000000e+00 0.000000000000e+00 
1.466666666667e+01 9.644391126843e+04 1.000000000000e+00 0.000000000000e+00 
1.500000000000e+01 9.641327444544e+04 1.000000000000e+00 0.000000000000e+00 
1.533333333333e+01 9.638263788833e+04 1.000000000000e+00 0.000000000000e+00 
1.566666666667e+01 9.635200148165e+04 1.000000000000e+00 0.000000000000e+00 
1.600000000000e+01 9.632136516008e+04 1.000000000000e+00 0.000000000000e+00 
1.633333333333e+01 9.629072888666e+04 1.000000000000e+00 0.000000000000e+00 
1.666666666667e+01 9.626009264048e+04 1.000000000000e+00 0.000000000000e+00 
1.700000000000e+01 9.622945640970e+04 1.000000000000e+00 0.000000000000e+00 
1.733333333333e+01 9.619882018764e+04 1.000000000000e+00 0.000000000000e+00 
1.766666666667e+01 9.616818397050e+04 1.000000000000e+00 0.000000000000e+00 
1.800000000000e+01 9.613754775615e+04 1.000000000000e+00 0.000000000000e+00 
1.833333333333e+01 9.610691154337e+04 1.000000000000e+00 0.000000000000e+00 
1.866666666667e+01 9.607627533148e+04 1.000000000000e+00 0.000000000000e+00 
1.900000000000e+01 9.604563912009e+04 1.000000000000e+00 0.000000000000e+00 
1.933333333333e+01 9.601500290897e+04 1.000000000000e+00 0.000000000000e+00 
1.966666666667e+01 9.598436669801e+04 1.000000000000e+00 0.000000000000e+00 
2.000000000000e+01 9.595373048714e+04 1.000000000000e+00 0.000000000000e+00 
2.033333333333e+01 9.592309427630e+04 1.000000000000e+00 0.000000000000e+00 
2.066666666667e+01 9.589245806549e+04 1.000000000000e+00 0.000000000000e+00 
2.100000000000e+01 9.586182185470e+04 1.000000000000e+00 0.000000000000e+00 
2.133333333333e+01 9.583118564390e+04 1.000000000000e+00 0.000000000000e+00 
2.166666666667e+01 9.580054943310e+04 1.000000000000e+00 0.000000000000e+00 
2.200000000000e+01 9.576991322230e+04 1.000000000000e+00 0.000000000000e+00 
2.233333333333e+01 9.573927701149e+04 1.000000000000e+00 0.000000000000e+00 
2.266666666667e+01 9.570864080068e+04 1.000000000000e+00 0.000000000000e+00 
2.300000000000e+01 9.567800458986e+04 1.000000000000e+00 0.000000000000e+00 
2.333333333333e+01 9.564736837904e+04 1.000000000000e+00 0.000000000000e+00 
2.366666666667e+01 9.561673216822e+04 1.000000000000e+00 0.000000000000e+00 
2.400000000000e+01 9.558609595738e+04 1.000000000000e+00 0.000000000000e+00 
2.433333333333e+01 9.555545974655e+04 1.000000000000e+00 0.000000000000e+00 
2.466666666667e+01 9.552482353570e+04 1.000000000000e+00 0.000000000000e+00 
2.500000000000e+01 9.549418732486e+04 1.000000000000e+00 0.000000000000e+00 
2.533333333333e+01 9.546355111401e+04 1.000000000000e+00 0.000000000000e+00 
2.566666666667e+01 9.543291490315e+04 1.000000000000e+00 0.000000000000e+00 
2.600000000000e+01 9.540227869229e+04 1.000000000000e+00 0.000000000000e+00 
2.633333333333e+01 9.537164248143e+04 1.000000000000e+00 0.000000000000e+00 
2.666666666667e+01 9.534100627057e+04 1.000000000000e+00 0.000000000000e+00 
2.700000000000e+01 9.531037005970e+04 1.000000000000e+00 0.000000000000e+00 
2.733333333333e+01 9.527973384883e+04 1.000000000000e+00 0.000000000000e+00 
2.766666666667e+01 9.524909763795e+04 1.000000000000e+00 0.000000000000e+00 
2.800000000000e+01 9.521846142707e+04 1.000000000000e+00 0.000000000000e+00 
2.833333333333e+01 9.518782521619e+04 1.000000000000e+00 0.000000000000e+00 
2.866666666667e+01 9.515718900531e+04 1.000000000000e+00 0.000000000000e+00 
2.900000000000e+01 9.512655279442e+04 1.000000000000e+00 0.000000000000e+00 
2.933333333333e+01 9.509591658353e+04 1.000000000000e+00 0.000000000000e+00 
2.966666666667e+01 9.506528037264e+04 1.000000000000e+00 0.000000000000e+00 
3.000000000000e+01 9.503464416174e+04 1.000000000000e+00 0.000000000000e+00 
3.033333333333e+01 9.500400795084e+04 1.000000000000e+00 0.000000000000e+00 
3.066666666667e+01 9.497337173993e+04 1.000000000000e+00 0.000000000000e+00 
3.100000000000e+01 9.494273552903e+04 1.000000000000e+00 0.000000000000e+00 
3.133333333333e+01 9.491209931811e+04 1.000000000000e+00 0.000000000000e+00 
3.166666666667e+01 9.488146310720e+04 1.000000000000e+00 0.000000000000e+00 
3.200000000000e+01 9.485082689628e+04 1.000000000000e+00 0.000000000000e+00 
3.233333333333e+01 9.482019068535e+04 1.000000000000e+00 0.000000000000e+00 
3.266666666667e+01 9.478955447442e+04 1.000000000000e+00 0.000000000000e+00 
3.300000000000e+01 9.475891826348e+04 1.000000000000e+00 0.000000000000e+00 
3.333333333333e+01 9.472828205254e+04 1.000000000000e+00 0.000000000000e+00 
3.366666666667e+01 9.469764584159e+04 1.000000000000e+00 0.000000000000e+00 
3.400000000000e+01 9.466700963064e+04 1.000000000000e+00 0.000000000000e+00 
3.433333333333e+01 9.463637341968e+04 1.000000000000e+00 0.000000000000e+00 
3.466666666667e+01 9.460573720872e+04 1.000000000000e+00 0.000000000000e+00 
3.500000000000e+01 9.457510099775e+04 1.000000000000e+00 0.000000000000e+00 
3.533333333333e+01 9.454446478677e+04 1.000000000000e+00 0.000000000000e+00 
3.566666666667e+01 9.451382857579e+04 1.000000000000e+00 0.000000000000e+00 
3.600000000000e+01 9.448319236480e+04 1.000000000000e+00 0.000000000000e+00 
3.633333333333e+01 9.445255615381e+04 1.000000000000e+00 0.000000000000e+00 
3.666666666667e+01 9.442191994280e+04 1.000000000000e+00 0.000000000000e+00 
3.700000000000e+01 9.439128373179e+04 1.000000000000e+00 0.000000000000e+00 
3.733333333333e+01 9.436064752078e+04 1.000000000000e+00 0.000000000000e+00 
3.766666666667e+01 9.433001130976e+04 1.000000000000e+00 0.000000000000e+00 
3.800000000000e+01 9.429937509873e+04 1.000000000000e+00 0.000000000000e+00 
3.833333333333e+01 9.426873888769e+04 1.000000000000e+00 0.000000000000e+00 
3.866666666667e+01 9.423810267665e+04 1.000000000000e+00 0.000000000000e+00 
3.900000000000e+01 9.420746646560e+04 1.000000000000e+00 0.000000000000e+00 
3.933333333333e+01 9.417683025454e+04 1.000000000000e+00 0.000000000000e+00 
3.966666666667e+01 9.414619404347e+04 1.000000000000e+00 0.000000000000e+00 
4.000000000000e+01 9.411555783239e+04 1.000000000000e+00 0.000000000000e+00 
4.033333333333e+01 9.408492162128e+04 1.000000000000e+00 0.000000000000e+00 
4.066666666667e+01 9.405428541013e+04 1.000000000000e+00 0.000000000000e+00 
4.100000000000e+01 9.402364919892e+04 1.000000000000e+00 0.000000000000e+00 
4.133333333333e+01 9.399301298761e+04 1.000000000000e+00 0.000000000000e+00 
4.166666666667e+01 9.396237677611e+04 1.000000000000e+00 0.000000000000e+00 
4.200000000000e+01 9.393174056429e+04 1.000000000000e+00 0.000000000000e+00 
4.233333333333e+01 9.390110435190e+04 1.000000000000e+00 0.000000000000e+00 
4.266666666667e+01 9.387046813850e+04 1.000000000000e+00 0.000000000000e+00 
4.300000000000e+01 9.383983192334e+04 1.000000000000e+00 0.000000000000e+00 
4.333333333333e+01 9.380919570504e+04 1.000000000000e+00 0.000000000000e+00 
4.366666666667e+01 9.377855948121e+04 1.000000000000e+00 0.000000000000e+00 
4.400000000000e+01 9.374792324759e+04 1.000000000000e+00 0.000000000000e+00 
4.433333333333e+01 9.371728699669e+04 1.000000000000e+00 0.000000000000e+00 
4.466666666667e+01 9.368665071523e+04 1.000000000000e+00 0.000000000000e+00 
4.500000000000e+01 9.365601437975e+04 1.000000000000e+00 0.000000000000e+00 
4.533333333333e+01 9.362537794879e+04 1.000000000000e+00 0.000000000000e+00 
4.566666666667e+01 9.359474134907e+04 1.000000000000e+00 0.000000000000e+00 
4.600000000000e+01 9.356410445104e+04 1.000000000000e+00 0.000000000000e+00 
4.633333333333e+01 9.353346702571e+04 1.000000000000e+00 0.000000000000e+00 
4.666666666667e+01 9.350282866833e+04 1.000000000000e+00 0.000000000000e+00 
4.700000000000e+01 9.347218866348e+04 1.000000000000e+00 0.000000000000e+00 
4.733333333333e+01 9.344154574657e+04 1.000000000000e+00 0.000000000000e+00 
4.766666666667e+01 9.341089768232e+04 1.000000000000e+00 0.000000000000e+00 
4.800000000000e+01 9.338024051967e+04 1.000000000000e+00 0.000000000000e+00 
4.833333333333e+01 9.334956727476e+04 1.000000000000e+00 0.000000000000e+00 
4.866666666667e+01 9.331886560299e+04 1.000000000000e+00 0.000000000000e+00 
4.900000000000e+01 9.328811368411e+04 1.000000000000e+00 0.000000000000e+00 
4.933333333333e+01 9.325727294886e+04 1.000000000000e+00 0.000000000000e+00 
4.966666666667e+01 9.322627522252e+04 1.000000000000e+00 0.000000000000e+00 
5.000000000000e+01 9.319500000000e+04 1.000000000000e+00 0.000000000000e+00 
 ZONE T="TIME=4.320000000000e+04"
0.000000000000e+00 9.810000000000e+04 1.000000000000e+00 0.000000000000e+00 
3.333333333333e-01 9.807000334343e+04 1.000000000000e+00 0.000000000000e+00 
6.666666666667e-01 9.803972937157e+04 1.000000000000e+00 0.000000000000e+00 
1.000000000000e+00 9.800929883074e+04 1.000000000000e+00 0.000000000000e+00 
1.333333333333e+00 9.797878027774e+04 1.000000000000e+00 0.000000000000e+00 
1.666666666667e+00 9.794821293233e+04 1.000000000000e+00 0.000000000000e+00 
2.000000000000e+00 9.791761975105e+04 1.000000000000e+00 0.000000000000e+00 
2.333333333333e+00 9.788701508088e+04 1.000000000000e+00 0.000000000000e+00 
2.666666666667e+00 9.785640944544e+04 1.000000000000e+00 0.000000000000e+00 
3.000000000000e+00 9.782581306307e+04 1.000000000000e+00 0.000000000000e+00 
3.333333333333e+00 9.779523927952e+04 1.000000000000e+00 0.000000000000e+00 
3.666666666667e+00 9.776470908621e+04 1.000000000000e+00 0.000000000000e+00 
4.000000000000e+00 9.773425829981e+04 1.000000000000e+00 0.000000000000e+00 
4.333333333333e+00 9.770394997872e+04 1.000000000000e+00 0.000000000000e+00 
4.666666666667e+00 9.767389669284e+04 1.000000000000e+00 0.000000000000e+00 
5.000000000000e+00 9.763212068906e+04 8.999977480000e-01 1.000022520000e-01 
5.333333333333e+00 9.758398531343e+04 8.999977480000e-01 1.000022520000e-01 
5.666666666667e+00 9.753546706510e+04 8.999977480000e-01 1.000022520000e-01 
6.000000000000e+00 9.748673446878e+04 8.999977480000e-01 1.000022520000e-01 
6.333333333333e+00 9.743788125812e+04 8.999977480000e-01 1.000022520000e-01 
6.666666666667e+00 9.738895968558e+04 8.999977480000e-01 1.000022520000e-01 
7.000000000000e+00 9.733999872899e+04 8.999977480000e-01 1.000022520000e-01 
7.333333333333e+00 9.729101405255e+04 8.999977480000e-01 1.000022520000e-01 
7.666666666667e+00 9.724201334417e+04 8.999977480000e-01 1.000022520000e-01 
8.000000000000e+00 9.719299892462e+04 8.999977480000e-01 1.000022520000e-01 
8.333333333333e+00 9.714396854426e+04 8.999977480000e-01 1.000022520000e-01 
8.666666666667e+00 9.709491465638e+04 8.999977480000e-01 1.000022520000e-01 
9.000000000000e+00 9.704582194806e+04 8.999977480000e-01 1.000022520000e-01 
9.333333333333e+00 9.699666235189e+04 8.999977480000e-01 1.000022520000e-01 
9.666666666667e+00 9.694738599183e+04 8.999977480000e-01 1.000022520000e-01 
1.000000000000e+01 9.689790534688e+04 8.999977480000e-01 1.000022520000e-01 
1.033333333333e+01 9.684806814280e+04 8.999977480000e-01 1.000022520000e-01 
1.066666666667e+01 9.681283550110e+04 1.000000000000e+00 0.000000000000e+00 
1.100000000000e+01 9.678164243620e+04 1.000000000000e+00 0.000000000000e+00 
1.133333333333e+01 9.675068882697e+04 1.000000000000e+00 0.000000000000e+00 
1.166666666667e+01 9.671987214817e+04 1.000000000000e+00 0.000000000000e+00 
1.200000000000e+01 9.668913349446e+04 1.000000000000e+00 0.000000000000e+00 
1.233333333333e+01 9.665843919584e+04 1.000000000000e+00 0.000000000000e+00 
1.266666666667e+01 9.662777007212e+04 1.000000000000e+00 0.000000000000e+00 
1.300000000000e+01 9.659711522197e+04 1.000000000000e+00 0.000000000000e+00 
1.333333333333e+01 9.656646845885e+04 1.000000000000e+00 0.000000000000e+00 
1.366666666667e+01 9.653582627543e+04 1.000000000000e+00 0.000000000000e+00 
1.400000000000e+01 9.650518668466e+04 1.000000000000e+00 0.000000000000e+00 
1.433333333333e+01 9.647454856132e+04 1.000000000000e+00 0.000000000000e+00 
1.466666666667e+01 9.644391126843e+04 1.000000000000e+00 0.000000000000e+00 
1.500000000000e+01 9.641327444544e+04 1.000000000000e+00 0.000000000000e+00 
1.533333333333e+01 9.638263788833e+04 1.000000000000e+00 0.000000000000e+00 
1.566666666667e+01 9.635200148165e+04 1.000000000000e+00 0.000000000000e+00 
1.600000000000e+01 9.632136516008e+04 1.000000000000e+00 0.000000000000e+00 
1.633333333333e+01 9.629072888666e+04 1.000000000000e+00 0.000000000000e+00 
1.666666666667e+01 9.626009264048e+04 1.000000000000e+00 0.000000000000e+00 
1.700000000000e+01 9.622945640970e+04 1.000000000000e+00 0.000000000000e+00 
1.733333333333e+01 9.619882018764e+04 1.000000000000e+00 0.000000000000e+00 
1.766666666667e+01 9.616818397050e+04 1.000000000000e+00 0.000000000000e+00 
1.800000000000e+01 9.613754775615e+04 1.000000000000e+00 0.000000000000e+00 
1.833333333333e+01 9.610691154337e+04 1.000000000000e+00 0.000000000000e+00 
1.866666666667e+01 9.607627533148e+04 1.000000000000e+00 0.000000000000e+00 
1.900000000000e+01 9.604563912009e+04 1.000000000000e+00 0.000000000000e+00 
1.933333333333e+01 9.601500290897e+04 1.000000000000e+00 0.000000000000e+00 
1.966666666667e+01 9.598436669801e+04 1.000000000000e+00 0.000000000000e+00 
2.000000000000e+01 9.595373048714e+04 1.000000000000e+00 0.000000000000e+00 
2.033333333333e+01 9.592309427630e+04 1.000000000000e+00 0.000000000000e+00 
2.066666666667e+01 9.589245806549e+04 1.000000000000e+00 0.000000000000e+00 
2.100000000000e+01 9.586182185470e+04 1.000000000000e+00 0.000000000000e+00 
2.133333333333e+01 9.583118564390e+04 1.000000000000e+00 0.000000000000e+00 
2.166666666667e+01 9.580054943310e+04 1.000000000000e+00 0.000000000000e+00 
2.200000000000e+01 9.576991322230e+04 1.000000000000e+00 0.000000000000e+00 
2.233333333333e+01 9.573927701149e+04 1.000000000000e+00 0.000000000000e+00 
2.266666666667e+01 9.570864080068e+04 1.000000000000e+00 0.000000000000e+00 
2.300000000000e+01 9.567800458986e+04 1.000000000000e+00 0.000000000000e+00 
2.333333333333e+01 9.564736837904e+04 1.000000000000e+00 0.000000000000e+00 
2.366666666667e+01 9.561673216822e+04 1.000000000000e+00 0.000000000000e+00 
2.400000000000e+01 9.558609595738e+04 1.000000000000e+00 0.000000000000e+00 
2.433333333333e+01 9.555545974655e+04 1.000000000000e+00 0.000000000000e+00 
2.466666666667e+01 9.552482353570e+04 1.000000000000e+00 0.000000000000e+00 
2.500000000000e+01 9.549418732486e+04 1.000000000000e+00 0.000000000000e+00 
2.533333333333e+01 9.546355111401e+04 1.000000000000e+00 0.000000000000e+00 
2.566666666667e+01 9.543291490315e+04 1.000000000000e+00 0.000000000000e+00 
2.600000000000e+01 9.540227869229e+04 1.000000000000e+00 0.000000000000e+00 
2.633333333333e+01 9.537164248143e+04 1.000000000000e+00 0.000000000000e+00 
2.666666666667e+01 9.534100627057e+04 1.000000000000e+00 0.000000000000e+00 
2.700000000000e+01 9.531037005970e+04 1.000000000000e+00 0.000000000000e+00 
2.733333333333e+01 9.527973384883e+04 1.000000000000e+00 0.000000000000e+00 