 TITLE = "Profiles along polylines"
 VARIABLES = "DIST" "PRESSURE1" "SATURATION1" "SATURATION2" 
 ZONE T="TIME=0.000000000000e+00"
0.000000000000e+00 9.806700000000e+04 1.000000000000e+00 0.000000000000e+00 
3.333333330000e-01 9.806700000000e+04 1.000000000000e+00 0.000000000000e+00 
6.666666670000e-01 9.806700000000e+04 1.000000000000e+00 0.000000000000e+00 
1.000000000000e+00 9.806700000000e+04 1.000000000000e+00 0.000000000000e+00 
1.333333333000e+00 9.806700000000e+04 1.000000000000e+00 0.000000000000e+00 
1.666666667000e+00 9.806700000000e+04 1.000000000000e+00 0.000000000000e+00 
2.000000000000e+00 9.806700000000e+04 1.000000000000e+00 0.000000000000e+00 
2.333333333000e+00 9.806700000000e+04 1.000000000000e+00 0.000000000000e+00 
2.666666667000e+00 9.806700000000e+04 1.000000000000e+00 0.000000000000e+00 
3.000000000000e+00 9.806700000000e+04 1.000000000000e+00 0.000000000000e+00 
3.333333333000e+00 9.806700000000e+04 1.000000000000e+00 0.000000000000e+00 
3.666666667000e+00 9.806700000000e+04 1.000000000000e+00 0.000000000000e+00 
4.000000000000e+00 9.806700000000e+04 1.000000000000e+00 0.000000000000e+00 
4.333333333000e+00 9.806700000000e+04 1.000000000000e+00 0.000000000000e+00 
4.666666667000e+00 9.806700000000e+04 1.000000000000e+00 0.000000000000e+00 
5.000000000000e+00 9.806700000000e+04 8.999977480000e-01 1.000022520000e-01 
5.333333333000e+00 9.806700000000e+04 8.999977480000e-01 1.000022520000e-01 
5.666666667000e+00 9.806700000000e+04 8.999977480000e-01 1.000022520000e-01 
6.000000000000e+00 9.806700000000e+04 8.999977480000e-01 1.000022520000e-01 
6.333333333000e+00 9.806700000000e+04 8.999977480000e-01 1.000022520000e-01 
6.666666667000e+00 9.806700000000e+04 8.999977480000e-01 1.000022520000e-01 
7.000000000000e+00 9.806700000000e+04 8.999977480000e-01 1.000022520000e-01 
7.333333333000e+00 9.806700000000e+04 8.999977480000e-01 1.000022520000e-01 
7.666666667000e+00 9.806700000000e+04 8.999977480000e-01 1.000022520000e-01 
8.000000000000e+00 9.806700000000e+04 8.999977480000e-01 1.000022520000e-01 
8.333333333000e+00 9.806700000000e+04 8.999977480000e-01 1.000022520000e-01 
8.666666667000e+00 9.806700000000e+04 8.999977480000e-01 1.000022520000e-01 
9.000000000000e+00 9.806700000000e+04 8.999977480000e-01 1.000022520000e-01 
9.333333333000e+00 9.806700000000e+04 8.999977480000e-01 1.000022520000e-01 
9.666666667000e+00 9.806700000000e+04 8.999977480000e-01 1.000022520000e-01 
1.000000000000e+01 9.806700000000e+04 8.999977480000e-01 1.000022520000e-01 
1.033333333000e+01 9.806700000000e+04 1.000000000000e+00 0.000000000000e+00 
1.066666667000e+01 9.806700000000e+04 1.000000000000e+00 0.000000000000e+00 
1.100000000000e+01 9.806700000000e+04 1.000000000000e+00 0.000000000000e+00 
1.133333333000e+01 9.806700000000e+04 1.000000000000e+00 0.000000000000e+00 
1.166666667000e+01 9.806700000000e+04 1.000000000000e+00 0.000000000000e+00 
1.200000000000e+01 9.806700000000e+04 1.000000000000e+00 0.000000000000e+00 
1.233333333000e+01 9.806700000000e+04 1.000000000000e+00 0.000000000000e+00 
1.266666667000e+01 9.806700000000e+04 1.000000000000e+00 0.000000000000e+00 
1.300000000000e+01 9.806700000000e+04 1.000000000000e+00 0.000000000000e+00 
1.333333333000e+01 9.806700000000e+04 1.000000000000e+00 0.000000000000e+00 
1.366666667000e+01 9.806700000000e+04 1.000000000000e+00 0.000000000000e+00 
1.400000000000e+01 9.806700000000e+04 1.000000000000e+00 0.000000000000e+00 
1.433333333000e+01 9.806700000000e+04 1.000000000000e+00 0.000000000000e+00 
1.466666667000e+01 9.806700000000e+04 1.000000000000e+00 0.000000000000e+00 
1.500000000000e+01 9.806700000000e+04 1.000000000000e+00 0.000000000000e+00 
1.533333333000e+01 9.806700000000e+04 1.000000000000e+00 0.000000000000e+00 
1.566666667000e+01 9.806700000000e+04 1.000000000000e+00 0.000000000000e+00 
1.600000000000e+01 9.806700000000e+04 1.000000000000e+00 0.000000000000e+00 
1.633333333000e+01 9.806700000000e+04 1.000000000000e+00 0.000000000000e+00 
1.666666667000e+01 9.806700000000e+04 1.000000000000e+00 0.000000000000e+00 
1.700000000000e+01 9.806700000000e+04 1.000000000000e+00 0.000000000000e+00 
1.733333333000e+01 9.806700000000e+04 1.000000000000e+00 0.000000000000e+00 
1.766666667000e+01 9.806700000000e+04 1.000000000000e+00 0.000000000000e+00 
1.800000000000e+01 9.806700000000e+04 1.000000000000e+00 0.000000000000e+00 
1.833333333000e+01 9.806700000000e+04 1.000000000000e+00 0.000000000000e+00 
1.866666667000e+01 9.806700000000e+04 1.000000000000e+00 0.000000000000e+00 
1.900000000000e+01 9.806700000000e+04 1.000000000000e+00 0.000000000000e+00 
1.933333333000e+01 9.806700000000e+04 1.000000000000e+00 0.000000000000e+00 
1.966666667000e+01 9.806700000000e+04 1.000000000000e+00 0.000000000000e+00 
2.000000000000e+01 9.806700000000e+04 1.000000000000e+00 0.000000000000e+00 
2.033333333000e+01 9.806700000000e+04 1.000000000000e+00 0.000000000000e+00 
2.066666667000e+01 9.806700000000e+04 1.000000000000e+00 0.000000000000e+00 
2.100000000000e+01 9.806700000000e+04 1.000000000000e+00 0.000000000000e+00 
2.133333333000e+01 9.806700000000e+04 1.000000000000e+00 0.000000000000e+00 
2.166666667000e+01 9.806700000000e+04 1.000000000000e+00 0.000000000000e+00 
2.200000000000e+01 9.806700000000e+04 1.000000000000e+00 0.000000000000e+00 
2.233333333000e+01 9.806700000000e+04 1.000000000000e+00 0.000000000000e+00 
2.266666667000e+01 9.806700000000e+04 1.000000000000e+00 0.000000000000e+00 
2.300000000000e+01 9.806700000000e+04 1.000000000000e+00 0.000000000000e+00 
2.333333333000e+01 9.806700000000e+04 1.000000000000e+00 0.000000000000e+00 
2.366666667000e+01 9.806700000000e+04 1.000000000000e+00 0.000000000000e+00 
2.400000000000e+01 9.806700000000e+04 1.000000000000e+00 0.000000000000e+00 
2.433333333000e+01 9.806700000000e+04 1.000000000000e+00 0.000000000000e+00 
2.466666667000e+01 9.806700000000e+04 1.000000000000e+00 0.000000000000e+00 
2.500000000000e+01 9.806700000000e+04 1.000000000000e+00 0.000000000000e+00 
2.533333333000e+01 9.806700000000e+04 1.000000000000e+00 0.000000000000e+00 
2.566666667000e+01 9.806700000000e+04 1.000000000000e+00 0.000000000000e+00 
2.600000000000e+01 9.806700000000e+04 1.000000000000e+00 0.000000000000e+00 
2.633333333000e+01 9.806700000000e+04 1.000000000000e+00 0.000000000000e+00 
2.666666667000e+01 9.806700000000e+04 1.000000000000e+00 0.000000000000e+00 
2.700000000000e+01 9.806700000000e+04 1.000000000000e+00 0.000000000000e+00 
2.733333333000e+01 9.806700000000e+04 1.000000000000e+00 0.000000000000e+00 
2.766666667000e+01 9.806700000000e+04 1.000000000000e+00 0.000000000000e+00 
2.800000000000e+01 9.806700000000e+04 1.000000000000e+00 0.000000000000e+00 
2.833333333000e+01 9.806700000000e+04 1.000000000000e+00 0.000000000000e+00 
2.866666667000e+01 9.806700000000e+04 1.000000000000e+00 0.000000000000e+00 
2.900000000000e+01 9.806700000000e+04 1.000000000000e+00 0.000000000000e+00 
2.933333333000e+01 9.806700000000e+04 1.000000000000e+00 0.000000000000e+00 
2.966666667000e+01 9.806700000000e+04 1.000000000000e+00 0.000000000000e+00 
3.000000000000e+01 9.806700000000e+04 1.000000000000e+00 0.000000000000e+00 
3.033333333000e+01 9.806700000000e+04 1.000000000000e+00 0.000000000000e+00 
3.066666667000e+01 9.806700000000e+04 1.000000000000e+00 0.000000000000e+00 
3.100000000000e+01 9.806700000000e+04 1.000000000000e+00 0.000000000000e+00 
3.133333333000e+01 9.806700000000e+04 1.000000000000e+00 0.000000000000e+00 
3.166666667000e+01 9.806700000000e+04 1.000000000000e+00 0.000000000000e+00 
3.200000000000e+01 9.806700000000e+04 1.000000000000e+00 0.000000000000e+00 
3.233333333000e+01 9.806700000000e+04 1.000000000000e+00 0.000000000000e+00 
3.266666667000e+01 9.806700000000e+04 1.000000000000e+00 0.000000000000e+00 
3.300000000000e+01 9.806700000000e+04 1.000000000000e+00 0.000000000000e+00 
3.333333333000e+01 9.806700000000e+04 1.000000000000e+00 0.000000000000e+00 
3.366666667000e+01 9.806700000000e+04 1.000000000000e+00 0.000000000000e+00 
3.400000000000e+01 9.806700000000e+04 1.000000000000e+00 0.000000000000e+00 
3.433333333000e+01 9.806700000000e+04 1.000000000000e+00 0.000000000000e+00 
3.466666667000e+01 9.806700000000e+04 1.000000000000e+00 0.000000000000e+00 
3.500000000000e+01 9.806700000000e+04 1.000000000000e+00 0.000000000000e+00 
3.533333333000e+01 9.806700000000e+04 1.000000000000e+00 0.000000000000e+00 
3.566666667000e+01 9.806700000000e+04 1.000000000000e+00 0.000000000000e+00 
3.600000000000e+01 9.806700000000e+04 1.000000000000e+00 0.000000000000e+00 
3.633333333000e+01 9.806700000000e+04 1.000000000000e+00 0.000000000000e+00 
3.666666667000e+01 9.806700000000e+04 1.000000000000e+00 0.000000000000e+00 
3.700000000000e+01 9.806700000000e+04 1.000000000000e+00 0.000000000000e+00 
3.733333333000e+01 9.806700000000e+04 1.000000000000e+00 0.000000000000e+00 
3.766666667000e+01 9.806700000000e+04 1.000000000000e+00 0.000000000000e+00 
3.800000000000e+01 9.806700000000e+04 1.000000000000e+00 0.000000000000e+00 
3.833333333000e+01 9.806700000000e+04 1.000000000000e+00 0.000000000000e+00 
3.866666667000e+01 9.806700000000e+04 1.000000000000e+00 0.000000000000e+00 
3.900000000000e+01 9.806700000000e+04 1.000000000000e+00 0.000000000000e+00 
3.933333333000e+01 9.806700000000e+04 1.000000000000e+00 0.000000000000e+00 
3.966666667000e+01 9.806700000000e+04 1.000000000000e+00 0.000000000000e+00 
4.000000000000e+01 9.806700000000e+04 1.000000000000e+00 0.000000000000e+00 
4.033333333000e+01 9.806700000000e+04 1.000000000000e+00 0.000000000000e+00 
4.066666667000e+01 9.806700000000e+04 1.000000000000e+00 0.000000000000e+00 
4.100000000000e+01 9.806700000000e+04 1.000000000000e+00 0.000000000000e+00 
4.133333333000e+01 9.806700000000e+04 1.000000000000e+00 0.000000000000e+00 
4.166666667000e+01 9.806700000000e+04 1.000000000000e+00 0.000000000000e+00 
4.200000000000e+01 9.806700000000e+04 1.000000000000e+00 0.000000000000e+00 
4.233333333000e+01 9.806700000000e+04 1.000000000000e+00 0.000000000000e+00 
4.266666667000e+01 9.806700000000e+04 1.000000000000e+00 0.000000000000e+00 
4.300000000000e+01 9.806700000000e+04 1.000000000000e+00 0.000000000000e+00 
4.333333333000e+01 9.806700000000e+04 1.000000000000e+00 0.000000000000e+00 
4.366666667000e+01 9.806700000000e+04 1.000000000000e+00 0.000000000000e+00 
4.400000000000e+01 9.806700000000e+04 1.000000000000e+00 0.000000000000e+00 
4.433333333000e+01 9.806700000000e+04 1.000000000000e+00 0.000000000000e+00 
4.466666667000e+01 9.806700000000e+04 1.000000000000e+00 0.000000000000e+00 
4.500000000000e+01 9.806700000000e+04 1.000000000000e+00 0.000000000000e+00 
4.533333333000e+01 9.806700000000e+04 1.000000000000e+00 0.000000000000e+00 
4.566666667000e+01 9.806700000000e+04 1.000000000000e+00 0.000000000000e+00 
4.600000000000e+01 9.806700000000e+04 1.000000000000e+00 0.000000000000e+00 
4.633333333000e+01 9.806700000000e+04 1.000000000000e+00 0.000000000000e+00 
4.666666667000e+01 9.806700000000e+04 1.000000000000e+00 0.000000000000e+00 
4.700000000000e+01 9.806700000000e+04 1.000000000000e+00 0.000000000000e+00 
4.733333333000e+01 9.806700000000e+04 1.000000000000e+00 0.000000000000e+00 
4.766666667000e+01 9.806700000000e+04 1.000000000000e+00 0.000000000000e+00 
4.800000000000e+01 9.806700000000e+04 1.000000000000e+00 0.000000000000e+00 
4.833333333000e+01 9.806700000000e+04 1.000000000000e+00 0.000000000000e+00 
4.866666667000e+01 9.806700000000e+04 1.000000000000e+00 0.000000000000e+00 
4.900000000000e+01 9.806700000000e+04 1.000000000000e+00 0.000000000000e+00 
4.933333333000e+01 9.806700000000e+04 1.000000000000e+00 0.000000000000e+00 
4.966666667000e+01 9.806700000000e+04 1.000000000000e+00 0.000000000000e+00 
5.000000000000e+01 9.806700000000e+04 1.000000000000e+00 0.000000000000e+00 
 TITLE = "Profiles along polylines"
 VARIABLES = "DIST" "PRESSURE1" "SATURATION1" "SATURATION2" 
 ZONE T="TIME=2.160000000000e+04"
0.000000000000e+00 9.810000000000e+04 1.000000000000e+00 0.000000000000e+00 
3.333333330000e-01 9.806924833641e+04 1.000000000000e+00 0.000000000000e+00 
6.666666670000e-01 9.803849667272e+04 1.000000000000e+00 0.000000000000e+00 
1.000000000000e+00 9.800774500912e+04 1.000000000000e+00 0.000000000000e+00 
1.333333333000e+00 9.797699334553e+04 1.000000000000e+00 0.000000000000e+00 
1.666666667000e+00 9.794624168185e+04 1.000000000000e+00 0.000000000000e+00 
2.000000000000e+00 9.791549001825e+04 1.000000000000e+00 0.000000000000e+00 
2.333333333000e+00 9.788473835466e+04 1.000000000000e+00 0.000000000000e+00 
2.666666667000e+00 9.785398669098e+04 1.000000000000e+00 0.000000000000e+00 
3.000000000000e+00 9.782323502739e+04 1.000000000000e+00 0.000000000000e+00 
3.333333333000e+00 9.779248336380e+04 1.000000000000e+00 0.000000000000e+00 
3.666666667000e+00 9.776173170013e+04 1.000000000000e+00 0.000000000000e+00 
4.000000000000e+00 9.773098003654e+04 1.000000000000e+00 0.000000000000e+00 
4.333333333000e+00 9.770022837296e+04 1.000000000000e+00 0.000000000000e+00 
4.666666667000e+00 9.766947670929e+04 1.000000000000e+00 0.000000000000e+00 
5.000000000000e+00 9.762790373072e+04 8.999977480000e-01 1.000022520000e-01 
5.333333333000e+00 9.757871144391e+04 8.999977480000e-01 1.000022520000e-01 
5.666666667000e+00 9.752951915695e+04 8.999977480000e-01 1.000022520000e-01 
6.000000000000e+00 9.748032687014e+04 8.999977480000e-01 1.000022520000e-01 
6.333333333000e+00 9.743113458334e+04 8.999977480000e-01 1.000022520000e-01 
6.666666667000e+00 9.738194229639e+04 8.999977480000e-01 1.000022520000e-01 
7.000000000000e+00 9.733275000960e+04 8.999977480000e-01 1.000022520000e-01 
7.333333333000e+00 9.728355772280e+04 8.999977480000e-01 1.000022520000e-01 
7.666666667000e+00 9.723436543587e+04 8.999977480000e-01 1.000022520000e-01 
8.000000000000e+00 9.718517314909e+04 8.999977480000e-01 1.000022520000e-01 
8.333333333000e+00 9.713598086231e+04 8.999977480000e-01 1.000022520000e-01 
8.666666667000e+00 9.708678857539e+04 8.999977480000e-01 1.000022520000e-01 
9.000000000000e+00 9.703759628862e+04 8.999977480000e-01 1.000022520000e-01 
9.333333333000e+00 9.698840400186e+04 8.999977480000e-01 1.000022520000e-01 
9.666666667000e+00 9.693921171495e+04 8.999977480000e-01 1.000022520000e-01 
1.000000000000e+01 9.689001942820e+04 8.999977480000e-01 1.000022520000e-01 
1.033333333000e+01 9.685444790983e+04 1.000000000000e+00 0.000000000000e+00 
1.066666667000e+01 9.682369624566e+04 1.000000000000e+00 0.000000000000e+00 
1.100000000000e+01 9.679294458241e+04 1.000000000000e+00 0.000000000000e+00 
1.133333333000e+01 9.676219291918e+04 1.000000000000e+00 0.000000000000e+00 
1.166666667000e+01 9.673144125502e+04 1.000000000000e+00 0.000000000000e+00 
1.200000000000e+01 9.670068959180e+04 1.000000000000e+00 0.000000000000e+00 
1.233333333000e+01 9.666993792858e+04 1.000000000000e+00 0.000000000000e+00 
1.266666667000e+01 9.663918626445e+04 1.000000000000e+00 0.000000000000e+00 
1.300000000000e+01 9.660843460125e+04 1.000000000000e+00 0.000000000000e+00 
1.333333333000e+01 9.657768293805e+04 1.000000000000e+00 0.000000000000e+00 
1.366666667000e+01 9.654693127394e+04 1.000000000000e+00 0.000000000000e+00 
1.400000000000e+01 9.651617961076e+04 1.000000000000e+00 0.000000000000e+00 
1.433333333000e+01 9.648542794759e+04 1.000000000000e+00 0.000000000000e+00 
1.466666667000e+01 9.645467628350e+04 1.000000000000e+00 0.000000000000e+00 
1.500000000000e+01 9.642392462035e+04 1.000000000000e+00 0.000000000000e+00 
1.533333333000e+01 9.639317295720e+04 1.000000000000e+00 0.000000000000e+00 
1.566666667000e+01 9.636242129313e+04 1.000000000000e+00 0.000000000000e+00 
1.600000000000e+01 9.633166963000e+04 1.000000000000e+00 0.000000000000e+00 
1.633333333000e+01 9.630091796687e+04 1.000000000000e+00 0.000000000000e+00 
1.666666667000e+01 9.627016630283e+04 1.000000000000e+00 0.000000000000e+00 
1.700000000000e+01 9.623941463972e+04 1.000000000000e+00 0.000000000000e+00 
1.733333333000e+01 9.620866297662e+04 1.000000000000e+00 0.000000000000e+00 
1.766666667000e+01 9.617791131261e+04 1.000000000000e+00 0.000000000000e+00 
1.800000000000e+01 9.614715964952e+04 1.000000000000e+00 0.000000000000e+00 
1.833333333000e+01 9.611640798645e+04 1.000000000000e+00 0.000000000000e+00 
1.866666667000e+01 9.608565632245e+04 1.000000000000e+00 0.000000000000e+00 
1.900000000000e+01 9.605490465940e+04 1.000000000000e+00 0.000000000000e+00 
1.933333333000e+01 9.602415299634e+04 1.000000000000e+00 0.000000000000e+00 
1.966666667000e+01 9.599340133238e+04 1.000000000000e+00 0.000000000000e+00 
2.000000000000e+01 9.596264966935e+04 1.000000000000e+00 0.000000000000e+00 
2.033333333000e+01 9.593189800632e+04 1.000000000000e+00 0.000000000000e+00 
2.066666667000e+01 9.590114634238e+04 1.000000000000e+00 0.000000000000e+00 
2.100000000000e+01 9.587039467938e+04 1.000000000000e+00 0.000000000000e+00 
2.133333333000e+01 9.583964301638e+04 1.000000000000e+00 0.000000000000e+00 
2.166666667000e+01 9.580889135247e+04 1.000000000000e+00 0.000000000000e+00 
2.200000000000e+01 9.577813968949e+04 1.000000000000e+00 0.000000000000e+00 
2.233333333000e+01 9.574738802651e+04 1.000000000000e+00 0.000000000000e+00 
2.266666667000e+01 9.571663636263e+04 1.000000000000e+00 0.000000000000e+00 
2.300000000000e+01 9.568588469967e+04 1.000000000000e+00 0.000000000000e+00 
2.333333333000e+01 9.565513303673e+04 1.000000000000e+00 0.000000000000e+00 
2.366666667000e+01 9.562438137287e+04 1.000000000000e+00 0.000000000000e+00 
2.400000000000e+01 9.559362970994e+04 1.000000000000e+00 0.000000000000e+00 
2.433333333000e+01 9.556287804702e+04 1.000000000000e+00 0.000000000000e+00 
2.466666667000e+01 9.553212638319e+04 1.000000000000e+00 0.000000000000e+00 
2.500000000000e+01 9.550137472029e+04 1.000000000000e+00 0.000000000000e+00 
2.533333333000e+01 9.547062305739e+04 1.000000000000e+00 0.000000000000e+00 
2.566666667000e+01 9.543987139359e+04 1.000000000000e+00 0.000000000000e+00 
2.600000000000e+01 9.540911973071e+04 1.000000000000e+00 0.000000000000e+00 
2.633333333000e+01 9.537836806785e+04 1.000000000000e+00 0.000000000000e+00 
2.666666667000e+01 9.534761640407e+04 1.000000000000e+00 0.000000000000e+00 
2.700000000000e+01 9.531686474122e+04 1.000000000000e+00 0.000000000000e+00 
2.733333333000e+01 9.528611307838e+04 1.000000000000e+00 0.000000000000e+00 
2.766666667000e+01 9.525536141463e+04 1.000000000000e+00 0.000000000000e+00 
2.800000000000e+01 9.522460975180e+04 1.000000000000e+00 0.000000000000e+00 
2.833333333000e+01 9.519385808899e+04 1.000000000000e+00 0.000000000000e+00 
2.866666667000e+01 9.516310642526e+04 1.000000000000e+00 0.000000000000e+00 
2.900000000000e+01 9.513235476246e+04 1.000000000000e+00 0.000000000000e+00 
2.933333333000e+01 9.510160309967e+04 1.000000000000e+00 0.000000000000e+00 
2.966666667000e+01 9.507085143597e+04 1.000000000000e+00 0.000000000000e+00 
3.000000000000e+01 9.504009977320e+04 1.000000000000e+00 0.000000000000e+00 
3.033333333000e+01 9.500934811044e+04 1.000000000000e+00 0.000000000000e+00 
3.066666667000e+01 9.497859644676e+04 1.000000000000e+00 0.000000000000e+00 
3.100000000000e+01 9.494784478401e+04 1.000000000000e+00 0.000000000000e+00 
3.133333333000e+01 9.491709312127e+04 1.000000000000e+00 0.000000000000e+00 
3.166666667000e+01 9.488634145762e+04 1.000000000000e+00 0.000000000000e+00 
3.200000000000e+01 9.485558979489e+04 1.000000000000e+00 0.000000000000e+00 
3.233333333000e+01 9.482483813218e+04 1.000000000000e+00 0.000000000000e+00 
3.266666667000e+01 9.479408646855e+04 1.000000000000e+00 0.000000000000e+00 
3.300000000000e+01 9.476333480585e+04 1.000000000000e+00 0.000000000000e+00 
3.333333333000e+01 9.473258314316e+04 1.000000000000e+00 0.000000000000e+00 
3.366666667000e+01 9.470183147955e+04 1.000000000000e+00 0.000000000000e+00 
3.400000000000e+01 9.467107981687e+04 1.000000000000e+00 0.000000000000e+00 
3.433333333000e+01 9.464032815420e+04 1.000000000000e+00 0.000000000000e+00 
3.466666667000e+01 9.460957649062e+04 1.000000000000e+00 0.000000000000e+00 
3.500000000000e+01 9.457882482796e+04 1.000000000000e+00 0.000000000000e+00 
3.533333333000e+01 9.454807316532e+04 1.000000000000e+00 0.000000000000e+00 
3.566666667000e+01 9.451732150175e+04 1.000000000000e+00 0.000000000000e+00 
3.600000000000e+01 9.448656983912e+04 1.000000000000e+00 0.000000000000e+00 
3.633333333000e+01 9.445581817649e+04 1.000000000000e+00 0.000000000000e+00 
3.666666667000e+01 9.442506651295e+04 1.000000000000e+00 0.000000000000e+00 
3.700000000000e+01 9.439431485033e+04 1.000000000000e+00 0.000000000000e+00 
3.733333333000e+01 9.436356318773e+04 1.000000000000e+00 0.000000000000e+00 
3.766666667000e+01 9.433281152420e+04 1.000000000000e+00 0.000000000000e+00 
3.800000000000e+01 9.430205986161e+04 1.000000000000e+00 0.000000000000e+00 
3.833333333000e+01 9.427130819902e+04 1.000000000000e+00 0.000000000000e+00 
3.866666667000e+01 9.424055653551e+04 1.000000000000e+00 0.000000000000e+00 
3.900000000000e+01 9.420980487294e+04 1.000000000000e+00 0.000000000000e+00 
3.933333333000e+01 9.417905321037e+04 1.000000000000e+00 0.000000000000e+00 
3.966666667000e+01 9.414830154688e+04 1.000000000000e+00 0.000000000000e+00 
4.000000000000e+01 9.411754988432e+04 1.000000000000e+00 0.000000000000e+00 
4.033333333000e+01 9.408679822176e+04 1.000000000000e+00 0.000000000000e+00 
4.066666667000e+01 9.405604655829e+04 1.000000000000e+00 0.000000000000e+00 
4.100000000000e+01 9.402529489574e+04 1.000000000000e+00 0.000000000000e+00 
4.133333333000e+01 9.399454323320e+04 1.000000000000e+00 0.000000000000e+00 
4.166666667000e+01 9.396379156975e+04 1.000000000000e+00 0.000000000000e+00 
4.200000000000e+01 9.393303990721e+04 1.000000000000e+00 0.000000000000e+00 
4.233333333000e+01 9.390228824469e+04 1.000000000000e+00 0.000000000000e+00 
4.266666667000e+01 9.387153658124e+04 1.000000000000e+00 0.000000000000e+00 
4.300000000000e+01 9.384078491873e+04 1.000000000000e+00 0.000000000000e+00 
4.333333333000e+01 9.381003325621e+04 1.000000000000e+00 0.000000000000e+00 
4.366666667000e+01 9.377928159278e+04 1.000000000000e+00 0.000000000000e+00 
4.400000000000e+01 9.374852993027e+04 1.000000000000e+00 0.000000000000e+00 
4.433333333000e+01 9.371777826777e+04 1.000000000000e+00 0.000000000000e+00 
4.466666667000e+01 9.368702660434e+04 1.000000000000e+00 0.000000000000e+00 
4.500000000000e+01 9.365627494184e+04 1.000000000000e+00 0.000000000000e+00 
4.533333333000e+01 9.362552327935e+04 1.000000000000e+00 0.000000000000e+00 
4.566666667000e+01 9.359477161594e+04 1.000000000000e+00 0.000000000000e+00 
4.600000000000e+01 9.356401995345e+04 1.000000000000e+00 0.000000000000e+00 
4.633333333000e+01 9.353326829096e+04 1.000000000000e+00 0.000000000000e+00 
4.666666667000e+01 9.350251662755e+04 1.000000000000e+00 0.000000000000e+00 
4.700000000000e+01 9.347176496507e+04 1.000000000000e+00 0.000000000000e+00 
4.733333333000e+01 9.344101330258e+04 1.000000000000e+00 0.000000000000e+00 
4.766666667000e+01 9.341026163918e+04 1.000000000000e+00 0.000000000000e+00 
4.800000000000e+01 9.337950997670e+04 1.000000000000e+00 0.000000000000e+00 
4.833333333000e+01 9.334875831422e+04 1.000000000000e+00 0.000000000000e+00 
4.866666667000e+01 9.331800665082e+04 1.000000000000e+00 0.000000000000e+00 
4.900000000000e+01 9.328725498835e+04 1.000000000000e+00 0.000000000000e+00 
4.933333333000e+01 9.325650332587e+04 1.000000000000e+00 0.000000000000e+00 
4.966666667000e+01 9.322575166248e+04 1.000000000000e+00 0.000000000000e+00 
5.000000000000e+01 9.319500000000e+04 1.000000000000e+00 0.000000000000e+00 
 ZONE T="TIME=4.320000000000e+04"
0.000000000000e+00 9.810000000000e+04 1.000000000000e+00 0.000000000000e+00 
3.333333330000e-01 9.806924833641e+04 1.000000000000e+00 0.000000000000e+00 
6.666666670000e-01 9.803849667272e+04 1.000000000000e+00 0.000000000000e+00 
1.000000000000e+00 9.800774500912e+04 1.000000000000e+00 0.000000000000e+00 
1.333333333000e+00 9.797699334553e+04 1.000000000000e+00 0.000000000000e+00 
1.666666667000e+00 9.794624168185e+04 1.000000000000e+00 0.000000000000e+00 
2.000000000000e+00 9.791549001825e+04 1.000000000000e+00 0.000000000000e+00 
2.333333333000e+00 9.788473835466e+04 1.000000000000e+00 0.000000000000e+00 
2.666666667000e+00 9.785398669098e+04 1.000000000000e+00 0.000000000000e+00 
3.000000000000e+00 9.782323502739e+04 1.000000000000e+00 0.000000000000e+00 
3.333333333000e+00 9.779248336380e+04 1.000000000000e+00 0.000000000000e+00 
3.666666667000e+00 9.776173170013e+04 1.000000000000e+00 0.000000000000e+00 
4.000000000000e+00 9.773098003654e+04 1.000000000000e+00 0.000000000000e+00 
4.333333333000e+00 9.770022837296e+04 1.000000000000e+00 0.000000000000e+00 
4.666666667000e+00 9.766947670929e+04 1.000000000000e+00 0.000000000000e+00 
5.000000000000e+00 9.762790373072e+04 8.999977480000e-01 1.000022520000e-01 
5.333333333000e+00 9.757871144391e+04 8.999977480000e-01 1.000022520000e-01 
5.666666667000e+00 9.752951915695e+04 8.999977480000e-01 1.000022520000e-01 
6.000000000000e+00 9.748032687014e+04 8.999977480000e-01 1.000022520000e-01 
6.333333333000e+00 9.743113458334e+04 8.999977480000e-01 1.000022520000e-01 
6.666666667000e+00 9.738194229639e+04 8.999977480000e-01 1.000022520000e-01 
7.000000000000e+00 9.733275000960e+04 8.999977480000e-01 1.000022520000e-01 
7.333333333000e+00 9.728355772280e+04 8.999977480000e-01 1.000022520000e-01 
7.666666667000e+00 9.723436543587e+04 8.999977480000e-01 1.000022520000e-01 
8.000000000000e+00 9.718517314909e+04 8.999977480000e-01 1.000022520000e-01 
8.333333333000e+00 9.713598086231e+04 8.999977480000e-01 1.000022520000e-01 
8.666666667000e+00 9.708678857539e+04 8.999977480000e-01 1.000022520000e-01 
9.000000000000e+00 9.703759628862e+04 8.999977480000e-01 1.000022520000e-01 
9.333333333000e+00 9.698840400186e+04 8.999977480000e-01 1.000022520000e-01 
9.666666667000e+00 9.693921171495e+04 8.999977480000e-01 1.000022520000e-01 
1.000000000000e+01 9.689001942820e+04 8.999977480000e-01 1.000022520000e-01 
1.033333333000e+01 9.685444790983e+04 1.000000000000e+00 0.000000000000e+00 
1.066666667000e+01 9.682369624566e+04 1.000000000000e+00 0.000000000000e+00 
1.100000000000e+01 9.679294458241e+04 1.000000000000e+00 0.000000000000e+00 
1.133333333000e+01 9.676219291918e+04 1.000000000000e+00 0.000000000000e+00 
1.166666667000e+01 9.673144125502e+04 1.000000000000e+00 0.000000000000e+00 
1.200000000000e+01 9.670068959180e+04 1.000000000000e+00 0.000000000000e+00 
1.233333333000e+01 9.666993792858e+04 1.000000000000e+00 0.000000000000e+00 
1.266666667000e+01 9.663918626445e+04 1.000000000000e+00 0.000000000000e+00 
1.300000000000e+01 9.660843460125e+04 1.000000000000e+00 0.000000000000e+00 
1.333333333000e+01 9.657768293805e+04 1.000000000000e+00 0.000000000000e+00 
1.366666667000e+01 9.654693127394e+04 1.000000000000e+00 0.000000000000e+00 
1.400000000000e+01 9.651617961076e+04 1.000000000000e+00 0.000000000000e+00 
1.433333333000e+01 9.648542794759e+04 1.000000000000e+00 0.000000000000e+00 
1.466666667000e+01 9.645467628350e+04 1.000000000000e+00 0.000000000000e+00 
1.500000000000e+01 9.642392462035e+04 1.000000000000e+00 0.000000000000e+00 
1.533333333000e+01 9.639317295720e+04 1.000000000000e+00 0.000000000000e+00 
1.566666667000e+01 9.636242129313e+04 1.000000000000e+00 0.000000000000e+00 
1.600000000000e+01 9.633166963000e+04 1.000000000000e+00 0.000000000000e+00 
1.633333333000e+01 9.630091796687e+04 1.000000000000e+00 0.000000000000e+00 
1.666666667000e+01 9.627016630283e+04 1.000000000000e+00 0.000000000000e+00 
1.700000000000e+01 9.623941463972e+04 1.000000000000e+00 0.000000000000e+00 
1.733333333000e+01 9.620866297662e+04 1.000000000000e+00 0.000000000000e+00 
1.766666667000e+01 9.617791131261e+04 1.000000000000e+00 0.000000000000e+00 
1.800000000000e+01 9.614715964952e+04 1.000000000000e+00 0.000000000000e+00 
1.833333333000e+01 9.611640798645e+04 1.000000000000e+00 0.000000000000e+00 
1.866666667000e+01 9.608565632245e+04 1.000000000000e+00 0.000000000000e+00 
1.900000000000e+01 9.605490465940e+04 1.000000000000e+00 0.000000000000e+00 
1.933333333000e+01 9.602415299634e+04 1.000000000000e+00 0.000000000000e+00 
1.966666667000e+01 9.599340133238e+04 1.000000000000e+00 0.000000000000e+00 
2.000000000000e+01 9.596264966935e+04 1.000000000000e+00 0.000000000000e+00 
2.033333333000e+01 9.593189800632e+04 1.000000000000e+00 0.000000000000e+00 
2.066666667000e+01 9.590114634238e+04 1.000000000000e+00 0.000000000000e+00 
2.100000000000e+01 9.587039467938e+04 1.000000000000e+00 0.000000000000e+00 
2.133333333000e+01 9.583964301638e+04 1.000000000000e+00 0.000000000000e+00 
2.166666667000e+01 9.580889135247e+04 1.000000000000e+00 0.000000000000e+00 
2.200000000000e+01 9.577813968949e+04 1.000000000000e+00 0.000000000000e+00 
2.233333333000e+01 9.574738802651e+04 1.000000000000e+00 0.000000000000e+00 
2.266666667000e+01 9.571663636263e+04 1.000000000000e+00 0.000000000000e+00 
2.300000000000e+01 9.568588469967e+04 1.000000000000e+00 0.000000000000e+00 
2.333333333000e+01 9.565513303673e+04 1.000000000000e+00 0.000000000000e+00 
2.366666667000e+01 9.562438137287e+04 1.000000000000e+00 0.000000000000e+00 
2.400000000000e+01 9.559362970994e+04 1.000000000000e+00 0.000000000000e+00 
2.433333333000e+01 9.556287804702e+04 1.000000000000e+00 0.000000000000e+00 
2.466666667000e+01 9.553212638319e+04 1.000000000000e+00 0.000000000000e+00 
2.500000000000e+01 9.550137472029e+04 1.000000000000e+00 0.000000000000e+00 
2.533333333000e+01 9.547062305739e+04 1.000000000000e+00 0.000000000000e+00 
2.566666667000e+01 9.543987139359e+04 1.000000000000e+00 0.000000000000e+00 
2.600000000000e+01 9.540911973071e+04 1.000000000000e+00 0.000000000000e+00 
2.633333333000e+01 9.537836806785e+04 1.000000000000e+00 0.000000000000e+00 
2.666666667000e+01 9.534761640407e+04 1.000000000000e+00 0.000000000000e+00 
2.700000000000e+01 9.531686474122e+04 1.000000000000e+00 0.000000000000e+00 
2.733333333000e+01 9.528611307838e+04 1.000000000000e+00 0.000000000000e+00 