VARIABLES  = "X","Y","Z", "PRESSURE1", "PRESSURE2", "SATURATION1", SATURATION2, "VELOCITY_X1", "VELOCITY_Y1", "VELOCITY_Z1", "VELOCITY_X2", "VELOCITY_Y2", "VELOCITY_Z2"
ZONE T="0.000000000000e+00s", N=252, E=100, F=FEPOINT, ET=BRICK
STRANDID=1, SOLUTIONTIME=0.000000000000e+00
9.961946980920e-01 8.715574274770e-02 -2.000000000000e+03 0.000000000000e+00 0.000000000000e+00 9.750000000000e-01 2.500000000000e-02 0.000000000000e+00 0.000000000000e+00 0.000000000000e+00 0.000000000000e+00 0.000000000000e+00 0.000000000000e+00 
2.988584094280e+00 2.614672282430e-01 -2.000000000000e+03 0.000000000000e+00 0.000000000000e+00 9.750000000000e-01 2.500000000000e-02 0.000000000000e+00 0.000000000000e+00 0.000000000000e+00 0.000000000000e+00 0.000000000000e+00 0.000000000000e+00 
9.961946980920e-01 -8.715574274770e-02 -2.000000000000e+03 0.000000000000e+00 0.000000000000e+00 9.750000000000e-01 2.500000000000e-02 0.000000000000e+00 0.000000000000e+00 0.000000000000e+00 0.000000000000e+00 0.000000000000e+00 0.000000000000e+00 
2.988584094280e+00 -2.614672282430e-01 -2.000000000000e+03 0.000000000000e+00 0.000000000000e+00 9.750000000000e-01 2.500000000000e-02 0.000000000000e+00 0.000000000000e+00 0.000000000000e+00 0.000000000000e+00 0.000000000000e+00 0.000000000000e+00 
9.961946980920e-01 8.715574274770e-02 -2.004000000000e+03 0.000000000000e+00 0.000000000000e+00 9.750000000000e-01 2.500000000000e-02 0.000000000000e+00 0.000000000000e+00 0.000000000000e+00 0.000000000000e+00 0.000000000000e+00 0.000000000000e+00 
2.988584094280e+00 2.614672282430e-01 -2.004000000000e+03 0.000000000000e+00 0.000000000000e+00 9.750000000000e-01 2.500000000000e-02 0.000000000000e+00 0.000000000000e+00 0.000000000000e+00 0.000000000000e+00 0.000000000000e+00 0.000000000000e+00 
9.961946980920e-01 -8.715574274770e-02 -2.004000000000e+03 0.000000000000e+00 0.000000000000e+00 9.750000000000e-01 2.500000000000e-02 0.000000000000e+00 0.000000000000e+00 0.000000000000e+00 0.000000000000e+00 0.000000000000e+00 0.000000000000e+00 
2.988584094280e+00 -2.614672282430e-01 -2.004000000000e+03 0.000000000000e+00 0.000000000000e+00 9.750000000000e-01 2.500000000000e-02 0.000000000000e+00 0.000000000000e+00 0.000000000000e+00 0.000000000000e+00 0.000000000000e+00 0.000000000000e+00 
5.479070839500e+00 4.793565851120e-01 -2.000000000000e+03 0.000000000000e+00 0.000000000000e+00 9.750000000000e-01 2.500000000000e-02 0.000000000000e+00 0.000000000000e+00 0.000000000000e+00 0.000000000000e+00 0.000000000000e+00 0.000000000000e+00 
5.479070839500e+00 -4.793565851120e-01 -2.000000000000e+03 0.000000000000e+00 0.000000000000e+00 9.750000000000e-01 2.500000000000e-02 0.000000000000e+00 0.000000000000e+00 0.000000000000e+00 0.000000000000e+00 0.000000000000e+00 0.000000000000e+00 
5.479070839500e+00 4.793565851120e-01 -2.004000000000e+03 0.000000000000e+00 0.000000000000e+00 9.750000000000e-01 2.500000000000e-02 0.000000000000e+00 0.000000000000e+00 0.000000000000e+00 0.000000000000e+00 0.000000000000e+00 0.000000000000e+00 
5.479070839500e+00 -4.793565851120e-01 -2.004000000000e+03 0.000000000000e+00 0.000000000000e+00 9.750000000000e-01 2.500000000000e-02 0.000000000000e+00 0.000000000000e+00 0.000000000000e+00 0.000000000000e+00 0.000000000000e+00 0.000000000000e+00 
7.969557584730e+00 6.972459419810e-01 -2.000000000000e+03 0.000000000000e+00 0.000000000000e+00 9.750000000000e-01 2.500000000000e-02 0.000000000000e+00 0.000000000000e+00 0.000000000000e+00 0.000000000000e+00 0.000000000000e+00 0.000000000000e+00 
7.969557584730e+00 -6.972459419810e-01 -2.000000000000e+03 0.000000000000e+00 0.000000000000e+00 9.750000000000e-01 2.500000000000e-02 0.000000000000e+00 0.000000000000e+00 0.000000000000e+00 0.000000000000e+00 0.000000000000e+00 0.000000000000e+00 
7.969557584730e+00 6.972459419810e-01 -2.004000000000e+03 0.000000000000e+00 0.000000000000e+00 9.750000000000e-01 2.500000000000e-02 0.000000000000e+00 0.000000000000e+00 0.000000000000e+00 0.000000000000e+00 0.000000000000e+00 0.000000000000e+00 
7.969557584730e+00 -6.972459419810e-01 -2.004000000000e+03 0.000000000000e+00 0.000000000000e+00 9.750000000000e-01 2.500000000000e-02 0.000000000000e+00 0.000000000000e+00 0.000000000000e+00 0.000000000000e+00 0.000000000000e+00 0.000000000000e+00 
1.046004433000e+01 9.151352988500e-01 -2.000000000000e+03 0.000000000000e+00 0.000000000000e+00 9.750000000000e-01 2.500000000000e-02 0.000000000000e+00 0.000000000000e+00 0.000000000000e+00 0.000000000000e+00 0.000000000000e+00 0.000000000000e+00 
1.046004433000e+01 -9.151352988500e-01 -2.000000000000e+03 0.000000000000e+00 0.000000000000e+00 9.750000000000e-01 2.500000000000e-02 0.000000000000e+00 0.000000000000e+00 0.000000000000e+00 0.000000000000e+00 0.000000000000e+00 0.000000000000e+00 
1.046004433000e+01 9.151352988500e-01 -2.004000000000e+03 0.000000000000e+00 0.000000000000e+00 9.750000000000e-01 2.500000000000e-02 0.000000000000e+00 0.000000000000e+00 0.000000000000e+00 0.000000000000e+00 0.000000000000e+00 0.000000000000e+00 
1.046004433000e+01 -9.151352988500e-01 -2.004000000000e+03 0.000000000000e+00 0.000000000000e+00 9.750000000000e-01 2.500000000000e-02 0.000000000000e+00 0.000000000000e+00 0.000000000000e+00 0.000000000000e+00 0.000000000000e+00 0.000000000000e+00 
1.319957974970e+01 1.154813591410e+00 -2.000000000000e+03 0.000000000000e+00 0.000000000000e+00 9.750000000000e-01 2.500000000000e-02 0.000000000000e+00 0.000000000000e+00 0.000000000000e+00 0.000000000000e+00 0.000000000000e+00 0.000000000000e+00 
1.319957974970e+01 -1.154813591410e+00 -2.000000000000e+03 0.000000000000e+00 0.000000000000e+00 9.750000000000e-01 2.500000000000e-02 0.000000000000e+00 0.000000000000e+00 0.000000000000e+00 0.000000000000e+00 0.000000000000e+00 0.000000000000e+00 
1.319957974970e+01 1.154813591410e+00 -2.004000000000e+03 0.000000000000e+00 0.000000000000e+00 9.750000000000e-01 2.500000000000e-02 0.000000000000e+00 0.000000000000e+00 0.000000000000e+00 0.000000000000e+00 0.000000000000e+00 0.000000000000e+00 
1.319957974970e+01 -1.154813591410e+00 -2.004000000000e+03 0.000000000000e+00 0.000000000000e+00 9.750000000000e-01 2.500000000000e-02 0.000000000000e+00 0.000000000000e+00 0.000000000000e+00 0.000000000000e+00 0.000000000000e+00 0.000000000000e+00 
1.593911516950e+01 1.394491883960e+00 -2.000000000000e+03 0.000000000000e+00 0.000000000000e+00 9.750000000000e-01 2.500000000000e-02 0.000000000000e+00 0.000000000000e+00 0.000000000000e+00 0.000000000000e+00 0.000000000000e+00 0.000000000000e+00 
1.593911516950e+01 -1.394491883960e+00 -2.000000000000e+03 0.000000000000e+00 0.000000000000e+00 9.750000000000e-01 2.500000000000e-02 0.000000000000e+00 0.000000000000e+00 0.000000000000e+00 0.000000000000e+00 0.000000000000e+00 0.000000000000e+00 
1.593911516950e+01 1.394491883960e+00 -2.004000000000e+03 0.000000000000e+00 0.000000000000e+00 9.750000000000e-01 2.500000000000e-02 0.000000000000e+00 0.000000000000e+00 0.000000000000e+00 0.000000000000e+00 0.000000000000e+00 0.000000000000e+00 
1.593911516950e+01 -1.394491883960e+00 -2.004000000000e+03 0.000000000000e+00 0.000000000000e+00 9.750000000000e-01 2.500000000000e-02 0.000000000000e+00 0.000000000000e+00 0.000000000000e+00 0.000000000000e+00 0.000000000000e+00 0.000000000000e+00 
1.867865058920e+01 1.634170176520e+00 -2.000000000000e+03 0.000000000000e+00 0.000000000000e+00 9.750000000000e-01 2.500000000000e-02 0.000000000000e+00 0.000000000000e+00 0.000000000000e+00 0.000000000000e+00 0.000000000000e+00 0.000000000000e+00 
1.867865058920e+01 -1.634170176520e+00 -2.000000000000e+03 0.000000000000e+00 0.000000000000e+00 9.750000000000e-01 2.500000000000e-02 0.000000000000e+00 0.000000000000e+00 0.000000000000e+00 0.000000000000e+00 0.000000000000e+00 0.000000000000e+00 
1.867865058920e+01 1.634170176520e+00 -2.004000000000e+03 0.000000000000e+00 0.000000000000e+00 9.750000000000e-01 2.500000000000e-02 0.000000000000e+00 0.000000000000e+00 0.000000000000e+00 0.000000000000e+00 0.000000000000e+00 0.000000000000e+00 
1.867865058920e+01 -1.634170176520e+00 -2.004000000000e+03 0.000000000000e+00 0.000000000000e+00 9.750000000000e-01 2.500000000000e-02 0.000000000000e+00 0.000000000000e+00 0.000000000000e+00 0.000000000000e+00 0.000000000000e+00 0.000000000000e+00 
2.166723468350e+01 1.895637404760e+00 -2.000000000000e+03 0.000000000000e+00 0.000000000000e+00 9.750000000000e-01 2.500000000000e-02 0.000000000000e+00 0.000000000000e+00 0.000000000000e+00 0.000000000000e+00 0.000000000000e+00 0.000000000000e+00 
2.166723468350e+01 -1.895637404760e+00 -2.000000000000e+03 0.000000000000e+00 0.000000000000e+00 9.750000000000e-01 2.500000000000e-02 0.000000000000e+00 0.000000000000e+00 0.000000000000e+00 0.000000000000e+00 0.000000000000e+00 0.000000000000e+00 
2.166723468350e+01 1.895637404760e+00 -2.004000000000e+03 0.000000000000e+00 0.000000000000e+00 9.750000000000e-01 2.500000000000e-02 0.000000000000e+00 0.000000000000e+00 0.000000000000e+00 0.000000000000e+00 0.000000000000e+00 0.000000000000e+00 
2.166723468350e+01 -1.895637404760e+00 -2.004000000000e+03 0.000000000000e+00 0.000000000000e+00 9.750000000000e-01 2.500000000000e-02 0.000000000000e+00 0.000000000000e+00 0.000000000000e+00 0.000000000000e+00 0.000000000000e+00 0.000000000000e+00 
2.465581877780e+01 2.157104633000e+00 -2.000000000000e+03 0.000000000000e+00 0.000000000000e+00 9.750000000000e-01 2.500000000000e-02 0.000000000000e+00 0.000000000000e+00 0.000000000000e+00 0.000000000000e+00 0.000000000000e+00 0.000000000000e+00 
2.465581877780e+01 -2.157104633000e+00 -2.000000000000e+03 0.000000000000e+00 0.000000000000e+00 9.750000000000e-01 2.500000000000e-02 0.000000000000e+00 0.000000000000e+00 0.000000000000e+00 0.000000000000e+00 0.000000000000e+00 0.000000000000e+00 
2.465581877780e+01 2.157104633000e+00 -2.004000000000e+03 0.000000000000e+00 0.000000000000e+00 9.750000000000e-01 2.500000000000e-02 0.000000000000e+00 0.000000000000e+00 0.000000000000e+00 0.000000000000e+00 0.000000000000e+00 0.000000000000e+00 
2.465581877780e+01 -2.157104633000e+00 -2.004000000000e+03 0.000000000000e+00 0.000000000000e+00 9.750000000000e-01 2.500000000000e-02 0.000000000000e+00 0.000000000000e+00 0.000000000000e+00 0.000000000000e+00 0.000000000000e+00 0.000000000000e+00 
2.764440287200e+01 2.418571861250e+00 -2.000000000000e+03 0.000000000000e+00 0.000000000000e+00 9.750000000000e-01 2.500000000000e-02 0.000000000000e+00 0.000000000000e+00 0.000000000000e+00 0.000000000000e+00 0.000000000000e+00 0.000000000000e+00 
2.764440287200e+01 -2.418571861250e+00 -2.000000000000e+03 0.000000000000e+00 0.000000000000e+00 9.750000000000e-01 2.500000000000e-02 0.000000000000e+00 0.000000000000e+00 0.000000000000e+00 0.000000000000e+00 0.000000000000e+00 0.000000000000e+00 
2.764440287200e+01 2.418571861250e+00 -2.004000000000e+03 0.000000000000e+00 0.000000000000e+00 9.750000000000e-01 2.500000000000e-02 0.000000000000e+00 0.000000000000e+00 0.000000000000e+00 0.000000000000e+00 0.000000000000e+00 0.000000000000e+00 
2.764440287200e+01 -2.418571861250e+00 -2.004000000000e+03 0.000000000000e+00 0.000000000000e+00 9.750000000000e-01 2.500000000000e-02 0.000000000000e+00 0.000000000000e+00 0.000000000000e+00 0.000000000000e+00 0.000000000000e+00 0.000000000000e+00 
3.088203564080e+01 2.701828025180e+00 -2.000000000000e+03 0.000000000000e+00 0.000000000000e+00 9.750000000000e-01 2.500000000000e-02 0.000000000000e+00 0.000000000000e+00 0.000000000000e+00 0.000000000000e+00 0.000000000000e+00 0.000000000000e+00 
3.088203564080e+01 -2.701828025180e+00 -2.000000000000e+03 0.000000000000e+00 0.000000000000e+00 9.750000000000e-01 2.500000000000e-02 0.000000000000e+00 0.000000000000e+00 0.000000000000e+00 0.000000000000e+00 0.000000000000e+00 0.000000000000e+00 
3.088203564080e+01 2.701828025180e+00 -2.004000000000e+03 0.000000000000e+00 0.000000000000e+00 9.750000000000e-01 2.500000000000e-02 0.000000000000e+00 0.000000000000e+00 0.000000000000e+00 0.000000000000e+00 0.000000000000e+00 0.000000000000e+00 
3.088203564080e+01 -2.701828025180e+00 -2.004000000000e+03 0.000000000000e+00 0.000000000000e+00 9.750000000000e-01 2.500000000000e-02 0.000000000000e+00 0.000000000000e+00 0.000000000000e+00 0.000000000000e+00 0.000000000000e+00 0.000000000000e+00 
3.411966840960e+01 2.985084189110e+00 -2.000000000000e+03 0.000000000000e+00 0.000000000000e+00 9.750000000000e-01 2.500000000000e-02 0.000000000000e+00 0.000000000000e+00 0.000000000000e+00 0.000000000000e+00 0.000000000000e+00 0.000000000000e+00 
3.411966840960e+01 -2.985084189110e+00 -2.000000000000e+03 0.000000000000e+00 0.000000000000e+00 9.750000000000e-01 2.500000000000e-02 0.000000000000e+00 0.000000000000e+00 0.000000000000e+00 0.000000000000e+00 0.000000000000e+00 0.000000000000e+00 
3.411966840960e+01 2.985084189110e+00 -2.004000000000e+03 0.000000000000e+00 0.000000000000e+00 9.750000000000e-01 2.500000000000e-02 0.000000000000e+00 0.000000000000e+00 0.000000000000e+00 0.000000000000e+00 0.000000000000e+00 0.000000000000e+00 
3.411966840960e+01 -2.985084189110e+00 -2.004000000000e+03 0.000000000000e+00 0.000000000000e+00 9.750000000000e-01 2.500000000000e-02 0.000000000000e+00 0.000000000000e+00 0.000000000000e+00 0.000000000000e+00 0.000000000000e+00 0.000000000000e+00 
3.735730117840e+01 3.268340353040e+00 -2.000000000000e+03 0.000000000000e+00 0.000000000000e+00 9.750000000000e-01 2.500000000000e-02 0.000000000000e+00 0.000000000000e+00 0.000000000000e+00 0.000000000000e+00 0.000000000000e+00 0.000000000000e+00 
3.735730117840e+01 -3.268340353040e+00 -2.000000000000e+03 0.000000000000e+00 0.000000000000e+00 9.750000000000e-01 2.500000000000e-02 0.000000000000e+00 0.000000000000e+00 0.000000000000e+00 0.000000000000e+00 0.000000000000e+00 0.000000000000e+00 
3.735730117840e+01 3.268340353040e+00 -2.004000000000e+03 0.000000000000e+00 0.000000000000e+00 9.750000000000e-01 2.500000000000e-02 0.000000000000e+00 0.000000000000e+00 0.000000000000e+00 0.000000000000e+00 0.000000000000e+00 0.000000000000e+00 
3.735730117840e+01 -3.268340353040e+00 -2.004000000000e+03 0.000000000000e+00 0.000000000000e+00 9.750000000000e-01 2.500000000000e-02 0.000000000000e+00 0.000000000000e+00 0.000000000000e+00 0.000000000000e+00 0.000000000000e+00 0.000000000000e+00 
4.084398262180e+01 3.573385452650e+00 -2.000000000000e+03 0.000000000000e+00 0.000000000000e+00 9.750000000000e-01 2.500000000000e-02 0.000000000000e+00 0.000000000000e+00 0.000000000000e+00 0.000000000000e+00 0.000000000000e+00 0.000000000000e+00 
4.084398262180e+01 -3.573385452650e+00 -2.000000000000e+03 0.000000000000e+00 0.000000000000e+00 9.750000000000e-01 2.500000000000e-02 0.000000000000e+00 0.000000000000e+00 0.000000000000e+00 0.000000000000e+00 0.000000000000e+00 0.000000000000e+00 
4.084398262180e+01 3.573385452650e+00 -2.004000000000e+03 0.000000000000e+00 0.000000000000e+00 9.750000000000e-01 2.500000000000e-02 0.000000000000e+00 0.000000000000e+00 0.000000000000e+00 0.000000000000e+00 0.000000000000e+00 0.000000000000e+00 
4.084398262180e+01 -3.573385452650e+00 -2.004000000000e+03 0.000000000000e+00 0.000000000000e+00 9.750000000000e-01 2.500000000000e-02 0.000000000000e+00 0.000000000000e+00 0.000000000000e+00 0.000000000000e+00 0.000000000000e+00 0.000000000000e+00 
4.433066406510e+01 3.878430552270e+00 -2.000000000000e+03 0.000000000000e+00 0.000000000000e+00 9.750000000000e-01 2.500000000000e-02 0.000000000000e+00 0.000000000000e+00 0.000000000000e+00 0.000000000000e+00 0.000000000000e+00 0.000000000000e+00 
4.433066406510e+01 -3.878430552270e+00 -2.000000000000e+03 0.000000000000e+00 0.000000000000e+00 9.750000000000e-01 2.500000000000e-02 0.000000000000e+00 0.000000000000e+00 0.000000000000e+00 0.000000000000e+00 0.000000000000e+00 0.000000000000e+00 
4.433066406510e+01 3.878430552270e+00 -2.004000000000e+03 0.000000000000e+00 0.000000000000e+00 9.750000000000e-01 2.500000000000e-02 0.000000000000e+00 0.000000000000e+00 0.000000000000e+00 0.000000000000e+00 0.000000000000e+00 0.000000000000e+00 
4.433066406510e+01 -3.878430552270e+00 -2.004000000000e+03 0.000000000000e+00 0.000000000000e+00 9.750000000000e-01 2.500000000000e-02 0.000000000000e+00 0.000000000000e+00 0.000000000000e+00 0.000000000000e+00 0.000000000000e+00 0.000000000000e+00 
4.781734550840e+01 4.183475651890e+00 -2.000000000000e+03 0.000000000000e+00 0.000000000000e+00 9.750000000000e-01 2.500000000000e-02 0.000000000000e+00 0.000000000000e+00 0.000000000000e+00 0.000000000000e+00 0.000000000000e+00 0.000000000000e+00 
4.781734550840e+01 -4.183475651890e+00 -2.000000000000e+03 0.000000000000e+00 0.000000000000e+00 9.750000000000e-01 2.500000000000e-02 0.000000000000e+00 0.000000000000e+00 0.000000000000e+00 0.000000000000e+00 0.000000000000e+00 0.000000000000e+00 
4.781734550840e+01 4.183475651890e+00 -2.004000000000e+03 0.000000000000e+00 0.000000000000e+00 9.750000000000e-01 2.500000000000e-02 0.000000000000e+00 0.000000000000e+00 0.000000000000e+00 0.000000000000e+00 0.000000000000e+00 0.000000000000e+00 
4.781734550840e+01 -4.183475651890e+00 -2.004000000000e+03 0.000000000000e+00 0.000000000000e+00 9.750000000000e-01 2.500000000000e-02 0.000000000000e+00 0.000000000000e+00 0.000000000000e+00 0.000000000000e+00 0.000000000000e+00 0.000000000000e+00 
5.155307562620e+01 4.510309687190e+00 -2.000000000000e+03 0.000000000000e+00 0.000000000000e+00 9.750000000000e-01 2.500000000000e-02 0.000000000000e+00 0.000000000000e+00 0.000000000000e+00 0.000000000000e+00 0.000000000000e+00 0.000000000000e+00 
5.155307562620e+01 -4.510309687190e+00 -2.000000000000e+03 0.000000000000e+00 0.000000000000e+00 9.750000000000e-01 2.500000000000e-02 0.000000000000e+00 0.000000000000e+00 0.000000000000e+00 0.000000000000e+00 0.000000000000e+00 0.000000000000e+00 
5.155307562620e+01 4.510309687190e+00 -2.004000000000e+03 0.000000000000e+00 0.000000000000e+00 9.750000000000e-01 2.500000000000e-02 0.000000000000e+00 0.000000000000e+00 0.000000000000e+00 0.000000000000e+00 0.000000000000e+00 0.000000000000e+00 
5.155307562620e+01 -4.510309687190e+00 -2.004000000000e+03 0.000000000000e+00 0.000000000000e+00 9.750000000000e-01 2.500000000000e-02 0.000000000000e+00 0.000000000000e+00 0.000000000000e+00 0.000000000000e+00 0.000000000000e+00 0.000000000000e+00 
5.528880574410e+01 4.837143722500e+00 -2.000000000000e+03 0.000000000000e+00 0.000000000000e+00 9.750000000000e-01 2.500000000000e-02 0.000000000000e+00 0.000000000000e+00 0.000000000000e+00 0.000000000000e+00 0.000000000000e+00 0.000000000000e+00 
5.528880574410e+01 -4.837143722500e+00 -2.000000000000e+03 0.000000000000e+00 0.000000000000e+00 9.750000000000e-01 2.500000000000e-02 0.000000000000e+00 0.000000000000e+00 0.000000000000e+00 0.000000000000e+00 0.000000000000e+00 0.000000000000e+00 
5.528880574410e+01 4.837143722500e+00 -2.004000000000e+03 0.000000000000e+00 0.000000000000e+00 9.750000000000e-01 2.500000000000e-02 0.000000000000e+00 0.000000000000e+00 0.000000000000e+00 0.000000000000e+00 0.000000000000e+00 0.000000000000e+00 
5.528880574410e+01 -4.837143722500e+00 -2.004000000000e+03 0.000000000000e+00 0.000000000000e+00 9.750000000000e-01 2.500000000000e-02 0.000000000000e+00 0.000000000000e+00 0.000000000000e+00 0.000000000000e+00 0.000000000000e+00 0.000000000000e+00 
5.902453586190e+01 5.163977757800e+00 -2.000000000000e+03 0.000000000000e+00 0.000000000000e+00 9.750000000000e-01 2.500000000000e-02 0.000000000000e+00 0.000000000000e+00 0.000000000000e+00 0.000000000000e+00 0.000000000000e+00 0.000000000000e+00 
5.902453586190e+01 -5.163977757800e+00 -2.000000000000e+03 0.000000000000e+00 0.000000000000e+00 9.750000000000e-01 2.500000000000e-02 0.000000000000e+00 0.000000000000e+00 0.000000000000e+00 0.000000000000e+00 0.000000000000e+00 0.000000000000e+00 
5.902453586190e+01 5.163977757800e+00 -2.004000000000e+03 0.000000000000e+00 0.000000000000e+00 9.750000000000e-01 2.500000000000e-02 0.000000000000e+00 0.000000000000e+00 0.000000000000e+00 0.000000000000e+00 0.000000000000e+00 0.000000000000e+00 
5.902453586190e+01 -5.163977757800e+00 -2.004000000000e+03 0.000000000000e+00 0.000000000000e+00 9.750000000000e-01 2.500000000000e-02 0.000000000000e+00 0.000000000000e+00 0.000000000000e+00 0.000000000000e+00 0.000000000000e+00 0.000000000000e+00 
6.300931465430e+01 5.512600728790e+00 -2.000000000000e+03 0.000000000000e+00 0.000000000000e+00 9.750000000000e-01 2.500000000000e-02 0.000000000000e+00 0.000000000000e+00 0.000000000000e+00 0.000000000000e+00 0.000000000000e+00 0.000000000000e+00 
6.300931465430e+01 -5.512600728790e+00 -2.000000000000e+03 0.000000000000e+00 0.000000000000e+00 9.750000000000e-01 2.500000000000e-02 0.000000000000e+00 0.000000000000e+00 0.000000000000e+00 0.000000000000e+00 0.000000000000e+00 0.000000000000e+00 
6.300931465430e+01 5.512600728790e+00 -2.004000000000e+03 0.000000000000e+00 0.000000000000e+00 9.750000000000e-01 2.500000000000e-02 0.000000000000e+00 0.000000000000e+00 0.000000000000e+00 0.000000000000e+00 0.000000000000e+00 0.000000000000e+00 
6.300931465430e+01 -5.512600728790e+00 -2.004000000000e+03 0.000000000000e+00 0.000000000000e+00 9.750000000000e-01 2.500000000000e-02 0.000000000000e+00 0.000000000000e+00 0.000000000000e+00 0.000000000000e+00 0.000000000000e+00 0.000000000000e+00 
9.961946980920e-01 8.715574274770e-02 -2.008000000000e+03 0.000000000000e+00 0.000000000000e+00 9.750000000000e-01 2.500000000000e-02 0.000000000000e+00 0.000000000000e+00 0.000000000000e+00 0.000000000000e+00 0.000000000000e+00 0.000000000000e+00 
2.988584094280e+00 2.614672282430e-01 -2.008000000000e+03 0.000000000000e+00 0.000000000000e+00 9.750000000000e-01 2.500000000000e-02 0.000000000000e+00 0.000000000000e+00 0.000000000000e+00 0.000000000000e+00 0.000000000000e+00 0.000000000000e+00 
9.961946980920e-01 -8.715574274770e-02 -2.008000000000e+03 0.000000000000e+00 0.000000000000e+00 9.750000000000e-01 2.500000000000e-02 0.000000000000e+00 0.000000000000e+00 0.000000000000e+00 0.000000000000e+00 0.000000000000e+00 0.000000000000e+00 
2.988584094280e+00 -2.614672282430e-01 -2.008000000000e+03 0.000000000000e+00 0.000000000000e+00 9.750000000000e-01 2.500000000000e-02 0.000000000000e+00 0.000000000000e+00 0.000000000000e+00 0.000000000000e+00 0.000000000000e+00 0.000000000000e+00 
5.479070839500e+00 4.793565851120e-01 -2.008000000000e+03 0.000000000000e+00 0.000000000000e+00 9.750000000000e-01 2.500000000000e-02 0.000000000000e+00 0.000000000000e+00 0.000000000000e+00 0.000000000000e+00 0.000000000000e+00 0.000000000000e+00 
5.479070839500e+00 -4.793565851120e-01 -2.008000000000e+03 0.000000000000e+00 0.000000000000e+00 9.750000000000e-01 2.500000000000e-02 0.000000000000e+00 0.000000000000e+00 0.000000000000e+00 0.000000000000e+00 0.000000000000e+00 0.000000000000e+00 
7.969557584730e+00 6.972459419810e-01 -2.008000000000e+03 0.000000000000e+00 0.000000000000e+00 9.750000000000e-01 2.500000000000e-02 0.000000000000e+00 0.000000000000e+00 0.000000000000e+00 0.000000000000e+00 0.000000000000e+00 0.000000000000e+00 
7.969557584730e+00 -6.972459419810e-01 -2.008000000000e+03 0.000000000000e+00 0.000000000000e+00 9.750000000000e-01 2.500000000000e-02 0.000000000000e+00 0.000000000000e+00 0.000000000000e+00 0.000000000000e+00 0.000000000000e+00 0.000000000000e+00 
1.046004433000e+01 9.151352988500e-01 -2.008000000000e+03 0.000000000000e+00 0.000000000000e+00 9.750000000000e-01 2.500000000000e-02 0.000000000000e+00 0.000000000000e+00 0.000000000000e+00 0.000000000000e+00 0.000000000000e+00 0.000000000000e+00 
1.046004433000e+01 -9.151352988500e-01 -2.008000000000e+03 0.000000000000e+00 0.000000000000e+00 9.750000000000e-01 2.500000000000e-02 0.000000000000e+00 0.000000000000e+00 0.000000000000e+00 0.000000000000e+00 0.000000000000e+00 0.000000000000e+00 
1.319957974970e+01 1.154813591410e+00 -2.008000000000e+03 0.000000000000e+00 0.000000000000e+00 9.750000000000e-01 2.500000000000e-02 0.000000000000e+00 0.000000000000e+00 0.000000000000e+00 0.000000000000e+00 0.000000000000e+00 0.000000000000e+00 
1.319957974970e+01 -1.154813591410e+00 -2.008000000000e+03 0.000000000000e+00 0.000000000000e+00 9.750000000000e-01 2.500000000000e-02 0.000000000000e+00 0.000000000000e+00 0.000000000000e+00 0.000000000000e+00 0.000000000000e+00 0.000000000000e+00 
1.593911516950e+01 1.394491883960e+00 -2.008000000000e+03 0.000000000000e+00 0.000000000000e+00 9.750000000000e-01 2.500000000000e-02 0.000000000000e+00 0.000000000000e+00 0.000000000000e+00 0.000000000000e+00 0.000000000000e+00 0.000000000000e+00 
1.593911516950e+01 -1.394491883960e+00 -2.008000000000e+03 0.000000000000e+00 0.000000000000e+00 9.750000000000e-01 2.500000000000e-02 0.000000000000e+00 0.000000000000e+00 0.000000000000e+00 0.000000000000e+00 0.000000000000e+00 0.000000000000e+00 
1.867865058920e+01 1.634170176520e+00 -2.008000000000e+03 0.000000000000e+00 0.000000000000e+00 9.750000000000e-01 2.500000000000e-02 0.000000000000e+00 0.000000000000e+00 0.000000000000e+00 0.000000000000e+00 0.000000000000e+00 0.000000000000e+00 
1.867865058920e+01 -1.634170176520e+00 -2.008000000000e+03 0.000000000000e+00 0.000000000000e+00 9.750000000000e-01 2.500000000000e-02 0.000000000000e+00 0.000000000000e+00 0.000000000000e+00 0.000000000000e+00 0.000000000000e+00 0.000000000000e+00 
2.166723468350e+01 1.895637404760e+00 -2.008000000000e+03 0.000000000000e+00 0.000000000000e+00 9.750000000000e-01 2.500000000000e-02 0.000000000000e+00 0.000000000000e+00 0.000000000000e+00 0.000000000000e+00 0.000000000000e+00 0.000000000000e+00 
2.166723468350e+01 -1.895637404760e+00 -2.008000000000e+03 0.000000000000e+00 0.000000000000e+00 9.750000000000e-01 2.500000000000e-02 0.000000000000e+00 0.000000000000e+00 0.000000000000e+00 0.000000000000e+00 0.000000000000e+00 0.000000000000e+00 
2.465581877780e+01 2.157104633000e+00 -2.008000000000e+03 0.000000000000e+00 0.000000000000e+00 9.750000000000e-01 2.500000000000e-02 0.000000000000e+00 0.000000000000e+00 0.000000000000e+00 0.000000000000e+00 0.000000000000e+00 0.000000000000e+00 
2.465581877780e+01 -2.157104633000e+00 -2.008000000000e+03 0.000000000000e+00 0.000000000000e+00 9.750000000000e-01 2.500000000000e-02 0.000000000000e+00 0.000000000000e+00 0.000000000000e+00 0.000000000000e+00 0.000000000000e+00 0.000000000000e+00 
2.764440287200e+01 2.418571861250e+00 -2.008000000000e+03 0.000000000000e+00 0.000000000000e+00 9.750000000000e-01 2.500000000000e-02 0.000000000000e+00 0.000000000000e+00 0.000000000000e+00 0.000000000000e+00 0.000000000000e+00 0.000000000000e+00 
2.764440287200e+01 -2.418571861250e+00 -2.008000000000e+03 0.000000000000e+00 0.000000000000e+00 9.750000000000e-01 2.500000000000e-02 0.000000000000e+00 0.000000000000e+00 0.000000000000e+00 0.000000000000e+00 0.000000000000e+00 0.000000000000e+00 
3.088203564080e+01 2.701828025180e+00 -2.008000000000e+03 0.000000000000e+00 0.000000000000e+00 9.750000000000e-01 2.500000000000e-02 0.000000000000e+00 0.000000000000e+00 0.000000000000e+00 0.000000000000e+00 0.000000000000e+00 0.000000000000e+00 
3.088203564080e+01 -2.701828025180e+00 -2.008000000000e+03 0.000000000000e+00 0.000000000000e+00 9.750000000000e-01 2.500000000000e-02 0.000000000000e+00 0.000000000000e+00 0.000000000000e+00 0.000000000000e+00 0.000000000000e+00 0.000000000000e+00 
3.411966840960e+01 2.985084189110e+00 -2.008000000000e+03 0.000000000000e+00 0.000000000000e+00 9.750000000000e-01 2.500000000000e-02 0.000000000000e+00 0.000000000000e+00 0.000000000000e+00 0.000000000000e+00 0.000000000000e+00 0.000000000000e+00 
3.411966840960e+01 -2.985084189110e+00 -2.008000000000e+03 0.000000000000e+00 0.000000000000e+00 9.750000000000e-01 2.500000000000e-02 0.000000000000e+00 0.000000000000e+00 0.000000000000e+00 0.000000000000e+00 0.000000000000e+00 0.000000000000e+00 
3.735730117840e+01 3.268340353040e+00 -2.008000000000e+03 0.000000000000e+00 0.000000000000e+00 9.750000000000e-01 2.500000000000e-02 0.000000000000e+00 0.000000000000e+00 0.000000000000e+00 0.000000000000e+00 0.000000000000e+00 0.000000000000e+00 
3.735730117840e+01 -3.268340353040e+00 -2.008000000000e+03 0.000000000000e+00 0.000000000000e+00 9.750000000000e-01 2.500000000000e-02 0.000000000000e+00 0.000000000000e+00 0.000000000000e+00 0.000000000000e+00 0.000000000000e+00 0.000000000000e+00 
4.084398262180e+01 3.573385452650e+00 -2.008000000000e+03 0.000000000000e+00 0.000000000000e+00 9.750000000000e-01 2.500000000000e-02 0.000000000000e+00 0.000000000000e+00 0.000000000000e+00 0.000000000000e+00 0.000000000000e+00 0.000000000000e+00 
4.084398262180e+01 -3.573385452650e+00 -2.008000000000e+03 0.000000000000e+00 0.000000000000e+00 9.750000000000e-01 2.500000000000e-02 0.000000000000e+00 0.000000000000e+00 0.000000000000e+00 0.000000000000e+00 0.000000000000e+00 0.000000000000e+00 
4.433066406510e+01 3.878430552270e+00 -2.008000000000e+03 0.000000000000e+00 0.000000000000e+00 9.750000000000e-01 2.500000000000e-02 0.000000000000e+00 0.000000000000e+00 0.000000000000e+00 0.000000000000e+00 0.000000000000e+00 0.000000000000e+00 
4.433066406510e+01 -3.878430552270e+00 -2.008000000000e+03 0.000000000000e+00 0.000000000000e+00 9.750000000000e-01 2.500000000000e-02 0.000000000000e+00 0.000000000000e+00 0.000000000000e+00 0.000000000000e+00 0.000000000000e+00 0.000000000000e+00 
4.781734550840e+01 4.183475651890e+00 -2.008000000000e+03 0.000000000000e+00 0.000000000000e+00 9.750000000000e-01 2.500000000000e-02 0.000000000000e+00 0.000000000000e+00 0.000000000000e+00 0.000000000000e+00 0.000000000000e+00 0.000000000000e+00 
4.781734550840e+01 -4.183475651890e+00 -2.008000000000e+03 0.000000000000e+00 0.000000000000e+00 9.750000000000e-01 2.500000000000e-02 0.000000000000e+00 0.000000000000e+00 0.000000000000e+00 0.000000000000e+00 0.000000000000e+00 0.000000000000e+00 
5.155307562620e+01 4.510309687190e+00 -2.008000000000e+03 0.000000000000e+00 0.000000000000e+00 9.750000000000e-01 2.500000000000e-02 0.000000000000e+00 0.000000000000e+00 0.000000000000e+00 0.000000000000e+00 0.000000000000e+00 0.000000000000e+00 