 TITLE = "Time curves in points"
 VARIABLES = "TIME "  "PRESSURE1"  "PRESSURE2"  "PRESSURE_W"  "SATURATION1" SATURATION2  "VELOCITY_X1"  "VELOCITY_Y1"  "VELOCITY_X2"  "VELOCITY_Y2" 
 ZONE T="POINT=POINT0"
0.000000000000e+00 0.000000000000e+00 1.013250000000e+05 1.013250000000e+05 1.000000000000e+00 2.220446049250e-16 0.000000000000e+00 0.000000000000e+00 0.000000000000e+00 0.000000000000e+00 
1.000000000000e-03 0.000000000000e+00 1.013250000000e+05 1.013250000000e+05 1.000000000000e+00 6.661338147751e-15 -5.220877937972e-14 -2.616649014206e-04 -4.511772122846e-19 1.931099806232e-11 
2.000000000000e-03 0.000000000000e+00 1.013250000000e+05 1.013250000000e+05 1.000000000000e+00 3.774758283726e-14 -2.424675039947e-13 -2.585059571110e-04 -2.189560776641e-18 4.044717505860e-11 
3.000000000000e-03 0.000000000000e+00 1.013250000000e+05 1.013250000000e+05 9.999999999999e-01 1.089128787157e-13 -5.594291724263e-13 -2.553924703763e-04 -5.381401370785e-18 6.127896555288e-11 
4.000000000000e-03 0.000000000000e+00 1.013250000000e+05 1.013250000000e+05 9.999999999998e-01 2.354783035230e-13 -9.903386235231e-13 -2.523237493457e-04 -1.016670053039e-17 8.181100722487e-11 
5.000000000000e-03 0.000000000000e+00 1.013250000000e+05 1.013250000000e+05 9.999999999996e-01 4.324318680915e-13 -1.539366901850e-12 -2.492990793495e-04 -1.679611266288e-17 1.020480899718e-10 
6.000000000000e-03 0.000000000000e+00 1.013250000000e+05 1.013250000000e+05 9.999999999993e-01 7.137623825315e-13 -2.200519898902e-12 -2.463178281797e-04 -2.544340296546e-17 1.219944516922e-10 
7.000000000000e-03 0.000000000000e+00 1.013250000000e+05 1.013250000000e+05 9.999999999989e-01 1.093347634651e-12 -2.966967411330e-12 -2.433793151461e-04 -3.626401631730e-17 1.416546544183e-10 
8.000000000000e-03 0.000000000000e+00 1.013250000000e+05 1.013250000000e+05 9.999999999984e-01 1.583622122325e-12 -3.830031026138e-12 -2.404828319797e-04 -4.938521558827e-17 1.610334444562e-10 
9.000000000000e-03 0.000000000000e+00 1.013250000000e+05 1.013250000000e+05 9.999999999978e-01 2.196687276523e-12 -4.791536950477e-12 -2.376278765213e-04 -6.500607422465e-17 1.801341888617e-10 
1.000000000000e-02 0.000000000000e+00 1.013250000000e+05 1.013250000000e+05 9.999999999971e-01 2.944644528213e-12 -5.841178586658e-12 -2.348136114074e-04 -8.322611217751e-17 1.989624971370e-10 
2.000000000000e-02 0.000000000000e+00 1.013250000000e+05 1.013250000000e+05 9.999999999795e-01 2.053912595557e-11 -1.366778695877e-11 -2.259774600578e-04 -3.958262946785e-16 2.580764131290e-10 
3.000000000000e-02 0.000000000000e+00 1.013250000000e+05 1.013250000000e+05 9.999999999610e-01 3.895850309021e-11 -1.421762304224e-11 -2.175347928739e-04 -6.680431546861e-16 3.145560395186e-10 
4.000000000000e-02 0.000000000000e+00 1.013250000000e+05 1.013250000000e+05 9.999999999359e-01 6.413980457864e-11 -1.938280637491e-11 -2.094793056706e-04 -1.067302906880e-15 3.684432131364e-10 
5.000000000000e-02 0.000000000000e+00 1.013250000000e+05 1.013250000000e+05 9.999999999033e-01 9.673661871545e-11 -2.502343220884e-11 -2.017837160456e-04 -1.574143791266e-15 4.199205976725e-10 
6.000000000000e-02 0.000000000000e+00 1.013250000000e+05 1.013250000000e+05 9.999999998627e-01 1.372781888165e-10 -3.103827020347e-11 -1.944306480682e-04 -2.194165775276e-15 4.691045717451e-10 
7.000000000000e-02 0.000000000000e+00 1.013250000000e+05 1.013250000000e+05 9.999999998154e-01 1.846043318210e-10 -3.611346018014e-11 -1.898211896269e-04 -2.899864996410e-15 4.999340330627e-10 
8.000000000000e-02 0.000000000000e+00 1.013250000000e+05 1.013250000000e+05 9.999999997642e-01 2.357860573454e-10 -3.888138672073e-11 -1.853590815204e-04 -3.637266982496e-15 5.297769734688e-10 
9.000000000000e-02 0.000000000000e+00 1.013250000000e+05 1.013250000000e+05 9.999999997075e-01 2.924620545741e-10 -4.290929561191e-11 -1.810289741167e-04 -4.453832962839e-15 5.587359557149e-10 
1.000000000000e-01 0.000000000000e+00 1.013250000000e+05 1.013250000000e+05 9.999999996463e-01 3.536945181182e-10 -4.618425394908e-11 -1.775168947910e-04 -5.321293963203e-15 5.822223125650e-10 
2.000000000000e-01 0.000000000000e+00 1.013250000000e+05 1.013250000000e+05 9.999999987312e-01 1.268811278266e-09 -6.617466848623e-11 -1.549361923075e-04 -1.684717579545e-14 7.331689349643e-10 
3.000000000000e-01 0.000000000000e+00 1.013250000000e+05 1.013250000000e+05 9.999999975781e-01 2.421927991492e-09 -8.074223461927e-11 -1.385896426968e-04 -3.013176104911e-14 8.423865636900e-10 
4.000000000000e-01 0.000000000000e+00 1.013250000000e+05 1.013250000000e+05 9.999999962382e-01 3.761784772571e-09 -9.122903546459e-11 -1.258888982189e-04 -4.437088980880e-14 9.271976071488e-10 
5.000000000000e-01 0.000000000000e+00 1.013250000000e+05 1.013250000000e+05 9.999999947515e-01 5.248453449624e-09 -9.870037846024e-11 -1.155951186555e-04 -5.900912804370e-14 9.958939482622e-10 
6.000000000000e-01 0.000000000000e+00 1.013250000000e+05 1.013250000000e+05 9.999999931619e-01 6.838115629293e-09 -1.030166483854e-10 -1.075181870577e-04 -7.349917436320e-14 1.049752943688e-09 
7.000000000000e-01 0.000000000000e+00 1.013250000000e+05 1.013250000000e+05 9.999999914928e-01 8.507226589849e-09 -1.058030438849e-10 -1.006676727493e-04 -8.762990211147e-14 1.095401313984e-09 
8.000000000000e-01 0.000000000000e+00 1.013250000000e+05 1.013250000000e+05 9.999999897627e-01 1.023726559080e-08 -1.074760313567e-10 -9.476307709994e-05 -1.012672795156e-13 1.134717154673e-09 
9.000000000000e-01 0.000000000000e+00 1.013250000000e+05 1.013250000000e+05 9.999999879866e-01 1.201337751500e-08 -1.083138732335e-10 -8.961538862369e-05 -1.143321439077e-13 1.168966210663e-09 
1.000000000000e+00 0.000000000000e+00 1.013250000000e+05 1.013250000000e+05 9.999999861764e-01 1.382363179481e-08 -1.085382100929e-10 -8.508378513137e-05 -1.267844608164e-13 1.199091573581e-09 
2.000000000000e+00 0.000000000000e+00 1.013250000000e+05 1.013250000000e+05 9.999999684373e-01 3.156265759863e-08 -9.682415836803e-11 -6.353851470148e-05 -2.052500782466e-13 1.341416708617e-09 
3.000000000000e+00 0.000000000000e+00 1.013250000000e+05 1.013250000000e+05 9.999999516311e-01 4.836889655468e-08 -8.708596022379e-11 -5.061806356445e-05 -2.581474743480e-13 1.426154883017e-09 
4.000000000000e+00 0.000000000000e+00 1.013250000000e+05 1.013250000000e+05 9.999999359050e-01 6.409500030724e-08 -7.878513264481e-11 -4.244261639521e-05 -2.954582739652e-13 1.479269583848e-09 
5.000000000000e+00 0.000000000000e+00 1.013250000000e+05 1.013250000000e+05 9.999999212443e-01 7.875574814520e-08 -7.163889620025e-11 -3.702460093601e-05 -3.225897703631e-13 1.514051091741e-09 
6.000000000000e+00 0.000000000000e+00 1.013250000000e+05 1.013250000000e+05 9.999999075581e-01 9.244187482160e-08 -6.556171126127e-11 -3.323389819421e-05 -3.428533056674e-13 1.538047480030e-09 
7.000000000000e+00 0.000000000000e+00 1.013250000000e+05 1.013250000000e+05 9.999998947346e-01 1.052654123868e-07 -6.040839577211e-11 -3.048871950163e-05 -3.583575770029e-13 1.555137999347e-09 
8.000000000000e+00 0.000000000000e+00 1.013250000000e+05 1.013250000000e+05 9.999998826571e-01 1.173428555434e-07 -5.607298244038e-11 -2.841037914261e-05 -3.705193417862e-13 1.567843273426e-09 
9.000000000000e+00 0.000000000000e+00 1.013250000000e+05 1.013250000000e+05 9.999998712266e-01 1.287734339162e-07 -5.237193895540e-11 -2.680647329076e-05 -3.802167218995e-13 1.577440044107e-09 
1.000000000000e+01 0.000000000000e+00 1.013250000000e+05 1.013250000000e+05 9.999998603522e-01 1.396477635751e-07 -4.921190237910e-11 -2.553479692471e-05 -3.880550070708e-13 1.584870215582e-09 
1.100000000000e+01 0.000000000000e+00 1.013250000000e+05 1.013250000000e+05 9.999998499451e-01 1.500549486888e-07 -4.657069098034e-11 -2.448261685609e-05 -3.944946510039e-13 1.590878785494e-09 
1.200000000000e+01 0.000000000000e+00 1.013250000000e+05 1.013250000000e+05 9.999998399240e-01 1.600760455300e-07 -4.437857881208e-11 -2.358675482360e-05 -3.998310311611e-13 1.595880194577e-09 
1.300000000000e+01 0.000000000000e+00 1.013250000000e+05 1.013250000000e+05 9.999998302142e-01 1.697857936467e-07 -4.258510783226e-11 -2.281351079051e-05 -4.042476782005e-13 1.600092404329e-09 
1.400000000000e+01 0.000000000000e+00 1.013250000000e+05 1.013250000000e+05 9.999998207425e-01 1.792575073933e-07 -4.117376355537e-11 -2.213322675052e-05 -4.078727936981e-13 1.603706506147e-09 
1.500000000000e+01 0.000000000000e+00 1.013250000000e+05 1.013250000000e+05 9.999998114364e-01 1.885635907417e-07 -4.013382129725e-11 -2.152489494915e-05 -4.107875672360e-13 1.606855816114e-09 
1.600000000000e+01 0.000000000000e+00 1.013250000000e+05 1.013250000000e+05 9.999998022227e-01 1.977773329553e-07 -3.945687921060e-11 -2.097470979372e-05 -4.130472402674e-13 1.609625405389e-09 
1.700000000000e+01 0.000000000000e+00 1.013250000000e+05 1.013250000000e+05 9.999997930271e-01 2.069729215792e-07 -3.915325327608e-11 -2.047140806000e-05 -4.146861642347e-13 1.612083257713e-09 
1.800000000000e+01 0.000000000000e+00 1.013250000000e+05 1.013250000000e+05 9.999997837745e-01 2.162254794102e-07 -3.921634585182e-11 -2.000747334890e-05 -4.157258698624e-13 1.614272215204e-09 
1.900000000000e+01 0.000000000000e+00 1.013250000000e+05 1.013250000000e+05 9.999997743895e-01 2.256104643106e-07 -3.964444070390e-11 -1.957828257827e-05 -4.161790593703e-13 1.616215784955e-09 
2.000000000000e+01 0.000000000000e+00 1.013250000000e+05 1.013250000000e+05 9.999997647960e-01 2.352039978337e-07 -4.044551526146e-11 -1.917756992596e-05 -4.160609221164e-13 1.617948332578e-09 
2.100000000000e+01 0.000000000000e+00 1.013250000000e+05 1.013250000000e+05 9.999997549186e-01 2.450814109434e-07 -4.160551932564e-11 -1.880206345849e-05 -4.153850059356e-13 1.619484295478e-09 
2.200000000000e+01 0.000000000000e+00 1.013250000000e+05 1.013250000000e+05 9.999997446838e-01 2.553161835284e-07 -4.311829530018e-11 -1.844993695242e-05 -4.141646981876e-13 1.620828633879e-09 
2.300000000000e+01 0.000000000000e+00 1.013250000000e+05 1.013250000000e+05 9.999997340200e-01 2.659799915872e-07 -4.497648802283e-11 -1.811681599829e-05 -4.124218871363e-13 1.622003525092e-09 
2.400000000000e+01 0.000000000000e+00 1.013250000000e+05 1.013250000000e+05 9.999997228592e-01 2.771408422753e-07 -4.715627818917e-11 -1.780202464095e-05 -4.101783100029e-13 1.623006835115e-09 
2.500000000000e+01 0.000000000000e+00 1.013250000000e+05 1.013250000000e+05 9.999997111374e-01 2.888626162711e-07 -4.964013291585e-11 -1.750309343294e-05 -4.074595578837e-13 1.623848746157e-09 
2.600000000000e+01 0.000000000000e+00 1.013250000000e+05 1.013250000000e+05 9.999996987953e-01 3.012046621009e-07 -5.240540217052e-11 -1.721854500950e-05 -4.042969267858e-13 1.624533274932e-09 
2.700000000000e+01 0.000000000000e+00 1.013250000000e+05 1.013250000000e+05 9.999996857792e-01 3.142208191420e-07 -5.542278174301e-11 -1.694724958911e-05 -4.007230800730e-13 1.625062665367e-09 
2.800000000000e+01 0.000000000000e+00 1.013250000000e+05 1.013250000000e+05 9.999996720409e-01 3.279590856664e-07 -5.866835802982e-11 -1.668805142423e-05 -3.967731016526e-13 1.625439914356e-09 
2.900000000000e+01 0.000000000000e+00 1.013250000000e+05 1.013250000000e+05 9.999996575387e-01 3.424613468361e-07 -6.210676671216e-11 -1.643997763402e-05 -3.924840877859e-13 1.625667400605e-09 
3.000000000000e+01 0.000000000000e+00 1.013250000000e+05 1.013250000000e+05 9.999996422369e-01 3.577631424445e-07 -6.570969998128e-11 -1.620232410046e-05 -3.878939014274e-13 1.625746332536e-09 
3.100000000000e+01 0.000000000000e+00 1.013250000000e+05 1.013250000000e+05 9.999996261065e-01 3.738935340225e-07 -6.944638261110e-11 -1.597478146788e-05 -3.830397407438e-13 1.625676031350e-09 
3.200000000000e+01 0.000000000000e+00 1.013250000000e+05 1.013250000000e+05 9.999996091243e-01 3.908756713855e-07 -7.328495182886e-11 -1.575579171612e-05 -3.779610157679e-13 1.625464510542e-09 
3.300000000000e+01 0.000000000000e+00 1.013250000000e+05 1.013250000000e+05 9.999995912737e-01 4.087262561736e-07 -7.719359515851e-11 -1.554603172420e-05 -3.726926524332e-13 1.625105607709e-09 
3.400000000000e+01 0.000000000000e+00 1.013250000000e+05 1.013250000000e+05 9.999995725433e-01 4.274566665075e-07 -8.115079414161e-11 -1.534363750895e-05 -3.672718922606e-13 1.624610670556e-09 
3.500000000000e+01 0.000000000000e+00 1.013250000000e+05 1.013250000000e+05 9.999995529273e-01 4.470726708838e-07 -8.512975287612e-11 -1.514850917569e-05 -3.617324422463e-13 1.623979804977e-09 
3.600000000000e+01 0.000000000000e+00 1.013250000000e+05 1.013250000000e+05 9.999995324251e-01 4.675749265548e-07 -8.910078685785e-11 -1.496033646606e-05 -3.561059345059e-13 1.623215026388e-09 
3.700000000000e+01 0.000000000000e+00 1.013250000000e+05 1.013250000000e+05 9.999995110407e-01 4.889592738477e-07 -9.304158555969e-11 -1.477904898209e-05 -3.504213358662e-13 1.622317310779e-09 
3.800000000000e+01 0.000000000000e+00 1.013250000000e+05 1.013250000000e+05 9.999994887826e-01 5.112174052968e-07 -9.693846028389e-11 -1.460387399791e-05 -3.447070011824e-13 1.621292550915e-09 
3.900000000000e+01 0.000000000000e+00 1.013250000000e+05 1.013250000000e+05 9.999994656630e-01 5.343369728905e-07 -1.007644108505e-10 -1.443473540014e-05 -3.389881236604e-13 1.620142478303e-09 
4.000000000000e+01 0.000000000000e+00 1.013250000000e+05 1.013250000000e+05 9.999994416979e-01 5.583020927791e-07 -1.045065846706e-10 -1.427115425650e-05 -3.332885208998e-13 1.618871865860e-09 
4.100000000000e+01 0.000000000000e+00 1.013250000000e+05 1.013250000000e+05 9.999994169064e-01 5.830936065099e-07 -1.081477632461e-10 -1.411292563836e-05 -3.276298419665e-13 1.617483977127e-09 
4.200000000000e+01 0.000000000000e+00 1.013250000000e+05 1.013250000000e+05 9.999993913106e-01 6.086894108748e-07 -1.116746979590e-10 -1.395981618516e-05 -3.220319565807e-13 1.615982555489e-09 
4.300000000000e+01 0.000000000000e+00 1.013250000000e+05 1.013250000000e+05 9.999993649352e-01 6.350647920872e-07 -1.150770256635e-10 -1.381159656652e-05 -3.165128997338e-13 1.614371574521e-09 
4.400000000000e+01 0.000000000000e+00 1.013250000000e+05 1.013250000000e+05 9.999993378072e-01 6.621927702843e-07 -1.183399890170e-10 -1.366827900842e-05 -3.110886135227e-13 1.612653687931e-09 
4.500000000000e+01 0.000000000000e+00 1.013250000000e+05 1.013250000000e+05 9.999993099554e-01 6.900445882474e-07 -1.214586752098e-10 -1.352883685001e-05 -3.057738162018e-13 1.610838518470e-09 
4.600000000000e+01 0.000000000000e+00 1.013250000000e+05 1.013250000000e+05 9.999992814102e-01 7.185897910045e-07 -1.244256694451e-10 -1.339371501598e-05 -3.005806201305e-13 1.608926098863e-09 
4.700000000000e+01 0.000000000000e+00 1.013250000000e+05 1.013250000000e+05 9.999992522031e-01 7.477968513303e-07 -1.272333054757e-10 -1.326188361770e-05 -2.955209165493e-13 1.606926426518e-09 
4.800000000000e+01 0.000000000000e+00 1.013250000000e+05 1.013250000000e+05 9.999992223670e-01 7.776330277487e-07 -1.298811181458e-10 -1.313348966903e-05 -2.906038392210e-13 1.604841749566e-09 
4.900000000000e+01 0.000000000000e+00 1.013250000000e+05 1.013250000000e+05 9.999991919353e-01 8.080647401210e-07 -1.323639086352e-10 -1.300830961443e-05 -2.858372122668e-13 1.602676875726e-09 
5.000000000000e+01 0.000000000000e+00 1.013250000000e+05 1.013250000000e+05 9.999991609422e-01 8.390577953543e-07 -1.346777071220e-10 -1.288622660757e-05 -2.812276089384e-13 1.600435959413e-09 
5.100000000000e+01 0.000000000000e+00 1.013250000000e+05 1.013250000000e+05 9.999991294224e-01 8.705776410878e-07 -1.368194804640e-10 -1.276712204001e-05 -2.767800018477e-13 1.598123201792e-09 
5.200000000000e+01 0.000000000000e+00 1.013250000000e+05 1.013250000000e+05 9.999990974104e-01 9.025895965076e-07 -1.387920230248e-10 -1.265116303096e-05 -2.724974332968e-13 1.595740932175e-09 
5.300000000000e+01 0.000000000000e+00 1.013250000000e+05 1.013250000000e+05 9.999990649408e-01 9.350592262702e-07 -1.405985786474e-10 -1.253771645234e-05 -2.683815072365e-13 1.593296755417e-09 
5.400000000000e+01 0.000000000000e+00 1.013250000000e+05 1.013250000000e+05 9.999990320475e-01 9.679525165840e-07 -1.422354886989e-10 -1.242688540421e-05 -2.644334359972e-13 1.590793335722e-09 
5.500000000000e+01 0.000000000000e+00 1.013250000000e+05 1.013250000000e+05 9.999989987641e-01 1.001235881648e-06 -1.437122991499e-10 -1.231849068778e-05 -2.606529449194e-13 1.588235182415e-09 
5.600000000000e+01 0.000000000000e+00 1.013250000000e+05 1.013250000000e+05 9.999989651238e-01 1.034876243478e-06 -1.450277653502e-10 -1.221248900805e-05 -2.570393743006e-13 1.585625846309e-09 
5.700000000000e+01 0.000000000000e+00 1.013250000000e+05 1.013250000000e+05 9.999989311589e-01 1.068841052332e-06 -1.461869479175e-10 -1.210879186290e-05 -2.535918008302e-13 1.582969128429e-09 
5.800000000000e+01 0.000000000000e+00 1.013250000000e+05 1.013250000000e+05 9.999988969017e-01 1.103098342448e-06 -1.471913933677e-10 -1.200737203267e-05 -2.503092490076e-13 1.580268362592e-09 
5.900000000000e+01 0.000000000000e+00 1.013250000000e+05 1.013250000000e+05 9.999988623832e-01 1.137616846725e-06 -1.480454079488e-10 -1.190812139882e-05 -2.471897631283e-13 1.577527354515e-09 
6.000000000000e+01 0.000000000000e+00 1.013250000000e+05 1.013250000000e+05 9.999988276339e-01 1.172366123292e-06 -1.487536750921e-10 -1.181100301758e-05 -2.442299739763e-13 1.574749352442e-09 
6.100000000000e+01 0.000000000000e+00 1.013250000000e+05 1.013250000000e+05 9.999987926832e-01 1.207316791207e-06 -1.493203847445e-10 -1.171660088546e-05 -2.414256827654e-13 1.571933360757e-09 
6.200000000000e+01 0.000000000000e+00 1.013250000000e+05 1.013250000000e+05 9.999987575591e-01 1.242440893057e-06 -1.497553311800e-10 -1.162369413102e-05 -2.387725170322e-13 1.569090288712e-09 
6.300000000000e+01 0.000000000000e+00 1.013250000000e+05 1.013250000000e+05 9.999987222884e-01 1.277711599523e-06 -1.500633298372e-10 -1.153264783520e-05 -2.362650755699e-13 1.566220339794e-09 
6.400000000000e+01 0.000000000000e+00 1.013250000000e+05 1.013250000000e+05 9.999986868968e-01 1.313103249023e-06 -1.502463704152e-10 -1.144340731278e-05 -2.338983548617e-13 1.563326408888e-09 
6.500000000000e+01 0.000000000000e+00 1.013250000000e+05 1.013250000000e+05 9.999986514088e-01 1.348591199157e-06 -1.503155641803e-10 -1.135591493201e-05 -2.316676403644e-13 1.560411310214e-09 
6.600000000000e+01 0.000000000000e+00 1.013250000000e+05 1.013250000000e+05 9.999986158483e-01 1.384151688377e-06 -1.502726902319e-10 -1.127011706431e-05 -2.295693404040e-13 1.557477744681e-09 
6.700000000000e+01 0.000000000000e+00 1.013250000000e+05 1.013250000000e+05 9.999985802382e-01 1.419761811228e-06 -1.501238495686e-10 -1.118597016522e-05 -2.275998868156e-13 1.554528261350e-09 
6.800000000000e+01 0.000000000000e+00 1.013250000000e+05 1.013250000000e+05 9.999985446005e-01 1.455399526895e-06 -1.498729775213e-10 -1.110344054275e-05 -2.257556818093e-13 1.551565258310e-09 
6.900000000000e+01 0.000000000000e+00 1.013250000000e+05 1.013250000000e+05 9.999985089562e-01 1.491043803648e-06 -1.495229564469e-10 -1.102244087237e-05 -2.240325469342e-13 1.548591392597e-09 
7.000000000000e+01 0.000000000000e+00 1.013250000000e+05 1.013250000000e+05 9.999984733253e-01 1.526674741625e-06 -1.490838006190e-10 -1.094317445516e-05 -2.224246442888e-13 1.545607268180e-09 
7.100000000000e+01 0.000000000000e+00 1.013250000000e+05 1.013250000000e+05 9.999984377263e-01 1.562273686417e-06 -1.485523197288e-10 -1.086522883198e-05 -2.209262545071e-13 1.542617481063e-09 
7.200000000000e+01 0.000000000000e+00 1.013250000000e+05 1.013250000000e+05 9.999984021769e-01 1.597823109156e-06 -1.479451539060e-10 -1.078868026474e-05 -2.195324716062e-13 1.539623248997e-09 
7.300000000000e+01 0.000000000000e+00 1.013250000000e+05 1.013250000000e+05 9.999983666937e-01 1.633306288218e-06 -1.472603952614e-10 -1.071354996184e-05 -2.182389574174e-13 1.536626078321e-09 
7.400000000000e+01 0.000000000000e+00 1.013250000000e+05 1.013250000000e+05 9.999983312928e-01 1.668707150015e-06 -1.465020105427e-10 -1.063980501206e-05 -2.170426700433e-13 1.533627773516e-09 
7.500000000000e+01 0.000000000000e+00 1.013250000000e+05 1.013250000000e+05 9.999982959899e-01 1.704010086478e-06 -1.456743279629e-10 -1.056739861827e-05 -2.159417236760e-13 1.530630186180e-09 
7.600000000000e+01 0.000000000000e+00 1.013250000000e+05 1.013250000000e+05 9.999982608000e-01 1.739199956274e-06 -1.447778033139e-10 -1.049632729184e-05 -2.149344267767e-13 1.527634832473e-09 
7.700000000000e+01 0.000000000000e+00 1.013250000000e+05 1.013250000000e+05 9.999982257378e-01 1.774262215259e-06 -1.438173431535e-10 -1.042648337097e-05 -2.140181630897e-13 1.524643865907e-09 
7.800000000000e+01 0.000000000000e+00 1.013250000000e+05 1.013250000000e+05 9.999981908170e-01 1.809183015733e-06 -1.427941639242e-10 -1.035819000051e-05 -2.131890043204e-13 1.521656493068e-09 
7.900000000000e+01 0.000000000000e+00 1.013250000000e+05 1.013250000000e+05 9.999981560502e-01 1.843949820612e-06 -1.417146934858e-10 -1.029088305212e-05 -2.124421605152e-13 1.518677720533e-09 
8.000000000000e+01 0.000000000000e+00 1.013250000000e+05 1.013250000000e+05 9.999981214488e-01 1.878551237233e-06 -1.405854477043e-10 -1.022493912009e-05 -2.117702771783e-13 1.515706153080e-09 
8.100000000000e+01 0.000000000000e+00 1.013250000000e+05 1.013250000000e+05 9.999980870227e-01 1.912977262153e-06 -1.394141337128e-10 -1.015998069064e-05 -2.111668629848e-13 1.512745299880e-09 
8.200000000000e+01 0.000000000000e+00 1.013250000000e+05 1.013250000000e+05 9.999980527811e-01 1.947218850162e-06 -1.382018296423e-10 -1.009613445219e-05 -2.106263916707e-13 1.509795204942e-09 
8.300000000000e+01 0.000000000000e+00 1.013250000000e+05 1.013250000000e+05 9.999980187325e-01 1.981267486961e-06 -1.369564249257e-10 -1.003335832201e-05 -2.101459003995e-13 1.506856988704e-09 
8.400000000000e+01 0.000000000000e+00 1.013250000000e+05 1.013250000000e+05 9.999979848851e-01 2.015114881737e-06 -1.356765019940e-10 -9.971657749268e-06 -2.097239965182e-13 1.503931432001e-09 
8.500000000000e+01 0.000000000000e+00 1.013250000000e+05 1.013250000000e+05 9.999979512472e-01 2.048752779760e-06 -1.343588013670e-10 -9.910980677380e-06 -2.093611545140e-13 1.501019696963e-09 
8.600000000000e+01 0.000000000000e+00 1.013250000000e+05 1.013250000000e+05 9.999979178270e-01 2.082173004236e-06 -1.330106309822e-10 -9.851202502396e-06 -2.090578605435e-13 1.498123423007e-09 
8.700000000000e+01 0.000000000000e+00 1.013250000000e+05 1.013250000000e+05 9.999978846324e-01 2.115367636613e-06 -1.316290299614e-10 -9.792322816366e-06 -2.088128377112e-13 1.495243393565e-09 
8.800000000000e+01 0.000000000000e+00 1.013250000000e+05 1.013250000000e+05 9.999978516707e-01 2.148329343310e-06 -1.302184050714e-10 -9.734356746859e-06 -2.086233340356e-13 1.492380230282e-09 
8.900000000000e+01 0.000000000000e+00 1.013250000000e+05 1.013250000000e+05 9.999978189482e-01 2.181051784733e-06 -1.287823395603e-10 -9.677273490258e-06 -2.084840243618e-13 1.489534763498e-09 
9.000000000000e+01 0.000000000000e+00 1.013250000000e+05 1.013250000000e+05 9.999977864703e-01 2.213529732842e-06 -1.273244983966e-10 -9.621248231186e-06 -2.083889859570e-13 1.486706336909e-09 
9.100000000000e+01 0.000000000000e+00 1.013250000000e+05 1.013250000000e+05 9.999977542410e-01 2.245758977226e-06 -1.258518091806e-10 -9.565970904093e-06 -2.083324027075e-13 1.483897437919e-09 
9.200000000000e+01 0.000000000000e+00 1.013250000000e+05 1.013250000000e+05 9.999977222642e-01 2.277735836387e-06 -1.243688232563e-10 -9.511497755039e-06 -2.083109798670e-13 1.481108053192e-09 
9.300000000000e+01 0.000000000000e+00 1.013250000000e+05 1.013250000000e+05 9.999976905434e-01 2.309456587635e-06 -1.228703323565e-10 -9.457850395518e-06 -2.083251304337e-13 1.478338405498e-09 
9.400000000000e+01 0.000000000000e+00 1.013250000000e+05 1.013250000000e+05 9.999976590829e-01 2.340917128030e-06 -1.213596682663e-10 -9.404989749195e-06 -2.083765125954e-13 1.475589161060e-09 
9.500000000000e+01 0.000000000000e+00 1.013250000000e+05 1.013250000000e+05 9.999976278871e-01 2.372112920646e-06 -1.198335652121e-10 -9.352926126559e-06 -2.084681383325e-13 1.472860698861e-09 
9.600000000000e+01 0.000000000000e+00 1.013250000000e+05 1.013250000000e+05 9.999975969608e-01 2.403039192411e-06 -1.182899392608e-10 -9.301606667666e-06 -2.086014899537e-13 1.470153843323e-09 
9.700000000000e+01 0.000000000000e+00 1.013250000000e+05 1.013250000000e+05 9.999975663087e-01 2.433691274728e-06 -1.167257320914e-10 -9.251315344250e-06 -2.087757305636e-13 1.467467167899e-09 
9.800000000000e+01 0.000000000000e+00 1.013250000000e+05 1.013250000000e+05 9.999975359346e-01 2.464065361862e-06 -1.151515991208e-10 -9.201587981587e-06 -2.089878506665e-13 1.464804138432e-09 
9.900000000000e+01 0.000000000000e+00 1.013250000000e+05 1.013250000000e+05 9.999975058413e-01 2.494158740207e-06 -1.135681155525e-10 -9.152530793486e-06 -2.092316089092e-13 1.462164311758e-09 
1.000000000000e+02 0.000000000000e+00 1.013250000000e+05 1.013250000000e+05 9.999974760298e-01 2.523970219492e-06 -1.119836485553e-10 -9.104181173695e-06 -2.094983612991e-13 1.459547554204e-09 
1.010000000000e+02 0.000000000000e+00 1.013250000000e+05 1.013250000000e+05 9.999974464995e-01 2.553500456637e-06 -1.104069864819e-10 -9.056479629498e-06 -2.097775897299e-13 1.456954197346e-09 
1.020000000000e+02 0.000000000000e+00 1.013250000000e+05 1.013250000000e+05 9.999974172483e-01 2.582751664759e-06 -1.088442145387e-10 -9.009600597635e-06 -2.100592910783e-13 1.454382855441e-09 
1.030000000000e+02 0.000000000000e+00 1.013250000000e+05 1.013250000000e+05 9.999973882730e-01 2.611727042190e-06 -1.073005064052e-10 -8.963240363769e-06 -2.103381097133e-13 1.451835242977e-09 
1.040000000000e+02 0.000000000000e+00 1.013250000000e+05 1.013250000000e+05 9.999973595703e-01 2.640429691780e-06 -1.057771413489e-10 -8.917470526932e-06 -2.106131472701e-13 1.449310575257e-09 
1.050000000000e+02 0.000000000000e+00 1.013250000000e+05 1.013250000000e+05 9.999973311383e-01 2.668861733168e-06 -1.042706869989e-10 -8.872292752572e-06 -2.108893564957e-13 1.446808632993e-09 
1.060000000000e+02 0.000000000000e+00 1.013250000000e+05 1.013250000000e+05 9.999973029761e-01 2.697023949283e-06 -1.027724901509e-10 -8.827721375784e-06 -2.111741747677e-13 1.444329244363e-09 
1.070000000000e+02 0.000000000000e+00 1.013250000000e+05 1.013250000000e+05 9.999972750841e-01 2.724915850072e-06 -1.012781471937e-10 -8.783734391178e-06 -2.114747518238e-13 1.441872605927e-09 
1.080000000000e+02 0.000000000000e+00 1.013250000000e+05 1.013250000000e+05 9.999972474638e-01 2.752536167883e-06 -9.978306278343e-11 -8.740308118792e-06 -2.117959213903e-13 1.439439001868e-09 
1.090000000000e+02 0.000000000000e+00 1.013250000000e+05 1.013250000000e+05 9.999972201165e-01 2.779883472970e-06 -9.828605507864e-11 -8.697423648263e-06 -2.121393442531e-13 1.437028699945e-09 
1.100000000000e+02 0.000000000000e+00 1.013250000000e+05 1.013250000000e+05 9.999971930431e-01 2.806956909684e-06 -9.678940288662e-11 -8.655094901430e-06 -2.125027720056e-13 1.434641691219e-09 
1.110000000000e+02 0.000000000000e+00 1.013250000000e+05 1.013250000000e+05 9.999971662432e-01 2.833756782561e-06 -9.529663914487e-11 -8.613302282479e-06 -2.128792809559e-13 1.432278075744e-09 
1.120000000000e+02 0.000000000000e+00 1.013250000000e+05 1.013250000000e+05 9.999971397150e-01 2.860284971762e-06 -9.381832181026e-11 -8.572047412893e-06 -2.132602223093e-13 1.429937656083e-09 
1.130000000000e+02 0.000000000000e+00 1.013250000000e+05 1.013250000000e+05 9.999971134548e-01 2.886545182434e-06 -9.235954283557e-11 -8.531295248329e-06 -2.136349841590e-13 1.427620299664e-09 
1.140000000000e+02 0.000000000000e+00 1.013250000000e+05 1.013250000000e+05 9.999970874575e-01 2.912542453215e-06 -9.092823246833e-11 -8.491205488210e-06 -2.139948213642e-13 1.425324440665e-09 
1.150000000000e+02 0.000000000000e+00 1.013250000000e+05 1.013250000000e+05 9.999970617179e-01 2.938282130049e-06 -8.952673551331e-11 -8.451504734980e-06 -2.143370353110e-13 1.423051379453e-09 
1.160000000000e+02 0.000000000000e+00 1.013250000000e+05 1.013250000000e+05 9.999970362316e-01 2.963768429343e-06 -8.815079294316e-11 -8.412282935102e-06 -2.146668625982e-13 1.420800099692e-09 
1.170000000000e+02 0.000000000000e+00 1.013250000000e+05 1.013250000000e+05 9.999970109964e-01 2.989003621612e-06 -8.679048171346e-11 -8.373546754464e-06 -2.149949686982e-13 1.418570334561e-09 
1.180000000000e+02 0.000000000000e+00 1.013250000000e+05 1.013250000000e+05 9.999969860121e-01 3.013987895484e-06 -8.543466237111e-11 -8.335534762810e-06 -2.153319506268e-13 1.416360482875e-09 
1.190000000000e+02 0.000000000000e+00 1.013250000000e+05 1.013250000000e+05 9.999969612800e-01 3.038720023274e-06 -8.407959452285e-11 -8.297801988494e-06 -2.156883095581e-13 1.414173630888e-09 
1.200000000000e+02 0.000000000000e+00 1.013250000000e+05 1.013250000000e+05 9.999969368020e-01 3.063197989484e-06 -8.271836944711e-11 -8.260500591197e-06 -2.160690375499e-13 1.412008960934e-09 
