VARIABLES  = "X","Y","Z", "PRESSURE1", "PRESSURE2", "PRESSURE_W", "SATURATION1", SATURATION2, "VELOCITY_X1", "VELOCITY_Y1", "VELOCITY_X2", "VELOCITY_Y2"
ZONE T="0.000000000000e+00s", N=59, E=76, F=FEPOINT, ET=QUADRILATERAL
STRANDID=1, SOLUTIONTIME=0.000000000000e+00
0.000000000000e+00 0.000000000000e+00 0.000000000000e+00 0.000000000000e+00 1.013250000000e+05 1.013250000000e+05 1.000000000000e+00 2.220446049250e-16 0.000000000000e+00 0.000000000000e+00 0.000000000000e+00 0.000000000000e+00 
1.000000000000e-01 0.000000000000e+00 0.000000000000e+00 0.000000000000e+00 1.013250000000e+05 1.013250000000e+05 1.000000000000e+00 2.220446049250e-16 0.000000000000e+00 0.000000000000e+00 0.000000000000e+00 0.000000000000e+00 
1.000000000000e-01 0.000000000000e+00 1.000000000000e+00 0.000000000000e+00 1.013250000000e+05 1.013250000000e+05 1.000000000000e+00 2.220446049250e-16 0.000000000000e+00 0.000000000000e+00 0.000000000000e+00 0.000000000000e+00 
0.000000000000e+00 0.000000000000e+00 1.000000000000e+00 0.000000000000e+00 1.013250000000e+05 1.013250000000e+05 1.000000000000e+00 2.220446049250e-16 0.000000000000e+00 0.000000000000e+00 0.000000000000e+00 0.000000000000e+00 
1.000000000000e-01 0.000000000000e+00 5.263157894737e-02 0.000000000000e+00 1.013250000000e+05 1.013250000000e+05 1.000000000000e+00 1.110223024625e-16 0.000000000000e+00 0.000000000000e+00 0.000000000000e+00 0.000000000000e+00 
1.000000000000e-01 0.000000000000e+00 1.052631578947e-01 0.000000000000e+00 1.013250000000e+05 1.013250000000e+05 1.000000000000e+00 2.220446049250e-16 0.000000000000e+00 0.000000000000e+00 0.000000000000e+00 0.000000000000e+00 
1.000000000000e-01 0.000000000000e+00 1.578947368421e-01 0.000000000000e+00 1.013250000000e+05 1.013250000000e+05 1.000000000000e+00 2.220446049250e-16 0.000000000000e+00 0.000000000000e+00 0.000000000000e+00 0.000000000000e+00 
1.000000000000e-01 0.000000000000e+00 2.105263157895e-01 0.000000000000e+00 1.013250000000e+05 1.013250000000e+05 1.000000000000e+00 2.220446049250e-16 0.000000000000e+00 0.000000000000e+00 0.000000000000e+00 0.000000000000e+00 
1.000000000000e-01 0.000000000000e+00 2.631578947368e-01 0.000000000000e+00 1.013250000000e+05 1.013250000000e+05 1.000000000000e+00 1.110223024625e-16 0.000000000000e+00 0.000000000000e+00 0.000000000000e+00 0.000000000000e+00 
1.000000000000e-01 0.000000000000e+00 3.157894736842e-01 0.000000000000e+00 1.013250000000e+05 1.013250000000e+05 1.000000000000e+00 2.220446049250e-16 0.000000000000e+00 0.000000000000e+00 0.000000000000e+00 0.000000000000e+00 
1.000000000000e-01 0.000000000000e+00 3.684210526316e-01 0.000000000000e+00 1.013250000000e+05 1.013250000000e+05 1.000000000000e+00 2.220446049250e-16 0.000000000000e+00 0.000000000000e+00 0.000000000000e+00 0.000000000000e+00 
1.000000000000e-01 0.000000000000e+00 4.210526315789e-01 0.000000000000e+00 1.013250000000e+05 1.013250000000e+05 1.000000000000e+00 2.220446049250e-16 0.000000000000e+00 0.000000000000e+00 0.000000000000e+00 0.000000000000e+00 
1.000000000000e-01 0.000000000000e+00 4.736842105263e-01 0.000000000000e+00 1.013250000000e+05 1.013250000000e+05 1.000000000000e+00 2.220446049250e-16 0.000000000000e+00 0.000000000000e+00 0.000000000000e+00 0.000000000000e+00 
1.000000000000e-01 0.000000000000e+00 5.263157894737e-01 0.000000000000e+00 1.013250000000e+05 1.013250000000e+05 1.000000000000e+00 2.220446049250e-16 0.000000000000e+00 0.000000000000e+00 0.000000000000e+00 0.000000000000e+00 
1.000000000000e-01 0.000000000000e+00 5.789473684210e-01 0.000000000000e+00 1.013250000000e+05 1.013250000000e+05 1.000000000000e+00 2.220446049250e-16 0.000000000000e+00 0.000000000000e+00 0.000000000000e+00 0.000000000000e+00 
1.000000000000e-01 0.000000000000e+00 6.315789473684e-01 0.000000000000e+00 1.013250000000e+05 1.013250000000e+05 1.000000000000e+00 2.220446049250e-16 0.000000000000e+00 0.000000000000e+00 0.000000000000e+00 0.000000000000e+00 
1.000000000000e-01 0.000000000000e+00 6.842105263158e-01 0.000000000000e+00 1.013250000000e+05 1.013250000000e+05 1.000000000000e+00 2.220446049250e-16 0.000000000000e+00 0.000000000000e+00 0.000000000000e+00 0.000000000000e+00 
1.000000000000e-01 0.000000000000e+00 7.368421052631e-01 0.000000000000e+00 1.013250000000e+05 1.013250000000e+05 1.000000000000e+00 1.110223024625e-16 0.000000000000e+00 0.000000000000e+00 0.000000000000e+00 0.000000000000e+00 
1.000000000000e-01 0.000000000000e+00 7.894736842105e-01 0.000000000000e+00 1.013250000000e+05 1.013250000000e+05 1.000000000000e+00 2.220446049250e-16 0.000000000000e+00 0.000000000000e+00 0.000000000000e+00 0.000000000000e+00 
1.000000000000e-01 0.000000000000e+00 8.421052631579e-01 0.000000000000e+00 1.013250000000e+05 1.013250000000e+05 1.000000000000e+00 2.220446049250e-16 0.000000000000e+00 0.000000000000e+00 0.000000000000e+00 0.000000000000e+00 
1.000000000000e-01 0.000000000000e+00 8.947368421053e-01 0.000000000000e+00 1.013250000000e+05 1.013250000000e+05 1.000000000000e+00 2.220446049250e-16 0.000000000000e+00 0.000000000000e+00 0.000000000000e+00 0.000000000000e+00 
1.000000000000e-01 0.000000000000e+00 9.473684210526e-01 0.000000000000e+00 1.013250000000e+05 1.013250000000e+05 1.000000000000e+00 2.220446049250e-16 0.000000000000e+00 0.000000000000e+00 0.000000000000e+00 0.000000000000e+00 
0.000000000000e+00 0.000000000000e+00 5.263157894737e-02 0.000000000000e+00 1.013250000000e+05 1.013250000000e+05 1.000000000000e+00 2.220446049250e-16 0.000000000000e+00 0.000000000000e+00 0.000000000000e+00 0.000000000000e+00 
0.000000000000e+00 0.000000000000e+00 1.052631578947e-01 0.000000000000e+00 1.013250000000e+05 1.013250000000e+05 1.000000000000e+00 2.220446049250e-16 0.000000000000e+00 0.000000000000e+00 0.000000000000e+00 0.000000000000e+00 
0.000000000000e+00 0.000000000000e+00 1.578947368421e-01 0.000000000000e+00 1.013250000000e+05 1.013250000000e+05 1.000000000000e+00 2.220446049250e-16 0.000000000000e+00 0.000000000000e+00 0.000000000000e+00 0.000000000000e+00 
0.000000000000e+00 0.000000000000e+00 2.105263157895e-01 0.000000000000e+00 1.013250000000e+05 1.013250000000e+05 1.000000000000e+00 1.110223024625e-16 0.000000000000e+00 0.000000000000e+00 0.000000000000e+00 0.000000000000e+00 
0.000000000000e+00 0.000000000000e+00 2.631578947368e-01 0.000000000000e+00 1.013250000000e+05 1.013250000000e+05 1.000000000000e+00 2.220446049250e-16 0.000000000000e+00 0.000000000000e+00 0.000000000000e+00 0.000000000000e+00 
0.000000000000e+00 0.000000000000e+00 3.157894736842e-01 0.000000000000e+00 1.013250000000e+05 1.013250000000e+05 1.000000000000e+00 2.220446049250e-16 0.000000000000e+00 0.000000000000e+00 0.000000000000e+00 0.000000000000e+00 
0.000000000000e+00 0.000000000000e+00 3.684210526316e-01 0.000000000000e+00 1.013250000000e+05 1.013250000000e+05 1.000000000000e+00 2.220446049250e-16 0.000000000000e+00 0.000000000000e+00 0.000000000000e+00 0.000000000000e+00 
0.000000000000e+00 0.000000000000e+00 4.210526315789e-01 0.000000000000e+00 1.013250000000e+05 1.013250000000e+05 1.000000000000e+00 1.110223024625e-16 0.000000000000e+00 0.000000000000e+00 0.000000000000e+00 0.000000000000e+00 
0.000000000000e+00 0.000000000000e+00 4.736842105263e-01 0.000000000000e+00 1.013250000000e+05 1.013250000000e+05 1.000000000000e+00 2.220446049250e-16 0.000000000000e+00 0.000000000000e+00 0.000000000000e+00 0.000000000000e+00 
0.000000000000e+00 0.000000000000e+00 5.263157894737e-01 0.000000000000e+00 1.013250000000e+05 1.013250000000e+05 1.000000000000e+00 1.110223024625e-16 0.000000000000e+00 0.000000000000e+00 0.000000000000e+00 0.000000000000e+00 
0.000000000000e+00 0.000000000000e+00 5.789473684210e-01 0.000000000000e+00 1.013250000000e+05 1.013250000000e+05 1.000000000000e+00 2.220446049250e-16 0.000000000000e+00 0.000000000000e+00 0.000000000000e+00 0.000000000000e+00 
0.000000000000e+00 0.000000000000e+00 6.315789473684e-01 0.000000000000e+00 1.013250000000e+05 1.013250000000e+05 1.000000000000e+00 1.110223024625e-16 0.000000000000e+00 0.000000000000e+00 0.000000000000e+00 0.000000000000e+00 
0.000000000000e+00 0.000000000000e+00 6.842105263158e-01 0.000000000000e+00 1.013250000000e+05 1.013250000000e+05 1.000000000000e+00 2.220446049250e-16 0.000000000000e+00 0.000000000000e+00 0.000000000000e+00 0.000000000000e+00 
0.000000000000e+00 0.000000000000e+00 7.368421052631e-01 0.000000000000e+00 1.013250000000e+05 1.013250000000e+05 1.000000000000e+00 2.220446049250e-16 0.000000000000e+00 0.000000000000e+00 0.000000000000e+00 0.000000000000e+00 
0.000000000000e+00 0.000000000000e+00 7.894736842105e-01 0.000000000000e+00 1.013250000000e+05 1.013250000000e+05 1.000000000000e+00 2.220446049250e-16 0.000000000000e+00 0.000000000000e+00 0.000000000000e+00 0.000000000000e+00 
0.000000000000e+00 0.000000000000e+00 8.421052631579e-01 0.000000000000e+00 1.013250000000e+05 1.013250000000e+05 1.000000000000e+00 2.220446049250e-16 0.000000000000e+00 0.000000000000e+00 0.000000000000e+00 0.000000000000e+00 
0.000000000000e+00 0.000000000000e+00 8.947368421053e-01 0.000000000000e+00 1.013250000000e+05 1.013250000000e+05 1.000000000000e+00 1.110223024625e-16 0.000000000000e+00 0.000000000000e+00 0.000000000000e+00 0.000000000000e+00 
0.000000000000e+00 0.000000000000e+00 9.473684210526e-01 0.000000000000e+00 1.013250000000e+05 1.013250000000e+05 1.000000000000e+00 2.220446049250e-16 0.000000000000e+00 0.000000000000e+00 0.000000000000e+00 0.000000000000e+00 
5.004875982315e-02 0.000000000000e+00 1.315897463623e-01 0.000000000000e+00 1.013250000000e+05 1.013250000000e+05 1.000000000000e+00 2.220446049250e-16 0.000000000000e+00 0.000000000000e+00 0.000000000000e+00 0.000000000000e+00 
4.996587977644e-02 0.000000000000e+00 8.157235458635e-01 0.000000000000e+00 1.013250000000e+05 1.013250000000e+05 1.000000000000e+00 2.220446049250e-16 0.000000000000e+00 0.000000000000e+00 0.000000000000e+00 0.000000000000e+00 
5.005418120630e-02 0.000000000000e+00 2.368736435449e-01 0.000000000000e+00 1.013250000000e+05 1.013250000000e+05 1.000000000000e+00 1.110223024625e-16 0.000000000000e+00 0.000000000000e+00 0.000000000000e+00 0.000000000000e+00 
4.930219925596e-02 0.000000000000e+00 4.474163218213e-01 0.000000000000e+00 1.013250000000e+05 1.013250000000e+05 1.000000000000e+00 2.220446049250e-16 0.000000000000e+00 0.000000000000e+00 0.000000000000e+00 0.000000000000e+00 
5.003885161692e-02 0.000000000000e+00 9.682205693950e-01 0.000000000000e+00 1.013250000000e+05 1.013250000000e+05 1.000000000000e+00 2.220446049250e-16 0.000000000000e+00 0.000000000000e+00 0.000000000000e+00 0.000000000000e+00 
4.927263472712e-02 0.000000000000e+00 5.525782080655e-01 0.000000000000e+00 1.013250000000e+05 1.013250000000e+05 1.000000000000e+00 2.220446049250e-16 0.000000000000e+00 0.000000000000e+00 0.000000000000e+00 0.000000000000e+00 
5.001671943120e-02 0.000000000000e+00 3.421781001610e-01 0.000000000000e+00 1.013250000000e+05 1.013250000000e+05 1.000000000000e+00 2.220446049250e-16 0.000000000000e+00 0.000000000000e+00 0.000000000000e+00 0.000000000000e+00 
5.038000531035e-02 0.000000000000e+00 7.103956692128e-01 0.000000000000e+00 1.013250000000e+05 1.013250000000e+05 1.000000000000e+00 1.110223024625e-16 0.000000000000e+00 0.000000000000e+00 0.000000000000e+00 0.000000000000e+00 
5.044966027600e-02 0.000000000000e+00 3.163764606507e-02 0.000000000000e+00 1.013250000000e+05 1.013250000000e+05 1.000000000000e+00 1.110223024625e-16 0.000000000000e+00 0.000000000000e+00 0.000000000000e+00 0.000000000000e+00 
4.966059977814e-02 0.000000000000e+00 6.565186924197e-01 0.000000000000e+00 1.013250000000e+05 1.013250000000e+05 1.000000000000e+00 1.110223024625e-16 0.000000000000e+00 0.000000000000e+00 0.000000000000e+00 0.000000000000e+00 
4.963313618498e-02 0.000000000000e+00 9.192141406196e-01 0.000000000000e+00 1.013250000000e+05 1.013250000000e+05 1.000000000000e+00 1.110223024625e-16 0.000000000000e+00 0.000000000000e+00 0.000000000000e+00 0.000000000000e+00 
5.212391606825e-02 0.000000000000e+00 2.895238508574e-01 0.000000000000e+00 1.013250000000e+05 1.013250000000e+05 1.000000000000e+00 1.110223024625e-16 0.000000000000e+00 0.000000000000e+00 0.000000000000e+00 0.000000000000e+00 
4.795755155494e-02 0.000000000000e+00 1.842277056820e-01 0.000000000000e+00 1.013250000000e+05 1.013250000000e+05 1.000000000000e+00 1.110223024625e-16 0.000000000000e+00 0.000000000000e+00 0.000000000000e+00 0.000000000000e+00 
4.780146615200e-02 0.000000000000e+00 5.000384367359e-01 0.000000000000e+00 1.013250000000e+05 1.013250000000e+05 1.000000000000e+00 1.110223024625e-16 0.000000000000e+00 0.000000000000e+00 0.000000000000e+00 0.000000000000e+00 
4.783702757909e-02 0.000000000000e+00 3.947923954782e-01 0.000000000000e+00 1.013250000000e+05 1.013250000000e+05 1.000000000000e+00 1.110223024625e-16 0.000000000000e+00 0.000000000000e+00 0.000000000000e+00 0.000000000000e+00 
5.218158768062e-02 0.000000000000e+00 7.631920623808e-01 0.000000000000e+00 1.013250000000e+05 1.013250000000e+05 1.000000000000e+00 1.110223024625e-16 0.000000000000e+00 0.000000000000e+00 0.000000000000e+00 0.000000000000e+00 
5.220914573457e-02 0.000000000000e+00 7.941970554122e-02 0.000000000000e+00 1.013250000000e+05 1.013250000000e+05 1.000000000000e+00 1.110223024625e-16 0.000000000000e+00 0.000000000000e+00 0.000000000000e+00 0.000000000000e+00 
4.747042649413e-02 0.000000000000e+00 6.045337204113e-01 0.000000000000e+00 1.013250000000e+05 1.013250000000e+05 1.000000000000e+00 1.110223024625e-16 0.000000000000e+00 0.000000000000e+00 0.000000000000e+00 0.000000000000e+00 
4.751725086677e-02 0.000000000000e+00 8.676386343643e-01 0.000000000000e+00 1.013250000000e+05 1.013250000000e+05 1.000000000000e+00 1.110223024625e-16 0.000000000000e+00 0.000000000000e+00 0.000000000000e+00 0.000000000000e+00 
21  59  20  21
16  58  15  16
23  57  24  23
36  56  37  36
12  55  11  12
14  54  13  14
27  52  28  27
8  53  7  8
43  52  27  43
24  57  41  24
11  55  47  11
48  56  36  48
37  56  42  37
13  54  44  13
49  57  23  49
43  53  8  43
44  55  12  44
7  53  41  7
46  54  14  46
28  52  47  28
51  59  21  51
50  58  16  50
40  51  45  40
45  51  22  45
48  50  17  48
35  50  48  35
20  59  42  20
15  58  46  15
39  51  40  39
11  47  10  11
34  50  35  34
3  45  22  3
18  48  17  18
22  51  21  22
32  46  33  32
17  50  16  17
15  46  14  15
24  41  25  24
7  41  6  7
9  43  8  9
28  47  29  28
30  44  31  30
37  42  38  37
26  43  27  26
13  44  12  13
20  42  19  20
40  45  4  40
35  48  36  35
1  49  23  1
5  49  2  5
47  52  10  47
9  52  43  9
26  53  43  26
32  54  46  32
44  54  31  44
41  53  25  41
47  55  29  47
30  55  44  30
42  56  19  42
18  56  48  18
41  57  6  41
5  57  49  5
42  59  38  42
46  58  33  46
39  59  51  39
34  58  50  34
25  53  26  25
10  52  9  10
31  54  32  31
19  56  18  19
29  55  30  29
6  57  5  6
38  59  39  38
33  58  34  33
4  45  3  4
2  49  1  2
VARIABLES  = "X","Y","Z", "PRESSURE1", "PRESSURE2", "PRESSURE_W", "SATURATION1", SATURATION2, "VELOCITY_X1", "VELOCITY_Y1", "VELOCITY_X2", "VELOCITY_Y2"
ZONE T="1.000000000000e-03s", N=59, E=76, F=FEPOINT, ET=QUADRILATERAL
STRANDID=1, SOLUTIONTIME=1.000000000000e-03
0.000000000000e+00 0.000000000000e+00 0.000000000000e+00 0.000000000000e+00 1.013250000000e+05 1.013250000000e+05 1.000000000000e+00 6.661338147751e-15 -5.220877937972e-14 -2.616649014206e-04 -4.511772122846e-19 1.931099806232e-11 
1.000000000000e-01 0.000000000000e+00 0.000000000000e+00 0.000000000000e+00 1.013250000000e+05 1.013250000000e+05 1.000000000000e+00 2.220446049250e-15 5.318946205080e-14 -2.616649014205e-04 4.596359882034e-19 1.931024972070e-11 
1.000000000000e-01 0.000000000000e+00 1.000000000000e+00 1.195869040349e+02 1.013250000000e+05 1.012054130960e+05 9.999603332258e-01 3.966677420908e-05 1.021538049089e-07 -2.610636715992e-04 -8.475678351550e-11 -5.211534802460e-10 
0.000000000000e+00 0.000000000000e+00 1.000000000000e+00 1.195167948485e+02 1.013250000000e+05 1.012054832052e+05 9.999565834714e-01 4.341652859097e-05 -7.321773860287e-08 -2.610758541121e-04 8.465719361643e-11 -5.211634961639e-10 
1.000000000000e-01 0.000000000000e+00 5.263157894737e-02 1.448127894856e-07 1.013187522445e+05 1.013187522443e+05 9.999999999999e-01 5.329070518201e-14 3.779924008995e-14 -2.616649008881e-04 3.164101233492e-19 1.930890306448e-11 
1.000000000000e-01 0.000000000000e+00 1.052631578947e-01 1.434578367435e-07 1.013125044871e+05 1.013125044870e+05 9.999999999999e-01 5.417888360171e-14 3.525952342897e-14 -2.616649000599e-04 2.342622013876e-19 1.930803732012e-11 
1.000000000000e-01 0.000000000000e+00 1.578947368421e-01 1.433806661689e-07 1.013062567281e+05 1.013062567280e+05 9.999999999999e-01 5.440092820663e-14 3.934360574930e-14 -2.616648992116e-04 2.716198855777e-19 1.930712456706e-11 
1.000000000000e-01 0.000000000000e+00 2.105263157895e-01 1.444996090367e-07 1.013000089675e+05 1.013000089673e+05 9.999999999999e-01 5.473399511402e-14 4.117400385439e-14 -2.616648983534e-04 2.857027003528e-19 1.930607464018e-11 
1.000000000000e-01 0.000000000000e+00 2.631578947368e-01 1.451414818107e-07 1.012937612051e+05 1.012937612050e+05 9.999999999999e-01 5.495603971895e-14 3.937922883778e-14 -2.616648974927e-04 2.642211850698e-19 1.930472537971e-11 
1.000000000000e-01 0.000000000000e+00 3.157894736842e-01 1.469892852645e-07 1.012875134411e+05 1.012875134410e+05 9.999999999999e-01 5.573319583618e-14 3.596569877117e-14 -2.616648966398e-04 2.336999204151e-19 1.930349856417e-11 
1.000000000000e-01 0.000000000000e+00 3.684210526316e-01 1.485814629341e-07 1.012812656755e+05 1.012812656753e+05 9.999999999999e-01 5.617728504603e-14 3.423797897994e-14 -2.616648957677e-04 2.230571798658e-19 1.930287362973e-11 
1.000000000000e-01 0.000000000000e+00 4.210526315789e-01 1.469012427806e-07 1.012750179081e+05 1.012750179079e+05 9.999999999999e-01 5.573319583618e-14 3.356114029884e-14 -2.616648948929e-04 2.193004767402e-19 1.930220857629e-11 
1.000000000000e-01 0.000000000000e+00 4.736842105263e-01 1.439509849748e-07 1.012687701390e+05 1.012687701388e+05 9.999999999999e-01 5.440092820663e-14 3.164168447256e-14 -2.616648940370e-04 1.993417029655e-19 1.930074186949e-11 
1.000000000000e-01 0.000000000000e+00 5.263157894737e-01 1.413492348364e-07 1.012625223682e+05 1.012625223681e+05 9.999999999999e-01 5.351274978693e-14 4.687160253524e-14 -2.616648931988e-04 3.033213389971e-19 1.929949678043e-11 
1.000000000000e-01 0.000000000000e+00 5.789473684210e-01 1.400737963325e-07 1.012562745958e+05 1.012562745957e+05 9.999999999999e-01 5.306866057708e-14 1.238908153027e-13 -2.616648923109e-04 8.319180299535e-19 1.929871543719e-11 
1.000000000000e-01 0.000000000000e+00 6.315789473684e-01 1.392975096733e-07 1.012500268215e+05 1.012500268214e+05 9.999999999999e-01 5.284661597216e-14 4.546868149191e-13 -2.616648911583e-04 3.048613342663e-18 1.929760820183e-11 
1.000000000000e-01 0.000000000000e+00 6.842105263158e-01 1.389116283376e-07 1.012437790440e+05 1.012437790438e+05 9.999999999999e-01 5.262457136723e-14 2.061568899080e-12 -2.616648887137e-04 1.379573111889e-17 1.929611521489e-11 
1.000000000000e-01 0.000000000000e+00 7.368421052631e-01 1.402274230285e-07 1.012375312571e+05 1.012375312570e+05 9.999999999999e-01 5.306866057708e-14 9.915236150845e-12 -2.616648797166e-04 6.628666761975e-17 1.929559957253e-11 
1.000000000000e-01 0.000000000000e+00 7.894736842105e-01 1.434113386076e-07 1.012312834299e+05 1.012312834297e+05 9.999999999999e-01 5.417888360171e-14 4.740927123930e-11 -2.616648414699e-04 3.168989242086e-16 1.929458620045e-11 
1.000000000000e-01 0.000000000000e+00 8.421052631579e-01 1.585426011380e-07 1.012250354246e+05 1.012250354244e+05 1.000000000000e+00 0.000000000000e+00 1.987574044617e-10 -2.616646812709e-04 1.313879568390e-15 1.929429843614e-11 
1.000000000000e-01 0.000000000000e+00 8.947368421053e-01 2.666802144911e-05 1.012187867261e+05 1.012187866994e+05 1.000000000000e+00 0.000000000000e+00 6.590920572579e-10 -2.616639618196e-04 -2.752323483661e-14 1.923145841884e-11 
1.000000000000e-01 0.000000000000e+00 9.473684210526e-01 5.780977729084e-02 1.012125929659e+05 1.012125351561e+05 1.000000000000e+00 0.000000000000e+00 6.217386773839e-08 -2.615140393147e-04 -5.642138917476e-11 -1.165738852134e-10 
0.000000000000e+00 0.000000000000e+00 5.263157894737e-02 1.448417479928e-07 1.013187522445e+05 1.013187522443e+05 9.999999999999e-01 5.617728504603e-14 -3.562099300324e-14 -2.616649008906e-04 -3.009634081752e-19 1.930895239653e-11 
0.000000000000e+00 0.000000000000e+00 1.052631578947e-01 1.433767120649e-07 1.013125044871e+05 1.013125044870e+05 9.999999999999e-01 5.417888360171e-14 -3.357161767780e-14 -2.616649000570e-04 -2.233522466877e-19 1.930821367469e-11 
0.000000000000e+00 0.000000000000e+00 1.578947368421e-01 1.434785842095e-07 1.013062567281e+05 1.013062567280e+05 9.999999999999e-01 5.440092820663e-14 -4.040810745209e-14 -2.616648992088e-04 -2.788628423841e-19 1.930693976968e-11 
0.000000000000e+00 0.000000000000e+00 2.105263157895e-01 1.446102468084e-07 1.013000089675e+05 1.013000089673e+05 9.999999999999e-01 5.484501741648e-14 -4.225003067404e-14 -2.616648983561e-04 -2.930432416594e-19 1.930620236691e-11 
0.000000000000e+00 0.000000000000e+00 2.631578947368e-01 1.449909359398e-07 1.012937612051e+05 1.012937612050e+05 9.999999999999e-01 5.484501741648e-14 -3.767875023186e-14 -2.616648974954e-04 -2.533620452860e-19 1.930463495528e-11 
0.000000000000e+00 0.000000000000e+00 3.157894736842e-01 1.469485574024e-07 1.012875134411e+05 1.012875134410e+05 9.999999999999e-01 5.551115123126e-14 -3.457011189311e-14 -2.616648966365e-04 -2.249719112018e-19 1.930360533496e-11 
0.000000000000e+00 0.000000000000e+00 3.684210526316e-01 1.485044323163e-07 1.012812656755e+05 1.012812656753e+05 9.999999999999e-01 5.628830734850e-14 -3.600341733545e-14 -2.616648957644e-04 -2.348042013598e-19 1.930304892232e-11 
0.000000000000e+00 0.000000000000e+00 4.210526315789e-01 1.467764457739e-07 1.012750179081e+05 1.012750179079e+05 9.999999999999e-01 5.540012892880e-14 -3.490853123366e-14 -2.616648948964e-04 -2.283703658751e-19 1.930116984656e-11 
0.000000000000e+00 0.000000000000e+00 4.736842105263e-01 1.438831131184e-07 1.012687701390e+05 1.012687701388e+05 9.999999999999e-01 5.406786129925e-14 -2.683990169316e-14 -2.616648940422e-04 -1.665917500695e-19 1.930017292992e-11 
0.000000000000e+00 0.000000000000e+00 5.263157894737e-01 1.411772173431e-07 1.012625223683e+05 1.012625223682e+05 9.999999999999e-01 5.329070518201e-14 -1.235387753695e-14 -2.616648932377e-04 -7.226932661386e-20 1.929952257484e-11 
0.000000000000e+00 0.000000000000e+00 5.789473684210e-01 1.397817653899e-07 1.012562745961e+05 1.012562745959e+05 9.999999999999e-01 5.306866057708e-14 5.297572351992e-14 -2.616648924865e-04 3.495547528311e-19 1.929835191777e-11 
0.000000000000e+00 0.000000000000e+00 6.315789473684e-01 1.393935773859e-07 1.012500268226e+05 1.012500268225e+05 9.999999999999e-01 5.284661597216e-14 4.062687512487e-13 -2.616648920246e-04 2.706884065896e-18 1.929708826434e-11 
0.000000000000e+00 0.000000000000e+00 6.842105263158e-01 1.385561365728e-07 1.012437790492e+05 1.012437790491e+05 9.999999999999e-01 5.262457136723e-14 2.206350560300e-12 -2.616648929066e-04 1.473582686915e-17 1.929589844245e-11 
0.000000000000e+00 0.000000000000e+00 7.368421052631e-01 1.402880391319e-07 1.012375312827e+05 1.012375312826e+05 9.999999999999e-01 5.329070518201e-14 1.090058335103e-11 -2.616649000310e-04 7.286406763798e-17 1.929465078301e-11 
0.000000000000e+00 0.000000000000e+00 7.894736842105e-01 1.432182437702e-07 1.012312835538e+05 1.012312835537e+05 9.999999999999e-01 5.440092820663e-14 5.363179813139e-11 -2.616649401138e-04 3.585048468992e-16 1.929358814432e-11 
0.000000000000e+00 0.000000000000e+00 8.421052631579e-01 1.578126813744e-07 1.012250360274e+05 1.012250360272e+05 9.999999999996e-01 3.522737657136e-13 2.961273291144e-10 -2.616651704304e-04 1.996161748118e-15 1.929070627798e-11 
0.000000000000e+00 0.000000000000e+00 8.947368421053e-01 2.778621109506e-05 1.012187897160e+05 1.012187896882e+05 9.999999993741e-01 6.258509266388e-10 1.717675957639e-09 -2.616663565168e-04 4.415139728977e-14 1.921499594307e-11 
0.000000000000e+00 0.000000000000e+00 9.473684210526e-01 5.828724073299e-02 1.012126079915e+05 1.012125497043e+05 9.999987182807e-01 1.281719284707e-06 -5.136438551723e-08 -2.615241494033e-04 5.638375088123e-11 -1.165937616767e-10 
5.004875982315e-02 0.000000000000e+00 1.315897463623e-01 1.450164438901e-07 1.013093793259e+05 1.013093793258e+05 9.999999999999e-01 5.484501741648e-14 1.335865817964e-16 -2.616648996364e-04 8.585805316713e-22 1.930767612946e-11 
4.996587977644e-02 0.000000000000e+00 8.157235458635e-01 1.466827385978e-07 1.012281674223e+05 1.012281674222e+05 9.999999999999e-01 5.639932965096e-14 9.823903266805e-11 -2.616648826291e-04 6.566517486614e-16 1.929323211995e-11 
5.005418120630e-02 0.000000000000e+00 2.368736435449e-01 1.477334203549e-07 1.012968813427e+05 1.012968813425e+05 9.999999999999e-01 5.606626274357e-14 1.330627128482e-16 -2.616648979228e-04 8.306310510087e-22 1.930496928877e-11 
4.930219925596e-02 0.000000000000e+00 4.474163218213e-01 1.444862008780e-07 1.012718883375e+05 1.012718883374e+05 9.999999999999e-01 5.451195050910e-14 2.701592165976e-15 -2.616648944621e-04 1.808682157700e-20 1.930093394434e-11 
5.003885161692e-02 0.000000000000e+00 9.682205693950e-01 1.804912668674e-01 1.012102370091e+05 1.012100565178e+05 9.999999338766e-01 6.612339764622e-08 9.365026446202e-09 -2.613474577584e-04 -2.909077126143e-14 -2.782824644048e-10 
4.927263472712e-02 0.000000000000e+00 5.525782080655e-01 1.408278464502e-07 1.012594048178e+05 1.012594048177e+05 9.999999999999e-01 5.329070518201e-14 3.749696770683e-14 -2.616648928112e-04 2.503449470725e-19 1.929875861888e-11 
5.001671943120e-02 0.000000000000e+00 3.421781001610e-01 1.467381037047e-07 1.012843809122e+05 1.012843809121e+05 9.999999999999e-01 5.551115123126e-14 -8.381903171538e-17 -2.616648962031e-04 -6.412920316200e-22 1.930274295213e-11 
5.038000531035e-02 0.000000000000e+00 7.103956692128e-01 1.437077530129e-07 1.012406706668e+05 1.012406706666e+05 9.999999999999e-01 5.440092820663e-14 4.154726048000e-12 -2.616648901462e-04 2.777446364545e-17 1.929573519455e-11 
5.044966027600e-02 0.000000000000e+00 3.163764606507e-02 1.439599032907e-07 1.013212443790e+05 1.013212443788e+05 9.999999999999e-01 5.462297281156e-14 -5.456618964667e-16 -2.616649011767e-04 -2.942754709811e-21 1.930935285592e-11 
4.966059977814e-02 0.000000000000e+00 6.565186924197e-01 1.421300273642e-07 1.012470662816e+05 1.012470662815e+05 9.999999999999e-01 5.384581669432e-14 8.486383594572e-13 -2.616648911584e-04 5.673244515850e-18 1.929698447688e-11 
4.963313618498e-02 0.000000000000e+00 9.192141406196e-01 1.346554733905e-04 1.012158816497e+05 1.012158815150e+05 9.999999999504e-01 4.960876154314e-11 2.340937757513e-09 -2.616637408930e-04 1.615596912611e-14 1.901135515686e-11 
5.212391606825e-02 0.000000000000e+00 2.895238508574e-01 1.434872501809e-07 1.012906313682e+05 1.012906313680e+05 9.999999999999e-01 5.428990590417e-14 -8.329516276715e-17 -2.616648970657e-04 -8.935526096377e-22 1.930417698410e-11 
4.795755155494e-02 0.000000000000e+00 1.842277056820e-01 1.469266382156e-07 1.013031308087e+05 1.013031308085e+05 9.999999999999e-01 5.573319583618e-14 1.938315108418e-16 -2.616648987838e-04 1.223104739309e-21 1.930606263112e-11 
4.780146615200e-02 0.000000000000e+00 5.000384367359e-01 1.364808342914e-07 1.012656416911e+05 1.012656416909e+05 9.999999999999e-01 5.162537064507e-14 7.612339686602e-15 -2.616648936273e-04 5.124820451449e-20 1.930008964855e-11 
4.783702757909e-02 0.000000000000e+00 3.947923954782e-01 1.459616594399e-07 1.012781351974e+05 1.012781351972e+05 9.999999999999e-01 5.528910662633e-14 2.902233973145e-16 -2.616648953286e-04 1.965308359741e-21 1.930206209283e-11 
5.218158768062e-02 0.000000000000e+00 7.631920623808e-01 1.397769785222e-07 1.012344033222e+05 1.012344033221e+05 9.999999999999e-01 5.295763827462e-14 2.016729227034e-11 -2.616648884934e-04 1.348115279550e-16 1.929504119682e-11 
5.220914573457e-02 0.000000000000e+00 7.941970554122e-02 1.415130190278e-07 1.013155722961e+05 1.013155722959e+05 9.999999999999e-01 5.351274978693e-14 -4.819594323637e-17 -2.616649004644e-04 -5.641921673928e-22 1.930794586601e-11 
4.747042649413e-02 0.000000000000e+00 6.045337204113e-01 1.415529014589e-07 1.012532372991e+05 1.012532372989e+05 9.999999999999e-01 5.351274978693e-14 1.757171703502e-13 -2.616648919962e-04 1.174399238978e-18 1.929753853815e-11 
4.751725086677e-02 0.000000000000e+00 8.676386343643e-01 2.296653394320e-07 1.012220046651e+05 1.012220046649e+05 9.999999999999e-01 8.693046282815e-14 4.873648798082e-10 -2.616648065493e-04 3.257811926732e-15 1.929368129518e-11 
21  59  20  21
16  58  15  16
23  57  24  23
36  56  37  36
12  55  11  12
14  54  13  14
27  52  28  27
8  53  7  8
43  52  27  43
24  57  41  24
11  55  47  11
48  56  36  48
37  56  42  37
13  54  44  13
49  57  23  49
43  53  8  43
44  55  12  44
7  53  41  7
46  54  14  46
28  52  47  28
51  59  21  51
50  58  16  50
40  51  45  40
45  51  22  45
48  50  17  48
35  50  48  35
20  59  42  20
15  58  46  15
39  51  40  39
11  47  10  11
34  50  35  34
3  45  22  3
18  48  17  18
22  51  21  22
32  46  33  32
17  50  16  17
15  46  14  15
24  41  25  24
7  41  6  7
9  43  8  9
28  47  29  28
30  44  31  30
37  42  38  37
26  43  27  26
13  44  12  13
20  42  19  20
40  45  4  40
35  48  36  35
1  49  23  1
5  49  2  5
47  52  10  47
9  52  43  9
26  53  43  26
32  54  46  32
44  54  31  44
41  53  25  41
47  55  29  47
30  55  44  30
42  56  19  42
18  56  48  18
41  57  6  41
5  57  49  5
42  59  38  42
46  58  33  46
39  59  51  39
34  58  50  34
25  53  26  25
10  52  9  10
31  54  32  31
19  56  18  19
29  55  30  29
6  57  5  6
38  59  39  38
33  58  34  33
4  45  3  4
2  49  1  2