VARIABLES  = "X","Y","Z", "PRESSURE1", "PRESSURE2", "PRESSURE_W", "SATURATION1", SATURATION2, "VELOCITY_X1", "VELOCITY_Y1", "VELOCITY_X2", "VELOCITY_Y2"
ZONE T="0.000000000000e+00s", N=59, E=76, F=FEPOINT, ET=QUADRILATERAL
STRANDID=1, SOLUTIONTIME=0.000000000000e+00
0.000000000000e+00 0.000000000000e+00 0.000000000000e+00 0.000000000000e+00 1.013250000000e+05 1.013250000000e+05 1.000000000000e+00 2.220446049250e-16 0.000000000000e+00 0.000000000000e+00 0.000000000000e+00 0.000000000000e+00 
1.000000000000e-01 0.000000000000e+00 0.000000000000e+00 0.000000000000e+00 1.013250000000e+05 1.013250000000e+05 1.000000000000e+00 2.220446049250e-16 0.000000000000e+00 0.000000000000e+00 0.000000000000e+00 0.000000000000e+00 
1.000000000000e-01 0.000000000000e+00 1.000000000000e+00 0.000000000000e+00 1.013250000000e+05 1.013250000000e+05 1.000000000000e+00 2.220446049250e-16 0.000000000000e+00 0.000000000000e+00 0.000000000000e+00 0.000000000000e+00 
0.000000000000e+00 0.000000000000e+00 1.000000000000e+00 0.000000000000e+00 1.013250000000e+05 1.013250000000e+05 1.000000000000e+00 2.220446049250e-16 0.000000000000e+00 0.000000000000e+00 0.000000000000e+00 0.000000000000e+00 
1.000000000000e-01 0.000000000000e+00 5.263157894737e-02 0.000000000000e+00 1.013250000000e+05 1.013250000000e+05 1.000000000000e+00 1.110223024625e-16 0.000000000000e+00 0.000000000000e+00 0.000000000000e+00 0.000000000000e+00 
1.000000000000e-01 0.000000000000e+00 1.052631578947e-01 0.000000000000e+00 1.013250000000e+05 1.013250000000e+05 1.000000000000e+00 2.220446049250e-16 0.000000000000e+00 0.000000000000e+00 0.000000000000e+00 0.000000000000e+00 
1.000000000000e-01 0.000000000000e+00 1.578947368421e-01 0.000000000000e+00 1.013250000000e+05 1.013250000000e+05 1.000000000000e+00 2.220446049250e-16 0.000000000000e+00 0.000000000000e+00 0.000000000000e+00 0.000000000000e+00 
1.000000000000e-01 0.000000000000e+00 2.105263157895e-01 0.000000000000e+00 1.013250000000e+05 1.013250000000e+05 1.000000000000e+00 2.220446049250e-16 0.000000000000e+00 0.000000000000e+00 0.000000000000e+00 0.000000000000e+00 
1.000000000000e-01 0.000000000000e+00 2.631578947368e-01 0.000000000000e+00 1.013250000000e+05 1.013250000000e+05 1.000000000000e+00 1.110223024625e-16 0.000000000000e+00 0.000000000000e+00 0.000000000000e+00 0.000000000000e+00 
1.000000000000e-01 0.000000000000e+00 3.157894736842e-01 0.000000000000e+00 1.013250000000e+05 1.013250000000e+05 1.000000000000e+00 2.220446049250e-16 0.000000000000e+00 0.000000000000e+00 0.000000000000e+00 0.000000000000e+00 
1.000000000000e-01 0.000000000000e+00 3.684210526316e-01 0.000000000000e+00 1.013250000000e+05 1.013250000000e+05 1.000000000000e+00 2.220446049250e-16 0.000000000000e+00 0.000000000000e+00 0.000000000000e+00 0.000000000000e+00 
1.000000000000e-01 0.000000000000e+00 4.210526315789e-01 0.000000000000e+00 1.013250000000e+05 1.013250000000e+05 1.000000000000e+00 2.220446049250e-16 0.000000000000e+00 0.000000000000e+00 0.000000000000e+00 0.000000000000e+00 
1.000000000000e-01 0.000000000000e+00 4.736842105263e-01 0.000000000000e+00 1.013250000000e+05 1.013250000000e+05 1.000000000000e+00 2.220446049250e-16 0.000000000000e+00 0.000000000000e+00 0.000000000000e+00 0.000000000000e+00 
1.000000000000e-01 0.000000000000e+00 5.263157894737e-01 0.000000000000e+00 1.013250000000e+05 1.013250000000e+05 1.000000000000e+00 2.220446049250e-16 0.000000000000e+00 0.000000000000e+00 0.000000000000e+00 0.000000000000e+00 
1.000000000000e-01 0.000000000000e+00 5.789473684210e-01 0.000000000000e+00 1.013250000000e+05 1.013250000000e+05 1.000000000000e+00 2.220446049250e-16 0.000000000000e+00 0.000000000000e+00 0.000000000000e+00 0.000000000000e+00 
1.000000000000e-01 0.000000000000e+00 6.315789473684e-01 0.000000000000e+00 1.013250000000e+05 1.013250000000e+05 1.000000000000e+00 2.220446049250e-16 0.000000000000e+00 0.000000000000e+00 0.000000000000e+00 0.000000000000e+00 
1.000000000000e-01 0.000000000000e+00 6.842105263158e-01 0.000000000000e+00 1.013250000000e+05 1.013250000000e+05 1.000000000000e+00 2.220446049250e-16 0.000000000000e+00 0.000000000000e+00 0.000000000000e+00 0.000000000000e+00 
1.000000000000e-01 0.000000000000e+00 7.368421052631e-01 0.000000000000e+00 1.013250000000e+05 1.013250000000e+05 1.000000000000e+00 1.110223024625e-16 0.000000000000e+00 0.000000000000e+00 0.000000000000e+00 0.000000000000e+00 
1.000000000000e-01 0.000000000000e+00 7.894736842105e-01 0.000000000000e+00 1.013250000000e+05 1.013250000000e+05 1.000000000000e+00 2.220446049250e-16 0.000000000000e+00 0.000000000000e+00 0.000000000000e+00 0.000000000000e+00 
1.000000000000e-01 0.000000000000e+00 8.421052631579e-01 0.000000000000e+00 1.013250000000e+05 1.013250000000e+05 1.000000000000e+00 2.220446049250e-16 0.000000000000e+00 0.000000000000e+00 0.000000000000e+00 0.000000000000e+00 
1.000000000000e-01 0.000000000000e+00 8.947368421053e-01 0.000000000000e+00 1.013250000000e+05 1.013250000000e+05 1.000000000000e+00 2.220446049250e-16 0.000000000000e+00 0.000000000000e+00 0.000000000000e+00 0.000000000000e+00 
1.000000000000e-01 0.000000000000e+00 9.473684210526e-01 0.000000000000e+00 1.013250000000e+05 1.013250000000e+05 1.000000000000e+00 2.220446049250e-16 0.000000000000e+00 0.000000000000e+00 0.000000000000e+00 0.000000000000e+00 
0.000000000000e+00 0.000000000000e+00 5.263157894737e-02 0.000000000000e+00 1.013250000000e+05 1.013250000000e+05 1.000000000000e+00 2.220446049250e-16 0.000000000000e+00 0.000000000000e+00 0.000000000000e+00 0.000000000000e+00 
0.000000000000e+00 0.000000000000e+00 1.052631578947e-01 0.000000000000e+00 1.013250000000e+05 1.013250000000e+05 1.000000000000e+00 2.220446049250e-16 0.000000000000e+00 0.000000000000e+00 0.000000000000e+00 0.000000000000e+00 
0.000000000000e+00 0.000000000000e+00 1.578947368421e-01 0.000000000000e+00 1.013250000000e+05 1.013250000000e+05 1.000000000000e+00 2.220446049250e-16 0.000000000000e+00 0.000000000000e+00 0.000000000000e+00 0.000000000000e+00 
0.000000000000e+00 0.000000000000e+00 2.105263157895e-01 0.000000000000e+00 1.013250000000e+05 1.013250000000e+05 1.000000000000e+00 1.110223024625e-16 0.000000000000e+00 0.000000000000e+00 0.000000000000e+00 0.000000000000e+00 
0.000000000000e+00 0.000000000000e+00 2.631578947368e-01 0.000000000000e+00 1.013250000000e+05 1.013250000000e+05 1.000000000000e+00 2.220446049250e-16 0.000000000000e+00 0.000000000000e+00 0.000000000000e+00 0.000000000000e+00 
0.000000000000e+00 0.000000000000e+00 3.157894736842e-01 0.000000000000e+00 1.013250000000e+05 1.013250000000e+05 1.000000000000e+00 2.220446049250e-16 0.000000000000e+00 0.000000000000e+00 0.000000000000e+00 0.000000000000e+00 
0.000000000000e+00 0.000000000000e+00 3.684210526316e-01 0.000000000000e+00 1.013250000000e+05 1.013250000000e+05 1.000000000000e+00 2.220446049250e-16 0.000000000000e+00 0.000000000000e+00 0.000000000000e+00 0.000000000000e+00 
0.000000000000e+00 0.000000000000e+00 4.210526315789e-01 0.000000000000e+00 1.013250000000e+05 1.013250000000e+05 1.000000000000e+00 1.110223024625e-16 0.000000000000e+00 0.000000000000e+00 0.000000000000e+00 0.000000000000e+00 
0.000000000000e+00 0.000000000000e+00 4.736842105263e-01 0.000000000000e+00 1.013250000000e+05 1.013250000000e+05 1.000000000000e+00 2.220446049250e-16 0.000000000000e+00 0.000000000000e+00 0.000000000000e+00 0.000000000000e+00 
0.000000000000e+00 0.000000000000e+00 5.263157894737e-01 0.000000000000e+00 1.013250000000e+05 1.013250000000e+05 1.000000000000e+00 1.110223024625e-16 0.000000000000e+00 0.000000000000e+00 0.000000000000e+00 0.000000000000e+00 
0.000000000000e+00 0.000000000000e+00 5.789473684210e-01 0.000000000000e+00 1.013250000000e+05 1.013250000000e+05 1.000000000000e+00 2.220446049250e-16 0.000000000000e+00 0.000000000000e+00 0.000000000000e+00 0.000000000000e+00 
0.000000000000e+00 0.000000000000e+00 6.315789473684e-01 0.000000000000e+00 1.013250000000e+05 1.013250000000e+05 1.000000000000e+00 1.110223024625e-16 0.000000000000e+00 0.000000000000e+00 0.000000000000e+00 0.000000000000e+00 
0.000000000000e+00 0.000000000000e+00 6.842105263158e-01 0.000000000000e+00 1.013250000000e+05 1.013250000000e+05 1.000000000000e+00 2.220446049250e-16 0.000000000000e+00 0.000000000000e+00 0.000000000000e+00 0.000000000000e+00 
0.000000000000e+00 0.000000000000e+00 7.368421052631e-01 0.000000000000e+00 1.013250000000e+05 1.013250000000e+05 1.000000000000e+00 2.220446049250e-16 0.000000000000e+00 0.000000000000e+00 0.000000000000e+00 0.000000000000e+00 
0.000000000000e+00 0.000000000000e+00 7.894736842105e-01 0.000000000000e+00 1.013250000000e+05 1.013250000000e+05 1.000000000000e+00 2.220446049250e-16 0.000000000000e+00 0.000000000000e+00 0.000000000000e+00 0.000000000000e+00 
0.000000000000e+00 0.000000000000e+00 8.421052631579e-01 0.000000000000e+00 1.013250000000e+05 1.013250000000e+05 1.000000000000e+00 2.220446049250e-16 0.000000000000e+00 0.000000000000e+00 0.000000000000e+00 0.000000000000e+00 
0.000000000000e+00 0.000000000000e+00 8.947368421053e-01 0.000000000000e+00 1.013250000000e+05 1.013250000000e+05 1.000000000000e+00 1.110223024625e-16 0.000000000000e+00 0.000000000000e+00 0.000000000000e+00 0.000000000000e+00 
0.000000000000e+00 0.000000000000e+00 9.473684210526e-01 0.000000000000e+00 1.013250000000e+05 1.013250000000e+05 1.000000000000e+00 2.220446049250e-16 0.000000000000e+00 0.000000000000e+00 0.000000000000e+00 0.000000000000e+00 
5.004875982315e-02 0.000000000000e+00 1.315897463623e-01 0.000000000000e+00 1.013250000000e+05 1.013250000000e+05 1.000000000000e+00 2.220446049250e-16 0.000000000000e+00 0.000000000000e+00 0.000000000000e+00 0.000000000000e+00 
4.996587977644e-02 0.000000000000e+00 8.157235458635e-01 0.000000000000e+00 1.013250000000e+05 1.013250000000e+05 1.000000000000e+00 2.220446049250e-16 0.000000000000e+00 0.000000000000e+00 0.000000000000e+00 0.000000000000e+00 
5.005418120630e-02 0.000000000000e+00 2.368736435449e-01 0.000000000000e+00 1.013250000000e+05 1.013250000000e+05 1.000000000000e+00 1.110223024625e-16 0.000000000000e+00 0.000000000000e+00 0.000000000000e+00 0.000000000000e+00 
4.930219925596e-02 0.000000000000e+00 4.474163218213e-01 0.000000000000e+00 1.013250000000e+05 1.013250000000e+05 1.000000000000e+00 2.220446049250e-16 0.000000000000e+00 0.000000000000e+00 0.000000000000e+00 0.000000000000e+00 
5.003885161692e-02 0.000000000000e+00 9.682205693950e-01 0.000000000000e+00 1.013250000000e+05 1.013250000000e+05 1.000000000000e+00 2.220446049250e-16 0.000000000000e+00 0.000000000000e+00 0.000000000000e+00 0.000000000000e+00 
4.927263472712e-02 0.000000000000e+00 5.525782080655e-01 0.000000000000e+00 1.013250000000e+05 1.013250000000e+05 1.000000000000e+00 2.220446049250e-16 0.000000000000e+00 0.000000000000e+00 0.000000000000e+00 0.000000000000e+00 
5.001671943120e-02 0.000000000000e+00 3.421781001610e-01 0.000000000000e+00 1.013250000000e+05 1.013250000000e+05 1.000000000000e+00 2.220446049250e-16 0.000000000000e+00 0.000000000000e+00 0.000000000000e+00 0.000000000000e+00 
5.038000531035e-02 0.000000000000e+00 7.103956692128e-01 0.000000000000e+00 1.013250000000e+05 1.013250000000e+05 1.000000000000e+00 1.110223024625e-16 0.000000000000e+00 0.000000000000e+00 0.000000000000e+00 0.000000000000e+00 
5.044966027600e-02 0.000000000000e+00 3.163764606507e-02 0.000000000000e+00 1.013250000000e+05 1.013250000000e+05 1.000000000000e+00 1.110223024625e-16 0.000000000000e+00 0.000000000000e+00 0.000000000000e+00 0.000000000000e+00 
4.966059977814e-02 0.000000000000e+00 6.565186924197e-01 0.000000000000e+00 1.013250000000e+05 1.013250000000e+05 1.000000000000e+00 1.110223024625e-16 0.000000000000e+00 0.000000000000e+00 0.000000000000e+00 0.000000000000e+00 
4.963313618498e-02 0.000000000000e+00 9.192141406196e-01 0.000000000000e+00 1.013250000000e+05 1.013250000000e+05 1.000000000000e+00 1.110223024625e-16 0.000000000000e+00 0.000000000000e+00 0.000000000000e+00 0.000000000000e+00 
5.212391606825e-02 0.000000000000e+00 2.895238508574e-01 0.000000000000e+00 1.013250000000e+05 1.013250000000e+05 1.000000000000e+00 1.110223024625e-16 0.000000000000e+00 0.000000000000e+00 0.000000000000e+00 0.000000000000e+00 
4.795755155494e-02 0.000000000000e+00 1.842277056820e-01 0.000000000000e+00 1.013250000000e+05 1.013250000000e+05 1.000000000000e+00 1.110223024625e-16 0.000000000000e+00 0.000000000000e+00 0.000000000000e+00 0.000000000000e+00 
4.780146615200e-02 0.000000000000e+00 5.000384367359e-01 0.000000000000e+00 1.013250000000e+05 1.013250000000e+05 1.000000000000e+00 1.110223024625e-16 0.000000000000e+00 0.000000000000e+00 0.000000000000e+00 0.000000000000e+00 
4.783702757909e-02 0.000000000000e+00 3.947923954782e-01 0.000000000000e+00 1.013250000000e+05 1.013250000000e+05 1.000000000000e+00 1.110223024625e-16 0.000000000000e+00 0.000000000000e+00 0.000000000000e+00 0.000000000000e+00 
5.218158768062e-02 0.000000000000e+00 7.631920623808e-01 0.000000000000e+00 1.013250000000e+05 1.013250000000e+05 1.000000000000e+00 1.110223024625e-16 0.000000000000e+00 0.000000000000e+00 0.000000000000e+00 0.000000000000e+00 
5.220914573457e-02 0.000000000000e+00 7.941970554122e-02 0.000000000000e+00 1.013250000000e+05 1.013250000000e+05 1.000000000000e+00 1.110223024625e-16 0.000000000000e+00 0.000000000000e+00 0.000000000000e+00 0.000000000000e+00 
4.747042649413e-02 0.000000000000e+00 6.045337204113e-01 0.000000000000e+00 1.013250000000e+05 1.013250000000e+05 1.000000000000e+00 1.110223024625e-16 0.000000000000e+00 0.000000000000e+00 0.000000000000e+00 0.000000000000e+00 
4.751725086677e-02 0.000000000000e+00 8.676386343643e-01 0.000000000000e+00 1.013250000000e+05 1.013250000000e+05 1.000000000000e+00 1.110223024625e-16 0.000000000000e+00 0.000000000000e+00 0.000000000000e+00 0.000000000000e+00 
21  59  20  21
16  58  15  16
23  57  24  23
36  56  37  36
12  55  11  12
14  54  13  14
27  52  28  27
8  53  7  8
43  52  27  43
24  57  41  24
11  55  47  11
48  56  36  48
37  56  42  37
13  54  44  13
49  57  23  49
43  53  8  43
44  55  12  44
7  53  41  7
46  54  14  46
28  52  47  28
51  59  21  51
50  58  16  50
40  51  45  40
45  51  22  45
48  50  17  48
35  50  48  35
20  59  42  20
15  58  46  15
39  51  40  39
11  47  10  11
34  50  35  34
3  45  22  3
18  48  17  18
22  51  21  22
32  46  33  32
17  50  16  17
15  46  14  15
24  41  25  24
7  41  6  7
9  43  8  9
28  47  29  28
30  44  31  30
37  42  38  37
26  43  27  26
13  44  12  13
20  42  19  20
40  45  4  40
35  48  36  35
1  49  23  1
5  49  2  5
47  52  10  47
9  52  43  9
26  53  43  26
32  54  46  32
44  54  31  44
41  53  25  41
47  55  29  47
30  55  44  30
42  56  19  42
18  56  48  18
41  57  6  41
5  57  49  5
42  59  38  42
46  58  33  46
39  59  51  39
34  58  50  34
25  53  26  25
10  52  9  10
31  54  32  31
19  56  18  19
29  55  30  29
6  57  5  6
38  59  39  38
33  58  34  33
4  45  3  4
2  49  1  2
VARIABLES  = "X","Y","Z", "PRESSURE1", "PRESSURE2", "PRESSURE_W", "SATURATION1", SATURATION2, "VELOCITY_X1", "VELOCITY_Y1", "VELOCITY_X2", "VELOCITY_Y2"
ZONE T="1.000000000000e-03s", N=59, E=76, F=FEPOINT, ET=QUADRILATERAL
STRANDID=1, SOLUTIONTIME=1.000000000000e-03
0.000000000000e+00 0.000000000000e+00 0.000000000000e+00 0.000000000000e+00 1.013250000000e+05 1.013250000000e+05 1.000000000000e+00 6.883382752676e-15 -5.582347512245e-14 -2.616649008090e-04 -4.803301568106e-19 1.930517993732e-11 
1.000000000000e-01 0.000000000000e+00 0.000000000000e+00 0.000000000000e+00 1.013250000000e+05 1.013250000000e+05 1.000000000000e+00 2.442490654175e-15 5.671614781022e-14 -2.616649008092e-04 4.881977211012e-19 1.930443213849e-11 
1.000000000000e-01 0.000000000000e+00 1.000000000000e+00 1.195869083699e+02 1.013250000000e+05 1.012054130916e+05 9.999603332245e-01 3.966677545875e-05 1.021330942184e-07 -2.610636721470e-04 -8.472824188708e-11 -5.209761615133e-10 
0.000000000000e+00 0.000000000000e+00 1.000000000000e+00 1.195168078533e+02 1.013250000000e+05 1.012054831921e+05 9.999565834670e-01 4.341653296847e-05 -7.322026078975e-08 -2.610758838238e-04 8.462851116133e-11 -5.209864484600e-10 
1.000000000000e-01 0.000000000000e+00 5.263157894737e-02 1.487468913241e-07 1.013187522433e+05 1.013187522431e+05 9.999999999999e-01 5.462297281156e-14 4.419358447194e-14 -2.616649002550e-04 3.677923162787e-19 1.930308613226e-11 
1.000000000000e-01 0.000000000000e+00 1.052631578947e-01 1.492107211477e-07 1.013125044846e+05 1.013125044845e+05 9.999999999999e-01 5.639932965096e-14 3.848550841212e-14 -2.616648993858e-04 2.546008249907e-19 1.930222082580e-11 
1.000000000000e-01 0.000000000000e+00 1.578947368421e-01 1.507217826109e-07 1.013062567243e+05 1.013062567242e+05 9.999999999999e-01 5.706546346573e-14 3.870239015668e-14 -2.616648984967e-04 2.587482290072e-19 1.930130850505e-11 
1.000000000000e-01 0.000000000000e+00 2.105263157895e-01 1.496414351139e-07 1.013000089622e+05 1.013000089621e+05 9.999999999999e-01 5.684341886081e-14 3.762950655072e-14 -2.616648975941e-04 2.512766247242e-19 1.930025916728e-11 
1.000000000000e-01 0.000000000000e+00 2.631578947368e-01 1.462556052318e-07 1.012937611984e+05 1.012937611982e+05 9.999999999999e-01 5.506706202141e-14 2.943724393844e-14 -2.616648967215e-04 1.785099789497e-19 1.929891044343e-11 
1.000000000000e-01 0.000000000000e+00 3.157894736842e-01 1.437868763845e-07 1.012875134329e+05 1.012875134327e+05 9.999999999999e-01 5.428990590417e-14 2.652453258633e-14 -2.616648958915e-04 1.578603110629e-19 1.929768386251e-11 
1.000000000000e-01 0.000000000000e+00 3.684210526316e-01 1.423740302919e-07 1.012812656658e+05 1.012812656656e+05 9.999999999999e-01 5.373479439186e-14 2.546946052462e-14 -2.616648950574e-04 1.579150980651e-19 1.929705864434e-11 
1.000000000000e-01 0.000000000000e+00 4.210526315789e-01 1.376533865844e-07 1.012750178970e+05 1.012750178969e+05 9.999999999999e-01 5.218048215738e-14 2.811395097524e-14 -2.616648942482e-04 1.855566220262e-19 1.929639315650e-11 
1.000000000000e-01 0.000000000000e+00 4.736842105263e-01 1.337486565179e-07 1.012687701268e+05 1.012687701266e+05 9.999999999999e-01 5.051514762044e-14 2.660730388015e-14 -2.616648934579e-04 1.683452430377e-19 1.929492655305e-11 
1.000000000000e-01 0.000000000000e+00 5.263157894737e-01 1.327120643431e-07 1.012625223550e+05 1.012625223548e+05 1.000000000000e+00 4.996003610813e-14 4.331872332841e-14 -2.616648927003e-04 2.830696721295e-19 1.929368131356e-11 
1.000000000000e-01 0.000000000000e+00 5.789473684210e-01 1.338825433062e-07 1.012562745817e+05 1.012562745815e+05 9.999999999999e-01 5.084821452783e-14 1.228933688253e-13 -2.616648918609e-04 8.320071988463e-19 1.929289973006e-11 
1.000000000000e-01 0.000000000000e+00 6.315789473684e-01 1.350694830161e-07 1.012500268065e+05 1.012500268064e+05 9.999999999999e-01 5.107025913276e-14 4.514807369560e-13 -2.616648907540e-04 3.031103125584e-18 1.929179249720e-11 
1.000000000000e-01 0.000000000000e+00 6.842105263158e-01 1.370124027736e-07 1.012437790282e+05 1.012437790281e+05 9.999999999999e-01 5.195843755246e-14 2.046409179456e-12 -2.616648883409e-04 1.369733259663e-17 1.929029987637e-11 
1.000000000000e-01 0.000000000000e+00 7.368421052631e-01 1.396989420667e-07 1.012375312407e+05 1.012375312405e+05 9.999999999999e-01 5.284661597216e-14 9.822967112995e-12 -2.616648794248e-04 6.564763685830e-17 1.928978360468e-11 
1.000000000000e-01 0.000000000000e+00 7.894736842105e-01 1.432447990409e-07 1.012312834132e+05 1.012312834130e+05 9.999999999999e-01 5.395683899678e-14 4.692883207462e-11 -2.616648415438e-04 3.135785273721e-16 1.928876812458e-11 
1.000000000000e-01 0.000000000000e+00 8.421052631579e-01 1.590028186064e-07 1.012250354094e+05 1.012250354092e+05 1.000000000000e+00 0.000000000000e+00 1.964099550389e-10 -2.616646830248e-04 1.297752980131e-15 1.928846923284e-11 
1.000000000000e-01 0.000000000000e+00 8.947368421053e-01 2.666017405983e-05 1.012187867208e+05 1.012187866941e+05 1.000000000000e+00 0.000000000000e+00 6.472588897108e-10 -2.616639724920e-04 -2.760620844523e-14 1.922556380151e-11 
1.000000000000e-01 0.000000000000e+00 9.473684210526e-01 5.783358552561e-02 1.012125930406e+05 1.012125352070e+05 1.000000000000e+00 0.000000000000e+00 6.213789081763e-08 -2.615140354342e-04 -5.640259395515e-11 -1.165336166327e-10 
0.000000000000e+00 0.000000000000e+00 5.263157894737e-02 1.487306218151e-07 1.013187522433e+05 1.013187522431e+05 9.999999999999e-01 5.773159728051e-14 -4.203524440526e-14 -2.616649002573e-04 -3.521611435664e-19 1.930313537198e-11 
0.000000000000e+00 0.000000000000e+00 1.052631578947e-01 1.492314695696e-07 1.013125044846e+05 1.013125044845e+05 9.999999999999e-01 5.639932965096e-14 -3.691809251904e-14 -2.616648993828e-04 -2.442198146734e-19 1.930239699993e-11 
0.000000000000e+00 0.000000000000e+00 1.578947368421e-01 1.506136569774e-07 1.013062567243e+05 1.013062567242e+05 9.999999999999e-01 5.706546346573e-14 -4.037562757730e-14 -2.616648984936e-04 -2.704237542912e-19 1.930112377332e-11 
0.000000000000e+00 0.000000000000e+00 2.105263157895e-01 1.495213436255e-07 1.013000089622e+05 1.013000089621e+05 9.999999999999e-01 5.662137425588e-14 -3.902299795299e-14 -2.616648975976e-04 -2.610810000338e-19 1.930038673917e-11 
0.000000000000e+00 0.000000000000e+00 2.631578947368e-01 1.462423489285e-07 1.012937611984e+05 1.012937611982e+05 9.999999999999e-01 5.506706202141e-14 -2.753874287009e-14 -2.616648967248e-04 -1.670527896394e-19 1.929882001298e-11 
0.000000000000e+00 0.000000000000e+00 3.157894736842e-01 1.437132775832e-07 1.012875134329e+05 1.012875134327e+05 9.999999999999e-01 5.417888360171e-14 -2.503045834601e-14 -2.616648958876e-04 -1.492410509382e-19 1.929779050338e-11 
0.000000000000e+00 0.000000000000e+00 3.684210526316e-01 1.422653109240e-07 1.012812656658e+05 1.012812656656e+05 9.999999999999e-01 5.373479439186e-14 -2.709869295358e-14 -2.616648950537e-04 -1.685660808203e-19 1.929723375868e-11 
0.000000000000e+00 0.000000000000e+00 4.210526315789e-01 1.374725736651e-07 1.012750178970e+05 1.012750178969e+05 9.999999999999e-01 5.195843755246e-14 -2.994434908032e-14 -2.616648942511e-04 -1.982520272000e-19 1.929535507282e-11 
0.000000000000e+00 0.000000000000e+00 4.736842105263e-01 1.331052411751e-07 1.012687701268e+05 1.012687701266e+05 9.999999999999e-01 5.018208071306e-14 -2.298108302057e-14 -2.616648934632e-04 -1.448657738965e-19 1.929435793550e-11 
0.000000000000e+00 0.000000000000e+00 5.263157894737e-01 1.325627584212e-07 1.012625223550e+05 1.012625223549e+05 9.999999999999e-01 5.007105841059e-14 -9.641284123062e-15 -2.616648927389e-04 -5.828720945352e-20 1.929370702897e-11 
0.000000000000e+00 0.000000000000e+00 5.789473684210e-01 1.331992132115e-07 1.012562745819e+05 1.012562745817e+05 9.999999999999e-01 5.051514762044e-14 5.174987018108e-14 -2.616648920354e-04 3.330774910670e-19 1.929253640145e-11 
0.000000000000e+00 0.000000000000e+00 6.315789473684e-01 1.353543372033e-07 1.012500268076e+05 1.012500268074e+05 9.999999999999e-01 5.151434834261e-14 4.020316991955e-13 -2.616648916128e-04 2.672676965802e-18 1.929127289784e-11 
0.000000000000e+00 0.000000000000e+00 6.842105263158e-01 1.364969803215e-07 1.012437790334e+05 1.012437790333e+05 9.999999999999e-01 5.195843755246e-14 2.184359589591e-12 -2.616648924973e-04 1.457600380791e-17 1.929008342267e-11 
0.000000000000e+00 0.000000000000e+00 7.368421052631e-01 1.397594586073e-07 1.012375312660e+05 1.012375312659e+05 9.999999999999e-01 5.295763827462e-14 1.081131503451e-11 -2.616648995622e-04 7.224249466675e-17 1.928883653273e-11 
0.000000000000e+00 0.000000000000e+00 7.894736842105e-01 1.429860479872e-07 1.012312835361e+05 1.012312835359e+05 9.999999999999e-01 5.428990590417e-14 5.323095247149e-11 -2.616649393272e-04 3.557069959313e-16 1.928777620903e-11 
0.000000000000e+00 0.000000000000e+00 8.421052631579e-01 1.581857625647e-07 1.012250360069e+05 1.012250360067e+05 9.999999999996e-01 3.522737657136e-13 2.942896010350e-10 -2.616651680457e-04 1.983203527105e-15 1.928490598712e-11 
0.000000000000e+00 0.000000000000e+00 8.947368421053e-01 2.778199824015e-05 1.012187896855e+05 1.012187896577e+05 9.999999993743e-01 6.257034890211e-10 1.709658368670e-09 -2.616663471940e-04 4.407511546203e-14 1.920928338062e-11 
0.000000000000e+00 0.000000000000e+00 9.473684210526e-01 5.827343428256e-02 1.012126079062e+05 1.012125496328e+05 9.999987182855e-01 1.281714485102e-06 -5.137700017569e-08 -2.615241484340e-04 5.636455434307e-11 -1.165535156912e-10 
5.004875982315e-02 0.000000000000e+00 1.315897463623e-01 1.486966205193e-07 1.013093793228e+05 1.013093793226e+05 9.999999999999e-01 5.628830734850e-14 -7.962808012961e-17 -2.616648989414e-04 -6.271787845922e-22 1.930185976072e-11 
4.996587977644e-02 0.000000000000e+00 8.157235458635e-01 1.464945639171e-07 1.012281674046e+05 1.012281674045e+05 9.999999999999e-01 5.617728504603e-14 9.738693677353e-11 -2.616648821875e-04 6.507353274762e-16 1.928741805212e-11 
5.005418120630e-02 0.000000000000e+00 2.368736435449e-01 1.464414929532e-07 1.012968813367e+05 1.012968813365e+05 9.999999999999e-01 5.551115123126e-14 2.572196535766e-16 -2.616648971519e-04 1.495659220567e-21 1.929915438567e-11 
4.930219925596e-02 0.000000000000e+00 4.474163218213e-01 1.384503401819e-07 1.012718883259e+05 1.012718883258e+05 9.999999999999e-01 5.218048215738e-14 1.905311364680e-15 -2.616648938493e-04 1.206082081928e-20 1.929511891831e-11 
5.003885161692e-02 0.000000000000e+00 9.682205693950e-01 1.804777455354e-01 1.012102369522e+05 1.012100564745e+05 9.999999338811e-01 6.611891856245e-08 9.342996720520e-09 -2.613474591821e-04 -2.926597565003e-14 -2.781874464090e-10 
4.927263472712e-02 0.000000000000e+00 5.525782080655e-01 1.378900874879e-07 1.012594048041e+05 1.012594048040e+05 9.999999999999e-01 5.195843755246e-14 3.662682138383e-14 -2.616648923398e-04 2.438978801803e-19 1.929294321582e-11 
5.001671943120e-02 0.000000000000e+00 3.421781001610e-01 1.409135720225e-07 1.012843809032e+05 1.012843809031e+05 9.999999999999e-01 5.329070518201e-14 -6.443588063120e-17 -2.616648954716e-04 -6.307196424276e-22 1.929692838992e-11 
5.038000531035e-02 0.000000000000e+00 7.103956692128e-01 1.438166750072e-07 1.012406706506e+05 1.012406706505e+05 9.999999999999e-01 5.440092820663e-14 4.118611570447e-12 -2.616648897590e-04 2.752355385733e-17 1.928991994987e-11 
5.044966027600e-02 0.000000000000e+00 3.163764606507e-02 1.491635620380e-07 1.013212443783e+05 1.013212443781e+05 9.999999999999e-01 5.662137425588e-14 -6.751623004670e-16 -2.616649005560e-04 -3.774104868728e-21 1.930353567303e-11 
4.966059977814e-02 0.000000000000e+00 6.565186924197e-01 1.420633365780e-07 1.012470662662e+05 1.012470662661e+05 9.999999999999e-01 5.373479439186e-14 8.412140887230e-13 -2.616648907619e-04 5.621654615751e-18 1.929116890732e-11 
4.963313618498e-02 0.000000000000e+00 9.192141406196e-01 1.346336367546e-04 1.012158816276e+05 1.012158814930e+05 9.999999999504e-01 4.960065691506e-11 2.321347079899e-09 -2.616637375753e-04 1.598653211758e-14 1.900566659280e-11 
5.212391606825e-02 0.000000000000e+00 2.895238508574e-01 1.365386698709e-07 1.012906313606e+05 1.012906313605e+05 9.999999999999e-01 5.184741524999e-14 6.391201168298e-17 -2.616648963032e-04 -3.296278338869e-22 1.929836210677e-11 
4.795755155494e-02 0.000000000000e+00 1.842277056820e-01 1.519122958536e-07 1.013031308042e+05 1.013031308040e+05 9.999999999999e-01 5.750955267558e-14 -6.234040483830e-17 -2.616648980440e-04 -6.865573815613e-22 1.930024721574e-11 
4.780146615200e-02 0.000000000000e+00 5.000384367359e-01 1.244541318392e-07 1.012656416783e+05 1.012656416782e+05 1.000000000000e+00 4.707345624411e-14 7.009366527199e-15 -2.616648930903e-04 4.672043457292e-20 1.929427423202e-11 
4.783702757909e-02 0.000000000000e+00 3.947923954782e-01 1.356826877177e-07 1.012781351870e+05 1.012781351868e+05 9.999999999999e-01 5.129230373768e-14 1.576845534146e-16 -2.616648946502e-04 1.148455864001e-21 1.929624718704e-11 
5.218158768062e-02 0.000000000000e+00 7.631920623808e-01 1.383548332708e-07 1.012344033053e+05 1.012344033052e+05 9.999999999999e-01 5.229150445984e-14 1.999105908908e-11 -2.616648881090e-04 1.335880040906e-16 1.928922595745e-11 
5.220914573457e-02 0.000000000000e+00 7.941970554122e-02 1.485710662286e-07 1.013155722943e+05 1.013155722941e+05 9.999999999999e-01 5.628830734850e-14 -1.068692654371e-16 -2.616648998103e-04 -7.460566885461e-22 1.930212948140e-11 
4.747042649413e-02 0.000000000000e+00 6.045337204113e-01 1.359049133018e-07 1.012532372845e+05 1.012532372843e+05 9.999999999999e-01 5.151434834261e-14 1.739726867527e-13 -2.616648915686e-04 1.162023077966e-18 1.929172323263e-11 
4.751725086677e-02 0.000000000000e+00 8.676386343643e-01 2.301725407520e-07 1.012220046461e+05 1.012220046458e+05 9.999999999999e-01 8.715250743307e-14 4.832970589039e-10 -2.616648057183e-04 3.229531412285e-15 1.928786922618e-11 
21  59  20  21
16  58  15  16
23  57  24  23
36  56  37  36
12  55  11  12
14  54  13  14
27  52  28  27
8  53  7  8
43  52  27  43
24  57  41  24
11  55  47  11
48  56  36  48
37  56  42  37
13  54  44  13
49  57  23  49
43  53  8  43
44  55  12  44
7  53  41  7
46  54  14  46
28  52  47  28
51  59  21  51
50  58  16  50
40  51  45  40
45  51  22  45
48  50  17  48
35  50  48  35
20  59  42  20
15  58  46  15
39  51  40  39
11  47  10  11
34  50  35  34
3  45  22  3
18  48  17  18
22  51  21  22
32  46  33  32
17  50  16  17
15  46  14  15
24  41  25  24
7  41  6  7
9  43  8  9
28  47  29  28
30  44  31  30
37  42  38  37
26  43  27  26
13  44  12  13
20  42  19  20
40  45  4  40
35  48  36  35
1  49  23  1
5  49  2  5
47  52  10  47
9  52  43  9
26  53  43  26
32  54  46  32
44  54  31  44
41  53  25  41
47  55  29  47
30  55  44  30
42  56  19  42
18  56  48  18
41  57  6  41
5  57  49  5
42  59  38  42
46  58  33  46
39  59  51  39
34  58  50  34
25  53  26  25
10  52  9  10
31  54  32  31
19  56  18  19
29  55  30  29
6  57  5  6
38  59  39  38
33  58  34  33
4  45  3  4
2  49  1  2