 TITLE = "Time curves in points"
 VARIABLES = "TIME "  "PRESSURE1"  "PRESSURE2"  "PRESSURE_W"  "SATURATION1" SATURATION2  "VELOCITY_X1"  "VELOCITY_Y1"  "VELOCITY_X2"  "VELOCITY_Y2" 
 ZONE T="POINT=POINT0"
0.000000000000e+00 0.000000000000e+00 1.013250000000e+05 1.013250000000e+05 1.000000000000e+00 2.220446049250e-16 0.000000000000e+00 0.000000000000e+00 0.000000000000e+00 0.000000000000e+00 
1.000000000000e-03 0.000000000000e+00 1.013250000000e+05 1.013250000000e+05 1.000000000000e+00 6.883382752676e-15 -5.582347512245e-14 -2.616649008090e-04 -4.803301568106e-19 1.930517993732e-11 
2.000000000000e-03 0.000000000000e+00 1.013250000000e+05 1.013250000000e+05 1.000000000000e+00 3.774758283726e-14 -2.391388406977e-13 -2.585059663527e-04 -2.168384641515e-18 4.043412717515e-11 
3.000000000000e-03 0.000000000000e+00 1.013250000000e+05 1.013250000000e+05 9.999999999999e-01 1.084687895059e-13 -5.520677659659e-13 -2.553924869357e-04 -5.323867838393e-18 6.125880806199e-11 
4.000000000000e-03 0.000000000000e+00 1.013250000000e+05 1.013250000000e+05 9.999999999998e-01 2.351452366156e-13 -9.900117292994e-13 -2.523237644061e-04 -1.015411010447e-17 8.178390065809e-11 
5.000000000000e-03 0.000000000000e+00 1.013250000000e+05 1.013250000000e+05 9.999999999996e-01 4.317657342767e-13 -1.534746377727e-12 -2.492990980011e-04 -1.674679907862e-17 1.020141002793e-10 
6.000000000000e-03 0.000000000000e+00 1.013250000000e+05 1.013250000000e+05 9.999999999993e-01 7.132072710192e-13 -2.201733179386e-12 -2.463178519489e-04 -2.543213089823e-17 1.219536671702e-10 
7.000000000000e-03 0.000000000000e+00 1.013250000000e+05 1.013250000000e+05 9.999999999989e-01 1.092681500836e-12 -2.965772990128e-12 -2.433793448069e-04 -3.623114529007e-17 1.416071668950e-10 
8.000000000000e-03 0.000000000000e+00 1.013250000000e+05 1.013250000000e+05 9.999999999984e-01 1.582844966208e-12 -3.830009023642e-12 -2.404828858161e-04 -4.935613818380e-17 1.609792270197e-10 
9.000000000000e-03 0.000000000000e+00 1.013250000000e+05 1.013250000000e+05 9.999999999978e-01 2.196243187313e-12 -4.792197025351e-12 -2.376278772535e-04 -6.497647456631e-17 1.800738526078e-10 
1.000000000000e-02 0.000000000000e+00 1.013250000000e+05 1.013250000000e+05 9.999999999971e-01 2.944089416701e-12 -5.841917241875e-12 -2.348136739242e-04 -8.319189302468e-17 1.988953660174e-10 
2.000000000000e-02 0.000000000000e+00 1.013250000000e+05 1.013250000000e+05 9.999999999795e-01 2.053890391096e-11 -1.366788439839e-11 -2.259774901939e-04 -3.956837116289e-16 2.579894625676e-10 
3.000000000000e-02 0.000000000000e+00 1.013250000000e+05 1.013250000000e+05 9.999999999610e-01 3.895817002331e-11 -1.421805051930e-11 -2.175348131747e-04 -6.678098464143e-16 3.144500115845e-10 
4.000000000000e-02 0.000000000000e+00 1.013250000000e+05 1.013250000000e+05 9.999999999359e-01 6.413936048943e-11 -1.938288495525e-11 -2.094793271787e-04 -1.066933293476e-15 3.683189126659e-10 
5.000000000000e-02 0.000000000000e+00 1.013250000000e+05 1.013250000000e+05 9.999999999033e-01 9.673595258164e-11 -2.502113451964e-11 -2.017837808976e-04 -1.573598847084e-15 4.197785597125e-10 
6.000000000000e-02 0.000000000000e+00 1.013250000000e+05 1.013250000000e+05 9.999999998627e-01 1.372775226827e-10 -3.103726123187e-11 -1.944306554549e-04 -2.193425048993e-15 4.689462477226e-10 
7.000000000000e-02 0.000000000000e+00 1.013250000000e+05 1.013250000000e+05 9.999999998154e-01 1.846036656872e-10 -3.611357647904e-11 -1.898212057659e-04 -2.898894889005e-15 4.997652011951e-10 
8.000000000000e-02 0.000000000000e+00 1.013250000000e+05 1.013250000000e+05 9.999999997642e-01 2.357858353008e-10 -3.888299604614e-11 -1.853590675406e-04 -3.636053217549e-15 5.295982280249e-10 
9.000000000000e-02 0.000000000000e+00 1.013250000000e+05 1.013250000000e+05 9.999999997075e-01 2.924617215072e-10 -4.290862296418e-11 -1.810289621297e-04 -4.452333114422e-15 5.585473816175e-10 
1.000000000000e-01 0.000000000000e+00 1.013250000000e+05 1.013250000000e+05 9.999999996463e-01 3.536946291405e-10 -4.618476314970e-11 -1.775169237191e-04 -5.319509531025e-15 5.820255044163e-10 
2.000000000000e-01 0.000000000000e+00 1.013250000000e+05 1.013250000000e+05 9.999999987312e-01 1.268813720756e-09 -6.617570260353e-11 -1.549359380454e-04 -1.684151065378e-14 7.329228583515e-10 
3.000000000000e-01 0.000000000000e+00 1.013250000000e+05 1.013250000000e+05 9.999999975781e-01 2.421934430785e-09 -8.074314300802e-11 -1.385893876975e-04 -3.012165045210e-14 8.421034733728e-10 
4.000000000000e-01 0.000000000000e+00 1.013250000000e+05 1.013250000000e+05 9.999999962382e-01 3.761798095248e-09 -9.123107541024e-11 -1.258887742385e-04 -4.435601016896e-14 9.268848944046e-10 
5.000000000000e-01 0.000000000000e+00 1.013250000000e+05 1.013250000000e+05 9.999999947515e-01 5.248472101371e-09 -9.870128684898e-11 -1.155948029876e-04 -5.898935619959e-14 9.955592325432e-10 
6.000000000000e-01 0.000000000000e+00 1.013250000000e+05 1.013250000000e+05 9.999999931619e-01 6.838142052601e-09 -1.030156079816e-10 -1.075180336288e-04 -7.347454968420e-14 1.049398887665e-09 
7.000000000000e-01 0.000000000000e+00 1.013250000000e+05 1.013250000000e+05 9.999999914927e-01 8.507258897339e-09 -1.058033550630e-10 -1.006675072840e-04 -8.760055704580e-14 1.095031865813e-09 
8.000000000000e-01 0.000000000000e+00 1.013250000000e+05 1.013250000000e+05 9.999999897627e-01 1.023730311633e-08 -1.074770434715e-10 -9.476290072276e-05 -1.012333252662e-13 1.134334453217e-09 
9.000000000000e-01 0.000000000000e+00 1.013250000000e+05 1.013250000000e+05 9.999999879866e-01 1.201341937040e-08 -1.083130528547e-10 -8.961525297975e-05 -1.142937844865e-13 1.168571628109e-09 
1.000000000000e+00 0.000000000000e+00 1.013250000000e+05 1.013250000000e+05 9.999999861763e-01 1.382367864622e-08 -1.085384615499e-10 -8.508363951948e-05 -1.267419114426e-13 1.198686846492e-09 
2.000000000000e+00 0.000000000000e+00 1.013250000000e+05 1.013250000000e+05 9.999999684373e-01 3.156273764571e-08 -9.682428409655e-11 -6.353839132717e-05 -2.051808992661e-13 1.340963589857e-09 
3.000000000000e+00 0.000000000000e+00 1.013250000000e+05 1.013250000000e+05 9.999999516310e-01 4.836900324712e-08 -8.708736838329e-11 -5.061798752609e-05 -2.580604230328e-13 1.425672724084e-09 
4.000000000000e+00 0.000000000000e+00 1.013250000000e+05 1.013250000000e+05 9.999999359049e-01 6.409511810190e-08 -7.878515779048e-11 -4.244258420657e-05 -2.953585848533e-13 1.478769128042e-09 
5.000000000000e+00 0.000000000000e+00 1.013250000000e+05 1.013250000000e+05 9.999999212441e-01 7.875587237915e-08 -7.163861016784e-11 -3.702456085514e-05 -3.224808771990e-13 1.513538899238e-09 
6.000000000000e+00 0.000000000000e+00 1.013250000000e+05 1.013250000000e+05 9.999999075580e-01 9.244201004677e-08 -6.556070543315e-11 -3.323391134429e-05 -3.427375313048e-13 1.537526797367e-09 
7.000000000000e+00 0.000000000000e+00 1.013250000000e+05 1.013250000000e+05 9.999998947344e-01 1.052655613787e-07 -6.040800601371e-11 -3.048868739457e-05 -3.582365733653e-13 1.554611825230e-09 
8.000000000000e+00 0.000000000000e+00 1.013250000000e+05 1.013250000000e+05 9.999998826570e-01 1.173430040913e-07 -5.607271212408e-11 -2.841045293946e-05 -3.703941762227e-13 1.567312085322e-09 
9.000000000000e+00 0.000000000000e+00 1.013250000000e+05 1.013250000000e+05 9.999998712264e-01 1.287735674760e-07 -5.237035163308e-11 -2.680659482099e-05 -3.800881584284e-13 1.576905285841e-09 
1.000000000000e+01 0.000000000000e+00 1.013250000000e+05 1.013250000000e+05 9.999998603521e-01 1.396478885862e-07 -4.921174207525e-11 -2.553485653087e-05 -3.879237003579e-13 1.584333353703e-09 
1.100000000000e+01 0.000000000000e+00 1.013250000000e+05 1.013250000000e+05 9.999998499449e-01 1.500550731448e-07 -4.657062182965e-11 -2.448268578758e-05 -3.943611373382e-13 1.590339824920e-09 
1.200000000000e+01 0.000000000000e+00 1.013250000000e+05 1.013250000000e+05 9.999998399238e-01 1.600761807552e-07 -4.437834621436e-11 -2.358682309975e-05 -3.996957714964e-13 1.595339542275e-09 
1.300000000000e+01 0.000000000000e+00 1.013250000000e+05 1.013250000000e+05 9.999998302141e-01 1.697859206562e-07 -4.258425916499e-11 -2.281364818412e-05 -4.041108235559e-13 1.599549863356e-09 
1.400000000000e+01 0.000000000000e+00 1.013250000000e+05 1.013250000000e+05 9.999998207424e-01 1.792576258541e-07 -4.117371955038e-11 -2.213328438615e-05 -4.077346804263e-13 1.603163274193e-09 
1.500000000000e+01 0.000000000000e+00 1.013250000000e+05 1.013250000000e+05 9.999998114363e-01 1.885637082033e-07 -4.013236913334e-11 -2.152491641975e-05 -4.106484982369e-13 1.606311758618e-09 
1.600000000000e+01 0.000000000000e+00 1.013250000000e+05 1.013250000000e+05 9.999998022225e-01 1.977774559681e-07 -3.945885943402e-11 -2.097469901091e-05 -4.129074948030e-13 1.609080624301e-09 
1.700000000000e+01 0.000000000000e+00 1.013250000000e+05 1.013250000000e+05 9.999997930269e-01 2.069730566934e-07 -3.915299238949e-11 -2.047146159387e-05 -4.145459148061e-13 1.611537212629e-09 
1.800000000000e+01 0.000000000000e+00 1.013250000000e+05 1.013250000000e+05 9.999997837744e-01 2.162256058647e-07 -3.921614468626e-11 -2.000751702803e-05 -4.155852013808e-13 1.613725495027e-09 
1.900000000000e+01 0.000000000000e+00 1.013250000000e+05 1.013250000000e+05 9.999997743894e-01 2.256106019782e-07 -3.964557854646e-11 -1.957831289092e-05 -4.160383654189e-13 1.615668494343e-09 
2.000000000000e+01 0.000000000000e+00 1.013250000000e+05 1.013250000000e+05 9.999997647959e-01 2.352041232889e-07 -4.044404109527e-11 -1.917765803529e-05 -4.159201804229e-13 1.617400069775e-09 
2.100000000000e+01 0.000000000000e+00 1.013250000000e+05 1.013250000000e+05 9.999997549185e-01 2.450815257404e-07 -4.160567334298e-11 -1.880208302233e-05 -4.152444651391e-13 1.618935971319e-09 
2.200000000000e+01 0.000000000000e+00 1.013250000000e+05 1.013250000000e+05 9.999997446837e-01 2.553162974372e-07 -4.311930741419e-11 -1.844994044680e-05 -4.140246365123e-13 1.620279961626e-09 
2.300000000000e+01 0.000000000000e+00 1.013250000000e+05 1.013250000000e+05 9.999997340199e-01 2.659801119353e-07 -4.497594739049e-11 -1.811678071701e-05 -4.122825194212e-13 1.621454713236e-09 
2.400000000000e+01 0.000000000000e+00 1.013250000000e+05 1.013250000000e+05 9.999997228590e-01 2.771409669533e-07 -4.715638191512e-11 -1.780199471656e-05 -4.100397805928e-13 1.622457647074e-09 
2.500000000000e+01 0.000000000000e+00 1.013250000000e+05 1.013250000000e+05 9.999997111373e-01 2.888627406161e-07 -4.964060754068e-11 -1.750303210185e-05 -4.073219769216e-13 1.623299482736e-09 
2.600000000000e+01 0.000000000000e+00 1.013250000000e+05 1.013250000000e+05 9.999996987952e-01 3.012047855577e-07 -5.240424232571e-11 -1.721850497631e-05 -4.041604593266e-13 1.623983637322e-09 
2.700000000000e+01 0.000000000000e+00 1.013250000000e+05 1.013250000000e+05 9.999996857791e-01 3.142209449303e-07 -5.542398873589e-11 -1.694716091468e-05 -4.005879008787e-13 1.624513173257e-09 
2.800000000000e+01 0.000000000000e+00 1.013250000000e+05 1.013250000000e+05 9.999996720408e-01 3.279592075689e-07 -5.866706931348e-11 -1.668800722858e-05 -3.966392788186e-13 1.624889997587e-09 
2.900000000000e+01 0.000000000000e+00 1.013250000000e+05 1.013250000000e+05 9.999996575385e-01 3.424614539727e-07 -6.210664412694e-11 -1.643998741388e-05 -3.923516939761e-13 1.625117047549e-09 
3.000000000000e+01 0.000000000000e+00 1.013250000000e+05 1.013250000000e+05 9.999996422368e-01 3.577632257112e-07 -6.571131873454e-11 -1.620229721569e-05 -3.877629949442e-13 1.625196200149e-09 
3.100000000000e+01 0.000000000000e+00 1.013250000000e+05 1.013250000000e+05 9.999996261064e-01 3.738936000808e-07 -6.944502160111e-11 -1.597477708173e-05 -3.829104938286e-13 1.625125774155e-09 
3.200000000000e+01 0.000000000000e+00 1.013250000000e+05 1.013250000000e+05 9.999996091243e-01 3.908757120197e-07 -7.328360967821e-11 -1.575582939730e-05 -3.778334556796e-13 1.624914046461e-09 
3.300000000000e+01 0.000000000000e+00 1.013250000000e+05 1.013250000000e+05 9.999995912737e-01 4.087262721608e-07 -7.719418293873e-11 -1.554603847349e-05 -3.725668703288e-13 1.624555474469e-09 
3.400000000000e+01 0.000000000000e+00 1.013250000000e+05 1.013250000000e+05 9.999995725433e-01 4.274566607343e-07 -8.115196970199e-11 -1.534364725239e-05 -3.671479629975e-13 1.624060687227e-09 
3.500000000000e+01 0.000000000000e+00 1.013250000000e+05 1.013250000000e+05 9.999995529274e-01 4.470726380212e-07 -8.512778837026e-11 -1.514854384016e-05 -3.616103420959e-13 1.623429871660e-09 
3.600000000000e+01 0.000000000000e+00 1.013250000000e+05 1.013250000000e+05 9.999995324251e-01 4.675748728200e-07 -8.910091258623e-11 -1.496029259468e-05 -3.559857771494e-13 1.622665879244e-09 
3.700000000000e+01 0.000000000000e+00 1.013250000000e+05 1.013250000000e+05 9.999995110408e-01 4.889592104540e-07 -9.304355635175e-11 -1.477900384116e-05 -3.503032191578e-13 1.621768477374e-09 
3.800000000000e+01 0.000000000000e+00 1.013250000000e+05 1.013250000000e+05 9.999994887827e-01 5.112173302457e-07 -9.693644548709e-11 -1.460383876906e-05 -3.445908648059e-13 1.620743999782e-09 
3.900000000000e+01 0.000000000000e+00 1.013250000000e+05 1.013250000000e+05 9.999994656631e-01 5.343368723043e-07 -1.007654984007e-10 -1.443470132163e-05 -3.388739061807e-13 1.619594311835e-09 
4.000000000000e+01 0.000000000000e+00 1.013250000000e+05 1.013250000000e+05 9.999994416980e-01 5.583019671018e-07 -1.045050853603e-10 -1.427115918947e-05 -3.331761792384e-13 1.618323871843e-09 
4.100000000000e+01 0.000000000000e+00 1.013250000000e+05 1.013250000000e+05 9.999994169065e-01 5.830934513007e-07 -1.081474080636e-10 -1.411294916302e-05 -3.275193805767e-13 1.616936332158e-09 
4.200000000000e+01 0.000000000000e+00 1.013250000000e+05 1.013250000000e+05 9.999993913108e-01 6.086892296864e-07 -1.116755623412e-10 -1.395981367238e-05 -3.219233737930e-13 1.615435596034e-09 
4.300000000000e+01 0.000000000000e+00 1.013250000000e+05 1.013250000000e+05 9.999993649354e-01 6.350645842534e-07 -1.150768716464e-10 -1.381163106819e-05 -3.164061575381e-13 1.613824916355e-09 
4.400000000000e+01 0.000000000000e+00 1.013250000000e+05 1.013250000000e+05 9.999993378075e-01 6.621925381367e-07 -1.183398978640e-10 -1.366832058759e-05 -3.109836264301e-13 1.612107567156e-09 
4.500000000000e+01 0.000000000000e+00 1.013250000000e+05 1.013250000000e+05 9.999993099557e-01 6.900443347835e-07 -1.214588260838e-10 -1.352884315388e-05 -3.056707044357e-13 1.610293250748e-09 
4.600000000000e+01 0.000000000000e+00 1.013250000000e+05 1.013250000000e+05 9.999992814105e-01 7.185895205541e-07 -1.244265338271e-10 -1.339372892125e-05 -3.004792433026e-13 1.608381430248e-09 
4.700000000000e+01 0.000000000000e+00 1.013250000000e+05 1.013250000000e+05 9.999992522034e-01 7.477965595637e-07 -1.272342735834e-10 -1.326191647476e-05 -2.954212495521e-13 1.606382311131e-09 
4.800000000000e+01 0.000000000000e+00 1.013250000000e+05 1.013250000000e+05 9.999992223673e-01 7.776327144438e-07 -1.298823942876e-10 -1.313350080096e-05 -2.905058238522e-13 1.604298488073e-09 
4.900000000000e+01 0.000000000000e+00 1.013250000000e+05 1.013250000000e+05 9.999991919356e-01 8.080644058328e-07 -1.323640563660e-10 -1.300833299245e-05 -2.857408372700e-13 1.602134268260e-09 
5.000000000000e+01 0.000000000000e+00 1.013250000000e+05 1.013250000000e+05 9.999991609426e-01 8.390574390837e-07 -1.346762989660e-10 -1.288626607994e-05 -2.811328175890e-13 1.599894006093e-09 
5.100000000000e+01 0.000000000000e+00 1.013250000000e+05 1.013250000000e+05 9.999991294227e-01 8.705772691631e-07 -1.368198356463e-10 -1.276713445117e-05 -2.766867796135e-13 1.597582214789e-09 
5.200000000000e+01 0.000000000000e+00 1.013250000000e+05 1.013250000000e+05 9.999990974108e-01 9.025892193648e-07 -1.387919507312e-10 -1.265116439959e-05 -2.724056347516e-13 1.595200826950e-09 
5.300000000000e+01 0.000000000000e+00 1.013250000000e+05 1.013250000000e+05 9.999990649412e-01 9.350588360268e-07 -1.405951274088e-10 -1.253774907076e-05 -2.682911115853e-13 1.592757271044e-09 
5.400000000000e+01 0.000000000000e+00 1.013250000000e+05 1.013250000000e+05 9.999990320479e-01 9.679521153494e-07 -1.422353409685e-10 -1.242690039040e-05 -2.643443608943e-13 1.590254818791e-09 
5.500000000000e+01 0.000000000000e+00 1.013250000000e+05 1.013250000000e+05 9.999989987645e-01 1.001235472864e-06 -1.437113279001e-10 -1.231850442940e-05 -2.605650573760e-13 1.587697541602e-09 
5.600000000000e+01 0.000000000000e+00 1.013250000000e+05 1.013250000000e+05 9.999989651242e-01 1.034875823369e-06 -1.450278565033e-10 -1.221249685854e-05 -2.569526678919e-13 1.585089130381e-09 
5.700000000000e+01 0.000000000000e+00 1.013250000000e+05 1.013250000000e+05 9.999989311594e-01 1.068840624119e-06 -1.461864324324e-10 -1.210882223118e-05 -2.535063458596e-13 1.582433163296e-09 
5.800000000000e+01 0.000000000000e+00 1.013250000000e+05 1.013250000000e+05 9.999988969021e-01 1.103097904576e-06 -1.471915662441e-10 -1.200739049703e-05 -2.502248169452e-13 1.579733393372e-09 
5.900000000000e+01 0.000000000000e+00 1.013250000000e+05 1.013250000000e+05 9.999988623836e-01 1.137616402191e-06 -1.480448924638e-10 -1.190813494337e-05 -2.471064012005e-13 1.576993347844e-09 
6.000000000000e+01 0.000000000000e+00 1.013250000000e+05 1.013250000000e+05 9.999988276343e-01 1.172365673985e-06 -1.487527572772e-10 -1.181100281809e-05 -2.441477016101e-13 1.574216379701e-09 
6.100000000000e+01 0.000000000000e+00 1.013250000000e+05 1.013250000000e+05 9.999987926837e-01 1.207316341345e-06 -1.493197435315e-10 -1.171658478637e-05 -2.413442446559e-13 1.571401448786e-09 
6.200000000000e+01 0.000000000000e+00 1.013250000000e+05 1.013250000000e+05 9.999987575596e-01 1.242440424321e-06 -1.497555669203e-10 -1.162368291757e-05 -2.386920985490e-13 1.568559309594e-09 
6.300000000000e+01 0.000000000000e+00 1.013250000000e+05 1.013250000000e+05 9.999987222889e-01 1.277711123571e-06 -1.500615444991e-10 -1.153263054679e-05 -2.361855653371e-13 1.565690374725e-09 
6.400000000000e+01 0.000000000000e+00 1.013250000000e+05 1.013250000000e+05 9.999986868972e-01 1.313102760969e-06 -1.502477942855e-10 -1.144338132244e-05 -2.338196260174e-13 1.562797484039e-09 
6.500000000000e+01 0.000000000000e+00 1.013250000000e+05 1.013250000000e+05 9.999986514093e-01 1.348590699113e-06 -1.503160922382e-10 -1.135589367518e-05 -2.315897295395e-13 1.559883342960e-09 
6.600000000000e+01 0.000000000000e+00 1.013250000000e+05 1.013250000000e+05 9.999986158488e-01 1.384151189221e-06 -1.502746044412e-10 -1.127008680899e-05 -2.294920894452e-13 1.556950831778e-09 
6.700000000000e+01 0.000000000000e+00 1.013250000000e+05 1.013250000000e+05 9.999985802387e-01 1.419761302524e-06 -1.501246762304e-10 -1.118594919138e-05 -2.275233124489e-13 1.554002287070e-09 
6.800000000000e+01 0.000000000000e+00 1.013250000000e+05 1.013250000000e+05 9.999985446010e-01 1.455399003980e-06 -1.498716605209e-10 -1.110341679373e-05 -2.256798701415e-13 1.551040308266e-09 
6.900000000000e+01 0.000000000000e+00 1.013250000000e+05 1.013250000000e+05 9.999985089567e-01 1.491043271518e-06 -1.495208316444e-10 -1.102243024673e-05 -2.239572038280e-13 1.548067363686e-09 
7.000000000000e+01 0.000000000000e+00 1.013250000000e+05 1.013250000000e+05 9.999984733258e-01 1.526674208829e-06 -1.490805914131e-10 -1.094316486335e-05 -2.223499396111e-13 1.545084243893e-09 
7.100000000000e+01 0.000000000000e+00 1.013250000000e+05 1.013250000000e+05 9.999984377268e-01 1.562273157951e-06 -1.485518482493e-10 -1.086522488501e-05 -2.208519556624e-13 1.542095431976e-09 
7.200000000000e+01 0.000000000000e+00 1.013250000000e+05 1.013250000000e+05 9.999984021774e-01 1.597822579580e-06 -1.479434220040e-10 -1.078869101006e-05 -2.194587083731e-13 1.539102116695e-09 
7.300000000000e+01 0.000000000000e+00 1.013250000000e+05 1.013250000000e+05 9.999983666942e-01 1.633305753201e-06 -1.472584684813e-10 -1.071356843908e-05 -2.181655327245e-13 1.536105910708e-09 
7.400000000000e+01 0.000000000000e+00 1.013250000000e+05 1.013250000000e+05 9.999983312934e-01 1.668706605340e-06 -1.465011210180e-10 -1.063983873676e-05 -2.169696679715e-13 1.533108521210e-09 
7.500000000000e+01 0.000000000000e+00 1.013250000000e+05 1.013250000000e+05 9.999982959905e-01 1.704009543246e-06 -1.456742933879e-10 -1.056743613153e-05 -2.158690763560e-13 1.530111924423e-09 
7.600000000000e+01 0.000000000000e+00 1.013250000000e+05 1.013250000000e+05 9.999982608006e-01 1.739199427808e-06 -1.447790888817e-10 -1.049632345495e-05 -2.148620318900e-13 1.527117860830e-09 
7.700000000000e+01 0.000000000000e+00 1.013250000000e+05 1.013250000000e+05 9.999982257383e-01 1.774261696341e-06 -1.438176071822e-10 -1.042649192252e-05 -2.139462812103e-13 1.524127824309e-09 
7.800000000000e+01 0.000000000000e+00 1.013250000000e+05 1.013250000000e+05 9.999981908175e-01 1.809182499146e-06 -1.427936358674e-10 -1.035820653193e-05 -2.131174423770e-13 1.521141410451e-09 
7.900000000000e+01 0.000000000000e+00 1.013250000000e+05 1.013250000000e+05 9.999981560507e-01 1.843949309688e-06 -1.417157338839e-10 -1.029089107509e-05 -2.123706488509e-13 1.518163703831e-09 
8.000000000000e+01 0.000000000000e+00 1.013250000000e+05 1.013250000000e+05 9.999981214493e-01 1.878550725420e-06 -1.405861454940e-10 -1.022493021911e-05 -2.116988180745e-13 1.515193256733e-09 
8.100000000000e+01 0.000000000000e+00 1.013250000000e+05 1.013250000000e+05 9.999980870232e-01 1.912976762775e-06 -1.394125966905e-10 -1.015997587915e-05 -2.110956696188e-13 1.512233378527e-09 
8.200000000000e+01 0.000000000000e+00 1.013250000000e+05 1.013250000000e+05 9.999980527817e-01 1.947218336573e-06 -1.382021345324e-10 -1.009612351166e-05 -2.105553684308e-13 1.509284325840e-09 
8.300000000000e+01 0.000000000000e+00 1.013250000000e+05 1.013250000000e+05 9.999980187331e-01 1.981266949280e-06 -1.369538915111e-10 -1.003336537927e-05 -2.100750603984e-13 1.506346987570e-09 
8.400000000000e+01 0.000000000000e+00 1.013250000000e+05 1.013250000000e+05 9.999979848857e-01 2.015114320297e-06 -1.356740817347e-10 -9.971674096502e-06 -2.096534257897e-13 1.503422362749e-09 
8.500000000000e+01 0.000000000000e+00 1.013250000000e+05 1.013250000000e+05 9.999979512478e-01 2.048752220540e-06 -1.343587353601e-10 -9.910976803818e-06 -2.092908025596e-13 1.500511749543e-09 
8.600000000000e+01 0.000000000000e+00 1.013250000000e+05 1.013250000000e+05 9.999979178276e-01 2.082172449014e-06 -1.330103166630e-10 -9.851190200794e-06 -2.089874935906e-13 1.497616513150e-09 
8.700000000000e+01 0.000000000000e+00 1.013250000000e+05 1.013250000000e+05 9.999978846329e-01 2.115367083499e-06 -1.316290991119e-10 -9.792322424833e-06 -2.087424011850e-13 1.494737380027e-09 
8.800000000000e+01 0.000000000000e+00 1.013250000000e+05 1.013250000000e+05 9.999978516712e-01 2.148328801743e-06 -1.302180467477e-10 -9.734369856300e-06 -2.085526983083e-13 1.491875095771e-09 
8.900000000000e+01 0.000000000000e+00 1.013250000000e+05 1.013250000000e+05 9.999978189487e-01 2.181051254047e-06 -1.287818617952e-10 -9.677292761487e-06 -2.084138321412e-13 1.489030551258e-09 
9.000000000000e+01 0.000000000000e+00 1.013250000000e+05 1.013250000000e+05 9.999977864708e-01 2.213529210149e-06 -1.273243349508e-10 -9.621244130092e-06 -2.083186169594e-13 1.486203238714e-09 
9.100000000000e+01 0.000000000000e+00 1.013250000000e+05 1.013250000000e+05 9.999977542415e-01 2.245758450758e-06 -1.258521517888e-10 -9.565970833357e-06 -2.082620834186e-13 1.483395265226e-09 
9.200000000000e+01 0.000000000000e+00 1.013250000000e+05 1.013250000000e+05 9.999977222647e-01 2.277735306588e-06 -1.243686409514e-10 -9.511505594250e-06 -2.082408758736e-13 1.480606773404e-09 
9.300000000000e+01 0.000000000000e+00 1.013250000000e+05 1.013250000000e+05 9.999976905439e-01 2.309456060834e-06 -1.228705586665e-10 -9.457854384995e-06 -2.082548439942e-13 1.477838089865e-09 
9.400000000000e+01 0.000000000000e+00 1.013250000000e+05 1.013250000000e+05 9.999976590834e-01 2.340916613441e-06 -1.213598285693e-10 -9.404990079549e-06 -2.083063221579e-13 1.475089800517e-09 
9.500000000000e+01 0.000000000000e+00 1.013250000000e+05 1.013250000000e+05 9.999976278876e-01 2.372112406390e-06 -1.198331534542e-10 -9.352916219074e-06 -2.083978555047e-13 1.472362331496e-09 
9.600000000000e+01 0.000000000000e+00 1.013250000000e+05 1.013250000000e+05 9.999975969613e-01 2.403038689369e-06 -1.182887291327e-10 -9.301590109671e-06 -2.085313034372e-13 1.469656436782e-09 
9.700000000000e+01 0.000000000000e+00 1.013250000000e+05 1.013250000000e+05 9.999975663092e-01 2.433690787340e-06 -1.167272471093e-10 -9.251326793564e-06 -2.087051213267e-13 1.466970483194e-09 
9.800000000000e+01 0.000000000000e+00 1.013250000000e+05 1.013250000000e+05 9.999975359351e-01 2.464064893015e-06 -1.151524226368e-10 -9.201577874516e-06 -2.089170547004e-13 1.464308498564e-09 
9.900000000000e+01 0.000000000000e+00 1.013250000000e+05 1.013250000000e+05 9.999975058417e-01 2.494158276023e-06 -1.135685304537e-10 -9.152532761365e-06 -2.091607886410e-13 1.461669485468e-09 
1.000000000000e+02 0.000000000000e+00 1.013250000000e+05 1.013250000000e+05 9.999974760302e-01 2.523969759860e-06 -1.119836014077e-10 -9.104177645324e-06 -2.094274123588e-13 1.459053651127e-09 
1.010000000000e+02 0.000000000000e+00 1.013250000000e+05 1.013250000000e+05 9.999974465000e-01 2.553500000224e-06 -1.104075459697e-10 -9.056486936204e-06 -2.097068507172e-13 1.456461100567e-09 
1.020000000000e+02 0.000000000000e+00 1.013250000000e+05 1.013250000000e+05 9.999974172488e-01 2.582751202906e-06 -1.088424952146e-10 -9.009603996015e-06 -2.099886857595e-13 1.453890656892e-09 
1.030000000000e+02 0.000000000000e+00 1.013250000000e+05 1.013250000000e+05 9.999973882734e-01 2.611726589774e-06 -1.072997048923e-10 -8.963239858100e-06 -2.102674353823e-13 1.451343933055e-09 
1.040000000000e+02 0.000000000000e+00 1.013250000000e+05 1.013250000000e+05 9.999973595708e-01 2.640429237033e-06 -1.057771916401e-10 -8.917460488138e-06 -2.105424831573e-13 1.448820185030e-09 
1.050000000000e+02 0.000000000000e+00 1.013250000000e+05 1.013250000000e+05 9.999973311387e-01 2.668861272870e-06 -1.042699703522e-10 -8.872291720201e-06 -2.108184109971e-13 1.446319031108e-09 
1.060000000000e+02 0.000000000000e+00 1.013250000000e+05 1.013250000000e+05 9.999973029765e-01 2.697023492093e-06 -1.027728264721e-10 -8.827710352674e-06 -2.111027865084e-13 1.443840549233e-09 
1.070000000000e+02 0.000000000000e+00 1.013250000000e+05 1.013250000000e+05 9.999972750846e-01 2.724915404761e-06 -1.012787412563e-10 -8.783716375825e-06 -2.114030376659e-13 1.441384788987e-09 
1.080000000000e+02 0.000000000000e+00 1.013250000000e+05 1.013250000000e+05 9.999972474643e-01 2.752535719242e-06 -9.978266988518e-11 -8.740293069545e-06 -2.117244481596e-13 1.438951990333e-09 
1.090000000000e+02 0.000000000000e+00 1.013250000000e+05 1.013250000000e+05 9.999972201170e-01 2.779883012005e-06 -9.828522213426e-11 -8.697429664366e-06 -2.120680364881e-13 1.436542365795e-09 
1.100000000000e+02 0.000000000000e+00 1.013250000000e+05 1.013250000000e+05 9.999971930436e-01 2.806956434731e-06 -9.678834363287e-11 -8.655097641560e-06 -2.124313820804e-13 1.434156189414e-09 
1.110000000000e+02 0.000000000000e+00 1.013250000000e+05 1.013250000000e+05 9.999971662437e-01 2.833756300058e-06 -9.529697232277e-11 -8.613312040310e-06 -2.128077285284e-13 1.431793328910e-09 
1.120000000000e+02 0.000000000000e+00 1.013250000000e+05 1.013250000000e+05 9.999971397155e-01 2.860284475936e-06 -9.381769317319e-11 -8.572043021601e-06 -2.131885463336e-13 1.429453798397e-09 
1.130000000000e+02 0.000000000000e+00 1.013250000000e+05 1.013250000000e+05 9.999971134553e-01 2.886544678837e-06 -9.235945168333e-11 -8.531294018906e-06 -2.135630978605e-13 1.427137207038e-09 
1.140000000000e+02 0.000000000000e+00 1.013250000000e+05 1.013250000000e+05 9.999970874581e-01 2.912541946953e-06 -9.092932315388e-11 -8.491205437371e-06 -2.139224113495e-13 1.424842118528e-09 
1.150000000000e+02 0.000000000000e+00 1.013250000000e+05 1.013250000000e+05 9.999970617184e-01 2.938281614240e-06 -8.952715984347e-11 -8.451502569168e-06 -2.142647491163e-13 1.422569842841e-09 
1.160000000000e+02 0.000000000000e+00 1.013250000000e+05 1.013250000000e+05 9.999970362321e-01 2.963767892661e-06 -8.815029632006e-11 -8.412290997813e-06 -2.145947136948e-13 1.420319259892e-09 
1.170000000000e+02 0.000000000000e+00 1.013250000000e+05 1.013250000000e+05 9.999970109969e-01 2.989003099474e-06 -8.679037798850e-11 -8.373549798893e-06 -2.149222109319e-13 1.418090282555e-09 
1.180000000000e+02 0.000000000000e+00 1.013250000000e+05 1.013250000000e+05 9.999969860126e-01 3.013987379008e-06 -8.543506784206e-11 -8.335527792561e-06 -2.152592622652e-13 1.415881246282e-09 
1.190000000000e+02 0.000000000000e+00 1.013250000000e+05 1.013250000000e+05 9.999969612805e-01 3.038719518011e-06 -8.407975482538e-11 -8.297787184630e-06 -2.156154775545e-13 1.413695186744e-09 
1.200000000000e+02 0.000000000000e+00 1.013250000000e+05 1.013250000000e+05 9.999969368025e-01 3.063197501429e-06 -8.271945698895e-11 -8.260493165550e-06 -2.159959314289e-13 1.411531199455e-09 
