 TITLE = "Profiles along polylines"
 VARIABLES = "DIST" "PRESSURE1" "PRESSURE2" "PRESSURE_W" "SATURATION1" SATURATION2 "VELOCITY_X1" "VELOCITY_Y1" "VELOCITY_X2" "VELOCITY_Y2" 
 ZONE T="TIME=0.000000000000e+00"
0.000000000000e+00 0.000000000000e+00 1.013250000000e+05 1.013250000000e+05 1.000000000000e+00 2.220446049250e-16 0.000000000000e+00 0.000000000000e+00 0.000000000000e+00 0.000000000000e+00 
5.263157894737e-02 0.000000000000e+00 1.013250000000e+05 1.013250000000e+05 1.000000000000e+00 2.220446049250e-16 0.000000000000e+00 0.000000000000e+00 0.000000000000e+00 0.000000000000e+00 
1.052631578947e-01 0.000000000000e+00 1.013250000000e+05 1.013250000000e+05 1.000000000000e+00 2.220446049250e-16 0.000000000000e+00 0.000000000000e+00 0.000000000000e+00 0.000000000000e+00 
1.578947368421e-01 0.000000000000e+00 1.013250000000e+05 1.013250000000e+05 1.000000000000e+00 2.220446049250e-16 0.000000000000e+00 0.000000000000e+00 0.000000000000e+00 0.000000000000e+00 
2.105263157895e-01 0.000000000000e+00 1.013250000000e+05 1.013250000000e+05 1.000000000000e+00 1.110223024625e-16 0.000000000000e+00 0.000000000000e+00 0.000000000000e+00 0.000000000000e+00 
2.631578947368e-01 0.000000000000e+00 1.013250000000e+05 1.013250000000e+05 1.000000000000e+00 2.220446049250e-16 0.000000000000e+00 0.000000000000e+00 0.000000000000e+00 0.000000000000e+00 
3.157894736842e-01 0.000000000000e+00 1.013250000000e+05 1.013250000000e+05 1.000000000000e+00 2.220446049250e-16 0.000000000000e+00 0.000000000000e+00 0.000000000000e+00 0.000000000000e+00 
3.684210526316e-01 0.000000000000e+00 1.013250000000e+05 1.013250000000e+05 1.000000000000e+00 2.220446049250e-16 0.000000000000e+00 0.000000000000e+00 0.000000000000e+00 0.000000000000e+00 
4.210526315789e-01 0.000000000000e+00 1.013250000000e+05 1.013250000000e+05 1.000000000000e+00 1.110223024625e-16 0.000000000000e+00 0.000000000000e+00 0.000000000000e+00 0.000000000000e+00 
4.736842105263e-01 0.000000000000e+00 1.013250000000e+05 1.013250000000e+05 1.000000000000e+00 2.220446049250e-16 0.000000000000e+00 0.000000000000e+00 0.000000000000e+00 0.000000000000e+00 
5.263157894737e-01 0.000000000000e+00 1.013250000000e+05 1.013250000000e+05 1.000000000000e+00 1.110223024625e-16 0.000000000000e+00 0.000000000000e+00 0.000000000000e+00 0.000000000000e+00 
5.789473684210e-01 0.000000000000e+00 1.013250000000e+05 1.013250000000e+05 1.000000000000e+00 2.220446049250e-16 0.000000000000e+00 0.000000000000e+00 0.000000000000e+00 0.000000000000e+00 
6.315789473684e-01 0.000000000000e+00 1.013250000000e+05 1.013250000000e+05 1.000000000000e+00 1.110223024625e-16 0.000000000000e+00 0.000000000000e+00 0.000000000000e+00 0.000000000000e+00 
6.842105263158e-01 0.000000000000e+00 1.013250000000e+05 1.013250000000e+05 1.000000000000e+00 2.220446049250e-16 0.000000000000e+00 0.000000000000e+00 0.000000000000e+00 0.000000000000e+00 
7.368421052631e-01 0.000000000000e+00 1.013250000000e+05 1.013250000000e+05 1.000000000000e+00 2.220446049250e-16 0.000000000000e+00 0.000000000000e+00 0.000000000000e+00 0.000000000000e+00 
7.894736842105e-01 0.000000000000e+00 1.013250000000e+05 1.013250000000e+05 1.000000000000e+00 2.220446049250e-16 0.000000000000e+00 0.000000000000e+00 0.000000000000e+00 0.000000000000e+00 
8.421052631579e-01 0.000000000000e+00 1.013250000000e+05 1.013250000000e+05 1.000000000000e+00 2.220446049250e-16 0.000000000000e+00 0.000000000000e+00 0.000000000000e+00 0.000000000000e+00 
8.947368421053e-01 0.000000000000e+00 1.013250000000e+05 1.013250000000e+05 1.000000000000e+00 1.110223024625e-16 0.000000000000e+00 0.000000000000e+00 0.000000000000e+00 0.000000000000e+00 
9.473684210526e-01 0.000000000000e+00 1.013250000000e+05 1.013250000000e+05 1.000000000000e+00 2.220446049250e-16 0.000000000000e+00 0.000000000000e+00 0.000000000000e+00 0.000000000000e+00 
1.000000000000e+00 0.000000000000e+00 1.013250000000e+05 1.013250000000e+05 1.000000000000e+00 2.220446049250e-16 0.000000000000e+00 0.000000000000e+00 0.000000000000e+00 0.000000000000e+00 
 TITLE = "Profiles along polylines"
 VARIABLES = "DIST" "PRESSURE1" "PRESSURE2" "PRESSURE_W" "SATURATION1" SATURATION2 "VELOCITY_X1" "VELOCITY_Y1" "VELOCITY_X2" "VELOCITY_Y2" 
 ZONE T="TIME=1.000000000000e-03"
0.000000000000e+00 0.000000000000e+00 1.013250000000e+05 1.013250000000e+05 1.000000000000e+00 6.883382752676e-15 -5.582347512245e-14 -2.616649008090e-04 -4.803301568106e-19 1.930517993732e-11 
5.263157894737e-02 1.487306218151e-07 1.013187522433e+05 1.013187522431e+05 9.999999999999e-01 5.773159728051e-14 -4.203524440526e-14 -2.616649002573e-04 -3.521611435664e-19 1.930313537198e-11 
1.052631578947e-01 1.492314695696e-07 1.013125044846e+05 1.013125044845e+05 9.999999999999e-01 5.639932965096e-14 -3.691809251904e-14 -2.616648993828e-04 -2.442198146734e-19 1.930239699993e-11 
1.578947368421e-01 1.506136569774e-07 1.013062567243e+05 1.013062567242e+05 9.999999999999e-01 5.706546346573e-14 -4.037562757730e-14 -2.616648984936e-04 -2.704237542912e-19 1.930112377332e-11 
2.105263157895e-01 1.495213436255e-07 1.013000089622e+05 1.013000089621e+05 9.999999999999e-01 5.662137425588e-14 -3.902299795299e-14 -2.616648975976e-04 -2.610810000338e-19 1.930038673917e-11 
2.631578947368e-01 1.462423489285e-07 1.012937611984e+05 1.012937611982e+05 9.999999999999e-01 5.506706202141e-14 -2.753874287009e-14 -2.616648967248e-04 -1.670527896394e-19 1.929882001298e-11 
3.157894736842e-01 1.437132775832e-07 1.012875134329e+05 1.012875134327e+05 9.999999999999e-01 5.417888360171e-14 -2.503045834601e-14 -2.616648958876e-04 -1.492410509382e-19 1.929779050338e-11 
3.684210526316e-01 1.422653109240e-07 1.012812656658e+05 1.012812656656e+05 9.999999999999e-01 5.373479439186e-14 -2.709869295358e-14 -2.616648950537e-04 -1.685660808203e-19 1.929723375868e-11 
4.210526315789e-01 1.374725736651e-07 1.012750178970e+05 1.012750178969e+05 9.999999999999e-01 5.195843755246e-14 -2.994434908032e-14 -2.616648942511e-04 -1.982520272000e-19 1.929535507282e-11 
4.736842105263e-01 1.331052411751e-07 1.012687701268e+05 1.012687701266e+05 9.999999999999e-01 5.018208071306e-14 -2.298108302057e-14 -2.616648934632e-04 -1.448657738965e-19 1.929435793550e-11 
5.263157894737e-01 1.325627584212e-07 1.012625223550e+05 1.012625223549e+05 9.999999999999e-01 5.007105841059e-14 -9.641284123062e-15 -2.616648927389e-04 -5.828720945352e-20 1.929370702897e-11 
5.789473684210e-01 1.331992132115e-07 1.012562745819e+05 1.012562745817e+05 9.999999999999e-01 5.051514762044e-14 5.174987018108e-14 -2.616648920354e-04 3.330774910670e-19 1.929253640145e-11 
6.315789473684e-01 1.353543372033e-07 1.012500268076e+05 1.012500268074e+05 9.999999999999e-01 5.151434834261e-14 4.020316991955e-13 -2.616648916128e-04 2.672676965802e-18 1.929127289784e-11 
6.842105263158e-01 1.364969803215e-07 1.012437790334e+05 1.012437790333e+05 9.999999999999e-01 5.195843755246e-14 2.184359589591e-12 -2.616648924973e-04 1.457600380791e-17 1.929008342267e-11 
7.368421052631e-01 1.397594586073e-07 1.012375312660e+05 1.012375312659e+05 9.999999999999e-01 5.295763827462e-14 1.081131503451e-11 -2.616648995622e-04 7.224249466675e-17 1.928883653273e-11 
7.894736842105e-01 1.429860479872e-07 1.012312835361e+05 1.012312835359e+05 9.999999999999e-01 5.428990590417e-14 5.323095247149e-11 -2.616649393272e-04 3.557069959313e-16 1.928777620903e-11 
8.421052631579e-01 1.581857625647e-07 1.012250360069e+05 1.012250360067e+05 9.999999999996e-01 3.522737657136e-13 2.942896010350e-10 -2.616651680457e-04 1.983203527105e-15 1.928490598712e-11 
8.947368421053e-01 2.778199824015e-05 1.012187896855e+05 1.012187896577e+05 9.999999993743e-01 6.257034890211e-10 1.709658368670e-09 -2.616663471940e-04 4.407511546203e-14 1.920928338062e-11 
9.473684210526e-01 5.827343428256e-02 1.012126079062e+05 1.012125496328e+05 9.999987182855e-01 1.281714485102e-06 -5.137700017569e-08 -2.615241484340e-04 5.636455434307e-11 -1.165535156912e-10 
1.000000000000e+00 1.195168078533e+02 1.013250000000e+05 1.012054831921e+05 9.999565834670e-01 4.341653296847e-05 -7.322026078975e-08 -2.610758838238e-04 8.462851116133e-11 -5.209864484600e-10 
 TITLE = "Profiles along polylines"
 VARIABLES = "DIST" "PRESSURE1" "PRESSURE2" "PRESSURE_W" "SATURATION1" SATURATION2 "VELOCITY_X1" "VELOCITY_Y1" "VELOCITY_X2" "VELOCITY_Y2" 
 ZONE T="TIME=5.000000000000e+00"
0.000000000000e+00 0.000000000000e+00 1.013250000000e+05 1.013250000000e+05 9.999999212441e-01 7.875587237915e-08 -7.163861016784e-11 -3.702456085514e-05 -3.224808771990e-13 1.513538899238e-09 
5.263157894737e-02 2.101057417561e+00 1.008829576905e+05 1.008808566331e+05 9.999991586412e-01 8.413587608835e-07 -8.901690525487e-11 -3.702327454880e-05 -1.994411015259e-13 1.509527086928e-09 
1.052631578947e-01 3.084731933449e+00 1.004397934593e+05 1.004367087273e+05 9.999988184760e-01 1.181524040827e-06 -1.575061213676e-10 -3.702009438825e-05 -8.995225482922e-14 1.505841251315e-09 
1.578947368421e-01 3.522211293900e+00 9.999607531608e+04 9.999255310479e+04 9.999986560345e-01 1.343965461142e-06 -2.121346114091e-10 -3.701564886700e-05 -4.420072291846e-14 1.500342206728e-09 
2.105263157895e-01 3.711895284615e+00 9.955209990372e+04 9.954838800843e+04 9.999985907674e-01 1.409232631699e-06 -2.361183051783e-10 -3.701056232974e-05 -1.942046314125e-14 1.494496630184e-09 
2.631578947368e-01 3.798234066883e+00 9.910801079578e+04 9.910421256171e+04 9.999985584189e-01 1.441581062744e-06 -2.375111025359e-10 -3.700513093366e-05 -7.359621249182e-15 1.487884460842e-09 
3.157894736842e-01 3.848733412033e+00 9.866387506230e+04 9.866002632888e+04 9.999985401955e-01 1.459804526704e-06 -2.441402226903e-10 -3.699950719781e-05 -1.213661435514e-15 1.481498398986e-09 
3.684210526316e-01 3.901151717136e+00 9.821973019670e+04 9.821582904499e+04 9.999985189796e-01 1.481020440952e-06 -2.632180968411e-10 -3.699375970216e-05 6.879452643771e-15 1.474646278282e-09 
4.210526315789e-01 4.001241604672e+00 9.777562164493e+04 9.777162040332e+04 9.999984789613e-01 1.521038713204e-06 -2.820664568179e-10 -3.698779538073e-05 2.596240895719e-14 1.467828367959e-09 
4.736842105263e-01 4.257737793423e+00 9.733165749433e+04 9.732739975654e+04 9.999983702763e-01 1.629723715535e-06 -3.300404603109e-10 -3.698120173267e-05 8.101027223730e-14 1.460048757095e-09 
5.263157894737e-01 4.980996391514e+00 9.688814636105e+04 9.688316536466e+04 9.999980765251e-01 1.923474854282e-06 -4.531586779565e-10 -3.697304577762e-05 2.246337378888e-13 1.450849182990e-09 
5.789473684210e-01 7.023697651899e+00 9.644593624364e+04 9.643891254599e+04 9.999972126385e-01 2.787361506718e-06 -8.033048967915e-10 -3.696051070856e-05 6.270087879690e-13 1.436321054360e-09 
6.315789473684e-01 1.272584904151e+01 9.600735437686e+04 9.599462852782e+04 9.999949179111e-01 5.082088920805e-06 -1.632788759716e-09 -3.693699855239e-05 1.583607330268e-12 1.409631123188e-09 
6.842105263158e-01 2.797175853812e+01 9.557825309294e+04 9.555028133441e+04 9.999887202411e-01 1.127975886783e-05 -3.461614520384e-09 -3.688593528264e-05 3.710482691534e-12 1.351667993531e-09 
7.368421052631e-01 6.689244088224e+01 9.517268677550e+04 9.510579433462e+04 9.999724752630e-01 2.752473698919e-05 -7.354967039573e-09 -3.677258653624e-05 8.172644184958e-12 1.223504272399e-09 
7.894736842105e-01 1.602000564283e+02 9.482120109937e+04 9.466100104294e+04 9.999355341749e-01 6.446582514619e-05 -1.470239171418e-08 -3.653332713446e-05 1.646765532144e-11 9.544844344017e-10 
8.421052631579e-01 3.671988032218e+02 9.458277886427e+04 9.421558006105e+04 9.998508309647e-01 1.491690353113e-04 -2.724405269130e-08 -3.608641202638e-05 2.927455419913e-11 4.543948565642e-10 
8.947368421053e-01 7.752487271539e+02 9.454430292042e+04 9.376905419326e+04 9.997409467856e-01 2.590532144271e-04 -1.861721246546e-07 -3.509079309373e-05 1.984589189520e-10 -6.679862285861e-10 
9.473684210526e-01 1.794198015706e+03 9.511337555032e+04 9.331917753461e+04 9.985791276257e-01 1.420872374265e-03 -2.008500951133e-06 -2.831882597933e-05 2.247775115750e-09 -8.520261147449e-09 
1.000000000000e+00 8.486134883981e+03 1.013250000000e+05 9.283886511602e+04 9.452999601206e-01 5.470003987938e-02 -2.528399620952e-06 -1.237811137998e-05 3.442617020270e-09 -2.666321174231e-08 
 TITLE = "Profiles along polylines"
 VARIABLES = "DIST" "PRESSURE1" "PRESSURE2" "PRESSURE_W" "SATURATION1" SATURATION2 "VELOCITY_X1" "VELOCITY_Y1" "VELOCITY_X2" "VELOCITY_Y2" 
 ZONE T="TIME=1.000000000000e+01"
0.000000000000e+00 0.000000000000e+00 1.013250000000e+05 1.013250000000e+05 9.999998603521e-01 1.396478885862e-07 -4.921174207525e-11 -2.553485653087e-05 -3.879237003579e-13 1.584333353703e-09 
5.263157894737e-02 3.818636504612e+00 1.008622782575e+05 1.008584596210e+05 9.999984602908e-01 1.539709225895e-06 -6.944410805885e-11 -2.553388040442e-05 -2.517743007225e-13 1.580466071924e-09 
1.052631578947e-01 6.128875303130e+00 1.003980447278e+05 1.003919158525e+05 9.999976431474e-01 2.356852552232e-06 -1.333446768366e-10 -2.553131370044e-05 -1.453471933656e-13 1.577523762421e-09 
1.578947368421e-01 7.478249381809e+00 9.993284387900e+04 9.992536562962e+04 9.999971339178e-01 2.866082249753e-06 -1.969011992402e-10 -2.552736688574e-05 -9.122516776139e-14 1.572596599348e-09 
2.105263157895e-01 8.260078350656e+00 9.946706671576e+04 9.945880663741e+04 9.999968572735e-01 3.142726539562e-06 -2.395930455223e-10 -2.552242397201e-05 -4.493949102531e-14 1.566933321429e-09 
2.631578947368e-01 8.762948394819e+00 9.900100012571e+04 9.899223717731e+04 9.999966638103e-01 3.336189683623e-06 -2.637351012908e-10 -2.551667359326e-05 -5.147322479485e-15 1.559928026294e-09 
3.157894736842e-01 9.232583357960e+00 9.853488839963e+04 9.852565581627e+04 9.999964866477e-01 3.513352302198e-06 -3.045344559453e-10 -2.551010920769e-05 4.116246557499e-14 1.552456815367e-09 
3.684210526316e-01 9.970507286530e+00 9.806903134570e+04 9.805906083841e+04 9.999961840464e-01 3.815953609543e-06 -3.932562554195e-10 -2.550238915431e-05 1.301251204224e-13 1.543282692557e-09 
4.210526315789e-01 1.150721847635e+01 9.760395651626e+04 9.759244929778e+04 9.999955770520e-01 4.422948026050e-06 -5.424102001889e-10 -2.549247699648e-05 3.023595465081e-13 1.531891699965e-09 
4.736842105263e-01 1.491206655962e+01 9.714072740836e+04 9.712581534181e+04 9.999941692516e-01 5.830748420976e-06 -8.496487258620e-10 -2.547792946115e-05 6.619960097765e-13 1.514900294063e-09 
5.263157894737e-01 2.242059499013e+01 9.668156741771e+04 9.665914682272e+04 9.999912120437e-01 8.787956340628e-06 -1.418205118138e-09 -2.545438077426e-05 1.326404909700e-12 1.487994160693e-09 
5.789473684210e-01 3.838663098780e+01 9.623080680819e+04 9.619242017720e+04 9.999846622867e-01 1.533771328377e-05 -2.524675307746e-09 -2.541331874854e-05 2.612467282767e-12 1.440806170191e-09 
6.315789473684e-01 7.108173210483e+01 9.579667246029e+04 9.572559072819e+04 9.999719310550e-01 2.806894498220e-05 -4.329655497802e-09 -2.534211606943e-05 4.706539369284e-12 1.359757779856e-09 
6.842105263158e-01 1.345239983278e+02 9.539310700225e+04 9.525858300392e+04 9.999468910762e-01 5.310892381649e-05 -6.770230533847e-09 -2.522006837260e-05 7.555742234087e-12 1.221228963200e-09 
7.368421052631e-01 2.507522060148e+02 9.504203091010e+04 9.479127870409e+04 9.998997947454e-01 1.002052545658e-04 -1.062231893457e-08 -2.502332374155e-05 1.200201652115e-11 9.987297211751e-10 
7.894736842105e-01 4.508323069118e+02 9.477434382554e+04 9.432351151863e+04 9.998230032407e-01 1.769967593162e-04 -1.841499924769e-08 -2.472815456911e-05 2.082164415811e-11 6.659118008387e-10 
8.421052631579e-01 7.753264359557e+02 9.463039074271e+04 9.385506430675e+04 9.997056069980e-01 2.943930019926e-04 -7.029321913275e-08 -2.429900668485e-05 7.930523398733e-11 1.806459713407e-10 
8.947368421053e-01 1.300894144795e+03 9.468642300075e+04 9.338552885596e+04 9.990086674498e-01 9.913325502029e-04 -2.139027189591e-07 -2.295792840557e-05 2.319003766127e-10 -1.333509502669e-09 
9.473684210526e-01 2.670154373879e+03 9.558159478310e+04 9.291144040922e+04 9.959578749457e-01 4.042125054258e-03 -1.478792875535e-06 -1.631094473747e-05 1.613516835753e-09 -9.006008011916e-09 
1.000000000000e+00 8.914181441980e+03 1.013250000000e+05 9.241081855802e+04 9.349040798878e-01 6.509592011217e-02 -1.869491463669e-06 -4.010617678843e-06 2.539312244026e-09 -2.365545899525e-08 
 TITLE = "Profiles along polylines"
 VARIABLES = "DIST" "PRESSURE1" "PRESSURE2" "PRESSURE_W" "SATURATION1" SATURATION2 "VELOCITY_X1" "VELOCITY_Y1" "VELOCITY_X2" "VELOCITY_Y2" 
 ZONE T="TIME=2.000000000000e+01"
0.000000000000e+00 0.000000000000e+00 1.013250000000e+05 1.013250000000e+05 9.999997647959e-01 2.352041232889e-07 -4.044404109527e-11 -1.917765803529e-05 -4.159201804229e-13 1.617400069775e-09 
5.263157894737e-02 6.552010283778e+00 1.008526194627e+05 1.008460674524e+05 9.999973403985e-01 2.659601525901e-06 -6.364049295398e-11 -1.917677966324e-05 -2.717090744732e-13 1.613548497914e-09 
1.052631578947e-01 1.143842185782e+01 1.003785703508e+05 1.003671319290e+05 9.999955777018e-01 4.422298194307e-06 -1.355660908077e-10 -1.917433528749e-05 -1.543294112290e-13 1.610756978291e-09 
1.578947368421e-01 1.526274190257e+01 9.990345279990e+04 9.988819005800e+04 9.999941030311e-01 5.896968852337e-06 -2.333490542957e-10 -1.917007768652e-05 -6.001074980293e-14 1.605449656323e-09 
2.105263157895e-01 1.867368156944e+01 9.942791180067e+04 9.940923811910e+04 9.999928444739e-01 7.155526134839e-06 -3.454338562448e-10 -1.916374150131e-05 6.901617898653e-14 1.598140445015e-09 
2.631578947368e-01 2.248292980246e+01 9.895275448804e+04 9.893027155824e+04 9.999913318200e-01 8.668179997784e-06 -4.743189131271e-10 -1.915461016229e-05 2.343617333772e-13 1.587146578179e-09 
3.157894736842e-01 2.783425642790e+01 9.847911832832e+04 9.845128407190e+04 9.999892860226e-01 1.071397735442e-05 -6.843343470694e-10 -1.914141235630e-05 4.823911694115e-13 1.571898835955e-09 
3.684210526316e-01 3.645564422580e+01 9.800872189277e+04 9.797226624854e+04 9.999858060605e-01 1.419393948987e-05 -1.051493850573e-09 -1.912218081010e-05 9.025047618906e-13 1.549286880829e-09 
4.210526315789e-01 5.097256259458e+01 9.754417645801e+04 9.749320389542e+04 9.999802205250e-01 1.977947504828e-05 -1.550766161011e-09 -1.909400103593e-05 1.490236778288e-12 1.516676984757e-09 
4.736842105263e-01 7.527428124900e+01 9.708935038553e+04 9.701407610428e+04 9.999704262448e-01 2.957375523960e-05 -2.266228598359e-09 -1.905235495577e-05 2.336676838938e-12 1.468370197525e-09 
5.263157894737e-01 1.150341302210e+02 9.664988663532e+04 9.653485250510e+04 9.999552012465e-01 4.479875346508e-05 -3.176581235719e-09 -1.899264346875e-05 3.410782678760e-12 1.399805020421e-09 
5.789473684210e-01 1.778192791389e+02 9.623331207109e+04 9.605549279195e+04 9.999300589550e-01 6.994104502844e-05 -4.390103085844e-09 -1.890880512308e-05 4.843152902531e-12 1.303592603222e-09 
6.315789473684e-01 2.733448665753e+02 9.584929032799e+04 9.557594546141e+04 9.998938034829e-01 1.061965170519e-04 -5.691543101662e-09 -1.879771013832e-05 6.381949905047e-12 1.176784478162e-09 
6.842105263158e-01 4.123983204622e+02 9.550855216403e+04 9.509615384357e+04 9.998400066470e-01 1.599933529586e-04 -6.209918312421e-09 -1.865628239989e-05 7.046471643933e-12 1.015731595684e-09 
7.368421052631e-01 6.050723673650e+02 9.522113816317e+04 9.461606579580e+04 9.997634619820e-01 2.365380179629e-04 -3.974652393183e-09 -1.849204754656e-05 4.585069053875e-12 8.291533379404e-10 
7.894736842105e-01 8.563361764252e+02 9.499199393615e+04 9.413565775973e+04 9.996814797604e-01 3.185202396057e-04 -1.662213138745e-08 -1.824392052326e-05 1.963883193789e-11 5.457327326525e-10 
8.421052631579e-01 1.240950867428e+03 9.489547959428e+04 9.365452872685e+04 9.991081215320e-01 8.918784679914e-04 -4.590944689651e-08 -1.750221237112e-05 5.277456713840e-11 -2.931660740153e-10 
8.947368421053e-01 2.028750481815e+03 9.519999438219e+04 9.317124390038e+04 9.976428930313e-01 2.357106968745e-03 -1.754148988880e-07 -1.575324177877e-05 1.991648530888e-10 -2.296715362363e-09 
9.473684210526e-01 3.740777903588e+03 9.642381951206e+04 9.268304160847e+04 9.903105129402e-01 9.689487059762e-03 -8.127100453414e-07 -9.964745757380e-06 8.781459187698e-10 -8.978654615191e-09 
1.000000000000e+00 9.150528827262e+03 1.013250000000e+05 9.217447117274e+04 9.267246929045e-01 7.327530709547e-02 -1.119110256910e-06 -1.594946264910e-06 1.513854500618e-09 -1.917412475611e-08 
 TITLE = "Profiles along polylines"
 VARIABLES = "DIST" "PRESSURE1" "PRESSURE2" "PRESSURE_W" "SATURATION1" SATURATION2 "VELOCITY_X1" "VELOCITY_Y1" "VELOCITY_X2" "VELOCITY_Y2" 
 ZONE T="TIME=3.000000000000e+01"
0.000000000000e+00 0.000000000000e+00 1.013250000000e+05 1.013250000000e+05 9.999996422368e-01 3.577632257112e-07 -6.571131873454e-11 -1.620229721569e-05 -3.877629949442e-13 1.625196200149e-09 
5.263157894737e-02 1.009045249422e+01 1.008503579080e+05 1.008402674555e+05 9.999958812913e-01 4.118708721745e-06 -1.048891505635e-10 -1.620090731633e-05 -2.234900699868e-13 1.620716511946e-09 
1.052631578947e-01 1.883988550990e+01 1.003743699840e+05 1.003555300985e+05 9.999926782365e-01 7.321763548784e-06 -2.282754733225e-10 -1.619689103333e-05 -4.351396090766e-14 1.616045642826e-09 
1.578947368421e-01 2.729367250486e+01 9.989807583708e+04 9.987078216457e+04 9.999893728314e-01 1.062716864730e-05 -4.070563271658e-10 -1.618961408808e-05 1.488731993226e-13 1.607145837414e-09 
2.105263157895e-01 3.669244376328e+01 9.942270919299e+04 9.938601674922e+04 9.999858554086e-01 1.414459144633e-05 -6.175534608125e-10 -1.617838198600e-05 3.967214815371e-13 1.594036095831e-09 
2.631578947368e-01 4.862233139478e+01 9.894984748830e+04 9.890122515690e+04 9.999811123853e-01 1.888761466318e-05 -8.461152193190e-10 -1.616192677975e-05 6.828306733895e-13 1.574418172961e-09 
3.157894736842e-01 6.518989386913e+01 9.848158586122e+04 9.841639596735e+04 9.999748251289e-01 2.517487112663e-05 -1.173423118008e-09 -1.613856244632e-05 1.073129432739e-12 1.547233036014e-09 
3.684210526316e-01 8.919563229604e+01 9.802070975371e+04 9.793151412142e+04 9.999652370513e-01 3.476294874150e-05 -1.669384627328e-09 -1.610637630216e-05 1.650965221139e-12 1.509500908605e-09 
4.210526315789e-01 1.242359858590e+02 9.757079639672e+04 9.744656041086e+04 9.999519297864e-01 4.807021364173e-05 -2.225350162176e-09 -1.606324769642e-05 2.311273606929e-12 1.459482239996e-09 
4.736842105263e-01 1.747474185297e+02 9.713625871501e+04 9.696151129648e+04 9.999317963921e-01 6.820360792248e-05 -2.878837726392e-09 -1.600632976192e-05 3.093587054987e-12 1.393473855663e-09 
5.263157894737e-01 2.460802570971e+02 9.672241882563e+04 9.647633856854e+04 9.999048097341e-01 9.519026593297e-05 -3.568083740461e-09 -1.593433061597e-05 3.917825633170e-12 1.310607158246e-09 
5.789473684210e-01 3.441488461198e+02 9.633516015518e+04 9.599101130906e+04 9.998659016170e-01 1.340983829954e-04 -4.387314548281e-09 -1.584524341537e-05 4.900102946318e-12 1.208187668464e-09 
6.315789473684e-01 4.753741830922e+02 9.598087041073e+04 9.550549622764e+04 9.998165735574e-01 1.834264426207e-04 -5.323480025979e-09 -1.573986579454e-05 6.016593092486e-12 1.087539923182e-09 
6.842105263158e-01 6.461764406765e+02 9.566593688227e+04 9.501976044159e+04 9.997508851357e-01 2.491148642718e-04 -7.086431219991e-09 -1.561563263040e-05 8.080889999727e-12 9.455660018051e-10 
7.368421052631e-01 8.637386885476e+02 9.539750591419e+04 9.453376722564e+04 9.996704083587e-01 3.295916413375e-04 -1.991507874534e-08 -1.546776786069e-05 2.302232481546e-11 7.761271618058e-10 
7.894736842105e-01 1.143334894181e+03 9.519077351031e+04 9.404743861613e+04 9.993348151321e-01 6.651848678879e-04 -3.647690707894e-08 -1.507611569251e-05 4.217529283056e-11 3.294753835031e-10 
8.421052631579e-01 1.650340158221e+03 9.521023593539e+04 9.355989577717e+04 9.983515016954e-01 1.648498304643e-03 -6.558615855023e-08 -1.417109811576e-05 7.689702775383e-11 -6.994736105565e-10 
8.947368421053e-01 2.567107620369e+03 9.563728258796e+04 9.307017496759e+04 9.960220498302e-01 3.977950169785e-03 -1.605961194056e-07 -1.239655972913e-05 1.861114171945e-10 -2.748195773757e-09 
9.473684210526e-01 4.436295170004e+03 9.701171542880e+04 9.257542025879e+04 9.851384143144e-01 1.486158568559e-02 -5.124459542515e-07 -7.247817047634e-06 5.533009915262e-10 -8.705191153398e-09 
1.000000000000e+00 9.260758255668e+03 1.013250000000e+05 9.206424174433e+04 9.224546487451e-01 7.754535125493e-02 -7.416893040356e-07 -1.030966805693e-06 9.964599226927e-10 -1.635280994527e-08 
 TITLE = "Profiles along polylines"
 VARIABLES = "DIST" "PRESSURE1" "PRESSURE2" "PRESSURE_W" "SATURATION1" SATURATION2 "VELOCITY_X1" "VELOCITY_Y1" "VELOCITY_X2" "VELOCITY_Y2" 
 ZONE T="TIME=6.000000000000e+01"
0.000000000000e+00 0.000000000000e+00 1.013250000000e+05 1.013250000000e+05 9.999988276343e-01 1.172365673985e-06 -1.487527572772e-10 -1.181100281809e-05 -2.441477016101e-13 1.574216379701e-09 
5.263157894737e-02 3.358670904567e+01 1.008652939115e+05 1.008317072024e+05 9.999862066346e-01 1.379336537988e-05 -2.306618259274e-10 -1.180785227132e-05 -3.872506617331e-14 1.567876075416e-09 
1.052631578947e-01 6.712973310813e+01 1.004055333466e+05 1.003384036134e+05 9.999738101883e-01 2.618981170732e-05 -4.813442941200e-10 -1.179900383825e-05 2.928900937984e-13 1.557410018507e-09 
1.578947368421e-01 1.028169971398e+02 9.994789429007e+04 9.984507729293e+04 9.999598261802e-01 4.017381976018e-05 -7.968160103126e-10 -1.178387825803e-05 6.543198255064e-13 1.539182565162e-09 
2.105263157895e-01 1.428856472465e+02 9.949460169946e+04 9.935171605222e+04 9.999448949057e-01 5.510509433237e-05 -1.093882912242e-09 -1.176248933471e-05 1.009587109787e-12 1.513986209580e-09 
2.631578947368e-01 1.896439120542e+02 9.904795139175e+04 9.885830747970e+04 9.999264808353e-01 7.351916467702e-05 -1.330390483367e-09 -1.173448047662e-05 1.308551385578e-12 1.480728395367e-09 
3.157894736842e-01 2.454954496446e+02 9.861033426078e+04 9.836483881113e+04 9.999055931645e-01 9.440683551520e-05 -1.606647803012e-09 -1.169970963708e-05 1.644088395024e-12 1.440020974240e-09 
3.684210526316e-01 3.128980331163e+02 9.818419519078e+04 9.787129715766e+04 9.998790236390e-01 1.209763610077e-04 -1.961860912974e-09 -1.165839586199e-05 2.064645674296e-12 1.391510386237e-09 
4.210526315789e-01 3.942646224370e+02 9.777193466662e+04 9.737767004418e+04 9.998485961614e-01 1.514038385703e-04 -2.242913357435e-09 -1.161096466981e-05 2.407229895660e-12 1.336233956808e-09 
4.736842105263e-01 4.918820347773e+02 9.737582788243e+04 9.688394584765e+04 9.998101505335e-01 1.898494665389e-04 -2.494800687885e-09 -1.155733555522e-05 2.721916076722e-12 1.273757667234e-09 
5.263157894737e-01 6.078954786286e+02 9.699800935064e+04 9.639011387201e+04 9.997668384742e-01 2.331615257747e-04 -2.753397838544e-09 -1.149870979700e-05 3.042231568880e-12 1.205877156657e-09 
5.789473684210e-01 7.442837571237e+02 9.664044821238e+04 9.589616445525e+04 9.997132376343e-01 2.867623656637e-04 -3.639274256604e-09 -1.143444548606e-05 4.087624657023e-12 1.131510908336e-09 
6.315789473684e-01 9.035182466747e+02 9.630560357937e+04 9.540208533270e+04 9.996573790084e-01 3.426209915893e-04 -1.019898645091e-08 -1.136221541198e-05 1.179217826965e-11 1.047873106156e-09 
6.842105263158e-01 1.092355340651e+03 9.600019754488e+04 9.490784220423e+04 9.994415040108e-01 5.584959891809e-04 -1.622953453077e-08 -1.117995917282e-05 1.885186056519e-11 8.383700785392e-10 
7.368421052631e-01 1.384496276314e+03 9.579753983042e+04 9.441304355411e+04 9.988681893736e-01 1.131810626388e-03 -2.268322192025e-08 -1.078212607249e-05 2.669090823681e-11 3.842664348986e-10 
7.894736842105e-01 1.847928046936e+03 9.576525868395e+04 9.391733063701e+04 9.980445127624e-01 1.955487237631e-03 -3.058756939823e-08 -1.024384998710e-05 3.677741046584e-11 -2.344366301156e-10 
8.421052631579e-01 2.525681205925e+03 9.594616965965e+04 9.342048845373e+04 9.961069757079e-01 3.893024292069e-03 -6.061794632170e-08 -9.400107748660e-06 7.283796940794e-11 -1.208241222818e-09 
8.947368421053e-01 3.614753849051e+03 9.653625059543e+04 9.292149674638e+04 9.910273638836e-01 8.972636116412e-03 -1.277293876025e-07 -7.596771018583e-06 1.528904259562e-10 -3.306635641214e-09 
9.473684210526e-01 5.625408906094e+03 9.804302934641e+04 9.241762044032e+04 9.737246584371e-01 2.627534156286e-02 -2.051581805849e-07 -3.803258792433e-06 2.240907058250e-10 -7.731489374751e-09 
1.000000000000e+00 9.421398092423e+03 1.013250000000e+05 9.190360190758e+04 9.162560333388e-01 8.374396666116e-02 -3.205014728619e-07 -4.607084484584e-07 4.202411474563e-10 -1.191757409911e-08 
 ZONE T="TIME=1.200000000000e+02"
0.000000000000e+00 0.000000000000e+00 1.013250000000e+05 1.013250000000e+05 9.999969368025e-01 3.063197501429e-06 -8.271945698895e-11 -8.260493165550e-06 -2.159959314289e-13 1.411531199455e-09 
5.263157894737e-02 8.796970376606e+01 1.009127560871e+05 1.008247863834e+05 9.999638699384e-01 3.613006160652e-05 -1.441217282700e-10 -8.258143657299e-06 -6.237033155974e-14 1.406793014736e-09 
1.052631578947e-01 1.756955187445e+02 1.005002614048e+05 1.003245658860e+05 9.999315256357e-01 6.847436433000e-05 -3.150245260755e-10 -8.251995249824e-06 1.657872912465e-13 1.399518724638e-09 
1.578947368421e-01 2.646646607123e+02 1.000889950492e+05 9.982433038846e+04 9.998968315875e-01 1.031684124699e-04 -5.150484273945e-10 -8.241705620545e-06 3.930706986300e-13 1.387070466499e-09 
2.105263157895e-01 3.562937878252e+02 9.968036594315e+04 9.932407215533e+04 9.998629669874e-01 1.370330125864e-04 -6.857733385218e-10 -8.227655932833e-06 5.972055229382e-13 1.370476945600e-09 
2.631578947368e-01 4.519098322923e+02 9.927569387354e+04 9.882378404125e+04 9.998256052231e-01 1.743947768894e-04 -8.005541700241e-10 -8.210001699341e-06 7.461276364147e-13 1.349399626106e-09 
3.157894736842e-01 5.527346413441e+02 9.887619420888e+04 9.832345956753e+04 9.997882806161e-01 2.117193839208e-04 -9.208438809569e-10 -8.189184193622e-06 8.933006844103e-13 1.324930556412e-09 