 TITLE = "Profiles along polylines"
 VARIABLES = "DIST" "PRESSURE1" "PRESSURE2" "PRESSURE_W" "SATURATION1" SATURATION2 "VELOCITY_X1" "VELOCITY_Y1" "VELOCITY_X2" "VELOCITY_Y2" 
 ZONE T="TIME=0.000000000000e+00"
0.000000000000e+00 0.000000000000e+00 1.013250000000e+05 1.013250000000e+05 1.000000000000e+00 2.220446049250e-16 0.000000000000e+00 0.000000000000e+00 0.000000000000e+00 0.000000000000e+00 
5.263157894737e-02 0.000000000000e+00 1.013250000000e+05 1.013250000000e+05 1.000000000000e+00 2.220446049250e-16 0.000000000000e+00 0.000000000000e+00 0.000000000000e+00 0.000000000000e+00 
1.052631578947e-01 0.000000000000e+00 1.013250000000e+05 1.013250000000e+05 1.000000000000e+00 2.220446049250e-16 0.000000000000e+00 0.000000000000e+00 0.000000000000e+00 0.000000000000e+00 
1.578947368421e-01 0.000000000000e+00 1.013250000000e+05 1.013250000000e+05 1.000000000000e+00 2.220446049250e-16 0.000000000000e+00 0.000000000000e+00 0.000000000000e+00 0.000000000000e+00 
2.105263157895e-01 0.000000000000e+00 1.013250000000e+05 1.013250000000e+05 1.000000000000e+00 1.110223024625e-16 0.000000000000e+00 0.000000000000e+00 0.000000000000e+00 0.000000000000e+00 
2.631578947368e-01 0.000000000000e+00 1.013250000000e+05 1.013250000000e+05 1.000000000000e+00 2.220446049250e-16 0.000000000000e+00 0.000000000000e+00 0.000000000000e+00 0.000000000000e+00 
3.157894736842e-01 0.000000000000e+00 1.013250000000e+05 1.013250000000e+05 1.000000000000e+00 2.220446049250e-16 0.000000000000e+00 0.000000000000e+00 0.000000000000e+00 0.000000000000e+00 
3.684210526316e-01 0.000000000000e+00 1.013250000000e+05 1.013250000000e+05 1.000000000000e+00 2.220446049250e-16 0.000000000000e+00 0.000000000000e+00 0.000000000000e+00 0.000000000000e+00 
4.210526315789e-01 0.000000000000e+00 1.013250000000e+05 1.013250000000e+05 1.000000000000e+00 1.110223024625e-16 0.000000000000e+00 0.000000000000e+00 0.000000000000e+00 0.000000000000e+00 
4.736842105263e-01 0.000000000000e+00 1.013250000000e+05 1.013250000000e+05 1.000000000000e+00 2.220446049250e-16 0.000000000000e+00 0.000000000000e+00 0.000000000000e+00 0.000000000000e+00 
5.263157894737e-01 0.000000000000e+00 1.013250000000e+05 1.013250000000e+05 1.000000000000e+00 1.110223024625e-16 0.000000000000e+00 0.000000000000e+00 0.000000000000e+00 0.000000000000e+00 
5.789473684210e-01 0.000000000000e+00 1.013250000000e+05 1.013250000000e+05 1.000000000000e+00 2.220446049250e-16 0.000000000000e+00 0.000000000000e+00 0.000000000000e+00 0.000000000000e+00 
6.315789473684e-01 0.000000000000e+00 1.013250000000e+05 1.013250000000e+05 1.000000000000e+00 1.110223024625e-16 0.000000000000e+00 0.000000000000e+00 0.000000000000e+00 0.000000000000e+00 
6.842105263158e-01 0.000000000000e+00 1.013250000000e+05 1.013250000000e+05 1.000000000000e+00 2.220446049250e-16 0.000000000000e+00 0.000000000000e+00 0.000000000000e+00 0.000000000000e+00 
7.368421052631e-01 0.000000000000e+00 1.013250000000e+05 1.013250000000e+05 1.000000000000e+00 2.220446049250e-16 0.000000000000e+00 0.000000000000e+00 0.000000000000e+00 0.000000000000e+00 
7.894736842105e-01 0.000000000000e+00 1.013250000000e+05 1.013250000000e+05 1.000000000000e+00 2.220446049250e-16 0.000000000000e+00 0.000000000000e+00 0.000000000000e+00 0.000000000000e+00 
8.421052631579e-01 0.000000000000e+00 1.013250000000e+05 1.013250000000e+05 1.000000000000e+00 2.220446049250e-16 0.000000000000e+00 0.000000000000e+00 0.000000000000e+00 0.000000000000e+00 
8.947368421053e-01 0.000000000000e+00 1.013250000000e+05 1.013250000000e+05 1.000000000000e+00 1.110223024625e-16 0.000000000000e+00 0.000000000000e+00 0.000000000000e+00 0.000000000000e+00 
9.473684210526e-01 0.000000000000e+00 1.013250000000e+05 1.013250000000e+05 1.000000000000e+00 2.220446049250e-16 0.000000000000e+00 0.000000000000e+00 0.000000000000e+00 0.000000000000e+00 
1.000000000000e+00 0.000000000000e+00 1.013250000000e+05 1.013250000000e+05 1.000000000000e+00 2.220446049250e-16 0.000000000000e+00 0.000000000000e+00 0.000000000000e+00 0.000000000000e+00 
 TITLE = "Profiles along polylines"
 VARIABLES = "DIST" "PRESSURE1" "PRESSURE2" "PRESSURE_W" "SATURATION1" SATURATION2 "VELOCITY_X1" "VELOCITY_Y1" "VELOCITY_X2" "VELOCITY_Y2" 
 ZONE T="TIME=1.000000000000e-03"
0.000000000000e+00 0.000000000000e+00 1.013250000000e+05 1.013250000000e+05 1.000000000000e+00 6.661338147751e-15 -5.220877937972e-14 -2.616649014206e-04 -4.511772122846e-19 1.931099806232e-11 
5.263157894737e-02 1.448417479928e-07 1.013187522445e+05 1.013187522443e+05 9.999999999999e-01 5.617728504603e-14 -3.562099300324e-14 -2.616649008906e-04 -3.009634081752e-19 1.930895239653e-11 
1.052631578947e-01 1.433767120649e-07 1.013125044871e+05 1.013125044870e+05 9.999999999999e-01 5.417888360171e-14 -3.357161767780e-14 -2.616649000570e-04 -2.233522466877e-19 1.930821367469e-11 
1.578947368421e-01 1.434785842095e-07 1.013062567281e+05 1.013062567280e+05 9.999999999999e-01 5.440092820663e-14 -4.040810745209e-14 -2.616648992088e-04 -2.788628423841e-19 1.930693976968e-11 
2.105263157895e-01 1.446102468084e-07 1.013000089675e+05 1.013000089673e+05 9.999999999999e-01 5.484501741648e-14 -4.225003067404e-14 -2.616648983561e-04 -2.930432416594e-19 1.930620236691e-11 
2.631578947368e-01 1.449909359398e-07 1.012937612051e+05 1.012937612050e+05 9.999999999999e-01 5.484501741648e-14 -3.767875023186e-14 -2.616648974954e-04 -2.533620452860e-19 1.930463495528e-11 
3.157894736842e-01 1.469485574024e-07 1.012875134411e+05 1.012875134410e+05 9.999999999999e-01 5.551115123126e-14 -3.457011189311e-14 -2.616648966365e-04 -2.249719112018e-19 1.930360533496e-11 
3.684210526316e-01 1.485044323163e-07 1.012812656755e+05 1.012812656753e+05 9.999999999999e-01 5.628830734850e-14 -3.600341733545e-14 -2.616648957644e-04 -2.348042013598e-19 1.930304892232e-11 
4.210526315789e-01 1.467764457739e-07 1.012750179081e+05 1.012750179079e+05 9.999999999999e-01 5.540012892880e-14 -3.490853123366e-14 -2.616648948964e-04 -2.283703658751e-19 1.930116984656e-11 
4.736842105263e-01 1.438831131184e-07 1.012687701390e+05 1.012687701388e+05 9.999999999999e-01 5.406786129925e-14 -2.683990169316e-14 -2.616648940422e-04 -1.665917500695e-19 1.930017292992e-11 
5.263157894737e-01 1.411772173431e-07 1.012625223683e+05 1.012625223682e+05 9.999999999999e-01 5.329070518201e-14 -1.235387753695e-14 -2.616648932377e-04 -7.226932661386e-20 1.929952257484e-11 
5.789473684210e-01 1.397817653899e-07 1.012562745961e+05 1.012562745959e+05 9.999999999999e-01 5.306866057708e-14 5.297572351992e-14 -2.616648924865e-04 3.495547528311e-19 1.929835191777e-11 
6.315789473684e-01 1.393935773859e-07 1.012500268226e+05 1.012500268225e+05 9.999999999999e-01 5.284661597216e-14 4.062687512487e-13 -2.616648920246e-04 2.706884065896e-18 1.929708826434e-11 
6.842105263158e-01 1.385561365728e-07 1.012437790492e+05 1.012437790491e+05 9.999999999999e-01 5.262457136723e-14 2.206350560300e-12 -2.616648929066e-04 1.473582686915e-17 1.929589844245e-11 
7.368421052631e-01 1.402880391319e-07 1.012375312827e+05 1.012375312826e+05 9.999999999999e-01 5.329070518201e-14 1.090058335103e-11 -2.616649000310e-04 7.286406763798e-17 1.929465078301e-11 
7.894736842105e-01 1.432182437702e-07 1.012312835538e+05 1.012312835537e+05 9.999999999999e-01 5.440092820663e-14 5.363179813139e-11 -2.616649401138e-04 3.585048468992e-16 1.929358814432e-11 
8.421052631579e-01 1.578126813744e-07 1.012250360274e+05 1.012250360272e+05 9.999999999996e-01 3.522737657136e-13 2.961273291144e-10 -2.616651704304e-04 1.996161748118e-15 1.929070627798e-11 
8.947368421053e-01 2.778621109506e-05 1.012187897160e+05 1.012187896882e+05 9.999999993741e-01 6.258509266388e-10 1.717675957639e-09 -2.616663565168e-04 4.415139728977e-14 1.921499594307e-11 
9.473684210526e-01 5.828724073299e-02 1.012126079915e+05 1.012125497043e+05 9.999987182807e-01 1.281719284707e-06 -5.136438551723e-08 -2.615241494033e-04 5.638375088123e-11 -1.165937616767e-10 
1.000000000000e+00 1.195167948485e+02 1.013250000000e+05 1.012054832052e+05 9.999565834714e-01 4.341652859097e-05 -7.321773860287e-08 -2.610758541121e-04 8.465719361643e-11 -5.211634961639e-10 
 TITLE = "Profiles along polylines"
 VARIABLES = "DIST" "PRESSURE1" "PRESSURE2" "PRESSURE_W" "SATURATION1" SATURATION2 "VELOCITY_X1" "VELOCITY_Y1" "VELOCITY_X2" "VELOCITY_Y2" 
 ZONE T="TIME=5.000000000000e+00"
0.000000000000e+00 0.000000000000e+00 1.013250000000e+05 1.013250000000e+05 9.999999212443e-01 7.875574814520e-08 -7.163889620025e-11 -3.702460093601e-05 -3.225897703631e-13 1.514051091741e-09 
5.263157894737e-02 2.101054070906e+00 1.008829577653e+05 1.008808567112e+05 9.999991586426e-01 8.413574168475e-07 -8.901830293499e-11 -3.702331462913e-05 -1.995083594176e-13 1.510037899568e-09 
1.052631578947e-01 3.084726889451e+00 1.004397936105e+05 1.004367088836e+05 9.999988184779e-01 1.181522104376e-06 -1.575078281291e-10 -3.702013446586e-05 -8.998252654191e-14 1.506350825228e-09 
1.578947368421e-01 3.522205363696e+00 9.999607554453e+04 9.999255333917e+04 9.999986560368e-01 1.343963196732e-06 -2.121358676443e-10 -3.701568894368e-05 -4.421619779167e-14 1.500849918443e-09 
2.105263157895e-01 3.711888716701e+00 9.955210020965e+04 9.954838832093e+04 9.999985907698e-01 1.409230181215e-06 -2.361198474451e-10 -3.701060240671e-05 -1.942905504029e-14 1.495002371142e-09 
2.631578947368e-01 3.798228511870e+00 9.910801118085e+04 9.910421295234e+04 9.999985584210e-01 1.441578974415e-06 -2.375135196609e-10 -3.700517101136e-05 -7.363020883418e-15 1.488387958044e-09 
3.157894736842e-01 3.848728080091e+00 9.866387552571e+04 9.866002679763e+04 9.999985401975e-01 1.459802521864e-06 -2.441423370199e-10 -3.699954726946e-05 -1.214135530406e-15 1.481999739019e-09 
3.684210526316e-01 3.901147209536e+00 9.821973073905e+04 9.821582959184e+04 9.999985189812e-01 1.481018761185e-06 -2.632190817125e-10 -3.699379977430e-05 6.881534078853e-15 1.475145314516e-09 
4.210526315789e-01 4.001237729610e+00 9.777562226602e+04 9.777162102829e+04 9.999984789627e-01 1.521037304886e-06 -2.820670686957e-10 -3.698783545327e-05 2.597068197761e-14 1.468325079171e-09 
4.736842105263e-01 4.257736885434e+00 9.733165819651e+04 9.732740045962e+04 9.999983702765e-01 1.629723457741e-06 -3.300434337809e-10 -3.698124180130e-05 8.103993016219e-14 1.460542836430e-09 
5.263157894737e-01 4.980998988934e+00 9.688814714482e+04 9.688316614583e+04 9.999980765240e-01 1.923476005139e-06 -4.531677052280e-10 -3.697308582875e-05 2.247090269382e-13 1.451340146583e-09 
5.789473684210e-01 7.023708470150e+00 9.644593711368e+04 9.643891340521e+04 9.999972126338e-01 2.787366171098e-06 -8.033167906333e-10 -3.696055074422e-05 6.272185254060e-13 1.436807071195e-09 
6.315789473684e-01 1.272588458990e+01 9.600735534967e+04 9.599462946508e+04 9.999949178965e-01 5.082103548215e-06 -1.632799870795e-09 -3.693703855382e-05 1.584150025334e-12 1.410108003196e-09 
6.842105263158e-01 2.797186131817e+01 9.557825421089e+04 9.555028234957e+04 9.999887201995e-01 1.127980045645e-05 -3.461652757329e-09 -3.688597520777e-05 3.711756315210e-12 1.352125024109e-09 
7.368421052631e-01 6.689269438834e+01 9.517268812187e+04 9.510579542748e+04 9.999724751573e-01 2.752484267687e-05 -7.355080904364e-09 -3.677262621495e-05 8.175447209327e-12 1.223917307234e-09 
7.894736842105e-01 1.602007430776e+02 9.482120295572e+04 9.466100221264e+04 9.999355338999e-01 6.446610005773e-05 -1.470261718369e-08 -3.653336602244e-05 1.647336016019e-11 9.548051733229e-10 
8.421052631579e-01 3.672003281255e+02 9.458278163353e+04 9.421558130540e+04 9.998508303519e-01 1.491696481466e-04 -2.724453189347e-08 -3.608644920827e-05 2.928449337874e-11 4.545446100691e-10 
8.947368421053e-01 7.752514981188e+02 9.454430700559e+04 9.376905550748e+04 9.997409463372e-01 2.590536627959e-04 -1.861733389050e-07 -3.509082808251e-05 1.985244664604e-10 -6.682190773633e-10 
9.473684210526e-01 1.794202363510e+03 9.511338127798e+04 9.331917891447e+04 9.985791150733e-01 1.420884926676e-03 -2.008505680023e-06 -2.831885115625e-05 2.248524121970e-09 -8.523152594359e-09 
1.000000000000e+00 8.486133482982e+03 1.013250000000e+05 9.283886651702e+04 9.452999520019e-01 5.470004799813e-02 -2.528404922709e-06 -1.237811382572e-05 3.443770483408e-09 -2.667221128434e-08 
 TITLE = "Profiles along polylines"
 VARIABLES = "DIST" "PRESSURE1" "PRESSURE2" "PRESSURE_W" "SATURATION1" SATURATION2 "VELOCITY_X1" "VELOCITY_Y1" "VELOCITY_X2" "VELOCITY_Y2" 
 ZONE T="TIME=1.000000000000e+01"
0.000000000000e+00 0.000000000000e+00 1.013250000000e+05 1.013250000000e+05 9.999998603522e-01 1.396477635751e-07 -4.921190237910e-11 -2.553479692471e-05 -3.880550070708e-13 1.584870215582e-09 
5.263157894737e-02 3.818633015047e+00 1.008622781378e+05 1.008584595048e+05 9.999984602922e-01 1.539707811249e-06 -6.944436999268e-11 -2.553382079743e-05 -2.518594939187e-13 1.581001598122e-09 
1.052631578947e-01 6.128869339385e+00 1.003980444895e+05 1.003919156202e+05 9.999976431497e-01 2.356850254293e-06 -1.333449387704e-10 -2.553125409207e-05 -1.453965045642e-13 1.578058297603e-09 
1.578947368421e-01 7.478241764545e+00 9.993284352280e+04 9.992536528104e+04 9.999971339207e-01 2.866079329422e-06 -1.969010242703e-10 -2.552730727687e-05 -9.125631859149e-14 1.573129459176e-09 
2.105263157895e-01 8.260070025245e+00 9.946706624266e+04 9.945880617263e+04 9.999968572766e-01 3.142723379979e-06 -2.395923466874e-10 -2.552236436384e-05 -4.495463523807e-14 1.567464266539e-09 
2.631578947368e-01 8.762940042418e+00 9.900099953638e+04 9.899223659634e+04 9.999966638135e-01 3.336186541247e-06 -2.637340064141e-10 -2.551661398614e-05 -5.148773496537e-15 1.560456586602e-09 
3.157894736842e-01 9.232576410340e+00 9.853488769551e+04 9.852565511910e+04 9.999964866503e-01 3.513349716933e-06 -3.045338451203e-10 -2.551004960282e-05 4.117677650598e-14 1.552982839588e-09 
3.684210526316e-01 9.970503043055e+00 9.806903052810e+04 9.805906002505e+04 9.999961840478e-01 3.815952154707e-06 -3.932568830105e-10 -2.550232954659e-05 1.301691588667e-13 1.543805613687e-09 
4.210526315789e-01 1.150722058898e+01 9.760395558881e+04 9.759244836822e+04 9.999955770509e-01 4.422949094529e-06 -5.424122023953e-10 -2.549241737886e-05 3.024625520424e-13 1.532410723791e-09 
4.736842105263e-01 1.491208298695e+01 9.714072637900e+04 9.712581429601e+04 9.999941692446e-01 5.830755394065e-06 -8.496522168680e-10 -2.547786981490e-05 6.622208249645e-13 1.515413523249e-09 
5.263157894737e-01 2.242064134281e+01 9.668156630195e+04 9.665914566061e+04 9.999912120249e-01 8.787975124935e-06 -1.418210698219e-09 -2.545432106967e-05 1.326851705206e-12 1.488498199139e-09 
5.789473684210e-01 3.838673878693e+01 9.623080563742e+04 9.619241889863e+04 9.999846622429e-01 1.533775710394e-05 -2.524688146057e-09 -2.541325893216e-05 2.613349024668e-12 1.441294079137e-09 
6.315789473684e-01 7.108195633385e+01 9.579667128919e+04 9.572558933286e+04 9.999719309660e-01 2.806903401131e-05 -4.329673272778e-09 -2.534205605099e-05 4.708143454871e-12 1.360217964100e-09 
6.842105263158e-01 1.345244441897e+02 9.539310593554e+04 9.525858149135e+04 9.999468909003e-01 5.310909972911e-05 -6.770238508616e-09 -2.522000802890e-05 7.558327470746e-12 1.221641762120e-09 
7.368421052631e-01 2.507530277893e+02 9.504203010129e+04 9.479127707351e+04 9.998997944183e-01 1.002055816985e-04 -1.062228573675e-08 -2.502326297207e-05 1.200611340683e-11 9.990665163173e-10 
7.894736842105e-01 4.508337135334e+02 9.477434348278e+04 9.432350976924e+04 9.998230026936e-01 1.769973064023e-04 -1.841477048748e-08 -2.472809345992e-05 2.082872689444e-11 6.661352304046e-10 
8.421052631579e-01 7.753285383459e+02 9.463039097677e+04 9.385506243842e+04 9.997056063829e-01 2.943936170967e-04 -7.029228858747e-08 -2.429894630162e-05 7.933223733110e-11 1.807049586371e-10 
8.947368421053e-01 1.300896822983e+03 9.468642369585e+04 9.338552687286e+04 9.990086622380e-01 9.913377620121e-04 -2.139011488523e-07 -2.295787303024e-05 2.319816601248e-10 -1.333964418061e-09 
9.473684210526e-01 2.670159204116e+03 9.558159753109e+04 9.291143832698e+04 9.959578552774e-01 4.042144722625e-03 -1.478821203023e-06 -1.631089926861e-05 1.614074853054e-09 -9.009059085471e-09 
1.000000000000e+00 8.914183690492e+03 1.013250000000e+05 9.241081630951e+04 9.349040396242e-01 6.509596037583e-02 -1.869514673254e-06 -4.010496272348e-06 2.540180048287e-09 -2.366348105258e-08 
 TITLE = "Profiles along polylines"
 VARIABLES = "DIST" "PRESSURE1" "PRESSURE2" "PRESSURE_W" "SATURATION1" SATURATION2 "VELOCITY_X1" "VELOCITY_Y1" "VELOCITY_X2" "VELOCITY_Y2" 
 ZONE T="TIME=2.000000000000e+01"
0.000000000000e+00 0.000000000000e+00 1.013250000000e+05 1.013250000000e+05 9.999997647960e-01 2.352039978337e-07 -4.044551526146e-11 -1.917756992596e-05 -4.160609221164e-13 1.617948332578e-09 
5.263157894737e-02 6.552006816724e+00 1.008526192874e+05 1.008460672806e+05 9.999973403999e-01 2.659600128574e-06 -6.364607107910e-11 -1.917669154839e-05 -2.718009966768e-13 1.614095428327e-09 
1.052631578947e-01 1.143841639473e+01 1.003785700018e+05 1.003671315854e+05 9.999955777039e-01 4.422296110640e-06 -1.355725636726e-10 -1.917424715450e-05 -1.543815353789e-13 1.611302964998e-09 
1.578947368421e-01 1.526273627908e+01 9.990345227892e+04 9.988818954264e+04 9.999941030332e-01 5.896966766006e-06 -2.333549425103e-10 -1.916998953873e-05 -6.003082815109e-14 1.605993831789e-09 
2.105263157895e-01 1.867367855342e+01 9.942791111045e+04 9.940923743190e+04 9.999928444749e-01 7.155525115543e-06 -3.454392624911e-10 -1.916365332750e-05 6.904024531934e-14 1.598682136802e-09 
2.631578947368e-01 2.248293379185e+01 9.895275363292e+04 9.893027069913e+04 9.999913318182e-01 8.668181841642e-06 -4.743277066274e-10 -1.915452195731e-05 2.344425766715e-13 1.587684518084e-09 
3.157894736842e-01 2.783427383291e+01 9.847911731462e+04 9.845128304079e+04 9.999892860156e-01 1.071398439345e-05 -6.843442070960e-10 -1.914132409099e-05 4.825564092078e-13 1.572431578882e-09 
3.684210526316e-01 3.645568532113e+01 9.800872073064e+04 9.797226504532e+04 9.999858060439e-01 1.419395611335e-05 -1.051501407641e-09 -1.912209248967e-05 9.028129080173e-13 1.549811927076e-09 
4.210526315789e-01 5.097264400790e+01 9.754417516397e+04 9.749320251996e+04 9.999802204929e-01 1.977950712773e-05 -1.550773023290e-09 -1.909391263691e-05 1.490745560249e-12 1.517190893266e-09 
4.736842105263e-01 7.527442660017e+01 9.708934898302e+04 9.701407455642e+04 9.999704261870e-01 2.957381299318e-05 -2.266237887781e-09 -1.905226645692e-05 2.337473101997e-12 1.468867637022e-09 
5.263157894737e-01 1.150343747113e+02 9.664988515930e+04 9.653485078459e+04 9.999552011511e-01 4.479884894537e-05 -3.176592522275e-09 -1.899255482398e-05 3.411941162318e-12 1.400279091772e-09 
5.789473684210e-01 1.778196658650e+02 9.623331056435e+04 9.605549089849e+04 9.999300588033e-01 6.994119670944e-05 -4.390109790005e-09 -1.890871631307e-05 4.844791655088e-12 1.304033940561e-09 
6.315789473684e-01 2.733454268774e+02 9.584928882152e+04 9.557594339464e+04 9.998938032658e-01 1.061967341882e-04 -5.691539333184e-09 -1.879762118608e-05 6.384106121773e-12 1.177182674509e-09 
6.842105263158e-01 4.123991235102e+02 9.550855072681e+04 9.509615160330e+04 9.998400063381e-01 1.599936619054e-04 -6.209868538669e-09 -1.865619333897e-05 7.048882448563e-12 1.016075079849e-09 
7.368421052631e-01 6.050734066208e+02 9.522113678843e+04 9.461606338181e+04 9.997634615830e-01 2.365384170298e-04 -3.974540549767e-09 -1.849195846318e-05 4.586630681741e-12 8.294337721491e-10 
7.894736842105e-01 8.563373210824e+02 9.499199249326e+04 9.413565517218e+04 9.996814795033e-01 3.185204967424e-04 -1.662191058625e-08 -1.824383207845e-05 1.964543940925e-11 5.459176014141e-10 
8.421052631579e-01 1.240951935533e+03 9.489547790376e+04 9.365452596823e+04 9.991081194323e-01 8.918805677018e-04 -4.590842718492e-08 -1.750212681107e-05 5.279235316865e-11 -2.932637720718e-10 
8.947368421053e-01 2.028750400801e+03 9.519999138221e+04 9.317124098141e+04 9.976428934216e-01 2.357106578403e-03 -1.754086666972e-07 -1.575317075969e-05 1.992314454084e-10 -2.297487624016e-09 
9.473684210526e-01 3.740774555741e+03 9.642381314400e+04 9.268303858826e+04 9.903105334536e-01 9.689466546385e-03 -8.126656360588e-07 -9.964729716670e-06 8.784463504378e-10 -8.981697999761e-09 
1.000000000000e+00 9.150531695812e+03 1.013250000000e+05 9.217446830419e+04 9.267246547660e-01 7.327534523402e-02 -1.119068532214e-06 -1.595069288882e-06 1.514374142469e-09 -1.918065794323e-08 
 TITLE = "Profiles along polylines"
 VARIABLES = "DIST" "PRESSURE1" "PRESSURE2" "PRESSURE_W" "SATURATION1" SATURATION2 "VELOCITY_X1" "VELOCITY_Y1" "VELOCITY_X2" "VELOCITY_Y2" 
 ZONE T="TIME=3.000000000000e+01"
0.000000000000e+00 0.000000000000e+00 1.013250000000e+05 1.013250000000e+05 9.999996422369e-01 3.577631424445e-07 -6.570969998128e-11 -1.620232410046e-05 -3.878939014274e-13 1.625746332536e-09 
5.263157894737e-02 1.009045037684e+01 1.008503579583e+05 1.008402675079e+05 9.999958812921e-01 4.118707911394e-06 -1.048821894544e-10 -1.620093420502e-05 -2.235653388493e-13 1.621265103239e-09 
1.052631578947e-01 1.883988451254e+01 1.003743700879e+05 1.003555302034e+05 9.999926782367e-01 7.321763265677e-06 -2.282676436979e-10 -1.619691793725e-05 -4.352807669996e-14 1.616592652776e-09 
1.578947368421e-01 2.729367707103e+01 9.989807599894e+04 9.987078232187e+04 9.999893728293e-01 1.062717065925e-05 -4.070503929099e-10 -1.618964099643e-05 1.489245844785e-13 1.607689815798e-09 
2.105263157895e-01 3.669245973497e+01 9.942270941871e+04 9.938601695898e+04 9.999858554021e-01 1.414459786631e-05 -6.175488205100e-10 -1.617840890295e-05 3.968569653345e-13 1.594575619366e-09 
2.631578947368e-01 4.862236658239e+01 9.894984778571e+04 9.890122541913e+04 9.999811123712e-01 1.888762880187e-05 -8.461060048094e-10 -1.616195370131e-05 6.830630897485e-13 1.574951016571e-09 
3.157894736842e-01 6.518995875766e+01 9.848158624085e+04 9.841639628209e+04 9.999748251034e-01 2.517489656162e-05 -1.173413620696e-09 -1.613858939176e-05 1.073494961833e-12 1.547756630379e-09 
3.684210526316e-01 8.919574023217e+01 9.802071022891e+04 9.793151448868e+04 9.999652370087e-01 3.476299126026e-05 -1.669381200278e-09 -1.610640323740e-05 1.651528574826e-12 1.510011684863e-09 
4.210526315789e-01 1.242361511345e+02 9.757079698176e+04 9.744656083062e+04 9.999519297223e-01 4.807027765641e-05 -2.225349919849e-09 -1.606327461553e-05 2.312061161437e-12 1.459976004688e-09 
4.736842105263e-01 1.747476531055e+02 9.713625942181e+04 9.696151176870e+04 9.999317963004e-01 6.820369958049e-05 -2.878834608230e-09 -1.600635665757e-05 3.094631118357e-12 1.393945187208e-09 
5.263157894737e-01 2.460805876518e+02 9.672241968086e+04 9.647633909321e+04 9.999048096066e-01 9.519039339900e-05 -3.568066908844e-09 -1.593435750368e-05 3.919150909822e-12 1.311050351123e-09 
5.789473684210e-01 3.441492797604e+02 9.633516116590e+04 9.599101188614e+04 9.998659014494e-01 1.340985506351e-04 -4.387279502536e-09 -1.584527028535e-05 4.901787125606e-12 1.208596126649e-09 
6.315789473684e-01 4.753747391705e+02 9.598087159633e+04 9.550549685716e+04 9.998165733449e-01 1.834266550944e-04 -5.323409986555e-09 -1.573989274985e-05 6.018703520381e-12 1.087907426045e-09 
6.842105263158e-01 6.461771237367e+02 9.566593824765e+04 9.501976112392e+04 9.997508848763e-01 2.491151236781e-04 -7.086285802980e-09 -1.561565975215e-05 8.083673445382e-12 9.458854589624e-10 
7.368421052631e-01 8.637394097800e+02 9.539750737088e+04 9.453376796110e+04 9.996704081352e-01 3.295918648267e-04 -1.991473099723e-08 -1.546779499587e-05 2.302997808109e-11 7.763895744871e-10 
7.894736842105e-01 1.143335459184e+03 9.519077486390e+04 9.404743940471e+04 9.993348138600e-01 6.651861400488e-04 -3.647627414831e-08 -1.507614308373e-05 4.218924563017e-11 3.295863941704e-10 
8.421052631579e-01 1.650340843955e+03 9.521023746420e+04 9.355989662024e+04 9.983515005141e-01 1.648499485871e-03 -6.558554774460e-08 -1.417112278035e-05 7.692318809267e-11 -6.997123308581e-10 
8.947368421053e-01 2.567108800006e+03 9.563728465051e+04 9.307017585051e+04 9.960220451783e-01 3.977954821698e-03 -1.605990865379e-07 -1.239657368301e-05 1.861741327825e-10 -2.749128744762e-09 
9.473684210526e-01 4.436295615418e+03 9.701171676346e+04 9.257542114804e+04 9.851384100545e-01 1.486158994554e-02 -5.124551609229e-07 -7.247792304666e-06 5.534860286265e-10 -8.708140394839e-09 
1.000000000000e+00 9.260757497934e+03 1.013250000000e+05 9.206424250207e+04 9.224546604833e-01 7.754533951674e-02 -7.416995585703e-07 -1.030897981420e-06 9.967960138228e-10 -1.635834752538e-08 
 TITLE = "Profiles along polylines"
 VARIABLES = "DIST" "PRESSURE1" "PRESSURE2" "PRESSURE_W" "SATURATION1" SATURATION2 "VELOCITY_X1" "VELOCITY_Y1" "VELOCITY_X2" "VELOCITY_Y2" 
 ZONE T="TIME=6.000000000000e+01"
0.000000000000e+00 0.000000000000e+00 1.013250000000e+05 1.013250000000e+05 9.999988276339e-01 1.172366123292e-06 -1.487536750921e-10 -1.181100301758e-05 -2.442299739763e-13 1.574749352442e-09 
5.263157894737e-02 3.358672222118e+01 1.008652939250e+05 1.008317072028e+05 9.999862066292e-01 1.379337083685e-05 -2.306635253058e-10 -1.180785246720e-05 -3.873790486917e-14 1.568406877637e-09 
1.052631578947e-01 6.712976179665e+01 1.004055333760e+05 1.003384036142e+05 9.999738101770e-01 2.618982295854e-05 -4.813448703312e-10 -1.179900402672e-05 2.929889623525e-13 1.557937277499e-09 
1.578947368421e-01 1.028170437876e+02 9.994789433784e+04 9.984507729405e+04 9.999598261619e-01 4.017383813415e-05 -7.968149972050e-10 -1.178387843627e-05 6.545393112326e-13 1.539703632588e-09 
2.105263157895e-01 1.428857175853e+02 9.949460177126e+04 9.935171605368e+04 9.999448948783e-01 5.510512173623e-05 -1.093879285328e-09 -1.176248949652e-05 1.009926542439e-12 1.514498716091e-09 
2.631578947368e-01 1.896440181656e+02 9.904795149963e+04 9.885830748146e+04 9.999264807940e-01 7.351920603560e-05 -1.330383962093e-09 -1.173448061000e-05 1.308999871189e-12 1.481229603907e-09 
3.157894736842e-01 2.454955946593e+02 9.861033440778e+04 9.836483881312e+04 9.999055931089e-01 9.440689109774e-05 -1.606642540033e-09 -1.169970974782e-05 1.644663252853e-12 1.440508384001e-09 
3.684210526316e-01 3.128982176547e+02 9.818419537752e+04 9.787129715986e+04 9.998790235678e-01 1.209764321621e-04 -1.961857006659e-09 -1.165839597995e-05 2.065368208186e-12 1.391981351289e-09 
4.210526315789e-01 3.942648504910e+02 9.777193489712e+04 9.737767004662e+04 9.998485960742e-01 1.514039258212e-04 -2.242915898025e-09 -1.161096481616e-05 2.408056425684e-12 1.336686158485e-09 
4.736842105263e-01 4.918823074185e+02 9.737582815785e+04 9.688394585043e+04 9.998101504279e-01 1.898495721138e-04 -2.494797051047e-09 -1.155733572146e-05 2.722818598626e-12 1.274188636980e-09 
5.263157894737e-01 6.078958294563e+02 9.699800970458e+04 9.639011387512e+04 9.997668383399e-01 2.331616600568e-04 -2.753368504075e-09 -1.149870994946e-05 3.043256890709e-12 1.206285113085e-09 
5.789473684210e-01 7.442841630703e+02 9.664044862177e+04 9.589616445870e+04 9.997132374800e-01 2.867625199738e-04 -3.639224169323e-09 -1.143444567381e-05 4.089023809540e-12 1.131893798902e-09 
6.315789473684e-01 9.035186448014e+02 9.630560398137e+04 9.540208533657e+04 9.996573788898e-01 3.426211101785e-04 -1.019893483944e-08 -1.136221580259e-05 1.179612456231e-11 1.048227662679e-09 
6.842105263158e-01 1.092355764007e+03 9.600019797330e+04 9.490784220929e+04 9.994415031106e-01 5.584968894032e-04 -1.622953638919e-08 -1.117996003534e-05 1.885814567028e-11 8.386536122233e-10 
7.368421052631e-01 1.384496684049e+03 9.579754024531e+04 9.441304356126e+04 9.988681886153e-01 1.131811384680e-03 -2.268336513970e-08 -1.078212682805e-05 2.669969177456e-11 3.843958129769e-10 
7.894736842105e-01 1.847928598052e+03 9.576525924268e+04 9.391733064463e+04 9.980445118111e-01 1.955488188855e-03 -3.058868481540e-08 -1.024384901884e-05 3.678974680036e-11 -2.345167128631e-10 
8.421052631579e-01 2.525681622242e+03 9.594617007679e+04 9.342048845455e+04 9.961069742529e-01 3.893025747061e-03 -6.062211412434e-08 -9.400104380191e-06 7.286280926991e-11 -1.208649388727e-09 
8.947368421053e-01 3.614753105281e+03 9.653624984155e+04 9.292149673627e+04 9.910273680762e-01 8.972631923834e-03 -1.277380412170e-07 -7.596772700022e-06 1.529415038141e-10 -3.307754273815e-09 
9.473684210526e-01 5.625407266815e+03 9.804302771175e+04 9.241762044493e+04 9.737246749600e-01 2.627532503997e-02 -2.051653331027e-07 -3.803249128753e-06 2.241638549964e-10 -7.734112849514e-09 
1.000000000000e+00 9.421398151958e+03 1.013250000000e+05 9.190360184804e+04 9.162560328447e-01 8.374396715532e-02 -3.205062336694e-07 -4.606727929019e-07 4.203820563864e-10 -1.192161843156e-08 
 ZONE T="TIME=1.200000000000e+02"
0.000000000000e+00 0.000000000000e+00 1.013250000000e+05 1.013250000000e+05 9.999969368020e-01 3.063197989484e-06 -8.271836944711e-11 -8.260500591197e-06 -2.160690375499e-13 1.412008960934e-09 
5.263157894737e-02 8.796971785971e+01 1.009127561157e+05 1.008247863979e+05 9.999638699326e-01 3.613006741721e-05 -1.441214391119e-10 -8.258151087566e-06 -6.239199772695e-14 1.407269154723e-09 
1.052631578947e-01 1.756955476679e+02 1.005002614626e+05 1.003245659150e+05 9.999315256243e-01 6.847437567936e-05 -3.150258973649e-10 -8.252002687564e-06 1.658430210458e-13 1.399992404349e-09 
1.578947368421e-01 2.646647082305e+02 1.000889951402e+05 9.982433043194e+04 9.998968315689e-01 1.031684311176e-04 -5.150435250413e-10 -8.241713073849e-06 3.932085898700e-13 1.387539913912e-09 
2.105263157895e-01 3.562938590614e+02 9.968036607244e+04 9.932407221337e+04 9.998629669600e-01 1.370330400063e-04 -6.857634915408e-10 -8.227663405402e-06 5.974181881873e-13 1.370940761112e-09 
2.631578947368e-01 4.519099294380e+02 9.927569404331e+04 9.882378411387e+04 9.998256051856e-01 1.743948143784e-04 -8.005428711341e-10 -8.210009168440e-06 7.463912942929e-13 1.349856302281e-09 
3.157894736842e-01 5.527347593703e+02 9.887619441409e+04 9.832345965472e+04 9.997882805710e-01 2.117194290192e-04 -9.208271308520e-10 -8.189191670519e-06 8.936016441285e-13 1.325378953207e-09 