 TITLE = "Profiles along polylines"
 VARIABLES = "DIST" "PRESSURE1" "PRESSURE2" "PRESSURE_W" "SATURATION1" SATURATION2 "VELOCITY_X1" "VELOCITY_Y1" "VELOCITY_X2" "VELOCITY_Y2" 
 ZONE T="TIME=0.000000000000e+00"
0.000000000000e+00 0.000000000000e+00 1.013250000000e+05 1.013250000000e+05 1.000000000000e+00 2.220446049250e-16 0.000000000000e+00 0.000000000000e+00 0.000000000000e+00 0.000000000000e+00 
5.263157894737e-02 0.000000000000e+00 1.013250000000e+05 1.013250000000e+05 1.000000000000e+00 2.220446049250e-16 0.000000000000e+00 0.000000000000e+00 0.000000000000e+00 0.000000000000e+00 
1.052631578947e-01 0.000000000000e+00 1.013250000000e+05 1.013250000000e+05 1.000000000000e+00 2.220446049250e-16 0.000000000000e+00 0.000000000000e+00 0.000000000000e+00 0.000000000000e+00 
1.578947368421e-01 0.000000000000e+00 1.013250000000e+05 1.013250000000e+05 1.000000000000e+00 2.220446049250e-16 0.000000000000e+00 0.000000000000e+00 0.000000000000e+00 0.000000000000e+00 
2.105263157895e-01 0.000000000000e+00 1.013250000000e+05 1.013250000000e+05 1.000000000000e+00 2.220446049250e-16 0.000000000000e+00 0.000000000000e+00 0.000000000000e+00 0.000000000000e+00 
2.631578947368e-01 0.000000000000e+00 1.013250000000e+05 1.013250000000e+05 1.000000000000e+00 2.220446049250e-16 0.000000000000e+00 0.000000000000e+00 0.000000000000e+00 0.000000000000e+00 
3.157894736842e-01 0.000000000000e+00 1.013250000000e+05 1.013250000000e+05 1.000000000000e+00 2.220446049250e-16 0.000000000000e+00 0.000000000000e+00 0.000000000000e+00 0.000000000000e+00 
3.684210526316e-01 0.000000000000e+00 1.013250000000e+05 1.013250000000e+05 1.000000000000e+00 2.220446049250e-16 0.000000000000e+00 0.000000000000e+00 0.000000000000e+00 0.000000000000e+00 
4.210526315789e-01 0.000000000000e+00 1.013250000000e+05 1.013250000000e+05 1.000000000000e+00 2.220446049250e-16 0.000000000000e+00 0.000000000000e+00 0.000000000000e+00 0.000000000000e+00 
4.736842105263e-01 0.000000000000e+00 1.013250000000e+05 1.013250000000e+05 1.000000000000e+00 2.220446049250e-16 0.000000000000e+00 0.000000000000e+00 0.000000000000e+00 0.000000000000e+00 
5.263157894737e-01 0.000000000000e+00 1.013250000000e+05 1.013250000000e+05 1.000000000000e+00 2.220446049250e-16 0.000000000000e+00 0.000000000000e+00 0.000000000000e+00 0.000000000000e+00 
5.789473684210e-01 0.000000000000e+00 1.013250000000e+05 1.013250000000e+05 1.000000000000e+00 2.220446049250e-16 0.000000000000e+00 0.000000000000e+00 0.000000000000e+00 0.000000000000e+00 
6.315789473684e-01 0.000000000000e+00 1.013250000000e+05 1.013250000000e+05 1.000000000000e+00 2.220446049250e-16 0.000000000000e+00 0.000000000000e+00 0.000000000000e+00 0.000000000000e+00 
6.842105263158e-01 0.000000000000e+00 1.013250000000e+05 1.013250000000e+05 1.000000000000e+00 2.220446049250e-16 0.000000000000e+00 0.000000000000e+00 0.000000000000e+00 0.000000000000e+00 
7.368421052631e-01 0.000000000000e+00 1.013250000000e+05 1.013250000000e+05 1.000000000000e+00 2.220446049250e-16 0.000000000000e+00 0.000000000000e+00 0.000000000000e+00 0.000000000000e+00 
7.894736842105e-01 0.000000000000e+00 1.013250000000e+05 1.013250000000e+05 1.000000000000e+00 2.220446049250e-16 0.000000000000e+00 0.000000000000e+00 0.000000000000e+00 0.000000000000e+00 
8.421052631579e-01 0.000000000000e+00 1.013250000000e+05 1.013250000000e+05 1.000000000000e+00 2.220446049250e-16 0.000000000000e+00 0.000000000000e+00 0.000000000000e+00 0.000000000000e+00 
8.947368421053e-01 0.000000000000e+00 1.013250000000e+05 1.013250000000e+05 1.000000000000e+00 2.220446049250e-16 0.000000000000e+00 0.000000000000e+00 0.000000000000e+00 0.000000000000e+00 
9.473684210526e-01 0.000000000000e+00 1.013250000000e+05 1.013250000000e+05 1.000000000000e+00 2.220446049250e-16 0.000000000000e+00 0.000000000000e+00 0.000000000000e+00 0.000000000000e+00 
1.000000000000e+00 0.000000000000e+00 1.013250000000e+05 1.013250000000e+05 1.000000000000e+00 2.220446049250e-16 0.000000000000e+00 0.000000000000e+00 0.000000000000e+00 0.000000000000e+00 
 TITLE = "Profiles along polylines"
 VARIABLES = "DIST" "PRESSURE1" "PRESSURE2" "PRESSURE_W" "SATURATION1" SATURATION2 "VELOCITY_X1" "VELOCITY_Y1" "VELOCITY_X2" "VELOCITY_Y2" 
 ZONE T="TIME=1.000000000000e-03"
0.000000000000e+00 0.000000000000e+00 1.013250000000e+05 1.013250000000e+05 1.000000000000e+00 1.854072451124e-14 -2.625029807137e-04 0.000000000000e+00 1.370335774911e-11 0.000000000000e+00 
5.263157894737e-02 7.347065839540e-08 1.013203859274e+05 1.013203859273e+05 1.000000000000e+00 2.320366121467e-14 -2.625029804957e-04 0.000000000000e+00 1.370252205532e-11 0.000000000000e+00 
1.052631578947e-01 7.351410625635e-08 1.013157718539e+05 1.013157718538e+05 1.000000000000e+00 2.786659791809e-14 -2.625029800596e-04 0.000000000000e+00 1.370142441566e-11 0.000000000000e+00 
1.578947368421e-01 7.349033442045e-08 1.013111577795e+05 1.013111577794e+05 1.000000000000e+00 2.786659791809e-14 -2.625029796231e-04 0.000000000000e+00 1.370090052066e-11 0.000000000000e+00 
2.105263157895e-01 7.347040227581e-08 1.013065437042e+05 1.013065437042e+05 1.000000000000e+00 2.786659791809e-14 -2.625029791863e-04 0.000000000000e+00 1.370037661865e-11 0.000000000000e+00 
2.631578947368e-01 7.350650181795e-08 1.013019296282e+05 1.013019296281e+05 1.000000000000e+00 2.786659791809e-14 -2.625029787491e-04 0.000000000000e+00 1.369985270977e-11 0.000000000000e+00 
3.157894736842e-01 7.363840913359e-08 1.012973155512e+05 1.012973155511e+05 1.000000000000e+00 2.797762022055e-14 -2.625029783113e-04 0.000000000000e+00 1.369932879572e-11 0.000000000000e+00 
3.684210526316e-01 7.383769178338e-08 1.012927014734e+05 1.012927014733e+05 1.000000000000e+00 2.797762022055e-14 -2.625029778726e-04 0.000000000000e+00 1.369880487848e-11 0.000000000000e+00 
4.210526315789e-01 7.395852635734e-08 1.012880873948e+05 1.012880873947e+05 1.000000000000e+00 2.797762022055e-14 -2.625029774332e-04 0.000000000000e+00 1.369828095767e-11 0.000000000000e+00 
4.736842105263e-01 7.378188190776e-08 1.012834733153e+05 1.012834733152e+05 1.000000000000e+00 2.786659791809e-14 -2.625029769939e-04 0.000000000000e+00 1.369775702687e-11 0.000000000000e+00 
5.263157894737e-01 7.325086086337e-08 1.012788592349e+05 1.012788592348e+05 1.000000000000e+00 2.775557561563e-14 -2.625029765563e-04 0.000000000000e+00 1.369723307510e-11 0.000000000000e+00 
5.789473684210e-01 7.280507190559e-08 1.012742451537e+05 1.012742451536e+05 1.000000000000e+00 2.775557561563e-14 -2.625029761206e-04 0.000000000000e+00 1.369670909936e-11 0.000000000000e+00 
6.315789473684e-01 7.323455575016e-08 1.012696310716e+05 1.012696310716e+05 1.000000000000e+00 2.797762022055e-14 -2.625029756840e-04 0.000000000000e+00 1.369618511983e-11 0.000000000000e+00 
6.842105263158e-01 7.443822098708e-08 1.012650169887e+05 1.012650169886e+05 1.000000000000e+00 2.819966482548e-14 -2.625029752425e-04 0.000000000000e+00 1.369566116607e-11 0.000000000000e+00 
7.368421052631e-01 7.460934953624e-08 1.012604029049e+05 1.012604029049e+05 1.000000000000e+00 2.819966482548e-14 -2.625029747993e-04 0.000000000000e+00 1.369513721948e-11 0.000000000000e+00 
7.894736842105e-01 7.310728627386e-08 1.012557888203e+05 1.012557888202e+05 1.000000000000e+00 3.108624468950e-14 -2.625029743633e-04 0.000000000000e+00 1.369461316697e-11 0.000000000000e+00 
8.421052631579e-01 9.852248329471e-08 1.012511747348e+05 1.012511747347e+05 9.999999999949e-01 5.125455615484e-12 -2.625029738559e-04 0.000000000000e+00 1.369402052050e-11 0.000000000000e+00 
8.947368421053e-01 4.038544999834e-05 1.012465606885e+05 1.012465606481e+05 9.999999923914e-01 7.608557561767e-09 -2.625028526762e-04 0.000000000000e+00 1.359118011928e-11 0.000000000000e+00 
9.473684210526e-01 6.016383250956e-02 1.012420062705e+05 1.012419461066e+05 9.999888272109e-01 1.117278909091e-05 -2.623226687378e-04 0.000000000000e+00 -1.367128144580e-10 0.000000000000e+00 
1.000000000000e+00 8.834636441864e+01 1.013250000000e+05 1.012366536356e+05 9.999776696287e-01 2.233037128363e-05 -2.621426056866e-04 0.000000000000e+00 -2.869142992072e-10 0.000000000000e+00 
 TITLE = "Profiles along polylines"
 VARIABLES = "DIST" "PRESSURE1" "PRESSURE2" "PRESSURE_W" "SATURATION1" SATURATION2 "VELOCITY_X1" "VELOCITY_Y1" "VELOCITY_X2" "VELOCITY_Y2" 
 ZONE T="TIME=5.000000000000e+00"
0.000000000000e+00 0.000000000000e+00 1.013250000000e+05 1.013250000000e+05 9.999994845368e-01 5.154632499726e-07 -3.717015019567e-05 0.000000000000e+00 1.510008407906e-09 0.000000000000e+00 
5.263157894737e-02 2.040038191303e+00 1.008831807607e+05 1.008811407225e+05 9.999992336157e-01 7.663843311079e-07 -3.716893293887e-05 0.000000000000e+00 1.508498491350e-09 0.000000000000e+00 
1.052631578947e-01 3.006149391913e+00 1.004402829255e+05 1.004372767761e+05 9.999988673101e-01 1.132689903649e-06 -3.716571104178e-05 0.000000000000e+00 1.504594855773e-09 0.000000000000e+00 
1.578947368421e-01 3.436403398790e+00 9.999684145299e+04 9.999340504959e+04 9.999987011040e-01 1.298895982327e-06 -3.716126739134e-05 0.000000000000e+00 1.499305143437e-09 0.000000000000e+00 
2.105263157895e-01 3.623547474852e+00 9.955314737727e+04 9.954952382980e+04 9.999986275823e-01 1.372417724133e-06 -3.715617146015e-05 0.000000000000e+00 1.493270732634e-09 0.000000000000e+00 
2.631578947368e-01 3.709655295957e+00 9.910934191384e+04 9.910563225855e+04 9.999985930014e-01 1.406998625497e-06 -3.715074902449e-05 0.000000000000e+00 1.486882073727e-09 0.000000000000e+00 
3.157894736842e-01 3.760641755763e+00 9.866549055092e+04 9.866172990917e+04 9.999985711593e-01 1.428840693207e-06 -3.714515027946e-05 0.000000000000e+00 1.480318682773e-09 0.000000000000e+00 
3.684210526316e-01 3.813995949773e+00 9.822163051301e+04 9.821781651706e+04 9.999985449895e-01 1.455010488760e-06 -3.713940450210e-05 0.000000000000e+00 1.473616761753e-09 0.000000000000e+00 
4.210526315789e-01 3.915614740565e+00 9.777780738966e+04 9.777389177492e+04 9.999984896593e-01 1.510340688071e-06 -3.713341118028e-05 0.000000000000e+00 1.466661707114e-09 0.000000000000e+00 
4.736842105263e-01 4.174467817662e+00 9.733412950170e+04 9.732995503388e+04 9.999983435685e-01 1.656431541930e-06 -3.712681029818e-05 0.000000000000e+00 1.459041636040e-09 0.000000000000e+00 
5.263157894737e-01 4.891740277833e+00 9.689089634213e+04 9.688600460185e+04 9.999979382405e-01 2.061759507788e-06 -3.711858866261e-05 0.000000000000e+00 1.449602077848e-09 0.000000000000e+00 
5.789473684210e-01 6.894721182439e+00 9.644893065252e+04 9.644203593134e+04 9.999968211545e-01 3.178845544127e-06 -3.710608149783e-05 0.000000000000e+00 1.435321984028e-09 0.000000000000e+00 
6.315789473684e-01 1.237374997536e+01 9.601041082927e+04 9.599803707930e+04 9.999938286752e-01 6.171324800963e-06 -3.708268090241e-05 0.000000000000e+00 1.408749777147e-09 0.000000000000e+00 
6.842105263158e-01 2.684026225619e+01 9.558081835302e+04 9.555397809077e+04 9.999861415674e-01 1.385843259505e-05 -3.703320166710e-05 0.000000000000e+00 1.352853411190e-09 0.000000000000e+00 
7.368421052631e-01 6.324719294823e+01 9.517303586920e+04 9.510978867625e+04 9.999674671768e-01 3.253282322013e-05 -3.692643757313e-05 0.000000000000e+00 1.232809483879e-09 0.000000000000e+00 
7.894736842105e-01 1.492180361010e+02 9.481453714636e+04 9.466531911026e+04 9.999253848842e-01 7.461511582063e-05 -3.670950800535e-05 0.000000000000e+00 9.898614416270e-10 0.000000000000e+00 
8.421052631579e-01 3.351547356747e+02 9.455545133362e+04 9.422029659795e+04 9.998402578577e-01 1.597421423476e-04 -3.632804146299e-05 0.000000000000e+00 5.638980178273e-10 0.000000000000e+00 
8.947368421053e-01 6.870751921042e+02 9.446144017817e+04 9.377436498607e+04 9.994648161304e-01 5.351838696219e-04 -3.540296657437e-05 0.000000000000e+00 -4.633436302017e-10 0.000000000000e+00 
9.473684210526e-01 1.517056773949e+03 9.484289940326e+04 9.332584262931e+04 9.820524996472e-01 1.794750035284e-02 -2.573736898527e-05 0.000000000000e+00 -1.150091317595e-08 0.000000000000e+00 
1.000000000000e+00 8.480175343212e+03 1.013250000000e+05 9.284482465679e+04 9.649594191224e-01 3.504058087760e-02 -1.675942949257e-05 0.000000000000e+00 -2.177608189990e-08 0.000000000000e+00 
 TITLE = "Profiles along polylines"
 VARIABLES = "DIST" "PRESSURE1" "PRESSURE2" "PRESSURE_W" "SATURATION1" SATURATION2 "VELOCITY_X1" "VELOCITY_Y1" "VELOCITY_X2" "VELOCITY_Y2" 
 ZONE T="TIME=1.000000000000e+01"
0.000000000000e+00 0.000000000000e+00 1.013250000000e+05 1.013250000000e+05 9.999990405548e-01 9.594452150541e-07 -2.375153518346e-05 0.000000000000e+00 1.593252092573e-09 0.000000000000e+00 
5.263157894737e-02 3.797176387166e+00 1.008587807695e+05 1.008549835931e+05 9.999985092885e-01 1.490711493801e-06 -2.375059375933e-05 0.000000000000e+00 1.592074054764e-09 0.000000000000e+00 
1.052631578947e-01 6.103751214089e+00 1.003910673711e+05 1.003849636199e+05 9.999976625829e-01 2.337417119636e-06 -2.374793135902e-05 0.000000000000e+00 1.588839255395e-09 0.000000000000e+00 
1.578947368421e-01 7.447279295528e+00 9.992238427801e+04 9.991493699871e+04 9.999971641103e-01 2.835889712949e-06 -2.374390129273e-05 0.000000000000e+00 1.584039629196e-09 0.000000000000e+00 
2.105263157895e-01 8.224289006274e+00 9.945312569998e+04 9.944490141098e+04 9.999968688191e-01 3.131180930538e-06 -2.373885095133e-05 0.000000000000e+00 1.578058298584e-09 0.000000000000e+00 
2.631578947368e-01 8.724346228778e+00 9.898357950419e+04 9.897485515796e+04 9.999966663682e-01 3.333631822366e-06 -2.373300878338e-05 0.000000000000e+00 1.571175701332e-09 0.000000000000e+00 
3.157894736842e-01 9.188226914501e+00 9.851398506005e+04 9.850479683314e+04 9.999964565220e-01 3.543477961054e-06 -2.372638434205e-05 0.000000000000e+00 1.563412383155e-09 0.000000000000e+00 
3.684210526316e-01 9.903384678132e+00 9.804462817931e+04 9.803472479463e+04 9.999961069820e-01 3.893018044598e-06 -2.371862423514e-05 0.000000000000e+00 1.554366392682e-09 0.000000000000e+00 
4.210526315789e-01 1.136544273844e+01 9.757600172671e+04 9.756463628398e+04 9.999953798044e-01 4.620195576344e-06 -2.370873710635e-05 0.000000000000e+00 1.542903139315e-09 0.000000000000e+00 
4.736842105263e-01 1.457064757497e+01 9.710909648828e+04 9.709452584071e+04 9.999937983834e-01 6.201616622792e-06 -2.369457385331e-05 0.000000000000e+00 1.526570923826e-09 0.000000000000e+00 
5.263157894737e-01 2.154932570694e+01 9.664593174617e+04 9.662438242046e+04 9.999904108318e-01 9.589168228685e-06 -2.367194199917e-05 0.000000000000e+00 1.500610858088e-09 0.000000000000e+00 
5.789473684210e-01 3.629239126406e+01 9.619047679369e+04 9.615418440242e+04 9.999833948621e-01 1.660513793955e-05 -2.363329829446e-05 0.000000000000e+00 1.456506779505e-09 0.000000000000e+00 
6.315789473684e-01 6.622236888518e+01 9.575011405419e+04 9.568389168530e+04 9.999694618368e-01 3.053816315723e-05 -2.356619121585e-05 0.000000000000e+00 1.380274622158e-09 0.000000000000e+00 
6.842105263158e-01 1.242407583401e+02 9.533767549047e+04 9.521343473213e+04 9.999430802829e-01 5.691971707045e-05 -2.345206676635e-05 0.000000000000e+00 1.251166373920e-09 0.000000000000e+00 
7.368421052631e-01 2.310676406110e+02 9.497376978291e+04 9.474270214230e+04 9.998956623821e-01 1.043376178795e-04 -2.326649348225e-05 0.000000000000e+00 1.041912592333e-09 0.000000000000e+00 
7.894736842105e-01 4.171478035598e+02 9.468867848709e+04 9.427153068354e+04 9.998149726003e-01 1.850273997177e-04 -2.298153184880e-05 0.000000000000e+00 7.211947514849e-10 0.000000000000e+00 
8.421052631579e-01 7.233026631978e+02 9.452300477812e+04 9.379970211492e+04 9.996289679123e-01 3.710320877044e-04 -2.256792901565e-05 0.000000000000e+00 2.566925920213e-10 0.000000000000e+00 
8.947368421053e-01 1.200322141986e+03 9.452727407229e+04 9.332695193030e+04 9.986878781528e-01 1.312121847181e-03 -2.137840163019e-05 0.000000000000e+00 -1.083059426523e-09 0.000000000000e+00 
9.473684210526e-01 2.344533365336e+03 9.519517590796e+04 9.285064254262e+04 9.774987760795e-01 2.250122392052e-02 -1.262418890030e-05 0.000000000000e+00 -1.138386088962e-08 0.000000000000e+00 
1.000000000000e+00 8.980340460353e+03 1.013250000000e+05 9.234465953965e+04 9.571151920358e-01 4.288480796416e-02 -4.816831000035e-06 0.000000000000e+00 -2.061713256493e-08 0.000000000000e+00 
 TITLE = "Profiles along polylines"
 VARIABLES = "DIST" "PRESSURE1" "PRESSURE2" "PRESSURE_W" "SATURATION1" SATURATION2 "VELOCITY_X1" "VELOCITY_Y1" "VELOCITY_X2" "VELOCITY_Y2" 
 ZONE T="TIME=2.000000000000e+01"
0.000000000000e+00 0.000000000000e+00 1.013250000000e+05 1.013250000000e+05 9.999983363643e-01 1.663635656901e-06 -1.736838013971e-05 0.000000000000e+00 1.626176333583e-09 0.000000000000e+00 
5.263157894737e-02 6.584136263640e+00 1.008491249572e+05 1.008425408209e+05 9.999972995565e-01 2.700443503478e-06 -1.736756260151e-05 0.000000000000e+00 1.625152641713e-09 0.000000000000e+00 
1.052631578947e-01 1.149877386501e+01 1.003715773766e+05 1.003600786027e+05 9.999954704810e-01 4.529518993768e-06 -1.736508703499e-05 0.000000000000e+00 1.622146727543e-09 0.000000000000e+00 
1.578947368421e-01 1.531253743933e+01 9.989292257107e+04 9.987761003363e+04 9.999940147011e-01 5.985298899169e-06 -1.736084797634e-05 0.000000000000e+00 1.617098685757e-09 0.000000000000e+00 
2.105263157895e-01 1.865759302982e+01 9.941378908974e+04 9.939513149671e+04 9.999926777357e-01 7.322264290233e-06 -1.735456002361e-05 0.000000000000e+00 1.609654860400e-09 0.000000000000e+00 
2.631578947368e-01 2.231568814027e+01 9.893495429195e+04 9.891263860381e+04 9.999911353537e-01 8.864646254936e-06 -1.734561303272e-05 0.000000000000e+00 1.599121722044e-09 0.000000000000e+00 
3.157894736842e-01 2.736452377129e+01 9.845748992922e+04 9.843012540545e+04 9.999889321510e-01 1.106784896521e-05 -1.733288113564e-05 0.000000000000e+00 1.584212621198e-09 0.000000000000e+00 
3.684210526316e-01 3.540136192373e+01 9.798298455074e+04 9.794758318882e+04 9.999853906495e-01 1.460935047026e-05 -1.731449559773e-05 0.000000000000e+00 1.562794361515e-09 0.000000000000e+00 
4.210526315789e-01 4.885394068629e+01 9.751385275548e+04 9.746499881480e+04 9.999794888533e-01 2.051114670754e-05 -1.728761586076e-05 0.000000000000e+00 1.531636770809e-09 0.000000000000e+00 
4.736842105263e-01 7.137148608767e+01 9.705372412612e+04 9.698235264003e+04 9.999697120206e-01 3.028797936389e-05 -1.724826901839e-05 0.000000000000e+00 1.486244577747e-09 0.000000000000e+00 
5.263157894737e-01 1.082560134271e+02 9.660787226100e+04 9.649961624757e+04 9.999538979087e-01 4.610209131761e-05 -1.719137217726e-05 0.000000000000e+00 1.420897616693e-09 0.000000000000e+00 
5.789473684210e-01 1.668448141436e+02 9.618359528883e+04 9.601675047469e+04 9.999291147592e-01 7.088524076004e-05 -1.711110061740e-05 0.000000000000e+00 1.329075502499e-09 0.000000000000e+00 
6.315789473684e-01 2.566868603537e+02 9.579039145012e+04 9.553370458977e+04 9.998916441964e-01 1.083558036310e-04 -1.700188073697e-05 0.000000000000e+00 1.204571012330e-09 0.000000000000e+00 
6.842105263158e-01 3.892223265218e+02 9.543964051011e+04 9.505041818359e+04 9.998372321734e-01 1.627678266439e-04 -1.686087009993e-05 0.000000000000e+00 1.044261046693e-09 0.000000000000e+00 
7.368421052631e-01 5.761887694202e+02 9.514301873835e+04 9.456682996893e+04 9.997621373431e-01 2.378626568815e-04 -1.669554217091e-05 0.000000000000e+00 8.566514593670e-10 0.000000000000e+00 
7.894736842105e-01 8.238738698460e+02 9.490678297399e+04 9.408290910414e+04 9.995950729396e-01 4.049270603641e-04 -1.644284120983e-05 0.000000000000e+00 5.719834821977e-10 0.000000000000e+00 
8.421052631579e-01 1.187753218168e+03 9.478611092551e+04 9.359835770735e+04 9.989542247710e-01 1.045775228959e-03 -1.579722568304e-05 0.000000000000e+00 -1.546377088471e-10 0.000000000000e+00 
8.947368421053e-01 1.889664584745e+03 9.500166400934e+04 9.311199942460e+04 9.964509115525e-01 3.549088447452e-03 -1.401431780593e-05 0.000000000000e+00 -2.176778124850e-09 0.000000000000e+00 
9.473684210526e-01 3.508262200721e+03 9.612901679781e+04 9.262075459709e+04 9.721182341639e-01 2.788176583607e-02 -6.940686881118e-06 0.000000000000e+00 -1.059494045311e-08 0.000000000000e+00 
1.000000000000e+00 9.218006457013e+03 1.013250000000e+05 9.210699354299e+04 9.497719841601e-01 5.022801583987e-02 -1.170247628750e-06 0.000000000000e+00 -1.753134564428e-08 0.000000000000e+00 
 TITLE = "Profiles along polylines"
 VARIABLES = "DIST" "PRESSURE1" "PRESSURE2" "PRESSURE_W" "SATURATION1" SATURATION2 "VELOCITY_X1" "VELOCITY_Y1" "VELOCITY_X2" "VELOCITY_Y2" 
 ZONE T="TIME=3.000000000000e+01"
0.000000000000e+00 0.000000000000e+00 1.013250000000e+05 1.013250000000e+05 9.999974648196e-01 2.535180359309e-06 -1.506706038276e-05 0.000000000000e+00 1.629703727072e-09 0.000000000000e+00 
5.263157894737e-02 1.003343061908e+01 1.008480882864e+05 1.008380548558e+05 9.999957359213e-01 4.264078698912e-06 -1.506579929395e-05 0.000000000000e+00 1.628154002858e-09 0.000000000000e+00 
1.052631578947e-01 1.870156536308e+01 1.003698065747e+05 1.003511050093e+05 9.999924146421e-01 7.585357946649e-06 -1.506187813521e-05 0.000000000000e+00 1.623429216415e-09 0.000000000000e+00 
1.578947368421e-01 2.697176364187e+01 9.989111675309e+04 9.986414498945e+04 9.999891562870e-01 1.084371298798e-05 -1.505487257266e-05 0.000000000000e+00 1.615097473761e-09 0.000000000000e+00 
2.105263157895e-01 3.602344690886e+01 9.941319168101e+04 9.937716823410e+04 9.999854842933e-01 1.451570671551e-05 -1.504403249419e-05 0.000000000000e+00 1.602274659518e-09 0.000000000000e+00 
2.631578947368e-01 4.737596938893e+01 9.893754237571e+04 9.889016640632e+04 9.999807826528e-01 1.921734720411e-05 -1.502822685530e-05 0.000000000000e+00 1.583673348654e-09 0.000000000000e+00 
3.157894736842e-01 6.303651372987e+01 9.846616512379e+04 9.840312861006e+04 9.999742398474e-01 2.576015264810e-05 -1.500590499047e-05 0.000000000000e+00 1.557532141732e-09 0.000000000000e+00 
3.684210526316e-01 8.565808623030e+01 9.800169864798e+04 9.791604056175e+04 9.999647911957e-01 3.520880431029e-05 -1.497510427229e-05 0.000000000000e+00 1.521631584219e-09 0.000000000000e+00 
4.210526315789e-01 1.186849199319e+02 9.754756876226e+04 9.742888384233e+04 9.999510689062e-01 4.893109381698e-05 -1.493353824254e-05 0.000000000000e+00 1.473401182953e-09 0.000000000000e+00 
4.736842105263e-01 1.664507231077e+02 9.710808614018e+04 9.694163541708e+04 9.999313726029e-01 6.862739709979e-05 -1.487878547243e-05 0.000000000000e+00 1.410137637952e-09 0.000000000000e+00 
5.263157894737e-01 2.341919017970e+02 9.668845952720e+04 9.645426762540e+04 9.999036722691e-01 9.632773093649e-05 -1.480855796252e-05 0.000000000000e+00 1.329306369169e-09 0.000000000000e+00 
5.789473684210e-01 3.279553032293e+02 9.629470404685e+04 9.596674874362e+04 9.998656461597e-01 1.343538402916e-04 -1.472095284497e-05 0.000000000000e+00 1.228814610712e-09 0.000000000000e+00 
6.315789473684e-01 4.544298971260e+02 9.593347384455e+04 9.547904394743e+04 9.998147355010e-01 1.852644990331e-04 -1.461450379984e-05 0.000000000000e+00 1.107048062210e-09 0.000000000000e+00 
6.842105263158e-01 6.208124176049e+02 9.561192848140e+04 9.499111606379e+04 9.997481702588e-01 2.518297411858e-04 -1.448782024742e-05 0.000000000000e+00 9.624343675404e-10 0.000000000000e+00 
7.368421052631e-01 8.348890908097e+02 9.533781420849e+04 9.450292511768e+04 9.996357384831e-01 3.642615169153e-04 -1.433845339520e-05 0.000000000000e+00 7.924675134989e-10 0.000000000000e+00 
7.894736842105e-01 1.105489244815e+03 9.511991709827e+04 9.401442785345e+04 9.992164570906e-01 7.835429094167e-04 -1.398310262610e-05 0.000000000000e+00 3.904074742523e-10 0.000000000000e+00 
8.421052631579e-01 1.569577071767e+03 9.509447519055e+04 9.352489811878e+04 9.981603310728e-01 1.839668927154e-03 -1.314121559835e-05 0.000000000000e+00 -5.650459138237e-10 0.000000000000e+00 
8.947368421053e-01 2.435366282018e+03 9.546859185560e+04 9.303322557358e+04 9.942508795501e-01 5.749120449910e-03 -1.123541964933e-05 0.000000000000e+00 -2.744952551547e-09 0.000000000000e+00 
9.473684210526e-01 4.242816401026e+03 9.677938980986e+04 9.253657340884e+04 9.681808367098e-01 3.181916329019e-02 -5.304039861403e-06 0.000000000000e+00 -9.825176567832e-09 0.000000000000e+00 
1.000000000000e+00 9.303173066057e+03 1.013250000000e+05 9.202182693394e+04 9.453085248311e-01 5.469147516886e-02 -7.111416733525e-07 0.000000000000e+00 -1.537061884205e-08 0.000000000000e+00 
 TITLE = "Profiles along polylines"
 VARIABLES = "DIST" "PRESSURE1" "PRESSURE2" "PRESSURE_W" "SATURATION1" SATURATION2 "VELOCITY_X1" "VELOCITY_Y1" "VELOCITY_X2" "VELOCITY_Y2" 
 ZONE T="TIME=6.000000000000e+01"
0.000000000000e+00 0.000000000000e+00 1.013250000000e+05 1.013250000000e+05 9.999917558881e-01 8.244111857403e-06 -1.148353111502e-05 0.000000000000e+00 1.576444916976e-09 0.000000000000e+00 
5.263157894737e-02 3.262755015978e+01 1.008636972011e+05 1.008310696510e+05 9.999855815948e-01 1.441840522576e-05 -1.148064740512e-05 0.000000000000e+00 1.572961293552e-09 0.000000000000e+00 
1.052631578947e-01 6.518552016646e+01 1.004023141626e+05 1.003371286424e+05 9.999729829689e-01 2.701703109920e-05 -1.147192685242e-05 0.000000000000e+00 1.562515445170e-09 0.000000000000e+00 
1.578947368421e-01 9.975742963866e+01 9.994292291309e+04 9.984316548345e+04 9.999594775453e-01 4.052245465402e-05 -1.145719605685e-05 0.000000000000e+00 1.544993697369e-09 0.000000000000e+00 
2.105263157895e-01 1.385208486634e+02 9.948768916362e+04 9.934916831495e+04 9.999442324966e-01 5.576750339298e-05 -1.143623120422e-05 0.000000000000e+00 1.520165734028e-09 0.000000000000e+00 
2.631578947368e-01 1.837597904996e+02 9.903888463988e+04 9.885512484938e+04 9.999263763842e-01 7.362361584462e-05 -1.140880482548e-05 0.000000000000e+00 1.487822690953e-09 0.000000000000e+00 
3.157894736842e-01 2.378571985224e+02 9.859887961786e+04 9.836102241933e+04 9.999050035011e-01 9.499649890210e-05 -1.137474416552e-05 0.000000000000e+00 1.447819006711e-09 0.000000000000e+00 
3.684210526316e-01 3.032656457342e+02 9.817011378953e+04 9.786684814380e+04 9.998791856922e-01 1.208143078461e-04 -1.133398412587e-05 0.000000000000e+00 1.400131752587e-09 0.000000000000e+00 
4.210526315789e-01 3.824614826723e+02 9.775505066438e+04 9.737258918171e+04 9.998479888054e-01 1.520111945907e-04 -1.128659014501e-05 0.000000000000e+00 1.344883888398e-09 0.000000000000e+00 
4.736842105263e-01 4.778980442629e+02 9.735613102971e+04 9.687823298545e+04 9.998104869912e-01 1.895130087510e-04 -1.123271986766e-05 0.000000000000e+00 1.282296248012e-09 0.000000000000e+00 
5.263157894737e-01 5.919855844044e+02 9.697575298761e+04 9.638376740320e+04 9.997657641826e-01 2.342358173943e-04 -1.117249698550e-05 0.000000000000e+00 1.212538908991e-09 0.000000000000e+00 
5.789473684210e-01 7.271330539759e+02 9.661631349394e+04 9.588918043996e+04 9.997128906706e-01 2.871093293964e-04 -1.110579656086e-05 0.000000000000e+00 1.135482278324e-09 0.000000000000e+00 
6.315789473684e-01 8.858808786993e+02 9.628034040283e+04 9.539445952413e+04 9.996328829258e-01 3.671170741617e-04 -1.103183857495e-05 0.000000000000e+00 1.050405441751e-09 0.000000000000e+00 
6.842105263158e-01 1.071124324330e+03 9.597071564067e+04 9.489959131634e+04 9.993727180067e-01 6.272819933367e-04 -1.086717782755e-05 0.000000000000e+00 8.626396119949e-10 0.000000000000e+00 
7.368421052631e-01 1.344194895330e+03 9.574844596859e+04 9.440425107326e+04 9.988134588444e-01 1.186541155606e-03 -1.049692552745e-05 0.000000000000e+00 4.403619757386e-10 0.000000000000e+00 
7.894736842105e-01 1.790162888167e+03 9.569814837830e+04 9.390798549013e+04 9.978437478433e-01 2.156252156704e-03 -9.952760598843e-06 0.000000000000e+00 -1.817698393762e-10 0.000000000000e+00 
8.421052631579e-01 2.448644357082e+03 9.585924197583e+04 9.341059761874e+04 9.954576697377e-01 4.542330262312e-03 -9.082543217883e-06 0.000000000000e+00 -1.179797798312e-09 0.000000000000e+00 
8.947368421053e-01 3.510428777020e+03 9.642152705386e+04 9.291109827684e+04 9.880000599097e-01 1.199994009035e-02 -7.195952271890e-06 0.000000000000e+00 -3.366256376268e-09 0.000000000000e+00 
9.473684210526e-01 5.498507206863e+03 9.790519620057e+04 9.240668899370e+04 9.598207053027e-01 4.017929469726e-02 -3.125761080393e-06 0.000000000000e+00 -8.252707926223e-09 0.000000000000e+00 
1.000000000000e+00 9.433790581047e+03 1.013250000000e+05 9.189120941895e+04 9.373320841429e-01 6.266791585709e-02 -3.715675414796e-07 0.000000000000e+00 -1.160778844481e-08 0.000000000000e+00 
 ZONE T="TIME=1.200000000000e+02"
0.000000000000e+00 0.000000000000e+00 1.013250000000e+05 1.013250000000e+05 9.999781540771e-01 2.184592286381e-05 -8.270892910044e-06 0.000000000000e+00 1.414097908072e-09 0.000000000000e+00 
5.263157894737e-02 8.645915489186e+01 1.009112667072e+05 1.008248075523e+05 9.999617988795e-01 3.820112047481e-05 -8.268823050197e-06 0.000000000000e+00 1.411594221445e-09 0.000000000000e+00 
1.052631578947e-01 1.726868287931e+02 1.004972949762e+05 1.003246081474e+05 9.999289507936e-01 7.104920637535e-05 -8.262646398069e-06 0.000000000000e+00 1.404180979708e-09 0.000000000000e+00 
1.578947368421e-01 2.601201142628e+02 1.000845139652e+05 9.982439385093e+04 9.998955603632e-01 1.044396368394e-04 -8.252475604099e-06 0.000000000000e+00 1.392048554052e-09 0.000000000000e+00 
2.105263157895e-01 3.501535744906e+02 9.967431063050e+04 9.932415705601e+04 9.998611051020e-01 1.388948980328e-04 -8.238507256350e-06 0.000000000000e+00 1.375443250403e-09 0.000000000000e+00 
2.631578947368e-01 4.441124836908e+02 9.926800311062e+04 9.882389062693e+04 9.998250889983e-01 1.749110016659e-04 -8.220995324306e-06 0.000000000000e+00 1.354694513227e-09 0.000000000000e+00 
3.157894736842e-01 5.432377594215e+02 9.886682573665e+04 9.832358797722e+04 9.997870465549e-01 2.129534451444e-04 -8.200207114382e-06 0.000000000000e+00 1.330143268945e-09 0.000000000000e+00 
3.684210526316e-01 6.486899670557e+02 9.847193300854e+04 9.782324304149e+04 9.997465391842e-01 2.534608158113e-04 -8.176359512173e-06 0.000000000000e+00 1.302066574216e-09 0.000000000000e+00 