 TITLE = "Time curves in points"
 VARIABLES = "TIME "  "PRESSURE1"  "PRESSURE2"  "PRESSURE_W"  "SATURATION1" SATURATION2  "VELOCITY_X1"  "VELOCITY_Y1"  "VELOCITY_X2"  "VELOCITY_Y2" 
 ZONE T="POINT=POINT0"
0.000000000000e+00 0.000000000000e+00 1.013250000000e+05 1.013250000000e+05 1.000000000000e+00 2.220446049250e-16 0.000000000000e+00 0.000000000000e+00 0.000000000000e+00 0.000000000000e+00 
1.000000000000e-03 0.000000000000e+00 1.013250000000e+05 1.013250000000e+05 1.000000000000e+00 1.854072451124e-14 -2.625029807137e-04 0.000000000000e+00 1.370335774911e-11 0.000000000000e+00 
2.000000000000e-03 0.000000000000e+00 1.013250000000e+05 1.013250000000e+05 9.999999999999e-01 1.052491427345e-13 -2.601602121565e-04 0.000000000000e+00 2.937774225995e-11 0.000000000000e+00 
3.000000000000e-03 0.000000000000e+00 1.013250000000e+05 1.013250000000e+05 9.999999999997e-01 3.084199562409e-13 -2.578414528924e-04 0.000000000000e+00 4.489056169195e-11 0.000000000000e+00 
4.000000000000e-03 0.000000000000e+00 1.013250000000e+05 1.013250000000e+05 9.999999999993e-01 6.743494651573e-13 -2.555464044589e-04 0.000000000000e+00 6.024384067104e-11 0.000000000000e+00 
5.000000000000e-03 0.000000000000e+00 1.013250000000e+05 1.013250000000e+05 9.999999999988e-01 1.248667835796e-12 -2.532748588741e-04 0.000000000000e+00 7.543899785568e-11 0.000000000000e+00 
6.000000000000e-03 0.000000000000e+00 1.013250000000e+05 1.013250000000e+05 9.999999999979e-01 2.075339899932e-12 -2.510264525939e-04 0.000000000000e+00 9.047849175988e-11 0.000000000000e+00 
7.000000000000e-03 0.000000000000e+00 1.013250000000e+05 1.013250000000e+05 9.999999999968e-01 3.196332087896e-12 -2.488009833590e-04 0.000000000000e+00 1.053637014078e-10 0.000000000000e+00 
8.000000000000e-03 0.000000000000e+00 1.013250000000e+05 1.013250000000e+05 9.999999999953e-01 4.652944696204e-12 -2.465983156614e-04 0.000000000000e+00 1.200955589469e-10 0.000000000000e+00 
9.000000000000e-03 0.000000000000e+00 1.013250000000e+05 1.013250000000e+05 9.999999999935e-01 6.484701664533e-12 -2.444180019143e-04 0.000000000000e+00 1.346770828619e-10 0.000000000000e+00 
1.000000000000e-02 0.000000000000e+00 1.013250000000e+05 1.013250000000e+05 9.999999999913e-01 8.729905687233e-12 -2.422599516098e-04 0.000000000000e+00 1.491089030379e-10 0.000000000000e+00 
2.000000000000e-02 0.000000000000e+00 1.013250000000e+05 1.013250000000e+05 9.999999999123e-01 8.771616766268e-11 -2.226863406504e-04 0.000000000000e+00 2.799687802276e-10 0.000000000000e+00 
3.000000000000e-02 0.000000000000e+00 1.013250000000e+05 1.013250000000e+05 9.999999997891e-01 2.108502261677e-10 -2.185789851709e-04 0.000000000000e+00 3.074249750985e-10 0.000000000000e+00 
4.000000000000e-02 0.000000000000e+00 1.013250000000e+05 1.013250000000e+05 9.999999996477e-01 3.523423774965e-10 -2.146207468298e-04 0.000000000000e+00 3.338752334188e-10 0.000000000000e+00 
5.000000000000e-02 0.000000000000e+00 1.013250000000e+05 1.013250000000e+05 9.999999995186e-01 4.813683895932e-10 -2.107207702024e-04 0.000000000000e+00 3.599277831364e-10 0.000000000000e+00 
6.000000000000e-02 0.000000000000e+00 1.013250000000e+05 1.013250000000e+05 9.999999993711e-01 6.289113674285e-10 -2.069201129043e-04 0.000000000000e+00 3.853199284713e-10 0.000000000000e+00 
7.000000000000e-02 0.000000000000e+00 1.013250000000e+05 1.013250000000e+05 9.999999992042e-01 7.957519088109e-10 -2.031994576139e-04 0.000000000000e+00 4.101748715637e-10 0.000000000000e+00 
8.000000000000e-02 0.000000000000e+00 1.013250000000e+05 1.013250000000e+05 9.999999990174e-01 9.825974478517e-10 -1.995569153948e-04 0.000000000000e+00 4.345053742612e-10 0.000000000000e+00 
9.000000000000e-02 0.000000000000e+00 1.013250000000e+05 1.013250000000e+05 9.999999988099e-01 1.190078924296e-09 -1.959906595698e-04 0.000000000000e+00 4.583237756865e-10 0.000000000000e+00 
1.000000000000e-01 0.000000000000e+00 1.013250000000e+05 1.013250000000e+05 9.999999985812e-01 1.418777983986e-09 -1.924991932999e-04 0.000000000000e+00 4.816402052319e-10 0.000000000000e+00 
2.000000000000e-01 0.000000000000e+00 1.013250000000e+05 1.013250000000e+05 9.999999942283e-01 5.771687794365e-09 -1.636915290502e-04 0.000000000000e+00 6.739076297082e-10 0.000000000000e+00 
3.000000000000e-01 0.000000000000e+00 1.013250000000e+05 1.013250000000e+05 9.999999883915e-01 1.160845997106e-08 -1.462185039265e-04 0.000000000000e+00 7.904128454795e-10 0.000000000000e+00 
4.000000000000e-01 0.000000000000e+00 1.013250000000e+05 1.013250000000e+05 9.999999813652e-01 1.863484211384e-08 -1.330982049136e-04 0.000000000000e+00 8.778249858424e-10 0.000000000000e+00 
5.000000000000e-01 0.000000000000e+00 1.013250000000e+05 1.013250000000e+05 9.999999734089e-01 2.659114950454e-08 -1.229434994213e-04 0.000000000000e+00 9.454248634451e-10 0.000000000000e+00 
6.000000000000e-01 0.000000000000e+00 1.013250000000e+05 1.013250000000e+05 9.999999647155e-01 3.528446057555e-08 -1.147278994017e-04 0.000000000000e+00 1.000072599982e-09 0.000000000000e+00 
7.000000000000e-01 0.000000000000e+00 1.013250000000e+05 1.013250000000e+05 9.999999554050e-01 4.459501423693e-08 -1.076736973756e-04 0.000000000000e+00 1.046960817650e-09 0.000000000000e+00 
8.000000000000e-01 0.000000000000e+00 1.013250000000e+05 1.013250000000e+05 9.999999455814e-01 5.441862771516e-08 -1.015564634026e-04 0.000000000000e+00 1.087590550395e-09 0.000000000000e+00 
9.000000000000e-01 0.000000000000e+00 1.013250000000e+05 1.013250000000e+05 9.999999353346e-01 6.466535240612e-08 -9.620732514790e-05 0.000000000000e+00 1.123091027119e-09 0.000000000000e+00 
1.000000000000e+00 0.000000000000e+00 1.013250000000e+05 1.013250000000e+05 9.999999247367e-01 7.526332512775e-08 -9.145994857950e-05 0.000000000000e+00 1.154573346833e-09 0.000000000000e+00 
2.000000000000e+00 0.000000000000e+00 1.013250000000e+05 1.013250000000e+05 9.999998110289e-01 1.889710634639e-07 -6.716398724842e-05 0.000000000000e+00 1.314827079457e-09 0.000000000000e+00 
3.000000000000e+00 0.000000000000e+00 1.013250000000e+05 1.013250000000e+05 9.999996977906e-01 3.022093805205e-07 -5.268583917782e-05 0.000000000000e+00 1.409660615793e-09 0.000000000000e+00 
4.000000000000e+00 0.000000000000e+00 1.013250000000e+05 1.013250000000e+05 9.999995884177e-01 4.115822598294e-07 -4.331415743222e-05 0.000000000000e+00 1.470539436555e-09 0.000000000000e+00 
5.000000000000e+00 0.000000000000e+00 1.013250000000e+05 1.013250000000e+05 9.999994845368e-01 5.154632499726e-07 -3.717015019567e-05 0.000000000000e+00 1.510008407906e-09 0.000000000000e+00 
6.000000000000e+00 0.000000000000e+00 1.013250000000e+05 1.013250000000e+05 9.999993863425e-01 6.136574997040e-07 -3.289084936657e-05 0.000000000000e+00 1.537145481689e-09 0.000000000000e+00 
7.000000000000e+00 0.000000000000e+00 1.013250000000e+05 1.013250000000e+05 9.999992933330e-01 7.066670109079e-07 -2.966570162226e-05 0.000000000000e+00 1.557338697551e-09 0.000000000000e+00 
8.000000000000e+00 0.000000000000e+00 1.013250000000e+05 1.013250000000e+05 9.999992050209e-01 7.949790995498e-07 -2.719577780748e-05 0.000000000000e+00 1.572571176853e-09 0.000000000000e+00 
9.000000000000e+00 0.000000000000e+00 1.013250000000e+05 1.013250000000e+05 9.999991209219e-01 8.790781118595e-07 -2.527328556673e-05 0.000000000000e+00 1.584219146069e-09 0.000000000000e+00 
1.000000000000e+01 0.000000000000e+00 1.013250000000e+05 1.013250000000e+05 9.999990405548e-01 9.594452150541e-07 -2.375153518346e-05 0.000000000000e+00 1.593252092573e-09 0.000000000000e+00 
1.100000000000e+01 0.000000000000e+00 1.013250000000e+05 1.013250000000e+05 9.999989634534e-01 1.036546619426e-06 -2.253304003010e-05 0.000000000000e+00 1.600312284547e-09 0.000000000000e+00 
1.200000000000e+01 0.000000000000e+00 1.013250000000e+05 1.013250000000e+05 9.999988891379e-01 1.110862143272e-06 -2.153513587642e-05 0.000000000000e+00 1.605943098012e-09 0.000000000000e+00 
1.300000000000e+01 0.000000000000e+00 1.013250000000e+05 1.013250000000e+05 9.999988171294e-01 1.182870630778e-06 -2.070467266182e-05 0.000000000000e+00 1.610491586747e-09 0.000000000000e+00 
1.400000000000e+01 0.000000000000e+00 1.013250000000e+05 1.013250000000e+05 9.999987469635e-01 1.253036462479e-06 -2.001394681003e-05 0.000000000000e+00 1.614135822391e-09 0.000000000000e+00 
1.500000000000e+01 0.000000000000e+00 1.013250000000e+05 1.013250000000e+05 9.999986781433e-01 1.321856694325e-06 -1.942171889890e-05 0.000000000000e+00 1.617143287926e-09 0.000000000000e+00 
1.600000000000e+01 0.000000000000e+00 1.013250000000e+05 1.013250000000e+05 9.999986101675e-01 1.389832498311e-06 -1.890865855931e-05 0.000000000000e+00 1.619635774080e-09 0.000000000000e+00 
1.700000000000e+01 0.000000000000e+00 1.013250000000e+05 1.013250000000e+05 9.999985425239e-01 1.457476104028e-06 -1.845792000132e-05 0.000000000000e+00 1.621718390051e-09 0.000000000000e+00 
1.800000000000e+01 0.000000000000e+00 1.013250000000e+05 1.013250000000e+05 9.999984746917e-01 1.525308300998e-06 -1.805648191287e-05 0.000000000000e+00 1.623470693520e-09 0.000000000000e+00 
1.900000000000e+01 0.000000000000e+00 1.013250000000e+05 1.013250000000e+05 9.999984061457e-01 1.593854298654e-06 -1.769498177038e-05 0.000000000000e+00 1.624947851557e-09 0.000000000000e+00 
2.000000000000e+01 0.000000000000e+00 1.013250000000e+05 1.013250000000e+05 9.999983363643e-01 1.663635656901e-06 -1.736838013971e-05 0.000000000000e+00 1.626176333583e-09 0.000000000000e+00 
2.100000000000e+01 0.000000000000e+00 1.013250000000e+05 1.013250000000e+05 9.999982648246e-01 1.735175406692e-06 -1.706813476032e-05 0.000000000000e+00 1.627205878462e-09 0.000000000000e+00 
2.200000000000e+01 0.000000000000e+00 1.013250000000e+05 1.013250000000e+05 9.999981910157e-01 1.808984307239e-06 -1.679082978274e-05 0.000000000000e+00 1.628052303834e-09 0.000000000000e+00 
2.300000000000e+01 0.000000000000e+00 1.013250000000e+05 1.013250000000e+05 9.999981144414e-01 1.885558610359e-06 -1.653258204324e-05 0.000000000000e+00 1.628734727694e-09 0.000000000000e+00 
2.400000000000e+01 0.000000000000e+00 1.013250000000e+05 1.013250000000e+05 9.999980346245e-01 1.965375515889e-06 -1.628970573398e-05 0.000000000000e+00 1.629271209822e-09 0.000000000000e+00 
2.500000000000e+01 0.000000000000e+00 1.013250000000e+05 1.013250000000e+05 9.999979511150e-01 2.048885030526e-06 -1.606033150798e-05 0.000000000000e+00 1.629668103845e-09 0.000000000000e+00 
2.600000000000e+01 0.000000000000e+00 1.013250000000e+05 1.013250000000e+05 9.999978634938e-01 2.136506165762e-06 -1.584278363401e-05 0.000000000000e+00 1.629930894509e-09 0.000000000000e+00 
2.700000000000e+01 0.000000000000e+00 1.013250000000e+05 1.013250000000e+05 9.999977713778e-01 2.228622195455e-06 -1.563562972196e-05 0.000000000000e+00 1.630063930593e-09 0.000000000000e+00 
2.800000000000e+01 0.000000000000e+00 1.013250000000e+05 1.013250000000e+05 9.999976744222e-01 2.325577796225e-06 -1.543797189693e-05 0.000000000000e+00 1.630068528141e-09 0.000000000000e+00 
2.900000000000e+01 0.000000000000e+00 1.013250000000e+05 1.013250000000e+05 9.999975723234e-01 2.427676622951e-06 -1.524864398341e-05 0.000000000000e+00 1.629948340356e-09 0.000000000000e+00 
3.000000000000e+01 0.000000000000e+00 1.013250000000e+05 1.013250000000e+05 9.999974648196e-01 2.535180359309e-06 -1.506706038276e-05 0.000000000000e+00 1.629703727072e-09 0.000000000000e+00 
3.100000000000e+01 0.000000000000e+00 1.013250000000e+05 1.013250000000e+05 9.999973516922e-01 2.648307777409e-06 -1.489354517396e-05 0.000000000000e+00 1.629329578887e-09 0.000000000000e+00 
3.200000000000e+01 0.000000000000e+00 1.013250000000e+05 1.013250000000e+05 9.999972327622e-01 2.767237807566e-06 -1.472570819948e-05 0.000000000000e+00 1.628839368531e-09 0.000000000000e+00 
3.300000000000e+01 0.000000000000e+00 1.013250000000e+05 1.013250000000e+05 9.999971078882e-01 2.892111812924e-06 -1.456299852038e-05 0.000000000000e+00 1.628234848706e-09 0.000000000000e+00 
3.400000000000e+01 0.000000000000e+00 1.013250000000e+05 1.013250000000e+05 9.999969769690e-01 3.023030978433e-06 -1.440525844568e-05 0.000000000000e+00 1.627515700224e-09 0.000000000000e+00 
3.500000000000e+01 0.000000000000e+00 1.013250000000e+05 1.013250000000e+05 9.999968399443e-01 3.160055668472e-06 -1.425417974394e-05 0.000000000000e+00 1.626669858433e-09 0.000000000000e+00 
3.600000000000e+01 0.000000000000e+00 1.013250000000e+05 1.013250000000e+05 9.999966967850e-01 3.303214996420e-06 -1.410671961739e-05 0.000000000000e+00 1.625717159946e-09 0.000000000000e+00 
3.700000000000e+01 0.000000000000e+00 1.013250000000e+05 1.013250000000e+05 9.999965474990e-01 3.452501044610e-06 -1.396350998902e-05 0.000000000000e+00 1.624653508325e-09 0.000000000000e+00 
3.800000000000e+01 0.000000000000e+00 1.013250000000e+05 1.013250000000e+05 9.999963921281e-01 3.607871916667e-06 -1.382425738085e-05 0.000000000000e+00 1.623481418230e-09 0.000000000000e+00 
3.900000000000e+01 0.000000000000e+00 1.013250000000e+05 1.013250000000e+05 9.999962307461e-01 3.769253913877e-06 -1.368877250723e-05 0.000000000000e+00 1.622203140946e-09 0.000000000000e+00 
4.000000000000e+01 0.000000000000e+00 1.013250000000e+05 1.013250000000e+05 9.999960634557e-01 3.936544320293e-06 -1.355700166064e-05 0.000000000000e+00 1.620820418215e-09 0.000000000000e+00 
4.100000000000e+01 0.000000000000e+00 1.013250000000e+05 1.013250000000e+05 9.999958903854e-01 4.109614598180e-06 -1.342862466584e-05 0.000000000000e+00 1.619337111547e-09 0.000000000000e+00 
4.200000000000e+01 0.000000000000e+00 1.013250000000e+05 1.013250000000e+05 9.999957116854e-01 4.288314553791e-06 -1.330343681548e-05 0.000000000000e+00 1.617756606978e-09 0.000000000000e+00 
4.300000000000e+01 0.000000000000e+00 1.013250000000e+05 1.013250000000e+05 9.999955275243e-01 4.472475700901e-06 -1.318133190745e-05 0.000000000000e+00 1.616081882674e-09 0.000000000000e+00 
4.400000000000e+01 0.000000000000e+00 1.013250000000e+05 1.013250000000e+05 9.999953380839e-01 4.661916060966e-06 -1.306214492435e-05 0.000000000000e+00 1.614316490333e-09 0.000000000000e+00 
4.500000000000e+01 0.000000000000e+00 1.013250000000e+05 1.013250000000e+05 9.999951435556e-01 4.856444430601e-06 -1.294585025324e-05 0.000000000000e+00 1.612463179272e-09 0.000000000000e+00 
4.600000000000e+01 0.000000000000e+00 1.013250000000e+05 1.013250000000e+05 9.999949441376e-01 5.055862406289e-06 -1.283299814981e-05 0.000000000000e+00 1.610520966540e-09 0.000000000000e+00 
4.700000000000e+01 0.000000000000e+00 1.013250000000e+05 1.013250000000e+05 9.999947400287e-01 5.259971312288e-06 -1.272239719696e-05 0.000000000000e+00 1.608500454256e-09 0.000000000000e+00 
4.800000000000e+01 0.000000000000e+00 1.013250000000e+05 1.013250000000e+05 9.999945314301e-01 5.468569898026e-06 -1.261436417489e-05 0.000000000000e+00 1.606402250676e-09 0.000000000000e+00 
4.900000000000e+01 0.000000000000e+00 1.013250000000e+05 1.013250000000e+05 9.999943185446e-01 5.681455387707e-06 -1.250877634903e-05 0.000000000000e+00 1.604229907159e-09 0.000000000000e+00 
5.000000000000e+01 0.000000000000e+00 1.013250000000e+05 1.013250000000e+05 9.999941015776e-01 5.898422404504e-06 -1.240553843567e-05 0.000000000000e+00 1.601986827738e-09 0.000000000000e+00 
5.100000000000e+01 0.000000000000e+00 1.013250000000e+05 1.013250000000e+05 9.999938807388e-01 6.119261237059e-06 -1.230455450903e-05 0.000000000000e+00 1.599676479294e-09 0.000000000000e+00 
5.200000000000e+01 0.000000000000e+00 1.013250000000e+05 1.013250000000e+05 9.999936562431e-01 6.343756911553e-06 -1.220574442811e-05 0.000000000000e+00 1.597302294701e-09 0.000000000000e+00 
5.300000000000e+01 0.000000000000e+00 1.013250000000e+05 1.013250000000e+05 9.999934283120e-01 6.571688045076e-06 -1.210895341231e-05 0.000000000000e+00 1.594868289882e-09 0.000000000000e+00 
5.400000000000e+01 0.000000000000e+00 1.013250000000e+05 1.013250000000e+05 9.999931971724e-01 6.802827599683e-06 -1.201419927861e-05 0.000000000000e+00 1.592377409623e-09 0.000000000000e+00 
5.500000000000e+01 0.000000000000e+00 1.013250000000e+05 1.013250000000e+05 9.999929630557e-01 7.036944269290e-06 -1.192134545743e-05 0.000000000000e+00 1.589833683127e-09 0.000000000000e+00 
5.600000000000e+01 0.000000000000e+00 1.013250000000e+05 1.013250000000e+05 9.999927261952e-01 7.273804765728e-06 -1.183037052507e-05 0.000000000000e+00 1.587240400652e-09 0.000000000000e+00 
5.700000000000e+01 0.000000000000e+00 1.013250000000e+05 1.013250000000e+05 9.999924868235e-01 7.513176450091e-06 -1.174121106742e-05 0.000000000000e+00 1.584601123137e-09 0.000000000000e+00 
5.800000000000e+01 0.000000000000e+00 1.013250000000e+05 1.013250000000e+05 9.999922451690e-01 7.754830978035e-06 -1.165366015732e-05 0.000000000000e+00 1.581920307923e-09 0.000000000000e+00 
5.900000000000e+01 0.000000000000e+00 1.013250000000e+05 1.013250000000e+05 9.999920014533e-01 7.998546699750e-06 -1.156781345688e-05 0.000000000000e+00 1.579200310016e-09 0.000000000000e+00 
6.000000000000e+01 0.000000000000e+00 1.013250000000e+05 1.013250000000e+05 9.999917558881e-01 8.244111857403e-06 -1.148353111502e-05 0.000000000000e+00 1.576444916976e-09 0.000000000000e+00 
6.100000000000e+01 0.000000000000e+00 1.013250000000e+05 1.013250000000e+05 9.999915086730e-01 8.491327018412e-06 -1.140082402267e-05 0.000000000000e+00 1.573656747755e-09 0.000000000000e+00 
6.200000000000e+01 0.000000000000e+00 1.013250000000e+05 1.013250000000e+05 9.999912599949e-01 8.740005148722e-06 -1.132004894259e-05 0.000000000000e+00 1.570835953552e-09 0.000000000000e+00 
6.300000000000e+01 0.000000000000e+00 1.013250000000e+05 1.013250000000e+05 9.999910100275e-01 8.989972548390e-06 -1.124124010221e-05 0.000000000000e+00 1.567984650636e-09 0.000000000000e+00 
6.400000000000e+01 0.000000000000e+00 1.013250000000e+05 1.013250000000e+05 9.999907589326e-01 9.241067426613e-06 -1.116332867201e-05 0.000000000000e+00 1.565112130918e-09 0.000000000000e+00 
6.500000000000e+01 0.000000000000e+00 1.013250000000e+05 1.013250000000e+05 9.999905068675e-01 9.493132488436e-06 -1.108670083454e-05 0.000000000000e+00 1.562217948931e-09 0.000000000000e+00 
6.600000000000e+01 0.000000000000e+00 1.013250000000e+05 1.013250000000e+05 9.999902539884e-01 9.746011618517e-06 -1.101133214732e-05 0.000000000000e+00 1.559304374308e-09 0.000000000000e+00 
6.700000000000e+01 0.000000000000e+00 1.013250000000e+05 1.013250000000e+05 9.999900004538e-01 9.999546225936e-06 -1.093718614391e-05 0.000000000000e+00 1.556373790217e-09 0.000000000000e+00 
6.800000000000e+01 0.000000000000e+00 1.013250000000e+05 1.013250000000e+05 9.999897464269e-01 1.025357311124e-05 -1.086430237870e-05 0.000000000000e+00 1.553428136522e-09 0.000000000000e+00 
6.900000000000e+01 0.000000000000e+00 1.013250000000e+05 1.013250000000e+05 9.999894920756e-01 1.050792438606e-05 -1.079263187910e-05 0.000000000000e+00 1.550470005280e-09 0.000000000000e+00 
7.000000000000e+01 0.000000000000e+00 1.013250000000e+05 1.013250000000e+05 9.999892375713e-01 1.076242873999e-05 -1.072212779283e-05 0.000000000000e+00 1.547502020721e-09 0.000000000000e+00 
7.100000000000e+01 0.000000000000e+00 1.013250000000e+05 1.013250000000e+05 9.999889830854e-01 1.101691462080e-05 -1.065274251230e-05 0.000000000000e+00 1.544526815601e-09 0.000000000000e+00 
7.200000000000e+01 0.000000000000e+00 1.013250000000e+05 1.013250000000e+05 9.999887287863e-01 1.127121374167e-05 -1.058448263062e-05 0.000000000000e+00 1.541546618142e-09 0.000000000000e+00 
7.300000000000e+01 0.000000000000e+00 1.013250000000e+05 1.013250000000e+05 9.999884748352e-01 1.152516484093e-05 -1.051736202546e-05 0.000000000000e+00 1.538563513383e-09 0.000000000000e+00 
7.400000000000e+01 0.000000000000e+00 1.013250000000e+05 1.013250000000e+05 9.999882213833e-01 1.177861668455e-05 -1.045141086110e-05 0.000000000000e+00 1.535579343008e-09 0.000000000000e+00 
7.500000000000e+01 0.000000000000e+00 1.013250000000e+05 1.013250000000e+05 9.999879685683e-01 1.203143168027e-05 -1.038657460991e-05 0.000000000000e+00 1.532596327718e-09 0.000000000000e+00 
7.600000000000e+01 0.000000000000e+00 1.013250000000e+05 1.013250000000e+05 9.999877165125e-01 1.228348752880e-05 -1.032294644057e-05 0.000000000000e+00 1.529615499399e-09 0.000000000000e+00 
7.700000000000e+01 0.000000000000e+00 1.013250000000e+05 1.013250000000e+05 9.999874653209e-01 1.253467911044e-05 -1.026034733446e-05 0.000000000000e+00 1.526639468179e-09 0.000000000000e+00 
7.800000000000e+01 0.000000000000e+00 1.013250000000e+05 1.013250000000e+05 9.999872150811e-01 1.278491893464e-05 -1.019887973537e-05 0.000000000000e+00 1.523668734273e-09 0.000000000000e+00 
7.900000000000e+01 0.000000000000e+00 1.013250000000e+05 1.013250000000e+05 9.999869658628e-01 1.303413718057e-05 -1.013847822740e-05 0.000000000000e+00 1.520704675752e-09 0.000000000000e+00 
8.000000000000e+01 0.000000000000e+00 1.013250000000e+05 1.013250000000e+05 9.999867177186e-01 1.328228141539e-05 -1.007908781265e-05 0.000000000000e+00 1.517748366655e-09 0.000000000000e+00 
8.100000000000e+01 0.000000000000e+00 1.013250000000e+05 1.013250000000e+05 9.999864706867e-01 1.352931327847e-05 -1.002107638999e-05 0.000000000000e+00 1.514797878008e-09 0.000000000000e+00 
8.200000000000e+01 0.000000000000e+00 1.013250000000e+05 1.013250000000e+05 9.999862247967e-01 1.377520327117e-05 -9.963812859886e-06 0.000000000000e+00 1.511857806195e-09 0.000000000000e+00 
8.300000000000e+01 0.000000000000e+00 1.013250000000e+05 1.013250000000e+05 9.999859800771e-01 1.401992285777e-05 -9.907489900909e-06 0.000000000000e+00 1.508927255278e-09 0.000000000000e+00 
8.400000000000e+01 0.000000000000e+00 1.013250000000e+05 1.013250000000e+05 9.999857365654e-01 1.426343459610e-05 -9.852079879848e-06 0.000000000000e+00 1.506006914911e-09 0.000000000000e+00 
8.500000000000e+01 0.000000000000e+00 1.013250000000e+05 1.013250000000e+05 9.999854943123e-01 1.450568768724e-05 -9.797591764996e-06 0.000000000000e+00 1.503097411747e-09 0.000000000000e+00 
8.600000000000e+01 0.000000000000e+00 1.013250000000e+05 1.013250000000e+05 9.999852533857e-01 1.474661426681e-05 -9.743970943106e-06 0.000000000000e+00 1.500200025899e-09 0.000000000000e+00 
8.700000000000e+01 0.000000000000e+00 1.013250000000e+05 1.013250000000e+05 9.999850138695e-01 1.498613052031e-05 -9.691197485468e-06 0.000000000000e+00 1.497316021995e-09 0.000000000000e+00 
8.800000000000e+01 0.000000000000e+00 1.013250000000e+05 1.013250000000e+05 9.999847758587e-01 1.522414127031e-05 -9.639070819516e-06 0.000000000000e+00 1.494448019587e-09 0.000000000000e+00 
8.900000000000e+01 0.000000000000e+00 1.013250000000e+05 1.013250000000e+05 9.999845394547e-01 1.546054531198e-05 -9.587642450199e-06 0.000000000000e+00 1.491597043400e-09 0.000000000000e+00 
9.000000000000e+01 0.000000000000e+00 1.013250000000e+05 1.013250000000e+05 9.999843047587e-01 1.569524130596e-05 -9.536820611439e-06 0.000000000000e+00 1.488765073137e-09 0.000000000000e+00 
9.100000000000e+01 0.000000000000e+00 1.013250000000e+05 1.013250000000e+05 9.999840718661e-01 1.592813393336e-05 -9.486679810367e-06 0.000000000000e+00 1.485952901104e-09 0.000000000000e+00 
9.200000000000e+01 0.000000000000e+00 1.013250000000e+05 1.013250000000e+05 9.999838408610e-01 1.615913901754e-05 -9.437218077894e-06 0.000000000000e+00 1.483161677971e-09 0.000000000000e+00 
9.300000000000e+01 0.000000000000e+00 1.013250000000e+05 1.013250000000e+05 9.999836118120e-01 1.638818800420e-05 -9.388362108887e-06 0.000000000000e+00 1.480392817863e-09 0.000000000000e+00 
9.400000000000e+01 0.000000000000e+00 1.013250000000e+05 1.013250000000e+05 9.999833847707e-01 1.661522925755e-05 -9.340123008816e-06 0.000000000000e+00 1.477646945116e-09 0.000000000000e+00 
9.500000000000e+01 0.000000000000e+00 1.013250000000e+05 1.013250000000e+05 9.999831597695e-01 1.684023047499e-05 -9.292533841827e-06 0.000000000000e+00 1.474924276735e-09 0.000000000000e+00 
9.600000000000e+01 0.000000000000e+00 1.013250000000e+05 1.013250000000e+05 9.999829368221e-01 1.706317792571e-05 -9.245509217664e-06 0.000000000000e+00 1.472225566851e-09 0.000000000000e+00 
9.700000000000e+01 0.000000000000e+00 1.013250000000e+05 1.013250000000e+05 9.999827159241e-01 1.728407593382e-05 -9.199097226142e-06 0.000000000000e+00 1.469550437943e-09 0.000000000000e+00 
9.800000000000e+01 0.000000000000e+00 1.013250000000e+05 1.013250000000e+05 9.999824970540e-01 1.750294599046e-05 -9.153261903410e-06 0.000000000000e+00 1.466898839614e-09 0.000000000000e+00 
9.900000000000e+01 0.000000000000e+00 1.013250000000e+05 1.013250000000e+05 9.999822801751e-01 1.771982486831e-05 -9.107961805399e-06 0.000000000000e+00 1.464270551522e-09 0.000000000000e+00 
1.000000000000e+02 0.000000000000e+00 1.013250000000e+05 1.013250000000e+05 9.999820652390e-01 1.793476102674e-05 -9.063764042250e-06 0.000000000000e+00 1.461661146562e-09 0.000000000000e+00 
1.010000000000e+02 0.000000000000e+00 1.013250000000e+05 1.013250000000e+05 9.999818521830e-01 1.814781701059e-05 -9.019728021273e-06 0.000000000000e+00 1.459076038669e-09 0.000000000000e+00 
1.020000000000e+02 0.000000000000e+00 1.013250000000e+05 1.013250000000e+05 9.999816409376e-01 1.835906243874e-05 -8.976211774238e-06 0.000000000000e+00 1.456511905911e-09 0.000000000000e+00 
1.030000000000e+02 0.000000000000e+00 1.013250000000e+05 1.013250000000e+05 9.999814314310e-01 1.856856897264e-05 -8.933471172231e-06 0.000000000000e+00 1.453966078385e-09 0.000000000000e+00 
1.040000000000e+02 0.000000000000e+00 1.013250000000e+05 1.013250000000e+05 9.999812236016e-01 1.877639843939e-05 -8.891059457254e-06 0.000000000000e+00 1.451440693986e-09 0.000000000000e+00 
1.050000000000e+02 0.000000000000e+00 1.013250000000e+05 1.013250000000e+05 9.999810174111e-01 1.898258885791e-05 -8.849079013017e-06 0.000000000000e+00 1.448934558494e-09 0.000000000000e+00 
1.060000000000e+02 0.000000000000e+00 1.013250000000e+05 1.013250000000e+05 9.999808128553e-01 1.918714469107e-05 -8.807542463760e-06 0.000000000000e+00 1.446447528130e-09 0.000000000000e+00 
1.070000000000e+02 0.000000000000e+00 1.013250000000e+05 1.013250000000e+05 9.999806099650e-01 1.939003504403e-05 -8.766437797949e-06 0.000000000000e+00 1.443980100657e-09 0.000000000000e+00 
1.080000000000e+02 0.000000000000e+00 1.013250000000e+05 1.013250000000e+05 9.999804088013e-01 1.959119870065e-05 -8.725762851862e-06 0.000000000000e+00 1.441533117979e-09 0.000000000000e+00 
1.090000000000e+02 0.000000000000e+00 1.013250000000e+05 1.013250000000e+05 9.999802094474e-01 1.979055263901e-05 -8.685553345470e-06 0.000000000000e+00 1.439107464502e-09 0.000000000000e+00 
1.100000000000e+02 0.000000000000e+00 1.013250000000e+05 1.013250000000e+05 9.999800119966e-01 1.998800344860e-05 -8.645764004584e-06 0.000000000000e+00 1.436704703874e-09 0.000000000000e+00 
1.110000000000e+02 0.000000000000e+00 1.013250000000e+05 1.013250000000e+05 9.999798165417e-01 2.018345833465e-05 -8.606422500246e-06 0.000000000000e+00 1.434325906165e-09 0.000000000000e+00 
1.120000000000e+02 0.000000000000e+00 1.013250000000e+05 1.013250000000e+05 9.999796231645e-01 2.037683546008e-05 -8.567517631047e-06 0.000000000000e+00 1.431972252099e-09 0.000000000000e+00 
1.130000000000e+02 0.000000000000e+00 1.013250000000e+05 1.013250000000e+05 9.999794319303e-01 2.056806970563e-05 -8.529025595513e-06 0.000000000000e+00 1.429644780433e-09 0.000000000000e+00 
1.140000000000e+02 0.000000000000e+00 1.013250000000e+05 1.013250000000e+05 9.999792428821e-01 2.075711793670e-05 -8.490938793701e-06 0.000000000000e+00 1.427344125141e-09 0.000000000000e+00 
1.150000000000e+02 0.000000000000e+00 1.013250000000e+05 1.013250000000e+05 9.999790560403e-01 2.094395974495e-05 -8.453301690634e-06 0.000000000000e+00 1.425070266722e-09 0.000000000000e+00 
1.160000000000e+02 0.000000000000e+00 1.013250000000e+05 1.013250000000e+05 9.999788714011e-01 2.112859889769e-05 -8.416036604010e-06 0.000000000000e+00 1.422823671868e-09 0.000000000000e+00 
1.170000000000e+02 0.000000000000e+00 1.013250000000e+05 1.013250000000e+05 9.999786889390e-01 2.131106100256e-05 -8.379166213410e-06 0.000000000000e+00 1.420603844356e-09 0.000000000000e+00 
1.180000000000e+02 0.000000000000e+00 1.013250000000e+05 1.013250000000e+05 9.999785086084e-01 2.149139161689e-05 -8.342700126914e-06 0.000000000000e+00 1.418410105473e-09 0.000000000000e+00 
1.190000000000e+02 0.000000000000e+00 1.013250000000e+05 1.013250000000e+05 9.999783303467e-01 2.166965327444e-05 -8.306561349177e-06 0.000000000000e+00 1.416242123349e-09 0.000000000000e+00 
1.200000000000e+02 0.000000000000e+00 1.013250000000e+05 1.013250000000e+05 9.999781540771e-01 2.184592286381e-05 -8.270892910044e-06 0.000000000000e+00 1.414097908072e-09 0.000000000000e+00 
