 TITLE = "Time curves in points"
 VARIABLES = "TIME "  "PRESSURE1"  "PRESSURE2"  "PRESSURE_W"  "SATURATION1" SATURATION2  "VELOCITY_X1"  "VELOCITY_Y1"  "VELOCITY_X2"  "VELOCITY_Y2" 
 ZONE T="POINT=POINT0"
0.000000000000e+00 0.000000000000e+00 1.013250000000e+05 1.013250000000e+05 1.000000000000e+00 2.220446049250e-16 0.000000000000e+00 0.000000000000e+00 0.000000000000e+00 0.000000000000e+00 
1.000000000000e-03 0.000000000000e+00 1.013250000000e+05 1.013250000000e+05 1.000000000000e+00 1.854072451124e-14 -2.625029828985e-04 0.000000000000e+00 1.369942147744e-11 0.000000000000e+00 
2.000000000000e-03 0.000000000000e+00 1.013250000000e+05 1.013250000000e+05 9.999999999999e-01 1.054711873394e-13 -2.601602169415e-04 0.000000000000e+00 2.936847583701e-11 0.000000000000e+00 
3.000000000000e-03 0.000000000000e+00 1.013250000000e+05 1.013250000000e+05 9.999999999997e-01 3.085309785433e-13 -2.578414603228e-04 0.000000000000e+00 4.487601957721e-11 0.000000000000e+00 
4.000000000000e-03 0.000000000000e+00 1.013250000000e+05 1.013250000000e+05 9.999999999993e-01 6.749045766696e-13 -2.555463839419e-04 0.000000000000e+00 6.022428152139e-11 0.000000000000e+00 
5.000000000000e-03 0.000000000000e+00 1.013250000000e+05 1.013250000000e+05 9.999999999988e-01 1.249333969611e-12 -2.532748298421e-04 0.000000000000e+00 7.541434528842e-11 0.000000000000e+00 
6.000000000000e-03 0.000000000000e+00 1.013250000000e+05 1.013250000000e+05 9.999999999979e-01 2.075895011444e-12 -2.510264147326e-04 0.000000000000e+00 9.044880066952e-11 0.000000000000e+00 
7.000000000000e-03 0.000000000000e+00 1.013250000000e+05 1.013250000000e+05 9.999999999968e-01 3.196776177106e-12 -2.488010388174e-04 0.000000000000e+00 1.053283411307e-10 0.000000000000e+00 
8.000000000000e-03 0.000000000000e+00 1.013250000000e+05 1.013250000000e+05 9.999999999953e-01 4.653388785414e-12 -2.465982744711e-04 0.000000000000e+00 1.200558515130e-10 0.000000000000e+00 
9.000000000000e-03 0.000000000000e+00 1.013250000000e+05 1.013250000000e+05 9.999999999935e-01 6.485145753743e-12 -2.444180758369e-04 0.000000000000e+00 1.346316634963e-10 0.000000000000e+00 
1.000000000000e-02 0.000000000000e+00 1.013250000000e+05 1.013250000000e+05 9.999999999913e-01 8.730460798745e-12 -2.422600466515e-04 0.000000000000e+00 1.490584509165e-10 0.000000000000e+00 
2.000000000000e-02 0.000000000000e+00 1.013250000000e+05 1.013250000000e+05 9.999999999123e-01 8.771650072958e-11 -2.226864325881e-04 0.000000000000e+00 2.798739948211e-10 0.000000000000e+00 
3.000000000000e-02 0.000000000000e+00 1.013250000000e+05 1.013250000000e+05 9.999999997891e-01 2.108522245692e-10 -2.185788858188e-04 0.000000000000e+00 3.073221596925e-10 0.000000000000e+00 
4.000000000000e-02 0.000000000000e+00 1.013250000000e+05 1.013250000000e+05 9.999999996477e-01 3.523445979425e-10 -2.146208493471e-04 0.000000000000e+00 3.337621040812e-10 0.000000000000e+00 
5.000000000000e-02 0.000000000000e+00 1.013250000000e+05 1.013250000000e+05 9.999999995186e-01 4.813708320839e-10 -2.107208202867e-04 0.000000000000e+00 3.598061757491e-10 0.000000000000e+00 
6.000000000000e-02 0.000000000000e+00 1.013250000000e+05 1.013250000000e+05 9.999999993711e-01 6.289149201422e-10 -2.069200713770e-04 0.000000000000e+00 3.851903263838e-10 0.000000000000e+00 
7.000000000000e-02 0.000000000000e+00 1.013250000000e+05 1.013250000000e+05 9.999999992042e-01 7.957502434763e-10 -2.031994346466e-04 0.000000000000e+00 4.100367211748e-10 0.000000000000e+00 
8.000000000000e-02 0.000000000000e+00 1.013250000000e+05 1.013250000000e+05 9.999999990174e-01 9.825966706956e-10 -1.995568755913e-04 0.000000000000e+00 4.343590895419e-10 0.000000000000e+00 
9.000000000000e-02 0.000000000000e+00 1.013250000000e+05 1.013250000000e+05 9.999999988099e-01 1.190083254166e-09 -1.959907516890e-04 0.000000000000e+00 4.581685369669e-10 0.000000000000e+00 
1.000000000000e-01 0.000000000000e+00 1.013250000000e+05 1.013250000000e+05 9.999999985812e-01 1.418788087015e-09 -1.924992360778e-04 0.000000000000e+00 4.814773928394e-10 0.000000000000e+00 
2.000000000000e-01 0.000000000000e+00 1.013250000000e+05 1.013250000000e+05 9.999999942283e-01 5.771733979643e-09 -1.636909028549e-04 0.000000000000e+00 6.736841121761e-10 0.000000000000e+00 
3.000000000000e-01 0.000000000000e+00 1.013250000000e+05 1.013250000000e+05 9.999999883914e-01 1.160855989113e-08 -1.462179130837e-04 0.000000000000e+00 7.901496008803e-10 0.000000000000e+00 
4.000000000000e-01 0.000000000000e+00 1.013250000000e+05 1.013250000000e+05 9.999999813650e-01 1.863500620480e-08 -1.330975603342e-04 0.000000000000e+00 8.775324696302e-10 0.000000000000e+00 
5.000000000000e-01 0.000000000000e+00 1.013250000000e+05 1.013250000000e+05 9.999999734086e-01 2.659138276240e-08 -1.229430131832e-04 0.000000000000e+00 9.451083777442e-10 0.000000000000e+00 
6.000000000000e-01 0.000000000000e+00 1.013250000000e+05 1.013250000000e+05 9.999999647152e-01 3.528477243719e-08 -1.147274687176e-04 0.000000000000e+00 9.997372201585e-10 0.000000000000e+00 
7.000000000000e-01 0.000000000000e+00 1.013250000000e+05 1.013250000000e+05 9.999999554046e-01 4.459539337809e-08 -1.076733141142e-04 0.000000000000e+00 1.046609227960e-09 0.000000000000e+00 
8.000000000000e-01 0.000000000000e+00 1.013250000000e+05 1.013250000000e+05 9.999999455809e-01 5.441908013104e-08 -1.015559904986e-04 0.000000000000e+00 1.087225785136e-09 0.000000000000e+00 
9.000000000000e-01 0.000000000000e+00 1.013250000000e+05 1.013250000000e+05 9.999999353341e-01 6.466586000009e-08 -9.620694831064e-05 0.000000000000e+00 1.122713588394e-09 0.000000000000e+00 
1.000000000000e+00 0.000000000000e+00 1.013250000000e+05 1.013250000000e+05 9.999999247361e-01 7.526386625045e-08 -9.145971207770e-05 0.000000000000e+00 1.154184302245e-09 0.000000000000e+00 
2.000000000000e+00 0.000000000000e+00 1.013250000000e+05 1.013250000000e+05 9.999998110279e-01 1.889720616655e-07 -6.716362551158e-05 0.000000000000e+00 1.314384544992e-09 0.000000000000e+00 
3.000000000000e+00 0.000000000000e+00 1.013250000000e+05 1.013250000000e+05 9.999996977893e-01 3.022106762618e-07 -5.268562894939e-05 0.000000000000e+00 1.409184926573e-09 0.000000000000e+00 
4.000000000000e+00 0.000000000000e+00 1.013250000000e+05 1.013250000000e+05 9.999995884162e-01 4.115837524132e-07 -4.331394219488e-05 0.000000000000e+00 1.470043143975e-09 0.000000000000e+00 
5.000000000000e+00 0.000000000000e+00 1.013250000000e+05 1.013250000000e+05 9.999994845351e-01 5.154648750061e-07 -3.717000940453e-05 0.000000000000e+00 1.509498241321e-09 0.000000000000e+00 
6.000000000000e+00 0.000000000000e+00 1.013250000000e+05 1.013250000000e+05 9.999993863409e-01 6.136591099715e-07 -3.289075091382e-05 0.000000000000e+00 1.536625836438e-09 0.000000000000e+00 
7.000000000000e+00 0.000000000000e+00 1.013250000000e+05 1.013250000000e+05 9.999992933315e-01 7.066685061563e-07 -2.966569467944e-05 0.000000000000e+00 1.556811601709e-09 0.000000000000e+00 
8.000000000000e+00 0.000000000000e+00 1.013250000000e+05 1.013250000000e+05 9.999992050194e-01 7.949805518326e-07 -2.719580595692e-05 0.000000000000e+00 1.572038685998e-09 0.000000000000e+00 
9.000000000000e+00 0.000000000000e+00 1.013250000000e+05 1.013250000000e+05 9.999991209205e-01 8.790794956415e-07 -2.527329131173e-05 0.000000000000e+00 1.583682857554e-09 0.000000000000e+00 
1.000000000000e+01 0.000000000000e+00 1.013250000000e+05 1.013250000000e+05 9.999990405534e-01 9.594466143792e-07 -2.375146543436e-05 0.000000000000e+00 1.592713244701e-09 0.000000000000e+00 
1.100000000000e+01 0.000000000000e+00 1.013250000000e+05 1.013250000000e+05 9.999989634519e-01 1.036548148314e-06 -2.253292018470e-05 0.000000000000e+00 1.599771375629e-09 0.000000000000e+00 
1.200000000000e+01 0.000000000000e+00 1.013250000000e+05 1.013250000000e+05 9.999988891363e-01 1.110863680598e-06 -2.153511893405e-05 0.000000000000e+00 1.605399597053e-09 0.000000000000e+00 
1.300000000000e+01 0.000000000000e+00 1.013250000000e+05 1.013250000000e+05 9.999988171280e-01 1.182872033323e-06 -2.070471203675e-05 0.000000000000e+00 1.609946172008e-09 0.000000000000e+00 
1.400000000000e+01 0.000000000000e+00 1.013250000000e+05 1.013250000000e+05 9.999987469622e-01 1.253037829385e-06 -2.001395400663e-05 0.000000000000e+00 1.613589387433e-09 0.000000000000e+00 
1.500000000000e+01 0.000000000000e+00 1.013250000000e+05 1.013250000000e+05 9.999986781420e-01 1.321858001058e-06 -1.942171444768e-05 0.000000000000e+00 1.616595912277e-09 0.000000000000e+00 
1.600000000000e+01 0.000000000000e+00 1.013250000000e+05 1.013250000000e+05 9.999986101663e-01 1.389833658938e-06 -1.890871280977e-05 0.000000000000e+00 1.619087165887e-09 0.000000000000e+00 
1.700000000000e+01 0.000000000000e+00 1.013250000000e+05 1.013250000000e+05 9.999985425229e-01 1.457477137867e-06 -1.845792918926e-05 0.000000000000e+00 1.621169377585e-09 0.000000000000e+00 
1.800000000000e+01 0.000000000000e+00 1.013250000000e+05 1.013250000000e+05 9.999984746908e-01 1.525309240247e-06 -1.805647826425e-05 0.000000000000e+00 1.622921174221e-09 0.000000000000e+00 
1.900000000000e+01 0.000000000000e+00 1.013250000000e+05 1.013250000000e+05 9.999984061449e-01 1.593855079474e-06 -1.769498342253e-05 0.000000000000e+00 1.624397798872e-09 0.000000000000e+00 
2.000000000000e+01 0.000000000000e+00 1.013250000000e+05 1.013250000000e+05 9.999983363637e-01 1.663636295723e-06 -1.736844332253e-05 0.000000000000e+00 1.625625457854e-09 0.000000000000e+00 
2.100000000000e+01 0.000000000000e+00 1.013250000000e+05 1.013250000000e+05 9.999982648245e-01 1.735175536366e-06 -1.706824023565e-05 0.000000000000e+00 1.626654379747e-09 0.000000000000e+00 
2.200000000000e+01 0.000000000000e+00 1.013250000000e+05 1.013250000000e+05 9.999981910161e-01 1.808983943974e-06 -1.679081152298e-05 0.000000000000e+00 1.627501347539e-09 0.000000000000e+00 
2.300000000000e+01 0.000000000000e+00 1.013250000000e+05 1.013250000000e+05 9.999981144422e-01 1.885557838754e-06 -1.653250080677e-05 0.000000000000e+00 1.628183964577e-09 0.000000000000e+00 
2.400000000000e+01 0.000000000000e+00 1.013250000000e+05 1.013250000000e+05 9.999980346257e-01 1.965374309965e-06 -1.628970062737e-05 0.000000000000e+00 1.628719765136e-09 0.000000000000e+00 
2.500000000000e+01 0.000000000000e+00 1.013250000000e+05 1.013250000000e+05 9.999979511165e-01 2.048883452677e-06 -1.606030426763e-05 0.000000000000e+00 1.629116677126e-09 0.000000000000e+00 
2.600000000000e+01 0.000000000000e+00 1.013250000000e+05 1.013250000000e+05 9.999978634960e-01 2.136504021033e-06 -1.584271755397e-05 0.000000000000e+00 1.629379644718e-09 0.000000000000e+00 
2.700000000000e+01 0.000000000000e+00 1.013250000000e+05 1.013250000000e+05 9.999977713805e-01 2.228619469635e-06 -1.563568232578e-05 0.000000000000e+00 1.629511855079e-09 0.000000000000e+00 
2.800000000000e+01 0.000000000000e+00 1.013250000000e+05 1.013250000000e+05 9.999976744257e-01 2.325574287587e-06 -1.543794442845e-05 0.000000000000e+00 1.629516993975e-09 0.000000000000e+00 
2.900000000000e+01 0.000000000000e+00 1.013250000000e+05 1.013250000000e+05 9.999975723278e-01 2.427672233685e-06 -1.524861987088e-05 0.000000000000e+00 1.629396836756e-09 0.000000000000e+00 
3.000000000000e+01 0.000000000000e+00 1.013250000000e+05 1.013250000000e+05 9.999974648248e-01 2.535175202656e-06 -1.506698913715e-05 0.000000000000e+00 1.629152630335e-09 0.000000000000e+00 
3.100000000000e+01 0.000000000000e+00 1.013250000000e+05 1.013250000000e+05 9.999973516983e-01 2.648301742680e-06 -1.489348657889e-05 0.000000000000e+00 1.628778536927e-09 0.000000000000e+00 
3.200000000000e+01 0.000000000000e+00 1.013250000000e+05 1.013250000000e+05 9.999972327692e-01 2.767230816492e-06 -1.472562994224e-05 0.000000000000e+00 1.628288636508e-09 0.000000000000e+00 
3.300000000000e+01 0.000000000000e+00 1.013250000000e+05 1.013250000000e+05 9.999971078962e-01 2.892103848406e-06 -1.456291399064e-05 0.000000000000e+00 1.627684376633e-09 0.000000000000e+00 
3.400000000000e+01 0.000000000000e+00 1.013250000000e+05 1.013250000000e+05 9.999969769779e-01 3.023022055237e-06 -1.440521431159e-05 0.000000000000e+00 1.626965216657e-09 0.000000000000e+00 
3.500000000000e+01 0.000000000000e+00 1.013250000000e+05 1.013250000000e+05 9.999968399544e-01 3.160045558115e-06 -1.425422135772e-05 0.000000000000e+00 1.626119107744e-09 0.000000000000e+00 
3.600000000000e+01 0.000000000000e+00 1.013250000000e+05 1.013250000000e+05 9.999966967963e-01 3.303203665928e-06 -1.410676539393e-05 0.000000000000e+00 1.625166721164e-09 0.000000000000e+00 
3.700000000000e+01 0.000000000000e+00 1.013250000000e+05 1.013250000000e+05 9.999965475115e-01 3.452488493094e-06 -1.396353589573e-05 0.000000000000e+00 1.624103578760e-09 0.000000000000e+00 
3.800000000000e+01 0.000000000000e+00 1.013250000000e+05 1.013250000000e+05 9.999963921420e-01 3.607857987031e-06 -1.382428773530e-05 0.000000000000e+00 1.622931875056e-09 0.000000000000e+00 
3.900000000000e+01 0.000000000000e+00 1.013250000000e+05 1.013250000000e+05 9.999962307613e-01 3.769238698159e-06 -1.368880118480e-05 0.000000000000e+00 1.621654059798e-09 0.000000000000e+00 
4.000000000000e+01 0.000000000000e+00 1.013250000000e+05 1.013250000000e+05 9.999960634722e-01 3.936527793291e-06 -1.355704722138e-05 0.000000000000e+00 1.620271711373e-09 0.000000000000e+00 
4.100000000000e+01 0.000000000000e+00 1.013250000000e+05 1.013250000000e+05 9.999958904032e-01 4.109596760116e-06 -1.342864423934e-05 0.000000000000e+00 1.618789098020e-09 0.000000000000e+00 
4.200000000000e+01 0.000000000000e+00 1.013250000000e+05 1.013250000000e+05 9.999957117047e-01 4.288295256338e-06 -1.330348691340e-05 0.000000000000e+00 1.617208946019e-09 0.000000000000e+00 
4.300000000000e+01 0.000000000000e+00 1.013250000000e+05 1.013250000000e+05 9.999955275450e-01 4.472454992910e-06 -1.318138832489e-05 0.000000000000e+00 1.615534766555e-09 0.000000000000e+00 
4.400000000000e+01 0.000000000000e+00 1.013250000000e+05 1.013250000000e+05 9.999953381060e-01 4.661894017377e-06 -1.306216809440e-05 0.000000000000e+00 1.613770211731e-09 0.000000000000e+00 
4.500000000000e+01 0.000000000000e+00 1.013250000000e+05 1.013250000000e+05 9.999951435790e-01 4.856420976362e-06 -1.294581134434e-05 0.000000000000e+00 1.611917960577e-09 0.000000000000e+00 
4.600000000000e+01 0.000000000000e+00 1.013250000000e+05 1.013250000000e+05 9.999949441625e-01 5.055837480450e-06 -1.283306135092e-05 0.000000000000e+00 1.609975747500e-09 0.000000000000e+00 
4.700000000000e+01 0.000000000000e+00 1.013250000000e+05 1.013250000000e+05 9.999947400551e-01 5.259944864999e-06 -1.272242257010e-05 0.000000000000e+00 1.607956192094e-09 0.000000000000e+00 
4.800000000000e+01 0.000000000000e+00 1.013250000000e+05 1.013250000000e+05 9.999945314580e-01 5.468541982578e-06 -1.261441472844e-05 0.000000000000e+00 1.605858552240e-09 0.000000000000e+00 
4.900000000000e+01 0.000000000000e+00 1.013250000000e+05 1.013250000000e+05 9.999943185739e-01 5.681426106796e-06 -1.250876887994e-05 0.000000000000e+00 1.603687349201e-09 0.000000000000e+00 
5.000000000000e+01 0.000000000000e+00 1.013250000000e+05 1.013250000000e+05 9.999941016082e-01 5.898391754355e-06 -1.240552032741e-05 0.000000000000e+00 1.601445119405e-09 0.000000000000e+00 
5.100000000000e+01 0.000000000000e+00 1.013250000000e+05 1.013250000000e+05 9.999938807708e-01 6.119229248425e-06 -1.230459642665e-05 0.000000000000e+00 1.599135173232e-09 0.000000000000e+00 
5.200000000000e+01 0.000000000000e+00 1.013250000000e+05 1.013250000000e+05 9.999936562765e-01 6.343723546687e-06 -1.220573819088e-05 0.000000000000e+00 1.596762132033e-09 0.000000000000e+00 
5.300000000000e+01 0.000000000000e+00 1.013250000000e+05 1.013250000000e+05 9.999934283466e-01 6.571653350607e-06 -1.210891902856e-05 0.000000000000e+00 1.594329157346e-09 0.000000000000e+00 
5.400000000000e+01 0.000000000000e+00 1.013250000000e+05 1.013250000000e+05 9.999931972083e-01 6.802791690408e-06 -1.201415284265e-05 0.000000000000e+00 1.591839218022e-09 0.000000000000e+00 
5.500000000000e+01 0.000000000000e+00 1.013250000000e+05 1.013250000000e+05 9.999929630930e-01 7.036907016200e-06 -1.192133456567e-05 0.000000000000e+00 1.589296135633e-09 0.000000000000e+00 
5.600000000000e+01 0.000000000000e+00 1.013250000000e+05 1.013250000000e+05 9.999927262339e-01 7.273766144067e-06 -1.183035449541e-05 0.000000000000e+00 1.586703784836e-09 0.000000000000e+00 
5.700000000000e+01 0.000000000000e+00 1.013250000000e+05 1.013250000000e+05 9.999924868634e-01 7.513136631165e-06 -1.174115412340e-05 0.000000000000e+00 1.584065690088e-09 0.000000000000e+00 
5.800000000000e+01 0.000000000000e+00 1.013250000000e+05 1.013250000000e+05 9.999922452101e-01 7.754789861592e-06 -1.165361688190e-05 0.000000000000e+00 1.581385710245e-09 0.000000000000e+00 
5.900000000000e+01 0.000000000000e+00 1.013250000000e+05 1.013250000000e+05 9.999920014957e-01 7.998504253592e-06 -1.156777142472e-05 0.000000000000e+00 1.578666644018e-09 0.000000000000e+00 
6.000000000000e+01 0.000000000000e+00 1.013250000000e+05 1.013250000000e+05 9.999917559318e-01 8.244068156249e-06 -1.148349325679e-05 0.000000000000e+00 1.575912174181e-09 0.000000000000e+00 
6.100000000000e+01 0.000000000000e+00 1.013250000000e+05 1.013250000000e+05 9.999915087181e-01 8.491281924372e-06 -1.140074009130e-05 0.000000000000e+00 1.573125275122e-09 0.000000000000e+00 
6.200000000000e+01 0.000000000000e+00 1.013250000000e+05 1.013250000000e+05 9.999912600411e-01 8.739958905712e-06 -1.131997570015e-05 0.000000000000e+00 1.570305381574e-09 0.000000000000e+00 
6.300000000000e+01 0.000000000000e+00 1.013250000000e+05 1.013250000000e+05 9.999910100751e-01 8.989924937142e-06 -1.124123467410e-05 0.000000000000e+00 1.567454612805e-09 0.000000000000e+00 
6.400000000000e+01 0.000000000000e+00 1.013250000000e+05 1.013250000000e+05 9.999907589815e-01 9.241018470219e-06 -1.116330282955e-05 0.000000000000e+00 1.564583220580e-09 0.000000000000e+00 
6.500000000000e+01 0.000000000000e+00 1.013250000000e+05 1.013250000000e+05 9.999905069177e-01 9.493082349876e-06 -1.108664756450e-05 0.000000000000e+00 1.561690217896e-09 0.000000000000e+00 
6.600000000000e+01 0.000000000000e+00 1.013250000000e+05 1.013250000000e+05 9.999902540397e-01 9.745960335428e-06 -1.101127169408e-05 0.000000000000e+00 1.558777694099e-09 0.000000000000e+00 
6.700000000000e+01 0.000000000000e+00 1.013250000000e+05 1.013250000000e+05 9.999900005060e-01 9.999493997048e-06 -1.093714112736e-05 0.000000000000e+00 1.555848013514e-09 0.000000000000e+00 
6.800000000000e+01 0.000000000000e+00 1.013250000000e+05 1.013250000000e+05 9.999897464801e-01 1.025351988782e-05 -1.086425349341e-05 0.000000000000e+00 1.552903397435e-09 0.000000000000e+00 
6.900000000000e+01 0.000000000000e+00 1.013250000000e+05 1.013250000000e+05 9.999894921300e-01 1.050787001677e-05 -1.079257718971e-05 0.000000000000e+00 1.549946322909e-09 0.000000000000e+00 
7.000000000000e+01 0.000000000000e+00 1.013250000000e+05 1.013250000000e+05 9.999892376269e-01 1.076237309772e-05 -1.072208789281e-05 0.000000000000e+00 1.546979263243e-09 0.000000000000e+00 
7.100000000000e+01 0.000000000000e+00 1.013250000000e+05 1.013250000000e+05 9.999889831421e-01 1.101685793847e-05 -1.065271657891e-05 0.000000000000e+00 1.544004987790e-09 0.000000000000e+00 
7.200000000000e+01 0.000000000000e+00 1.013250000000e+05 1.013250000000e+05 9.999887288440e-01 1.127115600352e-05 -1.058447894068e-05 0.000000000000e+00 1.541025666835e-09 0.000000000000e+00 
7.300000000000e+01 0.000000000000e+00 1.013250000000e+05 1.013250000000e+05 9.999884748940e-01 1.152510604718e-05 -1.051740426606e-05 0.000000000000e+00 1.538043282089e-09 0.000000000000e+00 
7.400000000000e+01 0.000000000000e+00 1.013250000000e+05 1.013250000000e+05 9.999882214432e-01 1.177855681500e-05 -1.045142958129e-05 0.000000000000e+00 1.535060294065e-09 0.000000000000e+00 
7.500000000000e+01 0.000000000000e+00 1.013250000000e+05 1.013250000000e+05 9.999879686293e-01 1.203137071826e-05 -1.038661755742e-05 0.000000000000e+00 1.532078143545e-09 0.000000000000e+00 
7.600000000000e+01 0.000000000000e+00 1.013250000000e+05 1.013250000000e+05 9.999877165743e-01 1.228342566106e-05 -1.032295609331e-05 0.000000000000e+00 1.529098559165e-09 0.000000000000e+00 
7.700000000000e+01 0.000000000000e+00 1.013250000000e+05 1.013250000000e+05 9.999874653836e-01 1.253461636075e-05 -1.026039016160e-05 0.000000000000e+00 1.526123328025e-09 0.000000000000e+00 
7.800000000000e+01 0.000000000000e+00 1.013250000000e+05 1.013250000000e+05 9.999872151448e-01 1.278485519896e-05 -1.019894125443e-05 0.000000000000e+00 1.523153490098e-09 0.000000000000e+00 
7.900000000000e+01 0.000000000000e+00 1.013250000000e+05 1.013250000000e+05 9.999869659274e-01 1.303407260211e-05 -1.013854063069e-05 0.000000000000e+00 1.520190441742e-09 0.000000000000e+00 
8.000000000000e+01 0.000000000000e+00 1.013250000000e+05 1.013250000000e+05 9.999867177840e-01 1.328221601304e-05 -1.007915963363e-05 0.000000000000e+00 1.517235083198e-09 0.000000000000e+00 
8.100000000000e+01 0.000000000000e+00 1.013250000000e+05 1.013250000000e+05 9.999864707531e-01 1.352924688180e-05 -1.002112118492e-05 0.000000000000e+00 1.514285787710e-09 0.000000000000e+00 
8.200000000000e+01 0.000000000000e+00 1.013250000000e+05 1.013250000000e+05 9.999862248639e-01 1.377513607559e-05 -9.963851333041e-06 0.000000000000e+00 1.511346765273e-09 0.000000000000e+00 
8.300000000000e+01 0.000000000000e+00 1.013250000000e+05 1.013250000000e+05 9.999859801452e-01 1.401985480809e-05 -9.907488539174e-06 0.000000000000e+00 1.508417484082e-09 0.000000000000e+00 
8.400000000000e+01 0.000000000000e+00 1.013250000000e+05 1.013250000000e+05 9.999857366342e-01 1.426336581067e-05 -9.852069849957e-06 0.000000000000e+00 1.505498201168e-09 0.000000000000e+00 
8.500000000000e+01 0.000000000000e+00 1.013250000000e+05 1.013250000000e+05 9.999854943820e-01 1.450561804472e-05 -9.797585599860e-06 0.000000000000e+00 1.502589670067e-09 0.000000000000e+00 
8.600000000000e+01 0.000000000000e+00 1.013250000000e+05 1.013250000000e+05 9.999852534564e-01 1.474654357903e-05 -9.744013498747e-06 0.000000000000e+00 1.499692956422e-09 0.000000000000e+00 
8.700000000000e+01 0.000000000000e+00 1.013250000000e+05 1.013250000000e+05 9.999850139408e-01 1.498605920558e-05 -9.691190788372e-06 0.000000000000e+00 1.496810266026e-09 0.000000000000e+00 
8.800000000000e+01 0.000000000000e+00 1.013250000000e+05 1.013250000000e+05 9.999847759304e-01 1.522406958809e-05 -9.639083219548e-06 0.000000000000e+00 1.493943113701e-09 0.000000000000e+00 
8.900000000000e+01 0.000000000000e+00 1.013250000000e+05 1.013250000000e+05 9.999845395270e-01 1.546047303269e-05 -9.587635792314e-06 0.000000000000e+00 1.491093238663e-09 0.000000000000e+00 
9.000000000000e+01 0.000000000000e+00 1.013250000000e+05 1.013250000000e+05 9.999843048316e-01 1.569516835442e-05 -9.536857692284e-06 0.000000000000e+00 1.488261946478e-09 0.000000000000e+00 
9.100000000000e+01 0.000000000000e+00 1.013250000000e+05 1.013250000000e+05 9.999840719397e-01 1.592806031114e-05 -9.486739522809e-06 0.000000000000e+00 1.485450586187e-09 0.000000000000e+00 
9.200000000000e+01 0.000000000000e+00 1.013250000000e+05 1.013250000000e+05 9.999838409348e-01 1.615906515107e-05 -9.437269660892e-06 0.000000000000e+00 1.482660366458e-09 0.000000000000e+00 
9.300000000000e+01 0.000000000000e+00 1.013250000000e+05 1.013250000000e+05 9.999836118863e-01 1.638811369298e-05 -9.388420247725e-06 0.000000000000e+00 1.479892407298e-09 0.000000000000e+00 
9.400000000000e+01 0.000000000000e+00 1.013250000000e+05 1.013250000000e+05 9.999833848453e-01 1.661515468121e-05 -9.340197908820e-06 0.000000000000e+00 1.477147357353e-09 0.000000000000e+00 
9.500000000000e+01 0.000000000000e+00 1.013250000000e+05 1.013250000000e+05 9.999831598445e-01 1.684015545300e-05 -9.292563365939e-06 0.000000000000e+00 1.474425919585e-09 0.000000000000e+00 
9.600000000000e+01 0.000000000000e+00 1.013250000000e+05 1.013250000000e+05 9.999829368975e-01 1.706310252358e-05 -9.245570162433e-06 0.000000000000e+00 1.471727920617e-09 0.000000000000e+00 
9.700000000000e+01 0.000000000000e+00 1.013250000000e+05 1.013250000000e+05 9.999827159997e-01 1.728400027434e-05 -9.199113129184e-06 0.000000000000e+00 1.469054001457e-09 0.000000000000e+00 
9.800000000000e+01 0.000000000000e+00 1.013250000000e+05 1.013250000000e+05 9.999824971298e-01 1.750287017599e-05 -9.153258600103e-06 0.000000000000e+00 1.466403431700e-09 0.000000000000e+00 
9.900000000000e+01 0.000000000000e+00 1.013250000000e+05 1.013250000000e+05 9.999822802512e-01 1.771974879816e-05 -9.107950157441e-06 0.000000000000e+00 1.463776093467e-09 0.000000000000e+00 
1.000000000000e+02 0.000000000000e+00 1.013250000000e+05 1.013250000000e+05 9.999820653151e-01 1.793468487943e-05 -9.063757262084e-06 0.000000000000e+00 1.461167541624e-09 0.000000000000e+00 
1.010000000000e+02 0.000000000000e+00 1.013250000000e+05 1.013250000000e+05 9.999818522595e-01 1.814774051312e-05 -9.019728798803e-06 0.000000000000e+00 1.458583264427e-09 0.000000000000e+00 
1.020000000000e+02 0.000000000000e+00 1.013250000000e+05 1.013250000000e+05 9.999816410141e-01 1.835898589975e-05 -8.976211509638e-06 0.000000000000e+00 1.456020008260e-09 0.000000000000e+00 
1.030000000000e+02 0.000000000000e+00 1.013250000000e+05 1.013250000000e+05 9.999814315077e-01 1.856849226389e-05 -8.933486243055e-06 0.000000000000e+00 1.453474943964e-09 0.000000000000e+00 
1.040000000000e+02 0.000000000000e+00 1.013250000000e+05 1.013250000000e+05 9.999812236781e-01 1.877632187219e-05 -8.891072500832e-06 0.000000000000e+00 1.450950427093e-09 0.000000000000e+00 
1.050000000000e+02 0.000000000000e+00 1.013250000000e+05 1.013250000000e+05 9.999810174880e-01 1.898251195098e-05 -8.849082759518e-06 0.000000000000e+00 1.448445207472e-09 0.000000000000e+00 
1.060000000000e+02 0.000000000000e+00 1.013250000000e+05 1.013250000000e+05 9.999808129325e-01 1.918706748572e-05 -8.807548988155e-06 0.000000000000e+00 1.445959005643e-09 0.000000000000e+00 
1.070000000000e+02 0.000000000000e+00 1.013250000000e+05 1.013250000000e+05 9.999806100422e-01 1.938995776418e-05 -8.766433675645e-06 0.000000000000e+00 1.443492486323e-09 0.000000000000e+00 
1.080000000000e+02 0.000000000000e+00 1.013250000000e+05 1.013250000000e+05 9.999804088789e-01 1.959112111893e-05 -8.725778153081e-06 0.000000000000e+00 1.441046207953e-09 0.000000000000e+00 
1.090000000000e+02 0.000000000000e+00 1.013250000000e+05 1.013250000000e+05 9.999802095253e-01 1.979047470413e-05 -8.685570922167e-06 0.000000000000e+00 1.438621366262e-09 0.000000000000e+00 
1.100000000000e+02 0.000000000000e+00 1.013250000000e+05 1.013250000000e+05 9.999800120749e-01 1.998792506819e-05 -8.645773086143e-06 0.000000000000e+00 1.436219482564e-09 0.000000000000e+00 
1.110000000000e+02 0.000000000000e+00 1.013250000000e+05 1.013250000000e+05 9.999798166202e-01 2.018337977527e-05 -8.606437489681e-06 0.000000000000e+00 1.433841454263e-09 0.000000000000e+00 
1.120000000000e+02 0.000000000000e+00 1.013250000000e+05 1.013250000000e+05 9.999796232434e-01 2.037675662625e-05 -8.567524518366e-06 0.000000000000e+00 1.431488655580e-09 0.000000000000e+00 
1.130000000000e+02 0.000000000000e+00 1.013250000000e+05 1.013250000000e+05 9.999794320092e-01 2.056799083550e-05 -8.529019746830e-06 0.000000000000e+00 1.429162058009e-09 0.000000000000e+00 
1.140000000000e+02 0.000000000000e+00 1.013250000000e+05 1.013250000000e+05 9.999792429612e-01 2.075703879778e-05 -8.490935850315e-06 0.000000000000e+00 1.426862166812e-09 0.000000000000e+00 
1.150000000000e+02 0.000000000000e+00 1.013250000000e+05 1.013250000000e+05 9.999790561196e-01 2.094388035512e-05 -8.453296239539e-06 0.000000000000e+00 1.424589099192e-09 0.000000000000e+00 
1.160000000000e+02 0.000000000000e+00 1.013250000000e+05 1.013250000000e+05 9.999788714808e-01 2.112851915803e-05 -8.416020565467e-06 0.000000000000e+00 1.422343340975e-09 0.000000000000e+00 
1.170000000000e+02 0.000000000000e+00 1.013250000000e+05 1.013250000000e+05 9.999786890190e-01 2.131098104519e-05 -8.379182046279e-06 0.000000000000e+00 1.420124056833e-09 0.000000000000e+00 
1.180000000000e+02 0.000000000000e+00 1.013250000000e+05 1.013250000000e+05 9.999785086886e-01 2.149131143558e-05 -8.342703481719e-06 0.000000000000e+00 1.417931147523e-09 0.000000000000e+00 
1.190000000000e+02 0.000000000000e+00 1.013250000000e+05 1.013250000000e+05 9.999783304271e-01 2.166957293792e-05 -8.306615997771e-06 0.000000000000e+00 1.415763561112e-09 0.000000000000e+00 
1.200000000000e+02 0.000000000000e+00 1.013250000000e+05 1.013250000000e+05 9.999781541577e-01 2.184584234399e-05 -8.270890248787e-06 0.000000000000e+00 1.413620456297e-09 0.000000000000e+00 
