 TITLE = "Profiles along polylines"
 VARIABLES = "DIST" "PRESSURE1" "PRESSURE2" "PRESSURE_W" "SATURATION1" SATURATION2 "VELOCITY_X1" "VELOCITY_Y1" "VELOCITY_X2" "VELOCITY_Y2" 
 ZONE T="TIME=0.000000000000e+00"
0.000000000000e+00 0.000000000000e+00 1.013250000000e+05 1.013250000000e+05 1.000000000000e+00 2.220446049250e-16 0.000000000000e+00 0.000000000000e+00 0.000000000000e+00 0.000000000000e+00 
5.263157894737e-02 0.000000000000e+00 1.013250000000e+05 1.013250000000e+05 1.000000000000e+00 2.220446049250e-16 0.000000000000e+00 0.000000000000e+00 0.000000000000e+00 0.000000000000e+00 
1.052631578947e-01 0.000000000000e+00 1.013250000000e+05 1.013250000000e+05 1.000000000000e+00 2.220446049250e-16 0.000000000000e+00 0.000000000000e+00 0.000000000000e+00 0.000000000000e+00 
1.578947368421e-01 0.000000000000e+00 1.013250000000e+05 1.013250000000e+05 1.000000000000e+00 2.220446049250e-16 0.000000000000e+00 0.000000000000e+00 0.000000000000e+00 0.000000000000e+00 
2.105263157895e-01 0.000000000000e+00 1.013250000000e+05 1.013250000000e+05 1.000000000000e+00 2.220446049250e-16 0.000000000000e+00 0.000000000000e+00 0.000000000000e+00 0.000000000000e+00 
2.631578947368e-01 0.000000000000e+00 1.013250000000e+05 1.013250000000e+05 1.000000000000e+00 2.220446049250e-16 0.000000000000e+00 0.000000000000e+00 0.000000000000e+00 0.000000000000e+00 
3.157894736842e-01 0.000000000000e+00 1.013250000000e+05 1.013250000000e+05 1.000000000000e+00 2.220446049250e-16 0.000000000000e+00 0.000000000000e+00 0.000000000000e+00 0.000000000000e+00 
3.684210526316e-01 0.000000000000e+00 1.013250000000e+05 1.013250000000e+05 1.000000000000e+00 2.220446049250e-16 0.000000000000e+00 0.000000000000e+00 0.000000000000e+00 0.000000000000e+00 
4.210526315789e-01 0.000000000000e+00 1.013250000000e+05 1.013250000000e+05 1.000000000000e+00 2.220446049250e-16 0.000000000000e+00 0.000000000000e+00 0.000000000000e+00 0.000000000000e+00 
4.736842105263e-01 0.000000000000e+00 1.013250000000e+05 1.013250000000e+05 1.000000000000e+00 2.220446049250e-16 0.000000000000e+00 0.000000000000e+00 0.000000000000e+00 0.000000000000e+00 
5.263157894737e-01 0.000000000000e+00 1.013250000000e+05 1.013250000000e+05 1.000000000000e+00 2.220446049250e-16 0.000000000000e+00 0.000000000000e+00 0.000000000000e+00 0.000000000000e+00 
5.789473684210e-01 0.000000000000e+00 1.013250000000e+05 1.013250000000e+05 1.000000000000e+00 2.220446049250e-16 0.000000000000e+00 0.000000000000e+00 0.000000000000e+00 0.000000000000e+00 
6.315789473684e-01 0.000000000000e+00 1.013250000000e+05 1.013250000000e+05 1.000000000000e+00 2.220446049250e-16 0.000000000000e+00 0.000000000000e+00 0.000000000000e+00 0.000000000000e+00 
6.842105263158e-01 0.000000000000e+00 1.013250000000e+05 1.013250000000e+05 1.000000000000e+00 2.220446049250e-16 0.000000000000e+00 0.000000000000e+00 0.000000000000e+00 0.000000000000e+00 
7.368421052631e-01 0.000000000000e+00 1.013250000000e+05 1.013250000000e+05 1.000000000000e+00 2.220446049250e-16 0.000000000000e+00 0.000000000000e+00 0.000000000000e+00 0.000000000000e+00 
7.894736842105e-01 0.000000000000e+00 1.013250000000e+05 1.013250000000e+05 1.000000000000e+00 2.220446049250e-16 0.000000000000e+00 0.000000000000e+00 0.000000000000e+00 0.000000000000e+00 
8.421052631579e-01 0.000000000000e+00 1.013250000000e+05 1.013250000000e+05 1.000000000000e+00 2.220446049250e-16 0.000000000000e+00 0.000000000000e+00 0.000000000000e+00 0.000000000000e+00 
8.947368421053e-01 0.000000000000e+00 1.013250000000e+05 1.013250000000e+05 1.000000000000e+00 2.220446049250e-16 0.000000000000e+00 0.000000000000e+00 0.000000000000e+00 0.000000000000e+00 
9.473684210526e-01 0.000000000000e+00 1.013250000000e+05 1.013250000000e+05 1.000000000000e+00 2.220446049250e-16 0.000000000000e+00 0.000000000000e+00 0.000000000000e+00 0.000000000000e+00 
1.000000000000e+00 0.000000000000e+00 1.013250000000e+05 1.013250000000e+05 1.000000000000e+00 2.220446049250e-16 0.000000000000e+00 0.000000000000e+00 0.000000000000e+00 0.000000000000e+00 
 TITLE = "Profiles along polylines"
 VARIABLES = "DIST" "PRESSURE1" "PRESSURE2" "PRESSURE_W" "SATURATION1" SATURATION2 "VELOCITY_X1" "VELOCITY_Y1" "VELOCITY_X2" "VELOCITY_Y2" 
 ZONE T="TIME=1.000000000000e-03"
0.000000000000e+00 0.000000000000e+00 1.013250000000e+05 1.013250000000e+05 1.000000000000e+00 1.854072451124e-14 -2.625029828985e-04 0.000000000000e+00 1.369942147744e-11 0.000000000000e+00 
5.263157894737e-02 7.348545478150e-08 1.013203859316e+05 1.013203859316e+05 1.000000000000e+00 2.320366121467e-14 -2.625029826805e-04 0.000000000000e+00 1.369858623184e-11 0.000000000000e+00 
1.052631578947e-01 7.351955130005e-08 1.013157718624e+05 1.013157718623e+05 1.000000000000e+00 2.786659791809e-14 -2.625029822443e-04 0.000000000000e+00 1.369748909695e-11 0.000000000000e+00 
1.578947368421e-01 7.348628365480e-08 1.013111577923e+05 1.013111577922e+05 1.000000000000e+00 2.786659791809e-14 -2.625029818077e-04 0.000000000000e+00 1.369696531501e-11 0.000000000000e+00 
2.105263157895e-01 7.346747176653e-08 1.013065437213e+05 1.013065437212e+05 1.000000000000e+00 2.786659791809e-14 -2.625029813709e-04 0.000000000000e+00 1.369644152604e-11 0.000000000000e+00 
2.631578947368e-01 7.352715415102e-08 1.013019296494e+05 1.013019296494e+05 1.000000000000e+00 2.786659791809e-14 -2.625029809336e-04 0.000000000000e+00 1.369591773065e-11 0.000000000000e+00 
3.157894736842e-01 7.370562931519e-08 1.012973155768e+05 1.012973155767e+05 1.000000000000e+00 2.797762022055e-14 -2.625029804955e-04 0.000000000000e+00 1.369539393129e-11 0.000000000000e+00 
3.684210526316e-01 7.394899483804e-08 1.012927015032e+05 1.012927015032e+05 1.000000000000e+00 2.808864252302e-14 -2.625029800563e-04 0.000000000000e+00 1.369487013019e-11 0.000000000000e+00 
4.210526315789e-01 7.406341752198e-08 1.012880874288e+05 1.012880874288e+05 1.000000000000e+00 2.808864252302e-14 -2.625029796163e-04 0.000000000000e+00 1.369434632611e-11 0.000000000000e+00 
4.736842105263e-01 7.380376429603e-08 1.012834733536e+05 1.012834733535e+05 1.000000000000e+00 2.786659791809e-14 -2.625029791767e-04 0.000000000000e+00 1.369382251076e-11 0.000000000000e+00 
5.263157894737e-01 7.318062293501e-08 1.012788592775e+05 1.012788592774e+05 1.000000000000e+00 2.775557561563e-14 -2.625029787391e-04 0.000000000000e+00 1.369329867204e-11 0.000000000000e+00 
5.789473684210e-01 7.278012625240e-08 1.012742452005e+05 1.012742452004e+05 1.000000000000e+00 2.775557561563e-14 -2.625029783032e-04 0.000000000000e+00 1.369277481007e-11 0.000000000000e+00 
6.315789473684e-01 7.340024236467e-08 1.012696311227e+05 1.012696311226e+05 1.000000000000e+00 2.797762022055e-14 -2.625029778655e-04 0.000000000000e+00 1.369225095052e-11 0.000000000000e+00 
6.842105263158e-01 7.464742347738e-08 1.012650170441e+05 1.012650170440e+05 1.000000000000e+00 2.819966482548e-14 -2.625029774226e-04 0.000000000000e+00 1.369172712024e-11 0.000000000000e+00 
7.368421052631e-01 7.457344104083e-08 1.012604029645e+05 1.012604029644e+05 1.000000000000e+00 2.797762022055e-14 -2.625029769791e-04 0.000000000000e+00 1.369120328869e-11 0.000000000000e+00 
7.894736842105e-01 7.296246440837e-08 1.012557888841e+05 1.012557888841e+05 1.000000000000e+00 3.108624468950e-14 -2.625029765441e-04 0.000000000000e+00 1.369067934109e-11 0.000000000000e+00 
8.421052631579e-01 9.910743240009e-08 1.012511748029e+05 1.012511748028e+05 9.999999999949e-01 5.123013124830e-12 -2.625029760352e-04 0.000000000000e+00 1.369008687508e-11 0.000000000000e+00 
8.947368421053e-01 4.036573031264e-05 1.012465607608e+05 1.012465607205e+05 9.999999923907e-01 7.609317620449e-09 -2.625028549113e-04 0.000000000000e+00 1.358727049190e-11 0.000000000000e+00 
9.473684210526e-01 6.016987879819e-02 1.012420063533e+05 1.012419461834e+05 9.999888272112e-01 1.117278880536e-05 -2.623226530899e-04 0.000000000000e+00 -1.366656334828e-10 0.000000000000e+00 
1.000000000000e+00 8.834635309879e+01 1.013250000000e+05 1.012366536469e+05 9.999776696308e-01 2.233036918720e-05 -2.621425720981e-04 0.000000000000e+00 -2.868160515183e-10 0.000000000000e+00 
 TITLE = "Profiles along polylines"
 VARIABLES = "DIST" "PRESSURE1" "PRESSURE2" "PRESSURE_W" "SATURATION1" SATURATION2 "VELOCITY_X1" "VELOCITY_Y1" "VELOCITY_X2" "VELOCITY_Y2" 
 ZONE T="TIME=5.000000000000e+00"
0.000000000000e+00 0.000000000000e+00 1.013250000000e+05 1.013250000000e+05 9.999994845351e-01 5.154648750061e-07 -3.717000940453e-05 0.000000000000e+00 1.509498241321e-09 0.000000000000e+00 
5.263157894737e-02 2.040044622778e+00 1.008831804927e+05 1.008811404480e+05 9.999992336132e-01 7.663867570562e-07 -3.716879214618e-05 0.000000000000e+00 1.507988850116e-09 0.000000000000e+00 
1.052631578947e-01 3.006158946570e+00 1.004402823861e+05 1.004372762272e+05 9.999988673066e-01 1.132693389860e-06 -3.716557024462e-05 0.000000000000e+00 1.504086548431e-09 0.000000000000e+00 
1.578947368421e-01 3.436413444938e+00 9.999684063967e+04 9.999340422622e+04 9.999987011003e-01 1.298899665381e-06 -3.716112658855e-05 0.000000000000e+00 1.498798620996e-09 0.000000000000e+00 
2.105263157895e-01 3.623556780015e+00 9.955314628874e+04 9.954952273196e+04 9.999986275788e-01 1.372421236878e-06 -3.715603065092e-05 0.000000000000e+00 1.492766242571e-09 0.000000000000e+00 
2.631578947368e-01 3.709664119913e+00 9.910934055034e+04 9.910563088622e+04 9.999985929979e-01 1.407002071518e-06 -3.715060820405e-05 0.000000000000e+00 1.486379732328e-09 0.000000000000e+00 
3.157894736842e-01 3.760651142544e+00 9.866548891346e+04 9.866172826232e+04 9.999985711557e-01 1.428844255136e-06 -3.714500944133e-05 0.000000000000e+00 1.479818550194e-09 0.000000000000e+00 
3.684210526316e-01 3.814005651621e+00 9.822162860131e+04 9.821781459566e+04 9.999985449861e-01 1.455013908913e-06 -3.713926364586e-05 0.000000000000e+00 1.473118890350e-09 0.000000000000e+00 
4.210526315789e-01 3.915622566774e+00 9.777780520149e+04 9.777388957893e+04 9.999984896567e-01 1.510343280331e-06 -3.713327032143e-05 0.000000000000e+00 1.466166185493e-09 0.000000000000e+00 
4.736842105263e-01 4.174471745983e+00 9.733412703506e+04 9.732995256331e+04 9.999983435697e-01 1.656430338670e-06 -3.712666946595e-05 0.000000000000e+00 1.458548717481e-09 0.000000000000e+00 
5.263157894737e-01 4.891720948900e+00 9.689089357775e+04 9.688600185680e+04 9.999979382557e-01 2.061744321269e-06 -3.711844792004e-05 0.000000000000e+00 1.449112457560e-09 0.000000000000e+00 
5.789473684210e-01 6.894628006025e+00 9.644892754007e+04 9.644203291207e+04 9.999968212100e-01 3.178790046854e-06 -3.710594102546e-05 0.000000000000e+00 1.434837468304e-09 0.000000000000e+00 
6.315789473684e-01 1.237346012360e+01 9.601040724670e+04 9.599803378658e+04 9.999938288383e-01 6.171161697210e-06 -3.708254109383e-05 0.000000000000e+00 1.408274967389e-09 0.000000000000e+00 
6.842105263158e-01 2.683945259852e+01 9.558081397897e+04 9.555397452637e+04 9.999861419843e-01 1.385801565845e-05 -3.703306338763e-05 0.000000000000e+00 1.352399020599e-09 0.000000000000e+00 
7.368421052631e-01 6.324525215815e+01 9.517303009644e+04 9.510978484429e+04 9.999674681262e-01 3.253187375218e-05 -3.692630209228e-05 0.000000000000e+00 1.232398524862e-09 0.000000000000e+00 
7.894736842105e-01 1.492138367355e+02 9.481452885409e+04 9.466531501735e+04 9.999253868278e-01 7.461317222568e-05 -3.670937636494e-05 0.000000000000e+00 9.895372283763e-10 0.000000000000e+00 
8.421052631579e-01 3.351466208684e+02 9.455543887297e+04 9.422029225210e+04 9.998402614173e-01 1.597385826939e-04 -3.632791417270e-05 0.000000000000e+00 5.637237914203e-10 0.000000000000e+00 
8.947368421053e-01 6.870612880618e+02 9.446142168373e+04 9.377436039567e+04 9.994648320250e-01 5.351679750498e-04 -3.540284405163e-05 0.000000000000e+00 -4.631668855388e-10 0.000000000000e+00 
9.473684210526e-01 1.517037305746e+03 9.484287510642e+04 9.332583780067e+04 9.820525198500e-01 1.794748015002e-02 -2.573718872199e-05 0.000000000000e+00 -1.149704508500e-08 0.000000000000e+00 
1.000000000000e+00 8.480180679499e+03 1.013250000000e+05 9.284481932050e+04 9.649594322773e-01 3.504056772273e-02 -1.675918896228e-05 0.000000000000e+00 -2.176878067887e-08 0.000000000000e+00 
 TITLE = "Profiles along polylines"
 VARIABLES = "DIST" "PRESSURE1" "PRESSURE2" "PRESSURE_W" "SATURATION1" SATURATION2 "VELOCITY_X1" "VELOCITY_Y1" "VELOCITY_X2" "VELOCITY_Y2" 
 ZONE T="TIME=1.000000000000e+01"
0.000000000000e+00 0.000000000000e+00 1.013250000000e+05 1.013250000000e+05 9.999990405534e-01 9.594466143792e-07 -2.375146543436e-05 0.000000000000e+00 1.592713244701e-09 0.000000000000e+00 
5.263157894737e-02 3.797181925649e+00 1.008587806391e+05 1.008549834572e+05 9.999985092863e-01 1.490713703367e-06 -2.375052401004e-05 0.000000000000e+00 1.591535618508e-09 0.000000000000e+00 
1.052631578947e-01 6.103760395862e+00 1.003910671083e+05 1.003849633479e+05 9.999976625795e-01 2.337420542675e-06 -2.374786160975e-05 0.000000000000e+00 1.588301926258e-09 0.000000000000e+00 
1.578947368421e-01 7.447289848965e+00 9.992238388067e+04 9.991493659082e+04 9.999971641065e-01 2.835893522790e-06 -2.374383154468e-05 0.000000000000e+00 1.583503923407e-09 0.000000000000e+00 
2.105263157895e-01 8.224298741571e+00 9.945312516587e+04 9.944490086713e+04 9.999968688157e-01 3.131184297289e-06 -2.373878120526e-05 0.000000000000e+00 1.577524616344e-09 0.000000000000e+00 
2.631578947368e-01 8.724352998484e+00 9.898357883116e+04 9.897485447816e+04 9.999966663663e-01 3.333633749603e-06 -2.373293904390e-05 0.000000000000e+00 1.570644350293e-09 0.000000000000e+00 
3.157894736842e-01 9.188227146269e+00 9.851398424454e+04 9.850479601740e+04 9.999964565235e-01 3.543476514878e-06 -2.372631462472e-05 0.000000000000e+00 1.562883672770e-09 0.000000000000e+00 
3.684210526316e-01 9.903369498449e+00 9.804462721252e+04 9.803472384302e+04 9.999961069912e-01 3.893008774680e-06 -2.371855456480e-05 0.000000000000e+00 1.553840784628e-09 0.000000000000e+00 
4.210526315789e-01 1.136539201610e+01 9.757600058863e+04 9.756463519661e+04 9.999953798317e-01 4.620168300162e-06 -2.370866752396e-05 0.000000000000e+00 1.542381512962e-09 0.000000000000e+00 
4.736842105263e-01 1.457051534717e+01 9.710909513316e+04 9.709452461781e+04 9.999937984497e-01 6.201550271978e-06 -2.369450444613e-05 0.000000000000e+00 1.526055038099e-09 0.000000000000e+00 
5.263157894737e-01 2.154902421851e+01 9.664593008671e+04 9.662438106249e+04 9.999904109775e-01 9.589022505363e-06 -2.367187293802e-05 0.000000000000e+00 1.500104165060e-09 0.000000000000e+00 
5.789473684210e-01 3.629175615862e+01 9.619047466641e+04 9.615418291025e+04 9.999833951598e-01 1.660484020827e-05 -2.363322984388e-05 0.000000000000e+00 1.456015741058e-09 0.000000000000e+00 
6.315789473684e-01 6.622111563756e+01 9.575011117604e+04 9.568389006040e+04 9.999694624052e-01 3.053759475102e-05 -2.356612376355e-05 0.000000000000e+00 1.379810546519e-09 0.000000000000e+00 
6.842105263158e-01 1.242384566257e+02 9.533767143348e+04 9.521343297686e+04 9.999430813040e-01 5.691869604307e-05 -2.345200078436e-05 0.000000000000e+00 1.250747761287e-09 0.000000000000e+00 
7.368421052631e-01 2.310636380096e+02 9.497376389793e+04 9.474270025992e+04 9.998956641044e-01 1.043358955533e-04 -2.326642939228e-05 0.000000000000e+00 1.041567148676e-09 0.000000000000e+00 
7.894736842105e-01 4.171413254902e+02 9.468867000350e+04 9.427152867801e+04 9.998149752979e-01 1.850247020593e-04 -2.298146976476e-05 0.000000000000e+00 7.209603070282e-10 0.000000000000e+00 
8.421052631579e-01 7.232930286689e+02 9.452299301857e+04 9.379969998990e+04 9.996289787170e-01 3.710212830010e-04 -2.256786856908e-05 0.000000000000e+00 2.566170629696e-10 0.000000000000e+00 
8.947368421053e-01 1.200309113620e+03 9.452725880056e+04 9.332694968694e+04 9.986879011581e-01 1.312098841941e-03 -2.137834340025e-05 0.000000000000e+00 -1.082680194194e-09 0.000000000000e+00 
9.473684210526e-01 2.344516900848e+03 9.519515708678e+04 9.285064018593e+04 9.774988107692e-01 2.250118923075e-02 -1.262425558293e-05 0.000000000000e+00 -1.138002709250e-08 0.000000000000e+00 
1.000000000000e+00 8.980342410383e+03 1.013250000000e+05 9.234465758962e+04 9.571152337615e-01 4.288476623851e-02 -4.817021047843e-06 0.000000000000e+00 -2.061020629740e-08 0.000000000000e+00 
 TITLE = "Profiles along polylines"
 VARIABLES = "DIST" "PRESSURE1" "PRESSURE2" "PRESSURE_W" "SATURATION1" SATURATION2 "VELOCITY_X1" "VELOCITY_Y1" "VELOCITY_X2" "VELOCITY_Y2" 
 ZONE T="TIME=2.000000000000e+01"
0.000000000000e+00 0.000000000000e+00 1.013250000000e+05 1.013250000000e+05 9.999983363637e-01 1.663636295723e-06 -1.736844332253e-05 0.000000000000e+00 1.625625457854e-09 0.000000000000e+00 
5.263157894737e-02 6.584138792131e+00 1.008491250829e+05 1.008425409441e+05 9.999972995559e-01 2.700444084791e-06 -1.736762578599e-05 0.000000000000e+00 1.624602131200e-09 0.000000000000e+00 
1.052631578947e-01 1.149877467297e+01 1.003715776237e+05 1.003600788491e+05 9.999954704817e-01 4.529518319307e-06 -1.736515022558e-05 0.000000000000e+00 1.621597264274e-09 0.000000000000e+00 
1.578947368421e-01 1.531252962466e+01 9.989292293277e+04 9.987761040315e+04 9.999940147061e-01 5.985293938249e-06 -1.736091117997e-05 0.000000000000e+00 1.616550961364e-09 0.000000000000e+00 
2.105263157895e-01 1.865756507964e+01 9.941378955453e+04 9.939513198945e+04 9.999926777500e-01 7.322249963915e-06 -1.735462325263e-05 0.000000000000e+00 1.609109707429e-09 0.000000000000e+00 
2.631578947368e-01 2.231562057416e+01 9.893495484042e+04 9.891263921984e+04 9.999911353860e-01 8.864614048698e-06 -1.734567631178e-05 0.000000000000e+00 1.598580221488e-09 0.000000000000e+00 
3.157894736842e-01 2.736438417236e+01 9.845749052907e+04 9.843012614489e+04 9.999889322152e-01 1.106778479820e-05 -1.733294450732e-05 0.000000000000e+00 1.583676310424e-09 0.000000000000e+00 
3.684210526316e-01 3.540109720024e+01 9.798298514911e+04 9.794758405191e+04 9.999853907683e-01 1.460923174179e-05 -1.731455912759e-05 0.000000000000e+00 1.562265527787e-09 0.000000000000e+00 
4.210526315789e-01 4.885346779202e+01 9.751385326971e+04 9.746499980191e+04 9.999794890614e-01 2.051093857280e-05 -1.728767964362e-05 0.000000000000e+00 1.531118828938e-09 0.000000000000e+00 
4.736842105263e-01 7.137068032941e+01 9.705372443210e+04 9.698235375177e+04 9.999697123693e-01 3.028763065527e-05 -1.724833318154e-05 0.000000000000e+00 1.485742499587e-09 0.000000000000e+00 
5.263157894737e-01 1.082546983578e+02 9.660787218316e+04 9.649961748480e+04 9.999538984691e-01 4.610153087559e-05 -1.719143687851e-05 0.000000000000e+00 1.420418339948e-09 0.000000000000e+00 
5.789473684210e-01 1.668427535266e+02 9.618359459215e+04 9.601675183862e+04 9.999291156266e-01 7.088437337077e-05 -1.711116602120e-05 0.000000000000e+00 1.328628210248e-09 0.000000000000e+00 
6.315789473684e-01 2.566837431168e+02 9.579038982502e+04 9.553370608190e+04 9.998916454886e-01 1.083545114373e-04 -1.700194705932e-05 0.000000000000e+00 1.204166953419e-09 0.000000000000e+00 
6.842105263158e-01 3.892178045087e+02 9.543963761047e+04 9.505041980597e+04 9.998372340054e-01 1.627659945680e-04 -1.686093761033e-05 0.000000000000e+00 1.043912223686e-09 0.000000000000e+00 
7.368421052631e-01 5.761826095208e+02 9.514301433362e+04 9.456683172410e+04 9.997621397892e-01 2.378602108147e-04 -1.669561072770e-05 0.000000000000e+00 8.563666669972e-10 0.000000000000e+00 
7.894736842105e-01 8.238660092056e+02 9.490677700280e+04 9.408291099359e+04 9.995950811650e-01 4.049188350053e-04 -1.644291039025e-05 0.000000000000e+00 5.717951564891e-10 0.000000000000e+00 
8.421052631579e-01 1.187743720806e+03 9.478610345215e+04 9.359835973135e+04 9.989542405638e-01 1.045759436210e-03 -1.579729467751e-05 0.000000000000e+00 -1.545814439095e-10 0.000000000000e+00 
8.947368421053e-01 1.889654460313e+03 9.500165604189e+04 9.311200158157e+04 9.964509429983e-01 3.549057001743e-03 -1.401437822454e-05 0.000000000000e+00 -2.176039135290e-09 0.000000000000e+00 
9.473684210526e-01 3.508252207054e+03 9.612900906180e+04 9.262075685475e+04 9.721182883019e-01 2.788171169808e-02 -6.940625594015e-06 0.000000000000e+00 -1.059136199510e-08 0.000000000000e+00 
1.000000000000e+00 9.218004581437e+03 1.013250000000e+05 9.210699541856e+04 9.497720474439e-01 5.022795255613e-02 -1.170072788510e-06 0.000000000000e+00 -1.752542887043e-08 0.000000000000e+00 
 TITLE = "Profiles along polylines"
 VARIABLES = "DIST" "PRESSURE1" "PRESSURE2" "PRESSURE_W" "SATURATION1" SATURATION2 "VELOCITY_X1" "VELOCITY_Y1" "VELOCITY_X2" "VELOCITY_Y2" 
 ZONE T="TIME=3.000000000000e+01"
0.000000000000e+00 0.000000000000e+00 1.013250000000e+05 1.013250000000e+05 9.999974648248e-01 2.535175202656e-06 -1.506698913715e-05 0.000000000000e+00 1.629152630335e-09 0.000000000000e+00 
5.263157894737e-02 1.003341021070e+01 1.008480881271e+05 1.008380547169e+05 9.999957359315e-01 4.264068490967e-06 -1.506572805734e-05 0.000000000000e+00 1.627603452241e-09 0.000000000000e+00 
1.052631578947e-01 1.870151517642e+01 1.003698062468e+05 1.003511047316e+05 9.999924146652e-01 7.585334831584e-06 -1.506180692806e-05 0.000000000000e+00 1.622880311338e-09 0.000000000000e+00 
1.578947368421e-01 2.697166616285e+01 9.989111623911e+04 9.986414457295e+04 9.999891563305e-01 1.084366950521e-05 -1.505480142147e-05 0.000000000000e+00 1.614551456425e-09 0.000000000000e+00 
2.105263157895e-01 3.602327403971e+01 9.941319095301e+04 9.937716767897e+04 9.999854843688e-01 1.451563117438e-05 -1.504396143351e-05 0.000000000000e+00 1.601733091224e-09 0.000000000000e+00 
2.631578947368e-01 4.737567949698e+01 9.893754139226e+04 9.889016571276e+04 9.999807827775e-01 1.921722245424e-05 -1.502815592844e-05 0.000000000000e+00 1.583138238033e-09 0.000000000000e+00 
3.157894736842e-01 6.303604756230e+01 9.846616382594e+04 9.840312777838e+04 9.999742400452e-01 2.575995475318e-05 -1.500583424955e-05 0.000000000000e+00 1.557006105100e-09 0.000000000000e+00 
3.684210526316e-01 8.565736401818e+01 9.800169695638e+04 9.791603959236e+04 9.999647914990e-01 3.520850104044e-05 -1.497503377202e-05 0.000000000000e+00 1.521118003109e-09 0.000000000000e+00 
4.210526315789e-01 1.186838358441e+02 9.754756657158e+04 9.742888273574e+04 9.999510693561e-01 4.893064391853e-05 -1.493346803558e-05 0.000000000000e+00 1.472904311730e-09 0.000000000000e+00 
4.736842105263e-01 1.664491492372e+02 9.710808332313e+04 9.694163417389e+04 9.999313732484e-01 6.862675156971e-05 -1.487871563003e-05 0.000000000000e+00 1.409662628557e-09 0.000000000000e+00 
5.263157894737e-01 2.341896950452e+02 9.668845594145e+04 9.645426624640e+04 9.999036731671e-01 9.632683290939e-05 -1.480848852590e-05 0.000000000000e+00 1.328859243039e-09 0.000000000000e+00 
5.789473684210e-01 3.279522920856e+02 9.629469952165e+04 9.596674722956e+04 9.998656473737e-01 1.343526263036e-04 -1.472088381213e-05 0.000000000000e+00 1.228402077913e-09 0.000000000000e+00 
6.315789473684e-01 4.544259080666e+02 9.593346820714e+04 9.547904229907e+04 9.998147370896e-01 1.852629104317e-04 -1.461443518387e-05 0.000000000000e+00 1.106677245580e-09 0.000000000000e+00 
6.842105263158e-01 6.208073324159e+02 9.561192161435e+04 9.499111428193e+04 9.997481722629e-01 2.518277370878e-04 -1.448775176236e-05 0.000000000000e+00 9.621128300739e-10 0.000000000000e+00 
7.368421052631e-01 8.348828499693e+02 9.533780605191e+04 9.450292320194e+04 9.996357449832e-01 3.642550168381e-04 -1.433838440787e-05 0.000000000000e+00 7.922037794748e-10 0.000000000000e+00 
7.894736842105e-01 1.105481779311e+03 9.511990758097e+04 9.401442580166e+04 9.992164697503e-01 7.835302496892e-04 -1.398303261389e-05 0.000000000000e+00 3.902795962753e-10 0.000000000000e+00 
8.421052631579e-01 1.569568723804e+03 9.509446465199e+04 9.352489592818e+04 9.981603520578e-01 1.839647942218e-03 -1.314114214414e-05 0.000000000000e+00 -5.648508497084e-10 0.000000000000e+00 
8.947368421053e-01 2.435357335788e+03 9.546858056782e+04 9.303322323203e+04 9.942509273618e-01 5.749072638155e-03 -1.123534733275e-05 0.000000000000e+00 -2.744014526401e-09 0.000000000000e+00 
9.473684210526e-01 4.242804233569e+03 9.677937516218e+04 9.253657092861e+04 9.681808877446e-01 3.181911225536e-02 -5.304081110276e-06 0.000000000000e+00 -9.821864545541e-09 0.000000000000e+00 
1.000000000000e+00 9.303175213542e+03 1.013250000000e+05 9.202182478646e+04 9.453085587085e-01 5.469144129148e-02 -7.112925138479e-07 0.000000000000e+00 -1.536545749765e-08 0.000000000000e+00 
 TITLE = "Profiles along polylines"
 VARIABLES = "DIST" "PRESSURE1" "PRESSURE2" "PRESSURE_W" "SATURATION1" SATURATION2 "VELOCITY_X1" "VELOCITY_Y1" "VELOCITY_X2" "VELOCITY_Y2" 
 ZONE T="TIME=6.000000000000e+01"
0.000000000000e+00 0.000000000000e+00 1.013250000000e+05 1.013250000000e+05 9.999917559318e-01 8.244068156249e-06 -1.148349325679e-05 0.000000000000e+00 1.575912174181e-09 0.000000000000e+00 
5.263157894737e-02 3.262737720448e+01 1.008636969544e+05 1.008310695772e+05 9.999855816732e-01 1.441832682536e-05 -1.148060956166e-05 0.000000000000e+00 1.572429758565e-09 0.000000000000e+00 
1.052631578947e-01 6.518515903116e+01 1.004023136539e+05 1.003371284949e+05 9.999729831211e-01 2.701687893636e-05 -1.147188905497e-05 0.000000000000e+00 1.561987515613e-09 0.000000000000e+00 
1.578947368421e-01 9.975685339465e+01 9.994292211566e+04 9.984316526226e+04 9.999594777821e-01 4.052221794271e-05 -1.145715833904e-05 0.000000000000e+00 1.544471799186e-09 0.000000000000e+00 
2.105263157895e-01 1.385200199415e+02 9.948768804026e+04 9.934916802032e+04 9.999442328318e-01 5.576716815969e-05 -1.143619360022e-05 0.000000000000e+00 1.519652365808e-09 0.000000000000e+00 
2.631578947368e-01 1.837586682129e+02 9.903888314976e+04 9.885512448155e+04 9.999263768351e-01 7.362316486992e-05 -1.140876736168e-05 0.000000000000e+00 1.487320429256e-09 0.000000000000e+00 
3.157894736842e-01 2.378557266871e+02 9.859887770527e+04 9.836102197858e+04 9.999050040886e-01 9.499591144246e-05 -1.137470687027e-05 0.000000000000e+00 1.447330477130e-09 0.000000000000e+00 
3.684210526316e-01 3.032637646771e+02 9.817011139515e+04 9.786684763048e+04 9.998791864383e-01 1.208135616819e-04 -1.133394700765e-05 0.000000000000e+00 1.399659561517e-09 0.000000000000e+00 
4.210526315789e-01 3.824591340191e+02 9.775504773016e+04 9.737258859614e+04 9.998479897289e-01 1.520102710798e-04 -1.128655318230e-05 0.000000000000e+00 1.344430548483e-09 0.000000000000e+00 
4.736842105263e-01 4.778951978507e+02 9.735612752574e+04 9.687823232789e+04 9.998104881064e-01 1.895118936233e-04 -1.123268304485e-05 0.000000000000e+00 1.281864213813e-09 0.000000000000e+00 
5.263157894737e-01 5.919822017138e+02 9.697574887562e+04 9.638376667391e+04 9.997657655049e-01 2.342344951128e-04 -1.117246025438e-05 0.000000000000e+00 1.212130643787e-09 0.000000000000e+00 
5.789473684210e-01 7.271290848855e+02 9.661630872390e+04 9.588917963901e+04 9.997128922133e-01 2.871077867139e-04 -1.110575993388e-05 0.000000000000e+00 1.135100210607e-09 0.000000000000e+00 
6.315789473684e-01 8.858763127946e+02 9.628033496461e+04 9.539445865181e+04 9.996328875657e-01 3.671124343156e-04 -1.103180244994e-05 0.000000000000e+00 1.050052318657e-09 0.000000000000e+00 
6.842105263158e-01 1.071119093065e+03 9.597070946709e+04 9.489959037402e+04 9.993727268812e-01 6.272731187787e-04 -1.086714285500e-05 0.000000000000e+00 8.623500642792e-10 0.000000000000e+00 
7.368421052631e-01 1.344189098086e+03 9.574843916172e+04 9.440425006363e+04 9.988134693121e-01 1.186530687866e-03 -1.049689082964e-05 0.000000000000e+00 4.402149502652e-10 0.000000000000e+00 
7.894736842105e-01 1.790156803569e+03 9.569814121486e+04 9.390798441129e+04 9.978437628197e-01 2.156237180266e-03 -9.952722543257e-06 0.000000000000e+00 -1.817067725328e-10 0.000000000000e+00 
8.421052631579e-01 2.448638215988e+03 9.585923467481e+04 9.341059645882e+04 9.954576948589e-01 4.542305141134e-03 -9.082503494648e-06 0.000000000000e+00 -1.179394980933e-09 0.000000000000e+00 
8.947368421053e-01 3.510421491031e+03 9.642151853079e+04 9.291109703976e+04 9.880001111386e-01 1.199988886139e-02 -7.195921018892e-06 0.000000000000e+00 -3.365110074607e-09 0.000000000000e+00 
9.473684210526e-01 5.498498488881e+03 9.790518619501e+04 9.240668770613e+04 9.598207567038e-01 4.017924329620e-02 -3.125743526785e-06 0.000000000000e+00 -8.249924333651e-09 0.000000000000e+00 
1.000000000000e+00 9.433791893646e+03 1.013250000000e+05 9.189120810635e+04 9.373321155875e-01 6.266788441247e-02 -3.715564512787e-07 0.000000000000e+00 -1.160388719566e-08 0.000000000000e+00 
 ZONE T="TIME=1.200000000000e+02"
0.000000000000e+00 0.000000000000e+00 1.013250000000e+05 1.013250000000e+05 9.999781541577e-01 2.184584234399e-05 -8.270890248787e-06 0.000000000000e+00 1.413620456297e-09 0.000000000000e+00 
5.263157894737e-02 8.645883622087e+01 1.009112663833e+05 1.008248075471e+05 9.999617990210e-01 3.820097903928e-05 -8.268820391103e-06 0.000000000000e+00 1.411117624050e-09 0.000000000000e+00 
1.052631578947e-01 1.726861872875e+02 1.004972943243e+05 1.003246081370e+05 9.999289510580e-01 7.104894200916e-05 -8.262643738952e-06 0.000000000000e+00 1.403706904365e-09 0.000000000000e+00 
1.578947368421e-01 2.601191433042e+02 1.000845129787e+05 9.982439383536e+04 9.998955607534e-01 1.044392466043e-04 -8.252472930136e-06 0.000000000000e+00 1.391578605890e-09 0.000000000000e+00 
2.105263157895e-01 3.501522628311e+02 9.967430929801e+04 9.932415703518e+04 9.998611056220e-01 1.388943779772e-04 -8.238504552184e-06 0.000000000000e+00 1.374978952842e-09 0.000000000000e+00 
2.631578947368e-01 4.441108202323e+02 9.926800142100e+04 9.882389060077e+04 9.998250896510e-01 1.749103489752e-04 -8.220992580662e-06 0.000000000000e+00 1.354237251636e-09 0.000000000000e+00 
3.157894736842e-01 5.432357441587e+02 9.886682368981e+04 9.832358794565e+04 9.997870473424e-01 2.129526576131e-04 -8.200204292432e-06 0.000000000000e+00 1.329694333702e-09 0.000000000000e+00 
3.684210526316e-01 6.486875880867e+02 9.847193059236e+04 9.782324300427e+04 9.997465401130e-01 2.534598869696e-04 -8.176356550079e-06 0.000000000000e+00 1.301627216137e-09 0.000000000000e+00 