 TITLE = "Time curves in points"
 VARIABLES = "TIME "  "PRESSURE1"  "PRESSURE2"  "PRESSURE_W"  "SATURATION1" SATURATION2  "VELOCITY_X1"  "VELOCITY_Y1"  "VELOCITY_X2"  "VELOCITY_Y2" 
 ZONE T="POINT=POINT0"
0.000000000000e+00 0.000000000000e+00 1.013250000000e+05 1.013250000000e+05 1.000000000000e+00 2.220446049250e-16 0.000000000000e+00 0.000000000000e+00 0.000000000000e+00 0.000000000000e+00 
1.000000000000e-03 0.000000000000e+00 1.013250000000e+05 1.013250000000e+05 1.000000000000e+00 1.854072451124e-14 -2.625029828985e-04 0.000000000000e+00 1.369942147744e-11 0.000000000000e+00 
2.000000000000e-03 0.000000000000e+00 1.013250000000e+05 1.013250000000e+05 9.999999999999e-01 1.054711873394e-13 -2.601602169415e-04 0.000000000000e+00 2.936847583701e-11 0.000000000000e+00 
3.000000000000e-03 0.000000000000e+00 1.013250000000e+05 1.013250000000e+05 9.999999999997e-01 3.085309785433e-13 -2.578414603228e-04 0.000000000000e+00 4.487601957721e-11 0.000000000000e+00 
4.000000000000e-03 0.000000000000e+00 1.013250000000e+05 1.013250000000e+05 9.999999999993e-01 6.749045766696e-13 -2.555463839419e-04 0.000000000000e+00 6.022428152139e-11 0.000000000000e+00 
5.000000000000e-03 0.000000000000e+00 1.013250000000e+05 1.013250000000e+05 9.999999999988e-01 1.249333969611e-12 -2.532748298421e-04 0.000000000000e+00 7.541434528842e-11 0.000000000000e+00 
6.000000000000e-03 0.000000000000e+00 1.013250000000e+05 1.013250000000e+05 9.999999999979e-01 2.075895011444e-12 -2.510264147326e-04 0.000000000000e+00 9.044880066952e-11 0.000000000000e+00 
7.000000000000e-03 0.000000000000e+00 1.013250000000e+05 1.013250000000e+05 9.999999999968e-01 3.196776177106e-12 -2.488010388174e-04 0.000000000000e+00 1.053283411307e-10 0.000000000000e+00 
8.000000000000e-03 0.000000000000e+00 1.013250000000e+05 1.013250000000e+05 9.999999999953e-01 4.653388785414e-12 -2.465982744711e-04 0.000000000000e+00 1.200558515130e-10 0.000000000000e+00 
9.000000000000e-03 0.000000000000e+00 1.013250000000e+05 1.013250000000e+05 9.999999999935e-01 6.485145753743e-12 -2.444180758369e-04 0.000000000000e+00 1.346316634963e-10 0.000000000000e+00 
1.000000000000e-02 0.000000000000e+00 1.013250000000e+05 1.013250000000e+05 9.999999999913e-01 8.730460798745e-12 -2.422600466515e-04 0.000000000000e+00 1.490584509165e-10 0.000000000000e+00 
2.000000000000e-02 0.000000000000e+00 1.013250000000e+05 1.013250000000e+05 9.999999999123e-01 8.771650072958e-11 -2.226864325881e-04 0.000000000000e+00 2.798739948211e-10 0.000000000000e+00 
3.000000000000e-02 0.000000000000e+00 1.013250000000e+05 1.013250000000e+05 9.999999997891e-01 2.108522245692e-10 -2.185788858188e-04 0.000000000000e+00 3.073221596925e-10 0.000000000000e+00 
4.000000000000e-02 0.000000000000e+00 1.013250000000e+05 1.013250000000e+05 9.999999996477e-01 3.523445979425e-10 -2.146208493471e-04 0.000000000000e+00 3.337621040812e-10 0.000000000000e+00 
5.000000000000e-02 0.000000000000e+00 1.013250000000e+05 1.013250000000e+05 9.999999995186e-01 4.813708320839e-10 -2.107208202867e-04 0.000000000000e+00 3.598061757491e-10 0.000000000000e+00 
6.000000000000e-02 0.000000000000e+00 1.013250000000e+05 1.013250000000e+05 9.999999993711e-01 6.289149201422e-10 -2.069200713770e-04 0.000000000000e+00 3.851903263838e-10 0.000000000000e+00 
7.000000000000e-02 0.000000000000e+00 1.013250000000e+05 1.013250000000e+05 9.999999992042e-01 7.957502434763e-10 -2.031994346466e-04 0.000000000000e+00 4.100367211748e-10 0.000000000000e+00 
8.000000000000e-02 0.000000000000e+00 1.013250000000e+05 1.013250000000e+05 9.999999990174e-01 9.825966706956e-10 -1.995568755913e-04 0.000000000000e+00 4.343590895419e-10 0.000000000000e+00 
9.000000000000e-02 0.000000000000e+00 1.013250000000e+05 1.013250000000e+05 9.999999988099e-01 1.190083254166e-09 -1.959907516890e-04 0.000000000000e+00 4.581685369669e-10 0.000000000000e+00 
1.000000000000e-01 0.000000000000e+00 1.013250000000e+05 1.013250000000e+05 9.999999985812e-01 1.418788087015e-09 -1.924992360778e-04 0.000000000000e+00 4.814773928394e-10 0.000000000000e+00 
2.000000000000e-01 0.000000000000e+00 1.013250000000e+05 1.013250000000e+05 9.999999942283e-01 5.771733979643e-09 -1.636909028549e-04 0.000000000000e+00 6.736841121761e-10 0.000000000000e+00 
3.000000000000e-01 0.000000000000e+00 1.013250000000e+05 1.013250000000e+05 9.999999883914e-01 1.160855989113e-08 -1.462179130837e-04 0.000000000000e+00 7.901496008803e-10 0.000000000000e+00 
4.000000000000e-01 0.000000000000e+00 1.013250000000e+05 1.013250000000e+05 9.999999813650e-01 1.863500620480e-08 -1.330975603342e-04 0.000000000000e+00 8.775324696302e-10 0.000000000000e+00 
5.000000000000e-01 0.000000000000e+00 1.013250000000e+05 1.013250000000e+05 9.999999734086e-01 2.659138276240e-08 -1.229430131832e-04 0.000000000000e+00 9.451083777442e-10 0.000000000000e+00 
6.000000000000e-01 0.000000000000e+00 1.013250000000e+05 1.013250000000e+05 9.999999647152e-01 3.528477243719e-08 -1.147274687176e-04 0.000000000000e+00 9.997372201585e-10 0.000000000000e+00 
7.000000000000e-01 0.000000000000e+00 1.013250000000e+05 1.013250000000e+05 9.999999554046e-01 4.459539337809e-08 -1.076733141142e-04 0.000000000000e+00 1.046609227960e-09 0.000000000000e+00 
8.000000000000e-01 0.000000000000e+00 1.013250000000e+05 1.013250000000e+05 9.999999455809e-01 5.441908013104e-08 -1.015559904986e-04 0.000000000000e+00 1.087225785136e-09 0.000000000000e+00 
9.000000000000e-01 0.000000000000e+00 1.013250000000e+05 1.013250000000e+05 9.999999353341e-01 6.466586000009e-08 -9.620694831064e-05 0.000000000000e+00 1.122713588394e-09 0.000000000000e+00 
1.000000000000e+00 0.000000000000e+00 1.013250000000e+05 1.013250000000e+05 9.999999247361e-01 7.526386625045e-08 -9.145971207770e-05 0.000000000000e+00 1.154184302245e-09 0.000000000000e+00 
2.000000000000e+00 0.000000000000e+00 1.013250000000e+05 1.013250000000e+05 9.999998110279e-01 1.889720616655e-07 -6.716362551158e-05 0.000000000000e+00 1.314384544992e-09 0.000000000000e+00 
3.000000000000e+00 0.000000000000e+00 1.013250000000e+05 1.013250000000e+05 9.999996977893e-01 3.022106762618e-07 -5.268562894939e-05 0.000000000000e+00 1.409184926573e-09 0.000000000000e+00 
4.000000000000e+00 0.000000000000e+00 1.013250000000e+05 1.013250000000e+05 9.999995884162e-01 4.115837524132e-07 -4.331394219488e-05 0.000000000000e+00 1.470043143975e-09 0.000000000000e+00 
5.000000000000e+00 0.000000000000e+00 1.013250000000e+05 1.013250000000e+05 9.999994845351e-01 5.154648750061e-07 -3.717000940453e-05 0.000000000000e+00 1.509498241321e-09 0.000000000000e+00 
6.000000000000e+00 0.000000000000e+00 1.013250000000e+05 1.013250000000e+05 9.999993863409e-01 6.136591099715e-07 -3.289075091382e-05 0.000000000000e+00 1.536625836438e-09 0.000000000000e+00 
7.000000000000e+00 0.000000000000e+00 1.013250000000e+05 1.013250000000e+05 9.999992933315e-01 7.066685061563e-07 -2.966569467944e-05 0.000000000000e+00 1.556811601709e-09 0.000000000000e+00 
8.000000000000e+00 0.000000000000e+00 1.013250000000e+05 1.013250000000e+05 9.999992050194e-01 7.949805518326e-07 -2.719580595692e-05 0.000000000000e+00 1.572038685998e-09 0.000000000000e+00 
9.000000000000e+00 0.000000000000e+00 1.013250000000e+05 1.013250000000e+05 9.999991209205e-01 8.790794956415e-07 -2.527329131173e-05 0.000000000000e+00 1.583682857554e-09 0.000000000000e+00 
1.000000000000e+01 0.000000000000e+00 1.013250000000e+05 1.013250000000e+05 9.999990405534e-01 9.594466143792e-07 -2.375146543436e-05 0.000000000000e+00 1.592713244701e-09 0.000000000000e+00 
1.100000000000e+01 0.000000000000e+00 1.013250000000e+05 1.013250000000e+05 9.999989634519e-01 1.036548148314e-06 -2.253292018470e-05 0.000000000000e+00 1.599771375629e-09 0.000000000000e+00 
1.200000000000e+01 0.000000000000e+00 1.013250000000e+05 1.013250000000e+05 9.999988891363e-01 1.110863680598e-06 -2.153511893405e-05 0.000000000000e+00 1.605399597053e-09 0.000000000000e+00 
1.300000000000e+01 0.000000000000e+00 1.013250000000e+05 1.013250000000e+05 9.999988171280e-01 1.182872033323e-06 -2.070471203675e-05 0.000000000000e+00 1.609946172008e-09 0.000000000000e+00 
1.400000000000e+01 0.000000000000e+00 1.013250000000e+05 1.013250000000e+05 9.999987469622e-01 1.253037829385e-06 -2.001395400663e-05 0.000000000000e+00 1.613589387433e-09 0.000000000000e+00 
1.500000000000e+01 0.000000000000e+00 1.013250000000e+05 1.013250000000e+05 9.999986781420e-01 1.321858001058e-06 -1.942171444768e-05 0.000000000000e+00 1.616595912277e-09 0.000000000000e+00 
1.600000000000e+01 0.000000000000e+00 1.013250000000e+05 1.013250000000e+05 9.999986101663e-01 1.389833658938e-06 -1.890871280977e-05 0.000000000000e+00 1.619087165887e-09 0.000000000000e+00 
1.700000000000e+01 0.000000000000e+00 1.013250000000e+05 1.013250000000e+05 9.999985425229e-01 1.457477137867e-06 -1.845792918926e-05 0.000000000000e+00 1.621169377585e-09 0.000000000000e+00 
1.800000000000e+01 0.000000000000e+00 1.013250000000e+05 1.013250000000e+05 9.999984746908e-01 1.525309240247e-06 -1.805647826425e-05 0.000000000000e+00 1.622921174221e-09 0.000000000000e+00 
1.900000000000e+01 0.000000000000e+00 1.013250000000e+05 1.013250000000e+05 9.999984061449e-01 1.593855079474e-06 -1.769498342253e-05 0.000000000000e+00 1.624397798872e-09 0.000000000000e+00 
2.000000000000e+01 0.000000000000e+00 1.013250000000e+05 1.013250000000e+05 9.999983363637e-01 1.663636295723e-06 -1.736844332253e-05 0.000000000000e+00 1.625625457854e-09 0.000000000000e+00 
2.100000000000e+01 0.000000000000e+00 1.013250000000e+05 1.013250000000e+05 9.999982648245e-01 1.735175536366e-06 -1.706824023565e-05 0.000000000000e+00 1.626654379747e-09 0.000000000000e+00 
2.200000000000e+01 0.000000000000e+00 1.013250000000e+05 1.013250000000e+05 9.999981910161e-01 1.808983943974e-06 -1.679081152298e-05 0.000000000000e+00 1.627501347539e-09 0.000000000000e+00 
2.300000000000e+01 0.000000000000e+00 1.013250000000e+05 1.013250000000e+05 9.999981144422e-01 1.885557838754e-06 -1.653250080677e-05 0.000000000000e+00 1.628183964577e-09 0.000000000000e+00 
2.400000000000e+01 0.000000000000e+00 1.013250000000e+05 1.013250000000e+05 9.999980346257e-01 1.965374309965e-06 -1.628970062737e-05 0.000000000000e+00 1.628719765136e-09 0.000000000000e+00 
2.500000000000e+01 0.000000000000e+00 1.013250000000e+05 1.013250000000e+05 9.999979511165e-01 2.048883452677e-06 -1.606030426763e-05 0.000000000000e+00 1.629116677126e-09 0.000000000000e+00 
2.600000000000e+01 0.000000000000e+00 1.013250000000e+05 1.013250000000e+05 9.999978634960e-01 2.136504021033e-06 -1.584271755397e-05 0.000000000000e+00 1.629379644718e-09 0.000000000000e+00 
2.700000000000e+01 0.000000000000e+00 1.013250000000e+05 1.013250000000e+05 9.999977713805e-01 2.228619469635e-06 -1.563568232578e-05 0.000000000000e+00 1.629511855079e-09 0.000000000000e+00 
2.800000000000e+01 0.000000000000e+00 1.013250000000e+05 1.013250000000e+05 9.999976744257e-01 2.325574287587e-06 -1.543794442845e-05 0.000000000000e+00 1.629516993975e-09 0.000000000000e+00 
2.900000000000e+01 0.000000000000e+00 1.013250000000e+05 1.013250000000e+05 9.999975723278e-01 2.427672233685e-06 -1.524861987088e-05 0.000000000000e+00 1.629396836756e-09 0.000000000000e+00 
3.000000000000e+01 0.000000000000e+00 1.013250000000e+05 1.013250000000e+05 9.999974648248e-01 2.535175202656e-06 -1.506698913715e-05 0.000000000000e+00 1.629152630335e-09 0.000000000000e+00 
3.100000000000e+01 0.000000000000e+00 1.013250000000e+05 1.013250000000e+05 9.999973516983e-01 2.648301742680e-06 -1.489348657889e-05 0.000000000000e+00 1.628778536927e-09 0.000000000000e+00 
3.200000000000e+01 0.000000000000e+00 1.013250000000e+05 1.013250000000e+05 9.999972327692e-01 2.767230816492e-06 -1.472562994224e-05 0.000000000000e+00 1.628288636508e-09 0.000000000000e+00 
3.300000000000e+01 0.000000000000e+00 1.013250000000e+05 1.013250000000e+05 9.999971078962e-01 2.892103848406e-06 -1.456291399064e-05 0.000000000000e+00 1.627684376633e-09 0.000000000000e+00 
3.400000000000e+01 0.000000000000e+00 1.013250000000e+05 1.013250000000e+05 9.999969769779e-01 3.023022055237e-06 -1.440521431159e-05 0.000000000000e+00 1.626965216657e-09 0.000000000000e+00 
3.500000000000e+01 0.000000000000e+00 1.013250000000e+05 1.013250000000e+05 9.999968399544e-01 3.160045558115e-06 -1.425422135772e-05 0.000000000000e+00 1.626119107744e-09 0.000000000000e+00 
3.600000000000e+01 0.000000000000e+00 1.013250000000e+05 1.013250000000e+05 9.999966967963e-01 3.303203665928e-06 -1.410676539393e-05 0.000000000000e+00 1.625166721164e-09 0.000000000000e+00 
3.700000000000e+01 0.000000000000e+00 1.013250000000e+05 1.013250000000e+05 9.999965475115e-01 3.452488493094e-06 -1.396353589573e-05 0.000000000000e+00 1.624103578760e-09 0.000000000000e+00 
3.800000000000e+01 0.000000000000e+00 1.013250000000e+05 1.013250000000e+05 9.999963921420e-01 3.607857987031e-06 -1.382428773530e-05 0.000000000000e+00 1.622931875056e-09 0.000000000000e+00 
3.900000000000e+01 0.000000000000e+00 1.013250000000e+05 1.013250000000e+05 9.999962307613e-01 3.769238698159e-06 -1.368880118480e-05 0.000000000000e+00 1.621654059798e-09 0.000000000000e+00 
4.000000000000e+01 0.000000000000e+00 1.013250000000e+05 1.013250000000e+05 9.999960634722e-01 3.936527793291e-06 -1.355704722138e-05 0.000000000000e+00 1.620271711373e-09 0.000000000000e+00 
4.100000000000e+01 0.000000000000e+00 1.013250000000e+05 1.013250000000e+05 9.999958904032e-01 4.109596760116e-06 -1.342864423934e-05 0.000000000000e+00 1.618789098020e-09 0.000000000000e+00 
4.200000000000e+01 0.000000000000e+00 1.013250000000e+05 1.013250000000e+05 9.999957117047e-01 4.288295256338e-06 -1.330348691340e-05 0.000000000000e+00 1.617208946019e-09 0.000000000000e+00 
4.300000000000e+01 0.000000000000e+00 1.013250000000e+05 1.013250000000e+05 9.999955275450e-01 4.472454992910e-06 -1.318138832489e-05 0.000000000000e+00 1.615534766555e-09 0.000000000000e+00 
4.400000000000e+01 0.000000000000e+00 1.013250000000e+05 1.013250000000e+05 9.999953381060e-01 4.661894017377e-06 -1.306216809440e-05 0.000000000000e+00 1.613770211731e-09 0.000000000000e+00 
4.500000000000e+01 0.000000000000e+00 1.013250000000e+05 1.013250000000e+05 9.999951435790e-01 4.856420976362e-06 -1.294581134434e-05 0.000000000000e+00 1.611917960577e-09 0.000000000000e+00 
4.600000000000e+01 0.000000000000e+00 1.013250000000e+05 1.013250000000e+05 9.999949441625e-01 5.055837480450e-06 -1.283306135092e-05 0.000000000000e+00 1.609975747500e-09 0.000000000000e+00 
4.700000000000e+01 0.000000000000e+00 1.013250000000e+05 1.013250000000e+05 9.999947400551e-01 5.259944864999e-06 -1.272242257010e-05 0.000000000000e+00 1.607956192094e-09 0.000000000000e+00 
4.800000000000e+01 0.000000000000e+00 1.013250000000e+05 1.013250000000e+05 9.999945314580e-01 5.468542039644e-06 -1.261443269655e-05 0.000000000000e+00 1.605858432048e-09 0.000000000000e+00 
4.900000000000e+01 0.000000000000e+00 1.013250000000e+05 1.013250000000e+05 9.999943185739e-01 5.681426093362e-06 -1.250877493585e-05 0.000000000000e+00 1.603687309122e-09 0.000000000000e+00 
5.000000000000e+01 0.000000000000e+00 1.013250000000e+05 1.013250000000e+05 9.999941016082e-01 5.898391763459e-06 -1.240554531929e-05 0.000000000000e+00 1.601444953170e-09 0.000000000000e+00 
5.100000000000e+01 0.000000000000e+00 1.013250000000e+05 1.013250000000e+05 9.999938807707e-01 6.119229250867e-06 -1.230458752320e-05 0.000000000000e+00 1.599135232366e-09 0.000000000000e+00 
5.200000000000e+01 0.000000000000e+00 1.013250000000e+05 1.013250000000e+05 9.999936562764e-01 6.343723572333e-06 -1.220573315585e-05 0.000000000000e+00 1.596762165186e-09 0.000000000000e+00 
5.300000000000e+01 0.000000000000e+00 1.013250000000e+05 1.013250000000e+05 9.999934283466e-01 6.571653364817e-06 -1.210894597587e-05 0.000000000000e+00 1.594328978046e-09 0.000000000000e+00 
5.400000000000e+01 0.000000000000e+00 1.013250000000e+05 1.013250000000e+05 9.999931972084e-01 6.802791600702e-06 -1.201415641368e-05 0.000000000000e+00 1.591839195456e-09 0.000000000000e+00 
5.500000000000e+01 0.000000000000e+00 1.013250000000e+05 1.013250000000e+05 9.999929630929e-01 7.036907050284e-06 -1.192127901431e-05 0.000000000000e+00 1.589296504439e-09 0.000000000000e+00 
5.600000000000e+01 0.000000000000e+00 1.013250000000e+05 1.013250000000e+05 9.999927262338e-01 7.273766249871e-06 -1.183036990274e-05 0.000000000000e+00 1.586703681017e-09 0.000000000000e+00 
5.700000000000e+01 0.000000000000e+00 1.013250000000e+05 1.013250000000e+05 9.999924868634e-01 7.513136627835e-06 -1.174117876551e-05 0.000000000000e+00 1.584065526307e-09 0.000000000000e+00 
5.800000000000e+01 0.000000000000e+00 1.013250000000e+05 1.013250000000e+05 9.999922452102e-01 7.754789773440e-06 -1.165365078113e-05 0.000000000000e+00 1.581385486063e-09 0.000000000000e+00 
5.900000000000e+01 0.000000000000e+00 1.013250000000e+05 1.013250000000e+05 9.999920014958e-01 7.998504184537e-06 -1.156779454111e-05 0.000000000000e+00 1.578666491283e-09 0.000000000000e+00 
6.000000000000e+01 0.000000000000e+00 1.013250000000e+05 1.013250000000e+05 9.999917559319e-01 8.244068126717e-06 -1.148354676150e-05 0.000000000000e+00 1.575911818882e-09 0.000000000000e+00 
6.100000000000e+01 0.000000000000e+00 1.013250000000e+05 1.013250000000e+05 9.999915087180e-01 8.491281992873e-06 -1.140080573419e-05 0.000000000000e+00 1.573124837803e-09 0.000000000000e+00 
6.200000000000e+01 0.000000000000e+00 1.013250000000e+05 1.013250000000e+05 9.999912600410e-01 8.739959011184e-06 -1.132005629702e-05 0.000000000000e+00 1.570304844293e-09 0.000000000000e+00 
6.300000000000e+01 0.000000000000e+00 1.013250000000e+05 1.013250000000e+05 9.999910100746e-01 8.989925361691e-06 -1.124124771268e-05 0.000000000000e+00 1.567454520304e-09 0.000000000000e+00 
6.400000000000e+01 0.000000000000e+00 1.013250000000e+05 1.013250000000e+05 9.999907589808e-01 9.241019156780e-06 -1.116329082484e-05 0.000000000000e+00 1.564583291061e-09 0.000000000000e+00 
6.500000000000e+01 0.000000000000e+00 1.013250000000e+05 1.013250000000e+05 9.999905069168e-01 9.493083170997e-06 -1.108664929740e-05 0.000000000000e+00 1.561690195277e-09 0.000000000000e+00 
6.600000000000e+01 0.000000000000e+00 1.013250000000e+05 1.013250000000e+05 9.999902540386e-01 9.745961404684e-06 -1.101129283606e-05 0.000000000000e+00 1.558777539096e-09 0.000000000000e+00 
6.700000000000e+01 0.000000000000e+00 1.013250000000e+05 1.013250000000e+05 9.999900005049e-01 9.999495102497e-06 -1.093716183249e-05 0.000000000000e+00 1.555847860876e-09 0.000000000000e+00 
6.800000000000e+01 0.000000000000e+00 1.013250000000e+05 1.013250000000e+05 9.999897464788e-01 1.025352120809e-05 -1.086427302105e-05 0.000000000000e+00 1.552903249731e-09 0.000000000000e+00 
6.900000000000e+01 0.000000000000e+00 1.013250000000e+05 1.013250000000e+05 9.999894921285e-01 1.050787150336e-05 -1.079257509199e-05 0.000000000000e+00 1.549946316739e-09 0.000000000000e+00 
7.000000000000e+01 0.000000000000e+00 1.013250000000e+05 1.013250000000e+05 9.999892376251e-01 1.076237491759e-05 -1.072207306611e-05 0.000000000000e+00 1.546979337223e-09 0.000000000000e+00 
7.100000000000e+01 0.000000000000e+00 1.013250000000e+05 1.013250000000e+05 9.999889831401e-01 1.101685987459e-05 -1.065273406411e-05 0.000000000000e+00 1.544004845399e-09 0.000000000000e+00 
7.200000000000e+01 0.000000000000e+00 1.013250000000e+05 1.013250000000e+05 9.999887288419e-01 1.127115809441e-05 -1.058450208066e-05 0.000000000000e+00 1.541025484740e-09 0.000000000000e+00 
7.300000000000e+01 0.000000000000e+00 1.013250000000e+05 1.013250000000e+05 9.999884748917e-01 1.152510829372e-05 -1.051737163072e-05 0.000000000000e+00 1.538043468702e-09 0.000000000000e+00 
7.400000000000e+01 0.000000000000e+00 1.013250000000e+05 1.013250000000e+05 9.999882214406e-01 1.177855938672e-05 -1.045140223364e-05 0.000000000000e+00 1.535060441158e-09 0.000000000000e+00 
7.500000000000e+01 0.000000000000e+00 1.013250000000e+05 1.013250000000e+05 9.999879686267e-01 1.203137330497e-05 -1.038663723948e-05 0.000000000000e+00 1.532077977780e-09 0.000000000000e+00 
7.600000000000e+01 0.000000000000e+00 1.013250000000e+05 1.013250000000e+05 9.999877165718e-01 1.228342820370e-05 -1.032299011136e-05 0.000000000000e+00 1.529098298666e-09 0.000000000000e+00 
7.700000000000e+01 0.000000000000e+00 1.013250000000e+05 1.013250000000e+05 9.999874653812e-01 1.253461881245e-05 -1.026042870827e-05 0.000000000000e+00 1.526123038609e-09 0.000000000000e+00 
7.800000000000e+01 0.000000000000e+00 1.013250000000e+05 1.013250000000e+05 9.999872151424e-01 1.278485759948e-05 -1.019894274629e-05 0.000000000000e+00 1.523153447720e-09 0.000000000000e+00 
7.900000000000e+01 0.000000000000e+00 1.013250000000e+05 1.013250000000e+05 9.999869659251e-01 1.303407493025e-05 -1.013852569092e-05 0.000000000000e+00 1.520190509630e-09 0.000000000000e+00 
8.000000000000e+01 0.000000000000e+00 1.013250000000e+05 1.013250000000e+05 9.999867177817e-01 1.328221834651e-05 -1.007913034854e-05 0.000000000000e+00 1.517235246387e-09 0.000000000000e+00 
8.100000000000e+01 0.000000000000e+00 1.013250000000e+05 1.013250000000e+05 9.999864707507e-01 1.352924927867e-05 -1.002107556301e-05 0.000000000000e+00 1.514286058732e-09 0.000000000000e+00 
8.200000000000e+01 0.000000000000e+00 1.013250000000e+05 1.013250000000e+05 9.999862248614e-01 1.377513857093e-05 -9.963837704436e-06 0.000000000000e+00 1.511346822242e-09 0.000000000000e+00 
8.300000000000e+01 0.000000000000e+00 1.013250000000e+05 1.013250000000e+05 9.999859801425e-01 1.401985748228e-05 -9.907476520164e-06 0.000000000000e+00 1.508417527909e-09 0.000000000000e+00 
8.400000000000e+01 0.000000000000e+00 1.013250000000e+05 1.013250000000e+05 9.999857366312e-01 1.426336875587e-05 -9.852070186864e-06 0.000000000000e+00 1.505498159160e-09 0.000000000000e+00 
8.500000000000e+01 0.000000000000e+00 1.013250000000e+05 1.013250000000e+05 9.999854943787e-01 1.450562133809e-05 -9.797587279015e-06 0.000000000000e+00 1.502589614440e-09 0.000000000000e+00 
8.600000000000e+01 0.000000000000e+00 1.013250000000e+05 1.013250000000e+05 9.999852534530e-01 1.474654701017e-05 -9.743986753514e-06 0.000000000000e+00 1.499693087945e-09 0.000000000000e+00 
8.700000000000e+01 0.000000000000e+00 1.013250000000e+05 1.013250000000e+05 9.999850139372e-01 1.498606279748e-05 -9.691208320231e-06 0.000000000000e+00 1.496810100925e-09 0.000000000000e+00 
8.800000000000e+01 0.000000000000e+00 1.013250000000e+05 1.013250000000e+05 9.999847759270e-01 1.522407302090e-05 -9.639046848108e-06 0.000000000000e+00 1.493943309222e-09 0.000000000000e+00 
8.900000000000e+01 0.000000000000e+00 1.013250000000e+05 1.013250000000e+05 9.999845395234e-01 1.546047655077e-05 -9.587619202261e-06 0.000000000000e+00 1.491093301484e-09 0.000000000000e+00 
9.000000000000e+01 0.000000000000e+00 1.013250000000e+05 1.013250000000e+05 9.999843048281e-01 1.569517191036e-05 -9.536811111958e-06 0.000000000000e+00 1.488262208262e-09 0.000000000000e+00 
9.100000000000e+01 0.000000000000e+00 1.013250000000e+05 1.013250000000e+05 9.999840719361e-01 1.592806394057e-05 -9.486714778166e-06 0.000000000000e+00 1.485450701748e-09 0.000000000000e+00 
9.200000000000e+01 0.000000000000e+00 1.013250000000e+05 1.013250000000e+05 9.999838409313e-01 1.615906865926e-05 -9.437226413909e-06 0.000000000000e+00 1.482660606715e-09 0.000000000000e+00 
9.300000000000e+01 0.000000000000e+00 1.013250000000e+05 1.013250000000e+05 9.999836118829e-01 1.638811714533e-05 -9.388366765676e-06 0.000000000000e+00 1.479892716379e-09 0.000000000000e+00 
9.400000000000e+01 0.000000000000e+00 1.013250000000e+05 1.013250000000e+05 9.999833848419e-01 1.661515809248e-05 -9.340142574341e-06 0.000000000000e+00 1.477147679308e-09 0.000000000000e+00 
9.500000000000e+01 0.000000000000e+00 1.013250000000e+05 1.013250000000e+05 9.999831598410e-01 1.684015897319e-05 -9.292542553494e-06 0.000000000000e+00 1.474426010506e-09 0.000000000000e+00 
9.600000000000e+01 0.000000000000e+00 1.013250000000e+05 1.013250000000e+05 9.999829368942e-01 1.706310579397e-05 -9.245549799679e-06 0.000000000000e+00 1.471728011921e-09 0.000000000000e+00 
9.700000000000e+01 0.000000000000e+00 1.013250000000e+05 1.013250000000e+05 9.999827159965e-01 1.728400345047e-05 -9.199163194327e-06 0.000000000000e+00 1.469053625630e-09 0.000000000000e+00 
9.800000000000e+01 0.000000000000e+00 1.013250000000e+05 1.013250000000e+05 9.999824971268e-01 1.750287318925e-05 -9.153272829149e-06 0.000000000000e+00 1.466403296391e-09 0.000000000000e+00 
9.900000000000e+01 0.000000000000e+00 1.013250000000e+05 1.013250000000e+05 9.999822802481e-01 1.771975190046e-05 -9.107963434473e-06 0.000000000000e+00 1.463775963277e-09 0.000000000000e+00 
1.000000000000e+02 0.000000000000e+00 1.013250000000e+05 1.013250000000e+05 9.999820653120e-01 1.793468795830e-05 -9.063748569816e-06 0.000000000000e+00 1.461167557884e-09 0.000000000000e+00 
1.010000000000e+02 0.000000000000e+00 1.013250000000e+05 1.013250000000e+05 9.999818522563e-01 1.814774366660e-05 -9.019731698473e-06 0.000000000000e+00 1.458583202558e-09 0.000000000000e+00 
1.020000000000e+02 0.000000000000e+00 1.013250000000e+05 1.013250000000e+05 9.999816410113e-01 1.835898869462e-05 -8.976222785208e-06 0.000000000000e+00 1.456019895513e-09 0.000000000000e+00 
1.030000000000e+02 0.000000000000e+00 1.013250000000e+05 1.013250000000e+05 9.999814315049e-01 1.856849512427e-05 -8.933493055882e-06 0.000000000000e+00 1.453474860026e-09 0.000000000000e+00 
1.040000000000e+02 0.000000000000e+00 1.013250000000e+05 1.013250000000e+05 9.999812236757e-01 1.877632427516e-05 -8.891065948320e-06 0.000000000000e+00 1.450950438223e-09 0.000000000000e+00 
1.050000000000e+02 0.000000000000e+00 1.013250000000e+05 1.013250000000e+05 9.999810174858e-01 1.898251419974e-05 -8.849126368348e-06 0.000000000000e+00 1.448444887041e-09 0.000000000000e+00 
1.060000000000e+02 0.000000000000e+00 1.013250000000e+05 1.013250000000e+05 9.999808129304e-01 1.918706955650e-05 -8.807578416439e-06 0.000000000000e+00 1.445958781928e-09 0.000000000000e+00 
1.070000000000e+02 0.000000000000e+00 1.013250000000e+05 1.013250000000e+05 9.999806100403e-01 1.938995972073e-05 -8.766466888098e-06 0.000000000000e+00 1.443492238976e-09 0.000000000000e+00 
1.080000000000e+02 0.000000000000e+00 1.013250000000e+05 1.013250000000e+05 9.999804088770e-01 1.959112301519e-05 -8.725795924595e-06 0.000000000000e+00 1.441046064099e-09 0.000000000000e+00 
1.090000000000e+02 0.000000000000e+00 1.013250000000e+05 1.013250000000e+05 9.999802095232e-01 1.979047678813e-05 -8.685562087923e-06 0.000000000000e+00 1.438621396842e-09 0.000000000000e+00 
1.100000000000e+02 0.000000000000e+00 1.013250000000e+05 1.013250000000e+05 9.999800120727e-01 1.998792729563e-05 -8.645782495972e-06 0.000000000000e+00 1.436219389868e-09 0.000000000000e+00 
1.110000000000e+02 0.000000000000e+00 1.013250000000e+05 1.013250000000e+05 9.999798166178e-01 2.018338221998e-05 -8.606426028937e-06 0.000000000000e+00 1.433841497470e-09 0.000000000000e+00 
1.120000000000e+02 0.000000000000e+00 1.013250000000e+05 1.013250000000e+05 9.999796232405e-01 2.037675948308e-05 -8.567529232134e-06 0.000000000000e+00 1.431488585646e-09 0.000000000000e+00 
1.130000000000e+02 0.000000000000e+00 1.013250000000e+05 1.013250000000e+05 9.999794320064e-01 2.056799360672e-05 -8.529022986224e-06 0.000000000000e+00 1.429161999015e-09 0.000000000000e+00 
1.140000000000e+02 0.000000000000e+00 1.013250000000e+05 1.013250000000e+05 9.999792429585e-01 2.075704152116e-05 -8.490946325856e-06 0.000000000000e+00 1.426862060355e-09 0.000000000000e+00 
1.150000000000e+02 0.000000000000e+00 1.013250000000e+05 1.013250000000e+05 9.999790561167e-01 2.094388333385e-05 -8.453282042261e-06 0.000000000000e+00 1.424589153387e-09 0.000000000000e+00 
1.160000000000e+02 0.000000000000e+00 1.013250000000e+05 1.013250000000e+05 9.999788714776e-01 2.112852239011e-05 -8.416026459792e-06 0.000000000000e+00 1.422343258113e-09 0.000000000000e+00 
1.170000000000e+02 0.000000000000e+00 1.013250000000e+05 1.013250000000e+05 9.999786890155e-01 2.131098451419e-05 -8.379177059192e-06 0.000000000000e+00 1.420124043137e-09 0.000000000000e+00 
1.180000000000e+02 0.000000000000e+00 1.013250000000e+05 1.013250000000e+05 9.999785086850e-01 2.149131502205e-05 -8.342679141751e-06 0.000000000000e+00 1.417931260987e-09 0.000000000000e+00 
1.190000000000e+02 0.000000000000e+00 1.013250000000e+05 1.013250000000e+05 9.999783304235e-01 2.166957650118e-05 -8.306586034698e-06 0.000000000000e+00 1.415763712298e-09 0.000000000000e+00 
1.200000000000e+02 0.000000000000e+00 1.013250000000e+05 1.013250000000e+05 9.999781541541e-01 2.184584590648e-05 -8.270885132123e-06 0.000000000000e+00 1.413620442225e-09 0.000000000000e+00 
