# vtk DataFile Version 3.6.2
Particle file: OpenGeoSys->Paraview. Current time (s) = 1.036800000000e+08
ASCII

DATASET POLYDATA
POINTS 500 double
4.831925408216e+01 3.600153680746e+01 5.108820539985e+01
4.538166726943e+01 4.243562189394e+01 5.136268707056e+01
5.018581167454e+01 3.864200955874e+01 4.901309971938e+01
4.743422141472e+01 4.006649519070e+01 4.990653488245e+01
3.951934964661e+01 4.594349446803e+01 5.372525957417e+01
4.141386133040e+01 4.098724587908e+01 5.401328056879e+01
4.332841662299e+01 4.415638783094e+01 5.026195405315e+01
4.650536477672e+01 4.248440429587e+01 4.922165892930e+01
5.099597275358e+01 3.944939681170e+01 4.743369072056e+01
4.723649740676e+01 4.342995757228e+01 4.799447048088e+01
4.155109203714e+01 4.666196796020e+01 4.928002267700e+01
4.087602913018e+01 5.378435152021e+01 4.069784562345e+01
5.175318995493e+01 4.686702380566e+01 4.062264003436e+01
4.296623441474e+01 4.371333699740e+01 5.179148751452e+01
4.771681190219e+01 4.182159528157e+01 4.906768976134e+01
3.805901777776e+01 4.759071920170e+01 5.102163685753e+01
4.431812551822e+01 4.781253287587e+01 4.566463007304e+01
4.470782490520e+01 4.580934948493e+01 4.772744567896e+01
4.380399070793e+01 4.304347247595e+01 5.067528864115e+01
4.435356282630e+01 4.323142055027e+01 4.999175984003e+01
4.711255519083e+01 4.726543712580e+01 4.389331230580e+01
4.238114525029e+01 4.179414850487e+01 5.316718632851e+01
4.674720925407e+01 4.185892015050e+01 4.975720204280e+01
4.817282730643e+01 4.566063697948e+01 4.404351883841e+01
4.039390808135e+01 4.985204162531e+01 4.625639244736e+01
4.018103977975e+01 4.629477752368e+01 5.151911578515e+01
4.688912147896e+01 4.091447912377e+01 5.040281204302e+01
4.292718190901e+01 4.450752190515e+01 4.941111339777e+01
4.739700171982e+01 4.713710770741e+01 4.359832412501e+01
4.712014855448e+01 4.161649700791e+01 5.056433600719e+01
4.439373459813e+01 4.380344741729e+01 4.977305244260e+01
5.074509798991e+01 3.602071235240e+01 4.880454670611e+01
4.418087221877e+01 4.837637176122e+01 4.500250111396e+01
4.393178208433e+01 4.588858882002e+01 4.925874956158e+01
4.211444821562e+01 4.276079873571e+01 5.228501479035e+01
4.011997403043e+01 5.027060307915e+01 4.668124332744e+01
4.235448373213e+01 4.270341758339e+01 5.150714960014e+01
4.527026560236e+01 4.380234451829e+01 4.927898654363e+01
4.763194594179e+01 4.156761449523e+01 4.867450744266e+01
3.929978202449e+01 4.405865928448e+01 5.377213809322e+01
4.592374189403e+01 4.695795327977e+01 4.508145645715e+01
4.300846282155e+01 4.353079031987e+01 5.158742308198e+01
4.003060508639e+01 4.951466161026e+01 4.687614596346e+01
4.867459834164e+01 4.163777913339e+01 4.873541154684e+01
4.469727421899e+01 4.819336046031e+01 4.514686018594e+01
4.219503866031e+01 4.255170922171e+01 5.312409445048e+01
4.726199965592e+01 4.690579719069e+01 4.319507202811e+01
4.126219625689e+01 5.012798530043e+01 4.588610109677e+01
4.527169984899e+01 4.368273517478e+01 4.862572020785e+01
4.053276894328e+01 5.387436815850e+01 4.158184841543e+01
4.349592775442e+01 4.405685803681e+01 5.265262982360e+01
5.015696849735e+01 3.974999396427e+01 4.868393125749e+01
3.882931968717e+01 4.593424749682e+01 5.210382200365e+01
4.967392269844e+01 3.778982270814e+01 4.895765586649e+01
5.021015294577e+01 3.829487993038e+01 5.063657648268e+01
4.204698289078e+01 4.592672111760e+01 4.985214920827e+01
4.884233788367e+01 3.900348119123e+01 4.808721234474e+01
4.021868178054e+01 4.633310864589e+01 5.148843514675e+01
4.592830959805e+01 4.249008169714e+01 4.930594813983e+01
4.707502714865e+01 4.780717162319e+01 4.341266636414e+01
4.405504342638e+01 4.143322454650e+01 5.249917891758e+01
4.436013602427e+01 4.222016341205e+01 5.047492876967e+01
4.092419886798e+01 4.628215339863e+01 5.056086758152e+01
4.401378235148e+01 4.412004267443e+01 5.008702983433e+01
4.470459272948e+01 4.109296521745e+01 5.001979589769e+01
3.937468057188e+01 4.417255588554e+01 5.224679947224e+01
4.286276686947e+01 4.758102669901e+01 4.674259486229e+01
3.894355516157e+01 5.053497200328e+01 4.743837742003e+01
4.333070584902e+01 4.392675721831e+01 5.229956009483e+01
4.609604219502e+01 4.149909059954e+01 5.064356195115e+01
3.879040117826e+01 4.643415477098e+01 5.099858787776e+01
4.425694808313e+01 4.339199497833e+01 5.045069351500e+01
4.105580208830e+01 4.803294104465e+01 4.858563899650e+01
4.181116638003e+01 4.923799312536e+01 4.572398140198e+01
5.045652421446e+01 3.799913962111e+01 4.924496271357e+01
4.321833945931e+01 4.097890330052e+01 5.292188077565e+01
4.793674291902e+01 4.081793247739e+01 5.016435377419e+01
4.376089497980e+01 4.733348799215e+01 4.516583574337e+01
4.945409359315e+01 3.967903288523e+01 4.849651203033e+01
4.545098903194e+01 4.316103563652e+01 5.102885142501e+01
4.576057492418e+01 4.158793974936e+01 5.090029278030e+01
4.028682717833e+01 4.712072058062e+01 4.944724639494e+01
4.013633474195e+01 5.091715958431e+01 4.638582811827e+01
4.561449792478e+01 4.063032123197e+01 5.111585116176e+01
4.439011606230e+01 4.966096198066e+01 4.455895404043e+01
4.553656985596e+01 4.036854812035e+01 5.125501824331e+01
4.149558159778e+01 4.271460592293e+01 5.239592655305e+01
4.206904614070e+01 5.016081420758e+01 4.468718048679e+01
4.054389754512e+01 4.962607098809e+01 4.786894351565e+01
4.913161475121e+01 4.144942040324e+01 4.855867556471e+01
4.499124627020e+01 4.800927580465e+01 4.478545639000e+01
4.473683224312e+01 4.426803177206e+01 5.013838752168e+01
4.737604343959e+01 3.918671031936e+01 4.982341653020e+01
4.082019079858e+01 4.249461509176e+01 5.447525992525e+01
5.199688647557e+01 3.734137946856e+01 4.722325656733e+01
4.051311028596e+01 4.615656827343e+01 5.106634253210e+01
3.711696552477e+01 4.908846130446e+01 5.075712973021e+01
3.963256065200e+01 4.520961821616e+01 5.202731536151e+01
4.675937990866e+01 4.167482224620e+01 4.856307772602e+01
4.310628251121e+01 4.025920218309e+01 5.263768471448e+01
4.153214237211e+01 4.627428545130e+01 5.071646146458e+01
4.206190741293e+01 4.353294323427e+01 5.342212593983e+01
4.881823378713e+01 3.640007163682e+01 4.965264017542e+01
4.313859055010e+01 4.266837301477e+01 5.352080019478e+01
4.577815982090e+01 4.034424585694e+01 5.141096887930e+01
4.943608268291e+01 3.686625588069e+01 4.980930731579e+01
4.497091678102e+01 4.303884913613e+01 4.923503201490e+01
5.021357414276e+01 4.667980796059e+01 4.189391042060e+01
4.150412204238e+01 5.064650395628e+01 4.473434098054e+01
4.761257040327e+01 3.721530660518e+01 5.087230592348e+01
4.244551662258e+01 4.160647281731e+01 5.359534658617e+01
4.107560009318e+01 4.467250276631e+01 5.148175709179e+01
4.865382282144e+01 3.804848989624e+01 5.011225454977e+01
4.586595538239e+01 4.256091667796e+01 5.013016730529e+01
4.653431618901e+01 4.094204708357e+01 5.064755826736e+01
4.296505022700e+01 4.120220901881e+01 5.320589762802e+01
3.939234550994e+01 4.621465018552e+01 5.169817531803e+01
4.070518084091e+01 4.886733828489e+01 4.821775907588e+01
4.246341374742e+01 4.830139040113e+01 4.506700532813e+01
4.844469759631e+01 3.941689971190e+01 5.016479963727e+01
4.745789544996e+01 4.191108233670e+01 4.778487953585e+01
4.946079685574e+01 4.154793633260e+01 4.814202842204e+01
5.044892112594e+01 3.907417344659e+01 4.887617507834e+01
4.080643015868e+01 4.941987244225e+01 4.824211193171e+01
4.660531579309e+01 4.311158275684e+01 4.996593688478e+01
3.824071172494e+01 4.691286681982e+01 5.220347264000e+01
4.756731695941e+01 4.591096527289e+01 4.576260481485e+01
4.637501446204e+01 4.345044089931e+01 4.877082137230e+01
4.672763416466e+01 4.605069921927e+01 4.559608779018e+01
4.635041089957e+01 4.228940188347e+01 4.947242337085e+01
4.586166828379e+01 4.699737344796e+01 4.408104120614e+01
4.433482249271e+01 4.372755553776e+01 4.954303305441e+01
4.439779843423e+01 4.235964549733e+01 5.136660278060e+01
5.260484433944e+01 4.006665551850e+01 4.556456627904e+01
4.783269023347e+01 4.244285587680e+01 4.815604404180e+01
5.045241490186e+01 3.786734838537e+01 4.830375991753e+01
4.467112135208e+01 4.507953401900e+01 4.774330979747e+01
4.066335561136e+01 4.586468695929e+01 5.184177668770e+01
3.922761187489e+01 4.738677461693e+01 5.008545308868e+01
4.013970008253e+01 4.992156944101e+01 4.695651085263e+01
4.125976300697e+01 4.567133684657e+01 5.062314785814e+01
4.672464523983e+01 4.350607565553e+01 4.808670509339e+01
3.898377848937e+01 4.636606907044e+01 5.266555889338e+01
4.914340919036e+01 3.615732590249e+01 4.943162767238e+01
5.032425682374e+01 3.996657419410e+01 4.960779612696e+01
4.512334538691e+01 4.682954254852e+01 4.566187624300e+01
4.561208439000e+01 4.234380451883e+01 4.948212201405e+01
5.301857488063e+01 3.955749145943e+01 4.519211659567e+01
4.228808688677e+01 4.299146287633e+01 5.132823064628e+01
4.375001030752e+01 4.174362545308e+01 5.251449964637e+01
4.981312009165e+01 4.023004420033e+01 4.801712396981e+01
3.959747996333e+01 4.561128436156e+01 5.104739346259e+01
4.266822146836e+01 5.035835803542e+01 4.415501634120e+01
4.318967768834e+01 4.389321411062e+01 5.096721977522e+01
4.484494534781e+01 4.268042347932e+01 5.051337171271e+01
4.509451840627e+01 4.795629110135e+01 4.602575478898e+01
3.977545361609e+01 4.625328776605e+01 5.061953801649e+01
4.044916562822e+01 4.051428252571e+01 5.504842017470e+01
4.689695783981e+01 4.220093242849e+01 4.906378207375e+01
4.457178363779e+01 4.850484270854e+01 4.368251373150e+01
4.175642428787e+01 5.104527968059e+01 4.346410979376e+01
4.896549535663e+01 3.877703029584e+01 5.037132247057e+01
4.199564021825e+01 4.411738145699e+01 5.205871807092e+01
4.600729004885e+01 4.619241168897e+01 4.443509530351e+01
4.294906061618e+01 4.140463821195e+01 5.332521030697e+01
4.226697929749e+01 4.388674794523e+01 5.199112368079e+01
4.147550749777e+01 4.483057059618e+01 5.118909901682e+01
5.104713136607e+01 3.919008390040e+01 4.658502988242e+01
4.700936613394e+01 4.207943235385e+01 4.906484548973e+01
4.114085764949e+01 4.977949471443e+01 4.569320338631e+01
4.382866708414e+01 4.804539901906e+01 4.526558027618e+01
3.942525157249e+01 5.011605144056e+01 4.634754577282e+01
[...]
POINT_DATA 500
SCALARS identity float 1
LOOKUP_TABLE default
0
0
0
0
0
0
0
0
0
0
0
0
0
0
0
0
0
0
0
0
0
0
0
0
0
0
0
0
0
0
0
0
0
0
0
0
0
0
0
0
0
0
0
0
0
0
0
0
0
0
0
0
0
0
0
0
0
0
0
0
0
0
0
0
0
0
0
0
0
0
0
0
0
0
0
0
0
0
0
0
0
0
0
0
0
0
0
0
0
0
0
0
0
0
0
0
0
0
0
0
0
0
0
0
0
0
0
0
0
0
0
0
0
0
0
0
0
0
0
0
0
0
0
0
0
0
0
0
0
0
0
0
0
0
0
0
0
0
0
0
0
0
0
0
0
0
0
0
0
0
0
0
0
0
0
0
0
0
0
0
0
0
0
0
0
0
0
0
0
0
0
0
0
0
0
0
0
0
0
0
0
0
0
0
0
0
0
0
0
0
0
0
0
0
0
0
0
0
0
0
0
0
0
0
0
0
0
0
0
0
0
0
0
0
0
0
0
0
0
0
0
0
0
0
0
0
0
0
0
0
0
0
0
0
0
0
0
0
0
0
0
0
0
0
0
0
0
0
0
0
0
0
0
0
0
0
0
0
0
0
0
0
0
0
0
0
0
0
0
0
0
0
0
0
0
0
0
0
0
0
0
0
0
0
0
0
0
0
0
0
0
0
0
0
0
0
0
0
0
0
0
0
0
0
0
0
0
0
0
0
0
0
0
0
0
0
0
0
0
0
0
0
0
0
0
0
0
0
0
0
0
0
0
0
0
0
0
0
0
0
0
0
0
0
0
0
0
0
0
0
0
0
0
0
0
0
0
0
0
0
0
0
0
0
0
0
0
0
0
0
0
0
0
0
0
0
0
0
0
0
0
0
0
0
0
0
0
0
0
0
0
0
0
0
0
0
0
0
0
0
0
0
0
0
0
0
0
0
0
0
0
0
0
0
0
0
0
0
0
0
0
0
0
0
0
0
0
0
0
0
0
0
0
0
0
0
0
0
0
0
0
0
0
0
0
0
0
0
0
0
0
0
0
0
0
0
0
0
0
0
0
0
0
0
0
0
0
0
0
0
0
0
0
0
0
0
0
0
0
0
0
0
0
0
0
0
0
0
0
0
0
0
0
0
0
0
0
0
0
0

SCALARS on_boundary float 1
LOOKUP_TABLE default
0
0
0
0
0
0
0
0
0
0
0
0
0
0
0
0
0
0
0
0
0
0
0
0
0
0
0
0
0
0
0
0
0
0
0
0
0
0
0
0
0
0
0
0
0
0
0
0
0
0
0
0
0
0
0
0
0
0
0
0
0
0
0
0
0
0
0
0
0
0
0
0
0
0
0
0
0
0
0
0
0
0
0
0
0
0
0
0
0
0
0
0
0
0
0
0
0
0
0
0
0
0
0
0
0
0
0
0
0
0
0
0
0
0
0
0
0
0
0
0
0
0
0
0
0
0
0
0
0
0
0
0
0
0
0
0
0
0
0
0
0
0
0
0
0
0
0
0
0
0
0
0
0
0
0
0
0
0
0
0
0
0
0
0
0
0
0
0
0
0
0
0
0
0
0
0
0
0
0
0
0
0
0
0
0
0
0
0
0
0
0
0
0
0
0
0
0
0
0
0
0
0
0
0
0
0
0
0
0
0
0
0
0
0
0
0
0
0
0
0
0
0
0
0
0
0
0
0
0
0
0
0
0
0
0
0
0
0
0
0
0
0
0
0
0
0
0
0
0
0
0
0
0
0
0
0
0
0
0
0
0
0
0
0
0
0
0
0
0
0
0
0
0
0
0
0
0
0
0
0
0
0
0
0
0
0
0
0
0
0
0
0
0
0
0
0
0
0
0
0
0
0
0
0
0
0
0
0
0
0
0
0
0
0
0
0
0
0
0
0
0
0
0
0
0
0
0
0
0
0
0
0
0
0
0
0
0
0
0
0
0
0
0
0
0
0
0
0
0
0
0
0
0
0
0
0
0
0
0
0
0
0
0
0
0
0
0
0
0
0
0
0
0
0
0
0
0
0
0
0
0
0
0
0
0
0
0
0
0
0
0
0
0
0
0
0
0
0
0
0
0
0
0
0
0
0
0
0
0
0
0
0
0
0
0
0
0
0
0
0
0
0
0
0
0
0
0
0
0
0
0
0
0
0
0
0
0
0
0
0
0
0
0
0
0
0
0
0
0
0
0
0
0
0
0
0
0
0
0
0
0
0
0
0
0
0
0
0
0
0
0
0
0
0
0
0
0
0
0
0
0
0
0
0
0
0
0
0
0
0
0
0
0
0
0
0
0
0
0
0

VECTORS velocity float
1.798867514911e-07 1.603943506444e-07 1.869391819307e-07
1.744470986108e-07 1.708963604811e-07 1.799230545653e-07
1.846027891338e-07 1.679091233175e-07 1.842471633650e-07
1.851663906626e-07 1.695597422650e-07 1.859690233682e-07
1.624206816370e-07 1.715997342180e-07 1.796922843912e-07
1.679782348398e-07 1.679207324881e-07 1.871156431972e-07
1.773370583227e-07 1.789390934014e-07 1.861920878684e-07
1.772076105952e-07 1.710363016062e-07 1.788797293434e-07
1.812743926905e-07 1.653403175002e-07 1.742388402450e-07
1.810820571191e-07 1.749975289599e-07 1.774365060475e-07
1.707874015497e-07 1.801004912386e-07 1.861343954373e-07
1.698039380155e-07 1.869533915505e-07 1.684490266552e-07
1.836608470213e-07 1.767926665496e-07 1.695899125723e-07
1.752352515741e-07 1.779837740394e-07 1.870903546155e-07
1.780132588818e-07 1.707127707481e-07 1.783614699515e-07
1.640661198270e-07 1.850509534211e-07 1.912375645497e-07
1.815294565907e-07 1.840863141647e-07 1.805522248738e-07
1.805616002265e-07 1.795153990820e-07 1.840400606581e-07
1.754393351163e-07 1.742556575030e-07 1.802847314372e-07
1.782926467948e-07 1.789215013476e-07 1.854974086795e-07
1.842015010492e-07 1.787156707019e-07 1.740230815582e-07
1.701816343326e-07 1.715555911587e-07 1.843395470594e-07
1.766933102833e-07 1.706492589439e-07 1.788796632956e-07
1.864185166654e-07 1.782507811804e-07 1.743711972992e-07
1.766581940813e-07 1.840048481733e-07 1.815232777859e-07
1.696649442867e-07 1.790586466962e-07 1.868376826152e-07
1.759711269809e-07 1.700656996494e-07 1.789029323639e-07
1.779710103794e-07 1.795550181734e-07 1.862485382219e-07
1.845231586228e-07 1.787944000769e-07 1.740079809508e-07
1.760142667603e-07 1.702763074482e-07 1.788025847607e-07
1.786365093903e-07 1.790049168875e-07 1.852372799567e-07
1.878611555179e-07 1.626986307607e-07 1.819712546578e-07
1.814274679353e-07 1.841414995869e-07 1.803671140195e-07
1.790484719410e-07 1.792716012607e-07 1.848544332792e-07
1.716409332168e-07 1.737275972540e-07 1.836797858532e-07
1.755994288431e-07 1.835478444267e-07 1.811902859249e-07
1.743292995989e-07 1.778374207486e-07 1.878386022034e-07
1.797621795977e-07 1.789708805069e-07 1.843378878810e-07
1.784254276284e-07 1.707864298377e-07 1.783186492710e-07
1.629573446885e-07 1.718338506832e-07 1.836984153599e-07
1.832691154162e-07 1.783486180312e-07 1.741694122658e-07
1.754153803800e-07 1.780909150996e-07 1.870587436868e-07
1.762900164970e-07 1.840090278215e-07 1.817266555053e-07
1.787822165240e-07 1.706121293446e-07 1.780113017635e-07
1.818579424182e-07 1.839928159214e-07 1.801283487643e-07
1.698405813737e-07 1.717115591509e-07 1.847580981781e-07
1.850870926124e-07 1.830781197611e-07 1.784634448526e-07
1.773703470285e-07 1.839587519277e-07 1.811421391495e-07
1.803370593489e-07 1.791841791311e-07 1.841950962214e-07
1.693172314643e-07 1.860209428256e-07 1.685924746132e-07
1.737441341995e-07 1.740525664446e-07 1.809091277027e-07
1.779842161572e-07 1.690225794241e-07 1.777470505151e-07
1.571137219905e-07 1.767662146944e-07 1.854261491280e-07
1.847553199744e-07 1.677900784124e-07 1.846695309768e-07
1.751897704717e-07 1.658816678649e-07 1.776160164954e-07
1.707114982187e-07 1.796392277701e-07 1.863836977101e-07
1.870293983399e-07 1.696713062512e-07 1.854499801491e-07
1.696859200741e-07 1.790687987258e-07 1.867762522585e-07
1.767524075843e-07 1.710865677142e-07 1.791809864965e-07
1.839661014012e-07 1.790415462495e-07 1.738745189439e-07
1.725740155388e-07 1.709721353388e-07 1.814972863659e-07
1.743996805533e-07 1.710621394026e-07 1.805446083131e-07
1.701553287242e-07 1.794805228944e-07 1.865895764383e-07
1.780726622823e-07 1.789259167724e-07 1.855647909225e-07
1.841150683287e-07 1.707028051751e-07 1.877943795200e-07
1.646262843332e-07 1.809980345062e-07 1.923749352204e-07
1.787753752431e-07 1.816427048241e-07 1.817346753649e-07
1.736619042704e-07 1.828945800113e-07 1.809023242344e-07
1.737884079415e-07 1.740488503443e-07 1.810624449789e-07
1.754228269471e-07 1.704931437727e-07 1.793735820756e-07
1.645629470967e-07 1.845430935891e-07 1.919128370010e-07
1.760765714072e-07 1.743378051446e-07 1.797225538669e-07
1.705619142600e-07 1.803855952958e-07 1.854005080570e-07
1.786299013687e-07 1.843733497439e-07 1.814502076299e-07
1.836031711149e-07 1.670178357649e-07 1.838530742406e-07
1.715966820188e-07 1.711212323567e-07 1.826082687564e-07
1.766005465584e-07 1.697326927774e-07 1.784138447288e-07
1.816307133362e-07 1.843968902263e-07 1.810363343400e-07
1.863031672699e-07 1.694477289401e-07 1.847609638664e-07
1.747896888487e-07 1.710744249837e-07 1.797554619381e-07
1.750050494448e-07 1.705582302780e-07 1.796161234839e-07
1.704188578536e-07 1.803400776325e-07 1.862352402969e-07
1.751694920249e-07 1.832558447545e-07 1.808308360430e-07
1.747268670162e-07 1.702490862912e-07 1.797207279946e-07
1.811158275069e-07 1.840437138050e-07 1.797533807416e-07
1.831927591755e-07 1.699736324338e-07 1.872816492882e-07
1.715785148234e-07 1.765485966856e-07 1.890316022945e-07
1.789829724673e-07 1.842717080160e-07 1.808733705841e-07
1.748398965890e-07 1.812894128863e-07 1.813320086931e-07
1.790277727381e-07 1.705129954234e-07 1.778845108578e-07
1.823335877056e-07 1.839355205218e-07 1.799469874935e-07
1.786637573733e-07 1.787742905016e-07 1.848710765153e-07
1.853246188828e-07 1.692588020821e-07 1.861381701182e-07
1.642522503238e-07 1.702443527711e-07 1.855345780959e-07
1.802921254368e-07 1.633071464072e-07 1.743828858429e-07
1.698882237979e-07 1.792553335500e-07 1.868277325575e-07
1.557796691493e-07 1.784137258826e-07 1.830795046187e-07
1.691305946814e-07 1.784453089415e-07 1.878635568772e-07
1.781168799370e-07 1.709935085559e-07 1.786317351324e-07
1.767415151380e-07 1.645872717316e-07 1.906669973770e-07
1.702422821988e-07 1.792599816842e-07 1.863593421951e-07
1.711139470457e-07 1.736671531550e-07 1.838491321997e-07
1.841941718894e-07 1.672021163789e-07 1.851019818067e-07
1.710500214687e-07 1.715025709055e-07 1.829340119524e-07
1.745704227762e-07 1.700544124108e-07 1.796534982393e-07
1.831782371882e-07 1.665682142117e-07 1.842275676487e-07
1.778354293758e-07 1.745694592866e-07 1.788942773483e-07
1.848326566504e-07 1.771602775996e-07 1.704358777208e-07
1.733932067477e-07 1.913426690567e-07 1.786023939440e-07
1.804995012765e-07 1.611206768585e-07 1.880440408874e-07
1.700551853920e-07 1.715481967251e-07 1.843624843278e-07
1.693731431286e-07 1.783636448056e-07 1.878151777812e-07
1.838792146736e-07 1.676021368000e-07 1.848950316578e-07
1.758825183450e-07 1.709457831409e-07 1.793645722576e-07
1.755899812913e-07 1.701217435164e-07 1.791098110940e-07
1.711026893646e-07 1.712668883726e-07 1.831398773007e-07
1.644668534162e-07 1.835897166421e-07 1.918304723555e-07
1.702097049223e-07 1.803944421734e-07 1.848466900390e-07
1.801228027069e-07 1.847039229310e-07 1.815650919122e-07
1.844030502439e-07 1.685492206587e-07 1.851746141580e-07
1.797635052317e-07 1.714259132942e-07 1.781718928082e-07
1.798424699748e-07 1.708231465924e-07 1.777472721916e-07
1.772587869170e-07 1.681329042588e-07 1.776951305258e-07
1.698810978493e-07 1.801300984593e-07 1.842609130235e-07
1.765017583644e-07 1.710224956194e-07 1.789330768115e-07
1.563517505959e-07 1.771357337264e-07 1.844708624761e-07
1.847739098026e-07 1.779754238460e-07 1.743097857056e-07
1.794792800225e-07 1.747762446943e-07 1.779077963818e-07
1.842536631073e-07 1.780874388056e-07 1.742812762284e-07
1.768401175424e-07 1.709248904550e-07 1.789992305337e-07
1.838520263528e-07 1.835635194160e-07 1.794366222747e-07
1.787862667016e-07 1.791172097370e-07 1.852544444911e-07
1.736823587971e-07 1.710670020063e-07 1.808005251243e-07
1.817944161739e-07 1.665087075982e-07 1.738452485109e-07
1.795585863227e-07 1.713882678202e-07 1.781228869785e-07
1.897639745482e-07 1.643251261463e-07 1.823219461059e-07
1.806217222623e-07 1.795819373163e-07 1.842114459176e-07
1.695257167509e-07 1.786458746300e-07 1.870625479926e-07
1.699979972231e-07 1.802286157478e-07 1.861770752848e-07
1.758012889419e-07 1.836755636046e-07 1.813665992849e-07
1.701464389944e-07 1.792979828717e-07 1.869194558463e-07
1.805129388683e-07 1.749183496349e-07 1.776436462811e-07
1.570101939070e-07 1.766367621427e-07 1.851074160856e-07
1.841312773523e-07 1.670317325021e-07 1.849240786204e-07
1.770167570411e-07 1.683778055098e-07 1.777412208634e-07
1.827863504337e-07 1.837893569366e-07 1.802822854516e-07
1.763141849558e-07 1.710256596746e-07 1.793978871089e-07
1.815291477347e-07 1.660123937710e-07 1.738068449729e-07
1.746326574065e-07 1.780379375144e-07 1.877501079026e-07
1.722299377428e-07 1.711297238638e-07 1.819241898018e-07
1.791758226459e-07 1.699808124196e-07 1.777286612806e-07
1.697454075199e-07 1.793580032909e-07 1.874932881741e-07
1.796709075479e-07 1.842595038308e-07 1.804411182031e-07
1.764495677460e-07 1.785328783648e-07 1.865650104036e-07
1.747858291100e-07 1.710846502548e-07 1.801363020318e-07
1.816488186925e-07 1.782098879854e-07 1.741954224888e-07
1.699975313123e-07 1.797422562276e-07 1.869838525799e-07
1.653614300991e-07 1.638489477968e-07 1.832409733258e-07
1.776646875078e-07 1.709723512432e-07 1.786691299767e-07
1.821992857200e-07 1.841899724126e-07 1.797989777620e-07
1.740741644414e-07 1.923354568838e-07 1.778850906010e-07
1.835539152767e-07 1.676040277529e-07 1.845763112917e-07
1.691256828019e-07 1.777434593596e-07 1.878655502718e-07
1.844104493270e-07 1.832893550162e-07 1.795508546271e-07
1.709533359490e-07 1.713273193417e-07 1.832736264297e-07
1.743048002108e-07 1.777365166775e-07 1.876707632384e-07
1.697216525551e-07 1.786453205435e-07 1.874544283998e-07
1.819534574144e-07 1.656923187534e-07 1.742491319624e-07
1.776730515873e-07 1.709172765737e-07 1.786368800880e-07
1.777382144748e-07 1.842224417976e-07 1.814377644243e-07
1.812443270667e-07 1.842682223416e-07 1.807471525329e-07
1.757651810976e-07 1.838862560792e-07 1.816381246181e-07
1.766652791940e-07 1.691650566833e-07 1.781820212212e-07
1.841475243363e-07 1.833640649525e-07 1.791119100504e-07
1.740073009498e-07 1.774886601821e-07 1.877178468696e-07
1.772399310485e-07 1.705967091614e-07 1.787527328664e-07
1.832673097810e-07 1.838443611099e-07 1.791306599264e-07
1.737089996121e-07 1.826636894285e-07 1.805292047944e-07
1.793391637689e-07 1.713573485473e-07 1.782510835659e-07
1.797084945859e-07 1.790125286325e-07 1.844254210607e-07
1.702256087060e-07 1.797834827883e-07 1.861788746260e-07
1.690657205570e-07 1.781586251936e-07 1.880197111398e-07
1.876529031777e-07 1.628482016082e-07 1.820327845552e-07
1.700267865481e-07 1.801369092044e-07 1.860388322004e-07
1.638149906893e-07 1.722921146985e-07 1.885458932006e-07
1.794255688338e-07 1.795590625240e-07 1.849609730533e-07
1.786480919113e-07 1.841759269002e-07 1.810354672123e-07
1.748974260762e-07 1.741945338402e-07 1.802269342853e-07
1.689238127287e-07 1.777943947628e-07 1.883017315550e-07
1.559997499603e-07 1.775934498009e-07 1.840507041632e-07
1.763142953283e-07 1.743678192469e-07 1.794011266412e-07
1.830262979944e-07 1.839144563747e-07 1.790743955283e-07
1.704032534529e-07 1.864392560983e-07 1.689258151982e-07
1.777964548189e-07 1.838707052510e-07 1.808425289554e-07
1.787886759001e-07 1.838750445073e-07 1.806905475569e-07
1.698849018595e-07 1.796444711368e-07 1.861681177219e-07
1.819598148320e-07 1.841057181607e-07 1.801322618514e-07
1.784886616277e-07 1.795847154888e-07 1.857997236935e-07
1.778128963695e-07 1.745647257931e-07 1.783699596445e-07
1.565172979710e-07 1.772681204659e-07 1.847118794542e-07
1.714461273438e-07 1.799250942423e-07 1.848799135923e-07
1.709336384387e-07 1.714916938655e-07 1.835773023438e-07
1.704849028491e-07 1.795195692749e-07 1.871520744342e-07
1.757353438769e-07 1.742952299067e-07 1.799234741347e-07
1.732932870613e-07 1.588916935724e-07 1.838197451817e-07
1.909019571893e-07 1.653131678309e-07 1.824997620959e-07
1.695731167621e-07 1.782300489126e-07 1.875189240260e-07
1.755180750018e-07 1.706151073967e-07 1.793054688818e-07
1.851778252211e-07 1.700235252591e-07 1.864547748888e-07
1.837514978794e-07 1.793072504875e-07 1.737011153216e-07
1.700356906953e-07 1.790677178021e-07 1.868759633710e-07
1.701397433993e-07 1.795030823378e-07 1.857419685771e-07
1.691743347817e-07 1.856603588333e-07 1.684844131604e-07
1.763320690255e-07 1.710331480292e-07 1.792729205117e-07
1.882674085890e-07 1.768791734251e-07 1.737988074232e-07
1.700109240711e-07 1.800543156637e-07 1.867249745480e-07
1.831225185011e-07 1.785263733239e-07 1.740858641798e-07
1.702772969145e-07 1.795305884334e-07 1.868289453237e-07
1.776231875949e-07 1.788335397025e-07 1.858351643820e-07
1.704830973258e-07 1.715618565089e-07 1.838292977856e-07
1.746166448412e-07 1.705378826640e-07 1.798453356930e-07
1.705507546571e-07 1.802441645440e-07 1.869096491389e-07
1.798362226286e-07 1.638215159038e-07 1.744049344261e-07
1.779811076483e-07 1.712064000405e-07 1.786296789048e-07
1.910176716002e-07 1.647696729739e-07 1.826692440105e-07
1.560837696196e-07 1.778678515014e-07 1.836709306452e-07
1.774570743908e-07 1.709764434625e-07 1.788538591255e-07
1.798046548499e-07 1.789215665433e-07 1.842179276624e-07
1.696235168385e-07 1.782628530057e-07 1.873153227867e-07
1.784147825763e-07 1.619745449835e-07 1.747105436906e-07
1.743165161251e-07 1.926685069737e-07 1.772010613758e-07
1.766985753085e-07 1.702257082616e-07 1.784791354070e-07
1.770293037705e-07 1.787845989098e-07 1.863035582351e-07
1.743989845147e-07 1.779262597987e-07 1.878375416829e-07
1.694230837694e-07 1.782768657378e-07 1.876871265310e-07
1.853476012751e-07 1.830682468698e-07 1.780613532357e-07
1.770200294489e-07 1.710270966831e-07 1.787955486203e-07
1.764118335166e-07 1.743939622516e-07 1.791017013786e-07
1.778990120434e-07 1.789828988160e-07 1.858152046308e-07
1.858691316188e-07 1.794292069397e-07 1.926240391877e-07
1.777042911824e-07 1.788452497943e-07 1.858953762076e-07
1.770730963071e-07 1.704795195484e-07 1.787707353289e-07
1.845880025100e-07 1.681586069345e-07 1.846160549935e-07
1.686867926539e-07 1.718723459537e-07 1.862717369422e-07
1.792010655983e-07 1.711583597498e-07 1.782529373901e-07
1.700393763413e-07 1.797501361661e-07 1.866363614166e-07
1.825910675084e-07 1.781661247430e-07 1.741528031253e-07
1.766354390362e-07 1.712520908849e-07 1.795040892073e-07
1.780899026913e-07 1.708140157327e-07 1.783246636003e-07
1.721492300482e-07 1.709805742357e-07 1.819308129425e-07
1.738475221447e-07 1.920319860872e-07 1.784610164661e-07
1.814570669156e-07 1.651449389266e-07 1.740969558037e-07
1.826409259334e-07 1.840540048226e-07 1.800510600990e-07
1.791607517335e-07 1.794635155914e-07 1.852981671200e-07
1.758387847856e-07 1.711040878476e-07 1.794406413306e-07
1.825787069544e-07 1.669258846658e-07 1.739269776341e-07
1.853648939657e-07 1.765386154728e-07 1.708436878611e-07
1.747600201863e-07 1.926200088476e-07 1.781628532198e-07
1.564406715240e-07 1.768972374315e-07 1.846116674417e-07
1.724285384906e-07 1.738469392645e-07 1.827315779792e-07
1.849479798370e-07 1.683165315491e-07 1.850520031503e-07
1.891354638530e-07 1.623938776847e-07 1.821501597339e-07
1.856546498633e-07 1.790445198933e-07 1.739717763502e-07
1.765350354243e-07 1.709311015685e-07 1.791202889662e-07
1.699817177227e-07 1.790117040032e-07 1.873853512525e-07
1.698116948279e-07 1.717079628091e-07 1.848627905728e-07
1.773378434465e-07 1.705493701925e-07 1.786615706684e-07
1.783900634270e-07 1.713196872162e-07 1.785774382570e-07
1.924847602888e-07 1.661106746884e-07 1.827470516786e-07
1.693530377543e-07 1.785326027067e-07 1.878121017573e-07
1.700692928937e-07 1.799854016842e-07 1.864238479855e-07
1.769283435462e-07 1.704525094000e-07 1.787549868909e-07
1.768989945563e-07 1.696620264517e-07 1.783489690252e-07
1.701608754943e-07 1.790177414603e-07 1.868927536606e-07
1.770634922902e-07 1.711695293721e-07 1.790934132964e-07
1.800073301730e-07 1.637433790913e-07 1.744005317959e-07
1.664603846276e-07 1.750599097262e-07 1.901891876430e-07
1.823492070906e-07 1.789033500976e-07 1.824376641073e-07
1.825851615349e-07 1.781430608187e-07 1.741999030408e-07
1.697762875293e-07 1.802073232839e-07 1.849967365439e-07
1.847918044351e-07 1.692022975168e-07 1.858501036310e-07
1.782028659377e-07 1.845599902830e-07 1.819711018052e-07
1.773775685680e-07 1.791126465853e-07 1.862934730467e-07
1.705776016480e-07 1.795639859510e-07 1.869132867524e-07
1.564865261126e-07 1.769594457637e-07 1.846906294081e-07
1.702964410334e-07 1.801186646625e-07 1.865679571710e-07
1.740824395659e-07 1.740754702931e-07 1.812547233634e-07
1.700034538812e-07 1.795667553855e-07 1.863058415365e-07
1.737554918623e-07 1.709879024253e-07 1.808182413862e-07
1.823814175386e-07 1.785018604603e-07 1.740798025404e-07
1.783529530143e-07 1.706575288490e-07 1.781972027569e-07
1.913317241377e-07 1.655063885017e-07 1.825867512608e-07
1.773212551629e-07 1.711197820831e-07 1.786335942782e-07
1.832908552464e-07 1.838925382597e-07 1.793279491308e-07
1.837085665212e-07 1.835979759772e-07 1.792949091610e-07
1.784126542294e-07 1.840948160731e-07 1.810911739684e-07
1.553110479448e-07 1.783528222071e-07 1.833433937426e-07
1.701653964239e-07 1.735108616823e-07 1.852011682469e-07
1.704379880799e-07 1.797438751507e-07 1.874992822124e-07
1.771847554447e-07 1.788624270897e-07 1.861660851655e-07
1.655805016802e-07 1.731211371766e-07 1.884101449187e-07
1.844021850042e-07 1.680362866247e-07 1.846831440987e-07
1.799383074126e-07 1.790556846425e-07 1.843541126198e-07
1.643037957557e-07 1.852086257806e-07 1.915492235461e-07
1.751069665675e-07 1.781187419906e-07 1.873334569489e-07
1.704272853494e-07 1.801502693407e-07 1.860828320518e-07
1.753954534857e-07 1.706091954595e-07 1.795432619718e-07
1.836743485470e-07 1.681261235247e-07 1.857434978323e-07
1.777068628248e-07 1.797873403742e-07 1.867108113930e-07
1.703613685783e-07 1.790268019197e-07 1.868586179093e-07
1.739955021147e-07 1.921025686861e-07 1.788511334089e-07
1.840825902702e-07 1.795347139099e-07 1.736581016935e-07
1.697813773658e-07 1.716664815232e-07 1.848139518451e-07