<?xml version="1.0"?>
<!-- Time step: 120 | Time: 1.036800000000e+08 -->
<VTKFile type="UnstructuredGrid" version="0.1" byte_order="LittleEndian">
  <UnstructuredGrid>
    <Piece NumberOfPoints="1266" NumberOfCells="5963">
      <Points>
        <DataArray type="Float64" NumberOfComponents="3" format="ascii">
          0.000000000000e+00 0.000000000000e+00 0.000000000000e+00
          1.000000000000e+02 0.000000000000e+00 0.000000000000e+00
          1.000000000000e+02 1.000000000000e+02 0.000000000000e+00
          0.000000000000e+00 1.000000000000e+02 0.000000000000e+00
          0.000000000000e+00 1.000000000000e+02 1.000000000000e+02
          1.000000000000e+02 1.000000000000e+02 1.000000000000e+02
          1.000000000000e+02 0.000000000000e+00 1.000000000000e+02
          0.000000000000e+00 0.000000000000e+00 1.000000000000e+02
          1.111111111106e+01 1.000000000000e+02 0.000000000000e+00
          2.222222222212e+01 1.000000000000e+02 0.000000000000e+00
          3.333333333320e+01 1.000000000000e+02 0.000000000000e+00
          4.444444444427e+01 1.000000000000e+02 0.000000000000e+00
          5.555555555537e+01 1.000000000000e+02 0.000000000000e+00
          6.666666666651e+01 1.000000000000e+02 0.000000000000e+00
          7.777777777765e+01 1.000000000000e+02 0.000000000000e+00
          8.888888888883e+01 1.000000000000e+02 0.000000000000e+00
          1.000000000000e+02 8.888888888897e+01 0.000000000000e+00
          1.000000000000e+02 7.777777777794e+01 0.000000000000e+00
          1.000000000000e+02 6.666666666687e+01 0.000000000000e+00
          1.000000000000e+02 5.555555555580e+01 0.000000000000e+00
          1.000000000000e+02 4.444444444469e+01 0.000000000000e+00
          1.000000000000e+02 3.333333333354e+01 0.000000000000e+00
          1.000000000000e+02 2.222222222238e+01 0.000000000000e+00
          1.000000000000e+02 1.111111111119e+01 0.000000000000e+00
          8.888888888897e+01 0.000000000000e+00 0.000000000000e+00
          7.777777777794e+01 0.000000000000e+00 0.000000000000e+00
          6.666666666687e+01 0.000000000000e+00 0.000000000000e+00
          5.555555555580e+01 0.000000000000e+00 0.000000000000e+00
          4.444444444469e+01 0.000000000000e+00 0.000000000000e+00
          3.333333333354e+01 0.000000000000e+00 0.000000000000e+00
          2.222222222238e+01 0.000000000000e+00 0.000000000000e+00
          1.111111111119e+01 0.000000000000e+00 0.000000000000e+00
          0.000000000000e+00 1.111111111106e+01 0.000000000000e+00
          0.000000000000e+00 2.222222222212e+01 0.000000000000e+00
          0.000000000000e+00 3.333333333320e+01 0.000000000000e+00
          0.000000000000e+00 4.444444444427e+01 0.000000000000e+00
          0.000000000000e+00 5.555555555537e+01 0.000000000000e+00
          0.000000000000e+00 6.666666666651e+01 0.000000000000e+00
          0.000000000000e+00 7.777777777765e+01 0.000000000000e+00
          0.000000000000e+00 8.888888888883e+01 0.000000000000e+00
          1.111111111106e+01 1.000000000000e+02 1.000000000000e+02
          2.222222222212e+01 1.000000000000e+02 1.000000000000e+02
          3.333333333320e+01 1.000000000000e+02 1.000000000000e+02
          4.444444444427e+01 1.000000000000e+02 1.000000000000e+02
          5.555555555537e+01 1.000000000000e+02 1.000000000000e+02
          6.666666666651e+01 1.000000000000e+02 1.000000000000e+02
          7.777777777765e+01 1.000000000000e+02 1.000000000000e+02
          8.888888888883e+01 1.000000000000e+02 1.000000000000e+02
          1.000000000000e+02 8.888888888897e+01 1.000000000000e+02
          1.000000000000e+02 7.777777777794e+01 1.000000000000e+02
          1.000000000000e+02 6.666666666687e+01 1.000000000000e+02
          1.000000000000e+02 5.555555555580e+01 1.000000000000e+02
          1.000000000000e+02 4.444444444469e+01 1.000000000000e+02
          1.000000000000e+02 3.333333333354e+01 1.000000000000e+02
          1.000000000000e+02 2.222222222238e+01 1.000000000000e+02
          1.000000000000e+02 1.111111111119e+01 1.000000000000e+02
          8.888888888897e+01 0.000000000000e+00 1.000000000000e+02
          7.777777777794e+01 0.000000000000e+00 1.000000000000e+02
          6.666666666687e+01 0.000000000000e+00 1.000000000000e+02
          5.555555555580e+01 0.000000000000e+00 1.000000000000e+02
          4.444444444469e+01 0.000000000000e+00 1.000000000000e+02
          3.333333333354e+01 0.000000000000e+00 1.000000000000e+02
          2.222222222238e+01 0.000000000000e+00 1.000000000000e+02
          1.111111111119e+01 0.000000000000e+00 1.000000000000e+02
          0.000000000000e+00 1.111111111106e+01 1.000000000000e+02
          0.000000000000e+00 2.222222222212e+01 1.000000000000e+02
          0.000000000000e+00 3.333333333320e+01 1.000000000000e+02
          0.000000000000e+00 4.444444444427e+01 1.000000000000e+02
          0.000000000000e+00 5.555555555537e+01 1.000000000000e+02
          0.000000000000e+00 6.666666666651e+01 1.000000000000e+02
          0.000000000000e+00 7.777777777765e+01 1.000000000000e+02
          0.000000000000e+00 8.888888888883e+01 1.000000000000e+02
          0.000000000000e+00 1.000000000000e+02 1.111111111106e+01
          0.000000000000e+00 1.000000000000e+02 2.222222222212e+01
          0.000000000000e+00 1.000000000000e+02 3.333333333320e+01
          0.000000000000e+00 1.000000000000e+02 4.444444444427e+01
          0.000000000000e+00 1.000000000000e+02 5.555555555537e+01
          0.000000000000e+00 1.000000000000e+02 6.666666666651e+01
          0.000000000000e+00 1.000000000000e+02 7.777777777765e+01
          0.000000000000e+00 1.000000000000e+02 8.888888888883e+01
          1.000000000000e+02 1.000000000000e+02 1.111111111106e+01
          1.000000000000e+02 1.000000000000e+02 2.222222222212e+01
          1.000000000000e+02 1.000000000000e+02 3.333333333320e+01
          1.000000000000e+02 1.000000000000e+02 4.444444444427e+01
          1.000000000000e+02 1.000000000000e+02 5.555555555537e+01
          1.000000000000e+02 1.000000000000e+02 6.666666666651e+01
          1.000000000000e+02 1.000000000000e+02 7.777777777765e+01
          1.000000000000e+02 1.000000000000e+02 8.888888888883e+01
          1.000000000000e+02 0.000000000000e+00 1.111111111106e+01
          1.000000000000e+02 0.000000000000e+00 2.222222222212e+01
          1.000000000000e+02 0.000000000000e+00 3.333333333320e+01
          1.000000000000e+02 0.000000000000e+00 4.444444444427e+01
          1.000000000000e+02 0.000000000000e+00 5.555555555537e+01
          1.000000000000e+02 0.000000000000e+00 6.666666666651e+01
          1.000000000000e+02 0.000000000000e+00 7.777777777765e+01
          1.000000000000e+02 0.000000000000e+00 8.888888888883e+01
          0.000000000000e+00 0.000000000000e+00 1.111111111106e+01
          0.000000000000e+00 0.000000000000e+00 2.222222222212e+01
          0.000000000000e+00 0.000000000000e+00 3.333333333320e+01
          0.000000000000e+00 0.000000000000e+00 4.444444444427e+01
          0.000000000000e+00 0.000000000000e+00 5.555555555537e+01
          0.000000000000e+00 0.000000000000e+00 6.666666666651e+01
          0.000000000000e+00 0.000000000000e+00 7.777777777765e+01
          0.000000000000e+00 0.000000000000e+00 8.888888888883e+01
          5.972450389358e+01 5.926588690043e+01 0.000000000000e+00
          2.088626712144e+01 7.016502048604e+01 0.000000000000e+00
          8.254583870360e+01 7.466289679013e+01 0.000000000000e+00
          6.909235246993e+01 1.825446745136e+01 0.000000000000e+00
          1.606706646292e+01 9.230869923411e+01 0.000000000000e+00
          8.094958735630e+01 1.288644198869e+01 0.000000000000e+00
          4.944636406688e+01 2.684338343643e+01 0.000000000000e+00
          5.623350872403e+01 7.870115704183e+01 0.000000000000e+00
          4.329323963657e+01 4.644108473743e+01 0.000000000000e+00
          4.041549052266e+01 6.615753266278e+01 0.000000000000e+00
          6.516957939864e+01 4.081982933660e+01 0.000000000000e+00
          8.563501255860e+01 3.429953625468e+01 0.000000000000e+00
          5.311460899389e+01 1.447037716446e+01 0.000000000000e+00
          1.127246287801e+01 6.084192116848e+01 0.000000000000e+00
          8.915493002185e+01 2.335515947183e+01 0.000000000000e+00
          7.394684926206e+01 7.344972703236e+01 0.000000000000e+00
          3.226849252942e+01 8.423663649433e+01 0.000000000000e+00
          1.148380667910e+01 7.346553533214e+01 0.000000000000e+00
          6.968904048703e+01 9.144313763763e+01 0.000000000000e+00
          6.155727522621e+01 9.587306770864e+00 0.000000000000e+00
          9.210429382256e+01 1.247518231117e+01 0.000000000000e+00
          1.547380559855e+01 1.010547412439e+01 0.000000000000e+00
          8.779254543699e+00 8.467479040449e+01 0.000000000000e+00
          9.056540731776e+01 8.128053614282e+01 0.000000000000e+00
          2.075815589967e+01 8.234700969929e+01 0.000000000000e+00
          5.675713868719e+01 6.922394791826e+01 0.000000000000e+00
          4.512446167379e+01 8.360205177447e+01 0.000000000000e+00
          4.308392138833e+01 2.091739116723e+01 0.000000000000e+00
          7.012178347756e+01 5.753621427371e+01 0.000000000000e+00
          4.289062983740e+01 1.195148649998e+01 0.000000000000e+00
          3.685371198137e+01 2.907200866676e+01 0.000000000000e+00
          5.970181510844e+01 2.393471151025e+01 0.000000000000e+00
          7.290016107361e+01 4.782543021411e+01 0.000000000000e+00
          3.745795405733e+01 7.563399187031e+01 0.000000000000e+00
          4.991290681920e+01 6.285175530851e+01 0.000000000000e+00
          5.500499009499e+01 4.349909440388e+01 0.000000000000e+00
          5.741300731456e+01 3.395877240255e+01 0.000000000000e+00
          4.724046210050e+01 7.269898498582e+01 0.000000000000e+00
          4.424703619441e+01 5.746130674926e+01 0.000000000000e+00
          6.481660657681e+01 7.378769339917e+01 0.000000000000e+00
[...]
      <PointData Scalars="HEAD">
        <DataArray type="Float64" Name="HEAD" format="ascii">
          1.000000000000e+00 5.148675771816e-01 5.080797290686e-01 5.148255408814e-01 5.081123073205e-01 0.000000000000e+00 5.081319717104e-01 5.147928811180e-01 5.145799602425e-01 5.140003123361e-01 5.131298154482e-01 5.120552031579e-01 5.108992890410e-01 5.098122776233e-01 5.088565164364e-01 5.082740720880e-01 5.083090576203e-01 5.089212335751e-01 5.098493345854e-01 5.108992003272e-01 5.120653330449e-01 5.130748837463e-01 5.140503996258e-01 5.147083147994e-01 5.152980691348e-01 5.166153840349e-01 5.188739452644e-01 5.225418292724e-01 5.285389098199e-01 5.381176259170e-01 5.574413929418e-01 6.123645378570e-01 6.133648097964e-01 5.607808748562e-01 5.385843536489e-01 5.283931917982e-01 5.227010895184e-01 5.189712811505e-01 5.165313534642e-01 5.152505988199e-01 5.076345255037e-01 5.063059393450e-01 5.040389789494e-01 5.000737298582e-01 4.937601021928e-01 4.844211521904e-01 4.649260568649e-01 4.197421988596e-01 4.165890946692e-01 4.639605448652e-01 4.844340613391e-01 4.947707363788e-01 5.003165895626e-01 5.040554794431e-01 5.063718682360e-01 5.077048483741e-01 5.083951236511e-01 5.089238636816e-01 5.097974364315e-01 5.109248471531e-01 5.120920312907e-01 5.131136308393e-01 5.140251473495e-01 5.145920896300e-01 5.145844920972e-01 5.140188709413e-01 5.131440499899e-01 5.120442282340e-01 5.108822984439e-01 5.097653995720e-01 5.088547469700e-01 5.083102089946e-01 5.145945599797e-01 5.140057216605e-01 5.131004842211e-01 5.120566458695e-01 5.108856242681e-01 5.097919034102e-01 5.089076929261e-01 5.083318374924e-01 5.076881265530e-01 5.064069318520e-01 5.039683223558e-01 5.003015434147e-01 4.940808617968e-01 4.840231691331e-01 4.622058172505e-01 4.180463477539e-01 5.146840255695e-01 5.140908479812e-01 5.131456392846e-01 5.121021041687e-01 5.109056792034e-01 5.098325324461e-01 5.089088483418e-01 5.083878548623e-01 6.084758218823e-01 5.592517846359e-01 5.382415540174e-01 5.285039529598e-01 5.226454230164e-01 5.188800590898e-01 5.165636640658e-01 5.152603122461e-01 5.136533297794e-01 5.170568097738e-01 5.097108971169e-01 5.175072972079e-01 5.145522145807e-01 5.159673779287e-01 5.221812333725e-01 5.118104359152e-01 5.191678031352e-01 5.153957649889e-01 5.155907126715e-01 5.136023811425e-01 5.228200382722e-01 5.202889218970e-01 5.143272008660e-01 5.104301103748e-01 5.139855075045e-01 5.169813640586e-01 5.097163474105e-01 5.201288073405e-01 5.148458790100e-01 5.719131136767e-01 5.154797777437e-01 5.088980726446e-01 5.152159246204e-01 5.128107899409e-01 5.126445627085e-01 5.262241562150e-01 5.125235933052e-01 5.287340360826e-01 5.268831790589e-01 5.192241757095e-01 5.134078300406e-01 5.143300402988e-01 5.145600076248e-01 5.171156069979e-01 5.183149421768e-01 5.135385085154e-01 5.164609188618e-01 5.113288845091e-01 5.347748771715e-01 5.194663341827e-01 5.348939924988e-01 5.108529928631e-01 5.207195867046e-01 5.107665910777e-01 5.144857648252e-01 5.166483667434e-01 5.146080872650e-01 5.158142790148e-01 5.129362609522e-01 5.128613819936e-01 5.183190499023e-01 5.118754330808e-01 5.138816441016e-01 5.154065346746e-01 5.152756865247e-01 5.195630089027e-01 5.104358948655e-01 5.465747019732e-01 5.164987293602e-01 5.092565102043e-01 5.148865025320e-01 5.083711147921e-01 5.123294969548e-01 5.116157596812e-01 5.237980646623e-01 5.246259575263e-01 5.118039763737e-01 5.298001915237e-01 5.356391585964e-01 5.695203904976e-01 5.099026435506e-01 5.300511301798e-01 6.317586445145e-01 5.225154702188e-01 5.240830525246e-01 5.277860253517e-01 5.428501805030e-01 5.234466360128e-01 5.493497563009e-01 5.109791418549e-01 5.148911147482e-01 5.176696178954e-01 5.031122746454e-01 5.079758366038e-01 5.065329250471e-01 5.115467382032e-01 4.790163722881e-01 5.074044700453e-01 5.068555960218e-01 4.977247029311e-01 5.088549655893e-01 5.098239995258e-01 5.112041790882e-01 4.991599454879e-01 5.109241464618e-01 5.037846610227e-01 5.067921756918e-01 5.103733498151e-01 4.975546455854e-01 5.127828363734e-01 5.130926946611e-01 5.057276502878e-01 5.137715958492e-01 5.082925971681e-01 4.553023121209e-01 5.139721473054e-01 5.109332195097e-01 5.103226144976e-01 5.026600766552e-01 5.095125074611e-01 5.046483568146e-01 4.902825181149e-01 5.078662301873e-01 5.081214137817e-01 5.004234116891e-01 5.007713138024e-01 5.064811441215e-01 5.117014358279e-01 5.126035344142e-01 4.899425514753e-01 5.093696460638e-01 5.053963116352e-01 4.967686415961e-01 4.972588858748e-01 5.027717365274e-01 4.799067126265e-01 5.097838485219e-01 5.009625835103e-01 5.023825025524e-01 5.083940635634e-01 4.514403321855e-01 4.963021929973e-01 5.028583441987e-01 5.129210267903e-01 5.052555854629e-01 4.895245057601e-01 5.103401254225e-01 4.914930297118e-01 5.057022635494e-01 5.052756962035e-01 5.078484785213e-01 5.112275222993e-01 4.799637208418e-01 4.920207126176e-01 5.087865069440e-01 5.145272635638e-01 5.120981753073e-01 5.052657287122e-01 4.984098340806e-01 4.800546027059e-01 5.075237508397e-01 5.121819580017e-01 5.097552558729e-01 5.089284870968e-01 5.057671984911e-01 5.101908010323e-01 5.090476944325e-01 5.080187077838e-01 3.977458734889e-01 5.029171558004e-01 5.081132491624e-01 5.075850711840e-01 5.034591133646e-01 5.068923061272e-01 5.067705460810e-01 4.866494000729e-01 5.070998748202e-01 5.141189843165e-01 4.528944621401e-01 5.081952910040e-01 5.079924029717e-01 5.094434620939e-01 5.105807386481e-01 4.998791357872e-01 5.018393245790e-01 5.119799159733e-01 5.044960399599e-01 5.111017532393e-01 4.893145820329e-01 5.091867481983e-01 5.024309748715e-01 5.046230340190e-01 4.982947259759e-01 5.086259342483e-01 5.133763062515e-01 5.055522737606e-01 4.710573993628e-01 5.057154600402e-01 4.429440566270e-01 5.060380936281e-01 5.078524729013e-01 5.073489445989e-01 5.099949588547e-01 5.079959924117e-01 5.108200914957e-01 5.054852553285e-01 5.113232564823e-01 5.072943318420e-01 5.001654845259e-01 5.090322211542e-01 5.089823102783e-01 4.974268318619e-01 5.066916371596e-01 5.108921945078e-01 5.047304310363e-01 4.938328594304e-01 5.123713303196e-01 4.908395781155e-01 5.016499930315e-01 5.025180904373e-01 5.016328715211e-01 4.952671702754e-01 5.120842378837e-01 4.911560982039e-01 5.095727699468e-01 4.822790201150e-01 5.077325440479e-01 4.974030068398e-01 5.115056247387e-01 5.087639333294e-01 4.990496715393e-01 3.903517276221e-01 5.073563795572e-01 5.062625649886e-01 4.947467220387e-01 5.087190084825e-01 4.783118393707e-01 5.026413395325e-01 5.103134649520e-01 5.101099583661e-01 5.130835426453e-01 4.986714545900e-01 5.083218543343e-01 5.121640238355e-01 5.131461031405e-01 5.073697155451e-01 5.125224475669e-01 4.773074057316e-01 5.047800763850e-01 5.146081756783e-01 5.089788867511e-01 5.096683969259e-01 5.141413138037e-01 5.073698732384e-01 5.080571833542e-01 5.145428786831e-01 5.162522944448e-01 5.154285241173e-01 5.102601165328e-01 5.149704098209e-01 5.660098929517e-01 5.087662854217e-01 5.154434797176e-01 5.149182833279e-01 5.214098132701e-01 5.230902549787e-01 5.123378153649e-01 5.128867384391e-01 5.294076322136e-01 5.154273362505e-01 5.240490975348e-01 5.103447609955e-01 5.182476767579e-01 5.128512468140e-01 5.136589427013e-01 5.123168121467e-01 5.164955516128e-01 5.425356643422e-01 5.152956408372e-01 5.092412972795e-01 5.140029039827e-01 5.086904383305e-01 5.140535856854e-01 5.164101371078e-01 5.146328531286e-01 5.229768451364e-01 5.183246498377e-01 5.242712383732e-01 5.156790333176e-01 5.270974775224e-01 5.179558376134e-01 5.131329850611e-01 5.189673441299e-01 5.207351832756e-01 5.115386644079e-01 5.169010310248e-01 5.250751783664e-01 5.144332478730e-01 5.111003745281e-01 5.318521389041e-01 5.104976954143e-01 5.125596918569e-01 5.134777725743e-01 5.135191610347e-01 5.115393981420e-01 5.309899179389e-01 5.107766371051e-01 5.210038483385e-01 5.097147714269e-01 5.172349012189e-01 5.115667666557e-01 5.259872712130e-01 5.195558621536e-01 5.121843704371e-01 5.083548476269e-01 5.180542376445e-01 5.150350692873e-01 5.115094053377e-01 5.172205212761e-01 5.095961954844e-01 5.136276929697e-01 5.210510459218e-01 5.201512257379e-01 5.418291781717e-01 5.122579798734e-01 5.157455051575e-01 5.316011817017e-01 5.398742204812e-01 5.152558122823e-01 5.323985000106e-01 5.095288775362e-01 5.141699928444e-01 6.110210129214e-01 5.170185420372e-01 5.202731821184e-01 5.640766612554e-01 5.146997816613e-01 5.148972916150e-01 5.143340861686e-01 5.160098762464e-01 5.161440433183e-01 5.091483011009e-01 5.146197415738e-01 5.705128243729e-01 6.268470459076e-01 5.196575374794e-01 5.114783724473e-01 5.274162850976e-01 5.214117586830e-01 5.115476687324e-01 5.207269853518e-01 5.129181593685e-01 5.154400136220e-01 5.101093501604e-01 5.187915216461e-01 5.240400884435e-01 5.145199335117e-01 5.456928442706e-01 5.205904248882e-01 5.139167633530e-01 5.171282488461e-01 5.163468106243e-01 5.095097006792e-01 5.385963656806e-01 5.155408741110e-01 5.471930472531e-01 5.148430489373e-01 5.129905783900e-01 5.682189141160e-01 5.154311528932e-01 5.169344999936e-01 5.222088672150e-01 5.125382319414e-01 5.117517840963e-01 5.126897064089e-01 5.252507310161e-01 5.108632320186e-01 5.176616634316e-01 5.145072435588e-01 5.138745432091e-01 5.203378050541e-01 5.172911920842e-01 5.149871969202e-01 5.133219164996e-01 5.127994508021e-01 5.179416701670e-01 5.118550925964e-01 5.229147962256e-01 5.217428567920e-01 5.274003926834e-01 5.142236818552e-01 5.107476610714e-01 5.166268792887e-01 5.179413399065e-01 5.122628554713e-01 5.268046783600e-01 5.157498170974e-01 5.096580771088e-01 5.177236205784e-01 5.107917905658e-01 5.282223457815e-01 5.330221718030e-01 5.182901007250e-01 5.129065624730e-01 5.202667943375e-01 5.141890327364e-01 5.299446564236e-01 5.148815899054e-01 5.252661079896e-01 5.091779590699e-01 5.345489487574e-01 5.340343361543e-01 5.106029168668e-01 5.100790516452e-01 5.086444310708e-01 5.085681201635e-01 5.153434056197e-01 5.117092001717e-01 5.082971380310e-01 5.226834036077e-01 5.148478282572e-01 5.041841603272e-01 5.079028693104e-01 5.125372280002e-01 4.848158459724e-01 5.087583477377e-01 5.141737034844e-01 5.083445181558e-01 4.514455687039e-01 4.985205498637e-01 5.004291910775e-01 5.104973050003e-01 5.114301210678e-01 5.062303452156e-01 5.095799419388e-01 5.052444013068e-01 5.095195907414e-01 5.060270225658e-01 5.112714383496e-01 5.067835806014e-01 5.134199124327e-01 5.085872309989e-01 5.092801996061e-01 5.077153429324e-01 5.142198166515e-01 5.071693729176e-01 4.601441574569e-01 5.051873017340e-01 5.136640209652e-01 5.004042150750e-01 5.078505654915e-01 5.105244902250e-01 5.028683404145e-01 5.079384766193e-01 5.013982072441e-01 5.095762234638e-01 5.108257440751e-01 5.055740965909e-01 5.046412831903e-01 5.052273074984e-01 5.074331221914e-01 5.087061296343e-01 5.115553839864e-01 5.093335767486e-01 5.029387206758e-01 5.115460187115e-01 4.983051078095e-01 5.098744847053e-01 5.077467830645e-01 5.118586174720e-01 5.035339933785e-01 4.987002751408e-01 5.099919576149e-01 5.071690838701e-01 5.121519833085e-01 5.112675700462e-01 4.929363752640e-01 5.127498193155e-01 5.035496193942e-01 5.025251942986e-01 5.124179770051e-01 5.125556677576e-01 4.896872117671e-01 5.061812187680e-01 4.961761532551e-01 5.041125589958e-01 5.135498239747e-01 5.101177937336e-01 5.084382006738e-01 3.856362786108e-01 5.146091243530e-01 4.847940017117e-01 4.950175292326e-01 4.942330213659e-01 5.020376299821e-01 4.993832275561e-01 4.886419531194e-01 4.764198444280e-01 4.727753766019e-01 5.080436427772e-01 5.081611741549e-01 5.114193630992e-01 5.005845288241e-01 5.139927207662e-01 5.183909965609e-01 5.089508649423e-01 5.088801808985e-01 5.139386185833e-01 5.089480460942e-01 5.113008519671e-01 5.191247364347e-01 5.080510840482e-01 5.073771198704e-01 5.146522723428e-01 5.145732541640e-01 5.153326786852e-01 5.021703335633e-01 5.024319249654e-01 5.114580387062e-01 5.208058368239e-01 5.114754063280e-01 5.069614081357e-01 5.021555506203e-01 5.115067969268e-01 5.116095667855e-01 5.298037238268e-01 5.114915921056e-01 5.109390056753e-01 4.855573351094e-01 5.130487369695e-01 5.198446616961e-01 5.200489042876e-01 5.145875769055e-01 5.069250175165e-01 5.082532565474e-01 5.082684380639e-01 5.207699427996e-01 5.158440391138e-01 5.135228681025e-01 5.060375649936e-01 5.022132104851e-01 5.067838136897e-01 5.164807412113e-01 5.158121791797e-01 5.079621187848e-01 5.104485705108e-01 5.062102694260e-01 5.090915926746e-01 5.155335786372e-01 5.014538801460e-01 5.114316526633e-01 5.209998876182e-01 5.106667694516e-01 5.152722937468e-01 4.980984415161e-01 5.114516023525e-01 5.094430627808e-01 5.124706980989e-01 5.163145942352e-01 5.135002266040e-01 5.086061926769e-01 5.119754965608e-01 5.111089485479e-01 5.118036759438e-01 5.137400670120e-01 5.078996478824e-01 5.129289489623e-01 5.149412203348e-01 5.121393216231e-01 5.079595450349e-01 5.165499753492e-01 4.942353637207e-01 4.958272069810e-01 5.047288195933e-01 5.064731584312e-01 5.162094267077e-01 5.275306616812e-01 4.948923213288e-01 5.049487569491e-01 5.135551803382e-01 5.101437385365e-01 5.061617791921e-01 5.098677139612e-01 5.125145845678e-01 5.097875860796e-01 5.268451857742e-01 5.082026293547e-01 5.116366829778e-01 5.132854525596e-01 5.308514907667e-01 5.099235185225e-01 5.200917834603e-01 5.064372343203e-01 5.487162325687e-01 5.194412238200e-01 5.031775477204e-01 5.147535650825e-01 5.212916294951e-01 5.098313679597e-01 5.093938888408e-01 5.166882607335e-01 5.037979718014e-01 5.055769763216e-01 5.146375802841e-01 5.173272646981e-01 5.147533762868e-01 5.147646510691e-01 4.963953413849e-01 5.113337102432e-01 5.039992353297e-01 5.074800284767e-01 5.178266650405e-01 5.098734771828e-01 5.138773198422e-01 5.133571832439e-01 5.143297956270e-01 5.112180987448e-01 5.076060678294e-01 5.121096458843e-01 4.975340811700e-01 4.971882265981e-01 5.119387820344e-01 5.208676630826e-01 5.085236596685e-01 4.971315191273e-01 5.048251823791e-01 5.046467402565e-01 5.115560239134e-01 5.090493014769e-01 5.131564900690e-01 5.179219297141e-01 5.071181223624e-01 5.111742998242e-01 5.073065977374e-01 5.104516521487e-01 5.103348606596e-01 5.172074430119e-01 5.170939203854e-01 5.096320860233e-01 5.171349742111e-01 5.104300873487e-01 5.145940774558e-01 5.174518223804e-01 5.137281440217e-01 5.081586010813e-01 5.149339306546e-01 5.130360394493e-01 5.210575616652e-01 5.112816880527e-01 5.028230167707e-01 5.079437003553e-01 5.040122311711e-01 5.016729717455e-01 5.104045016036e-01 5.118680285880e-01 5.261416220600e-01 5.169304300487e-01 4.856213720279e-01 5.016059061327e-01 5.111300193958e-01 5.205864858588e-01 5.281008471113e-01 5.025366277551e-01 5.055260998945e-01 5.187443599840e-01 5.115577753901e-01 5.112797135554e-01 5.115952372604e-01 4.817555142353e-01 5.142342906681e-01 5.076208683454e-01 5.134912171806e-01 5.118271848345e-01 5.258998239153e-01 5.094097553126e-01 5.023479718830e-01 5.191150444850e-01 5.136894864706e-01 5.164176451702e-01 5.091542539862e-01 4.835463631372e-01 5.004170351918e-01 5.063065979356e-01 5.136326557970e-01 5.102046310017e-01 5.002635316223e-01 5.137419825116e-01 5.021573795420e-01 5.231420143267e-01 5.156197050971e-01 5.153196473327e-01 5.133305386383e-01 5.081174255605e-01 5.238258782208e-01 5.143431649395e-01 4.622532630826e-01 5.096905974346e-01 5.114629102175e-01 5.055767757700e-01 5.112387615309e-01 5.190145681022e-01 4.948549610512e-01 4.889090439209e-01 5.037014544051e-01 5.104746218332e-01 5.122483025209e-01 4.959460434404e-01 5.092295162814e-01 5.085507045490e-01 5.137435311033e-01 5.063804022468e-01 5.064496902255e-01 5.133372160472e-01 5.089990888843e-01 5.178153338611e-01 5.075917823947e-01 5.086710619772e-01 5.341719819089e-01 5.094808956328e-01 5.129689129899e-01 5.134619762503e-01 5.089140534244e-01 5.395862196015e-01 5.113076237656e-01 5.147770322912e-01 5.243759148143e-01 5.167604827510e-01 5.084072842412e-01 5.113832372624e-01 5.173635987303e-01 5.094335005677e-01 5.061762696961e-01 4.866724730548e-01 5.012535229851e-01 5.054081357428e-01 5.067305843593e-01 5.151894301146e-01 5.130760159979e-01 5.165930251215e-01 5.237790571908e-01 5.077313978332e-01 5.128617766235e-01 5.119603171971e-01 5.355431062672e-01 5.098101770245e-01 5.039678234657e-01 4.949840180298e-01 5.041596187170e-01 5.208652590974e-01 5.154226891866e-01 5.058740747235e-01 5.159698169382e-01 5.083383001143e-01 5.214614353250e-01 5.122610534698e-01 5.131140108374e-01 5.047858711118e-01 5.059393914546e-01 5.089147878287e-01 5.184504163913e-01 5.072905808255e-01 5.235094128218e-01 5.104620132067e-01 4.959141109705e-01 5.017245560013e-01 5.117013409469e-01 5.162051542399e-01 5.113672217560e-01 5.137070872275e-01 5.165889785807e-01 5.157121747508e-01 5.106281710868e-01 5.062510333964e-01 5.126765536404e-01 5.128932355918e-01 5.132427993741e-01 5.090046725664e-01 5.097842916357e-01 5.095352941001e-01 5.163906876774e-01 5.084473800735e-01 5.102462019753e-01 5.136335324846e-01 5.101363264752e-01 5.250793067018e-01 5.119248753970e-01 5.124787484797e-01 5.124887039812e-01 5.074915057076e-01 5.243441273210e-01 5.097668590522e-01 4.970298094849e-01 5.017309985370e-01 5.123867889489e-01 5.013966898064e-01 5.140128435258e-01 4.959350717306e-01 5.125249132663e-01 5.118938171495e-01 5.065233461198e-01 5.116659600927e-01 5.054930072973e-01 5.250572655609e-01 4.993182862445e-01 5.092958609152e-01 5.171920206379e-01 5.130097298569e-01 5.130760571147e-01 5.149058824294e-01 5.093413980810e-01 5.108533493291e-01 5.117145320448e-01 5.133201166686e-01 5.095766136095e-01 5.142538629993e-01 5.093598071956e-01 5.188393298000e-01 5.105111124491e-01 5.128385520384e-01 5.127047848861e-01 5.377216146508e-01 5.176264542847e-01 5.040005373124e-01 5.202918643979e-01 4.997769632281e-01 5.044456792755e-01 5.163623648778e-01 5.068615077489e-01 5.113796889073e-01 5.214158876207e-01 5.092505985626e-01 4.871067134780e-01 5.138775422877e-01 5.165775602279e-01 5.159377823643e-01 5.107584849953e-01 5.149247053029e-01 5.107134218410e-01 5.143733818923e-01 5.131230279541e-01 5.000021686549e-01 5.091969503671e-01 5.090658944450e-01 5.155262502888e-01 5.133722215090e-01 5.085253478520e-01 5.138294569356e-01 5.025361653653e-01 5.778478840937e-01 5.100016154164e-01 5.048710337195e-01 5.217645001050e-01 5.094997694701e-01 5.061770133080e-01 5.165950925442e-01 5.140051684233e-01 5.182980661516e-01 5.216844107753e-01 5.061578992237e-01 5.092671499602e-01 5.133618747237e-01 5.235645728085e-01 5.274198217751e-01 5.106531927570e-01 5.120629585403e-01 5.148573161866e-01 4.896014364938e-01 5.041123646914e-01 5.126577734253e-01 5.125159525641e-01 5.103084297451e-01 5.091188758896e-01 5.304269448430e-01 5.158013178309e-01 5.104707476660e-01 5.091700674091e-01 5.175323294841e-01 5.114919096635e-01 5.143964487001e-01 5.244761373336e-01 4.942376084360e-01 5.071940726583e-01 5.145071874468e-01 5.003276424988e-01 5.141575543565e-01 5.010454397765e-01 5.158621029085e-01 5.090421036419e-01 5.140881647427e-01 4.779806433427e-01 5.011307291369e-01 5.104738263913e-01 5.092257982880e-01 5.216160286907e-01 5.154761083158e-01 5.150056564056e-01 5.063201161589e-01 5.121140190811e-01 5.106675195211e-01 5.124515130628e-01 5.139426408585e-01 5.080704790887e-01 5.100901197310e-01 5.119254805249e-01 5.433623670972e-01 5.045129762463e-01 5.152641278036e-01 5.296503663869e-01 5.026458659870e-01 5.093338008438e-01 5.161378658455e-01 5.091706585951e-01 5.070771178382e-01 5.418376571286e-01 5.219870372577e-01 5.105287189759e-01 5.143307161236e-01 5.197691650235e-01 5.182626396124e-01 5.086746075723e-01 4.730837643409e-01 5.337882610436e-01 5.112621772963e-01 5.217405388320e-01 5.078941713506e-01 5.057420636152e-01 5.117340712618e-01 5.033445019113e-01 4.997254045935e-01 5.084051302871e-01 5.094325193862e-01 4.979787487852e-01 5.129099652950e-01 4.948128360128e-01 5.123934788334e-01 5.147587757176e-01 5.183811707526e-01 5.143940420636e-01 5.082342510643e-01 5.086759383340e-01 5.056017144579e-01 5.090237433950e-01 5.113267649819e-01 5.070743598957e-01 5.082680808121e-01 4.919716296576e-01 5.111894227009e-01 5.174778455622e-01 5.162273594170e-01 5.168522720698e-01 4.999109625472e-01 5.