VARIABLES  = "X","Y","Z", "PRESSURE1", "PRESSURE2", "SATURATION1", "SATURATION2"
ZONE T="0.000000000000e+00s", N=61, E=60, F=FEPOINT, ET=QUADRILATERAL
STRANDID=1, SOLUTIONTIME=0.000000000000e+00
0.000000000000e+00 0.000000000000e+00 0.000000000000e+00 -2.156000000000e+04 -2.156000000000e+04 3.203591064574e-01 1.332699895531e-01 
0.000000000000e+00 0.000000000000e+00 1.000000000000e-02 -2.165800000000e+04 -2.165800000000e+04 3.198251668052e-01 1.330319601101e-01 
0.000000000000e+00 0.000000000000e+00 2.000000000000e-02 -2.175600000000e+04 -2.175600000000e+04 3.187611294476e-01 1.325577968037e-01 
0.000000000000e+00 0.000000000000e+00 3.000000000000e-02 -2.185400000000e+04 -2.185400000000e+04 3.177047347810e-01 1.320874013812e-01 
0.000000000000e+00 0.000000000000e+00 4.000000000000e-02 -2.195200000000e+04 -2.195200000000e+04 3.166559009732e-01 1.316207276768e-01 
0.000000000000e+00 0.000000000000e+00 5.000000000000e-02 -2.205000000000e+04 -2.205000000000e+04 3.156145473254e-01 1.311577302861e-01 
0.000000000000e+00 0.000000000000e+00 6.000000000000e-02 -2.214800000000e+04 -2.214800000000e+04 3.145805942545e-01 1.306983645499e-01 
0.000000000000e+00 0.000000000000e+00 7.000000000000e-02 -2.224600000000e+04 -2.224600000000e+04 3.135539632743e-01 1.302425865389e-01 
0.000000000000e+00 0.000000000000e+00 8.000000000000e-02 -2.234400000000e+04 -2.234400000000e+04 3.125345769771e-01 1.297903530390e-01 
0.000000000000e+00 0.000000000000e+00 9.000000000000e-02 -2.244200000000e+04 -2.244200000000e+04 3.115223590168e-01 1.293416215367e-01 
0.000000000000e+00 0.000000000000e+00 1.000000000000e-01 -2.254000000000e+04 -2.254000000000e+04 3.105172340906e-01 1.288963502045e-01 
0.000000000000e+00 0.000000000000e+00 1.100000000000e-01 -2.263800000000e+04 -2.263800000000e+04 3.095191279226e-01 1.284544978876e-01 
0.000000000000e+00 0.000000000000e+00 1.200000000000e-01 -2.273600000000e+04 -2.273600000000e+04 3.085279672467e-01 1.280160240899e-01 
0.000000000000e+00 0.000000000000e+00 1.300000000000e-01 -2.283400000000e+04 -2.283400000000e+04 3.075436797902e-01 1.275808889610e-01 
0.000000000000e+00 0.000000000000e+00 1.400000000000e-01 -2.293200000000e+04 -2.293200000000e+04 3.065661942576e-01 1.271490532830e-01 
0.000000000000e+00 0.000000000000e+00 1.500000000000e-01 -2.303000000000e+04 -2.303000000000e+04 3.055954403151e-01 1.267204784586e-01 
0.000000000000e+00 0.000000000000e+00 1.600000000000e-01 -2.312800000000e+04 -2.312800000000e+04 3.046313485746e-01 1.262951264979e-01 
0.000000000000e+00 0.000000000000e+00 1.700000000000e-01 -2.322600000000e+04 -2.322600000000e+04 3.036738505784e-01 1.258729600073e-01 
0.000000000000e+00 0.000000000000e+00 1.800000000000e-01 -2.332400000000e+04 -2.332400000000e+04 3.027228787847e-01 1.254539421769e-01 
0.000000000000e+00 0.000000000000e+00 1.900000000000e-01 -2.342200000000e+04 -2.342200000000e+04 3.017783665523e-01 1.250380367699e-01 
0.000000000000e+00 0.000000000000e+00 2.000000000000e-01 -2.352000000000e+04 -2.352000000000e+04 3.008402481265e-01 1.246252081109e-01 
0.000000000000e+00 0.000000000000e+00 2.100000000000e-01 -2.361800000000e+04 -2.361800000000e+04 2.999084586249e-01 1.242154210750e-01 
0.000000000000e+00 0.000000000000e+00 2.200000000000e-01 -2.371600000000e+04 -2.371600000000e+04 2.989829340233e-01 1.238086410775e-01 
0.000000000000e+00 0.000000000000e+00 2.300000000000e-01 -2.381400000000e+04 -2.381400000000e+04 2.980636111419e-01 1.234048340633e-01 
0.000000000000e+00 0.000000000000e+00 2.400000000000e-01 -2.391200000000e+04 -2.391200000000e+04 2.971504276324e-01 1.230039664964e-01 
0.000000000000e+00 0.000000000000e+00 2.500000000000e-01 -2.401000000000e+04 -2.401000000000e+04 2.962433219641e-01 1.226060053507e-01 
0.000000000000e+00 0.000000000000e+00 2.600000000000e-01 -2.410800000000e+04 -2.410800000000e+04 2.953422334117e-01 1.222109180996e-01 
0.000000000000e+00 0.000000000000e+00 2.700000000000e-01 -2.420600000000e+04 -2.420600000000e+04 2.944471020418e-01 1.218186727069e-01 
0.000000000000e+00 0.000000000000e+00 2.800000000000e-01 -2.430400000000e+04 -2.430400000000e+04 2.935578687011e-01 1.214292376174e-01 
0.000000000000e+00 0.000000000000e+00 2.900000000000e-01 -2.440200000000e+04 -2.440200000000e+04 2.926744750037e-01 1.210425817479e-01 
0.000000000000e+00 0.000000000000e+00 3.000000000000e-01 -2.450000000000e+04 -2.450000000000e+04 2.917968633192e-01 1.206586744782e-01 
0.000000000000e+00 0.000000000000e+00 3.100000000000e-01 -2.459800000000e+04 -2.459800000000e+04 2.909249767609e-01 1.202774856428e-01 
0.000000000000e+00 0.000000000000e+00 3.200000000000e-01 -2.469600000000e+04 -2.469600000000e+04 2.900587591742e-01 1.198989855221e-01 
0.000000000000e+00 0.000000000000e+00 3.300000000000e-01 -2.479400000000e+04 -2.479400000000e+04 2.891981551252e-01 1.195231448342e-01 
0.000000000000e+00 0.000000000000e+00 3.400000000000e-01 -2.489200000000e+04 -2.489200000000e+04 2.883431098892e-01 1.191499347269e-01 
0.000000000000e+00 0.000000000000e+00 3.500000000000e-01 -2.499000000000e+04 -2.499000000000e+04 2.874935694402e-01 1.187793267697e-01 
0.000000000000e+00 0.000000000000e+00 3.600000000000e-01 -2.508800000000e+04 -2.508800000000e+04 2.866494804397e-01 1.184112929461e-01 
0.000000000000e+00 0.000000000000e+00 3.700000000000e-01 -2.518600000000e+04 -2.518600000000e+04 2.858107902264e-01 1.180458056463e-01 
0.000000000000e+00 0.000000000000e+00 3.800000000000e-01 -2.528400000000e+04 -2.528400000000e+04 2.849774468053e-01 1.176828376592e-01 
0.000000000000e+00 0.000000000000e+00 3.900000000000e-01 -2.538200000000e+04 -2.538200000000e+04 2.841493988380e-01 1.173223621657e-01 
0.000000000000e+00 0.000000000000e+00 4.000000000000e-01 -2.548000000000e+04 -2.548000000000e+04 2.833265956324e-01 1.169643527315e-01 
0.000000000000e+00 0.000000000000e+00 4.100000000000e-01 -2.557800000000e+04 -2.557800000000e+04 2.825089871326e-01 1.166087833001e-01 
0.000000000000e+00 0.000000000000e+00 4.200000000000e-01 -2.567600000000e+04 -2.567600000000e+04 2.816965239096e-01 1.162556281860e-01 
0.000000000000e+00 0.000000000000e+00 4.300000000000e-01 -2.577400000000e+04 -2.577400000000e+04 2.808891571514e-01 1.159048620680e-01 
0.000000000000e+00 0.000000000000e+00 4.400000000000e-01 -2.587200000000e+04 -2.587200000000e+04 2.800868386541e-01 1.155564599831e-01 
0.000000000000e+00 0.000000000000e+00 4.500000000000e-01 -2.597000000000e+04 -2.597000000000e+04 2.792895208121e-01 1.152103973197e-01 
0.000000000000e+00 0.000000000000e+00 4.600000000000e-01 -2.606800000000e+04 -2.606800000000e+04 2.784971566093e-01 1.148666498117e-01 
0.000000000000e+00 0.000000000000e+00 4.700000000000e-01 -2.616600000000e+04 -2.616600000000e+04 2.777096996105e-01 1.145251935321e-01 
0.000000000000e+00 0.000000000000e+00 4.800000000000e-01 -2.626400000000e+04 -2.626400000000e+04 2.769271039523e-01 1.141860048873e-01 
0.000000000000e+00 0.000000000000e+00 4.900000000000e-01 -2.636200000000e+04 -2.636200000000e+04 2.761493243346e-01 1.138490606115e-01 
0.000000000000e+00 0.000000000000e+00 5.000000000000e-01 -2.646000000000e+04 -2.646000000000e+04 2.753763160123e-01 1.135143377602e-01 
0.000000000000e+00 0.000000000000e+00 5.100000000000e-01 -2.655800000000e+04 -2.655800000000e+04 2.746080347869e-01 1.131818137056e-01 
0.000000000000e+00 0.000000000000e+00 5.200000000000e-01 -2.665600000000e+04 -2.665600000000e+04 2.738444369983e-01 1.128514661303e-01 
0.000000000000e+00 0.000000000000e+00 5.300000000000e-01 -2.675400000000e+04 -2.675400000000e+04 2.730854795170e-01 1.125232730225e-01 
0.000000000000e+00 0.000000000000e+00 5.400000000000e-01 -2.685200000000e+04 -2.685200000000e+04 2.723311197360e-01 1.121972126705e-01 
0.000000000000e+00 0.000000000000e+00 5.500000000000e-01 -2.695000000000e+04 -2.695000000000e+04 2.715813155633e-01 1.118732636576e-01 
0.000000000000e+00 0.000000000000e+00 5.600000000000e-01 -2.704800000000e+04 -2.704800000000e+04 2.708360254141e-01 1.115514048570e-01 
0.000000000000e+00 0.000000000000e+00 5.700000000000e-01 -2.714600000000e+04 -2.714600000000e+04 2.700952082034e-01 1.112316154272e-01 
0.000000000000e+00 0.000000000000e+00 5.800000000000e-01 -2.724400000000e+04 -2.724400000000e+04 2.693588233389e-01 1.109138748066e-01 
0.000000000000e+00 0.000000000000e+00 5.900000000000e-01 -2.734200000000e+04 -2.734200000000e+04 2.686268307134e-01 1.105981627094e-01 
0.000000000000e+00 0.000000000000e+00 6.000000000000e-01 -2.744000000000e+04 -2.744000000000e+04 2.682619274771e-01 1.104408112729e-01 
1  2  2  1
2  3  3  2
3  4  4  3
4  5  5  4
5  6  6  5
6  7  7  6
7  8  8  7
8  9  9  8
9  10  10  9
10  11  11  10
11  12  12  11
12  13  13  12
13  14  14  13
14  15  15  14
15  16  16  15
16  17  17  16
17  18  18  17
18  19  19  18
19  20  20  19
20  21  21  20
21  22  22  21
22  23  23  22
23  24  24  23
24  25  25  24
25  26  26  25
26  27  27  26
27  28  28  27
28  29  29  28
29  30  30  29
30  31  31  30
31  32  32  31
32  33  33  32
33  34  34  33
34  35  35  34
35  36  36  35
36  37  37  36
37  38  38  37
38  39  39  38
39  40  40  39
40  41  41  40
41  42  42  41
42  43  43  42
43  44  44  43
44  45  45  44
45  46  46  45
46  47  47  46
47  48  48  47
48  49  49  48
49  50  50  49
50  51  51  50
51  52  52  51
52  53  53  52
53  54  54  53
54  55  55  54
55  56  56  55
56  57  57  56
57  58  58  57
58  59  59  58
59  60  60  59
60  61  61  60
VARIABLES  = "X","Y","Z", "PRESSURE1", "PRESSURE2", "SATURATION1", "SATURATION2"
ZONE T="1.000000000000e+00s", N=61, E=60, F=FEPOINT, ET=QUADRILATERAL
STRANDID=1, SOLUTIONTIME=1.000000000000e+00
0.000000000000e+00 0.000000000000e+00 0.000000000000e+00 -2.155999994049e+04 -2.155999992525e+04 3.203591066711e-01 1.332699896727e-01 
0.000000000000e+00 0.000000000000e+00 1.000000000000e-02 -2.165800000049e+04 -2.165800000064e+04 3.198251669094e-01 1.330319601684e-01 
0.000000000000e+00 0.000000000000e+00 2.000000000000e-02 -2.175600000050e+04 -2.175600000066e+04 3.187611294422e-01 1.325577968006e-01 
0.000000000000e+00 0.000000000000e+00 3.000000000000e-02 -2.185400000049e+04 -2.185400000065e+04 3.177047347758e-01 1.320874013781e-01 
0.000000000000e+00 0.000000000000e+00 4.000000000000e-02 -2.195200000048e+04 -2.195200000064e+04 3.166559009680e-01 1.316207276738e-01 
0.000000000000e+00 0.000000000000e+00 5.000000000000e-02 -2.205000000048e+04 -2.205000000063e+04 3.156145473203e-01 1.311577302832e-01 
0.000000000000e+00 0.000000000000e+00 6.000000000000e-02 -2.214800000047e+04 -2.214800000062e+04 3.145805942496e-01 1.306983645470e-01 
0.000000000000e+00 0.000000000000e+00 7.000000000000e-02 -2.224600000047e+04 -2.224600000061e+04 3.135539632694e-01 1.302425865360e-01 
0.000000000000e+00 0.000000000000e+00 8.000000000000e-02 -2.234400000046e+04 -2.234400000061e+04 3.125345769724e-01 1.297903530362e-01 
0.000000000000e+00 0.000000000000e+00 9.000000000000e-02 -2.244200000045e+04 -2.244200000060e+04 3.115223590122e-01 1.293416215339e-01 
0.000000000000e+00 0.000000000000e+00 1.000000000000e-01 -2.254000000045e+04 -2.254000000059e+04 3.105172340861e-01 1.288963502019e-01 
0.000000000000e+00 0.000000000000e+00 1.100000000000e-01 -2.263800000044e+04 -2.263800000058e+04 3.095191279182e-01 1.284544978850e-01 
0.000000000000e+00 0.000000000000e+00 1.200000000000e-01 -2.273600000044e+04 -2.273600000057e+04 3.085279672423e-01 1.280160240874e-01 
0.000000000000e+00 0.000000000000e+00 1.300000000000e-01 -2.283400000043e+04 -2.283400000056e+04 3.075436797859e-01 1.275808889585e-01 
0.000000000000e+00 0.000000000000e+00 1.400000000000e-01 -2.293200000042e+04 -2.293200000056e+04 3.065661942534e-01 1.271490532806e-01 
0.000000000000e+00 0.000000000000e+00 1.500000000000e-01 -2.303000000042e+04 -2.303000000055e+04 3.055954403110e-01 1.267204784562e-01 
0.000000000000e+00 0.000000000000e+00 1.600000000000e-01 -2.312800000041e+04 -2.312800000054e+04 3.046313485705e-01 1.262951264956e-01 
0.000000000000e+00 0.000000000000e+00 1.700000000000e-01 -2.322600000041e+04 -2.322600000053e+04 3.036738505744e-01 1.258729600050e-01 
0.000000000000e+00 0.000000000000e+00 1.800000000000e-01 -2.332400000040e+04 -2.332400000053e+04 3.027228787808e-01 1.254539421747e-01 
0.000000000000e+00 0.000000000000e+00 1.900000000000e-01 -2.342200000040e+04 -2.342200000052e+04 3.017783665485e-01 1.250380367677e-01 
0.000000000000e+00 0.000000000000e+00 2.000000000000e-01 -2.352000000039e+04 -2.352000000051e+04 3.008402481228e-01 1.246252081087e-01 
0.000000000000e+00 0.000000000000e+00 2.100000000000e-01 -2.361800000039e+04 -2.361800000051e+04 2.999084586213e-01 1.242154210729e-01 
0.000000000000e+00 0.000000000000e+00 2.200000000000e-01 -2.371600000038e+04 -2.371600000050e+04 2.989829340197e-01 1.238086410755e-01 
0.000000000000e+00 0.000000000000e+00 2.300000000000e-01 -2.381400000038e+04 -2.381400000049e+04 2.980636111384e-01 1.234048340612e-01 
0.000000000000e+00 0.000000000000e+00 2.400000000000e-01 -2.391200000037e+04 -2.391200000049e+04 2.971504276289e-01 1.230039664945e-01 
0.000000000000e+00 0.000000000000e+00 2.500000000000e-01 -2.401000000037e+04 -2.401000000048e+04 2.962433219608e-01 1.226060053488e-01 
0.000000000000e+00 0.000000000000e+00 2.600000000000e-01 -2.410800000036e+04 -2.410800000048e+04 2.953422334084e-01 1.222109180977e-01 
0.000000000000e+00 0.000000000000e+00 2.700000000000e-01 -2.420600000036e+04 -2.420600000047e+04 2.944471020385e-01 1.218186727050e-01 
0.000000000000e+00 0.000000000000e+00 2.800000000000e-01 -2.430400000035e+04 -2.430400000046e+04 2.935578686979e-01 1.214292376156e-01 
0.000000000000e+00 0.000000000000e+00 2.900000000000e-01 -2.440200000035e+04 -2.440200000046e+04 2.926744750005e-01 1.210425817461e-01 
0.000000000000e+00 0.000000000000e+00 3.000000000000e-01 -2.450000000035e+04 -2.450000000045e+04 2.917968633161e-01 1.206586744765e-01 
0.000000000000e+00 0.000000000000e+00 3.100000000000e-01 -2.459800000034e+04 -2.459800000045e+04 2.909249767579e-01 1.202774856411e-01 
0.000000000000e+00 0.000000000000e+00 3.200000000000e-01 -2.469600000034e+04 -2.469600000044e+04 2.900587591713e-01 1.198989855204e-01 
0.000000000000e+00 0.000000000000e+00 3.300000000000e-01 -2.479400000033e+04 -2.479400000043e+04 2.891981551223e-01 1.195231448326e-01 
0.000000000000e+00 0.000000000000e+00 3.400000000000e-01 -2.489200000033e+04 -2.489200000043e+04 2.883431098863e-01 1.191499347252e-01 
0.000000000000e+00 0.000000000000e+00 3.500000000000e-01 -2.499000000033e+04 -2.499000000042e+04 2.874935694374e-01 1.187793267681e-01 
0.000000000000e+00 0.000000000000e+00 3.600000000000e-01 -2.508800000032e+04 -2.508800000042e+04 2.866494804370e-01 1.184112929445e-01 
0.000000000000e+00 0.000000000000e+00 3.700000000000e-01 -2.518600000032e+04 -2.518600000041e+04 2.858107902237e-01 1.180458056447e-01 
0.000000000000e+00 0.000000000000e+00 3.800000000000e-01 -2.528400000031e+04 -2.528400000041e+04 2.849774468027e-01 1.176828376576e-01 
0.000000000000e+00 0.000000000000e+00 3.900000000000e-01 -2.538200000031e+04 -2.538200000040e+04 2.841493988354e-01 1.173223621642e-01 
0.000000000000e+00 0.000000000000e+00 4.000000000000e-01 -2.548000000031e+04 -2.548000000040e+04 2.833265956298e-01 1.169643527301e-01 
0.000000000000e+00 0.000000000000e+00 4.100000000000e-01 -2.557800000030e+04 -2.557800000039e+04 2.825089871301e-01 1.166087832987e-01 
0.000000000000e+00 0.000000000000e+00 4.200000000000e-01 -2.567600000030e+04 -2.567600000039e+04 2.816965239071e-01 1.162556281846e-01 
0.000000000000e+00 0.000000000000e+00 4.300000000000e-01 -2.577400000030e+04 -2.577400000038e+04 2.808891571490e-01 1.159048620667e-01 
0.000000000000e+00 0.000000000000e+00 4.400000000000e-01 -2.587200000029e+04 -2.587200000038e+04 2.800868386517e-01 1.155564599818e-01 
0.000000000000e+00 0.000000000000e+00 4.500000000000e-01 -2.597000000029e+04 -2.597000000037e+04 2.792895208097e-01 1.152103973184e-01 
0.000000000000e+00 0.000000000000e+00 4.600000000000e-01 -2.606800000029e+04 -2.606800000037e+04 2.784971566070e-01 1.148666498104e-01 
0.000000000000e+00 0.000000000000e+00 4.700000000000e-01 -2.616600000028e+04 -2.616600000037e+04 2.777096996083e-01 1.145251935308e-01 
0.000000000000e+00 0.000000000000e+00 4.800000000000e-01 -2.626400000028e+04 -2.626400000036e+04 2.769271039501e-01 1.141860048861e-01 
0.000000000000e+00 0.000000000000e+00 4.900000000000e-01 -2.636200000028e+04 -2.636200000036e+04 2.761493243325e-01 1.138490606102e-01 
0.000000000000e+00 0.000000000000e+00 5.000000000000e-01 -2.646000000027e+04 -2.646000000035e+04 2.753763160102e-01 1.135143377590e-01 
0.000000000000e+00 0.000000000000e+00 5.100000000000e-01 -2.655800000027e+04 -2.655800000035e+04 2.746080347848e-01 1.131818137044e-01 
0.000000000000e+00 0.000000000000e+00 5.200000000000e-01 -2.665600000027e+04 -2.665600000034e+04 2.738444369963e-01 1.128514661291e-01 
0.000000000000e+00 0.000000000000e+00 5.300000000000e-01 -2.675400000026e+04 -2.675400000034e+04 2.730854795150e-01 1.125232730214e-01 
0.000000000000e+00 0.000000000000e+00 5.400000000000e-01 -2.685200000026e+04 -2.685200000034e+04 2.723311197340e-01 1.121972126694e-01 
0.000000000000e+00 0.000000000000e+00 5.500000000000e-01 -2.695000000026e+04 -2.695000000033e+04 2.715813155613e-01 1.118732636565e-01 
0.000000000000e+00 0.000000000000e+00 5.600000000000e-01 -2.704800000025e+04 -2.704800000032e+04 2.708360254322e-01 1.115514048852e-01 
0.000000000000e+00 0.000000000000e+00 5.700000000000e-01 -2.714599999231e+04 -2.714599997346e+04 2.700953177071e-01 1.112317596161e-01 
0.000000000000e+00 0.000000000000e+00 5.800000000000e-01 -2.724395627016e+04 -2.724386655181e+04 2.699590800776e-01 1.116082468838e-01 
0.000000000000e+00 0.000000000000e+00 5.900000000000e-01 -2.710217600664e+04 -2.670531142677e+04 4.548323969021e-01 2.188857448613e-01 
0.000000000000e+00 0.000000000000e+00 6.000000000000e-01 9.800000000000e+01 9.800000000000e+01 6.394727653463e-01 3.256275197429e-01 
1  2  2  1
2  3  3  2
3  4  4  3
4  5  5  4
5  6  6  5
6  7  7  6
7  8  8  7
8  9  9  8
9  10  10  9
10  11  11  10
11  12  12  11
12  13  13  12
13  14  14  13
14  15  15  14
15  16  16  15
16  17  17  16
17  18  18  17
18  19  19  18
19  20  20  19
20  21  21  20
21  22  22  21
22  23  23  22
23  24  24  23
24  25  25  24
25  26  26  25
26  27  27  26
27  28  28  27
28  29  29  28
29  30  30  29
30  31  31  30
31  32  32  31
32  33  33  32
33  34  34  33
34  35  35  34
35  36  36  35
36  37  37  36
37  38  38  37
38  39  39  38
39  40  40  39
40  41  41  40
41  42  42  41
42  43  43  42
43  44  44  43
44  45  45  44
45  46  46  45
46  47  47  46
47  48  48  47
48  49  49  48
49  50  50  49
50  51  51  50
51  52  52  51
52  53  53  52
53  54  54  53
54  55  55  54
55  56  56  55
56  57  57  56
57  58  58  57
58  59  59  58
59  60  60  59
60  61  61  60
VARIABLES  = "X","Y","Z", "PRESSURE1", "PRESSURE2", "SATURATION1", "SATURATION2"
ZONE T="6.000000000000e+02s", N=61, E=60, F=FEPOINT, ET=QUADRILATERAL
STRANDID=1, SOLUTIONTIME=6.000000000000e+02
0.000000000000e+00 0.000000000000e+00 0.000000000000e+00 -2.155996970576e+04 -2.155996381218e+04 3.203592336332e-01 1.332700591224e-01 
0.000000000000e+00 0.000000000000e+00 1.000000000000e-02 -2.165799772078e+04 -2.165799671992e+04 3.198252339792e-01 1.330319973213e-01 
0.000000000000e+00 0.000000000000e+00 2.000000000000e-02 -2.175600015021e+04 -2.175600013777e+04 3.187611317274e-01 1.325577985309e-01 
0.000000000000e+00 0.000000000000e+00 3.000000000000e-02 -2.185400028853e+04 -2.185400036834e+04 3.177047319229e-01 1.320873997942e-01 
0.000000000000e+00 0.000000000000e+00 4.000000000000e-02 -2.195200029076e+04 -2.195200037506e+04 3.166558978897e-01 1.316207259106e-01 
0.000000000000e+00 0.000000000000e+00 5.000000000000e-02 -2.205000028702e+04 -2.205000037034e+04 3.156145442933e-01 1.311577285476e-01 
0.000000000000e+00 0.000000000000e+00 6.000000000000e-02 -2.214800028315e+04 -2.214800036525e+04 3.145805912843e-01 1.306983628483e-01 
0.000000000000e+00 0.000000000000e+00 7.000000000000e-02 -2.224600027933e+04 -2.224600036023e+04 3.135539603647e-01 1.302425848738e-01 
0.000000000000e+00 0.000000000000e+00 8.000000000000e-02 -2.234400027559e+04 -2.234400035530e+04 3.125345741268e-01 1.297903514094e-01 
0.000000000000e+00 0.000000000000e+00 9.000000000000e-02 -2.244200027190e+04 -2.244200035046e+04 3.115223562243e-01 1.293416199416e-01 
0.000000000000e+00 0.000000000000e+00 1.000000000000e-01 -2.254000026829e+04 -2.254000034571e+04 3.105172313545e-01 1.288963486432e-01 
0.000000000000e+00 0.000000000000e+00 1.100000000000e-01 -2.263800026473e+04 -2.263800034104e+04 3.095191252416e-01 1.284544963592e-01 
0.000000000000e+00 0.000000000000e+00 1.200000000000e-01 -2.273600026123e+04 -2.273600033645e+04 3.085279646194e-01 1.280160225936e-01 
0.000000000000e+00 0.000000000000e+00 1.300000000000e-01 -2.283400025780e+04 -2.283400033194e+04 3.075436772153e-01 1.275808874959e-01 
0.000000000000e+00 0.000000000000e+00 1.400000000000e-01 -2.293200025442e+04 -2.293200032751e+04 3.065661917340e-01 1.271490518484e-01 
0.000000000000e+00 0.000000000000e+00 1.500000000000e-01 -2.303000025111e+04 -2.303000032316e+04 3.055954378416e-01 1.267204770537e-01 
0.000000000000e+00 0.000000000000e+00 1.600000000000e-01 -2.312800024784e+04 -2.312800031888e+04 3.046313461498e-01 1.262951251220e-01 
0.000000000000e+00 0.000000000000e+00 1.700000000000e-01 -2.322600024463e+04 -2.322600031468e+04 3.036738482014e-01 1.258729586597e-01 
0.000000000000e+00 0.000000000000e+00 1.800000000000e-01 -2.332400024148e+04 -2.332400031054e+04 3.027228764542e-01 1.254539408569e-01 
0.000000000000e+00 0.000000000000e+00 1.900000000000e-01 -2.342200023838e+04 -2.342200030648e+04 3.017783642673e-01 1.250380354768e-01 
0.000000000000e+00 0.000000000000e+00 2.000000000000e-01 -2.352000023533e+04 -2.352000030249e+04 3.008402458860e-01 1.246252068440e-01 
0.000000000000e+00 0.000000000000e+00 2.100000000000e-01 -2.361800023233e+04 -2.361800029857e+04 2.999084564279e-01 1.242154198337e-01 
0.000000000000e+00 0.000000000000e+00 2.200000000000e-01 -2.371600022938e+04 -2.371600029471e+04 2.989829318686e-01 1.238086398613e-01 
0.000000000000e+00 0.000000000000e+00 2.300000000000e-01 -2.381400022648e+04 -2.381400029091e+04 2.980636090287e-01 1.234048328714e-01 
0.000000000000e+00 0.000000000000e+00 2.400000000000e-01 -2.391200022363e+04 -2.391200028718e+04 2.971504255597e-01 1.230039653284e-01 
0.000000000000e+00 0.000000000000e+00 2.500000000000e-01 -2.401000022082e+04 -2.401000028352e+04 2.962433199311e-01 1.226060042059e-01 
0.000000000000e+00 0.000000000000e+00 2.600000000000e-01 -2.410800021806e+04 -2.410800027991e+04 2.953422314173e-01 1.222109169775e-01 
0.000000000000e+00 0.000000000000e+00 2.700000000000e-01 -2.420600021535e+04 -2.420600027636e+04 2.944471000852e-01 1.218186716070e-01 
0.000000000000e+00 0.000000000000e+00 2.800000000000e-01 -2.430400021268e+04 -2.430400027287e+04 2.935578667815e-01 1.214292365391e-01 
0.000000000000e+00 0.000000000000e+00 2.900000000000e-01 -2.440200021005e+04 -2.440200026944e+04 2.926744731202e-01 1.210425806907e-01 
0.000000000000e+00 0.000000000000e+00 3.000000000000e-01 -2.450000020746e+04 -2.450000026607e+04 2.917968614710e-01 1.206586734417e-01 
0.000000000000e+00 0.000000000000e+00 3.100000000000e-01 -2.459800020492e+04 -2.459800026275e+04 2.909249749473e-01 1.202774846265e-01 
0.000000000000e+00 0.000000000000e+00 3.200000000000e-01 -2.469600020241e+04 -2.469600025948e+04 2.900587573944e-01 1.198989845255e-01 
0.000000000000e+00 0.000000000000e+00 3.300000000000e-01 -2.479400019995e+04 -2.479400025627e+04 2.891981533784e-01 1.195231438568e-01 
0.000000000000e+00 0.000000000000e+00 3.400000000000e-01 -2.489200019752e+04 -2.489200025311e+04 2.883431081747e-01 1.191499337683e-01 
0.000000000000e+00 0.000000000000e+00 3.500000000000e-01 -2.499000019514e+04 -2.499000024999e+04 2.874935677573e-01 1.187793258294e-01 
0.000000000000e+00 0.000000000000e+00 3.600000000000e-01 -2.508800019279e+04 -2.508800024693e+04 2.866494787878e-01 1.184112920238e-01 
0.000000000000e+00 0.000000000000e+00 3.700000000000e-01 -2.518600019047e+04 -2.518600024392e+04 2.858107886047e-01 1.180458047415e-01 
0.000000000000e+00 0.000000000000e+00 3.800000000000e-01 -2.528400018820e+04 -2.528400024096e+04 2.849774452132e-01 1.176828367715e-01 
0.000000000000e+00 0.000000000000e+00 3.900000000000e-01 -2.538200018596e+04 -2.538200023804e+04 2.841493972748e-01 1.173223612948e-01 
0.000000000000e+00 0.000000000000e+00 4.000000000000e-01 -2.548000018375e+04 -2.548000023517e+04 2.833265940975e-01 1.169643518770e-01 
0.000000000000e+00 0.000000000000e+00 4.100000000000e-01 -2.557800018158e+04 -2.557800023234e+04 2.825089856254e-01 1.166087824616e-01 
0.000000000000e+00 0.000000000000e+00 4.200000000000e-01 -2.567600017944e+04 -2.567600022956e+04 2.816965224295e-01 1.162556273631e-01 
0.000000000000e+00 0.000000000000e+00 4.300000000000e-01 -2.577400017733e+04 -2.577400022682e+04 2.808891556979e-01 1.159048612605e-01 
0.000000000000e+00 0.000000000000e+00 4.400000000000e-01 -2.587200017526e+04 -2.587200022412e+04 2.800868372265e-01 1.155564591918e-01 
0.000000000000e+00 0.000000000000e+00 4.500000000000e-01 -2.597000017319e+04 -2.597000022038e+04 2.792895194198e-01 1.152103968492e-01 
0.000000000000e+00 0.000000000000e+00 4.600000000000e-01 -2.606800016753e+04 -2.606799995746e+04 2.784971568310e-01 1.148667208920e-01 
0.000000000000e+00 0.000000000000e+00 4.700000000000e-01 -2.616599957744e+04 -2.616593871684e+04 2.777098855592e-01 1.145416866583e-01 
0.000000000000e+00 0.000000000000e+00 4.800000000000e-01 -2.626393065985e+04 -2.624979363413e+04 2.769326301880e-01 1.174281916618e-01 
0.000000000000e+00 0.000000000000e+00 4.900000000000e-01 -2.636001479388e+04 -2.374104526077e+04 2.762807162254e-01 1.827923938939e-01 
0.000000000000e+00 0.000000000000e+00 5.000000000000e-01 -2.641308121038e+04 -4.588247797720e+03 2.775513352513e-01 3.986261683126e-01 
0.000000000000e+00 0.000000000000e+00 5.100000000000e-01 -2.581089964706e+04 -2.429238446605e+03 2.852557171901e-01 6.241301082582e-01 
0.000000000000e+00 0.000000000000e+00 5.200000000000e-01 -2.394141431061e+04 -1.777765575374e+03 3.044431830615e-01 7.391651746657e-01 
0.000000000000e+00 0.000000000000e+00 5.300000000000e-01 -2.089557493338e+04 -1.332362797513e+03 3.398401359085e-01 8.182305313307e-01 
0.000000000000e+00 0.000000000000e+00 5.400000000000e-01 -1.701036192565e+04 -9.681723112262e+02 4.189790517732e-01 8.840165650820e-01 
0.000000000000e+00 0.000000000000e+00 5.500000000000e-01 -1.011418759142e+04 -6.615216947835e+02 6.074525081358e-01 9.352287763057e-01 
0.000000000000e+00 0.000000000000e+00 5.600000000000e-01 -3.185359327153e+03 -4.170210820597e+02 8.326153187590e-01 9.694936863234e-01 
0.000000000000e+00 0.000000000000e+00 5.700000000000e-01 -1.628474360114e+03 -2.337355869706e+02 9.512833475534e-01 9.886954290355e-01 
0.000000000000e+00 0.000000000000e+00 5.800000000000e-01 -8.004153451194e+02 -9.507970390886e+01 9.856703165472e-01 9.973593678280e-01 
0.000000000000e+00 0.000000000000e+00 5.900000000000e-01 -2.714491031430e+02 8.349103183898e+00 9.973055554618e-01 9.998179754680e-01 
0.000000000000e+00 0.000000000000e+00 6.000000000000e-01 9.800000000000e+01 9.800000000000e+01 9.997698520178e-01 1.000000000000e+00 
1  2  2  1
2  3  3  2
3  4  4  3
4  5  5  4
5  6  6  5
6  7  7  6
7  8  8  7
8  9  9  8
9  10  10  9
10  11  11  10
11  12  12  11
12  13  13  12
13  14  14  13
14  15  15  14
15  16  16  15
16  17  17  16
17  18  18  17
18  19  19  18
19  20  20  19
20  21  21  20
21  22  22  21
22  23  23  22
23  24  24  23
24  25  25  24
25  26  26  25
26  27  27  26
27  28  28  27
28  29  29  28
29  30  30  29
30  31  31  30
31  32  32  31
32  33  33  32
33  34  34  33
34  35  35  34
35  36  36  35
36  37  37  36
37  38  38  37
38  39  39  38
39  40  40  39
40  41  41  40
41  42  42  41
42  43  43  42
43  44  44  43
44  45  45  44
45  46  46  45
46  47  47  46
47  48  48  47
48  49  49  48
49  50  50  49
50  51  51  50
51  52  52  51
52  53  53  52
53  54  54  53
54  55  55  54
55  56  56  55
56  57  57  56
57  58  58  57
58  59  59  58
59  60  60  59
60  61  61  60
VARIABLES  = "X","Y","Z", "PRESSURE1", "PRESSURE2", "SATURATION1", "SATURATION2"
ZONE T="1.200000000000e+03s", N=61, E=60, F=FEPOINT, ET=QUADRILATERAL
STRANDID=1, SOLUTIONTIME=1.200000000000e+03
0.000000000000e+00 0.000000000000e+00 0.000000000000e+00 -2.155994723676e+04 -2.155993910960e+04 3.203593558760e-01 1.332701228473e-01 
0.000000000000e+00 0.000000000000e+00 1.000000000000e-02 -2.165799219886e+04 -2.165798948434e+04 3.198253068614e-01 1.330320363663e-01 
0.000000000000e+00 0.000000000000e+00 2.000000000000e-02 -2.175599966460e+04 -2.175599930630e+04 3.187611435625e-01 1.325578060011e-01 
0.000000000000e+00 0.000000000000e+00 3.000000000000e-02 -2.185400051105e+04 -2.185400060501e+04 3.177047305797e-01 1.320873993384e-01 
0.000000000000e+00 0.000000000000e+00 4.000000000000e-02 -2.195200057691e+04 -2.195200072516e+04 3.166558949484e-01 1.316207243324e-01 
0.000000000000e+00 0.000000000000e+00 5.000000000000e-02 -2.205000057412e+04 -2.205000072539e+04 3.156145412678e-01 1.311577268871e-01 
0.000000000000e+00 0.000000000000e+00 6.000000000000e-02 -2.214800056664e+04 -2.214800071617e+04 3.145805883108e-01 1.306983612139e-01 
0.000000000000e+00 0.000000000000e+00 7.000000000000e-02 -2.224600055902e+04 -2.224600070649e+04 3.135539574515e-01 1.302425832731e-01 
0.000000000000e+00 0.000000000000e+00 8.000000000000e-02 -2.234400055151e+04 -2.234400069695e+04 3.125345712729e-01 1.297903498423e-01 
0.000000000000e+00 0.000000000000e+00 9.000000000000e-02 -2.244200054414e+04 -2.244200068758e+04 3.115223534283e-01 1.293416184073e-01 
0.000000000000e+00 0.000000000000e+00 1.000000000000e-01 -2.254000053690e+04 -2.254000067837e+04 3.105172286151e-01 1.288963471408e-01 
0.000000000000e+00 0.000000000000e+00 1.100000000000e-01 -2.263800052978e+04 -2.263800066932e+04 3.095191225573e-01 1.284544948879e-01 