VARIABLES  = "X","Y","Z", "PRESSURE1", "PRESSURE2", "SATURATION1", "SATURATION2"
ZONE T="0.000000000000e+00s", N=134, E=133, F=FEPOINT, ET=QUADRILATERAL
STRANDID=1, SOLUTIONTIME=0.000000000000e+00
0.000000000000e+00 0.000000000000e+00 0.000000000000e+00 -9.810000000000e+04 -9.810000000000e+04 5.536468184068e-01 9.999500037497e-03 
0.000000000000e+00 0.000000000000e+00 3.000000000000e-03 -9.810000000000e+04 -9.810000000000e+04 5.536468184068e-01 9.999500037497e-03 
0.000000000000e+00 0.000000000000e+00 6.000000000000e-03 -9.810000000000e+04 -9.810000000000e+04 5.536468184068e-01 9.999500037497e-03 
0.000000000000e+00 0.000000000000e+00 9.000000000000e-03 -9.810000000000e+04 -9.810000000000e+04 5.536468184068e-01 9.999500037497e-03 
0.000000000000e+00 0.000000000000e+00 1.200000000000e-02 -9.810000000000e+04 -9.810000000000e+04 5.536468184068e-01 9.999500037497e-03 
0.000000000000e+00 0.000000000000e+00 1.500000000000e-02 -9.810000000000e+04 -9.810000000000e+04 5.536468184068e-01 9.999500037497e-03 
0.000000000000e+00 0.000000000000e+00 1.800000000000e-02 -9.810000000000e+04 -9.810000000000e+04 5.536468184068e-01 9.999500037497e-03 
0.000000000000e+00 0.000000000000e+00 2.100000000000e-02 -9.810000000000e+04 -9.810000000000e+04 5.536468184068e-01 9.999500037497e-03 
0.000000000000e+00 0.000000000000e+00 2.400000000000e-02 -9.810000000000e+04 -9.810000000000e+04 5.536468184068e-01 9.999500037497e-03 
0.000000000000e+00 0.000000000000e+00 2.700000000000e-02 -9.810000000000e+04 -9.810000000000e+04 5.536468184068e-01 9.999500037497e-03 
0.000000000000e+00 0.000000000000e+00 3.000000000000e-02 -9.810000000000e+04 -9.810000000000e+04 5.536468184068e-01 9.999500037497e-03 
0.000000000000e+00 0.000000000000e+00 3.300000000000e-02 -9.810000000000e+04 -9.810000000000e+04 5.536468184068e-01 9.999500037497e-03 
0.000000000000e+00 0.000000000000e+00 3.600000000000e-02 -9.810000000000e+04 -9.810000000000e+04 5.536468184068e-01 9.999500037497e-03 
0.000000000000e+00 0.000000000000e+00 3.900000000000e-02 -9.810000000000e+04 -9.810000000000e+04 5.536468184068e-01 9.999500037497e-03 
0.000000000000e+00 0.000000000000e+00 4.200000000000e-02 -9.810000000000e+04 -9.810000000000e+04 5.536468184068e-01 9.999500037497e-03 
0.000000000000e+00 0.000000000000e+00 4.500000000000e-02 -9.810000000000e+04 -9.810000000000e+04 5.536468184068e-01 9.999500037497e-03 
0.000000000000e+00 0.000000000000e+00 4.800000000000e-02 -9.810000000000e+04 -9.810000000000e+04 5.536468184068e-01 9.999500037497e-03 
0.000000000000e+00 0.000000000000e+00 5.100000000000e-02 -9.810000000000e+04 -9.810000000000e+04 5.536468184068e-01 9.999500037497e-03 
0.000000000000e+00 0.000000000000e+00 5.400000000000e-02 -9.810000000000e+04 -9.810000000000e+04 5.536468184068e-01 9.999500037497e-03 
0.000000000000e+00 0.000000000000e+00 5.700000000000e-02 -9.810000000000e+04 -9.810000000000e+04 5.536468184068e-01 9.999500037497e-03 
0.000000000000e+00 0.000000000000e+00 6.000000000000e-02 -9.810000000000e+04 -9.810000000000e+04 5.536468184068e-01 9.999500037497e-03 
0.000000000000e+00 0.000000000000e+00 6.300000000000e-02 -9.810000000000e+04 -9.810000000000e+04 5.536468184068e-01 9.999500037497e-03 
0.000000000000e+00 0.000000000000e+00 6.600000000000e-02 -9.810000000000e+04 -9.810000000000e+04 5.536468184068e-01 9.999500037497e-03 
0.000000000000e+00 0.000000000000e+00 6.900000000000e-02 -9.810000000000e+04 -9.810000000000e+04 5.536468184068e-01 9.999500037497e-03 
0.000000000000e+00 0.000000000000e+00 7.200000000000e-02 -9.810000000000e+04 -9.810000000000e+04 5.536468184068e-01 9.999500037497e-03 
0.000000000000e+00 0.000000000000e+00 7.500000000000e-02 -9.810000000000e+04 -9.810000000000e+04 5.536468184068e-01 9.999500037497e-03 
0.000000000000e+00 0.000000000000e+00 7.800000000000e-02 -9.810000000000e+04 -9.810000000000e+04 5.536468184068e-01 9.999500037497e-03 
0.000000000000e+00 0.000000000000e+00 8.100000000000e-02 -9.810000000000e+04 -9.810000000000e+04 5.536468184068e-01 9.999500037497e-03 
0.000000000000e+00 0.000000000000e+00 8.400000000000e-02 -9.810000000000e+04 -9.810000000000e+04 5.536468184068e-01 9.999500037497e-03 
0.000000000000e+00 0.000000000000e+00 8.700000000000e-02 -9.810000000000e+04 -9.810000000000e+04 5.536468184068e-01 9.999500037497e-03 
0.000000000000e+00 0.000000000000e+00 9.000000000000e-02 -9.810000000000e+04 -9.810000000000e+04 5.536468184068e-01 9.999500037497e-03 
0.000000000000e+00 0.000000000000e+00 9.300000000000e-02 -9.810000000000e+04 -9.810000000000e+04 5.536468184068e-01 9.999500037497e-03 
0.000000000000e+00 0.000000000000e+00 9.600000000000e-02 -9.810000000000e+04 -9.810000000000e+04 5.536468184068e-01 9.999500037497e-03 
0.000000000000e+00 0.000000000000e+00 9.900000000000e-02 -9.810000000000e+04 -9.810000000000e+04 5.536468184068e-01 9.999500037497e-03 
0.000000000000e+00 0.000000000000e+00 1.020000000000e-01 -9.810000000000e+04 -9.810000000000e+04 5.536468184068e-01 9.999500037497e-03 
0.000000000000e+00 0.000000000000e+00 1.050000000000e-01 -9.810000000000e+04 -9.810000000000e+04 5.536468184068e-01 9.999500037497e-03 
0.000000000000e+00 0.000000000000e+00 1.080000000000e-01 -9.810000000000e+04 -9.810000000000e+04 5.536468184068e-01 9.999500037497e-03 
0.000000000000e+00 0.000000000000e+00 1.110000000000e-01 -9.810000000000e+04 -9.810000000000e+04 5.536468184068e-01 9.999500037497e-03 
0.000000000000e+00 0.000000000000e+00 1.140000000000e-01 -9.810000000000e+04 -9.810000000000e+04 5.536468184068e-01 9.999500037497e-03 
0.000000000000e+00 0.000000000000e+00 1.170000000000e-01 -9.810000000000e+04 -9.810000000000e+04 5.536468184068e-01 9.999500037497e-03 
0.000000000000e+00 0.000000000000e+00 1.200000000000e-01 -9.810000000000e+04 -9.810000000000e+04 5.536468184068e-01 9.999500037497e-03 
0.000000000000e+00 0.000000000000e+00 1.230000000000e-01 -9.810000000000e+04 -9.810000000000e+04 5.536468184068e-01 9.999500037497e-03 
0.000000000000e+00 0.000000000000e+00 1.260000000000e-01 -9.810000000000e+04 -9.810000000000e+04 5.536468184068e-01 9.999500037497e-03 
0.000000000000e+00 0.000000000000e+00 1.290000000000e-01 -9.810000000000e+04 -9.810000000000e+04 5.536468184068e-01 9.999500037497e-03 
0.000000000000e+00 0.000000000000e+00 1.320000000000e-01 -9.810000000000e+04 -9.810000000000e+04 5.536468184068e-01 9.999500037497e-03 
0.000000000000e+00 0.000000000000e+00 1.350000000000e-01 -9.810000000000e+04 -9.810000000000e+04 5.536468184068e-01 9.999500037497e-03 
0.000000000000e+00 0.000000000000e+00 1.380000000000e-01 -9.810000000000e+04 -9.810000000000e+04 5.536468184068e-01 9.999500037497e-03 
0.000000000000e+00 0.000000000000e+00 1.410000000000e-01 -9.810000000000e+04 -9.810000000000e+04 5.536468184068e-01 9.999500037497e-03 
0.000000000000e+00 0.000000000000e+00 1.440000000000e-01 -9.810000000000e+04 -9.810000000000e+04 5.536468184068e-01 9.999500037497e-03 
0.000000000000e+00 0.000000000000e+00 1.470000000000e-01 -9.810000000000e+04 -9.810000000000e+04 5.536468184068e-01 9.999500037497e-03 
0.000000000000e+00 0.000000000000e+00 1.500000000000e-01 -9.810000000000e+04 -9.810000000000e+04 5.536468184068e-01 9.999500037497e-03 
0.000000000000e+00 0.000000000000e+00 1.530000000000e-01 -9.810000000000e+04 -9.810000000000e+04 5.536468184068e-01 9.999500037497e-03 
0.000000000000e+00 0.000000000000e+00 1.560000000000e-01 -9.810000000000e+04 -9.810000000000e+04 5.536468184068e-01 9.999500037497e-03 
0.000000000000e+00 0.000000000000e+00 1.590000000000e-01 -9.810000000000e+04 -9.810000000000e+04 5.536468184068e-01 9.999500037497e-03 
0.000000000000e+00 0.000000000000e+00 1.620000000000e-01 -9.810000000000e+04 -9.810000000000e+04 5.536468184068e-01 9.999500037497e-03 
0.000000000000e+00 0.000000000000e+00 1.650000000000e-01 -9.810000000000e+04 -9.810000000000e+04 5.536468184068e-01 9.999500037497e-03 
0.000000000000e+00 0.000000000000e+00 1.680000000000e-01 -9.810000000000e+04 -9.810000000000e+04 5.536468184068e-01 9.999500037497e-03 
0.000000000000e+00 0.000000000000e+00 1.710000000000e-01 -9.810000000000e+04 -9.810000000000e+04 5.536468184068e-01 9.999500037497e-03 
0.000000000000e+00 0.000000000000e+00 1.740000000000e-01 -9.810000000000e+04 -9.810000000000e+04 5.536468184068e-01 9.999500037497e-03 
0.000000000000e+00 0.000000000000e+00 1.770000000000e-01 -9.810000000000e+04 -9.810000000000e+04 5.536468184068e-01 9.999500037497e-03 
0.000000000000e+00 0.000000000000e+00 1.800000000000e-01 -9.810000000000e+04 -9.810000000000e+04 5.536468184068e-01 9.999500037497e-03 
0.000000000000e+00 0.000000000000e+00 1.830000000000e-01 -9.810000000000e+04 -9.810000000000e+04 5.536468184068e-01 9.999500037497e-03 
0.000000000000e+00 0.000000000000e+00 1.860000000000e-01 -9.810000000000e+04 -9.810000000000e+04 5.536468184068e-01 9.999500037497e-03 
0.000000000000e+00 0.000000000000e+00 1.890000000000e-01 -9.810000000000e+04 -9.810000000000e+04 5.536468184068e-01 9.999500037497e-03 
0.000000000000e+00 0.000000000000e+00 1.920000000000e-01 -9.810000000000e+04 -9.810000000000e+04 5.536468184068e-01 9.999500037497e-03 
0.000000000000e+00 0.000000000000e+00 1.950000000000e-01 -9.810000000000e+04 -9.810000000000e+04 5.536468184068e-01 9.999500037497e-03 
0.000000000000e+00 0.000000000000e+00 1.980000000000e-01 -9.810000000000e+04 -9.810000000000e+04 5.536468184068e-01 9.999500037497e-03 
0.000000000000e+00 0.000000000000e+00 2.010000000000e-01 -9.810000000000e+04 -9.810000000000e+04 5.536468184068e-01 9.999500037497e-03 
0.000000000000e+00 0.000000000000e+00 2.040000000000e-01 -9.810000000000e+04 -9.810000000000e+04 5.536468184068e-01 9.999500037497e-03 
0.000000000000e+00 0.000000000000e+00 2.070000000000e-01 -9.810000000000e+04 -9.810000000000e+04 5.536468184068e-01 9.999500037497e-03 
0.000000000000e+00 0.000000000000e+00 2.100000000000e-01 -9.810000000000e+04 -9.810000000000e+04 5.536468184068e-01 9.999500037497e-03 
0.000000000000e+00 0.000000000000e+00 2.130000000000e-01 -9.810000000000e+04 -9.810000000000e+04 5.536468184068e-01 9.999500037497e-03 
0.000000000000e+00 0.000000000000e+00 2.160000000000e-01 -9.810000000000e+04 -9.810000000000e+04 5.536468184068e-01 9.999500037497e-03 
0.000000000000e+00 0.000000000000e+00 2.190000000000e-01 -9.810000000000e+04 -9.810000000000e+04 5.536468184068e-01 9.999500037497e-03 
0.000000000000e+00 0.000000000000e+00 2.220000000000e-01 -9.810000000000e+04 -9.810000000000e+04 5.536468184068e-01 9.999500037497e-03 
0.000000000000e+00 0.000000000000e+00 2.250000000000e-01 -9.810000000000e+04 -9.810000000000e+04 5.536468184068e-01 9.999500037497e-03 
0.000000000000e+00 0.000000000000e+00 2.280000000000e-01 -9.810000000000e+04 -9.810000000000e+04 5.536468184068e-01 9.999500037497e-03 
0.000000000000e+00 0.000000000000e+00 2.310000000000e-01 -9.810000000000e+04 -9.810000000000e+04 5.536468184068e-01 9.999500037497e-03 
0.000000000000e+00 0.000000000000e+00 2.340000000000e-01 -9.810000000000e+04 -9.810000000000e+04 5.536468184068e-01 9.999500037497e-03 
0.000000000000e+00 0.000000000000e+00 2.370000000000e-01 -9.810000000000e+04 -9.810000000000e+04 5.536468184068e-01 9.999500037497e-03 
0.000000000000e+00 0.000000000000e+00 2.400000000000e-01 -9.810000000000e+04 -9.810000000000e+04 5.536468184068e-01 9.999500037497e-03 
0.000000000000e+00 0.000000000000e+00 2.430000000000e-01 -9.810000000000e+04 -9.810000000000e+04 5.536468184068e-01 9.999500037497e-03 
0.000000000000e+00 0.000000000000e+00 2.460000000000e-01 -9.810000000000e+04 -9.810000000000e+04 5.536468184068e-01 9.999500037497e-03 
0.000000000000e+00 0.000000000000e+00 2.490000000000e-01 -9.810000000000e+04 -9.810000000000e+04 5.536468184068e-01 9.999500037497e-03 
0.000000000000e+00 0.000000000000e+00 2.520000000000e-01 -9.810000000000e+04 -9.810000000000e+04 5.536468184068e-01 9.999500037497e-03 
0.000000000000e+00 0.000000000000e+00 2.550000000000e-01 -9.810000000000e+04 -9.810000000000e+04 5.536468184068e-01 9.999500037497e-03 
0.000000000000e+00 0.000000000000e+00 2.580000000000e-01 -9.810000000000e+04 -9.810000000000e+04 5.536468184068e-01 9.999500037497e-03 
0.000000000000e+00 0.000000000000e+00 2.610000000000e-01 -9.810000000000e+04 -9.810000000000e+04 5.536468184068e-01 9.999500037497e-03 
0.000000000000e+00 0.000000000000e+00 2.640000000000e-01 -9.810000000000e+04 -9.810000000000e+04 5.536468184068e-01 9.999500037497e-03 
0.000000000000e+00 0.000000000000e+00 2.670000000000e-01 -9.810000000000e+04 -9.810000000000e+04 5.536468184068e-01 9.999500037497e-03 
0.000000000000e+00 0.000000000000e+00 2.700000000000e-01 -9.810000000000e+04 -9.810000000000e+04 5.536468184068e-01 9.999500037497e-03 
0.000000000000e+00 0.000000000000e+00 2.730000000000e-01 -9.810000000000e+04 -9.810000000000e+04 5.536468184068e-01 9.999500037497e-03 
0.000000000000e+00 0.000000000000e+00 2.760000000000e-01 -9.810000000000e+04 -9.810000000000e+04 5.536468184068e-01 9.999500037497e-03 
0.000000000000e+00 0.000000000000e+00 2.790000000000e-01 -9.810000000000e+04 -9.810000000000e+04 5.536468184068e-01 9.999500037497e-03 
0.000000000000e+00 0.000000000000e+00 2.820000000000e-01 -9.810000000000e+04 -9.810000000000e+04 5.536468184068e-01 9.999500037497e-03 
0.000000000000e+00 0.000000000000e+00 2.850000000000e-01 -9.810000000000e+04 -9.810000000000e+04 5.536468184068e-01 9.999500037497e-03 
0.000000000000e+00 0.000000000000e+00 2.880000000000e-01 -9.810000000000e+04 -9.810000000000e+04 5.536468184068e-01 9.999500037497e-03 
0.000000000000e+00 0.000000000000e+00 2.910000000000e-01 -9.810000000000e+04 -9.810000000000e+04 5.536468184068e-01 9.999500037497e-03 
0.000000000000e+00 0.000000000000e+00 2.940000000000e-01 -9.810000000000e+04 -9.810000000000e+04 5.536468184068e-01 9.999500037497e-03 
0.000000000000e+00 0.000000000000e+00 2.970000000000e-01 -9.810000000000e+04 -9.810000000000e+04 5.536468184068e-01 9.999500037497e-03 
0.000000000000e+00 0.000000000000e+00 3.000000000000e-01 -9.810000000000e+04 -9.810000000000e+04 5.536468184068e-01 9.999500037497e-03 
0.000000000000e+00 0.000000000000e+00 3.030000000000e-01 -9.810000000000e+04 -9.810000000000e+04 5.536468184068e-01 9.999500037497e-03 
0.000000000000e+00 0.000000000000e+00 3.060000000000e-01 -9.810000000000e+04 -9.810000000000e+04 5.536468184068e-01 9.999500037497e-03 
0.000000000000e+00 0.000000000000e+00 3.090000000000e-01 -9.810000000000e+04 -9.810000000000e+04 5.536468184068e-01 9.999500037497e-03 
0.000000000000e+00 0.000000000000e+00 3.120000000000e-01 -9.810000000000e+04 -9.810000000000e+04 5.536468184068e-01 9.999500037497e-03 
0.000000000000e+00 0.000000000000e+00 3.150000000000e-01 -9.810000000000e+04 -9.810000000000e+04 5.536468184068e-01 9.999500037497e-03 
0.000000000000e+00 0.000000000000e+00 3.180000000000e-01 -9.810000000000e+04 -9.810000000000e+04 5.536468184068e-01 9.999500037497e-03 
0.000000000000e+00 0.000000000000e+00 3.210000000000e-01 -9.810000000000e+04 -9.810000000000e+04 5.536468184068e-01 9.999500037497e-03 
0.000000000000e+00 0.000000000000e+00 3.240000000000e-01 -9.810000000000e+04 -9.810000000000e+04 5.536468184068e-01 9.999500037497e-03 
0.000000000000e+00 0.000000000000e+00 3.270000000000e-01 -9.810000000000e+04 -9.810000000000e+04 5.536468184068e-01 9.999500037497e-03 
0.000000000000e+00 0.000000000000e+00 3.300000000000e-01 -9.810000000000e+04 -9.810000000000e+04 5.536468184068e-01 9.999500037497e-03 
0.000000000000e+00 0.000000000000e+00 3.330000000000e-01 -9.810000000000e+04 -9.810000000000e+04 5.536468184068e-01 9.999500037497e-03 
0.000000000000e+00 0.000000000000e+00 3.360000000000e-01 -9.810000000000e+04 -9.810000000000e+04 5.536468184068e-01 9.999500037497e-03 
0.000000000000e+00 0.000000000000e+00 3.390000000000e-01 -9.810000000000e+04 -9.810000000000e+04 5.536468184068e-01 9.999500037497e-03 
0.000000000000e+00 0.000000000000e+00 3.420000000000e-01 -9.810000000000e+04 -9.810000000000e+04 5.536468184068e-01 9.999500037497e-03 
0.000000000000e+00 0.000000000000e+00 3.450000000000e-01 -9.810000000000e+04 -9.810000000000e+04 5.536468184068e-01 9.999500037497e-03 
0.000000000000e+00 0.000000000000e+00 3.480000000000e-01 -9.810000000000e+04 -9.810000000000e+04 5.536468184068e-01 9.999500037497e-03 
0.000000000000e+00 0.000000000000e+00 3.510000000000e-01 -9.810000000000e+04 -9.810000000000e+04 5.536468184068e-01 9.999500037497e-03 
0.000000000000e+00 0.000000000000e+00 3.540000000000e-01 -9.810000000000e+04 -9.810000000000e+04 5.536468184068e-01 9.999500037497e-03 
0.000000000000e+00 0.000000000000e+00 3.570000000000e-01 -9.810000000000e+04 -9.810000000000e+04 5.536468184068e-01 9.999500037497e-03 
0.000000000000e+00 0.000000000000e+00 3.600000000000e-01 -9.810000000000e+04 -9.810000000000e+04 5.536468184068e-01 9.999500037497e-03 
0.000000000000e+00 0.000000000000e+00 3.630000000000e-01 -9.810000000000e+04 -9.810000000000e+04 5.536468184068e-01 9.999500037497e-03 
0.000000000000e+00 0.000000000000e+00 3.660000000000e-01 -9.810000000000e+04 -9.810000000000e+04 5.536468184068e-01 9.999500037497e-03 
0.000000000000e+00 0.000000000000e+00 3.690000000000e-01 -9.810000000000e+04 -9.810000000000e+04 5.536468184068e-01 9.999500037497e-03 
0.000000000000e+00 0.000000000000e+00 3.720000000000e-01 -9.810000000000e+04 -9.810000000000e+04 5.536468184068e-01 9.999500037497e-03 
0.000000000000e+00 0.000000000000e+00 3.750000000000e-01 -9.810000000000e+04 -9.810000000000e+04 5.536468184068e-01 9.999500037497e-03 
0.000000000000e+00 0.000000000000e+00 3.780000000000e-01 -9.810000000000e+04 -9.810000000000e+04 5.536468184068e-01 9.999500037497e-03 
0.000000000000e+00 0.000000000000e+00 3.810000000000e-01 -9.810000000000e+04 -9.810000000000e+04 5.536468184068e-01 9.999500037497e-03 
0.000000000000e+00 0.000000000000e+00 3.840000000000e-01 -9.810000000000e+04 -9.810000000000e+04 5.536468184068e-01 9.999500037497e-03 
0.000000000000e+00 0.000000000000e+00 3.870000000000e-01 -9.810000000000e+04 -9.810000000000e+04 5.536468184068e-01 9.999500037497e-03 
0.000000000000e+00 0.000000000000e+00 3.900000000000e-01 -9.810000000000e+04 -9.810000000000e+04 5.536468184068e-01 9.999500037497e-03 
0.000000000000e+00 0.000000000000e+00 3.930000000000e-01 -9.810000000000e+04 -9.810000000000e+04 5.536468184068e-01 9.999500037497e-03 
0.000000000000e+00 0.000000000000e+00 3.960000000000e-01 -9.810000000000e+04 -9.810000000000e+04 5.536468184068e-01 9.999500037497e-03 
0.000000000000e+00 0.000000000000e+00 4.000000000000e-01 -9.810000000000e+04 -9.810000000000e+04 5.536468184068e-01 9.999500037497e-03 
1  2  2  1
2  3  3  2
3  4  4  3
4  5  5  4
5  6  6  5
6  7  7  6
7  8  8  7
8  9  9  8
9  10  10  9
10  11  11  10
11  12  12  11
12  13  13  12
13  14  14  13
14  15  15  14
15  16  16  15
16  17  17  16
17  18  18  17
18  19  19  18
19  20  20  19
20  21  21  20
21  22  22  21
22  23  23  22
23  24  24  23
24  25  25  24
25  26  26  25
26  27  27  26
27  28  28  27
28  29  29  28
29  30  30  29
30  31  31  30
31  32  32  31
32  33  33  32
33  34  34  33
34  35  35  34
35  36  36  35
36  37  37  36
37  38  38  37
38  39  39  38
39  40  40  39
40  41  41  40
41  42  42  41
42  43  43  42
43  44  44  43
44  45  45  44
45  46  46  45
46  47  47  46
47  48  48  47
48  49  49  48
49  50  50  49
50  51  51  50
51  52  52  51
52  53  53  52
53  54  54  53
54  55  55  54
55  56  56  55
56  57  57  56
57  58  58  57
58  59  59  58
59  60  60  59
60  61  61  60
61  62  62  61
62  63  63  62
63  64  64  63
64  65  65  64
65  66  66  65
66  67  67  66
67  68  68  67
68  69  69  68
69  70  70  69
70  71  71  70
71  72  72  71
72  73  73  72
73  74  74  73
74  75  75  74
75  76  76  75
76  77  77  76
77  78  78  77
78  79  79  78
79  80  80  79
80  81  81  80
81  82  82  81
82  83  83  82
83  84  84  83
84  85  85  84
85  86  86  85
86  87  87  86
87  88  88  87
88  89  89  88
89  90  90  89
90  91  91  90
91  92  92  91
92  93  93  92
93  94  94  93
94  95  95  94
95  96  96  95
96  97  97  96
97  98  98  97
98  99  99  98
99  100  100  99
100  101  101  100
101  102  102  101
102  103  103  102
103  104  104  103
104  105  105  104
105  106  106  105
106  107  107  106
107  108  108  107
108  109  109  108
109  110  110  109
110  111  111  110
111  112  112  111
112  113  113  112
113  114  114  113
114  115  115  114
115  116  116  115
116  117  117  116
117  118  118  117
118  119  119  118
119  120  120  119
120  121  121  120
121  122  122  121
122  123  123  122
123  124  124  123
124  125  125  124
125  126  126  125
126  127  127  126
127  128  128  127
128  129  129  128
129  130  130  129
130  131  131  130
131  132  132  131
132  133  133  132
133  134  134  133
VARIABLES  = "X","Y","Z", "PRESSURE1", "PRESSURE2", "SATURATION1", "SATURATION2"
ZONE T="1.000000000000e-07s", N=134, E=133, F=FEPOINT, ET=QUADRILATERAL
STRANDID=1, SOLUTIONTIME=1.000000000000e-07
0.000000000000e+00 0.000000000000e+00 0.000000000000e+00 -9.810000000000e+04 -9.810000000000e+04 5.536468184068e-01 9.999500037497e-03 
0.000000000000e+00 0.000000000000e+00 3.000000000000e-03 -9.810000000000e+04 -9.810000000000e+04 5.536468184068e-01 9.999500037497e-03 
0.000000000000e+00 0.000000000000e+00 6.000000000000e-03 -9.810000000000e+04 -9.810000000000e+04 5.536468184068e-01 9.999500037497e-03 
0.000000000000e+00 0.000000000000e+00 9.000000000000e-03 -9.810000000000e+04 -9.810000000000e+04 5.536468184068e-01 9.999500037497e-03 
0.000000000000e+00 0.000000000000e+00 1.200000000000e-02 -9.810000000000e+04 -9.810000000000e+04 5.536468184068e-01 9.999500037497e-03 
0.000000000000e+00 0.000000000000e+00 1.500000000000e-02 -9.810000000000e+04 -9.810000000000e+04 5.536468184068e-01 9.999500037497e-03 
0.000000000000e+00 0.000000000000e+00 1.800000000000e-02 -9.810000000000e+04 -9.810000000000e+04 5.536468184068e-01 9.999500037497e-03 
0.000000000000e+00 0.000000000000e+00 2.100000000000e-02 -9.810000000000e+04 -9.810000000000e+04 5.536468184068e-01 9.999500037497e-03 
0.000000000000e+00 0.000000000000e+00 2.400000000000e-02 -9.810000000000e+04 -9.810000000000e+04 5.536468184068e-01 9.999500037497e-03 
0.000000000000e+00 0.000000000000e+00 2.700000000000e-02 -9.810000000000e+04 -9.810000000000e+04 5.536468184068e-01 9.999500037497e-03 
0.000000000000e+00 0.000000000000e+00 3.000000000000e-02 -9.810000000000e+04 -9.810000000000e+04 5.536468184068e-01 9.999500037497e-03 
0.000000000000e+00 0.000000000000e+00 3.300000000000e-02 -9.810000000000e+04 -9.810000000000e+04 5.536468184068e-01 9.999500037497e-03 
0.000000000000e+00 0.000000000000e+00 3.600000000000e-02 -9.810000000000e+04 -9.810000000000e+04 5.536468184068e-01 9.999500037497e-03 
0.000000000000e+00 0.000000000000e+00 3.900000000000e-02 -9.810000000000e+04 -9.810000000000e+04 5.536468184068e-01 9.999500037497e-03 
0.000000000000e+00 0.000000000000e+00 4.200000000000e-02 -9.810000000000e+04 -9.810000000000e+04 5.536468184068e-01 9.999500037497e-03 
0.000000000000e+00 0.000000000000e+00 4.500000000000e-02 -9.810000000000e+04 -9.810000000000e+04 5.536468184068e-01 9.999500037497e-03 
0.000000000000e+00 0.000000000000e+00 4.800000000000e-02 -9.810000000000e+04 -9.810000000000e+04 5.536468184068e-01 9.999500037497e-03 
0.000000000000e+00 0.000000000000e+00 5.100000000000e-02 -9.810000000000e+04 -9.810000000000e+04 5.536468184068e-01 9.999500037497e-03 
0.000000000000e+00 0.000000000000e+00 5.400000000000e-02 -9.810000000000e+04 -9.810000000000e+04 5.536468184068e-01 9.999500037497e-03 
0.000000000000e+00 0.000000000000e+00 5.700000000000e-02 -9.810000000000e+04 -9.810000000000e+04 5.536468184068e-01 9.999500037497e-03 
0.000000000000e+00 0.000000000000e+00 6.000000000000e-02 -9.810000000000e+04 -9.810000000000e+04 5.536468184068e-01 9.999500037497e-03 
0.000000000000e+00 0.000000000000e+00 6.300000000000e-02 -9.810000000000e+04 -9.810000000000e+04 5.536468184068e-01 9.999500037497e-03 
0.000000000000e+00 0.000000000000e+00 6.600000000000e-02 -9.810000000000e+04 -9.810000000000e+04 5.536468184068e-01 9.999500037497e-03 
0.000000000000e+00 0.000000000000e+00 6.900000000000e-02 -9.810000000000e+04 -9.810000000000e+04 5.536468184068e-01 9.999500037497e-03 
0.000000000000e+00 0.000000000000e+00 7.200000000000e-02 -9.810000000000e+04 -9.810000000000e+04 5.536468184068e-01 9.999500037497e-03 
0.000000000000e+00 0.000000000000e+00 7.500000000000e-02 -9.810000000000e+04 -9.810000000000e+04 5.536468184068e-01 9.999500037497e-03 
0.000000000000e+00 0.000000000000e+00 7.800000000000e-02 -9.810000000000e+04 -9.810000000000e+04 5.536468184068e-01 9.999500037497e-03 
0.000000000000e+00 0.000000000000e+00 8.100000000000e-02 -9.810000000000e+04 -9.810000000000e+04 5.536468184068e-01 9.999500037497e-03 
0.000000000000e+00 0.000000000000e+00 8.400000000000e-02 -9.810000000000e+04 -9.810000000000e+04 5.536468184068e-01 9.999500037497e-03 
0.000000000000e+00 0.000000000000e+00 8.700000000000e-02 -9.810000000000e+04 -9.810000000000e+04 5.536468184068e-01 9.999500037497e-03 
0.000000000000e+00 0.000000000000e+00 9.000000000000e-02 -9.810000000000e+04 -9.810000000000e+04 5.536468184068e-01 9.999500037497e-03 
0.000000000000e+00 0.000000000000e+00 9.300000000000e-02 -9.810000000000e+04 -9.810000000000e+04 5.536468184068e-01 9.999500037497e-03 
0.000000000000e+00 0.000000000000e+00 9.600000000000e-02 -9.810000000000e+04 -9.810000000000e+04 5.536468184068e-01 9.999500037497e-03 
0.000000000000e+00 0.000000000000e+00 9.900000000000e-02 -9.810000000000e+04 -9.810000000000e+04 5.536468184068e-01 9.999500037497e-03 
0.000000000000e+00 0.000000000000e+00 1.020000000000e-01 -9.810000000000e+04 -9.810000000000e+04 5.536468184068e-01 9.999500037497e-03 
0.000000000000e+00 0.000000000000e+00 1.050000000000e-01 -9.810000000000e+04 -9.810000000000e+04 5.536468184068e-01 9.999500037497e-03 
0.000000000000e+00 0.000000000000e+00 1.080000000000e-01 -9.810000000000e+04 -9.810000000000e+04 5.536468184068e-01 9.999500037497e-03 
0.000000000000e+00 0.000000000000e+00 1.110000000000e-01 -9.810000000000e+04 -9.810000000000e+04 5.536468184068e-01 9.999500037497e-03 
0.000000000000e+00 0.000000000000e+00 1.140000000000e-01 -9.810000000000e+04 -9.810000000000e+04 5.536468184068e-01 9.999500037497e-03 
0.000000000000e+00 0.000000000000e+00 1.170000000000e-01 -9.810000000000e+04 -9.810000000000e+04 5.536468184068e-01 9.999500037497e-03 
0.000000000000e+00 0.000000000000e+00 1.200000000000e-01 -9.810000000000e+04 -9.810000000000e+04 5.536468184068e-01 9.999500037497e-03 
0.000000000000e+00 0.000000000000e+00 1.230000000000e-01 -9.810000000000e+04 -9.810000000000e+04 5.536468184068e-01 9.999500037497e-03 
0.000000000000e+00 0.000000000000e+00 1.260000000000e-01 -9.810000000000e+04 -9.810000000000e+04 5.536468184068e-01 9.999500037497e-03 
0.000000000000e+00 0.000000000000e+00 1.290000000000e-01 -9.810000000000e+04 -9.810000000000e+04 5.536468184068e-01 9.999500037497e-03 
0.000000000000e+00 0.000000000000e+00 1.320000000000e-01 -9.810000000000e+04 -9.810000000000e+04 5.536468184068e-01 9.999500037497e-03 
0.000000000000e+00 0.000000000000e+00 1.350000000000e-01 -9.810000000000e+04 -9.810000000000e+04 5.536468184068e-01 9.999500037497e-03 
0.000000000000e+00 0.000000000000e+00 1.380000000000e-01 -9.810000000000e+04 -9.810000000000e+04 5.536468184068e-01 9.999500037497e-03 
0.000000000000e+00 0.000000000000e+00 1.410000000000e-01 -9.810000000000e+04 -9.810000000000e+04 5.536468184068e-01 9.999500037497e-03 
0.000000000000e+00 0.000000000000e+00 1.440000000000e-01 -9.810000000000e+04 -9.810000000000e+04 5.536468184068e-01 9.999500037497e-03 
0.000000000000e+00 0.000000000000e+00 1.470000000000e-01 -9.810000000000e+04 -9.810000000000e+04 5.536468184068e-01 9.999500037497e-03 
0.000000000000e+00 0.000000000000e+00 1.500000000000e-01 -9.810000000000e+04 -9.810000000000e+04 5.536468184068e-01 9.999500037497e-03 
0.000000000000e+00 0.000000000000e+00 1.530000000000e-01 -9.810000000000e+04 -9.810000000000e+04 5.536468184068e-01 9.999500037497e-03 
0.000000000000e+00 0.000000000000e+00 1.560000000000e-01 -9.810000000000e+04 -9.810000000000e+04 5.536468184068e-01 9.999500037497e-03 
0.000000000000e+00 0.000000000000e+00 1.590000000000e-01 -9.810000000000e+04 -9.810000000000e+04 5.536468184068e-01 9.999500037497e-03 
0.000000000000e+00 0.000000000000e+00 1.620000000000e-01 -9.810000000000e+04 -9.810000000000e+04 5.536468184068e-01 9.999500037497e-03 
0.000000000000e+00 0.000000000000e+00 1.650000000000e-01 -9.810000000000e+04 -9.810000000000e+04 5.536468184068e-01 9.999500037497e-03 
0.000000000000e+00 0.000000000000e+00 1.680000000000e-01 -9.810000000000e+04 -9.810000000000e+04 5.536468184068e-01 9.999500037497e-03 
0.000000000000e+00 0.000000000000e+00 1.710000000000e-01 -9.810000000000e+04 -9.810000000000e+04 5.536468184068e-01 9.999500037497e-03 
0.000000000000e+00 0.000000000000e+00 1.740000000000e-01 -9.810000000000e+04 -9.810000000000e+04 5.536468184068e-01 9.999500037497e-03 
0.000000000000e+00 0.000000000000e+00 1.770000000000e-01 -9.810000000000e+04 -9.810000000000e+04 5.536468184068e-01 9.999500037497e-03 
0.000000000000e+00 0.000000000000e+00 1.800000000000e-01 -9.810000000000e+04 -9.810000000000e+04 5.536468184068e-01 9.999500037497e-03 
0.000000000000e+00 0.000000000000e+00 1.830000000000e-01 -9.810000000000e+04 -9.810000000000e+04 5.536468184068e-01 9.999500037497e-03 
0.000000000000e+00 0.000000000000e+00 1.860000000000e-01 -9.810000000000e+04 -9.810000000000e+04 5.536468184068e-01 9.999500037497e-03 
0.000000000000e+00 0.000000000000e+00 1.890000000000e-01 -9.810000000000e+04 -9.810000000000e+04 5.536468184068e-01 9.999500037497e-03 
0.000000000000e+00 0.000000000000e+00 1.920000000000e-01 -9.810000000000e+04 -9.810000000000e+04 5.536468184068e-01 9.999500037497e-03 
0.000000000000e+00 0.000000000000e+00 1.950000000000e-01 -9.810000000000e+04 -9.810000000000e+04 5.536468184068e-01 9.999500037497e-03 
0.000000000000e+00 0.000000000000e+00 1.980000000000e-01 -9.810000000000e+04 -9.810000000000e+04 5.536468184068e-01 9.999500037497e-03 
0.000000000000e+00 0.000000000000e+00 2.010000000000e-01 -9.810000000000e+04 -9.810000000000e+04 5.536468184068e-01 9.999500037497e-03 