 TITLE = "Time curves in points"
 VARIABLES = "TIME "  "PRESSURE1" 
 ZONE T="POINT=POINTOBS"
0.000000000000e+00 0.000000000000e+00 
8.640000000000e-01 -1.616965535418e-01 
1.728000000000e+00 -1.121024475620e+00 
2.592000000000e+00 -4.185627557553e+00 
3.456000000000e+00 -1.123166823056e+01 
4.320000000000e+00 -2.436632043359e+01 
5.184000000000e+00 -4.554766031320e+01 
6.048000000000e+00 -7.630993135233e+01 
6.912000000000e+00 -1.176408421193e+02 
7.776000000000e+00 -1.699852611795e+02 
8.640000000000e+00 -2.333245577391e+02 
1.641600000000e+01 -1.271673506160e+03 
2.419200000000e+01 -2.489821563921e+03 
3.196800000000e+01 -3.739225220068e+03 
3.974400000000e+01 -4.952514053740e+03 
4.752000000000e+01 -6.102874024150e+03 
5.529600000000e+01 -7.182523316133e+03 
6.307200000000e+01 -8.192196425819e+03 
7.084800000000e+01 -9.136158266525e+03 
7.862400000000e+01 -1.001987961878e+04 
8.640000000000e+01 -1.084897916855e+04 
1.641600000000e+02 -1.637917502336e+04 
2.419200000000e+02 -2.038767511789e+04 
3.196800000000e+02 -2.347946334754e+04 
3.974400000000e+02 -2.597519127616e+04 
4.752000000000e+02 -2.805863751840e+04 
5.529600000000e+02 -2.984253545186e+04 
6.307200000000e+02 -3.140009122204e+04 
7.084800000000e+02 -3.278114318889e+04 
7.862400000000e+02 -3.402097785990e+04 
8.640000000000e+02 -3.514540984265e+04 
1.641600000000e+03 -4.187665994489e+04 
2.419200000000e+03 -4.646925480570e+04 
3.196800000000e+03 -4.988731001646e+04 
3.974400000000e+03 -5.258531649702e+04 
4.752000000000e+03 -5.480435303229e+04 
5.529600000000e+03 -5.668466197054e+04 
6.307200000000e+03 -5.831394956019e+04 
7.084800000000e+03 -5.975030090199e+04 
7.862400000000e+03 -6.103399320308e+04 
8.640000000000e+03 -6.219401971869e+04 
1.641600000000e+04 -6.906213162088e+04 
2.419200000000e+04 -7.371889064513e+04 
3.196800000000e+04 -7.717194875415e+04 
3.974400000000e+04 -7.989132113708e+04 
4.752000000000e+04 -8.212452450617e+04 
5.529600000000e+04 -8.401481653157e+04 
6.307200000000e+04 -8.565145538944e+04 
7.084800000000e+04 -8.709338034988e+04 
7.862400000000e+04 -8.838135609613e+04 
8.640000000000e+04 -8.954465243928e+04 
1.641600000000e+05 -9.629683207656e+04 
2.419200000000e+05 -1.006380921157e+05 
3.196800000000e+05 -1.035734955460e+05 
3.974400000000e+05 -1.056051972014e+05 
4.752000000000e+05 -1.070262966281e+05 
5.529600000000e+05 -1.080249795174e+05 
6.307200000000e+05 -1.087282715568e+05 
7.084800000000e+05 -1.092240011715e+05 
7.862400000000e+05 -1.095735691854e+05 
8.640000000000e+05 -1.098201147511e+05 
