 TITLE = "Profiles along polylines"
 VARIABLES = "DIST" "HEAD" "CO3[2-]" "Ca[2+]" "Mg[2+]" "Cl[-]" "HCO3[-]" "CO2" "Calcite_CaCO3_s" "Dolomite_CaMg(CO3)2_s" 
 ZONE T="TIME=0.000000000000e+00"
0.000000000000e+00 2.000000000000e+00 3.402750000000e-02 1.171553125000e-01 0.000000000000e+00 0.000000000000e+00 8.325343750000e-02 2.244056250000e-05 5.741000000000e-02 0.000000000000e+00 
5.000000000000e-03 2.000000000000e+00 3.402750000000e-02 1.171553125000e-01 0.000000000000e+00 0.000000000000e+00 8.325343750000e-02 2.244056250000e-05 5.741000000000e-02 0.000000000000e+00 
1.000000000000e-02 2.000000000000e+00 3.402750000000e-02 1.171553125000e-01 0.000000000000e+00 0.000000000000e+00 8.325343750000e-02 2.244056250000e-05 5.741000000000e-02 0.000000000000e+00 
1.500000000000e-02 2.000000000000e+00 3.402750000000e-02 1.171553125000e-01 0.000000000000e+00 0.000000000000e+00 8.325343750000e-02 2.244056250000e-05 5.741000000000e-02 0.000000000000e+00 
2.000000000000e-02 2.000000000000e+00 3.402750000000e-02 1.171553125000e-01 0.000000000000e+00 0.000000000000e+00 8.325343750000e-02 2.244056250000e-05 5.741000000000e-02 0.000000000000e+00 
2.500000000000e-02 2.000000000000e+00 3.402750000000e-02 1.171553125000e-01 0.000000000000e+00 0.000000000000e+00 8.325343750000e-02 2.244056250000e-05 5.741000000000e-02 0.000000000000e+00 
3.000000000000e-02 2.000000000000e+00 3.402750000000e-02 1.171553125000e-01 0.000000000000e+00 0.000000000000e+00 8.325343750000e-02 2.244056250000e-05 5.741000000000e-02 0.000000000000e+00 
3.500000000000e-02 2.000000000000e+00 3.402750000000e-02 1.171553125000e-01 0.000000000000e+00 0.000000000000e+00 8.325343750000e-02 2.244056250000e-05 5.741000000000e-02 0.000000000000e+00 
4.000000000000e-02 2.000000000000e+00 3.402750000000e-02 1.171553125000e-01 0.000000000000e+00 0.000000000000e+00 8.325343750000e-02 2.244056250000e-05 5.741000000000e-02 0.000000000000e+00 
4.500000000000e-02 2.000000000000e+00 3.402750000000e-02 1.171553125000e-01 0.000000000000e+00 0.000000000000e+00 8.325343750000e-02 2.244056250000e-05 5.741000000000e-02 0.000000000000e+00 
5.000000000000e-02 2.000000000000e+00 3.402750000000e-02 1.171553125000e-01 0.000000000000e+00 0.000000000000e+00 8.325343750000e-02 2.244056250000e-05 5.741000000000e-02 0.000000000000e+00 
5.500000000000e-02 2.000000000000e+00 3.402750000000e-02 1.171553125000e-01 0.000000000000e+00 0.000000000000e+00 8.325343750000e-02 2.244056250000e-05 5.741000000000e-02 0.000000000000e+00 
6.000000000000e-02 2.000000000000e+00 3.402750000000e-02 1.171553125000e-01 0.000000000000e+00 0.000000000000e+00 8.325343750000e-02 2.244056250000e-05 5.741000000000e-02 0.000000000000e+00 
6.500000000000e-02 2.000000000000e+00 3.402750000000e-02 1.171553125000e-01 0.000000000000e+00 0.000000000000e+00 8.325343750000e-02 2.244056250000e-05 5.741000000000e-02 0.000000000000e+00 
7.000000000000e-02 2.000000000000e+00 3.402750000000e-02 1.171553125000e-01 0.000000000000e+00 0.000000000000e+00 8.325343750000e-02 2.244056250000e-05 5.741000000000e-02 0.000000000000e+00 
7.500000000000e-02 2.000000000000e+00 3.402750000000e-02 1.171553125000e-01 0.000000000000e+00 0.000000000000e+00 8.325343750000e-02 2.244056250000e-05 5.741000000000e-02 0.000000000000e+00 
8.000000000000e-02 2.000000000000e+00 3.402750000000e-02 1.171553125000e-01 0.000000000000e+00 0.000000000000e+00 8.325343750000e-02 2.244056250000e-05 5.741000000000e-02 0.000000000000e+00 
8.500000000000e-02 2.000000000000e+00 3.402750000000e-02 1.171553125000e-01 0.000000000000e+00 0.000000000000e+00 8.325343750000e-02 2.244056250000e-05 5.741000000000e-02 0.000000000000e+00 
9.000000000000e-02 2.000000000000e+00 3.402750000000e-02 1.171553125000e-01 0.000000000000e+00 0.000000000000e+00 8.325343750000e-02 2.244056250000e-05 5.741000000000e-02 0.000000000000e+00 
9.500000000000e-02 2.000000000000e+00 3.402750000000e-02 1.171553125000e-01 0.000000000000e+00 0.000000000000e+00 8.325343750000e-02 2.244056250000e-05 5.741000000000e-02 0.000000000000e+00 
1.000000000000e-01 2.000000000000e+00 3.402750000000e-02 1.171553125000e-01 0.000000000000e+00 0.000000000000e+00 8.325343750000e-02 2.244056250000e-05 5.741000000000e-02 0.000000000000e+00 
1.050000000000e-01 2.000000000000e+00 3.402750000000e-02 1.171553125000e-01 0.000000000000e+00 0.000000000000e+00 8.325343750000e-02 2.244056250000e-05 5.741000000000e-02 0.000000000000e+00 
1.100000000000e-01 2.000000000000e+00 3.402750000000e-02 1.171553125000e-01 0.000000000000e+00 0.000000000000e+00 8.325343750000e-02 2.244056250000e-05 5.741000000000e-02 0.000000000000e+00 
1.150000000000e-01 2.000000000000e+00 3.402750000000e-02 1.171553125000e-01 0.000000000000e+00 0.000000000000e+00 8.325343750000e-02 2.244056250000e-05 5.741000000000e-02 0.000000000000e+00 
1.200000000000e-01 2.000000000000e+00 3.402750000000e-02 1.171553125000e-01 0.000000000000e+00 0.000000000000e+00 8.325343750000e-02 2.244056250000e-05 5.741000000000e-02 0.000000000000e+00 
1.250000000000e-01 2.000000000000e+00 3.402750000000e-02 1.171553125000e-01 0.000000000000e+00 0.000000000000e+00 8.325343750000e-02 2.244056250000e-05 5.741000000000e-02 0.000000000000e+00 
1.300000000000e-01 2.000000000000e+00 3.402750000000e-02 1.171553125000e-01 0.000000000000e+00 0.000000000000e+00 8.325343750000e-02 2.244056250000e-05 5.741000000000e-02 0.000000000000e+00 
1.350000000000e-01 2.000000000000e+00 3.402750000000e-02 1.171553125000e-01 0.000000000000e+00 0.000000000000e+00 8.325343750000e-02 2.244056250000e-05 5.741000000000e-02 0.000000000000e+00 
1.400000000000e-01 2.000000000000e+00 3.402750000000e-02 1.171553125000e-01 0.000000000000e+00 0.000000000000e+00 8.325343750000e-02 2.244056250000e-05 5.741000000000e-02 0.000000000000e+00 
1.450000000000e-01 2.000000000000e+00 3.402750000000e-02 1.171553125000e-01 0.000000000000e+00 0.000000000000e+00 8.325343750000e-02 2.244056250000e-05 5.741000000000e-02 0.000000000000e+00 
1.500000000000e-01 2.000000000000e+00 3.402750000000e-02 1.171553125000e-01 0.000000000000e+00 0.000000000000e+00 8.325343750000e-02 2.244056250000e-05 5.741000000000e-02 0.000000000000e+00 
1.550000000000e-01 2.000000000000e+00 3.402750000000e-02 1.171553125000e-01 0.000000000000e+00 0.000000000000e+00 8.325343750000e-02 2.244056250000e-05 5.741000000000e-02 0.000000000000e+00 
1.600000000000e-01 2.000000000000e+00 3.402750000000e-02 1.171553125000e-01 0.000000000000e+00 0.000000000000e+00 8.325343750000e-02 2.244056250000e-05 5.741000000000e-02 0.000000000000e+00 
1.650000000000e-01 2.000000000000e+00 3.402750000000e-02 1.171553125000e-01 0.000000000000e+00 0.000000000000e+00 8.325343750000e-02 2.244056250000e-05 5.741000000000e-02 0.000000000000e+00 
1.700000000000e-01 2.000000000000e+00 3.402750000000e-02 1.171553125000e-01 0.000000000000e+00 0.000000000000e+00 8.325343750000e-02 2.244056250000e-05 5.741000000000e-02 0.000000000000e+00 
1.750000000000e-01 2.000000000000e+00 3.402750000000e-02 1.171553125000e-01 0.000000000000e+00 0.000000000000e+00 8.325343750000e-02 2.244056250000e-05 5.741000000000e-02 0.000000000000e+00 
1.800000000000e-01 2.000000000000e+00 3.402750000000e-02 1.171553125000e-01 0.000000000000e+00 0.000000000000e+00 8.325343750000e-02 2.244056250000e-05 5.741000000000e-02 0.000000000000e+00 
1.850000000000e-01 2.000000000000e+00 3.402750000000e-02 1.171553125000e-01 0.000000000000e+00 0.000000000000e+00 8.325343750000e-02 2.244056250000e-05 5.741000000000e-02 0.000000000000e+00 
1.900000000000e-01 2.000000000000e+00 3.402750000000e-02 1.171553125000e-01 0.000000000000e+00 0.000000000000e+00 8.325343750000e-02 2.244056250000e-05 5.741000000000e-02 0.000000000000e+00 
1.950000000000e-01 2.000000000000e+00 3.402750000000e-02 1.171553125000e-01 0.000000000000e+00 0.000000000000e+00 8.325343750000e-02 2.244056250000e-05 5.741000000000e-02 0.000000000000e+00 
2.000000000000e-01 2.000000000000e+00 3.402750000000e-02 1.171553125000e-01 0.000000000000e+00 0.000000000000e+00 8.325343750000e-02 2.244056250000e-05 5.741000000000e-02 0.000000000000e+00 
2.050000000000e-01 2.000000000000e+00 3.402750000000e-02 1.171553125000e-01 0.000000000000e+00 0.000000000000e+00 8.325343750000e-02 2.244056250000e-05 5.741000000000e-02 0.000000000000e+00 
2.100000000000e-01 2.000000000000e+00 3.402750000000e-02 1.171553125000e-01 0.000000000000e+00 0.000000000000e+00 8.325343750000e-02 2.244056250000e-05 5.741000000000e-02 0.000000000000e+00 
2.150000000000e-01 2.000000000000e+00 3.402750000000e-02 1.171553125000e-01 0.000000000000e+00 0.000000000000e+00 8.325343750000e-02 2.244056250000e-05 5.741000000000e-02 0.000000000000e+00 
2.200000000000e-01 2.000000000000e+00 3.402750000000e-02 1.171553125000e-01 0.000000000000e+00 0.000000000000e+00 8.325343750000e-02 2.244056250000e-05 5.741000000000e-02 0.000000000000e+00 
2.250000000000e-01 2.000000000000e+00 3.402750000000e-02 1.171553125000e-01 0.000000000000e+00 0.000000000000e+00 8.325343750000e-02 2.244056250000e-05 5.741000000000e-02 0.000000000000e+00 
2.300000000000e-01 2.000000000000e+00 3.402750000000e-02 1.171553125000e-01 0.000000000000e+00 0.000000000000e+00 8.325343750000e-02 2.244056250000e-05 5.741000000000e-02 0.000000000000e+00 
2.350000000000e-01 2.000000000000e+00 3.402750000000e-02 1.171553125000e-01 0.000000000000e+00 0.000000000000e+00 8.325343750000e-02 2.244056250000e-05 5.741000000000e-02 0.000000000000e+00 
2.400000000000e-01 2.000000000000e+00 3.402750000000e-02 1.171553125000e-01 0.000000000000e+00 0.000000000000e+00 8.325343750000e-02 2.244056250000e-05 5.741000000000e-02 0.000000000000e+00 
2.450000000000e-01 2.000000000000e+00 3.402750000000e-02 1.171553125000e-01 0.000000000000e+00 0.000000000000e+00 8.325343750000e-02 2.244056250000e-05 5.741000000000e-02 0.000000000000e+00 
2.500000000000e-01 2.000000000000e+00 3.402750000000e-02 1.171553125000e-01 0.000000000000e+00 0.000000000000e+00 8.325343750000e-02 2.244056250000e-05 5.741000000000e-02 0.000000000000e+00 
2.550000000000e-01 2.000000000000e+00 3.402750000000e-02 1.171553125000e-01 0.000000000000e+00 0.000000000000e+00 8.325343750000e-02 2.244056250000e-05 5.741000000000e-02 0.000000000000e+00 
2.600000000000e-01 2.000000000000e+00 3.402750000000e-02 1.171553125000e-01 0.000000000000e+00 0.000000000000e+00 8.325343750000e-02 2.244056250000e-05 5.741000000000e-02 0.000000000000e+00 
2.650000000000e-01 2.000000000000e+00 3.402750000000e-02 1.171553125000e-01 0.000000000000e+00 0.000000000000e+00 8.325343750000e-02 2.244056250000e-05 5.741000000000e-02 0.000000000000e+00 
2.700000000000e-01 2.000000000000e+00 3.402750000000e-02 1.171553125000e-01 0.000000000000e+00 0.000000000000e+00 8.325343750000e-02 2.244056250000e-05 5.741000000000e-02 0.000000000000e+00 
2.750000000000e-01 2.000000000000e+00 3.402750000000e-02 1.171553125000e-01 0.000000000000e+00 0.000000000000e+00 8.325343750000e-02 2.244056250000e-05 5.741000000000e-02 0.000000000000e+00 
2.800000000000e-01 2.000000000000e+00 3.402750000000e-02 1.171553125000e-01 0.000000000000e+00 0.000000000000e+00 8.325343750000e-02 2.244056250000e-05 5.741000000000e-02 0.000000000000e+00 
2.850000000000e-01 2.000000000000e+00 3.402750000000e-02 1.171553125000e-01 0.000000000000e+00 0.000000000000e+00 8.325343750000e-02 2.244056250000e-05 5.741000000000e-02 0.000000000000e+00 
2.900000000000e-01 2.000000000000e+00 3.402750000000e-02 1.171553125000e-01 0.000000000000e+00 0.000000000000e+00 8.325343750000e-02 2.244056250000e-05 5.741000000000e-02 0.000000000000e+00 
2.950000000000e-01 2.000000000000e+00 3.402750000000e-02 1.171553125000e-01 0.000000000000e+00 0.000000000000e+00 8.325343750000e-02 2.244056250000e-05 5.741000000000e-02 0.000000000000e+00 
3.000000000000e-01 2.000000000000e+00 3.402750000000e-02 1.171553125000e-01 0.000000000000e+00 0.000000000000e+00 8.325343750000e-02 2.244056250000e-05 5.741000000000e-02 0.000000000000e+00 
3.050000000000e-01 2.000000000000e+00 3.402750000000e-02 1.171553125000e-01 0.000000000000e+00 0.000000000000e+00 8.325343750000e-02 2.244056250000e-05 5.741000000000e-02 0.000000000000e+00 
3.100000000000e-01 2.000000000000e+00 3.402750000000e-02 1.171553125000e-01 0.000000000000e+00 0.000000000000e+00 8.325343750000e-02 2.244056250000e-05 5.741000000000e-02 0.000000000000e+00 
3.150000000000e-01 2.000000000000e+00 3.402750000000e-02 1.171553125000e-01 0.000000000000e+00 0.000000000000e+00 8.325343750000e-02 2.244056250000e-05 5.741000000000e-02 0.000000000000e+00 
3.200000000000e-01 2.000000000000e+00 3.402750000000e-02 1.171553125000e-01 0.000000000000e+00 0.000000000000e+00 8.325343750000e-02 2.244056250000e-05 5.741000000000e-02 0.000000000000e+00 
3.250000000000e-01 2.000000000000e+00 3.402750000000e-02 1.171553125000e-01 0.000000000000e+00 0.000000000000e+00 8.325343750000e-02 2.244056250000e-05 5.741000000000e-02 0.000000000000e+00 
3.300000000000e-01 2.000000000000e+00 3.402750000000e-02 1.171553125000e-01 0.000000000000e+00 0.000000000000e+00 8.325343750000e-02 2.244056250000e-05 5.741000000000e-02 0.000000000000e+00 
3.350000000000e-01 2.000000000000e+00 3.402750000000e-02 1.171553125000e-01 0.000000000000e+00 0.000000000000e+00 8.325343750000e-02 2.244056250000e-05 5.741000000000e-02 0.000000000000e+00 
3.400000000000e-01 2.000000000000e+00 3.402750000000e-02 1.171553125000e-01 0.000000000000e+00 0.000000000000e+00 8.325343750000e-02 2.244056250000e-05 5.741000000000e-02 0.000000000000e+00 
3.450000000000e-01 2.000000000000e+00 3.402750000000e-02 1.171553125000e-01 0.000000000000e+00 0.000000000000e+00 8.325343750000e-02 2.244056250000e-05 5.741000000000e-02 0.000000000000e+00 
3.500000000000e-01 2.000000000000e+00 3.402750000000e-02 1.171553125000e-01 0.000000000000e+00 0.000000000000e+00 8.325343750000e-02 2.244056250000e-05 5.741000000000e-02 0.000000000000e+00 
3.550000000000e-01 2.000000000000e+00 3.402750000000e-02 1.171553125000e-01 0.000000000000e+00 0.000000000000e+00 8.325343750000e-02 2.244056250000e-05 5.741000000000e-02 0.000000000000e+00 
3.600000000000e-01 2.000000000000e+00 3.402750000000e-02 1.171553125000e-01 0.000000000000e+00 0.000000000000e+00 8.325343750000e-02 2.244056250000e-05 5.741000000000e-02 0.000000000000e+00 
3.650000000000e-01 2.000000000000e+00 3.402750000000e-02 1.171553125000e-01 0.000000000000e+00 0.000000000000e+00 8.325343750000e-02 2.244056250000e-05 5.741000000000e-02 0.000000000000e+00 
3.700000000000e-01 2.000000000000e+00 3.402750000000e-02 1.171553125000e-01 0.000000000000e+00 0.000000000000e+00 8.325343750000e-02 2.244056250000e-05 5.741000000000e-02 0.000000000000e+00 
3.750000000000e-01 2.000000000000e+00 3.402750000000e-02 1.171553125000e-01 0.000000000000e+00 0.000000000000e+00 8.325343750000e-02 2.244056250000e-05 5.741000000000e-02 0.000000000000e+00 
3.800000000000e-01 2.000000000000e+00 3.402750000000e-02 1.171553125000e-01 0.000000000000e+00 0.000000000000e+00 8.325343750000e-02 2.244056250000e-05 5.741000000000e-02 0.000000000000e+00 
3.850000000000e-01 2.000000000000e+00 3.402750000000e-02 1.171553125000e-01 0.000000000000e+00 0.000000000000e+00 8.325343750000e-02 2.244056250000e-05 5.741000000000e-02 0.000000000000e+00 
3.900000000000e-01 2.000000000000e+00 3.402750000000e-02 1.171553125000e-01 0.000000000000e+00 0.000000000000e+00 8.325343750000e-02 2.244056250000e-05 5.741000000000e-02 0.000000000000e+00 
3.950000000000e-01 2.000000000000e+00 3.402750000000e-02 1.171553125000e-01 0.000000000000e+00 0.000000000000e+00 8.325343750000e-02 2.244056250000e-05 5.741000000000e-02 0.000000000000e+00 
4.000000000000e-01 2.000000000000e+00 3.402750000000e-02 1.171553125000e-01 0.000000000000e+00 0.000000000000e+00 8.325343750000e-02 2.244056250000e-05 5.741000000000e-02 0.000000000000e+00 
4.050000000000e-01 2.000000000000e+00 3.402750000000e-02 1.171553125000e-01 0.000000000000e+00 0.000000000000e+00 8.325343750000e-02 2.244056250000e-05 5.741000000000e-02 0.000000000000e+00 
4.100000000000e-01 2.000000000000e+00 3.402750000000e-02 1.171553125000e-01 0.000000000000e+00 0.000000000000e+00 8.325343750000e-02 2.244056250000e-05 5.741000000000e-02 0.000000000000e+00 
4.150000000000e-01 2.000000000000e+00 3.402750000000e-02 1.171553125000e-01 0.000000000000e+00 0.000000000000e+00 8.325343750000e-02 2.244056250000e-05 5.741000000000e-02 0.000000000000e+00 
4.200000000000e-01 2.000000000000e+00 3.402750000000e-02 1.171553125000e-01 0.000000000000e+00 0.000000000000e+00 8.325343750000e-02 2.244056250000e-05 5.741000000000e-02 0.000000000000e+00 
4.250000000000e-01 2.000000000000e+00 3.402750000000e-02 1.171553125000e-01 0.000000000000e+00 0.000000000000e+00 8.325343750000e-02 2.244056250000e-05 5.741000000000e-02 0.000000000000e+00 
4.300000000000e-01 2.000000000000e+00 3.402750000000e-02 1.171553125000e-01 0.000000000000e+00 0.000000000000e+00 8.325343750000e-02 2.244056250000e-05 5.741000000000e-02 0.000000000000e+00 
4.350000000000e-01 2.000000000000e+00 3.402750000000e-02 1.171553125000e-01 0.000000000000e+00 0.000000000000e+00 8.325343750000e-02 2.244056250000e-05 5.741000000000e-02 0.000000000000e+00 
4.400000000000e-01 2.000000000000e+00 3.402750000000e-02 1.171553125000e-01 0.000000000000e+00 0.000000000000e+00 8.325343750000e-02 2.244056250000e-05 5.741000000000e-02 0.000000000000e+00 
4.450000000000e-01 2.000000000000e+00 3.402750000000e-02 1.171553125000e-01 0.000000000000e+00 0.000000000000e+00 8.325343750000e-02 2.244056250000e-05 5.741000000000e-02 0.000000000000e+00 
4.500000000000e-01 2.000000000000e+00 3.402750000000e-02 1.171553125000e-01 0.000000000000e+00 0.000000000000e+00 8.325343750000e-02 2.244056250000e-05 5.741000000000e-02 0.000000000000e+00 
4.550000000000e-01 2.000000000000e+00 3.402750000000e-02 1.171553125000e-01 0.000000000000e+00 0.000000000000e+00 8.325343750000e-02 2.244056250000e-05 5.741000000000e-02 0.000000000000e+00 
4.600000000000e-01 2.000000000000e+00 3.402750000000e-02 1.171553125000e-01 0.000000000000e+00 0.000000000000e+00 8.325343750000e-02 2.244056250000e-05 5.741000000000e-02 0.000000000000e+00 
4.650000000000e-01 2.000000000000e+00 3.402750000000e-02 1.171553125000e-01 0.000000000000e+00 0.000000000000e+00 8.325343750000e-02 2.244056250000e-05 5.741000000000e-02 0.000000000000e+00 
4.700000000000e-01 2.000000000000e+00 3.402750000000e-02 1.171553125000e-01 0.000000000000e+00 0.000000000000e+00 8.325343750000e-02 2.244056250000e-05 5.741000000000e-02 0.000000000000e+00 
4.750000000000e-01 2.000000000000e+00 3.402750000000e-02 1.171553125000e-01 0.000000000000e+00 0.000000000000e+00 8.325343750000e-02 2.244056250000e-05 5.741000000000e-02 0.000000000000e+00 
4.800000000000e-01 2.000000000000e+00 3.402750000000e-02 1.171553125000e-01 0.000000000000e+00 0.000000000000e+00 8.325343750000e-02 2.244056250000e-05 5.741000000000e-02 0.000000000000e+00 
4.850000000000e-01 2.000000000000e+00 3.402750000000e-02 1.171553125000e-01 0.000000000000e+00 0.000000000000e+00 8.325343750000e-02 2.244056250000e-05 5.741000000000e-02 0.000000000000e+00 
4.900000000000e-01 2.000000000000e+00 3.402750000000e-02 1.171553125000e-01 0.000000000000e+00 0.000000000000e+00 8.325343750000e-02 2.244056250000e-05 5.741000000000e-02 0.000000000000e+00 
4.950000000000e-01 2.000000000000e+00 3.402750000000e-02 1.171553125000e-01 0.000000000000e+00 0.000000000000e+00 8.325343750000e-02 2.244056250000e-05 5.741000000000e-02 0.000000000000e+00 
5.000000000000e-01 2.000000000000e+00 3.402750000000e-02 1.171553125000e-01 0.000000000000e+00 0.000000000000e+00 8.325343750000e-02 2.244056250000e-05 5.741000000000e-02 0.000000000000e+00 
 ZONE T="TIME=2.000000000000e+02"
0.000000000000e+00 2.000000000000e+00 1.604996875000e-05 2.006106250000e-03 9.995250000000e-01 2.000000000000e+00 1.935021875000e-03 2.770384375000e-05 5.557470588388e-02 0.000000000000e+00 
5.000000000000e-03 -1.295256006915e+04 1.534128125000e-02 7.716593750000e-02 3.680156250000e-01 7.560312500000e-01 5.776500000000e-02 2.487887500000e-05 5.557470588388e-02 0.000000000000e+00 
1.000000000000e-02 -2.590712013830e+04 3.375000000000e-02 1.166931250000e-01 4.410937500000e-03 9.309187500000e-03 8.294468750000e-02 2.247234375000e-05 5.649235294194e-02 0.000000000000e+00 
1.500000000000e-02 -3.886168020745e+04 3.401656250000e-02 1.171325000000e-01 4.094031250000e-05 8.643531250000e-05 8.323531250000e-02 2.243821875000e-05 5.557470588388e-02 0.000000000000e+00 
2.000000000000e-02 -5.181624027659e+04 0.000000000000e+00 0.000000000000e+00 0.000000000000e+00 0.000000000000e+00 0.000000000000e+00 0.000000000000e+00 5.649235294194e-02 0.000000000000e+00 
2.500000000000e-02 -6.477080034574e+04 3.401906250000e-02 1.171365625000e-01 0.000000000000e+00 0.000000000000e+00 8.319843750000e-02 2.241643750000e-05 5.557470588388e-02 0.000000000000e+00 
3.000000000000e-02 -7.772536041489e+04 3.401906250000e-02 1.171365625000e-01 0.000000000000e+00 0.000000000000e+00 8.319843750000e-02 2.241643750000e-05 5.557470588388e-02 0.000000000000e+00 
3.500000000000e-02 -9.067992048404e+04 3.401906250000e-02 1.171365625000e-01 0.000000000000e+00 0.000000000000e+00 8.319781250000e-02 2.241618750000e-05 5.557470588388e-02 0.000000000000e+00 
4.000000000000e-02 -1.036344805532e+05 3.401906250000e-02 1.171365625000e-01 0.000000000000e+00 0.000000000000e+00 8.320312500000e-02 2.241890625000e-05 5.557470588388e-02 0.000000000000e+00 
4.500000000000e-02 -1.165890406223e+05 3.401906250000e-02 1.171365625000e-01 0.000000000000e+00 0.000000000000e+00 8.321250000000e-02 2.242396875000e-05 5.557470588388e-02 0.000000000000e+00 
5.000000000000e-02 -1.295436006915e+05 3.401906250000e-02 1.171365625000e-01 0.000000000000e+00 0.000000000000e+00 8.322062500000e-02 2.242843750000e-05 5.557470588388e-02 0.000000000000e+00 
5.500000000000e-02 -1.424981607606e+05 3.401906250000e-02 1.171365625000e-01 0.000000000000e+00 0.000000000000e+00 8.322062500000e-02 2.242846875000e-05 5.557470588388e-02 0.000000000000e+00 
6.000000000000e-02 -1.554527208298e+05 3.401906250000e-02 1.171365625000e-01 0.000000000000e+00 0.000000000000e+00 8.322062500000e-02 2.242846875000e-05 5.557470588388e-02 0.000000000000e+00 
6.500000000000e-02 -1.684072808989e+05 3.401906250000e-02 1.171365625000e-01 0.000000000000e+00 0.000000000000e+00 8.324312500000e-02 2.244056250000e-05 5.557470588388e-02 0.000000000000e+00 
7.000000000000e-02 -1.813618409681e+05 3.401906250000e-02 1.171365625000e-01 0.000000000000e+00 0.000000000000e+00 8.324312500000e-02 2.244056250000e-05 5.557470588388e-02 0.000000000000e+00 
7.500000000000e-02 -1.943164010372e+05 3.401906250000e-02 1.171365625000e-01 0.000000000000e+00 0.000000000000e+00 8.324312500000e-02 2.244056250000e-05 5.557470588388e-02 0.000000000000e+00 
8.000000000000e-02 -2.072709611064e+05 3.401906250000e-02 1.171365625000e-01 0.000000000000e+00 0.000000000000e+00 8.324312500000e-02 2.244056250000e-05 5.557470588388e-02 0.000000000000e+00 
8.500000000000e-02 -2.202255211755e+05 3.401906250000e-02 1.171365625000e-01 0.000000000000e+00 0.000000000000e+00 8.324312500000e-02 2.244056250000e-05 5.557470588388e-02 0.000000000000e+00 
9.000000000000e-02 -2.331800812447e+05 3.401906250000e-02 1.171365625000e-01 0.000000000000e+00 0.000000000000e+00 8.324312500000e-02 2.244056250000e-05 5.557470588388e-02 0.000000000000e+00 
9.500000000000e-02 -2.461346413138e+05 3.401906250000e-02 1.171365625000e-01 0.000000000000e+00 0.000000000000e+00 8.324312500000e-02 2.244056250000e-05 5.557470588388e-02 0.000000000000e+00 
1.000000000000e-01 -2.590892013830e+05 3.401906250000e-02 1.171365625000e-01 0.000000000000e+00 0.000000000000e+00 8.324312500000e-02 2.244056250000e-05 5.557470588388e-02 0.000000000000e+00 
1.050000000000e-01 -2.720437614521e+05 3.401906250000e-02 1.171365625000e-01 0.000000000000e+00 0.000000000000e+00 8.324312500000e-02 2.244056250000e-05 5.557470588388e-02 0.000000000000e+00 
1.100000000000e-01 -2.849983215213e+05 3.401906250000e-02 1.171365625000e-01 0.000000000000e+00 0.000000000000e+00 8.324312500000e-02 2.244056250000e-05 5.557470588388e-02 0.000000000000e+00 
1.150000000000e-01 -2.979528815904e+05 3.401906250000e-02 1.171365625000e-01 0.000000000000e+00 0.000000000000e+00 8.324312500000e-02 2.244056250000e-05 5.557470588388e-02 0.000000000000e+00 
1.200000000000e-01 -3.109074416596e+05 3.401906250000e-02 1.171365625000e-01 0.000000000000e+00 0.000000000000e+00 8.324312500000e-02 2.244056250000e-05 5.557470588388e-02 0.000000000000e+00 
1.250000000000e-01 -3.238620017287e+05 3.401906250000e-02 1.171365625000e-01 0.000000000000e+00 0.000000000000e+00 8.324312500000e-02 2.244056250000e-05 5.557470588388e-02 0.000000000000e+00 
1.300000000000e-01 -3.368165617979e+05 3.401906250000e-02 1.171365625000e-01 0.000000000000e+00 0.000000000000e+00 8.324312500000e-02 2.244056250000e-05 5.557470588388e-02 0.000000000000e+00 
1.350000000000e-01 -3.497711218670e+05 3.401906250000e-02 1.171365625000e-01 0.000000000000e+00 0.000000000000e+00 8.324312500000e-02 2.244056250000e-05 5.557470588388e-02 0.000000000000e+00 
1.400000000000e-01 -3.627256819362e+05 3.401906250000e-02 1.171365625000e-01 0.000000000000e+00 0.000000000000e+00 8.324312500000e-02 2.244056250000e-05 5.557470588388e-02 0.000000000000e+00 
1.450000000000e-01 -3.756802420053e+05 3.401906250000e-02 1.171365625000e-01 0.000000000000e+00 0.000000000000e+00 8.324312500000e-02 2.244056250000e-05 5.557470588388e-02 0.000000000000e+00 
1.500000000000e-01 -3.886348020744e+05 3.401906250000e-02 1.171365625000e-01 0.000000000000e+00 0.000000000000e+00 8.324312500000e-02 2.244056250000e-05 5.557470588388e-02 0.000000000000e+00 
1.550000000000e-01 -4.015893621436e+05 3.401906250000e-02 1.171365625000e-01 0.000000000000e+00 0.000000000000e+00 8.324312500000e-02 2.244056250000e-05 5.557470588388e-02 0.000000000000e+00 
1.600000000000e-01 -4.145439222127e+05 3.401906250000e-02 1.171365625000e-01 0.000000000000e+00 0.000000000000e+00 8.324312500000e-02 2.244056250000e-05 5.557470588388e-02 0.000000000000e+00 
1.650000000000e-01 -4.274984822819e+05 3.401906250000e-02 1.171365625000e-01 0.000000000000e+00 0.000000000000e+00 8.324312500000e-02 2.244056250000e-05 5.557470588388e-02 0.000000000000e+00 
1.700000000000e-01 -4.404530423510e+05 3.401906250000e-02 1.171365625000e-01 0.000000000000e+00 0.000000000000e+00 8.324312500000e-02 2.244056250000e-05 5.557470588388e-02 0.000000000000e+00 
1.750000000000e-01 -4.534076024202e+05 3.401906250000e-02 1.171365625000e-01 0.000000000000e+00 0.000000000000e+00 8.324312500000e-02 2.244056250000e-05 5.557470588388e-02 0.000000000000e+00 
1.800000000000e-01 -4.663621624893e+05 3.401906250000e-02 1.171365625000e-01 0.000000000000e+00 0.000000000000e+00 8.324312500000e-02 2.244056250000e-05 5.557470588388e-02 0.000000000000e+00 
1.850000000000e-01 -4.793167225585e+05 3.401906250000e-02 1.171365625000e-01 0.000000000000e+00 0.000000000000e+00 8.324312500000e-02 2.244056250000e-05 5.557470588388e-02 0.000000000000e+00 
1.900000000000e-01 -4.922712826276e+05 3.401906250000e-02 1.171365625000e-01 0.000000000000e+00 0.000000000000e+00 8.324312500000e-02 2.244056250000e-05 5.557470588388e-02 0.000000000000e+00 
1.950000000000e-01 -5.052258426968e+05 3.401906250000e-02 1.171365625000e-01 0.000000000000e+00 0.000000000000e+00 8.324312500000e-02 2.244056250000e-05 5.557470588388e-02 0.000000000000e+00 
2.000000000000e-01 -5.181804027659e+05 3.401906250000e-02 1.171365625000e-01 0.000000000000e+00 0.000000000000e+00 8.324312500000e-02 2.244056250000e-05 5.557470588388e-02 0.000000000000e+00 
2.050000000000e-01 -5.311349628351e+05 3.401906250000e-02 1.171365625000e-01 0.000000000000e+00 0.000000000000e+00 8.324312500000e-02 2.244056250000e-05 5.557470588388e-02 0.000000000000e+00 
2.100000000000e-01 -5.440895229042e+05 3.401906250000e-02 1.171365625000e-01 0.000000000000e+00 0.000000000000e+00 8.324312500000e-02 2.244056250000e-05 5.557470588388e-02 0.000000000000e+00 
2.150000000000e-01 -5.570440829734e+05 3.401906250000e-02 1.171365625000e-01 0.000000000000e+00 0.000000000000e+00 8.324312500000e-02 2.244056250000e-05 5.557470588388e-02 0.000000000000e+00 
2.200000000000e-01 -5.699986430425e+05 3.401906250000e-02 1.171365625000e-01 0.000000000000e+00 0.000000000000e+00 8.324312500000e-02 2.244056250000e-05 5.557470588388e-02 0.000000000000e+00 
2.250000000000e-01 -5.829532031117e+05 3.401906250000e-02 1.171365625000e-01 0.000000000000e+00 0.000000000000e+00 8.324312500000e-02 2.244056250000e-05 5.557470588388e-02 0.000000000000e+00 
2.300000000000e-01 -5.959077631808e+05 3.401906250000e-02 1.171365625000e-01 0.000000000000e+00 0.000000000000e+00 8.324312500000e-02 2.244056250000e-05 5.557470588388e-02 0.000000000000e+00 
2.350000000000e-01 -6.088623232500e+05 3.401906250000e-02 1.171365625000e-01 0.000000000000e+00 0.000000000000e+00 8.324312500000e-02 2.244056250000e-05 5.557470588388e-02 0.000000000000e+00 
2.400000000000e-01 -6.218168833191e+05 3.401906250000e-02 1.171365625000e-01 0.000000000000e+00 0.000000000000e+00 8.324312500000e-02 2.244056250000e-05 5.557470588388e-02 0.000000000000e+00 
2.450000000000e-01 -6.347714433882e+05 3.401906250000e-02 1.171365625000e-01 0.000000000000e+00 0.000000000000e+00 8.324312500000e-02 2.244056250000e-05 5.557470588388e-02 0.000000000000e+00 
2.500000000000e-01 -6.477260034574e+05 3.401906250000e-02 1.171365625000e-01 0.000000000000e+00 0.000000000000e+00 8.324312500000e-02 2.244056250000e-05 5.557470588388e-02 0.000000000000e+00 
2.550000000000e-01 -6.606805635265e+05 3.401906250000e-02 1.171365625000e-01 0.000000000000e+00 0.000000000000e+00 8.324312500000e-02 2.244056250000e-05 5.557470588388e-02 0.000000000000e+00 
2.600000000000e-01 -6.736351235957e+05 3.401906250000e-02 1.171365625000e-01 0.000000000000e+00 0.000000000000e+00 8.324312500000e-02 2.244056250000e-05 5.557470588388e-02 0.000000000000e+00 
2.650000000000e-01 -6.865896836648e+05 3.401906250000e-02 1.171365625000e-01 0.000000000000e+00 0.000000000000e+00 8.324312500000e-02 2.244056250000e-05 5.557470588388e-02 0.000000000000e+00 