 TITLE = "Time curves in points"
 VARIABLES = "TIME "  "Tracer" 
 ZONE T="POINT=POINT8"
0.000000000000e+00 0.000000000000e+00 
2.160000000000e+04 1.631489131792e-14 
4.320000000000e+04 3.431126254177e-13 
6.480000000000e+04 3.116524935872e-12 
8.640000000000e+04 1.906197833425e-11 
1.080000000000e+05 8.946162045281e-11 
1.296000000000e+05 3.446596256230e-10 
1.512000000000e+05 1.136523688885e-09 
1.728000000000e+05 3.300849283852e-09 
1.944000000000e+05 8.621889423324e-09 
2.160000000000e+05 2.057846913193e-08 
2.376000000000e+05 4.544397407388e-08 
2.592000000000e+05 9.378858247647e-08 
2.808000000000e+05 1.823915623806e-07 
3.024000000000e+05 3.365203726661e-07 
3.240000000000e+05 5.924787861214e-07 
3.456000000000e+05 1.000277179907e-06 
3.672000000000e+05 1.626242300998e-06 
3.888000000000e+05 2.555365935107e-06 
4.104000000000e+05 3.893195231327e-06 
4.320000000000e+05 5.767089862816e-06 
4.536000000000e+05 8.326710179226e-06 
4.752000000000e+05 1.174365078522e-05 
4.968000000000e+05 1.621018972156e-05 
5.184000000000e+05 2.193717910637e-05 
5.400000000000e+05 2.915115466890e-05 
5.616000000000e+05 3.809078414237e-05 
5.832000000000e+05 4.900280793615e-05 
6.048000000000e+05 6.213764661582e-05 
6.264000000000e+05 7.774486091007e-05 
6.480000000000e+05 9.606865090426e-05 
6.696000000000e+05 1.173435735968e-04 
6.912000000000e+05 1.417906452977e-04 
7.128000000000e+05 1.696139774641e-04 
7.344000000000e+05 2.009980748784e-04 
7.560000000000e+05 2.361059049761e-04 
7.776000000000e+05 2.750778274954e-04 
7.992000000000e+05 3.180314552731e-04 
8.208000000000e+05 3.650625012143e-04 
8.424000000000e+05 4.162466534258e-04 
8.640000000000e+05 4.716425083758e-04 
8.856000000000e+05 5.312955827494e-04 
9.072000000000e+05 5.952434169527e-04 
9.288000000000e+05 6.635217752851e-04 
9.504000000000e+05 7.361719406131e-04 
9.720000000000e+05 8.132490940499e-04 
9.936000000000e+05 8.948317606814e-04 
1.015200000000e+06 9.810322923581e-04 
1.036800000000e+06 1.072008346625e-03 
1.058400000000e+06 1.167975306646e-03 
1.080000000000e+06 1.269219571692e-03 
1.101600000000e+06 1.376112630134e-03 
1.123200000000e+06 1.489125808828e-03 
1.144800000000e+06 1.608845573383e-03 
1.166400000000e+06 1.735989234663e-03 
1.188000000000e+06 1.871420898108e-03 
1.209600000000e+06 2.016167474913e-03 
1.231200000000e+06 2.171434558281e-03 
1.252800000000e+06 2.338621954934e-03 
1.274400000000e+06 2.519338651516e-03 
1.296000000000e+06 2.715416989176e-03 
1.317600000000e+06 2.928925816524e-03 
1.339200000000e+06 3.162182392611e-03 
1.360800000000e+06 3.417762817185e-03 
1.382400000000e+06 3.698510775319e-03 
1.404000000000e+06 4.007544397634e-03 
1.425600000000e+06 4.348261055275e-03 
1.447200000000e+06 4.724339930493e-03 
1.468800000000e+06 5.139742228449e-03 
1.490400000000e+06 5.598708923352e-03 
1.512000000000e+06 6.105755961709e-03 
1.533600000000e+06 6.665666876595e-03 
1.555200000000e+06 7.283482799043e-03 
1.576800000000e+06 7.964489884999e-03 
1.598400000000e+06 8.714204208591e-03 
1.620000000000e+06 9.538354203594e-03 
1.641600000000e+06 1.044286076513e-02 
1.663200000000e+06 1.143381515150e-02 
1.684800000000e+06 1.251745485199e-02 
1.706400000000e+06 1.370013760965e-02 
1.728000000000e+06 1.498831380809e-02 
1.749600000000e+06 1.638849744857e-02 
1.771200000000e+06 1.790723595733e-02 
1.792800000000e+06 1.955107907362e-02 
1.814400000000e+06 2.132654707548e-02 
1.836000000000e+06 2.324009860434e-02 
1.857600000000e+06 2.529809834970e-02 
1.879200000000e+06 2.750678485215e-02 
1.900800000000e+06 2.987223867748e-02 
1.922400000000e+06 3.240035120610e-02 
1.944000000000e+06 3.509679427118e-02 
1.965600000000e+06 3.796699086552e-02 
1.987200000000e+06 4.101608712252e-02 
2.008800000000e+06 4.424892575969e-02 
2.030400000000e+06 4.767002115540e-02 
2.052000000000e+06 5.128353621049e-02 
2.073600000000e+06 5.509326112669e-02 
2.095200000000e+06 5.910259421380e-02 
2.116800000000e+06 6.331452481700e-02 
2.138400000000e+06 6.773161843563e-02 
2.160000000000e+06 7.235600408477e-02 
2.181600000000e+06 7.718936393126e-02 
2.203200000000e+06 8.223292521729e-02 
2.224800000000e+06 8.748745446647e-02 
2.246400000000e+06 9.295325395048e-02 
2.268000000000e+06 9.863016037834e-02 
2.289600000000e+06 1.045175457557e-01 
2.311200000000e+06 1.106143203481e-01 
2.332800000000e+06 1.169189376697e-01 
2.354400000000e+06 1.234294014090e-01 
2.376000000000e+06 1.301432741919e-01 
2.397600000000e+06 1.370576880768e-01 
2.419200000000e+06 1.441693566663e-01 
2.440800000000e+06 1.514745887190e-01 
2.462400000000e+06 1.589693031353e-01 
2.484000000000e+06 1.666490451927e-01 
2.505600000000e+06 1.745090039023e-01 
2.527200000000e+06 1.825440303562e-01 
2.548800000000e+06 1.907486569381e-01 
2.570400000000e+06 1.991171172685e-01 
2.592000000000e+06 2.076433667597e-01 
2.613600000000e+06 2.163211036562e-01 
2.635200000000e+06 2.251437904421e-01 
2.656800000000e+06 2.341046754995e-01 
2.678400000000e+06 2.431968149061e-01 
2.700000000000e+06 2.524130942681e-01 
2.721600000000e+06 2.617462504859e-01 
2.743200000000e+06 2.711888933584e-01 
2.764800000000e+06 2.807335269387e-01 
2.786400000000e+06 2.903725705555e-01 
2.808000000000e+06 3.000983794276e-01 
2.829600000000e+06 3.099032647987e-01 
2.851200000000e+06 3.197795135300e-01 
2.872800000000e+06 3.297194070939e-01 
2.894400000000e+06 3.397152399172e-01 
2.916000000000e+06 3.497593370284e-01 
2.937600000000e+06 3.598440709724e-01 
2.959200000000e+06 3.699618779566e-01 
2.980800000000e+06 3.801052732042e-01 
3.002400000000e+06 3.902668654898e-01 
3.024000000000e+06 4.004393708429e-01 
3.045600000000e+06 4.106156254051e-01 
3.067200000000e+06 4.207885974362e-01 
3.088800000000e+06 4.309513984635e-01 
3.110400000000e+06 4.410972935776e-01 
3.132000000000e+06 4.512197108778e-01 
3.153600000000e+06 4.613122500772e-01 
3.175200000000e+06 4.713686902770e-01 
3.196800000000e+06 4.813829969263e-01 
3.218400000000e+06 4.913493279829e-01 
3.240000000000e+06 5.012620392958e-01 
3.261600000000e+06 5.111156892298e-01 
3.283200000000e+06 5.209050425569e-01 
3.304800000000e+06 5.306250736378e-01 
3.326400000000e+06 5.402709689213e-01 
3.348000000000e+06 5.498381287883e-01 
3.369600000000e+06 5.593221687693e-01 
3.391200000000e+06 5.687189201638e-01 
3.412800000000e+06 5.780244300920e-01 
3.434400000000e+06 5.872349610089e-01 
3.456000000000e+06 5.963469897101e-01 
3.477600000000e+06 6.053572058605e-01 
3.499200000000e+06 6.142625100764e-01 
3.520800000000e+06 6.230600115894e-01 
3.542400000000e+06 6.317470255236e-01 
3.564000000000e+06 6.403210698143e-01 
3.585600000000e+06 6.487798617969e-01 
3.607200000000e+06 6.571213144939e-01 
3.628800000000e+06 6.653435326291e-01 
3.650400000000e+06 6.734448083922e-01 
3.672000000000e+06 6.814236169828e-01 
3.693600000000e+06 6.892786119574e-01 
3.715200000000e+06 6.970086204028e-01 
3.736800000000e+06 7.046126379603e-01 
3.758400000000e+06 7.120898237217e-01 
3.780000000000e+06 7.194394950188e-01 
3.801600000000e+06 7.266611221262e-01 
3.823200000000e+06 7.337543228968e-01 
3.844800000000e+06 7.407188573480e-01 
3.866400000000e+06 7.475546222154e-01 
3.888000000000e+06 7.542616454909e-01 
3.909600000000e+06 7.608400809592e-01 
3.931200000000e+06 7.672902027478e-01 
3.952800000000e+06 7.736123999036e-01 
3.974400000000e+06 7.798071710077e-01 
3.996000000000e+06 7.858751188405e-01 
4.017600000000e+06 7.918169451069e-01 
4.039200000000e+06 7.976334452324e-01 
4.060800000000e+06 8.033255032368e-01 
4.082400000000e+06 8.088940866961e-01 
4.104000000000e+06 8.143402417972e-01 
4.125600000000e+06 8.196650884943e-01 
4.147200000000e+06 8.248698157702e-01 
4.168800000000e+06 8.299556770103e-01 
4.190400000000e+06 8.349239854909e-01 
4.212000000000e+06 8.397761099886e-01 
4.233600000000e+06 8.445134705108e-01 
4.255200000000e+06 8.491375341529e-01 
4.276800000000e+06 8.536498110823e-01 
4.298400000000e+06 8.580518506520e-01 
4.320000000000e+06 8.623452376443e-01 
4.341600000000e+06 8.665315886458e-01 
4.363200000000e+06 8.706125485539e-01 
4.384800000000e+06 8.745897872146e-01 
4.406400000000e+06 8.784649961918e-01 
4.428000000000e+06 8.822398856666e-01 
4.449600000000e+06 8.859161814663e-01 
4.471200000000e+06 8.894956222214e-01 
4.492800000000e+06 8.929799566492e-01 
4.514400000000e+06 8.963709409630e-01 
4.536000000000e+06 8.996703364031e-01 
4.557600000000e+06 9.028799068899e-01 
4.579200000000e+06 9.060014167947e-01 
4.600800000000e+06 9.090366288272e-01 
4.622400000000e+06 9.119873020363e-01 
4.644000000000e+06 9.148551899219e-01 
4.665600000000e+06 9.176420386549e-01 
4.687200000000e+06 9.203495854025e-01 
4.708800000000e+06 9.229795567558e-01 
4.730400000000e+06 9.255336672569e-01 
4.752000000000e+06 9.280136180224e-01 
4.773600000000e+06 9.304210954605e-01 
4.795200000000e+06 9.327577700775e-01 
4.816800000000e+06 9.350252953729e-01 
4.838400000000e+06 9.372253068178e-01 
4.860000000000e+06 9.393594209140e-01 
4.881600000000e+06 9.414292343325e-01 
4.903200000000e+06 9.434363231255e-01 
4.924800000000e+06 9.453822420118e-01 
4.946400000000e+06 9.472685237300e-01 
4.968000000000e+06 9.490966784586e-01 
4.989600000000e+06 9.508681932993e-01 
5.011200000000e+06 9.525845318207e-01 
5.032800000000e+06 9.542471336592e-01 
5.054400000000e+06 9.558574141754e-01 
5.076000000000e+06 9.574167641625e-01 
5.097600000000e+06 9.589265496047e-01 
5.119200000000e+06 9.603881114820e-01 
5.140800000000e+06 9.618027656205e-01 
5.162400000000e+06 9.631718025846e-01 
5.184000000000e+06 9.644964876088e-01 
5.205600000000e+06 9.657780605682e-01 
5.227200000000e+06 9.670177359831e-01 
5.248800000000e+06 9.682167030582e-01 
5.270400000000e+06 9.693761257523e-01 
5.292000000000e+06 9.704971428776e-01 
5.313600000000e+06 9.715808682267e-01 
5.335200000000e+06 9.726283907244e-01 
5.356800000000e+06 9.736407746042e-01 
5.378400000000e+06 9.746190596063e-01 
5.400000000000e+06 9.755642611962e-01 
5.421600000000e+06 9.764773708023e-01 
5.443200000000e+06 9.773593560706e-01 
5.464800000000e+06 9.782111611357e-01 
5.486400000000e+06 9.790337069059e-01 
5.508000000000e+06 9.798278913623e-01 
5.529600000000e+06 9.805945898687e-01 
5.551200000000e+06 9.813346554937e-01 
5.572800000000e+06 9.820489193411e-01 
5.594400000000e+06 9.827381908899e-01 
5.616000000000e+06 9.834032583413e-01 
5.637600000000e+06 9.840448889724e-01 
5.659200000000e+06 9.846638294952e-01 
5.680800000000e+06 9.852608064212e-01 
5.702400000000e+06 9.858365264292e-01 
5.724000000000e+06 9.863916767362e-01 
5.745600000000e+06 9.869269254713e-01 
5.767200000000e+06 9.874429220508e-01 
5.788800000000e+06 9.879402975544e-01 
5.810400000000e+06 9.884196651025e-01 
5.832000000000e+06 9.888816202323e-01 
5.853600000000e+06 9.893267412743e-01 
5.875200000000e+06 9.897555897270e-01 
5.896800000000e+06 9.901687106301e-01 
5.918400000000e+06 9.905666329359e-01 
5.940000000000e+06 9.909498698780e-01 
5.961600000000e+06 9.913189193373e-01 
5.983200000000e+06 9.916742642049e-01 
6.004800000000e+06 9.920163727411e-01 
6.026400000000e+06 9.923456989315e-01 
6.048000000000e+06 9.926626828379e-01 
6.069600000000e+06 9.929677509464e-01 
6.091200000000e+06 9.932613165092e-01 
6.112800000000e+06 9.935437798838e-01 
6.134400000000e+06 9.938155288653e-01 
6.156000000000e+06 9.940769390151e-01 
6.177600000000e+06 9.943283739841e-01 
6.199200000000e+06 9.945701858301e-01 
6.220800000000e+06 9.948027153307e-01 
6.242400000000e+06 9.950262922900e-01 
6.264000000000e+06 9.952412358399e-01 
6.285600000000e+06 9.954478547362e-01 
6.307200000000e+06 9.956464476487e-01 
6.328800000000e+06 9.958373034456e-01 
6.350400000000e+06 9.960207014720e-01 
6.372000000000e+06 9.961969118235e-01 
6.393600000000e+06 9.963661956130e-01 
6.415200000000e+06 9.965288052323e-01 
6.436800000000e+06 9.966849846081e-01 
6.458400000000e+06 9.968349694520e-01 
6.480000000000e+06 9.969789875049e-01 
6.501600000000e+06 9.971172587759e-01 
6.523200000000e+06 9.972499957755e-01 
6.544800000000e+06 9.973774037429e-01 
6.566400000000e+06 9.974996808686e-01 
6.588000000000e+06 9.976170185109e-01 
6.609600000000e+06 9.977296014072e-01 
6.631200000000e+06 9.978376078798e-01 
6.652800000000e+06 9.979412100370e-01 
6.674400000000e+06 9.980405739684e-01 
6.696000000000e+06 9.981358599353e-01 
6.717600000000e+06 9.982272225562e-01 
6.739200000000e+06 9.983148109873e-01 
6.760800000000e+06 9.983987690980e-01 
6.782400000000e+06 9.984792356418e-01 
6.804000000000e+06 9.985563444223e-01 
6.825600000000e+06 9.986302244548e-01 
6.847200000000e+06 9.987010001230e-01 
6.868800000000e+06 9.987687913320e-01 
6.890400000000e+06 9.988337136561e-01 
6.912000000000e+06 9.988958784827e-01 
6.933600000000e+06 9.989553931523e-01 
6.955200000000e+06 9.990123610938e-01 
6.976800000000e+06 9.990668819567e-01 
6.998400000000e+06 9.991190517381e-01 
7.020000000000e+06 9.991689629073e-01 
7.041600000000e+06 9.992167045257e-01 
7.063200000000e+06 9.992623623633e-01 
7.084800000000e+06 9.993060190121e-01 
7.106400000000e+06 9.993477539949e-01 
7.128000000000e+06 9.993876438722e-01 
7.149600000000e+06 9.994257623448e-01 
7.171200000000e+06 9.994621803531e-01 
7.192800000000e+06 9.994969661742e-01 
7.214400000000e+06 9.995301855149e-01 
7.236000000000e+06 9.995619016024e-01 
7.257600000000e+06 9.995921752715e-01 
7.279200000000e+06 9.996210650502e-01 
7.300800000000e+06 9.996486272408e-01 
7.322400000000e+06 9.996749159997e-01 
7.344000000000e+06 9.996999834144e-01 
7.365600000000e+06 9.997238795771e-01 
7.387200000000e+06 9.997466526574e-01 
7.408800000000e+06 9.997683489707e-01 
7.430400000000e+06 9.997890130463e-01 
7.452000000000e+06 9.998086876915e-01 
7.473600000000e+06 9.998274140549e-01 
7.495200000000e+06 9.998452316866e-01 
7.516800000000e+06 9.998621785967e-01 
7.538400000000e+06 9.998782913124e-01 
7.560000000000e+06 9.998936049319e-01 
7.581600000000e+06 9.999081531776e-01 
7.603200000000e+06 9.999219684469e-01 
7.624800000000e+06 9.999350818614e-01 
7.646400000000e+06 9.999475233144e-01 
7.668000000000e+06 9.999593215166e-01 
7.689600000000e+06 9.999705040407e-01 
7.711200000000e+06 9.999810973633e-01 
7.732800000000e+06 9.999911269071e-01 
7.754400000000e+06 1.000000617080e+00 
7.776000000000e+06 1.000009591313e+00 
7.797600000000e+06 1.000018072098e+00 
7.819200000000e+06 1.000026081023e+00 
7.840800000000e+06 1.000033638808e+00 
7.862400000000e+06 1.000040765335e+00 
7.884000000000e+06 1.000047479682e+00 
7.905600000000e+06 1.000053800153e+00 
7.927200000000e+06 1.000059744310e+00 
7.948800000000e+06 1.000065328999e+00 
7.970400000000e+06 1.000070570376e+00 
7.992000000000e+06 1.000075483941e+00 
8.013600000000e+06 1.000080084553e+00 
8.035200000000e+06 1.000084386463e+00 
8.056800000000e+06 1.000088403336e+00 
8.078400000000e+06 1.000092148270e+00 
8.100000000000e+06 1.000095633822e+00 
8.121600000000e+06 1.000098872030e+00 
8.143200000000e+06 1.000101874427e+00 
8.164800000000e+06 1.000104652070e+00 
8.186400000000e+06 1.000107215550e+00 
8.208000000000e+06 1.000109575017e+00 
8.229600000000e+06 1.000111740194e+00 
8.251200000000e+06 1.000113720394e+00 
8.272800000000e+06 1.000115524538e+00 
8.294400000000e+06 1.000117161168e+00 
8.316000000000e+06 1.000118638466e+00 
8.337600000000e+06 1.000119964263e+00 
8.359200000000e+06 1.000121146058e+00 
8.380800000000e+06 1.000122191030e+00 
8.402400000000e+06 1.000123106048e+00 
8.424000000000e+06 1.000123897687e+00 
8.445600000000e+06 1.000124572238e+00 
8.467200000000e+06 1.000125135721e+00 
8.488800000000e+06 1.000125593893e+00 
8.510400000000e+06 1.000125952263e+00 
8.532000000000e+06 1.000126216097e+00 
8.553600000000e+06 1.000126390433e+00 
8.575200000000e+06 1.000126480087e+00 
8.596800000000e+06 1.000126489661e+00 
8.618400000000e+06 1.000126423558e+00 
8.640000000000e+06 1.000126285981e+00 
8.661600000000e+06 1.000126080950e+00 
8.683200000000e+06 1.000125812303e+00 
8.704800000000e+06 1.000125483708e+00 
8.726400000000e+06 1.000125098666e+00 
8.748000000000e+06 1.000124660521e+00 
8.769600000000e+06 1.000124172468e+00 
8.791200000000e+06 1.000123637552e+00 
8.812800000000e+06 1.000123058684e+00 
8.834400000000e+06 1.000122438638e+00 
8.856000000000e+06 1.000121780061e+00 
8.877600000000e+06 1.000121085480e+00 
8.899200000000e+06 1.000120357301e+00 
8.920800000000e+06 1.000119597822e+00 
8.942400000000e+06 1.000118809229e+00 
8.964000000000e+06 1.000117993609e+00 
8.985600000000e+06 1.000117152948e+00 
9.007200000000e+06 1.000116289138e+00 
9.028800000000e+06 1.000115403981e+00 
9.050400000000e+06 1.000114499192e+00 
9.072000000000e+06 1.000113576403e+00 
9.093600000000e+06 1.000112637169e+00 
9.115200000000e+06 1.000111682965e+00 
9.136800000000e+06 1.000110715196e+00 
9.158400000000e+06 1.000109735198e+00 
9.180000000000e+06 1.000108744238e+00 
9.201600000000e+06 1.000107743523e+00 
9.223200000000e+06 1.000106734195e+00 
9.244800000000e+06 1.000105717342e+00 
9.266400000000e+06 1.000104693992e+00 
9.288000000000e+06 1.000103665124e+00 
9.309600000000e+06 1.000102631663e+00 
9.331200000000e+06 1.000101594487e+00 
9.352800000000e+06 1.000100554428e+00 
9.374400000000e+06 1.000099512271e+00 
9.396000000000e+06 1.000098468761e+00 
9.417600000000e+06 1.000097424602e+00 
9.439200000000e+06 1.000096380459e+00 
9.460800000000e+06 1.000095336959e+00 
9.482400000000e+06 1.000094294696e+00 
9.504000000000e+06 1.000093254227e+00 
9.525600000000e+06 1.000092216081e+00 
9.547200000000e+06 1.000091180752e+00 
9.568800000000e+06 1.000090148708e+00 
9.590400000000e+06 1.000089120386e+00 
9.612000000000e+06 1.000088096199e+00 
9.633600000000e+06 1.000087076533e+00 
9.655200000000e+06 1.000086061750e+00 
9.676800000000e+06 1.000085052188e+00 
9.698400000000e+06 1.000084048166e+00 
9.720000000000e+06 1.000083049977e+00 
9.741600000000e+06 1.000082057899e+00 
9.763200000000e+06 1.000081072187e+00 
9.784800000000e+06 1.000080093080e+00 
9.806400000000e+06 1.000079120799e+00 
9.828000000000e+06 1.000078155547e+00 
9.849600000000e+06 1.000077197515e+00 
9.871200000000e+06 1.000076246875e+00 
9.892800000000e+06 1.000075303787e+00 
9.914400000000e+06 1.000074368397e+00 
9.936000000000e+06 1.000073440839e+00 
9.957600000000e+06 1.000072521233e+00 
9.979200000000e+06 1.000071609688e+00 
1.000080000000e+07 1.000070706303e+00 
1.002240000000e+07 1.000069811165e+00 
1.004400000000e+07 1.000068924352e+00 
1.006560000000e+07 1.000068045933e+00 
1.008720000000e+07 1.000067175967e+00 
1.010880000000e+07 1.000066314505e+00 
1.013040000000e+07 1.000065461590e+00 
1.015200000000e+07 1.000064617257e+00 
1.017360000000e+07 1.000063781535e+00 
1.019520000000e+07 1.000062954443e+00 
1.021680000000e+07 1.000062135998e+00 
1.023840000000e+07 1.000061326208e+00 
1.026000000000e+07 1.000060525075e+00 
1.028160000000e+07 1.000059732598e+00 
1.030320000000e+07 1.000058948768e+00 
1.032480000000e+07 1.000058173573e+00 
1.034640000000e+07 1.000057406996e+00 
1.036800000000e+07 1.000056649016e+00 
1.038960000000e+07 1.000055899607e+00 
1.041120000000e+07 1.000055158739e+00 
1.043280000000e+07 1.000054426381e+00 
1.045440000000e+07 1.000053702496e+00 
1.047600000000e+07 1.000052987045e+00 
1.049760000000e+07 1.000052279986e+00 
1.051920000000e+07 1.000051581273e+00 
1.054080000000e+07 1.000050890859e+00 
1.056240000000e+07 1.000050208694e+00 
1.058400000000e+07 1.000049534727e+00 
1.060560000000e+07 1.000048868902e+00 
1.062720000000e+07 1.000048211165e+00 
1.064880000000e+07 1.000047561456e+00 
1.067040000000e+07 1.000046919717e+00 
1.069200000000e+07 1.000046285887e+00 
1.071360000000e+07 1.000045659903e+00 
1.073520000000e+07 1.000045041701e+00 
1.075680000000e+07 1.000044431217e+00 
1.077840000000e+07 1.000043828385e+00 
1.080000000000e+07 1.000043233138e+00 
