 TITLE = "Profiles along polylines"
 VARIABLES = "DIST" "PRESSURE1" "SATURATION1" "SATURATION2" 
 ZONE T="TIME=0.000000000000e+00"
0.000000000000e+00 9.806700000000e+04 1.000000000000e+00 0.000000000000e+00 
3.333333333333e-01 9.806700000000e+04 1.000000000000e+00 0.000000000000e+00 
6.666666666667e-01 9.806700000000e+04 1.000000000000e+00 0.000000000000e+00 
1.000000000000e+00 9.806700000000e+04 1.000000000000e+00 0.000000000000e+00 
1.333333333333e+00 9.806700000000e+04 1.000000000000e+00 0.000000000000e+00 
1.666666666667e+00 9.806700000000e+04 1.000000000000e+00 0.000000000000e+00 
2.000000000000e+00 9.806700000000e+04 1.000000000000e+00 0.000000000000e+00 
2.333333333333e+00 9.806700000000e+04 1.000000000000e+00 0.000000000000e+00 
2.666666666667e+00 9.806700000000e+04 1.000000000000e+00 0.000000000000e+00 
3.000000000000e+00 9.806700000000e+04 1.000000000000e+00 0.000000000000e+00 
3.333333333333e+00 9.806700000000e+04 1.000000000000e+00 0.000000000000e+00 
3.666666666667e+00 9.806700000000e+04 1.000000000000e+00 0.000000000000e+00 
4.000000000000e+00 9.806700000000e+04 1.000000000000e+00 0.000000000000e+00 
4.333333333333e+00 9.806700000000e+04 1.000000000000e+00 0.000000000000e+00 
4.666666666667e+00 9.806700000000e+04 1.000000000000e+00 0.000000000000e+00 
5.000000000000e+00 9.806700000000e+04 8.999977480000e-01 1.000022520000e-01 
5.333333333333e+00 9.806700000000e+04 8.999977480000e-01 1.000022520000e-01 
5.666666666667e+00 9.806700000000e+04 8.999977480000e-01 1.000022520000e-01 
6.000000000000e+00 9.806700000000e+04 8.999977480000e-01 1.000022520000e-01 
6.333333333333e+00 9.806700000000e+04 8.999977480000e-01 1.000022520000e-01 
6.666666666667e+00 9.806700000000e+04 8.999977480000e-01 1.000022520000e-01 
7.000000000000e+00 9.806700000000e+04 8.999977480000e-01 1.000022520000e-01 
7.333333333333e+00 9.806700000000e+04 8.999977480000e-01 1.000022520000e-01 
7.666666666667e+00 9.806700000000e+04 8.999977480000e-01 1.000022520000e-01 
8.000000000000e+00 9.806700000000e+04 8.999977480000e-01 1.000022520000e-01 
8.333333333333e+00 9.806700000000e+04 8.999977480000e-01 1.000022520000e-01 
8.666666666667e+00 9.806700000000e+04 8.999977480000e-01 1.000022520000e-01 
9.000000000000e+00 9.806700000000e+04 8.999977480000e-01 1.000022520000e-01 
9.333333333333e+00 9.806700000000e+04 8.999977480000e-01 1.000022520000e-01 
9.666666666667e+00 9.806700000000e+04 8.999977480000e-01 1.000022520000e-01 
1.000000000000e+01 9.806700000000e+04 8.999977480000e-01 1.000022520000e-01 
1.033333333333e+01 9.806700000000e+04 8.999977480000e-01 1.000022520000e-01 
1.066666666667e+01 9.806700000000e+04 1.000000000000e+00 0.000000000000e+00 
1.100000000000e+01 9.806700000000e+04 1.000000000000e+00 0.000000000000e+00 
1.133333333333e+01 9.806700000000e+04 1.000000000000e+00 0.000000000000e+00 
1.166666666667e+01 9.806700000000e+04 1.000000000000e+00 0.000000000000e+00 
1.200000000000e+01 9.806700000000e+04 1.000000000000e+00 0.000000000000e+00 
1.233333333333e+01 9.806700000000e+04 1.000000000000e+00 0.000000000000e+00 
1.266666666667e+01 9.806700000000e+04 1.000000000000e+00 0.000000000000e+00 
1.300000000000e+01 9.806700000000e+04 1.000000000000e+00 0.000000000000e+00 
1.333333333333e+01 9.806700000000e+04 1.000000000000e+00 0.000000000000e+00 
1.366666666667e+01 9.806700000000e+04 1.000000000000e+00 0.000000000000e+00 
1.400000000000e+01 9.806700000000e+04 1.000000000000e+00 0.000000000000e+00 
1.433333333333e+01 9.806700000000e+04 1.000000000000e+00 0.000000000000e+00 
1.466666666667e+01 9.806700000000e+04 1.000000000000e+00 0.000000000000e+00 
1.500000000000e+01 9.806700000000e+04 1.000000000000e+00 0.000000000000e+00 
1.533333333333e+01 9.806700000000e+04 1.000000000000e+00 0.000000000000e+00 
1.566666666667e+01 9.806700000000e+04 1.000000000000e+00 0.000000000000e+00 
1.600000000000e+01 9.806700000000e+04 1.000000000000e+00 0.000000000000e+00 
1.633333333333e+01 9.806700000000e+04 1.000000000000e+00 0.000000000000e+00 
1.666666666667e+01 9.806700000000e+04 1.000000000000e+00 0.000000000000e+00 
1.700000000000e+01 9.806700000000e+04 1.000000000000e+00 0.000000000000e+00 
1.733333333333e+01 9.806700000000e+04 1.000000000000e+00 0.000000000000e+00 
1.766666666667e+01 9.806700000000e+04 1.000000000000e+00 0.000000000000e+00 
1.800000000000e+01 9.806700000000e+04 1.000000000000e+00 0.000000000000e+00 
1.833333333333e+01 9.806700000000e+04 1.000000000000e+00 0.000000000000e+00 
1.866666666667e+01 9.806700000000e+04 1.000000000000e+00 0.000000000000e+00 
1.900000000000e+01 9.806700000000e+04 1.000000000000e+00 0.000000000000e+00 
1.933333333333e+01 9.806700000000e+04 1.000000000000e+00 0.000000000000e+00 
1.966666666667e+01 9.806700000000e+04 1.000000000000e+00 0.000000000000e+00 
2.000000000000e+01 9.806700000000e+04 1.000000000000e+00 0.000000000000e+00 
2.033333333333e+01 9.806700000000e+04 1.000000000000e+00 0.000000000000e+00 
2.066666666667e+01 9.806700000000e+04 1.000000000000e+00 0.000000000000e+00 
2.100000000000e+01 9.806700000000e+04 1.000000000000e+00 0.000000000000e+00 
2.133333333333e+01 9.806700000000e+04 1.000000000000e+00 0.000000000000e+00 
2.166666666667e+01 9.806700000000e+04 1.000000000000e+00 0.000000000000e+00 
2.200000000000e+01 9.806700000000e+04 1.000000000000e+00 0.000000000000e+00 
2.233333333333e+01 9.806700000000e+04 1.000000000000e+00 0.000000000000e+00 
2.266666666667e+01 9.806700000000e+04 1.000000000000e+00 0.000000000000e+00 
2.300000000000e+01 9.806700000000e+04 1.000000000000e+00 0.000000000000e+00 
2.333333333333e+01 9.806700000000e+04 1.000000000000e+00 0.000000000000e+00 
2.366666666667e+01 9.806700000000e+04 1.000000000000e+00 0.000000000000e+00 
2.400000000000e+01 9.806700000000e+04 1.000000000000e+00 0.000000000000e+00 
2.433333333333e+01 9.806700000000e+04 1.000000000000e+00 0.000000000000e+00 
2.466666666667e+01 9.806700000000e+04 1.000000000000e+00 0.000000000000e+00 
2.500000000000e+01 9.806700000000e+04 1.000000000000e+00 0.000000000000e+00 
2.533333333333e+01 9.806700000000e+04 1.000000000000e+00 0.000000000000e+00 
2.566666666667e+01 9.806700000000e+04 1.000000000000e+00 0.000000000000e+00 
2.600000000000e+01 9.806700000000e+04 1.000000000000e+00 0.000000000000e+00 
2.633333333333e+01 9.806700000000e+04 1.000000000000e+00 0.000000000000e+00 
2.666666666667e+01 9.806700000000e+04 1.000000000000e+00 0.000000000000e+00 
2.700000000000e+01 9.806700000000e+04 1.000000000000e+00 0.000000000000e+00 
2.733333333333e+01 9.806700000000e+04 1.000000000000e+00 0.000000000000e+00 
2.766666666667e+01 9.806700000000e+04 1.000000000000e+00 0.000000000000e+00 
2.800000000000e+01 9.806700000000e+04 1.000000000000e+00 0.000000000000e+00 
2.833333333333e+01 9.806700000000e+04 1.000000000000e+00 0.000000000000e+00 
2.866666666667e+01 9.806700000000e+04 1.000000000000e+00 0.000000000000e+00 
2.900000000000e+01 9.806700000000e+04 1.000000000000e+00 0.000000000000e+00 
2.933333333333e+01 9.806700000000e+04 1.000000000000e+00 0.000000000000e+00 
2.966666666667e+01 9.806700000000e+04 1.000000000000e+00 0.000000000000e+00 
3.000000000000e+01 9.806700000000e+04 1.000000000000e+00 0.000000000000e+00 
3.033333333333e+01 9.806700000000e+04 1.000000000000e+00 0.000000000000e+00 
3.066666666667e+01 9.806700000000e+04 1.000000000000e+00 0.000000000000e+00 
3.100000000000e+01 9.806700000000e+04 1.000000000000e+00 0.000000000000e+00 
3.133333333333e+01 9.806700000000e+04 1.000000000000e+00 0.000000000000e+00 
3.166666666667e+01 9.806700000000e+04 1.000000000000e+00 0.000000000000e+00 
3.200000000000e+01 9.806700000000e+04 1.000000000000e+00 0.000000000000e+00 
3.233333333333e+01 9.806700000000e+04 1.000000000000e+00 0.000000000000e+00 
3.266666666667e+01 9.806700000000e+04 1.000000000000e+00 0.000000000000e+00 
3.300000000000e+01 9.806700000000e+04 1.000000000000e+00 0.000000000000e+00 
3.333333333333e+01 9.806700000000e+04 1.000000000000e+00 0.000000000000e+00 
3.366666666667e+01 9.806700000000e+04 1.000000000000e+00 0.000000000000e+00 
3.400000000000e+01 9.806700000000e+04 1.000000000000e+00 0.000000000000e+00 
3.433333333333e+01 9.806700000000e+04 1.000000000000e+00 0.000000000000e+00 
3.466666666667e+01 9.806700000000e+04 1.000000000000e+00 0.000000000000e+00 
3.500000000000e+01 9.806700000000e+04 1.000000000000e+00 0.000000000000e+00 
3.533333333333e+01 9.806700000000e+04 1.000000000000e+00 0.000000000000e+00 
3.566666666667e+01 9.806700000000e+04 1.000000000000e+00 0.000000000000e+00 
3.600000000000e+01 9.806700000000e+04 1.000000000000e+00 0.000000000000e+00 
3.633333333333e+01 9.806700000000e+04 1.000000000000e+00 0.000000000000e+00 
3.666666666667e+01 9.806700000000e+04 1.000000000000e+00 0.000000000000e+00 
3.700000000000e+01 9.806700000000e+04 1.000000000000e+00 0.000000000000e+00 
3.733333333333e+01 9.806700000000e+04 1.000000000000e+00 0.000000000000e+00 
3.766666666667e+01 9.806700000000e+04 1.000000000000e+00 0.000000000000e+00 
3.800000000000e+01 9.806700000000e+04 1.000000000000e+00 0.000000000000e+00 
3.833333333333e+01 9.806700000000e+04 1.000000000000e+00 0.000000000000e+00 
3.866666666667e+01 9.806700000000e+04 1.000000000000e+00 0.000000000000e+00 
3.900000000000e+01 9.806700000000e+04 1.000000000000e+00 0.000000000000e+00 
3.933333333333e+01 9.806700000000e+04 1.000000000000e+00 0.000000000000e+00 
3.966666666667e+01 9.806700000000e+04 1.000000000000e+00 0.000000000000e+00 
4.000000000000e+01 9.806700000000e+04 1.000000000000e+00 0.000000000000e+00 
4.033333333333e+01 9.806700000000e+04 1.000000000000e+00 0.000000000000e+00 
4.066666666667e+01 9.806700000000e+04 1.000000000000e+00 0.000000000000e+00 
4.100000000000e+01 9.806700000000e+04 1.000000000000e+00 0.000000000000e+00 
4.133333333333e+01 9.806700000000e+04 1.000000000000e+00 0.000000000000e+00 
4.166666666667e+01 9.806700000000e+04 1.000000000000e+00 0.000000000000e+00 
4.200000000000e+01 9.806700000000e+04 1.000000000000e+00 0.000000000000e+00 
4.233333333333e+01 9.806700000000e+04 1.000000000000e+00 0.000000000000e+00 
4.266666666667e+01 9.806700000000e+04 1.000000000000e+00 0.000000000000e+00 
4.300000000000e+01 9.806700000000e+04 1.000000000000e+00 0.000000000000e+00 
4.333333333333e+01 9.806700000000e+04 1.000000000000e+00 0.000000000000e+00 
4.366666666667e+01 9.806700000000e+04 1.000000000000e+00 0.000000000000e+00 
4.400000000000e+01 9.806700000000e+04 1.000000000000e+00 0.000000000000e+00 
4.433333333333e+01 9.806700000000e+04 1.000000000000e+00 0.000000000000e+00 
4.466666666667e+01 9.806700000000e+04 1.000000000000e+00 0.000000000000e+00 
4.500000000000e+01 9.806700000000e+04 1.000000000000e+00 0.000000000000e+00 
4.533333333333e+01 9.806700000000e+04 1.000000000000e+00 0.000000000000e+00 
4.566666666667e+01 9.806700000000e+04 1.000000000000e+00 0.000000000000e+00 
4.600000000000e+01 9.806700000000e+04 1.000000000000e+00 0.000000000000e+00 
4.633333333333e+01 9.806700000000e+04 1.000000000000e+00 0.000000000000e+00 
4.666666666667e+01 9.806700000000e+04 1.000000000000e+00 0.000000000000e+00 
4.700000000000e+01 9.806700000000e+04 1.000000000000e+00 0.000000000000e+00 
4.733333333333e+01 9.806700000000e+04 1.000000000000e+00 0.000000000000e+00 
4.766666666667e+01 9.806700000000e+04 1.000000000000e+00 0.000000000000e+00 
4.800000000000e+01 9.806700000000e+04 1.000000000000e+00 0.000000000000e+00 
4.833333333333e+01 9.806700000000e+04 1.000000000000e+00 0.000000000000e+00 
4.866666666667e+01 9.806700000000e+04 1.000000000000e+00 0.000000000000e+00 
4.900000000000e+01 9.806700000000e+04 1.000000000000e+00 0.000000000000e+00 
4.933333333333e+01 9.806700000000e+04 1.000000000000e+00 0.000000000000e+00 
4.966666666667e+01 9.806700000000e+04 1.000000000000e+00 0.000000000000e+00 
5.000000000000e+01 9.806700000000e+04 1.000000000000e+00 0.000000000000e+00 
 TITLE = "Profiles along polylines"
 VARIABLES = "DIST" "PRESSURE1" "SATURATION1" "SATURATION2" 
 ZONE T="TIME=2.160000000000e+04"
0.000000000000e+00 9.810000000000e+04 1.000000000000e+00 0.000000000000e+00 
3.333333333333e-01 9.806936433215e+04 1.000000000000e+00 0.000000000000e+00 
6.666666666667e-01 9.803872884521e+04 1.000000000000e+00 0.000000000000e+00 
1.000000000000e+00 9.800809378042e+04 1.000000000000e+00 0.000000000000e+00 
1.333333333333e+00 9.797745951987e+04 1.000000000000e+00 0.000000000000e+00 
1.666666666667e+00 9.794682671410e+04 1.000000000000e+00 0.000000000000e+00 
2.000000000000e+00 9.791619649946e+04 1.000000000000e+00 0.000000000000e+00 
2.333333333333e+00 9.788557087845e+04 1.000000000000e+00 0.000000000000e+00 
2.666666666667e+00 9.785495339104e+04 1.000000000000e+00 0.000000000000e+00 
3.000000000000e+00 9.782435030485e+04 1.000000000000e+00 0.000000000000e+00 
3.333333333333e+00 9.779377273099e+04 1.000000000000e+00 0.000000000000e+00 
3.666666666667e+00 9.776324039746e+04 1.000000000000e+00 0.000000000000e+00 
4.000000000000e+00 9.773278840761e+04 1.000000000000e+00 0.000000000000e+00 
4.333333333333e+00 9.770247941899e+04 1.000000000000e+00 0.000000000000e+00 
4.666666666667e+00 9.767242577984e+04 1.000000000000e+00 0.000000000000e+00 
5.000000000000e+00 9.763064953020e+04 8.999977480000e-01 1.000022520000e-01 
5.333333333333e+00 9.758251400003e+04 8.999977480000e-01 1.000022520000e-01 
5.666666666667e+00 9.753399566447e+04 8.999977480000e-01 1.000022520000e-01 
6.000000000000e+00 9.748526301896e+04 8.999977480000e-01 1.000022520000e-01 
6.333333333333e+00 9.743640978060e+04 8.999977480000e-01 1.000022520000e-01 
6.666666666667e+00 9.738748819251e+04 8.999977480000e-01 1.000022520000e-01 
7.000000000000e+00 9.733852722727e+04 8.999977480000e-01 1.000022520000e-01 
7.333333333333e+00 9.728954254605e+04 8.999977480000e-01 1.000022520000e-01 
7.666666666667e+00 9.724054183510e+04 8.999977480000e-01 1.000022520000e-01 
8.000000000000e+00 9.719152741423e+04 8.999977480000e-01 1.000022520000e-01 
8.333333333333e+00 9.714249703325e+04 8.999977480000e-01 1.000022520000e-01 
8.666666666667e+00 9.709344314515e+04 8.999977480000e-01 1.000022520000e-01 
9.000000000000e+00 9.704435043685e+04 8.999977480000e-01 1.000022520000e-01 
9.333333333333e+00 9.699519084082e+04 8.999977480000e-01 1.000022520000e-01 
9.666666666667e+00 9.694591448096e+04 8.999977480000e-01 1.000022520000e-01 
1.000000000000e+01 9.689643383627e+04 8.999977480000e-01 1.000022520000e-01 
1.033333333333e+01 9.684659663247e+04 8.999977480000e-01 1.000022520000e-01 
1.066666666667e+01 9.681136399098e+04 1.000000000000e+00 0.000000000000e+00 
1.100000000000e+01 9.678017092627e+04 1.000000000000e+00 0.000000000000e+00 
1.133333333333e+01 9.674921731722e+04 1.000000000000e+00 0.000000000000e+00 
1.166666666667e+01 9.671840063863e+04 1.000000000000e+00 0.000000000000e+00 
1.200000000000e+01 9.668766198511e+04 1.000000000000e+00 0.000000000000e+00 
1.233333333333e+01 9.665696768669e+04 1.000000000000e+00 0.000000000000e+00 
1.266666666667e+01 9.662629856317e+04 1.000000000000e+00 0.000000000000e+00 
1.300000000000e+01 9.659564371323e+04 1.000000000000e+00 0.000000000000e+00 
1.333333333333e+01 9.656499695031e+04 1.000000000000e+00 0.000000000000e+00 
1.366666666667e+01 9.653435476710e+04 1.000000000000e+00 0.000000000000e+00 
1.400000000000e+01 9.650371517654e+04 1.000000000000e+00 0.000000000000e+00 
1.433333333333e+01 9.647307705341e+04 1.000000000000e+00 0.000000000000e+00 
1.466666666667e+01 9.644243976073e+04 1.000000000000e+00 0.000000000000e+00 
1.500000000000e+01 9.641180293795e+04 1.000000000000e+00 0.000000000000e+00 
1.533333333333e+01 9.638116638105e+04 1.000000000000e+00 0.000000000000e+00 
1.566666666667e+01 9.635052997458e+04 1.000000000000e+00 0.000000000000e+00 
1.600000000000e+01 9.631989365322e+04 1.000000000000e+00 0.000000000000e+00 
1.633333333333e+01 9.628925738001e+04 1.000000000000e+00 0.000000000000e+00 
1.666666666667e+01 9.625862113403e+04 1.000000000000e+00 0.000000000000e+00 
1.700000000000e+01 9.622798490345e+04 1.000000000000e+00 0.000000000000e+00 
1.733333333333e+01 9.619734868159e+04 1.000000000000e+00 0.000000000000e+00 
1.766666666667e+01 9.616671246464e+04 1.000000000000e+00 0.000000000000e+00 
1.800000000000e+01 9.613607625048e+04 1.000000000000e+00 0.000000000000e+00 
1.833333333333e+01 9.610544003789e+04 1.000000000000e+00 0.000000000000e+00 
1.866666666667e+01 9.607480382618e+04 1.000000000000e+00 0.000000000000e+00 
1.900000000000e+01 9.604416761497e+04 1.000000000000e+00 0.000000000000e+00 
1.933333333333e+01 9.601353140403e+04 1.000000000000e+00 0.000000000000e+00 
1.966666666667e+01 9.598289519325e+04 1.000000000000e+00 0.000000000000e+00 
2.000000000000e+01 9.595225898254e+04 1.000000000000e+00 0.000000000000e+00 
2.033333333333e+01 9.592162277188e+04 1.000000000000e+00 0.000000000000e+00 
2.066666666667e+01 9.589098656123e+04 1.000000000000e+00 0.000000000000e+00 
2.100000000000e+01 9.586035035059e+04 1.000000000000e+00 0.000000000000e+00 
2.133333333333e+01 9.582971413995e+04 1.000000000000e+00 0.000000000000e+00 
2.166666666667e+01 9.579907792930e+04 1.000000000000e+00 0.000000000000e+00 
2.200000000000e+01 9.576844171865e+04 1.000000000000e+00 0.000000000000e+00 
2.233333333333e+01 9.573780550798e+04 1.000000000000e+00 0.000000000000e+00 
2.266666666667e+01 9.570716929730e+04 1.000000000000e+00 0.000000000000e+00 
2.300000000000e+01 9.567653308661e+04 1.000000000000e+00 0.000000000000e+00 
2.333333333333e+01 9.564589687590e+04 1.000000000000e+00 0.000000000000e+00 
2.366666666667e+01 9.561526066518e+04 1.000000000000e+00 0.000000000000e+00 
2.400000000000e+01 9.558462445445e+04 1.000000000000e+00 0.000000000000e+00 
2.433333333333e+01 9.555398824371e+04 1.000000000000e+00 0.000000000000e+00 
2.466666666667e+01 9.552335203296e+04 1.000000000000e+00 0.000000000000e+00 
2.500000000000e+01 9.549271582220e+04 1.000000000000e+00 0.000000000000e+00 
2.533333333333e+01 9.546207961143e+04 1.000000000000e+00 0.000000000000e+00 
2.566666666667e+01 9.543144340065e+04 1.000000000000e+00 0.000000000000e+00 
2.600000000000e+01 9.540080718986e+04 1.000000000000e+00 0.000000000000e+00 
2.633333333333e+01 9.537017097907e+04 1.000000000000e+00 0.000000000000e+00 
2.666666666667e+01 9.533953476827e+04 1.000000000000e+00 0.000000000000e+00 
2.700000000000e+01 9.530889855746e+04 1.000000000000e+00 0.000000000000e+00 
2.733333333333e+01 9.527826234664e+04 1.000000000000e+00 0.000000000000e+00 
2.766666666667e+01 9.524762613582e+04 1.000000000000e+00 0.000000000000e+00 
2.800000000000e+01 9.521698992499e+04 1.000000000000e+00 0.000000000000e+00 
2.833333333333e+01 9.518635371416e+04 1.000000000000e+00 0.000000000000e+00 
2.866666666667e+01 9.515571750332e+04 1.000000000000e+00 0.000000000000e+00 
2.900000000000e+01 9.512508129248e+04 1.000000000000e+00 0.000000000000e+00 
2.933333333333e+01 9.509444508163e+04 1.000000000000e+00 0.000000000000e+00 
2.966666666667e+01 9.506380887078e+04 1.000000000000e+00 0.000000000000e+00 
3.000000000000e+01 9.503317265992e+04 1.000000000000e+00 0.000000000000e+00 
3.033333333333e+01 9.500253644906e+04 1.000000000000e+00 0.000000000000e+00 
3.066666666667e+01 9.497190023819e+04 1.000000000000e+00 0.000000000000e+00 
3.100000000000e+01 9.494126402732e+04 1.000000000000e+00 0.000000000000e+00 
3.133333333333e+01 9.491062781645e+04 1.000000000000e+00 0.000000000000e+00 
3.166666666667e+01 9.487999160558e+04 1.000000000000e+00 0.000000000000e+00 
3.200000000000e+01 9.484935539470e+04 1.000000000000e+00 0.000000000000e+00 
3.233333333333e+01 9.481871918383e+04 1.000000000000e+00 0.000000000000e+00 
3.266666666667e+01 9.478808297295e+04 1.000000000000e+00 0.000000000000e+00 
3.300000000000e+01 9.475744676206e+04 1.000000000000e+00 0.000000000000e+00 
3.333333333333e+01 9.472681055118e+04 1.000000000000e+00 0.000000000000e+00 
3.366666666667e+01 9.469617434029e+04 1.000000000000e+00 0.000000000000e+00 
3.400000000000e+01 9.466553812940e+04 1.000000000000e+00 0.000000000000e+00 
3.433333333333e+01 9.463490191850e+04 1.000000000000e+00 0.000000000000e+00 
3.466666666667e+01 9.460426570761e+04 1.000000000000e+00 0.000000000000e+00 
3.500000000000e+01 9.457362949670e+04 1.000000000000e+00 0.000000000000e+00 
3.533333333333e+01 9.454299328580e+04 1.000000000000e+00 0.000000000000e+00 
3.566666666667e+01 9.451235707489e+04 1.000000000000e+00 0.000000000000e+00 
3.600000000000e+01 9.448172086397e+04 1.000000000000e+00 0.000000000000e+00 
3.633333333333e+01 9.445108465305e+04 1.000000000000e+00 0.000000000000e+00 
3.666666666667e+01 9.442044844213e+04 1.000000000000e+00 0.000000000000e+00 
3.700000000000e+01 9.438981223120e+04 1.000000000000e+00 0.000000000000e+00 
3.733333333333e+01 9.435917602026e+04 1.000000000000e+00 0.000000000000e+00 
3.766666666667e+01 9.432853980933e+04 1.000000000000e+00 0.000000000000e+00 
3.800000000000e+01 9.429790359838e+04 1.000000000000e+00 0.000000000000e+00 
3.833333333333e+01 9.426726738744e+04 1.000000000000e+00 0.000000000000e+00 
3.866666666667e+01 9.423663117648e+04 1.000000000000e+00 0.000000000000e+00 
3.900000000000e+01 9.420599496553e+04 1.000000000000e+00 0.000000000000e+00 
3.933333333333e+01 9.417535875456e+04 1.000000000000e+00 0.000000000000e+00 
3.966666666667e+01 9.414472254359e+04 1.000000000000e+00 0.000000000000e+00 
4.000000000000e+01 9.411408633261e+04 1.000000000000e+00 0.000000000000e+00 
4.033333333333e+01 9.408345012163e+04 1.000000000000e+00 0.000000000000e+00 
4.066666666667e+01 9.405281391063e+04 1.000000000000e+00 0.000000000000e+00 
4.100000000000e+01 9.402217769963e+04 1.000000000000e+00 0.000000000000e+00 
4.133333333333e+01 9.399154148862e+04 1.000000000000e+00 0.000000000000e+00 
4.166666666667e+01 9.396090527759e+04 1.000000000000e+00 0.000000000000e+00 
4.200000000000e+01 9.393026906656e+04 1.000000000000e+00 0.000000000000e+00 
4.233333333333e+01 9.389963285552e+04 1.000000000000e+00 0.000000000000e+00 
4.266666666667e+01 9.386899664447e+04 1.000000000000e+00 0.000000000000e+00 
4.300000000000e+01 9.383836043342e+04 1.000000000000e+00 0.000000000000e+00 
4.333333333333e+01 9.380772422235e+04 1.000000000000e+00 0.000000000000e+00 
4.366666666667e+01 9.377708801128e+04 1.000000000000e+00 0.000000000000e+00 
4.400000000000e+01 9.374645180020e+04 1.000000000000e+00 0.000000000000e+00 
4.433333333333e+01 9.371581558911e+04 1.000000000000e+00 0.000000000000e+00 
4.466666666667e+01 9.368517937802e+04 1.000000000000e+00 0.000000000000e+00 
4.500000000000e+01 9.365454316693e+04 1.000000000000e+00 0.000000000000e+00 
4.533333333333e+01 9.362390695583e+04 1.000000000000e+00 0.000000000000e+00 
4.566666666667e+01 9.359327074473e+04 1.000000000000e+00 0.000000000000e+00 
4.600000000000e+01 9.356263453362e+04 1.000000000000e+00 0.000000000000e+00 
4.633333333333e+01 9.353199832251e+04 1.000000000000e+00 0.000000000000e+00 
4.666666666667e+01 9.350136211140e+04 1.000000000000e+00 0.000000000000e+00 
4.700000000000e+01 9.347072590028e+04 1.000000000000e+00 0.000000000000e+00 
4.733333333333e+01 9.344008968915e+04 1.000000000000e+00 0.000000000000e+00 
4.766666666667e+01 9.340945347803e+04 1.000000000000e+00 0.000000000000e+00 
4.800000000000e+01 9.337881726689e+04 1.000000000000e+00 0.000000000000e+00 
4.833333333333e+01 9.334818105575e+04 1.000000000000e+00 0.000000000000e+00 
4.866666666667e+01 9.331754484461e+04 1.000000000000e+00 0.000000000000e+00 
4.900000000000e+01 9.328690863346e+04 1.000000000000e+00 0.000000000000e+00 
4.933333333333e+01 9.325627242231e+04 1.000000000000e+00 0.000000000000e+00 
4.966666666667e+01 9.322563621115e+04 1.000000000000e+00 0.000000000000e+00 
5.000000000000e+01 9.319500000000e+04 1.000000000000e+00 0.000000000000e+00 
 TITLE = "Profiles along polylines"
 VARIABLES = "DIST" "PRESSURE1" "SATURATION1" "SATURATION2" 
 ZONE T="TIME=4.320000000000e+04"
0.000000000000e+00 9.810000000000e+04 1.000000000000e+00 0.000000000000e+00 
3.333333333333e-01 9.806936433215e+04 1.000000000000e+00 0.000000000000e+00 
6.666666666667e-01 9.803872884521e+04 1.000000000000e+00 0.000000000000e+00 
1.000000000000e+00 9.800809378042e+04 1.000000000000e+00 0.000000000000e+00 
1.333333333333e+00 9.797745951987e+04 1.000000000000e+00 0.000000000000e+00 
1.666666666667e+00 9.794682671410e+04 1.000000000000e+00 0.000000000000e+00 
2.000000000000e+00 9.791619649946e+04 1.000000000000e+00 0.000000000000e+00 
2.333333333333e+00 9.788557087845e+04 1.000000000000e+00 0.000000000000e+00 
2.666666666667e+00 9.785495339104e+04 1.000000000000e+00 0.000000000000e+00 
3.000000000000e+00 9.782435030485e+04 1.000000000000e+00 0.000000000000e+00 
3.333333333333e+00 9.779377273099e+04 1.000000000000e+00 0.000000000000e+00 
3.666666666667e+00 9.776324039746e+04 1.000000000000e+00 0.000000000000e+00 
4.000000000000e+00 9.773278840761e+04 1.000000000000e+00 0.000000000000e+00 
4.333333333333e+00 9.770247941899e+04 1.000000000000e+00 0.000000000000e+00 
4.666666666667e+00 9.767242577984e+04 1.000000000000e+00 0.000000000000e+00 
5.000000000000e+00 9.763064953020e+04 8.999977480000e-01 1.000022520000e-01 
5.333333333333e+00 9.758251400003e+04 8.999977480000e-01 1.000022520000e-01 
5.666666666667e+00 9.753399566447e+04 8.999977480000e-01 1.000022520000e-01 
6.000000000000e+00 9.748526301896e+04 8.999977480000e-01 1.000022520000e-01 
6.333333333333e+00 9.743640978060e+04 8.999977480000e-01 1.000022520000e-01 
6.666666666667e+00 9.738748819251e+04 8.999977480000e-01 1.000022520000e-01 
7.000000000000e+00 9.733852722727e+04 8.999977480000e-01 1.000022520000e-01 
7.333333333333e+00 9.728954254605e+04 8.999977480000e-01 1.000022520000e-01 
7.666666666667e+00 9.724054183510e+04 8.999977480000e-01 1.000022520000e-01 
8.000000000000e+00 9.719152741423e+04 8.999977480000e-01 1.000022520000e-01 
8.333333333333e+00 9.714249703325e+04 8.999977480000e-01 1.000022520000e-01 
8.666666666667e+00 9.709344314515e+04 8.999977480000e-01 1.000022520000e-01 
9.000000000000e+00 9.704435043685e+04 8.999977480000e-01 1.000022520000e-01 
9.333333333333e+00 9.699519084082e+04 8.999977480000e-01 1.000022520000e-01 
9.666666666667e+00 9.694591448096e+04 8.999977480000e-01 1.000022520000e-01 
1.000000000000e+01 9.689643383627e+04 8.999977480000e-01 1.000022520000e-01 
1.033333333333e+01 9.684659663247e+04 8.999977480000e-01 1.000022520000e-01 
1.066666666667e+01 9.681136399098e+04 1.000000000000e+00 0.000000000000e+00 
1.100000000000e+01 9.678017092627e+04 1.000000000000e+00 0.000000000000e+00 
1.133333333333e+01 9.674921731722e+04 1.000000000000e+00 0.000000000000e+00 
1.166666666667e+01 9.671840063863e+04 1.000000000000e+00 0.000000000000e+00 
1.200000000000e+01 9.668766198511e+04 1.000000000000e+00 0.000000000000e+00 
1.233333333333e+01 9.665696768669e+04 1.000000000000e+00 0.000000000000e+00 
1.266666666667e+01 9.662629856317e+04 1.000000000000e+00 0.000000000000e+00 
1.300000000000e+01 9.659564371323e+04 1.000000000000e+00 0.000000000000e+00 
1.333333333333e+01 9.656499695031e+04 1.000000000000e+00 0.000000000000e+00 
1.366666666667e+01 9.653435476710e+04 1.000000000000e+00 0.000000000000e+00 
1.400000000000e+01 9.650371517654e+04 1.000000000000e+00 0.000000000000e+00 
1.433333333333e+01 9.647307705341e+04 1.000000000000e+00 0.000000000000e+00 
1.466666666667e+01 9.644243976073e+04 1.000000000000e+00 0.000000000000e+00 
1.500000000000e+01 9.641180293795e+04 1.000000000000e+00 0.000000000000e+00 
1.533333333333e+01 9.638116638105e+04 1.000000000000e+00 0.000000000000e+00 
1.566666666667e+01 9.635052997458e+04 1.000000000000e+00 0.000000000000e+00 
1.600000000000e+01 9.631989365322e+04 1.000000000000e+00 0.000000000000e+00 
1.633333333333e+01 9.628925738001e+04 1.000000000000e+00 0.000000000000e+00 
1.666666666667e+01 9.625862113403e+04 1.000000000000e+00 0.000000000000e+00 
1.700000000000e+01 9.622798490345e+04 1.000000000000e+00 0.000000000000e+00 
1.733333333333e+01 9.619734868159e+04 1.000000000000e+00 0.000000000000e+00 
1.766666666667e+01 9.616671246464e+04 1.000000000000e+00 0.000000000000e+00 
1.800000000000e+01 9.613607625048e+04 1.000000000000e+00 0.000000000000e+00 
1.833333333333e+01 9.610544003789e+04 1.000000000000e+00 0.000000000000e+00 
1.866666666667e+01 9.607480382618e+04 1.000000000000e+00 0.000000000000e+00 
1.900000000000e+01 9.604416761497e+04 1.000000000000e+00 0.000000000000e+00 
1.933333333333e+01 9.601353140403e+04 1.000000000000e+00 0.000000000000e+00 
1.966666666667e+01 9.598289519325e+04 1.000000000000e+00 0.000000000000e+00 
2.000000000000e+01 9.595225898254e+04 1.000000000000e+00 0.000000000000e+00 
2.033333333333e+01 9.592162277188e+04 1.000000000000e+00 0.000000000000e+00 
2.066666666667e+01 9.589098656123e+04 1.000000000000e+00 0.000000000000e+00 
2.100000000000e+01 9.586035035059e+04 1.000000000000e+00 0.000000000000e+00 
2.133333333333e+01 9.582971413995e+04 1.000000000000e+00 0.000000000000e+00 
2.166666666667e+01 9.579907792930e+04 1.000000000000e+00 0.000000000000e+00 
2.200000000000e+01 9.576844171865e+04 1.000000000000e+00 0.000000000000e+00 
2.233333333333e+01 9.573780550798e+04 1.000000000000e+00 0.000000000000e+00 
2.266666666667e+01 9.570716929730e+04 1.000000000000e+00 0.000000000000e+00 
2.300000000000e+01 9.567653308661e+04 1.000000000000e+00 0.000000000000e+00 
2.333333333333e+01 9.564589687590e+04 1.000000000000e+00 0.000000000000e+00 
2.366666666667e+01 9.561526066518e+04 1.000000000000e+00 0.000000000000e+00 
2.400000000000e+01 9.558462445445e+04 1.000000000000e+00 0.000000000000e+00 
2.433333333333e+01 9.555398824371e+04 1.000000000000e+00 0.000000000000e+00 
2.466666666667e+01 9.552335203296e+04 1.000000000000e+00 0.000000000000e+00 
2.500000000000e+01 9.549271582220e+04 1.000000000000e+00 0.000000000000e+00 
2.533333333333e+01 9.546207961143e+04 1.000000000000e+00 0.000000000000e+00 
2.566666666667e+01 9.543144340065e+04 1.000000000000e+00 0.000000000000e+00 
2.600000000000e+01 9.540080718986e+04 1.000000000000e+00 0.000000000000e+00 
2.633333333333e+01 9.537017097907e+04 1.000000000000e+00 0.000000000000e+00 
2.666666666667e+01 9.533953476827e+04 1.000000000000e+00 0.000000000000e+00 
2.700000000000e+01 9.530889855746e+04 1.000000000000e+00 0.000000000000e+00 