 TITLE = "Time curves in points"
 VARIABLES = "TIME "  "HEAD" 
 ZONE T="POINT=POINT4"
0.000000000000e+00 0.000000000000e+00 
6.000000000000e+01 2.182484453409e-02 
1.200000000000e+02 3.282068465139e-02 
1.800000000000e+02 4.104664521410e-02 
2.400000000000e+02 4.789663528865e-02 
3.000000000000e+02 5.388623159556e-02 
3.600000000000e+02 5.927117849038e-02 
4.200000000000e+02 6.419900911347e-02 
4.800000000000e+02 6.876302608763e-02 
5.400000000000e+02 7.302599462083e-02 
6.000000000000e+02 7.703208692581e-02 
6.600000000000e+02 8.081352789823e-02 
7.200000000000e+02 8.439456828449e-02 
7.800000000000e+02 8.779398751025e-02 
8.400000000000e+02 9.102673054623e-02 
9.000000000000e+02 9.410500729702e-02 
9.600000000000e+02 9.703904505748e-02 
1.020000000000e+03 9.983761056936e-02 
1.080000000000e+03 1.025083759565e-01 
1.140000000000e+03 1.050581773755e-01 
1.200000000000e+03 1.074931992196e-01 
1.260000000000e+03 1.098191063067e-01 
1.320000000000e+03 1.120411395418e-01 
1.380000000000e+03 1.141641858295e-01 
1.440000000000e+03 1.161928297721e-01 
1.500000000000e+03 1.181313924401e-01 
1.560000000000e+03 1.199839609346e-01 
1.620000000000e+03 1.217544113610e-01 
1.680000000000e+03 1.234464270650e-01 
1.740000000000e+03 1.250635134380e-01 
1.800000000000e+03 1.266090102173e-01 
