 TITLE = "Time curves in points"
 VARIABLES = "TIME "  "HEAD" 
 ZONE T="POINT=POINT4"
0.000000000000e+00 0.000000000000e+00 
6.000000000000e+01 2.710623243259e-02 
1.200000000000e+02 3.814298830597e-02 
1.800000000000e+02 4.636919912666e-02 
2.400000000000e+02 5.321913597862e-02 
3.000000000000e+02 5.920870123730e-02 
3.600000000000e+02 6.459362974051e-02 
4.200000000000e+02 6.952144839477e-02 
4.800000000000e+02 7.408545688299e-02 
5.400000000000e+02 7.834841895627e-02 
6.000000000000e+02 8.235450604762e-02 
6.600000000000e+02 8.613594260835e-02 
7.200000000000e+02 8.971697912205e-02 
7.800000000000e+02 9.311639485761e-02 
8.400000000000e+02 9.634913469245e-02 
9.000000000000e+02 9.942740847627e-02 
9.600000000000e+02 1.023614434726e-01 
1.020000000000e+03 1.051600064053e-01 
1.080000000000e+03 1.078307693880e-01 
1.140000000000e+03 1.103805685708e-01 
1.200000000000e+03 1.128155883419e-01 
1.260000000000e+03 1.151414935148e-01 
1.320000000000e+03 1.173635249897e-01 
1.380000000000e+03 1.194865696657e-01 
1.440000000000e+03 1.215152121394e-01 
1.500000000000e+03 1.234537734753e-01 
1.560000000000e+03 1.253063407675e-01 
1.620000000000e+03 1.270767901148e-01 
1.680000000000e+03 1.287688048560e-01 
1.740000000000e+03 1.303858903755e-01 
1.800000000000e+03 1.319313864038e-01 
