 TITLE = "Time curves in points"
 VARIABLES = "TIME "  "HEAD" 
 ZONE T="POINT=POINT4"
0.000000000000e+00 0.000000000000e+00 
6.000000000000e+01 2.710590237291e-02 
1.200000000000e+02 3.814272905090e-02 
1.800000000000e+02 4.636903522600e-02 
2.400000000000e+02 5.321902840994e-02 
3.000000000000e+02 5.920862474616e-02 
3.600000000000e+02 6.459357164127e-02 
4.200000000000e+02 6.952140226436e-02 
4.800000000000e+02 7.408541923852e-02 
5.400000000000e+02 7.834838777172e-02 
6.000000000000e+02 8.235448007670e-02 
6.600000000000e+02 8.613592104912e-02 
7.200000000000e+02 8.971696143538e-02 
7.800000000000e+02 9.311638066114e-02 
8.400000000000e+02 9.634912369712e-02 
9.000000000000e+02 9.942740044791e-02 
9.600000000000e+02 1.023614382084e-01 
1.020000000000e+03 1.051600037202e-01 
1.080000000000e+03 1.078307691074e-01 
1.140000000000e+03 1.103805705264e-01 
1.200000000000e+03 1.128155923705e-01 
1.260000000000e+03 1.151414994576e-01 
1.320000000000e+03 1.173635326927e-01 
1.380000000000e+03 1.194865789804e-01 
1.440000000000e+03 1.215152229229e-01 
1.500000000000e+03 1.234537855910e-01 
1.560000000000e+03 1.253063540855e-01 
1.620000000000e+03 1.270768045119e-01 
1.680000000000e+03 1.287688202159e-01 
1.740000000000e+03 1.303859065889e-01 
1.800000000000e+03 1.319314033681e-01 
