 TITLE = "Time curves in points"
 VARIABLES = "TIME "  "HEAD" 
 ZONE T="POINT=POINT4"
0.000000000000e+00 0.000000000000e+00 
6.000000000000e+01 -1.319528118293e-02 
1.200000000000e+02 -1.842626982314e-02 
1.800000000000e+02 -2.226898082341e-02 
2.400000000000e+02 -2.543239946298e-02 
3.000000000000e+02 -2.817155819704e-02 
3.600000000000e+02 -3.061289226813e-02 
4.200000000000e+02 -3.282937177262e-02 
4.800000000000e+02 -3.486719269571e-02 
5.400000000000e+02 -3.675748824376e-02 
6.000000000000e+02 -3.852222915494e-02 
6.600000000000e+02 -4.017750296713e-02 
7.200000000000e+02 -4.173547152028e-02 
7.800000000000e+02 -4.320560170267e-02 
8.400000000000e+02 -4.459546868213e-02 
9.000000000000e+02 -4.591129427390e-02 
9.600000000000e+02 -4.715831474337e-02 
1.020000000000e+03 -4.834103564411e-02 
1.080000000000e+03 -4.946341033495e-02 
1.140000000000e+03 -5.052896620769e-02 
1.200000000000e+03 -5.154089473579e-02 
1.260000000000e+03 -5.250211631252e-02 
1.320000000000e+03 -5.341532742660e-02 
1.380000000000e+03 -5.428303540755e-02 
1.440000000000e+03 -5.510758438675e-02 
1.500000000000e+03 -5.589117502324e-02 
1.560000000000e+03 -5.663587978206e-02 
1.620000000000e+03 -5.734365501931e-02 
1.680000000000e+03 -5.801635076120e-02 
1.740000000000e+03 -5.865571879763e-02 
1.800000000000e+03 -5.926341953239e-02 
