VARIABLES  = "X","Y","Z", "HEAD"
ZONE T="0.000000000000e+00s", N=616, E=410, F=FEPOINT, ET=BRICK
STRANDID=1, SOLUTIONTIME=0.000000000000e+00
0.000000000000e+00 2.000000000000e+00 5.000000000000e+00 0.000000000000e+00 
0.000000000000e+00 1.000000000000e+00 5.000000000000e+00 0.000000000000e+00 
0.000000000000e+00 0.000000000000e+00 5.000000000000e+00 0.000000000000e+00 
1.000000000000e+00 0.000000000000e+00 1.000000000000e+00 0.000000000000e+00 
2.000000000000e+00 0.000000000000e+00 1.000000000000e+00 0.000000000000e+00 
3.000000000000e+00 0.000000000000e+00 1.000000000000e+00 0.000000000000e+00 
4.000000000000e+00 0.000000000000e+00 1.000000000000e+00 0.000000000000e+00 
5.000000000000e+00 0.000000000000e+00 1.000000000000e+00 0.000000000000e+00 
6.000000000000e+00 0.000000000000e+00 1.000000000000e+00 0.000000000000e+00 
7.000000000000e+00 0.000000000000e+00 1.000000000000e+00 0.000000000000e+00 
8.000000000000e+00 0.000000000000e+00 1.000000000000e+00 0.000000000000e+00 
9.000000000000e+00 0.000000000000e+00 1.000000000000e+00 0.000000000000e+00 
1.000000000000e+01 0.000000000000e+00 1.000000000000e+00 0.000000000000e+00 
1.100000000000e+01 0.000000000000e+00 1.000000000000e+00 0.000000000000e+00 
1.200000000000e+01 0.000000000000e+00 1.000000000000e+00 0.000000000000e+00 
1.300000000000e+01 0.000000000000e+00 1.000000000000e+00 0.000000000000e+00 
1.400000000000e+01 0.000000000000e+00 1.000000000000e+00 0.000000000000e+00 
1.500000000000e+01 0.000000000000e+00 1.000000000000e+00 0.000000000000e+00 
1.600000000000e+01 0.000000000000e+00 1.000000000000e+00 0.000000000000e+00 
1.700000000000e+01 0.000000000000e+00 1.000000000000e+00 0.000000000000e+00 
1.800000000000e+01 0.000000000000e+00 1.000000000000e+00 0.000000000000e+00 
1.900000000000e+01 0.000000000000e+00 1.000000000000e+00 0.000000000000e+00 
2.000000000000e+01 0.000000000000e+00 1.000000000000e+00 0.000000000000e+00 
2.100000000000e+01 0.000000000000e+00 1.000000000000e+00 0.000000000000e+00 
2.200000000000e+01 0.000000000000e+00 1.000000000000e+00 0.000000000000e+00 
2.300000000000e+01 0.000000000000e+00 1.000000000000e+00 0.000000000000e+00 
2.400000000000e+01 0.000000000000e+00 1.000000000000e+00 0.000000000000e+00 
2.500000000000e+01 0.000000000000e+00 1.000000000000e+00 0.000000000000e+00 
2.600000000000e+01 0.000000000000e+00 1.000000000000e+00 0.000000000000e+00 
2.700000000000e+01 0.000000000000e+00 1.000000000000e+00 0.000000000000e+00 
2.800000000000e+01 0.000000000000e+00 1.000000000000e+00 0.000000000000e+00 
2.900000000000e+01 0.000000000000e+00 1.000000000000e+00 0.000000000000e+00 
3.000000000000e+01 0.000000000000e+00 1.000000000000e+00 0.000000000000e+00 
3.100000000000e+01 0.000000000000e+00 1.000000000000e+00 0.000000000000e+00 
3.200000000000e+01 0.000000000000e+00 1.000000000000e+00 0.000000000000e+00 
3.300000000000e+01 0.000000000000e+00 1.000000000000e+00 0.000000000000e+00 
3.400000000000e+01 0.000000000000e+00 1.000000000000e+00 0.000000000000e+00 
3.500000000000e+01 0.000000000000e+00 1.000000000000e+00 0.000000000000e+00 
3.600000000000e+01 0.000000000000e+00 1.000000000000e+00 0.000000000000e+00 
3.700000000000e+01 0.000000000000e+00 1.000000000000e+00 0.000000000000e+00 
3.800000000000e+01 0.000000000000e+00 1.000000000000e+00 0.000000000000e+00 
3.900000000000e+01 0.000000000000e+00 1.000000000000e+00 0.000000000000e+00 
4.000000000000e+01 0.000000000000e+00 1.000000000000e+00 0.000000000000e+00 
4.100000000000e+01 0.000000000000e+00 1.000000000000e+00 0.000000000000e+00 
4.200000000000e+01 0.000000000000e+00 1.000000000000e+00 0.000000000000e+00 
4.300000000000e+01 0.000000000000e+00 1.000000000000e+00 0.000000000000e+00 
4.400000000000e+01 0.000000000000e+00 1.000000000000e+00 0.000000000000e+00 
4.500000000000e+01 0.000000000000e+00 1.000000000000e+00 0.000000000000e+00 
4.600000000000e+01 0.000000000000e+00 1.000000000000e+00 0.000000000000e+00 
4.700000000000e+01 0.000000000000e+00 1.000000000000e+00 0.000000000000e+00 
4.800000000000e+01 0.000000000000e+00 1.000000000000e+00 0.000000000000e+00 
4.900000000000e+01 0.000000000000e+00 1.000000000000e+00 0.000000000000e+00 
5.000000000000e+01 0.000000000000e+00 1.000000000000e+00 0.000000000000e+00 
5.100000000000e+01 0.000000000000e+00 1.000000000000e+00 0.000000000000e+00 
5.200000000000e+01 0.000000000000e+00 1.000000000000e+00 0.000000000000e+00 
5.300000000000e+01 0.000000000000e+00 1.000000000000e+00 0.000000000000e+00 
5.400000000000e+01 0.000000000000e+00 1.000000000000e+00 0.000000000000e+00 
5.500000000000e+01 0.000000000000e+00 1.000000000000e+00 0.000000000000e+00 
5.600000000000e+01 0.000000000000e+00 1.000000000000e+00 0.000000000000e+00 
5.700000000000e+01 0.000000000000e+00 1.000000000000e+00 0.000000000000e+00 
5.800000000000e+01 0.000000000000e+00 1.000000000000e+00 0.000000000000e+00 
5.900000000000e+01 0.000000000000e+00 1.000000000000e+00 0.000000000000e+00 
6.000000000000e+01 0.000000000000e+00 1.000000000000e+00 0.000000000000e+00 
6.100000000000e+01 0.000000000000e+00 1.000000000000e+00 0.000000000000e+00 
6.200000000000e+01 0.000000000000e+00 1.000000000000e+00 0.000000000000e+00 
6.300000000000e+01 0.000000000000e+00 1.000000000000e+00 0.000000000000e+00 
6.400000000000e+01 0.000000000000e+00 1.000000000000e+00 0.000000000000e+00 
6.500000000000e+01 0.000000000000e+00 1.000000000000e+00 0.000000000000e+00 
6.600000000000e+01 0.000000000000e+00 1.000000000000e+00 0.000000000000e+00 
6.700000000000e+01 0.000000000000e+00 1.000000000000e+00 0.000000000000e+00 
6.800000000000e+01 0.000000000000e+00 1.000000000000e+00 0.000000000000e+00 
6.900000000000e+01 0.000000000000e+00 1.000000000000e+00 0.000000000000e+00 
7.000000000000e+01 0.000000000000e+00 1.000000000000e+00 0.000000000000e+00 
7.100000000000e+01 0.000000000000e+00 1.000000000000e+00 0.000000000000e+00 
7.200000000000e+01 0.000000000000e+00 1.000000000000e+00 0.000000000000e+00 
7.300000000000e+01 0.000000000000e+00 1.000000000000e+00 0.000000000000e+00 
7.400000000000e+01 0.000000000000e+00 1.000000000000e+00 0.000000000000e+00 
7.500000000000e+01 0.000000000000e+00 1.000000000000e+00 0.000000000000e+00 
7.600000000000e+01 0.000000000000e+00 1.000000000000e+00 0.000000000000e+00 
7.700000000000e+01 0.000000000000e+00 1.000000000000e+00 0.000000000000e+00 
7.800000000000e+01 0.000000000000e+00 1.000000000000e+00 0.000000000000e+00 
7.900000000000e+01 0.000000000000e+00 1.000000000000e+00 0.000000000000e+00 
8.000000000000e+01 0.000000000000e+00 1.000000000000e+00 0.000000000000e+00 
8.100000000000e+01 0.000000000000e+00 1.000000000000e+00 0.000000000000e+00 
8.200000000000e+01 0.000000000000e+00 1.000000000000e+00 0.000000000000e+00 
8.300000000000e+01 0.000000000000e+00 1.000000000000e+00 0.000000000000e+00 
8.400000000000e+01 0.000000000000e+00 1.000000000000e+00 0.000000000000e+00 
8.500000000000e+01 0.000000000000e+00 1.000000000000e+00 0.000000000000e+00 
8.600000000000e+01 0.000000000000e+00 1.000000000000e+00 0.000000000000e+00 
8.700000000000e+01 0.000000000000e+00 1.000000000000e+00 0.000000000000e+00 
8.800000000000e+01 0.000000000000e+00 1.000000000000e+00 0.000000000000e+00 
8.900000000000e+01 0.000000000000e+00 1.000000000000e+00 0.000000000000e+00 
9.000000000000e+01 0.000000000000e+00 1.000000000000e+00 0.000000000000e+00 
9.100000000000e+01 0.000000000000e+00 1.000000000000e+00 0.000000000000e+00 
9.200000000000e+01 0.000000000000e+00 1.000000000000e+00 0.000000000000e+00 
9.300000000000e+01 0.000000000000e+00 1.000000000000e+00 0.000000000000e+00 
9.400000000000e+01 0.000000000000e+00 1.000000000000e+00 0.000000000000e+00 
9.500000000000e+01 0.000000000000e+00 1.000000000000e+00 0.000000000000e+00 
9.600000000000e+01 0.000000000000e+00 1.000000000000e+00 0.000000000000e+00 
9.700000000000e+01 0.000000000000e+00 1.000000000000e+00 0.000000000000e+00 
9.800000000000e+01 0.000000000000e+00 1.000000000000e+00 0.000000000000e+00 
9.900000000000e+01 0.000000000000e+00 1.000000000000e+00 0.000000000000e+00 
1.000000000000e+02 0.000000000000e+00 1.000000000000e+00 0.000000000000e+00 
1.000000000000e+02 1.000000000000e+00 1.000000000000e+00 0.000000000000e+00 
1.000000000000e+02 2.000000000000e+00 1.000000000000e+00 0.000000000000e+00 
9.900000000000e+01 2.000000000000e+00 1.000000000000e+00 0.000000000000e+00 
9.800000000000e+01 2.000000000000e+00 1.000000000000e+00 0.000000000000e+00 
9.700000000000e+01 2.000000000000e+00 1.000000000000e+00 0.000000000000e+00 
9.600000000000e+01 2.000000000000e+00 1.000000000000e+00 0.000000000000e+00 
9.500000000000e+01 2.000000000000e+00 1.000000000000e+00 0.000000000000e+00 
9.400000000000e+01 2.000000000000e+00 1.000000000000e+00 0.000000000000e+00 
9.300000000000e+01 2.000000000000e+00 1.000000000000e+00 0.000000000000e+00 
9.200000000000e+01 2.000000000000e+00 1.000000000000e+00 0.000000000000e+00 
9.100000000000e+01 2.000000000000e+00 1.000000000000e+00 0.000000000000e+00 
9.000000000000e+01 2.000000000000e+00 1.000000000000e+00 0.000000000000e+00 
8.900000000000e+01 2.000000000000e+00 1.000000000000e+00 0.000000000000e+00 
8.800000000000e+01 2.000000000000e+00 1.000000000000e+00 0.000000000000e+00 
8.700000000000e+01 2.000000000000e+00 1.000000000000e+00 0.000000000000e+00 
8.600000000000e+01 2.000000000000e+00 1.000000000000e+00 0.000000000000e+00 
8.500000000000e+01 2.000000000000e+00 1.000000000000e+00 0.000000000000e+00 
8.400000000000e+01 2.000000000000e+00 1.000000000000e+00 0.000000000000e+00 
8.300000000000e+01 2.000000000000e+00 1.000000000000e+00 0.000000000000e+00 
8.200000000000e+01 2.000000000000e+00 1.000000000000e+00 0.000000000000e+00 
8.100000000000e+01 2.000000000000e+00 1.000000000000e+00 0.000000000000e+00 
8.000000000000e+01 2.000000000000e+00 1.000000000000e+00 0.000000000000e+00 
7.900000000000e+01 2.000000000000e+00 1.000000000000e+00 0.000000000000e+00 
7.800000000000e+01 2.000000000000e+00 1.000000000000e+00 0.000000000000e+00 
7.700000000000e+01 2.000000000000e+00 1.000000000000e+00 0.000000000000e+00 
7.600000000000e+01 2.000000000000e+00 1.000000000000e+00 0.000000000000e+00 
7.500000000000e+01 2.000000000000e+00 1.000000000000e+00 0.000000000000e+00 
7.400000000000e+01 2.000000000000e+00 1.000000000000e+00 0.000000000000e+00 
7.300000000000e+01 2.000000000000e+00 1.000000000000e+00 0.000000000000e+00 
7.200000000000e+01 2.000000000000e+00 1.000000000000e+00 0.000000000000e+00 
7.100000000000e+01 2.000000000000e+00 1.000000000000e+00 0.000000000000e+00 
7.000000000000e+01 2.000000000000e+00 1.000000000000e+00 0.000000000000e+00 
6.900000000000e+01 2.000000000000e+00 1.000000000000e+00 0.000000000000e+00 
6.800000000000e+01 2.000000000000e+00 1.000000000000e+00 0.000000000000e+00 
6.700000000000e+01 2.000000000000e+00 1.000000000000e+00 0.000000000000e+00 
6.600000000000e+01 2.000000000000e+00 1.000000000000e+00 0.000000000000e+00 
6.500000000000e+01 2.000000000000e+00 1.000000000000e+00 0.000000000000e+00 
6.400000000000e+01 2.000000000000e+00 1.000000000000e+00 0.000000000000e+00 
6.300000000000e+01 2.000000000000e+00 1.000000000000e+00 0.000000000000e+00 
6.200000000000e+01 2.000000000000e+00 1.000000000000e+00 0.000000000000e+00 
6.100000000000e+01 2.000000000000e+00 1.000000000000e+00 0.000000000000e+00 
6.000000000000e+01 2.000000000000e+00 1.000000000000e+00 0.000000000000e+00 
5.900000000000e+01 2.000000000000e+00 1.000000000000e+00 0.000000000000e+00 
5.800000000000e+01 2.000000000000e+00 1.000000000000e+00 0.000000000000e+00 
5.700000000000e+01 2.000000000000e+00 1.000000000000e+00 0.000000000000e+00 
5.600000000000e+01 2.000000000000e+00 1.000000000000e+00 0.000000000000e+00 
5.500000000000e+01 2.000000000000e+00 1.000000000000e+00 0.000000000000e+00 
5.400000000000e+01 2.000000000000e+00 1.000000000000e+00 0.000000000000e+00 
5.300000000000e+01 2.000000000000e+00 1.000000000000e+00 0.000000000000e+00 
5.200000000000e+01 2.000000000000e+00 1.000000000000e+00 0.000000000000e+00 
5.100000000000e+01 2.000000000000e+00 1.000000000000e+00 0.000000000000e+00 
5.000000000000e+01 2.000000000000e+00 1.000000000000e+00 0.000000000000e+00 
4.900000000000e+01 2.000000000000e+00 1.000000000000e+00 0.000000000000e+00 
4.800000000000e+01 2.000000000000e+00 1.000000000000e+00 0.000000000000e+00 
4.700000000000e+01 2.000000000000e+00 1.000000000000e+00 0.000000000000e+00 
4.600000000000e+01 2.000000000000e+00 1.000000000000e+00 0.000000000000e+00 
4.500000000000e+01 2.000000000000e+00 1.000000000000e+00 0.000000000000e+00 
4.400000000000e+01 2.000000000000e+00 1.000000000000e+00 0.000000000000e+00 
4.300000000000e+01 2.000000000000e+00 1.000000000000e+00 0.000000000000e+00 
4.200000000000e+01 2.000000000000e+00 1.000000000000e+00 0.000000000000e+00 
4.100000000000e+01 2.000000000000e+00 1.000000000000e+00 0.000000000000e+00 
4.000000000000e+01 2.000000000000e+00 1.000000000000e+00 0.000000000000e+00 
3.900000000000e+01 2.000000000000e+00 1.000000000000e+00 0.000000000000e+00 
3.800000000000e+01 2.000000000000e+00 1.000000000000e+00 0.000000000000e+00 
3.700000000000e+01 2.000000000000e+00 1.000000000000e+00 0.000000000000e+00 
3.600000000000e+01 2.000000000000e+00 1.000000000000e+00 0.000000000000e+00 
3.500000000000e+01 2.000000000000e+00 1.000000000000e+00 0.000000000000e+00 
3.400000000000e+01 2.000000000000e+00 1.000000000000e+00 0.000000000000e+00 
3.300000000000e+01 2.000000000000e+00 1.000000000000e+00 0.000000000000e+00 
3.200000000000e+01 2.000000000000e+00 1.000000000000e+00 0.000000000000e+00 
3.100000000000e+01 2.000000000000e+00 1.000000000000e+00 0.000000000000e+00 
3.000000000000e+01 2.000000000000e+00 1.000000000000e+00 0.000000000000e+00 
2.900000000000e+01 2.000000000000e+00 1.000000000000e+00 0.000000000000e+00 
2.800000000000e+01 2.000000000000e+00 1.000000000000e+00 0.000000000000e+00 
2.700000000000e+01 2.000000000000e+00 1.000000000000e+00 0.000000000000e+00 
2.600000000000e+01 2.000000000000e+00 1.000000000000e+00 0.000000000000e+00 
2.500000000000e+01 2.000000000000e+00 1.000000000000e+00 0.000000000000e+00 
2.400000000000e+01 2.000000000000e+00 1.000000000000e+00 0.000000000000e+00 
2.300000000000e+01 2.000000000000e+00 1.000000000000e+00 0.000000000000e+00 
2.200000000000e+01 2.000000000000e+00 1.000000000000e+00 0.000000000000e+00 
2.100000000000e+01 2.000000000000e+00 1.000000000000e+00 0.000000000000e+00 
2.000000000000e+01 2.000000000000e+00 1.000000000000e+00 0.000000000000e+00 
1.900000000000e+01 2.000000000000e+00 1.000000000000e+00 0.000000000000e+00 
1.800000000000e+01 2.000000000000e+00 1.000000000000e+00 0.000000000000e+00 
1.700000000000e+01 2.000000000000e+00 1.000000000000e+00 0.000000000000e+00 
1.600000000000e+01 2.000000000000e+00 1.000000000000e+00 0.000000000000e+00 
1.500000000000e+01 2.000000000000e+00 1.000000000000e+00 0.000000000000e+00 
1.400000000000e+01 2.000000000000e+00 1.000000000000e+00 0.000000000000e+00 
1.300000000000e+01 2.000000000000e+00 1.000000000000e+00 0.000000000000e+00 
1.200000000000e+01 2.000000000000e+00 1.000000000000e+00 0.000000000000e+00 
1.100000000000e+01 2.000000000000e+00 1.000000000000e+00 0.000000000000e+00 
1.000000000000e+01 2.000000000000e+00 1.000000000000e+00 0.000000000000e+00 
9.000000000000e+00 2.000000000000e+00 1.000000000000e+00 0.000000000000e+00 
8.000000000000e+00 2.000000000000e+00 1.000000000000e+00 0.000000000000e+00 
7.000000000000e+00 2.000000000000e+00 1.000000000000e+00 0.000000000000e+00 
6.000000000000e+00 2.000000000000e+00 1.000000000000e+00 0.000000000000e+00 
5.000000000000e+00 2.000000000000e+00 1.000000000000e+00 0.000000000000e+00 
4.000000000000e+00 2.000000000000e+00 1.000000000000e+00 0.000000000000e+00 
3.000000000000e+00 2.000000000000e+00 1.000000000000e+00 0.000000000000e+00 
2.000000000000e+00 2.000000000000e+00 1.000000000000e+00 0.000000000000e+00 
9.999999999999e-01 2.000000000000e+00 1.000000000000e+00 0.000000000000e+00 
6.235485377701e-01 1.398628635865e+00 1.000000941511e+00 0.000000000000e+00 
7.471337632700e-01 7.125062685768e-01 1.000000350531e+00 0.000000000000e+00 
9.937526761535e+01 6.010344968865e-01 1.000000704614e+00 0.000000000000e+00 
9.925160695232e+01 1.287148998882e+00 1.000000278093e+00 0.000000000000e+00 
1.365888980078e+00 1.281393207377e+00 1.000000559203e+00 0.000000000000e+00 
1.489379204634e+00 5.951937601470e-01 1.000000168185e+00 0.000000000000e+00 
9.863274682507e+01 7.182430914257e-01 1.000000873003e+00 0.000000000000e+00 
9.850946479601e+01 1.404503332833e+00 1.000000591840e+00 0.000000000000e+00 
9.766682760796e+01 1.017879900301e+00 1.000000104319e+00 0.000000000000e+00 
9.652817149395e+01 1.002993967028e+00 1.000000859758e+00 0.000000000000e+00 
9.550437858472e+01 1.000471640169e+00 1.000000143389e+00 0.000000000000e+00 
9.450028466873e+01 1.000058648412e+00 1.000000386749e+00 0.000000000000e+00 
9.349957396440e+01 9.999986839547e-01 1.000000958576e+00 0.000000000000e+00 
9.249944738752e+01 9.999940411307e-01 1.000000895501e+00 0.000000000000e+00 
9.149942332463e+01 9.999961088426e-01 1.000000932985e+00 0.000000000000e+00 
9.049941805939e+01 9.999978986615e-01 1.000000722376e+00 0.000000000000e+00 
8.949941661943e+01 9.999989240812e-01 1.000000664777e+00 0.000000000000e+00 
8.849941612090e+01 9.999994582496e-01 1.000000644836e+00 0.000000000000e+00 
8.749941591860e+01 9.999997288882e-01 1.000000636744e+00 0.000000000000e+00 
8.649941582957e+01 9.999998645517e-01 1.000000633183e+00 0.000000000000e+00 
8.549941578916e+01 9.999999323965e-01 1.000000631566e+00 0.000000000000e+00 
8.449941577055e+01 9.999999662571e-01 1.000000630822e+00 0.000000000000e+00 
8.349941576196e+01 9.999999831637e-01 1.000000630478e+00 0.000000000000e+00 
8.249941575798e+01 9.999999915976e-01 1.000000630319e+00 0.000000000000e+00 
8.149941575613e+01 9.999999958076e-01 1.000000630245e+00 0.000000000000e+00 
8.049941575528e+01 9.999999979078e-01 1.000000630211e+00 0.000000000000e+00 
7.949941575488e+01 9.999999989561e-01 1.000000630195e+00 0.000000000000e+00 
7.849941575470e+01 9.999999994790e-01 1.000000630188e+00 0.000000000000e+00 
7.749941575462e+01 9.999999997401e-01 1.000000630185e+00 0.000000000000e+00 
7.649941575457e+01 9.999999998703e-01 1.000000630183e+00 0.000000000000e+00 
7.549941575456e+01 9.999999999353e-01 1.000000630182e+00 0.000000000000e+00 
7.449941575455e+01 9.999999999677e-01 1.000000630182e+00 0.000000000000e+00 
7.349941575454e+01 9.999999999839e-01 1.000000630182e+00 0.000000000000e+00 
7.249941575454e+01 9.999999999920e-01 1.000000630182e+00 0.000000000000e+00 
7.149941575454e+01 9.999999999960e-01 1.000000630182e+00 0.000000000000e+00 
7.049941575454e+01 9.999999999980e-01 1.000000630182e+00 0.000000000000e+00 
6.949941575454e+01 9.999999999990e-01 1.000000630182e+00 0.000000000000e+00 
6.849941575454e+01 9.999999999995e-01 1.000000630182e+00 0.000000000000e+00 
6.749941575454e+01 9.999999999997e-01 1.000000630182e+00 0.000000000000e+00 
6.649941575454e+01 9.999999999999e-01 1.000000630182e+00 0.000000000000e+00 
6.549941575454e+01 9.999999999999e-01 1.000000630182e+00 0.000000000000e+00 
6.449941575454e+01 1.000000000000e+00 1.000000630182e+00 0.000000000000e+00 
6.349941575454e+01 1.000000000000e+00 1.000000630182e+00 0.000000000000e+00 
6.249941575454e+01 1.000000000000e+00 1.000000630182e+00 0.000000000000e+00 
6.149941575454e+01 1.000000000000e+00 1.000000630182e+00 0.000000000000e+00 
6.049941575454e+01 1.000000000000e+00 1.000000630182e+00 0.000000000000e+00 
5.949941575454e+01 1.000000000000e+00 1.000000630182e+00 0.000000000000e+00 
5.849941575454e+01 1.000000000000e+00 1.000000630182e+00 0.000000000000e+00 
5.749941575454e+01 1.000000000000e+00 1.000000630182e+00 0.000000000000e+00 
5.649941575454e+01 1.000000000000e+00 1.000000630182e+00 0.000000000000e+00 
5.549941575454e+01 1.000000000000e+00 1.000000630182e+00 0.000000000000e+00 
5.449941575454e+01 1.000000000000e+00 1.000000630182e+00 0.000000000000e+00 
5.349941575454e+01 1.000000000000e+00 1.000000630182e+00 0.000000000000e+00 
5.249941575454e+01 1.000000000000e+00 1.000000630182e+00 0.000000000000e+00 
5.149941575454e+01 1.000000000000e+00 1.000000630182e+00 0.000000000000e+00 
5.049941575454e+01 1.000000000000e+00 1.000000630182e+00 0.000000000000e+00 
4.949941575454e+01 1.000000000000e+00 1.000000630182e+00 0.000000000000e+00 
4.849941575454e+01 1.000000000000e+00 1.000000630182e+00 0.000000000000e+00 
4.749941575454e+01 1.000000000000e+00 1.000000630182e+00 0.000000000000e+00 
4.649941575454e+01 1.000000000000e+00 1.000000630182e+00 0.000000000000e+00 
4.549941575454e+01 1.000000000000e+00 1.000000630182e+00 0.000000000000e+00 
4.449941575454e+01 1.000000000000e+00 1.000000630182e+00 0.000000000000e+00 
4.349941575454e+01 1.000000000000e+00 1.000000630182e+00 0.000000000000e+00 
4.249941575454e+01 1.000000000000e+00 1.000000630182e+00 0.000000000000e+00 
4.149941575454e+01 1.000000000000e+00 1.000000630182e+00 0.000000000000e+00 
4.049941575454e+01 1.000000000000e+00 1.000000630182e+00 0.000000000000e+00 
3.949941575454e+01 1.000000000000e+00 1.000000630182e+00 0.000000000000e+00 
3.849941575454e+01 1.000000000000e+00 1.000000630182e+00 0.000000000000e+00 
3.749941575454e+01 1.000000000000e+00 1.000000630182e+00 0.000000000000e+00 
3.649941575454e+01 1.000000000000e+00 1.000000630182e+00 0.000000000000e+00 
3.549941575454e+01 1.000000000000e+00 1.000000630182e+00 0.000000000000e+00 
3.449941575454e+01 1.000000000000e+00 1.000000630182e+00 0.000000000000e+00 
3.349941575454e+01 1.000000000000e+00 1.000000630182e+00 0.000000000000e+00 
3.249941575454e+01 1.000000000000e+00 1.000000630182e+00 0.000000000000e+00 
3.149941575454e+01 1.000000000000e+00 1.000000630182e+00 0.000000000000e+00 
3.049941575454e+01 1.000000000000e+00 1.000000630182e+00 0.000000000000e+00 
2.949941575454e+01 1.000000000000e+00 1.000000630182e+00 0.000000000000e+00 
2.849941575454e+01 1.000000000000e+00 1.000000630182e+00 0.000000000000e+00 
2.749941575454e+01 1.000000000000e+00 1.000000630182e+00 0.000000000000e+00 
2.649941575454e+01 1.000000000000e+00 1.000000630182e+00 0.000000000000e+00 
2.549941575454e+01 1.000000000000e+00 1.000000630182e+00 0.000000000000e+00 
2.449941575454e+01 1.000000000000e+00 1.000000630182e+00 0.000000000000e+00 
2.349941575454e+01 1.000000000000e+00 1.000000630182e+00 0.000000000000e+00 
2.249941575454e+01 1.000000000000e+00 1.000000630182e+00 0.000000000000e+00 
2.149941575454e+01 1.000000000000e+00 1.000000630182e+00 0.000000000000e+00 
2.049941575454e+01 1.000000000000e+00 1.000000630182e+00 0.000000000000e+00 
1.949941575454e+01 1.000000000000e+00 1.000000630182e+00 0.000000000000e+00 
1.849941575454e+01 1.000000000000e+00 1.000000630182e+00 0.000000000000e+00 
1.749941575454e+01 1.000000000000e+00 1.000000630182e+00 0.000000000000e+00 
1.649941575454e+01 1.000000000000e+00 1.000000630182e+00 0.000000000000e+00 
1.549941575454e+01 1.000000000000e+00 1.000000630182e+00 0.000000000000e+00 
1.449941575454e+01 1.000000000000e+00 1.000000630182e+00 0.000000000000e+00 
1.349941575454e+01 1.000000000000e+00 1.000000630182e+00 0.000000000000e+00 
1.249941575454e+01 1.000000000000e+00 1.000000630182e+00 0.000000000000e+00 
1.149941575454e+01 1.000000000000e+00 1.000000630182e+00 0.000000000000e+00 
1.049941575454e+01 1.000000000000e+00 1.000000630182e+00 0.000000000000e+00 
9.499415754541e+00 1.000000000000e+00 1.000000630182e+00 0.000000000000e+00 
8.499415754541e+00 1.000000000000e+00 1.000000630182e+00 0.000000000000e+00 
7.499415754541e+00 1.000000000000e+00 1.000000630182e+00 0.000000000000e+00 
6.499368957762e+00 9.999993714373e-01 1.000000758310e+00 0.000000000000e+00 
5.498822111418e+00 9.999522238988e-01 1.000000884457e+00 0.000000000000e+00 
4.494940934580e+00 9.995328403024e-01 1.000000637383e+00 0.000000000000e+00 
3.471297132168e+00 9.969497334171e-01 1.000000885287e+00 0.000000000000e+00 
2.332425751604e+00 9.819431165167e-01 1.000000030064e+00 0.000000000000e+00 
0.000000000000e+00 2.000000000000e+00 0.000000000000e+00 0.000000000000e+00 
0.000000000000e+00 1.000000000000e+00 0.000000000000e+00 0.000000000000e+00 
0.000000000000e+00 0.000000000000e+00 0.000000000000e+00 0.000000000000e+00 
1.000000000000e+00 0.000000000000e+00 0.000000000000e+00 0.000000000000e+00 
2.000000000000e+00 0.000000000000e+00 0.000000000000e+00 0.000000000000e+00 
3.000000000000e+00 0.000000000000e+00 0.000000000000e+00 0.000000000000e+00 
4.000000000000e+00 0.000000000000e+00 0.000000000000e+00 0.000000000000e+00 
5.000000000000e+00 0.000000000000e+00 0.000000000000e+00 0.000000000000e+00 
6.000000000000e+00 0.000000000000e+00 0.000000000000e+00 0.000000000000e+00 
7.000000000000e+00 0.000000000000e+00 0.000000000000e+00 0.000000000000e+00 
8.000000000000e+00 0.000000000000e+00 0.000000000000e+00 0.000000000000e+00 
9.000000000000e+00 0.000000000000e+00 0.000000000000e+00 0.000000000000e+00 
1.000000000000e+01 0.000000000000e+00 0.000000000000e+00 0.000000000000e+00 
1.100000000000e+01 0.000000000000e+00 0.000000000000e+00 0.000000000000e+00 
1.200000000000e+01 0.000000000000e+00 0.000000000000e+00 0.000000000000e+00 
1.300000000000e+01 0.000000000000e+00 0.000000000000e+00 0.000000000000e+00 
1.400000000000e+01 0.000000000000e+00 0.000000000000e+00 0.000000000000e+00 
1.500000000000e+01 0.000000000000e+00 0.000000000000e+00 0.000000000000e+00 
1.600000000000e+01 0.000000000000e+00 0.000000000000e+00 0.000000000000e+00 
1.700000000000e+01 0.000000000000e+00 0.000000000000e+00 0.000000000000e+00 
1.800000000000e+01 0.000000000000e+00 0.000000000000e+00 0.000000000000e+00 
1.900000000000e+01 0.000000000000e+00 0.000000000000e+00 0.000000000000e+00 
2.000000000000e+01 0.000000000000e+00 0.000000000000e+00 0.000000000000e+00 
2.100000000000e+01 0.000000000000e+00 0.000000000000e+00 0.000000000000e+00 
2.200000000000e+01 0.000000000000e+00 0.000000000000e+00 0.000000000000e+00 
2.300000000000e+01 0.000000000000e+00 0.000000000000e+00 0.000000000000e+00 
2.400000000000e+01 0.000000000000e+00 0.000000000000e+00 0.000000000000e+00 
2.500000000000e+01 0.000000000000e+00 0.000000000000e+00 0.000000000000e+00 
2.600000000000e+01 0.000000000000e+00 0.000000000000e+00 0.000000000000e+00 
2.700000000000e+01 0.000000000000e+00 0.000000000000e+00 0.000000000000e+00 
2.800000000000e+01 0.000000000000e+00 0.000000000000e+00 0.000000000000e+00 
2.900000000000e+01 0.000000000000e+00 0.000000000000e+00 0.000000000000e+00 
3.000000000000e+01 0.000000000000e+00 0.000000000000e+00 0.000000000000e+00 
3.100000000000e+01 0.000000000000e+00 0.000000000000e+00 0.000000000000e+00 
3.200000000000e+01 0.000000000000e+00 0.000000000000e+00 0.000000000000e+00 
3.300000000000e+01 0.000000000000e+00 0.000000000000e+00 0.000000000000e+00 
3.400000000000e+01 0.000000000000e+00 0.000000000000e+00 0.000000000000e+00 
3.500000000000e+01 0.000000000000e+00 0.000000000000e+00 0.000000000000e+00 
3.600000000000e+01 0.000000000000e+00 0.000000000000e+00 0.000000000000e+00 
3.700000000000e+01 0.000000000000e+00 0.000000000000e+00 0.000000000000e+00 
3.800000000000e+01 0.000000000000e+00 0.000000000000e+00 0.000000000000e+00 
3.900000000000e+01 0.000000000000e+00 0.000000000000e+00 0.000000000000e+00 
4.000000000000e+01 0.000000000000e+00 0.000000000000e+00 0.000000000000e+00 
4.100000000000e+01 0.000000000000e+00 0.000000000000e+00 0.000000000000e+00 
4.200000000000e+01 0.000000000000e+00 0.000000000000e+00 0.000000000000e+00 
4.300000000000e+01 0.000000000000e+00 0.000000000000e+00 0.000000000000e+00 
4.400000000000e+01 0.000000000000e+00 0.000000000000e+00 0.000000000000e+00 
4.500000000000e+01 0.000000000000e+00 0.000000000000e+00 0.000000000000e+00 
4.600000000000e+01 0.000000000000e+00 0.000000000000e+00 0.000000000000e+00 
4.700000000000e+01 0.000000000000e+00 0.000000000000e+00 0.000000000000e+00 
4.800000000000e+01 0.000000000000e+00 0.000000000000e+00 0.000000000000e+00 
4.900000000000e+01 0.000000000000e+00 0.000000000000e+00 0.000000000000e+00 
5.000000000000e+01 0.000000000000e+00 0.000000000000e+00 0.000000000000e+00 
5.100000000000e+01 0.000000000000e+00 0.000000000000e+00 0.000000000000e+00 
5.200000000000e+01 0.000000000000e+00 0.000000000000e+00 0.000000000000e+00 
5.300000000000e+01 0.000000000000e+00 0.000000000000e+00 0.000000000000e+00 
5.400000000000e+01 0.000000000000e+00 0.000000000000e+00 0.000000000000e+00 
5.500000000000e+01 0.000000000000e+00 0.000000000000e+00 0.000000000000e+00 
5.600000000000e+01 0.000000000000e+00 0.000000000000e+00 0.000000000000e+00 
5.700000000000e+01 0.000000000000e+00 0.000000000000e+00 0.000000000000e+00 
5.800000000000e+01 0.000000000000e+00 0.000000000000e+00 0.000000000000e+00 
5.900000000000e+01 0.000000000000e+00 0.000000000000e+00 0.000000000000e+00 
6.000000000000e+01 0.000000000000e+00 0.000000000000e+00 0.000000000000e+00 
6.100000000000e+01 0.000000000000e+00 0.000000000000e+00 0.000000000000e+00 
6.200000000000e+01 0.000000000000e+00 0.000000000000e+00 0.000000000000e+00 
6.300000000000e+01 0.000000000000e+00 0.000000000000e+00 0.000000000000e+00 
6.400000000000e+01 0.000000000000e+00 0.000000000000e+00 0.000000000000e+00 
6.500000000000e+01 0.000000000000e+00 0.000000000000e+00 0.000000000000e+00 
6.600000000000e+01 0.000000000000e+00 0.000000000000e+00 0.000000000000e+00 
6.700000000000e+01 0.000000000000e+00 0.000000000000e+00 0.000000000000e+00 
6.800000000000e+01 0.000000000000e+00 0.000000000000e+00 0.000000000000e+00 
6.900000000000e+01 0.000000000000e+00 0.000000000000e+00 0.000000000000e+00 
7.000000000000e+01 0.000000000000e+00 0.000000000000e+00 0.000000000000e+00 
7.100000000000e+01 0.000000000000e+00 0.000000000000e+00 0.000000000000e+00 
7.200000000000e+01 0.000000000000e+00 0.000000000000e+00 0.000000000000e+00 
7.300000000000e+01 0.000000000000e+00 0.000000000000e+00 0.000000000000e+00 
7.400000000000e+01 0.000000000000e+00 0.000000000000e+00 0.000000000000e+00 
7.500000000000e+01 0.000000000000e+00 0.000000000000e+00 0.000000000000e+00 
7.600000000000e+01 0.000000000000e+00 0.000000000000e+00 0.000000000000e+00 