VARIABLES  = "X","Y","Z", "HEAD"
ZONE T="0.000000000000e+00s", N=202, E=100, F=FEPOINT, ET=QUADRILATERAL
STRANDID=1, SOLUTIONTIME=0.000000000000e+00
0.000000000000e+00 0.000000000000e+00 1.000000000000e+00 1.000000000000e+00 
1.000000000000e+00 0.000000000000e+00 1.000000000000e+00 1.000000000000e+00 
2.000000000000e+00 0.000000000000e+00 1.000000000000e+00 1.000000000000e+00 
3.000000000000e+00 0.000000000000e+00 1.000000000000e+00 1.000000000000e+00 
4.000000000000e+00 0.000000000000e+00 1.000000000000e+00 1.000000000000e+00 
5.000000000000e+00 0.000000000000e+00 1.000000000000e+00 1.000000000000e+00 
6.000000000000e+00 0.000000000000e+00 1.000000000000e+00 1.000000000000e+00 
7.000000000000e+00 0.000000000000e+00 1.000000000000e+00 1.000000000000e+00 
8.000000000000e+00 0.000000000000e+00 1.000000000000e+00 1.000000000000e+00 
9.000000000000e+00 0.000000000000e+00 1.000000000000e+00 1.000000000000e+00 
1.000000000000e+01 0.000000000000e+00 1.000000000000e+00 1.000000000000e+00 
1.100000000000e+01 0.000000000000e+00 1.000000000000e+00 1.000000000000e+00 
1.200000000000e+01 0.000000000000e+00 1.000000000000e+00 1.000000000000e+00 
1.300000000000e+01 0.000000000000e+00 1.000000000000e+00 1.000000000000e+00 
1.400000000000e+01 0.000000000000e+00 1.000000000000e+00 1.000000000000e+00 
1.500000000000e+01 0.000000000000e+00 1.000000000000e+00 1.000000000000e+00 
1.600000000000e+01 0.000000000000e+00 1.000000000000e+00 1.000000000000e+00 
1.700000000000e+01 0.000000000000e+00 1.000000000000e+00 1.000000000000e+00 
1.800000000000e+01 0.000000000000e+00 1.000000000000e+00 1.000000000000e+00 
1.900000000000e+01 0.000000000000e+00 1.000000000000e+00 1.000000000000e+00 
2.000000000000e+01 0.000000000000e+00 1.000000000000e+00 1.000000000000e+00 
2.100000000000e+01 0.000000000000e+00 1.000000000000e+00 1.000000000000e+00 
2.200000000000e+01 0.000000000000e+00 1.000000000000e+00 1.000000000000e+00 
2.300000000000e+01 0.000000000000e+00 1.000000000000e+00 1.000000000000e+00 
2.400000000000e+01 0.000000000000e+00 1.000000000000e+00 1.000000000000e+00 
2.500000000000e+01 0.000000000000e+00 1.000000000000e+00 1.000000000000e+00 
2.600000000000e+01 0.000000000000e+00 1.000000000000e+00 1.000000000000e+00 
2.700000000000e+01 0.000000000000e+00 1.000000000000e+00 1.000000000000e+00 
2.800000000000e+01 0.000000000000e+00 1.000000000000e+00 1.000000000000e+00 
2.900000000000e+01 0.000000000000e+00 1.000000000000e+00 1.000000000000e+00 
3.000000000000e+01 0.000000000000e+00 1.000000000000e+00 1.000000000000e+00 
3.100000000000e+01 0.000000000000e+00 1.000000000000e+00 1.000000000000e+00 
3.200000000000e+01 0.000000000000e+00 1.000000000000e+00 1.000000000000e+00 
3.300000000000e+01 0.000000000000e+00 1.000000000000e+00 1.000000000000e+00 
3.400000000000e+01 0.000000000000e+00 1.000000000000e+00 1.000000000000e+00 
3.500000000000e+01 0.000000000000e+00 1.000000000000e+00 1.000000000000e+00 
3.600000000000e+01 0.000000000000e+00 1.000000000000e+00 1.000000000000e+00 
3.700000000000e+01 0.000000000000e+00 1.000000000000e+00 1.000000000000e+00 
3.800000000000e+01 0.000000000000e+00 1.000000000000e+00 1.000000000000e+00 
3.900000000000e+01 0.000000000000e+00 1.000000000000e+00 1.000000000000e+00 
4.000000000000e+01 0.000000000000e+00 1.000000000000e+00 1.000000000000e+00 
4.100000000000e+01 0.000000000000e+00 1.000000000000e+00 1.000000000000e+00 
4.200000000000e+01 0.000000000000e+00 1.000000000000e+00 1.000000000000e+00 
4.300000000000e+01 0.000000000000e+00 1.000000000000e+00 1.000000000000e+00 
4.400000000000e+01 0.000000000000e+00 1.000000000000e+00 1.000000000000e+00 
4.500000000000e+01 0.000000000000e+00 1.000000000000e+00 1.000000000000e+00 
4.600000000000e+01 0.000000000000e+00 1.000000000000e+00 1.000000000000e+00 
4.700000000000e+01 0.000000000000e+00 1.000000000000e+00 1.000000000000e+00 
4.800000000000e+01 0.000000000000e+00 1.000000000000e+00 1.000000000000e+00 
4.900000000000e+01 0.000000000000e+00 1.000000000000e+00 1.000000000000e+00 
5.000000000000e+01 0.000000000000e+00 1.000000000000e+00 1.000000000000e+00 
5.100000000000e+01 0.000000000000e+00 1.000000000000e+00 1.000000000000e+00 
5.200000000000e+01 0.000000000000e+00 1.000000000000e+00 1.000000000000e+00 
5.300000000000e+01 0.000000000000e+00 1.000000000000e+00 1.000000000000e+00 
5.400000000000e+01 0.000000000000e+00 1.000000000000e+00 1.000000000000e+00 
5.500000000000e+01 0.000000000000e+00 1.000000000000e+00 1.000000000000e+00 
5.600000000000e+01 0.000000000000e+00 1.000000000000e+00 1.000000000000e+00 
5.700000000000e+01 0.000000000000e+00 1.000000000000e+00 1.000000000000e+00 
5.800000000000e+01 0.000000000000e+00 1.000000000000e+00 1.000000000000e+00 
5.900000000000e+01 0.000000000000e+00 1.000000000000e+00 1.000000000000e+00 
6.000000000000e+01 0.000000000000e+00 1.000000000000e+00 1.000000000000e+00 
6.100000000000e+01 0.000000000000e+00 1.000000000000e+00 1.000000000000e+00 
6.200000000000e+01 0.000000000000e+00 1.000000000000e+00 1.000000000000e+00 
6.300000000000e+01 0.000000000000e+00 1.000000000000e+00 1.000000000000e+00 
6.400000000000e+01 0.000000000000e+00 1.000000000000e+00 1.000000000000e+00 
6.500000000000e+01 0.000000000000e+00 1.000000000000e+00 1.000000000000e+00 
6.600000000000e+01 0.000000000000e+00 1.000000000000e+00 1.000000000000e+00 
6.700000000000e+01 0.000000000000e+00 1.000000000000e+00 1.000000000000e+00 
6.800000000000e+01 0.000000000000e+00 1.000000000000e+00 1.000000000000e+00 
6.900000000000e+01 0.000000000000e+00 1.000000000000e+00 1.000000000000e+00 
7.000000000000e+01 0.000000000000e+00 1.000000000000e+00 1.000000000000e+00 
7.100000000000e+01 0.000000000000e+00 1.000000000000e+00 1.000000000000e+00 
7.200000000000e+01 0.000000000000e+00 1.000000000000e+00 1.000000000000e+00 
7.300000000000e+01 0.000000000000e+00 1.000000000000e+00 1.000000000000e+00 
7.400000000000e+01 0.000000000000e+00 1.000000000000e+00 1.000000000000e+00 
7.500000000000e+01 0.000000000000e+00 1.000000000000e+00 1.000000000000e+00 
7.600000000000e+01 0.000000000000e+00 1.000000000000e+00 1.000000000000e+00 
7.700000000000e+01 0.000000000000e+00 1.000000000000e+00 1.000000000000e+00 
7.800000000000e+01 0.000000000000e+00 1.000000000000e+00 1.000000000000e+00 
7.900000000000e+01 0.000000000000e+00 1.000000000000e+00 1.000000000000e+00 
8.000000000000e+01 0.000000000000e+00 1.000000000000e+00 1.000000000000e+00 
8.100000000000e+01 0.000000000000e+00 1.000000000000e+00 1.000000000000e+00 
8.200000000000e+01 0.000000000000e+00 1.000000000000e+00 1.000000000000e+00 
8.300000000000e+01 0.000000000000e+00 1.000000000000e+00 1.000000000000e+00 
8.400000000000e+01 0.000000000000e+00 1.000000000000e+00 1.000000000000e+00 
8.500000000000e+01 0.000000000000e+00 1.000000000000e+00 1.000000000000e+00 
8.600000000000e+01 0.000000000000e+00 1.000000000000e+00 1.000000000000e+00 
8.700000000000e+01 0.000000000000e+00 1.000000000000e+00 1.000000000000e+00 
8.800000000000e+01 0.000000000000e+00 1.000000000000e+00 1.000000000000e+00 
8.900000000000e+01 0.000000000000e+00 1.000000000000e+00 1.000000000000e+00 
9.000000000000e+01 0.000000000000e+00 1.000000000000e+00 1.000000000000e+00 
9.100000000000e+01 0.000000000000e+00 1.000000000000e+00 1.000000000000e+00 
9.200000000000e+01 0.000000000000e+00 1.000000000000e+00 1.000000000000e+00 
9.300000000000e+01 0.000000000000e+00 1.000000000000e+00 1.000000000000e+00 
9.400000000000e+01 0.000000000000e+00 1.000000000000e+00 1.000000000000e+00 
9.500000000000e+01 0.000000000000e+00 1.000000000000e+00 1.000000000000e+00 
9.600000000000e+01 0.000000000000e+00 1.000000000000e+00 1.000000000000e+00 
9.700000000000e+01 0.000000000000e+00 1.000000000000e+00 1.000000000000e+00 
9.800000000000e+01 0.000000000000e+00 1.000000000000e+00 1.000000000000e+00 
9.900000000000e+01 0.000000000000e+00 1.000000000000e+00 1.000000000000e+00 
1.000000000000e+02 0.000000000000e+00 1.000000000000e+00 1.000000000000e+00 
0.000000000000e+00 0.000000000000e+00 0.000000000000e+00 1.000000000000e+00 
1.000000000000e+00 0.000000000000e+00 0.000000000000e+00 1.000000000000e+00 
2.000000000000e+00 0.000000000000e+00 0.000000000000e+00 1.000000000000e+00 
3.000000000000e+00 0.000000000000e+00 0.000000000000e+00 1.000000000000e+00 
4.000000000000e+00 0.000000000000e+00 0.000000000000e+00 1.000000000000e+00 
5.000000000000e+00 0.000000000000e+00 0.000000000000e+00 1.000000000000e+00 
6.000000000000e+00 0.000000000000e+00 0.000000000000e+00 1.000000000000e+00 
7.000000000000e+00 0.000000000000e+00 0.000000000000e+00 1.000000000000e+00 
8.000000000000e+00 0.000000000000e+00 0.000000000000e+00 1.000000000000e+00 
9.000000000000e+00 0.000000000000e+00 0.000000000000e+00 1.000000000000e+00 
1.000000000000e+01 0.000000000000e+00 0.000000000000e+00 1.000000000000e+00 
1.100000000000e+01 0.000000000000e+00 0.000000000000e+00 1.000000000000e+00 
1.200000000000e+01 0.000000000000e+00 0.000000000000e+00 1.000000000000e+00 
1.300000000000e+01 0.000000000000e+00 0.000000000000e+00 1.000000000000e+00 
1.400000000000e+01 0.000000000000e+00 0.000000000000e+00 1.000000000000e+00 
1.500000000000e+01 0.000000000000e+00 0.000000000000e+00 1.000000000000e+00 
1.600000000000e+01 0.000000000000e+00 0.000000000000e+00 1.000000000000e+00 
1.700000000000e+01 0.000000000000e+00 0.000000000000e+00 1.000000000000e+00 
1.800000000000e+01 0.000000000000e+00 0.000000000000e+00 1.000000000000e+00 
1.900000000000e+01 0.000000000000e+00 0.000000000000e+00 1.000000000000e+00 
2.000000000000e+01 0.000000000000e+00 0.000000000000e+00 1.000000000000e+00 
2.100000000000e+01 0.000000000000e+00 0.000000000000e+00 1.000000000000e+00 
2.200000000000e+01 0.000000000000e+00 0.000000000000e+00 1.000000000000e+00 
2.300000000000e+01 0.000000000000e+00 0.000000000000e+00 1.000000000000e+00 
2.400000000000e+01 0.000000000000e+00 0.000000000000e+00 1.000000000000e+00 
2.500000000000e+01 0.000000000000e+00 0.000000000000e+00 1.000000000000e+00 
2.600000000000e+01 0.000000000000e+00 0.000000000000e+00 1.000000000000e+00 
2.700000000000e+01 0.000000000000e+00 0.000000000000e+00 1.000000000000e+00 
2.800000000000e+01 0.000000000000e+00 0.000000000000e+00 1.000000000000e+00 
2.900000000000e+01 0.000000000000e+00 0.000000000000e+00 1.000000000000e+00 
3.000000000000e+01 0.000000000000e+00 0.000000000000e+00 1.000000000000e+00 
3.100000000000e+01 0.000000000000e+00 0.000000000000e+00 1.000000000000e+00 
3.200000000000e+01 0.000000000000e+00 0.000000000000e+00 1.000000000000e+00 
3.300000000000e+01 0.000000000000e+00 0.000000000000e+00 1.000000000000e+00 
3.400000000000e+01 0.000000000000e+00 0.000000000000e+00 1.000000000000e+00 
3.500000000000e+01 0.000000000000e+00 0.000000000000e+00 1.000000000000e+00 
3.600000000000e+01 0.000000000000e+00 0.000000000000e+00 1.000000000000e+00 
3.700000000000e+01 0.000000000000e+00 0.000000000000e+00 1.000000000000e+00 
3.800000000000e+01 0.000000000000e+00 0.000000000000e+00 1.000000000000e+00 
3.900000000000e+01 0.000000000000e+00 0.000000000000e+00 1.000000000000e+00 
4.000000000000e+01 0.000000000000e+00 0.000000000000e+00 1.000000000000e+00 
4.100000000000e+01 0.000000000000e+00 0.000000000000e+00 1.000000000000e+00 
4.200000000000e+01 0.000000000000e+00 0.000000000000e+00 1.000000000000e+00 
4.300000000000e+01 0.000000000000e+00 0.000000000000e+00 1.000000000000e+00 
4.400000000000e+01 0.000000000000e+00 0.000000000000e+00 1.000000000000e+00 
4.500000000000e+01 0.000000000000e+00 0.000000000000e+00 1.000000000000e+00 
4.600000000000e+01 0.000000000000e+00 0.000000000000e+00 1.000000000000e+00 
4.700000000000e+01 0.000000000000e+00 0.000000000000e+00 1.000000000000e+00 
4.800000000000e+01 0.000000000000e+00 0.000000000000e+00 1.000000000000e+00 
4.900000000000e+01 0.000000000000e+00 0.000000000000e+00 1.000000000000e+00 
5.000000000000e+01 0.000000000000e+00 0.000000000000e+00 1.000000000000e+00 
5.100000000000e+01 0.000000000000e+00 0.000000000000e+00 1.000000000000e+00 
5.200000000000e+01 0.000000000000e+00 0.000000000000e+00 1.000000000000e+00 
5.300000000000e+01 0.000000000000e+00 0.000000000000e+00 1.000000000000e+00 
5.400000000000e+01 0.000000000000e+00 0.000000000000e+00 1.000000000000e+00 
5.500000000000e+01 0.000000000000e+00 0.000000000000e+00 1.000000000000e+00 
5.600000000000e+01 0.000000000000e+00 0.000000000000e+00 1.000000000000e+00 
5.700000000000e+01 0.000000000000e+00 0.000000000000e+00 1.000000000000e+00 
5.800000000000e+01 0.000000000000e+00 0.000000000000e+00 1.000000000000e+00 
5.900000000000e+01 0.000000000000e+00 0.000000000000e+00 1.000000000000e+00 
6.000000000000e+01 0.000000000000e+00 0.000000000000e+00 1.000000000000e+00 
6.100000000000e+01 0.000000000000e+00 0.000000000000e+00 1.000000000000e+00 
6.200000000000e+01 0.000000000000e+00 0.000000000000e+00 1.000000000000e+00 
6.300000000000e+01 0.000000000000e+00 0.000000000000e+00 1.000000000000e+00 
6.400000000000e+01 0.000000000000e+00 0.000000000000e+00 1.000000000000e+00 
6.500000000000e+01 0.000000000000e+00 0.000000000000e+00 1.000000000000e+00 
6.600000000000e+01 0.000000000000e+00 0.000000000000e+00 1.000000000000e+00 
6.700000000000e+01 0.000000000000e+00 0.000000000000e+00 1.000000000000e+00 
6.800000000000e+01 0.000000000000e+00 0.000000000000e+00 1.000000000000e+00 
6.900000000000e+01 0.000000000000e+00 0.000000000000e+00 1.000000000000e+00 
7.000000000000e+01 0.000000000000e+00 0.000000000000e+00 1.000000000000e+00 
7.100000000000e+01 0.000000000000e+00 0.000000000000e+00 1.000000000000e+00 
7.200000000000e+01 0.000000000000e+00 0.000000000000e+00 1.000000000000e+00 
7.300000000000e+01 0.000000000000e+00 0.000000000000e+00 1.000000000000e+00 
7.400000000000e+01 0.000000000000e+00 0.000000000000e+00 1.000000000000e+00 
7.500000000000e+01 0.000000000000e+00 0.000000000000e+00 1.000000000000e+00 
7.600000000000e+01 0.000000000000e+00 0.000000000000e+00 1.000000000000e+00 
7.700000000000e+01 0.000000000000e+00 0.000000000000e+00 1.000000000000e+00 
7.800000000000e+01 0.000000000000e+00 0.000000000000e+00 1.000000000000e+00 
7.900000000000e+01 0.000000000000e+00 0.000000000000e+00 1.000000000000e+00 
8.000000000000e+01 0.000000000000e+00 0.000000000000e+00 1.000000000000e+00 
8.100000000000e+01 0.000000000000e+00 0.000000000000e+00 1.000000000000e+00 
8.200000000000e+01 0.000000000000e+00 0.000000000000e+00 1.000000000000e+00 
8.300000000000e+01 0.000000000000e+00 0.000000000000e+00 1.000000000000e+00 
8.400000000000e+01 0.000000000000e+00 0.000000000000e+00 1.000000000000e+00 
8.500000000000e+01 0.000000000000e+00 0.000000000000e+00 1.000000000000e+00 
8.600000000000e+01 0.000000000000e+00 0.000000000000e+00 1.000000000000e+00 
8.700000000000e+01 0.000000000000e+00 0.000000000000e+00 1.000000000000e+00 
8.800000000000e+01 0.000000000000e+00 0.000000000000e+00 1.000000000000e+00 
8.900000000000e+01 0.000000000000e+00 0.000000000000e+00 1.000000000000e+00 
9.000000000000e+01 0.000000000000e+00 0.000000000000e+00 1.000000000000e+00 
9.100000000000e+01 0.000000000000e+00 0.000000000000e+00 1.000000000000e+00 
9.200000000000e+01 0.000000000000e+00 0.000000000000e+00 1.000000000000e+00 
9.300000000000e+01 0.000000000000e+00 0.000000000000e+00 1.000000000000e+00 
9.400000000000e+01 0.000000000000e+00 0.000000000000e+00 1.000000000000e+00 
9.500000000000e+01 0.000000000000e+00 0.000000000000e+00 1.000000000000e+00 
9.600000000000e+01 0.000000000000e+00 0.000000000000e+00 1.000000000000e+00 
9.700000000000e+01 0.000000000000e+00 0.000000000000e+00 1.000000000000e+00 
9.800000000000e+01 0.000000000000e+00 0.000000000000e+00 1.000000000000e+00 
9.900000000000e+01 0.000000000000e+00 0.000000000000e+00 1.000000000000e+00 
1.000000000000e+02 0.000000000000e+00 0.000000000000e+00 1.000000000000e+00 
1  2  103  102  
2  3  104  103  
3  4  105  104  
4  5  106  105  
5  6  107  106  
6  7  108  107  
7  8  109  108  
8  9  110  109  
9  10  111  110  
10  11  112  111  
11  12  113  112  
12  13  114  113  
13  14  115  114  
14  15  116  115  
15  16  117  116  
16  17  118  117  
17  18  119  118  
18  19  120  119  
19  20  121  120  
20  21  122  121  
21  22  123  122  
22  23  124  123  
23  24  125  124  
24  25  126  125  
25  26  127  126  
26  27  128  127  
27  28  129  128  
28  29  130  129  
29  30  131  130  
30  31  132  131  
31  32  133  132  
32  33  134  133  
33  34  135  134  
34  35  136  135  
35  36  137  136  
36  37  138  137  
37  38  139  138  
38  39  140  139  
39  40  141  140  
40  41  142  141  
41  42  143  142  
42  43  144  143  
43  44  145  144  
44  45  146  145  
45  46  147  146  
46  47  148  147  
47  48  149  148  
48  49  150  149  
49  50  151  150  
50  51  152  151  
51  52  153  152  
52  53  154  153  
53  54  155  154  
54  55  156  155  
55  56  157  156  
56  57  158  157  
57  58  159  158  
58  59  160  159  
59  60  161  160  
60  61  162  161  
61  62  163  162  
62  63  164  163  
63  64  165  164  
64  65  166  165  
65  66  167  166  
66  67  168  167  
67  68  169  168  
68  69  170  169  
69  70  171  170  
70  71  172  171  
71  72  173  172  
72  73  174  173  
73  74  175  174  
74  75  176  175  
75  76  177  176  
76  77  178  177  
77  78  179  178  
78  79  180  179  
79  80  181  180  
80  81  182  181  
81  82  183  182  
82  83  184  183  
83  84  185  184  
84  85  186  185  
85  86  187  186  
86  87  188  187  
87  88  189  188  
88  89  190  189  
89  90  191  190  
90  91  192  191  
91  92  193  192  
92  93  194  193  
93  94  195  194  
94  95  196  195  
95  96  197  196  
96  97  198  197  
97  98  199  198  
98  99  200  199  
99  100  201  200  
100  101  202  201  
VARIABLES  = "X","Y","Z", "HEAD"
ZONE T="1.000000000000e+02s", N=202, E=100, F=FEPOINT, ET=QUADRILATERAL
STRANDID=1, SOLUTIONTIME=1.000000000000e+02
0.000000000000e+00 0.000000000000e+00 5.000000000000e+00 5.000000000000e+00 
1.000000000000e+00 0.000000000000e+00 4.985474542301e+00 4.985474542301e+00 
2.000000000000e+00 0.000000000000e+00 4.970966822590e+00 4.970966822590e+00 
3.000000000000e+00 0.000000000000e+00 4.956343731932e+00 4.956343731932e+00 
4.000000000000e+00 0.000000000000e+00 4.941537942227e+00 4.941537942227e+00 
5.000000000000e+00 0.000000000000e+00 4.926514879097e+00 4.926514879097e+00 
6.000000000000e+00 0.000000000000e+00 4.911256227593e+00 4.911256227593e+00 
7.000000000000e+00 0.000000000000e+00 4.895751711188e+00 4.895751711188e+00 
8.000000000000e+00 0.000000000000e+00 4.879995000976e+00 4.879995000976e+00 
9.000000000000e+00 0.000000000000e+00 4.863981683260e+00 4.863981683260e+00 
1.000000000000e+01 0.000000000000e+00 4.847708251066e+00 4.847708251066e+00 
1.100000000000e+01 0.000000000000e+00 4.831171603977e+00 4.831171603977e+00 
1.200000000000e+01 0.000000000000e+00 4.814368799728e+00 4.814368799728e+00 
1.300000000000e+01 0.000000000000e+00 4.797296930261e+00 4.797296930261e+00 
1.400000000000e+01 0.000000000000e+00 4.779953059161e+00 4.779953059161e+00 
1.500000000000e+01 0.000000000000e+00 4.762334189294e+00 4.762334189294e+00 
1.600000000000e+01 0.000000000000e+00 4.744437245239e+00 4.744437245239e+00 
1.700000000000e+01 0.000000000000e+00 4.726259062895e+00 4.726259062895e+00 
1.800000000000e+01 0.000000000000e+00 4.707796382486e+00 4.707796382486e+00 
1.900000000000e+01 0.000000000000e+00 4.689045843103e+00 4.689045843103e+00 
2.000000000000e+01 0.000000000000e+00 4.670003977855e+00 4.670003977855e+00 
2.100000000000e+01 0.000000000000e+00 4.650667209174e+00 4.650667209174e+00 
2.200000000000e+01 0.000000000000e+00 4.631031844063e+00 4.631031844063e+00 
2.300000000000e+01 0.000000000000e+00 4.611094069172e+00 4.611094069172e+00 
2.400000000000e+01 0.000000000000e+00 4.590849945651e+00 4.590849945651e+00 
2.500000000000e+01 0.000000000000e+00 4.570295403741e+00 4.570295403741e+00 
2.600000000000e+01 0.000000000000e+00 4.549426237075e+00 4.549426237075e+00 
2.700000000000e+01 0.000000000000e+00 4.528238096670e+00 4.528238096670e+00 
2.800000000000e+01 0.000000000000e+00 4.506726484562e+00 4.506726484562e+00 
2.900000000000e+01 0.000000000000e+00 4.484886747075e+00 4.484886747075e+00 
3.000000000000e+01 0.000000000000e+00 4.462714067674e+00 4.462714067674e+00 
3.100000000000e+01 0.000000000000e+00 4.440203459382e+00 4.440203459382e+00 
3.200000000000e+01 0.000000000000e+00 4.417349756717e+00 4.417349756717e+00 
3.300000000000e+01 0.000000000000e+00 4.394147607118e+00 4.394147607118e+00 
3.400000000000e+01 0.000000000000e+00 4.370591461820e+00 4.370591461820e+00 
3.500000000000e+01 0.000000000000e+00 4.346675566129e+00 4.346675566129e+00 
3.600000000000e+01 0.000000000000e+00 4.322393949060e+00 4.322393949060e+00 
3.700000000000e+01 0.000000000000e+00 4.297740412271e+00 4.297740412271e+00 
3.800000000000e+01 0.000000000000e+00 4.272708518253e+00 4.272708518253e+00 
3.900000000000e+01 0.000000000000e+00 4.247291577691e+00 4.247291577691e+00 
4.000000000000e+01 0.000000000000e+00 4.221482635953e+00 4.221482635953e+00 
4.100000000000e+01 0.000000000000e+00 4.195274458597e+00 4.195274458597e+00 
4.200000000000e+01 0.000000000000e+00 4.168659515842e+00 4.168659515842e+00 
4.300000000000e+01 0.000000000000e+00 4.141629965884e+00 4.141629965884e+00 
4.400000000000e+01 0.000000000000e+00 4.114177636967e+00 4.114177636967e+00 
4.500000000000e+01 0.000000000000e+00 4.086294008088e+00 4.086294008088e+00 
4.600000000000e+01 0.000000000000e+00 4.057970188205e+00 4.057970188205e+00 
4.700000000000e+01 0.000000000000e+00 4.029196893812e+00 4.029196893812e+00 
4.800000000000e+01 0.000000000000e+00 3.999964424706e+00 3.999964424706e+00 
4.900000000000e+01 0.000000000000e+00 3.970262637784e+00 3.970262637784e+00 
5.000000000000e+01 0.000000000000e+00 3.940080918656e+00 3.940080918656e+00 
5.100000000000e+01 0.000000000000e+00 3.909408150845e+00 3.909408150845e+00 
5.200000000000e+01 0.000000000000e+00 3.878232682339e+00 3.878232682339e+00 
5.300000000000e+01 0.000000000000e+00 3.846542289177e+00 3.846542289177e+00 
5.400000000000e+01 0.000000000000e+00 3.814324135771e+00 3.814324135771e+00 
5.500000000000e+01 0.000000000000e+00 3.781564731579e+00 3.781564731579e+00 
5.600000000000e+01 0.000000000000e+00 3.748249883716e+00 3.748249883716e+00 
5.700000000000e+01 0.000000000000e+00 3.714364645026e+00 3.714364645026e+00 
5.800000000000e+01 0.000000000000e+00 3.679893257070e+00 3.679893257070e+00 
5.900000000000e+01 0.000000000000e+00 3.644819087411e+00 3.644819087411e+00 
6.000000000000e+01 0.000000000000e+00 3.609124560482e+00 3.609124560482e+00 
6.100000000000e+01 0.000000000000e+00 3.572791081210e+00 3.572791081210e+00 
6.200000000000e+01 0.000000000000e+00 3.535798950452e+00 3.535798950452e+00 
6.300000000000e+01 0.000000000000e+00 3.498127271145e+00 3.498127271145e+00 
6.400000000000e+01 0.000000000000e+00 3.459753843873e+00 3.459753843873e+00 
6.500000000000e+01 0.000000000000e+00 3.420655050364e+00 3.420655050364e+00 
6.600000000000e+01 0.000000000000e+00 3.380805723145e+00 3.380805723145e+00 
6.700000000000e+01 0.000000000000e+00 3.340178999294e+00 3.340178999294e+00 
6.800000000000e+01 0.000000000000e+00 3.298746155816e+00 3.298746155816e+00 
6.900000000000e+01 0.000000000000e+00 3.256476423744e+00 3.256476423744e+00 
7.000000000000e+01 0.000000000000e+00 3.213336777499e+00 3.213336777499e+00 
7.100000000000e+01 0.000000000000e+00 3.169291695339e+00 3.169291695339e+00 
7.200000000000e+01 0.000000000000e+00 3.124302885935e+00 3.124302885935e+00 
7.300000000000e+01 0.000000000000e+00 3.078328975005e+00 3.078328975005e+00 
7.400000000000e+01 0.000000000000e+00 3.031325144690e+00 3.031325144690e+00 
7.500000000000e+01 0.000000000000e+00 2.983242716634e+00 2.983242716634e+00 
7.600000000000e+01 0.000000000000e+00 2.934028667619e+00 2.934028667619e+00 
7.700000000000e+01 0.000000000000e+00 2.883625063875e+00 2.883625063875e+00 
7.800000000000e+01 0.000000000000e+00 2.831968396557e+00 2.831968396557e+00 
7.900000000000e+01 0.000000000000e+00 2.778988796305e+00 2.778988796305e+00 
8.000000000000e+01 0.000000000000e+00 2.724609098676e+00 2.724609098676e+00 
8.100000000000e+01 0.000000000000e+00 2.668743724245e+00 2.668743724245e+00 
8.200000000000e+01 0.000000000000e+00 2.611297326475e+00 2.611297326475e+00 
8.300000000000e+01 0.000000000000e+00 2.552163145950e+00 2.552163145950e+00 
8.400000000000e+01 0.000000000000e+00 2.491220989596e+00 2.491220989596e+00 
8.500000000000e+01 0.000000000000e+00 2.428334725592e+00 2.428334725592e+00 
8.600000000000e+01 0.000000000000e+00 2.363349144699e+00 2.363349144699e+00 
8.700000000000e+01 0.000000000000e+00 2.296085979767e+00 2.296085979767e+00 
8.800000000000e+01 0.000000000000e+00 2.226338786204e+00 2.226338786204e+00 
8.900000000000e+01 0.000000000000e+00 2.153866251887e+00 2.153866251887e+00 
9.000000000000e+01 0.000000000000e+00 2.078383302528e+00 2.078383302528e+00 
9.100000000000e+01 0.000000000000e+00 1.999549050645e+00 1.999549050645e+00 
9.200000000000e+01 0.000000000000e+00 1.916950103028e+00 1.916950103028e+00 
9.300000000000e+01 0.000000000000e+00 1.830076830028e+00 1.830076830028e+00 
9.400000000000e+01 0.000000000000e+00 1.738288601697e+00 1.738288601697e+00 
9.500000000000e+01 0.000000000000e+00 1.640760944553e+00 1.640760944553e+00 
9.600000000000e+01 0.000000000000e+00 1.536401558288e+00 1.536401558288e+00 
9.700000000000e+01 0.000000000000e+00 1.423711481702e+00 1.423711481702e+00 
9.800000000000e+01 0.000000000000e+00 1.300467416420e+00 1.300467416420e+00 
9.900000000000e+01 0.000000000000e+00 1.164295853323e+00 1.164295853323e+00 
1.000000000000e+02 0.000000000000e+00 1.000000000000e+00 1.000000000000e+00 
0.000000000000e+00 0.000000000000e+00 0.000000000000e+00 5.000000000000e+00 
1.000000000000e+00 0.000000000000e+00 0.000000000000e+00 4.986483691963e+00 
2.000000000000e+00 0.000000000000e+00 0.000000000000e+00 4.972464245696e+00 
3.000000000000e+00 0.000000000000e+00 0.000000000000e+00 4.958070546600e+00 
4.000000000000e+00 0.000000000000e+00 0.000000000000e+00 4.943365620814e+00 
5.000000000000e+00 0.000000000000e+00 0.000000000000e+00 4.928379618659e+00 
6.000000000000e+00 0.000000000000e+00 0.000000000000e+00 4.913126297665e+00 
7.000000000000e+00 0.000000000000e+00 0.000000000000e+00 4.897611240182e+00 
8.000000000000e+00 0.000000000000e+00 0.000000000000e+00 4.881835940926e+00 
9.000000000000e+00 0.000000000000e+00 0.000000000000e+00 4.865799835386e+00 
1.000000000000e+01 0.000000000000e+00 0.000000000000e+00 4.849501303760e+00 
1.100000000000e+01 0.000000000000e+00 0.000000000000e+00 4.832938166177e+00 
1.200000000000e+01 0.000000000000e+00 0.000000000000e+00 4.816107925728e+00 
1.300000000000e+01 0.000000000000e+00 0.000000000000e+00 4.799007886675e+00 
1.400000000000e+01 0.000000000000e+00 0.000000000000e+00 4.781635210923e+00 
1.500000000000e+01 0.000000000000e+00 0.000000000000e+00 4.763986943985e+00 
1.600000000000e+01 0.000000000000e+00 0.000000000000e+00 4.746060025858e+00 
1.700000000000e+01 0.000000000000e+00 0.000000000000e+00 4.727851294430e+00 
1.800000000000e+01 0.000000000000e+00 0.000000000000e+00 4.709357485133e+00 
1.900000000000e+01 0.000000000000e+00 0.000000000000e+00 4.690575228683e+00 
2.000000000000e+01 0.000000000000e+00 0.000000000000e+00 4.671501047771e+00 
2.100000000000e+01 0.000000000000e+00 0.000000000000e+00 4.652131353132e+00 
2.200000000000e+01 0.000000000000e+00 0.000000000000e+00 4.632462439167e+00 
2.300000000000e+01 0.000000000000e+00 0.000000000000e+00 4.612490479218e+00 
2.400000000000e+01 0.000000000000e+00 0.000000000000e+00 4.592211520508e+00 
2.500000000000e+01 0.000000000000e+00 0.000000000000e+00 4.571621478766e+00 
2.600000000000e+01 0.000000000000e+00 0.000000000000e+00 4.550716132530e+00 
2.700000000000e+01 0.000000000000e+00 0.000000000000e+00 4.529491117097e+00 
2.800000000000e+01 0.000000000000e+00 0.000000000000e+00 4.507941918130e+00 
2.900000000000e+01 0.000000000000e+00 0.000000000000e+00 4.486063864866e+00 
3.000000000000e+01 0.000000000000e+00 0.000000000000e+00 4.463852122925e+00 
3.100000000000e+01 0.000000000000e+00 0.000000000000e+00 4.441301686669e+00 
3.200000000000e+01 0.000000000000e+00 0.000000000000e+00 4.418407371088e+00 
3.300000000000e+01 0.000000000000e+00 0.000000000000e+00 4.395163803168e+00 
3.400000000000e+01 0.000000000000e+00 0.000000000000e+00 4.371565412711e+00 
3.500000000000e+01 0.000000000000e+00 0.000000000000e+00 4.347606422543e+00 
3.600000000000e+01 0.000000000000e+00 0.000000000000e+00 4.323280838087e+00 
3.700000000000e+01 0.000000000000e+00 0.000000000000e+00 4.298582436228e+00 
3.800000000000e+01 0.000000000000e+00 0.000000000000e+00 4.273504753416e+00 
3.900000000000e+01 0.000000000000e+00 0.000000000000e+00 4.248041072950e+00 
4.000000000000e+01 0.000000000000e+00 0.000000000000e+00 4.222184411366e+00 
4.100000000000e+01 0.000000000000e+00 0.000000000000e+00 4.195927503850e+00 
4.200000000000e+01 0.000000000000e+00 0.000000000000e+00 4.169262788595e+00 
4.300000000000e+01 0.000000000000e+00 0.000000000000e+00 4.142182390002e+00 
4.400000000000e+01 0.000000000000e+00 0.000000000000e+00 4.114678100623e+00 
4.500000000000e+01 0.000000000000e+00 0.000000000000e+00 4.086741361728e+00 
4.600000000000e+01 0.000000000000e+00 0.000000000000e+00 4.058363242358e+00 
4.700000000000e+01 0.000000000000e+00 0.000000000000e+00 4.029534416738e+00 
4.800000000000e+01 0.000000000000e+00 0.000000000000e+00 4.000245139866e+00 
4.900000000000e+01 0.000000000000e+00 0.000000000000e+00 3.970485221108e+00 
5.000000000000e+01 0.000000000000e+00 0.000000000000e+00 3.940243995594e+00 
5.100000000000e+01 0.000000000000e+00 0.000000000000e+00 3.909510293183e+00 
5.200000000000e+01 0.000000000000e+00 0.000000000000e+00 3.878272404737e+00 
5.300000000000e+01 0.000000000000e+00 0.000000000000e+00 3.846518045421e+00 
5.400000000000e+01 0.000000000000e+00 0.000000000000e+00 3.814234314684e+00 
5.500000000000e+01 0.000000000000e+00 0.000000000000e+00 3.781407652562e+00 
5.600000000000e+01 0.000000000000e+00 0.000000000000e+00 3.748023791873e+00 
5.700000000000e+01 0.000000000000e+00 0.000000000000e+00 3.714067705823e+00 