VARIABLES  = "X","Y","Z", "HEAD"
ZONE T="0.000000000000e+00s", N=308, E=410, F=FEPOINT, ET=QUADRILATERAL
STRANDID=1, SOLUTIONTIME=0.000000000000e+00
0.000000000000e+00 2.000000000000e+00 0.000000000000e+00 3.500000000000e+00 
0.000000000000e+00 1.000000000000e+00 0.000000000000e+00 3.500000000000e+00 
0.000000000000e+00 0.000000000000e+00 0.000000000000e+00 3.500000000000e+00 
1.000000000000e+00 0.000000000000e+00 0.000000000000e+00 3.500000000000e+00 
2.000000000000e+00 0.000000000000e+00 0.000000000000e+00 3.500000000000e+00 
3.000000000000e+00 0.000000000000e+00 0.000000000000e+00 3.500000000000e+00 
4.000000000000e+00 0.000000000000e+00 0.000000000000e+00 3.500000000000e+00 
5.000000000000e+00 0.000000000000e+00 0.000000000000e+00 3.500000000000e+00 
6.000000000000e+00 0.000000000000e+00 0.000000000000e+00 3.500000000000e+00 
7.000000000000e+00 0.000000000000e+00 0.000000000000e+00 3.500000000000e+00 
8.000000000000e+00 0.000000000000e+00 0.000000000000e+00 3.500000000000e+00 
9.000000000000e+00 0.000000000000e+00 0.000000000000e+00 3.500000000000e+00 
1.000000000000e+01 0.000000000000e+00 0.000000000000e+00 3.500000000000e+00 
1.100000000000e+01 0.000000000000e+00 0.000000000000e+00 3.500000000000e+00 
1.200000000000e+01 0.000000000000e+00 0.000000000000e+00 3.500000000000e+00 
1.300000000000e+01 0.000000000000e+00 0.000000000000e+00 3.500000000000e+00 
1.400000000000e+01 0.000000000000e+00 0.000000000000e+00 3.500000000000e+00 
1.500000000000e+01 0.000000000000e+00 0.000000000000e+00 3.500000000000e+00 
1.600000000000e+01 0.000000000000e+00 0.000000000000e+00 3.500000000000e+00 
1.700000000000e+01 0.000000000000e+00 0.000000000000e+00 3.500000000000e+00 
1.800000000000e+01 0.000000000000e+00 0.000000000000e+00 3.500000000000e+00 
1.900000000000e+01 0.000000000000e+00 0.000000000000e+00 3.500000000000e+00 
2.000000000000e+01 0.000000000000e+00 0.000000000000e+00 3.500000000000e+00 
2.100000000000e+01 0.000000000000e+00 0.000000000000e+00 3.500000000000e+00 
2.200000000000e+01 0.000000000000e+00 0.000000000000e+00 3.500000000000e+00 
2.300000000000e+01 0.000000000000e+00 0.000000000000e+00 3.500000000000e+00 
2.400000000000e+01 0.000000000000e+00 0.000000000000e+00 3.500000000000e+00 
2.500000000000e+01 0.000000000000e+00 0.000000000000e+00 3.500000000000e+00 
2.600000000000e+01 0.000000000000e+00 0.000000000000e+00 3.500000000000e+00 
2.700000000000e+01 0.000000000000e+00 0.000000000000e+00 3.500000000000e+00 
2.800000000000e+01 0.000000000000e+00 0.000000000000e+00 3.500000000000e+00 
2.900000000000e+01 0.000000000000e+00 0.000000000000e+00 3.500000000000e+00 
3.000000000000e+01 0.000000000000e+00 0.000000000000e+00 3.500000000000e+00 
3.100000000000e+01 0.000000000000e+00 0.000000000000e+00 3.500000000000e+00 
3.200000000000e+01 0.000000000000e+00 0.000000000000e+00 3.500000000000e+00 
3.300000000000e+01 0.000000000000e+00 0.000000000000e+00 3.500000000000e+00 
3.400000000000e+01 0.000000000000e+00 0.000000000000e+00 3.500000000000e+00 
3.500000000000e+01 0.000000000000e+00 0.000000000000e+00 3.500000000000e+00 
3.600000000000e+01 0.000000000000e+00 0.000000000000e+00 3.500000000000e+00 
3.700000000000e+01 0.000000000000e+00 0.000000000000e+00 3.500000000000e+00 
3.800000000000e+01 0.000000000000e+00 0.000000000000e+00 3.500000000000e+00 
3.900000000000e+01 0.000000000000e+00 0.000000000000e+00 3.500000000000e+00 
4.000000000000e+01 0.000000000000e+00 0.000000000000e+00 3.500000000000e+00 
4.100000000000e+01 0.000000000000e+00 0.000000000000e+00 3.500000000000e+00 
4.200000000000e+01 0.000000000000e+00 0.000000000000e+00 3.500000000000e+00 
4.300000000000e+01 0.000000000000e+00 0.000000000000e+00 3.500000000000e+00 
4.400000000000e+01 0.000000000000e+00 0.000000000000e+00 3.500000000000e+00 
4.500000000000e+01 0.000000000000e+00 0.000000000000e+00 3.500000000000e+00 
4.600000000000e+01 0.000000000000e+00 0.000000000000e+00 3.500000000000e+00 
4.700000000000e+01 0.000000000000e+00 0.000000000000e+00 3.500000000000e+00 
4.800000000000e+01 0.000000000000e+00 0.000000000000e+00 3.500000000000e+00 
4.900000000000e+01 0.000000000000e+00 0.000000000000e+00 3.500000000000e+00 
5.000000000000e+01 0.000000000000e+00 0.000000000000e+00 3.500000000000e+00 
5.100000000000e+01 0.000000000000e+00 0.000000000000e+00 3.500000000000e+00 
5.200000000000e+01 0.000000000000e+00 0.000000000000e+00 3.500000000000e+00 
5.300000000000e+01 0.000000000000e+00 0.000000000000e+00 3.500000000000e+00 
5.400000000000e+01 0.000000000000e+00 0.000000000000e+00 3.500000000000e+00 
5.500000000000e+01 0.000000000000e+00 0.000000000000e+00 3.500000000000e+00 
5.600000000000e+01 0.000000000000e+00 0.000000000000e+00 3.500000000000e+00 
5.700000000000e+01 0.000000000000e+00 0.000000000000e+00 3.500000000000e+00 
5.800000000000e+01 0.000000000000e+00 0.000000000000e+00 3.500000000000e+00 
5.900000000000e+01 0.000000000000e+00 0.000000000000e+00 3.500000000000e+00 
6.000000000000e+01 0.000000000000e+00 0.000000000000e+00 3.500000000000e+00 
6.100000000000e+01 0.000000000000e+00 0.000000000000e+00 3.500000000000e+00 
6.200000000000e+01 0.000000000000e+00 0.000000000000e+00 3.500000000000e+00 
6.300000000000e+01 0.000000000000e+00 0.000000000000e+00 3.500000000000e+00 
6.400000000000e+01 0.000000000000e+00 0.000000000000e+00 3.500000000000e+00 
6.500000000000e+01 0.000000000000e+00 0.000000000000e+00 3.500000000000e+00 
6.600000000000e+01 0.000000000000e+00 0.000000000000e+00 3.500000000000e+00 
6.700000000000e+01 0.000000000000e+00 0.000000000000e+00 3.500000000000e+00 
6.800000000000e+01 0.000000000000e+00 0.000000000000e+00 3.500000000000e+00 
6.900000000000e+01 0.000000000000e+00 0.000000000000e+00 3.500000000000e+00 
7.000000000000e+01 0.000000000000e+00 0.000000000000e+00 3.500000000000e+00 
7.100000000000e+01 0.000000000000e+00 0.000000000000e+00 3.500000000000e+00 
7.200000000000e+01 0.000000000000e+00 0.000000000000e+00 3.500000000000e+00 
7.300000000000e+01 0.000000000000e+00 0.000000000000e+00 3.500000000000e+00 
7.400000000000e+01 0.000000000000e+00 0.000000000000e+00 3.500000000000e+00 
7.500000000000e+01 0.000000000000e+00 0.000000000000e+00 3.500000000000e+00 
7.600000000000e+01 0.000000000000e+00 0.000000000000e+00 3.500000000000e+00 
7.700000000000e+01 0.000000000000e+00 0.000000000000e+00 3.500000000000e+00 
7.800000000000e+01 0.000000000000e+00 0.000000000000e+00 3.500000000000e+00 
7.900000000000e+01 0.000000000000e+00 0.000000000000e+00 3.500000000000e+00 
8.000000000000e+01 0.000000000000e+00 0.000000000000e+00 3.500000000000e+00 
8.100000000000e+01 0.000000000000e+00 0.000000000000e+00 3.500000000000e+00 
8.200000000000e+01 0.000000000000e+00 0.000000000000e+00 3.500000000000e+00 
8.300000000000e+01 0.000000000000e+00 0.000000000000e+00 3.500000000000e+00 
8.400000000000e+01 0.000000000000e+00 0.000000000000e+00 3.500000000000e+00 
8.500000000000e+01 0.000000000000e+00 0.000000000000e+00 3.500000000000e+00 
8.600000000000e+01 0.000000000000e+00 0.000000000000e+00 3.500000000000e+00 
8.700000000000e+01 0.000000000000e+00 0.000000000000e+00 3.500000000000e+00 
8.800000000000e+01 0.000000000000e+00 0.000000000000e+00 3.500000000000e+00 
8.900000000000e+01 0.000000000000e+00 0.000000000000e+00 3.500000000000e+00 
9.000000000000e+01 0.000000000000e+00 0.000000000000e+00 3.500000000000e+00 
9.100000000000e+01 0.000000000000e+00 0.000000000000e+00 3.500000000000e+00 
9.200000000000e+01 0.000000000000e+00 0.000000000000e+00 3.500000000000e+00 
9.300000000000e+01 0.000000000000e+00 0.000000000000e+00 3.500000000000e+00 
9.400000000000e+01 0.000000000000e+00 0.000000000000e+00 3.500000000000e+00 
9.500000000000e+01 0.000000000000e+00 0.000000000000e+00 3.500000000000e+00 
9.600000000000e+01 0.000000000000e+00 0.000000000000e+00 3.500000000000e+00 
9.700000000000e+01 0.000000000000e+00 0.000000000000e+00 3.500000000000e+00 
9.800000000000e+01 0.000000000000e+00 0.000000000000e+00 3.500000000000e+00 
9.900000000000e+01 0.000000000000e+00 0.000000000000e+00 3.500000000000e+00 
1.000000000000e+02 0.000000000000e+00 0.000000000000e+00 3.500000000000e+00 
1.000000000000e+02 1.000000000000e+00 0.000000000000e+00 3.500000000000e+00 
1.000000000000e+02 2.000000000000e+00 0.000000000000e+00 3.500000000000e+00 
9.900000000000e+01 2.000000000000e+00 0.000000000000e+00 3.500000000000e+00 
9.800000000000e+01 2.000000000000e+00 0.000000000000e+00 3.500000000000e+00 
9.700000000000e+01 2.000000000000e+00 0.000000000000e+00 3.500000000000e+00 
9.600000000000e+01 2.000000000000e+00 0.000000000000e+00 3.500000000000e+00 
9.500000000000e+01 2.000000000000e+00 0.000000000000e+00 3.500000000000e+00 
9.400000000000e+01 2.000000000000e+00 0.000000000000e+00 3.500000000000e+00 
9.300000000000e+01 2.000000000000e+00 0.000000000000e+00 3.500000000000e+00 
9.200000000000e+01 2.000000000000e+00 0.000000000000e+00 3.500000000000e+00 
9.100000000000e+01 2.000000000000e+00 0.000000000000e+00 3.500000000000e+00 
9.000000000000e+01 2.000000000000e+00 0.000000000000e+00 3.500000000000e+00 
8.900000000000e+01 2.000000000000e+00 0.000000000000e+00 3.500000000000e+00 
8.800000000000e+01 2.000000000000e+00 0.000000000000e+00 3.500000000000e+00 
8.700000000000e+01 2.000000000000e+00 0.000000000000e+00 3.500000000000e+00 
8.600000000000e+01 2.000000000000e+00 0.000000000000e+00 3.500000000000e+00 
8.500000000000e+01 2.000000000000e+00 0.000000000000e+00 3.500000000000e+00 
8.400000000000e+01 2.000000000000e+00 0.000000000000e+00 3.500000000000e+00 
8.300000000000e+01 2.000000000000e+00 0.000000000000e+00 3.500000000000e+00 
8.200000000000e+01 2.000000000000e+00 0.000000000000e+00 3.500000000000e+00 
8.100000000000e+01 2.000000000000e+00 0.000000000000e+00 3.500000000000e+00 
8.000000000000e+01 2.000000000000e+00 0.000000000000e+00 3.500000000000e+00 
7.900000000000e+01 2.000000000000e+00 0.000000000000e+00 3.500000000000e+00 
7.800000000000e+01 2.000000000000e+00 0.000000000000e+00 3.500000000000e+00 
7.700000000000e+01 2.000000000000e+00 0.000000000000e+00 3.500000000000e+00 
7.600000000000e+01 2.000000000000e+00 0.000000000000e+00 3.500000000000e+00 
7.500000000000e+01 2.000000000000e+00 0.000000000000e+00 3.500000000000e+00 
7.400000000000e+01 2.000000000000e+00 0.000000000000e+00 3.500000000000e+00 
7.300000000000e+01 2.000000000000e+00 0.000000000000e+00 3.500000000000e+00 
7.200000000000e+01 2.000000000000e+00 0.000000000000e+00 3.500000000000e+00 
7.100000000000e+01 2.000000000000e+00 0.000000000000e+00 3.500000000000e+00 
7.000000000000e+01 2.000000000000e+00 0.000000000000e+00 3.500000000000e+00 
6.900000000000e+01 2.000000000000e+00 0.000000000000e+00 3.500000000000e+00 
6.800000000000e+01 2.000000000000e+00 0.000000000000e+00 3.500000000000e+00 
6.700000000000e+01 2.000000000000e+00 0.000000000000e+00 3.500000000000e+00 
6.600000000000e+01 2.000000000000e+00 0.000000000000e+00 3.500000000000e+00 
6.500000000000e+01 2.000000000000e+00 0.000000000000e+00 3.500000000000e+00 
6.400000000000e+01 2.000000000000e+00 0.000000000000e+00 3.500000000000e+00 
6.300000000000e+01 2.000000000000e+00 0.000000000000e+00 3.500000000000e+00 
6.200000000000e+01 2.000000000000e+00 0.000000000000e+00 3.500000000000e+00 
6.100000000000e+01 2.000000000000e+00 0.000000000000e+00 3.500000000000e+00 
6.000000000000e+01 2.000000000000e+00 0.000000000000e+00 3.500000000000e+00 
5.900000000000e+01 2.000000000000e+00 0.000000000000e+00 3.500000000000e+00 
5.800000000000e+01 2.000000000000e+00 0.000000000000e+00 3.500000000000e+00 
5.700000000000e+01 2.000000000000e+00 0.000000000000e+00 3.500000000000e+00 
5.600000000000e+01 2.000000000000e+00 0.000000000000e+00 3.500000000000e+00 
5.500000000000e+01 2.000000000000e+00 0.000000000000e+00 3.500000000000e+00 
5.400000000000e+01 2.000000000000e+00 0.000000000000e+00 3.500000000000e+00 
5.300000000000e+01 2.000000000000e+00 0.000000000000e+00 3.500000000000e+00 
5.200000000000e+01 2.000000000000e+00 0.000000000000e+00 3.500000000000e+00 
5.100000000000e+01 2.000000000000e+00 0.000000000000e+00 3.500000000000e+00 
5.000000000000e+01 2.000000000000e+00 0.000000000000e+00 3.500000000000e+00 
4.900000000000e+01 2.000000000000e+00 0.000000000000e+00 3.500000000000e+00 
4.800000000000e+01 2.000000000000e+00 0.000000000000e+00 3.500000000000e+00 
4.700000000000e+01 2.000000000000e+00 0.000000000000e+00 3.500000000000e+00 
4.600000000000e+01 2.000000000000e+00 0.000000000000e+00 3.500000000000e+00 
4.500000000000e+01 2.000000000000e+00 0.000000000000e+00 3.500000000000e+00 
4.400000000000e+01 2.000000000000e+00 0.000000000000e+00 3.500000000000e+00 
4.300000000000e+01 2.000000000000e+00 0.000000000000e+00 3.500000000000e+00 
4.200000000000e+01 2.000000000000e+00 0.000000000000e+00 3.500000000000e+00 
4.100000000000e+01 2.000000000000e+00 0.000000000000e+00 3.500000000000e+00 
4.000000000000e+01 2.000000000000e+00 0.000000000000e+00 3.500000000000e+00 
3.900000000000e+01 2.000000000000e+00 0.000000000000e+00 3.500000000000e+00 
3.800000000000e+01 2.000000000000e+00 0.000000000000e+00 3.500000000000e+00 
3.700000000000e+01 2.000000000000e+00 0.000000000000e+00 3.500000000000e+00 
3.600000000000e+01 2.000000000000e+00 0.000000000000e+00 3.500000000000e+00 
3.500000000000e+01 2.000000000000e+00 0.000000000000e+00 3.500000000000e+00 
3.400000000000e+01 2.000000000000e+00 0.000000000000e+00 3.500000000000e+00 
3.300000000000e+01 2.000000000000e+00 0.000000000000e+00 3.500000000000e+00 
3.200000000000e+01 2.000000000000e+00 0.000000000000e+00 3.500000000000e+00 
3.100000000000e+01 2.000000000000e+00 0.000000000000e+00 3.500000000000e+00 
3.000000000000e+01 2.000000000000e+00 0.000000000000e+00 3.500000000000e+00 
2.900000000000e+01 2.000000000000e+00 0.000000000000e+00 3.500000000000e+00 
2.800000000000e+01 2.000000000000e+00 0.000000000000e+00 3.500000000000e+00 
2.700000000000e+01 2.000000000000e+00 0.000000000000e+00 3.500000000000e+00 
2.600000000000e+01 2.000000000000e+00 0.000000000000e+00 3.500000000000e+00 
2.500000000000e+01 2.000000000000e+00 0.000000000000e+00 3.500000000000e+00 
2.400000000000e+01 2.000000000000e+00 0.000000000000e+00 3.500000000000e+00 
2.300000000000e+01 2.000000000000e+00 0.000000000000e+00 3.500000000000e+00 
2.200000000000e+01 2.000000000000e+00 0.000000000000e+00 3.500000000000e+00 
2.100000000000e+01 2.000000000000e+00 0.000000000000e+00 3.500000000000e+00 
2.000000000000e+01 2.000000000000e+00 0.000000000000e+00 3.500000000000e+00 
1.900000000000e+01 2.000000000000e+00 0.000000000000e+00 3.500000000000e+00 
1.800000000000e+01 2.000000000000e+00 0.000000000000e+00 3.500000000000e+00 
1.700000000000e+01 2.000000000000e+00 0.000000000000e+00 3.500000000000e+00 
1.600000000000e+01 2.000000000000e+00 0.000000000000e+00 3.500000000000e+00 
1.500000000000e+01 2.000000000000e+00 0.000000000000e+00 3.500000000000e+00 
1.400000000000e+01 2.000000000000e+00 0.000000000000e+00 3.500000000000e+00 
1.300000000000e+01 2.000000000000e+00 0.000000000000e+00 3.500000000000e+00 
1.200000000000e+01 2.000000000000e+00 0.000000000000e+00 3.500000000000e+00 
1.100000000000e+01 2.000000000000e+00 0.000000000000e+00 3.500000000000e+00 
1.000000000000e+01 2.000000000000e+00 0.000000000000e+00 3.500000000000e+00 
9.000000000000e+00 2.000000000000e+00 0.000000000000e+00 3.500000000000e+00 
8.000000000000e+00 2.000000000000e+00 0.000000000000e+00 3.500000000000e+00 
7.000000000000e+00 2.000000000000e+00 0.000000000000e+00 3.500000000000e+00 
6.000000000000e+00 2.000000000000e+00 0.000000000000e+00 3.500000000000e+00 
5.000000000000e+00 2.000000000000e+00 0.000000000000e+00 3.500000000000e+00 
4.000000000000e+00 2.000000000000e+00 0.000000000000e+00 3.500000000000e+00 
3.000000000000e+00 2.000000000000e+00 0.000000000000e+00 3.500000000000e+00 
2.000000000000e+00 2.000000000000e+00 0.000000000000e+00 3.500000000000e+00 
9.999999999999e-01 2.000000000000e+00 0.000000000000e+00 3.500000000000e+00 
6.235485377701e-01 1.398628635865e+00 0.000000000000e+00 3.500000000000e+00 
7.471337632700e-01 7.125062685768e-01 0.000000000000e+00 3.500000000000e+00 
9.937526761535e+01 6.010344968865e-01 0.000000000000e+00 3.500000000000e+00 
9.925160695232e+01 1.287148998882e+00 0.000000000000e+00 3.500000000000e+00 
1.365888980078e+00 1.281393207377e+00 0.000000000000e+00 3.500000000000e+00 
1.489379204634e+00 5.951937601470e-01 0.000000000000e+00 3.500000000000e+00 
9.863274682507e+01 7.182430914257e-01 0.000000000000e+00 3.500000000000e+00 
9.850946479601e+01 1.404503332833e+00 0.000000000000e+00 3.500000000000e+00 
9.766682760796e+01 1.017879900301e+00 0.000000000000e+00 3.500000000000e+00 
9.652817149395e+01 1.002993967028e+00 0.000000000000e+00 3.500000000000e+00 
9.550437858472e+01 1.000471640169e+00 0.000000000000e+00 3.500000000000e+00 
9.450028466873e+01 1.000058648412e+00 0.000000000000e+00 3.500000000000e+00 
9.349957396440e+01 9.999986839547e-01 0.000000000000e+00 3.500000000000e+00 
9.249944738752e+01 9.999940411307e-01 0.000000000000e+00 3.500000000000e+00 
9.149942332463e+01 9.999961088426e-01 0.000000000000e+00 3.500000000000e+00 
9.049941805939e+01 9.999978986615e-01 0.000000000000e+00 3.500000000000e+00 
8.949941661943e+01 9.999989240812e-01 0.000000000000e+00 3.500000000000e+00 
8.849941612090e+01 9.999994582496e-01 0.000000000000e+00 3.500000000000e+00 
8.749941591860e+01 9.999997288882e-01 0.000000000000e+00 3.500000000000e+00 
8.649941582957e+01 9.999998645517e-01 0.000000000000e+00 3.500000000000e+00 
8.549941578916e+01 9.999999323965e-01 0.000000000000e+00 3.500000000000e+00 
8.449941577055e+01 9.999999662571e-01 0.000000000000e+00 3.500000000000e+00 
8.349941576196e+01 9.999999831637e-01 0.000000000000e+00 3.500000000000e+00 
8.249941575798e+01 9.999999915976e-01 0.000000000000e+00 3.500000000000e+00 
8.149941575613e+01 9.999999958076e-01 0.000000000000e+00 3.500000000000e+00 
8.049941575528e+01 9.999999979078e-01 0.000000000000e+00 3.500000000000e+00 
7.949941575488e+01 9.999999989561e-01 0.000000000000e+00 3.500000000000e+00 
7.849941575470e+01 9.999999994790e-01 0.000000000000e+00 3.500000000000e+00 
7.749941575462e+01 9.999999997401e-01 0.000000000000e+00 3.500000000000e+00 
7.649941575457e+01 9.999999998703e-01 0.000000000000e+00 3.500000000000e+00 
7.549941575456e+01 9.999999999353e-01 0.000000000000e+00 3.500000000000e+00 
7.449941575455e+01 9.999999999677e-01 0.000000000000e+00 3.500000000000e+00 
7.349941575454e+01 9.999999999839e-01 0.000000000000e+00 3.500000000000e+00 
7.249941575454e+01 9.999999999920e-01 0.000000000000e+00 3.500000000000e+00 
7.149941575454e+01 9.999999999960e-01 0.000000000000e+00 3.500000000000e+00 
7.049941575454e+01 9.999999999980e-01 0.000000000000e+00 3.500000000000e+00 
6.949941575454e+01 9.999999999990e-01 0.000000000000e+00 3.500000000000e+00 
6.849941575454e+01 9.999999999995e-01 0.000000000000e+00 3.500000000000e+00 
6.749941575454e+01 9.999999999997e-01 0.000000000000e+00 3.500000000000e+00 
6.649941575454e+01 9.999999999999e-01 0.000000000000e+00 3.500000000000e+00 
6.549941575454e+01 9.999999999999e-01 0.000000000000e+00 3.500000000000e+00 
6.449941575454e+01 1.000000000000e+00 0.000000000000e+00 3.500000000000e+00 
6.349941575454e+01 1.000000000000e+00 0.000000000000e+00 3.500000000000e+00 
6.249941575454e+01 1.000000000000e+00 0.000000000000e+00 3.500000000000e+00 
6.149941575454e+01 1.000000000000e+00 0.000000000000e+00 3.500000000000e+00 
6.049941575454e+01 1.000000000000e+00 0.000000000000e+00 3.500000000000e+00 
5.949941575454e+01 1.000000000000e+00 0.000000000000e+00 3.500000000000e+00 
5.849941575454e+01 1.000000000000e+00 0.000000000000e+00 3.500000000000e+00 
5.749941575454e+01 1.000000000000e+00 0.000000000000e+00 3.500000000000e+00 
5.649941575454e+01 1.000000000000e+00 0.000000000000e+00 3.500000000000e+00 
5.549941575454e+01 1.000000000000e+00 0.000000000000e+00 3.500000000000e+00 
5.449941575454e+01 1.000000000000e+00 0.000000000000e+00 3.500000000000e+00 
5.349941575454e+01 1.000000000000e+00 0.000000000000e+00 3.500000000000e+00 
5.249941575454e+01 1.000000000000e+00 0.000000000000e+00 3.500000000000e+00 
5.149941575454e+01 1.000000000000e+00 0.000000000000e+00 3.500000000000e+00 
5.049941575454e+01 1.000000000000e+00 0.000000000000e+00 3.500000000000e+00 
4.949941575454e+01 1.000000000000e+00 0.000000000000e+00 3.500000000000e+00 
4.849941575454e+01 1.000000000000e+00 0.000000000000e+00 3.500000000000e+00 
4.749941575454e+01 1.000000000000e+00 0.000000000000e+00 3.500000000000e+00 
4.649941575454e+01 1.000000000000e+00 0.000000000000e+00 3.500000000000e+00 
4.549941575454e+01 1.000000000000e+00 0.000000000000e+00 3.500000000000e+00 
4.449941575454e+01 1.000000000000e+00 0.000000000000e+00 3.500000000000e+00 
4.349941575454e+01 1.000000000000e+00 0.000000000000e+00 3.500000000000e+00 
4.249941575454e+01 1.000000000000e+00 0.000000000000e+00 3.500000000000e+00 
4.149941575454e+01 1.000000000000e+00 0.000000000000e+00 3.500000000000e+00 
4.049941575454e+01 1.000000000000e+00 0.000000000000e+00 3.500000000000e+00 
3.949941575454e+01 1.000000000000e+00 0.000000000000e+00 3.500000000000e+00 
3.849941575454e+01 1.000000000000e+00 0.000000000000e+00 3.500000000000e+00 
3.749941575454e+01 1.000000000000e+00 0.000000000000e+00 3.500000000000e+00 
3.649941575454e+01 1.000000000000e+00 0.000000000000e+00 3.500000000000e+00 
3.549941575454e+01 1.000000000000e+00 0.000000000000e+00 3.500000000000e+00 
3.449941575454e+01 1.000000000000e+00 0.000000000000e+00 3.500000000000e+00 
3.349941575454e+01 1.000000000000e+00 0.000000000000e+00 3.500000000000e+00 
3.249941575454e+01 1.000000000000e+00 0.000000000000e+00 3.500000000000e+00 
3.149941575454e+01 1.000000000000e+00 0.000000000000e+00 3.500000000000e+00 
3.049941575454e+01 1.000000000000e+00 0.000000000000e+00 3.500000000000e+00 
2.949941575454e+01 1.000000000000e+00 0.000000000000e+00 3.500000000000e+00 
2.849941575454e+01 1.000000000000e+00 0.000000000000e+00 3.500000000000e+00 
2.749941575454e+01 1.000000000000e+00 0.000000000000e+00 3.500000000000e+00 
2.649941575454e+01 1.000000000000e+00 0.000000000000e+00 3.500000000000e+00 
2.549941575454e+01 1.000000000000e+00 0.000000000000e+00 3.500000000000e+00 
2.449941575454e+01 1.000000000000e+00 0.000000000000e+00 3.500000000000e+00 
2.349941575454e+01 1.000000000000e+00 0.000000000000e+00 3.500000000000e+00 
2.249941575454e+01 1.000000000000e+00 0.000000000000e+00 3.500000000000e+00 
2.149941575454e+01 1.000000000000e+00 0.000000000000e+00 3.500000000000e+00 
2.049941575454e+01 1.000000000000e+00 0.000000000000e+00 3.500000000000e+00 
1.949941575454e+01 1.000000000000e+00 0.000000000000e+00 3.500000000000e+00 
1.849941575454e+01 1.000000000000e+00 0.000000000000e+00 3.500000000000e+00 
1.749941575454e+01 1.000000000000e+00 0.000000000000e+00 3.500000000000e+00 
1.649941575454e+01 1.000000000000e+00 0.000000000000e+00 3.500000000000e+00 
1.549941575454e+01 1.000000000000e+00 0.000000000000e+00 3.500000000000e+00 
1.449941575454e+01 1.000000000000e+00 0.000000000000e+00 3.500000000000e+00 
1.349941575454e+01 1.000000000000e+00 0.000000000000e+00 3.500000000000e+00 
1.249941575454e+01 1.000000000000e+00 0.000000000000e+00 3.500000000000e+00 
1.149941575454e+01 1.000000000000e+00 0.000000000000e+00 3.500000000000e+00 
1.049941575454e+01 1.000000000000e+00 0.000000000000e+00 3.500000000000e+00 
9.499415754541e+00 1.000000000000e+00 0.000000000000e+00 3.500000000000e+00 
8.499415754541e+00 1.000000000000e+00 0.000000000000e+00 3.500000000000e+00 
7.499415754541e+00 1.000000000000e+00 0.000000000000e+00 3.500000000000e+00 
6.499368957762e+00 9.999993714373e-01 0.000000000000e+00 3.500000000000e+00 
5.498822111418e+00 9.999522238988e-01 0.000000000000e+00 3.500000000000e+00 
4.494940934580e+00 9.995328403024e-01 0.000000000000e+00 3.500000000000e+00 
3.471297132168e+00 9.969497334171e-01 0.000000000000e+00 3.500000000000e+00 
2.332425751604e+00 9.819431165167e-01 0.000000000000e+00 3.500000000000e+00 
204  1  205  204
1  2  205  1
2  3  206  2
3  4  206  3
2  206  205  2
102  103  207  102
103  104  207  103
104  105  208  104
105  106  208  105
104  208  207  104
203  204  209  203
204  205  209  204
205  206  209  205
209  206  210  209
206  4  210  206
4  5  210  4
101  102  211  101
102  207  211  102
207  208  211  207
211  208  212  211
208  106  212  208
106  107  212  106
100  101  213  100
101  211  213  101
211  212  213  211
212  107  213  212
107  108  213  107
213  108  214  213
108  109  214  108
213  214  100  213
100  214  99  100
98  99  215  98
99  214  215  99
214  109  215  214
109  110  215  109
215  110  216  215
110  111  216  110
215  216  98  215
98  216  97  98
96  97  217  96
97  216  217  97
216  111  217  216
111  112  217  111
217  112  218  217
112  113  218  112
217  218  96  217
96  218  95  96
94  95  219  94
95  218  219  95
218  113  219  218
113  114  219  113
219  114  220  219
114  115  220  114
219  220  94  219
94  220  93  94
92  93  221  92
93  220  221  93
220  115  221  220
115  116  221  115
221  116  222  221
116  117  222  116
221  222  92  221
92  222  91  92
90  91  223  90
91  222  223  91
222  117  223  222
117  118  223  117
223  118  224  223
118  119  224  118
223  224  90  223
90  224  89  90
88  89  225  88
89  224  225  89
224  119  225  224
119  120  225  119
225  120  226  225
120  121  226  120
225  226  88  225
88  226  87  88
86  87  227  86
87  226  227  87
226  121  227  226
121  122  227  121
227  122  228  227
122  123  228  122
227  228  86  227
86  228  85  86
84  85  229  84
85  228  229  85
228  123  229  228
123  124  229  123
229  124  230  229
124  125  230  124
229  230  84  229
84  230  83  84
82  83  231  82
83  230  231  83
230  125  231  230
125  126  231  125
231  126  232  231
126  127  232  126
231  232  82  231
82  232  81  82
80  81  233  80
81  232  233  81
232  127  233  232
127  128  233  127
233  128  234  233
128  129  234  128
233  234  80  233
80  234  79  80
78  79  235  78
79  234  235  79
234  129  235  234
129  130  235  129
235  130  236  235
130  131  236  130
235  236  78  235
78  236  77  78
76  77  237  76
77  236  237  77
236  131  237  236
131  132  237  131
237  132  238  237
132  133  238  132
237  238  76  237
76  238  75  76
74  75  239  74
75  238  239  75
238  133  239  238
133  134  239  133
239  134  240  239
134  135  240  134
239  240  74  239
74  240  73  74
72  73  241  72
73  240  241  73
240  135  241  240
135  136  241  135
241  136  242  241
136  137  242  136
241  242  72  241
72  242  71  72
70  71  243  70
71  242  243  71
242  137  243  242
137  138  243  137
243  138  244  243
138  139  244  138
243  244  70  243
70  244  69  70
68  69  245  68
69  244  245  69
244  139  245  244
139  140  245  139
245  140  246  245
140  141  246  140
245  246  68  245
68  246  67  68
66  67  247  66
67  246  247  67
246  141  247  246
141  142  247  141
247  142  248  247
142  143  248  142
247  248  66  247
66  248  65  66
64  65  249  64
65  248  249  65
248  143  249  248
143  144  249  143
249  144  250  249
144  145  250  144
249  250  64  249
64  250  63  64
62  63  251  62
63  250  251  63
250  145  251  250
145  146  251  145
251  146  252  251
146  147  252  146
251  252  62  251
62  252  61  62
60  61  253  60
61  252  253  61
252  147  253  252
147  148  253  147
253  148  254  253
148  149  254  148
253  254  60  253
60  254  59  60
58  59  255  58
59  254  255  59
254  149  255  254
149  150  255  149
255  150  256  255
150  151  256  150
255  256  58  255
58  256  57  58
56  57  257  56
57  256  257  57
256  151  257  256
151  152  257  151
257  152  258  257
152  153  258  152
257  258  56  257
56  258  55  56
54  55  259  54
55  258  259  55
258  153  259  258
153  154  259  153
259  154  260  259
154  155  260  154
259  260  54  259
54  260  53  54
52  53  261  52
53  260  261  53
260  155  261  260
155  156  261  155
261  156  262  261
156  157  262  156
261  262  52  261
52  262  51  52
50  51  263  50
51  262  263  51
262  157  263  262
157  158  263  157
263  158  264  263
158  159  264  158
263  264  50  263
50  264  49  50
48  49  265  48
49  264  265  49
264  159  265  264
159  160  265  159
265  160  266  265
160  161  266  160
265  266  48  265
48  266  47  48
46  47  267  46
47  266  267  47
266  161  267  266
161  162  267  161
267  162  268  267
162  163  268  162
267  268  46  267
46  268  45  46
44  45  269  44
45  268  269  45
268  163  269  268
163  164  269  163
269  164  270  269
164  165  270  164
269  270  44  269
44  270  43  44
42  43  271  42
43  270  271  43
270  165  271  270
165  166  271  165
271  166  272  271
166  167  272  166
271  272  42  271
42  272  41  42
40  41  273  40
41  272  273  41
272  167  273  272
167  168  273  167
273  168  274  273
168  169  274  168
273  274  40  273
40  274  39  40
38  39  275  38
39  274  275  39
274  169  275  274
169  170  275  169
275  170  276  275
170  171  276  170
275  276  38  275
38  276  37  38
36  37  277  36
37  276  277  37
276  171  277  276
171  172  277  171
277  172  278  277
172  173  278  172
277  278  36  277
36  278  35  36
34  35  279  34
35  278  279  35
278  173  279  278
173  174  279  173
279  174  280  279
174  175  280  174
279  280  34  279
34  280  33  34
32  33  281  32
33  280  281  33
280  175  281  280
175  176  281  175
281  176  282  281
176  177  282  176
281  282  32  281
32  282  31  32
30  31  283  30
31  282  283  31
282  177  283  282
177  178  283  177
283  178  284  283
178  179  284  178
283  284  30  283
30  284  29  30
28  29  285  28
29  284  285  29
284  179  285  284
179  180  285  179
285  180  286  285
180  181  286  180
285  286  28  285
28  286  27  28
26  27  287  26
27  286  287  27
286  181  287  286
181  182  287  181
287  182  288  287
182  183  288  182
287  288  26  287
26  288  25  26
24  25  289  24
25  288  289  25
288  183  289  288
183  184  289  183
289  184  290  289
184  185  290  184
289  290  24  289
24  290  23  24
22  23  291  22
23  290  291  23
290  185  291  290
185  186  291  185
291  186  292  291
186  187  292  186
291  292  22  291
22  292  21  22