VARIABLES  = "X","Y","Z", "DISPLACEMENT_X1", "DISPLACEMENT_Y1", "DISPLACEMENT_Z1", "STRESS_XX", "STRESS_XY", "STRESS_YY", "STRESS_ZZ", "STRESS_XZ", "STRESS_YZ", "STRAIN_XX", "STRAIN_XY", "STRAIN_YY", "STRAIN_ZZ", "STRAIN_XZ", "STRAIN_YZ"
ZONE T="0.000000000000e+00s", N=12, E=2, F=FEPOINT, ET=BRICK
STRANDID=1, SOLUTIONTIME=0.000000000000e+00
6.666666666667e-01 0.000000000000e+00 0.000000000000e+00 0.000000000000e+00 0.000000000000e+00 0.000000000000e+00 0.000000000000e+00 0.000000000000e+00 0.000000000000e+00 0.000000000000e+00 0.000000000000e+00 0.000000000000e+00 0.000000000000e+00 0.000000000000e+00 0.000000000000e+00 0.000000000000e+00 0.000000000000e+00 0.000000000000e+00 
1.000000000000e+00 0.000000000000e+00 0.000000000000e+00 0.000000000000e+00 0.000000000000e+00 0.000000000000e+00 0.000000000000e+00 0.000000000000e+00 0.000000000000e+00 0.000000000000e+00 0.000000000000e+00 0.000000000000e+00 0.000000000000e+00 0.000000000000e+00 0.000000000000e+00 0.000000000000e+00 0.000000000000e+00 0.000000000000e+00 
6.666666666667e-01 1.000000000000e-01 0.000000000000e+00 0.000000000000e+00 0.000000000000e+00 0.000000000000e+00 0.000000000000e+00 0.000000000000e+00 0.000000000000e+00 0.000000000000e+00 0.000000000000e+00 0.000000000000e+00 0.000000000000e+00 0.000000000000e+00 0.000000000000e+00 0.000000000000e+00 0.000000000000e+00 0.000000000000e+00 
1.000000000000e+00 1.000000000000e-01 0.000000000000e+00 0.000000000000e+00 0.000000000000e+00 0.000000000000e+00 0.000000000000e+00 0.000000000000e+00 0.000000000000e+00 0.000000000000e+00 0.000000000000e+00 0.000000000000e+00 0.000000000000e+00 0.000000000000e+00 0.000000000000e+00 0.000000000000e+00 0.000000000000e+00 0.000000000000e+00 
6.666666666667e-01 0.000000000000e+00 1.000000000000e-01 0.000000000000e+00 0.000000000000e+00 0.000000000000e+00 0.000000000000e+00 0.000000000000e+00 0.000000000000e+00 0.000000000000e+00 0.000000000000e+00 0.000000000000e+00 0.000000000000e+00 0.000000000000e+00 0.000000000000e+00 0.000000000000e+00 0.000000000000e+00 0.000000000000e+00 
1.000000000000e+00 0.000000000000e+00 1.000000000000e-01 0.000000000000e+00 0.000000000000e+00 0.000000000000e+00 0.000000000000e+00 0.000000000000e+00 0.000000000000e+00 0.000000000000e+00 0.000000000000e+00 0.000000000000e+00 0.000000000000e+00 0.000000000000e+00 0.000000000000e+00 0.000000000000e+00 0.000000000000e+00 0.000000000000e+00 
6.666666666667e-01 1.000000000000e-01 1.000000000000e-01 0.000000000000e+00 0.000000000000e+00 0.000000000000e+00 0.000000000000e+00 0.000000000000e+00 0.000000000000e+00 0.000000000000e+00 0.000000000000e+00 0.000000000000e+00 0.000000000000e+00 0.000000000000e+00 0.000000000000e+00 0.000000000000e+00 0.000000000000e+00 0.000000000000e+00 
1.000000000000e+00 1.000000000000e-01 1.000000000000e-01 0.000000000000e+00 0.000000000000e+00 0.000000000000e+00 0.000000000000e+00 0.000000000000e+00 0.000000000000e+00 0.000000000000e+00 0.000000000000e+00 0.000000000000e+00 0.000000000000e+00 0.000000000000e+00 0.000000000000e+00 0.000000000000e+00 0.000000000000e+00 0.000000000000e+00 
3.333333333333e-01 0.000000000000e+00 0.000000000000e+00 0.000000000000e+00 0.000000000000e+00 0.000000000000e+00 0.000000000000e+00 0.000000000000e+00 0.000000000000e+00 0.000000000000e+00 0.000000000000e+00 0.000000000000e+00 0.000000000000e+00 0.000000000000e+00 0.000000000000e+00 0.000000000000e+00 0.000000000000e+00 0.000000000000e+00 
3.333333333333e-01 1.000000000000e-01 0.000000000000e+00 0.000000000000e+00 0.000000000000e+00 0.000000000000e+00 0.000000000000e+00 0.000000000000e+00 0.000000000000e+00 0.000000000000e+00 0.000000000000e+00 0.000000000000e+00 0.000000000000e+00 0.000000000000e+00 0.000000000000e+00 0.000000000000e+00 0.000000000000e+00 0.000000000000e+00 
3.333333333333e-01 0.000000000000e+00 1.000000000000e-01 0.000000000000e+00 0.000000000000e+00 0.000000000000e+00 0.000000000000e+00 0.000000000000e+00 0.000000000000e+00 0.000000000000e+00 0.000000000000e+00 0.000000000000e+00 0.000000000000e+00 0.000000000000e+00 0.000000000000e+00 0.000000000000e+00 0.000000000000e+00 0.000000000000e+00 
3.333333333333e-01 1.000000000000e-01 1.000000000000e-01 0.000000000000e+00 0.000000000000e+00 0.000000000000e+00 0.000000000000e+00 0.000000000000e+00 0.000000000000e+00 0.000000000000e+00 0.000000000000e+00 0.000000000000e+00 0.000000000000e+00 0.000000000000e+00 0.000000000000e+00 0.000000000000e+00 0.000000000000e+00 0.000000000000e+00 
1  2  4  3  5  6  8  7  
9  1  3  10  11  5  7  12  
VARIABLES  = "X","Y","Z", "DISPLACEMENT_X1", "DISPLACEMENT_Y1", "DISPLACEMENT_Z1", "STRESS_XX", "STRESS_XY", "STRESS_YY", "STRESS_ZZ", "STRESS_XZ", "STRESS_YZ", "STRAIN_XX", "STRAIN_XY", "STRAIN_YY", "STRAIN_ZZ", "STRAIN_XZ", "STRAIN_YZ"
ZONE T="1.000000000000e+00s", N=12, E=2, F=FEPOINT, ET=BRICK
STRANDID=1, SOLUTIONTIME=1.000000000000e+00
6.666666666667e-01 0.000000000000e+00 0.000000000000e+00 -9.259259259784e-06 1.000000000000e-20 1.000000000000e-20 6.666666666544e+05 1.570027347035e-05 2.222222222245e+05 2.222222222166e+05 1.865149220893e-05 -1.539429288078e-07 2.222222222176e-05 1.570027347035e-15 2.711018142980e-16 -1.249704061158e-16 1.865149220893e-15 -1.539429288078e-17 
1.000000000000e+00 0.000000000000e+00 0.000000000000e+00 1.000000000000e-20 1.000000000000e-20 1.000000000000e-20 1.000000000046e+06 -2.473236396930e-07 3.333333333452e+05 3.333333333490e+05 -9.277702052652e-08 7.934214640826e-08 3.333333333489e-05 -2.473236396930e-17 -1.403206674132e-16 5.151731746311e-17 -9.277702052652e-18 7.934214640826e-18 
6.666666666667e-01 1.000000000000e-01 0.000000000000e+00 -9.259259259778e-06 1.000000000000e-20 1.000000000000e-20 6.666666666532e+05 -1.571639693762e-05 2.222222222113e+05 2.222222222191e+05 1.579086113729e-05 -1.539429288078e-07 2.222222222182e-05 -1.571639693762e-15 -2.711018142980e-16 1.189118744690e-16 1.579086113729e-15 -1.539429288078e-17 
1.000000000000e+00 1.000000000000e-01 0.000000000000e+00 1.000000000000e-20 1.000000000000e-20 1.000000000000e-20 1.000000000048e+06 -2.431540133153e-07 3.333333333527e+05 3.333333333487e+05 -1.858299263092e-07 7.934214640826e-08 3.333333333492e-05 -2.431540133153e-17 1.403206674132e-16 -6.302328836053e-17 -1.858299263092e-17 7.934214640826e-18 
6.666666666667e-01 0.000000000000e+00 1.000000000000e-01 -9.259259259772e-06 1.000000000000e-20 1.000000000000e-20 6.666666666545e+05 1.574670049731e-05 2.222222222156e+05 2.222222222207e+05 -1.707428392085e-05 -1.539429288078e-07 2.222222222182e-05 1.574670049731e-15 -1.267233950947e-16 1.249704061158e-16 -1.707428392085e-15 -1.539429288078e-17 
1.000000000000e+00 0.000000000000e+00 1.000000000000e-01 1.000000000000e-20 1.000000000000e-20 1.000000000000e-20 1.000000000047e+06 -5.127721451489e-08 3.333333333501e+05 3.333333333480e+05 -8.893210202325e-08 7.934214640826e-08 3.333333333490e-05 -5.127721451489e-18 5.356208481872e-17 -5.151731746311e-17 -8.893210202325e-18 7.934214640826e-18 
6.666666666667e-01 1.000000000000e-01 1.000000000000e-01 -9.259259259768e-06 1.000000000000e-20 1.000000000000e-20 6.666666666549e+05 -1.610986067009e-05 2.222222222209e+05 2.222222222160e+05 -1.415234542380e-05 -1.539429288078e-07 2.222222222183e-05 -1.610986067009e-15 1.267233950947e-16 -1.189118744690e-16 -1.415234542380e-15 -1.539429288078e-17 
1.000000000000e+00 1.000000000000e-01 1.000000000000e-01 1.000000000000e-20 1.000000000000e-20 1.000000000000e-20 1.000000000048e+06 -4.763291955775e-08 3.333333333483e+05 3.333333333506e+05 -1.821621936321e-07 7.934214640826e-08 3.333333333493e-05 -4.763291955775e-18 -5.356208481872e-17 6.302328836053e-17 -1.821621936321e-17 7.934214640826e-18 
3.333333333333e-01 0.000000000000e+00 0.000000000000e+00 -1.481481481456e-05 1.000000000000e-20 1.000000000000e-20 3.333333332674e+05 2.819960089722e-06 1.111111110774e+05 1.111111110966e+05 -4.651240465652e-07 1.777342535395e-07 1.111111110896e-05 2.819960089722e-16 -5.428036689758e-16 4.174942583587e-16 -4.651240465652e-17 1.777342535395e-17 
3.333333333333e-01 1.000000000000e-01 0.000000000000e+00 -1.481481481454e-05 1.000000000000e-20 1.000000000000e-20 3.333333332630e+05 2.547050816484e-08 1.111111110999e+05 1.111111110825e+05 -2.394800886065e-06 1.777342535395e-07 1.111111110869e-05 2.547050816484e-18 5.428036689758e-16 -3.288303537619e-16 -2.394800886065e-16 1.777342535395e-17 
3.333333333333e-01 0.000000000000e+00 1.000000000000e-01 -1.481481481454e-05 1.000000000000e-20 1.000000000000e-20 3.333333332616e+05 -5.113526172894e-06 1.111111110946e+05 1.111111110786e+05 2.391724561134e-06 1.777342535395e-07 1.111111110873e-05 -5.113526172894e-16 3.812551966843e-16 -4.174942583587e-16 2.391724561134e-16 1.777342535395e-17 
3.333333333333e-01 1.000000000000e-01 1.000000000000e-01 -1.481481481452e-05 1.000000000000e-20 1.000000000000e-20 3.333333332581e+05 6.351967061808e-06 1.111111110781e+05 1.111111110923e+05 4.100247206279e-06 1.777342535395e-07 1.111111110862e-05 6.351967061808e-16 -3.812551966843e-16 3.288303537619e-16 4.100247206279e-16 1.777342535395e-17 
1  2  4  3  5  6  8  7  
9  1  3  10  11  5  7  12  
