VARIABLES  = "X","Y","Z", "PRESSURE1"
ZONE T="0.000000000000e+00s", N=12, E=2, F=FEPOINT, ET=BRICK
STRANDID=1, SOLUTIONTIME=0.000000000000e+00
6.666666666667e-01 0.000000000000e+00 0.000000000000e+00 5.000000000000e+05 
1.000000000000e+00 0.000000000000e+00 0.000000000000e+00 5.000000000000e+05 
6.666666666667e-01 1.000000000000e-01 0.000000000000e+00 5.000000000000e+05 
1.000000000000e+00 1.000000000000e-01 0.000000000000e+00 5.000000000000e+05 
6.666666666667e-01 0.000000000000e+00 1.000000000000e-01 5.000000000000e+05 
1.000000000000e+00 0.000000000000e+00 1.000000000000e-01 5.000000000000e+05 
6.666666666667e-01 1.000000000000e-01 1.000000000000e-01 5.000000000000e+05 
1.000000000000e+00 1.000000000000e-01 1.000000000000e-01 5.000000000000e+05 
3.333333333333e-01 0.000000000000e+00 0.000000000000e+00 5.000000000000e+05 
3.333333333333e-01 1.000000000000e-01 0.000000000000e+00 5.000000000000e+05 
3.333333333333e-01 0.000000000000e+00 1.000000000000e-01 5.000000000000e+05 
3.333333333333e-01 1.000000000000e-01 1.000000000000e-01 5.000000000000e+05 
1  2  4  3  5  6  8  7  
9  1  3  10  11  5  7  12  
VARIABLES  = "X","Y","Z", "PRESSURE1"
ZONE T="1.000000000000e+00s", N=12, E=2, F=FEPOINT, ET=BRICK
STRANDID=1, SOLUTIONTIME=1.000000000000e+00
6.666666666667e-01 0.000000000000e+00 0.000000000000e+00 6.666666666667e+05 
1.000000000000e+00 0.000000000000e+00 0.000000000000e+00 1.000000000000e+06 
6.666666666667e-01 1.000000000000e-01 0.000000000000e+00 6.666666666667e+05 
1.000000000000e+00 1.000000000000e-01 0.000000000000e+00 1.000000000000e+06 
6.666666666667e-01 0.000000000000e+00 1.000000000000e-01 6.666666666667e+05 
1.000000000000e+00 0.000000000000e+00 1.000000000000e-01 1.000000000000e+06 
6.666666666667e-01 1.000000000000e-01 1.000000000000e-01 6.666666666667e+05 
1.000000000000e+00 1.000000000000e-01 1.000000000000e-01 1.000000000000e+06 
3.333333333333e-01 0.000000000000e+00 0.000000000000e+00 3.333333333333e+05 
3.333333333333e-01 1.000000000000e-01 0.000000000000e+00 3.333333333333e+05 
3.333333333333e-01 0.000000000000e+00 1.000000000000e-01 3.333333333333e+05 
3.333333333333e-01 1.000000000000e-01 1.000000000000e-01 3.333333333333e+05 
1  2  4  3  5  6  8  7  
9  1  3  10  11  5  7  12  
