VARIABLES  = "X","Y","Z", "DISPLACEMENT_X1", "DISPLACEMENT_Y1", "DISPLACEMENT_Z1", "STRESS_XX", "STRESS_XY", "STRESS_YY", "STRESS_ZZ", "STRESS_XZ", "STRESS_YZ", "STRAIN_XX", "STRAIN_XY", "STRAIN_YY", "STRAIN_ZZ", "STRAIN_XZ", "STRAIN_YZ"
ZONE T="0.000000000000e+00s", N=12, E=2, F=FEPOINT, ET=BRICK
STRANDID=1, SOLUTIONTIME=0.000000000000e+00
0.000000000000e+00 0.000000000000e+00 0.000000000000e+00 0.000000000000e+00 0.000000000000e+00 0.000000000000e+00 0.000000000000e+00 0.000000000000e+00 0.000000000000e+00 0.000000000000e+00 0.000000000000e+00 0.000000000000e+00 0.000000000000e+00 0.000000000000e+00 0.000000000000e+00 0.000000000000e+00 0.000000000000e+00 0.000000000000e+00 
3.333333333333e-01 0.000000000000e+00 0.000000000000e+00 0.000000000000e+00 0.000000000000e+00 0.000000000000e+00 0.000000000000e+00 0.000000000000e+00 0.000000000000e+00 0.000000000000e+00 0.000000000000e+00 0.000000000000e+00 0.000000000000e+00 0.000000000000e+00 0.000000000000e+00 0.000000000000e+00 0.000000000000e+00 0.000000000000e+00 
0.000000000000e+00 1.000000000000e-01 0.000000000000e+00 0.000000000000e+00 0.000000000000e+00 0.000000000000e+00 0.000000000000e+00 0.000000000000e+00 0.000000000000e+00 0.000000000000e+00 0.000000000000e+00 0.000000000000e+00 0.000000000000e+00 0.000000000000e+00 0.000000000000e+00 0.000000000000e+00 0.000000000000e+00 0.000000000000e+00 
3.333333333333e-01 1.000000000000e-01 0.000000000000e+00 0.000000000000e+00 0.000000000000e+00 0.000000000000e+00 0.000000000000e+00 0.000000000000e+00 0.000000000000e+00 0.000000000000e+00 0.000000000000e+00 0.000000000000e+00 0.000000000000e+00 0.000000000000e+00 0.000000000000e+00 0.000000000000e+00 0.000000000000e+00 0.000000000000e+00 
0.000000000000e+00 0.000000000000e+00 1.000000000000e-01 0.000000000000e+00 0.000000000000e+00 0.000000000000e+00 0.000000000000e+00 0.000000000000e+00 0.000000000000e+00 0.000000000000e+00 0.000000000000e+00 0.000000000000e+00 0.000000000000e+00 0.000000000000e+00 0.000000000000e+00 0.000000000000e+00 0.000000000000e+00 0.000000000000e+00 
3.333333333333e-01 0.000000000000e+00 1.000000000000e-01 0.000000000000e+00 0.000000000000e+00 0.000000000000e+00 0.000000000000e+00 0.000000000000e+00 0.000000000000e+00 0.000000000000e+00 0.000000000000e+00 0.000000000000e+00 0.000000000000e+00 0.000000000000e+00 0.000000000000e+00 0.000000000000e+00 0.000000000000e+00 0.000000000000e+00 
0.000000000000e+00 1.000000000000e-01 1.000000000000e-01 0.000000000000e+00 0.000000000000e+00 0.000000000000e+00 0.000000000000e+00 0.000000000000e+00 0.000000000000e+00 0.000000000000e+00 0.000000000000e+00 0.000000000000e+00 0.000000000000e+00 0.000000000000e+00 0.000000000000e+00 0.000000000000e+00 0.000000000000e+00 0.000000000000e+00 
3.333333333333e-01 1.000000000000e-01 1.000000000000e-01 0.000000000000e+00 0.000000000000e+00 0.000000000000e+00 0.000000000000e+00 0.000000000000e+00 0.000000000000e+00 0.000000000000e+00 0.000000000000e+00 0.000000000000e+00 0.000000000000e+00 0.000000000000e+00 0.000000000000e+00 0.000000000000e+00 0.000000000000e+00 0.000000000000e+00 
6.666666666667e-01 0.000000000000e+00 0.000000000000e+00 0.000000000000e+00 0.000000000000e+00 0.000000000000e+00 0.000000000000e+00 0.000000000000e+00 0.000000000000e+00 0.000000000000e+00 0.000000000000e+00 0.000000000000e+00 0.000000000000e+00 0.000000000000e+00 0.000000000000e+00 0.000000000000e+00 0.000000000000e+00 0.000000000000e+00 
6.666666666667e-01 1.000000000000e-01 0.000000000000e+00 0.000000000000e+00 0.000000000000e+00 0.000000000000e+00 0.000000000000e+00 0.000000000000e+00 0.000000000000e+00 0.000000000000e+00 0.000000000000e+00 0.000000000000e+00 0.000000000000e+00 0.000000000000e+00 0.000000000000e+00 0.000000000000e+00 0.000000000000e+00 0.000000000000e+00 
6.666666666667e-01 0.000000000000e+00 1.000000000000e-01 0.000000000000e+00 0.000000000000e+00 0.000000000000e+00 0.000000000000e+00 0.000000000000e+00 0.000000000000e+00 0.000000000000e+00 0.000000000000e+00 0.000000000000e+00 0.000000000000e+00 0.000000000000e+00 0.000000000000e+00 0.000000000000e+00 0.000000000000e+00 0.000000000000e+00 
6.666666666667e-01 1.000000000000e-01 1.000000000000e-01 0.000000000000e+00 0.000000000000e+00 0.000000000000e+00 0.000000000000e+00 0.000000000000e+00 0.000000000000e+00 0.000000000000e+00 0.000000000000e+00 0.000000000000e+00 0.000000000000e+00 0.000000000000e+00 0.000000000000e+00 0.000000000000e+00 0.000000000000e+00 0.000000000000e+00 
1  2  4  3  5  6  8  7  
2  9  10  4  6  11  12  8  
VARIABLES  = "X","Y","Z", "DISPLACEMENT_X1", "DISPLACEMENT_Y1", "DISPLACEMENT_Z1", "STRESS_XX", "STRESS_XY", "STRESS_YY", "STRESS_ZZ", "STRESS_XZ", "STRESS_YZ", "STRAIN_XX", "STRAIN_XY", "STRAIN_YY", "STRAIN_ZZ", "STRAIN_XZ", "STRAIN_YZ"
ZONE T="1.000000000000e+00s", N=12, E=2, F=FEPOINT, ET=BRICK
STRANDID=1, SOLUTIONTIME=1.000000000000e+00
0.000000000000e+00 0.000000000000e+00 0.000000000000e+00 -1.666666666584e-05 1.000000000000e-20 1.000000000000e-20 -2.670446122011e-05 -1.804860683985e-05 8.264200744179e-06 -2.487643820359e-05 -2.451520869344e-06 -3.421027937482e-07 -9.020554994413e-16 -1.804860683985e-15 8.463769364017e-16 -8.106552666824e-16 -2.451520869344e-16 -3.421027937482e-17 
3.333333333333e-01 0.000000000000e+00 0.000000000000e+00 -1.481481481456e-05 1.000000000000e-20 1.000000000000e-20 3.333333332646e+05 2.237663285839e-06 1.111111110765e+05 1.111111110957e+05 -1.736263749590e-06 1.777342535395e-07 1.111111110886e-05 2.237663285839e-16 -5.428036689758e-16 4.174942583587e-16 -1.736263749590e-16 1.777342535395e-17 
0.000000000000e+00 1.000000000000e-01 0.000000000000e+00 -1.666666666582e-05 1.000000000000e-20 1.000000000000e-20 -4.211345367366e-05 1.967865802552e-05 -3.334985694892e-05 -6.648295311606e-06 -3.971419761801e-06 -3.421027937483e-07 -1.284556116516e-15 1.967865802552e-15 -8.463769364017e-16 4.887012712395e-16 -3.971419761801e-16 -3.421027937483e-17 
3.333333333333e-01 1.000000000000e-01 0.000000000000e+00 -1.481481481454e-05 1.000000000000e-20 1.000000000000e-20 3.333333332693e+05 -5.569939597603e-07 1.111111111021e+05 1.111111110846e+05 -3.130252303707e-06 1.777342535395e-07 1.111111110891e-05 -5.569939597603e-17 5.428036689758e-16 -3.288303537619e-16 -3.130252303707e-16 1.777342535395e-17 
0.000000000000e+00 0.000000000000e+00 1.000000000000e-01 -1.666666666573e-05 1.000000000000e-20 1.000000000000e-20 -6.984752326389e-05 -1.533525475172e-05 -3.908033522748e-05 -6.965593911445e-06 1.962640483098e-05 -3.421027937483e-07 -2.333441673782e-15 -1.533525475172e-15 -7.950823952685e-16 8.106552666824e-16 1.962640483098e-15 -3.421027937483e-17 
3.333333333333e-01 0.000000000000e+00 1.000000000000e-01 -1.481481481454e-05 1.000000000000e-20 1.000000000000e-20 3.333333332745e+05 -4.123633052444e-06 1.111111110989e+05 1.111111110829e+05 1.121108754269e-06 1.777342535395e-07 1.111111110916e-05 -4.123633052444e-16 3.812551966843e-16 -4.174942583587e-16 1.121108754269e-16 1.777342535395e-17 
0.000000000000e+00 1.000000000000e-01 1.000000000000e-01 -1.666666666572e-05 1.000000000000e-20 1.000000000000e-20 -5.547382170334e-05 1.911294258987e-05 -5.470865289681e-07 -2.622275860631e-05 2.052160393523e-05 -3.421027937482e-07 -1.951254531690e-15 1.911294258987e-15 7.950823952685e-16 -4.887012712395e-16 2.052160393523e-15 -3.421027937482e-17 
3.333333333333e-01 1.000000000000e-01 1.000000000000e-01 -1.481481481452e-05 1.000000000000e-20 1.000000000000e-20 3.333333332676e+05 7.341144806049e-06 1.111111110812e+05 1.111111110954e+05 3.364378510837e-06 1.777342535395e-07 1.111111110894e-05 7.341144806049e-16 -3.812551966843e-16 3.288303537619e-16 3.364378510837e-16 1.777342535395e-17 
6.666666666667e-01 0.000000000000e+00 0.000000000000e+00 -9.259259259784e-06 1.000000000000e-20 1.000000000000e-20 6.666666665989e+05 1.558756552406e-05 2.222222222060e+05 2.222222221981e+05 1.827511912399e-05 -1.539429288078e-07 2.222222221992e-05 1.558756552406e-15 2.711018142980e-16 -1.249704061158e-16 1.827511912399e-15 -1.539429288078e-17 
6.666666666667e-01 1.000000000000e-01 0.000000000000e+00 -9.259259259778e-06 1.000000000000e-20 1.000000000000e-20 6.666666666010e+05 -1.582734892128e-05 2.222222221939e+05 2.222222222017e+05 1.582908633501e-05 -1.539429288078e-07 2.222222222008e-05 -1.582734892128e-15 -2.711018142980e-16 1.189118744690e-16 1.582908633501e-15 -1.539429288078e-17 
6.666666666667e-01 0.000000000000e+00 1.000000000000e-01 -9.259259259772e-06 1.000000000000e-20 1.000000000000e-20 6.666666666031e+05 1.555943738360e-05 2.222222221985e+05 2.222222222035e+05 -1.745010533626e-05 -1.539429288078e-07 2.222222222010e-05 1.555943738360e-15 -1.267233950947e-16 1.249704061158e-16 -1.745010533626e-15 -1.539429288078e-17 
6.666666666667e-01 1.000000000000e-01 1.000000000000e-01 -9.259259259768e-06 1.000000000000e-20 1.000000000000e-20 6.666666666048e+05 -1.629734554132e-05 2.222222222042e+05 2.222222221993e+05 -1.411366540495e-05 -1.539429288078e-07 2.222222222016e-05 -1.629734554132e-15 1.267233950947e-16 -1.189118744690e-16 -1.411366540495e-15 -1.539429288078e-17 
1  2  4  3  5  6  8  7  
2  9  10  4  6  11  12  8  
