VARIABLES  = "X","Y","Z", "PRESSURE1"
ZONE T="0.000000000000e+00s", N=14, E=15, F=FEPOINT, ET=QUADRILATERAL
STRANDID=1, SOLUTIONTIME=0.000000000000e+00
2.000000000000e+00 1.000000000000e+00 0.000000000000e+00 0.000000000000e+00 
2.000000000000e+00 2.000000000000e+00 0.000000000000e+00 0.000000000000e+00 
3.000000000000e+00 2.000000000000e+00 0.000000000000e+00 0.000000000000e+00 
1.000000000000e+00 3.000000000000e+00 0.000000000000e+00 0.000000000000e+00 
2.000000000000e+00 3.000000000000e+00 0.000000000000e+00 0.000000000000e+00 
3.000000000000e+00 3.000000000000e+00 0.000000000000e+00 0.000000000000e+00 
2.000000000000e+00 0.000000000000e+00 0.000000000000e+00 0.000000000000e+00 
1.000000000000e+00 1.000000000000e+00 0.000000000000e+00 0.000000000000e+00 
3.000000000000e+00 1.000000000000e+00 0.000000000000e+00 0.000000000000e+00 
1.000000000000e+00 2.000000000000e+00 0.000000000000e+00 0.000000000000e+00 
4.000000000000e+00 2.000000000000e+00 0.000000000000e+00 0.000000000000e+00 
0.000000000000e+00 2.000000000000e+00 0.000000000000e+00 0.000000000000e+00 
0.000000000000e+00 3.000000000000e+00 0.000000000000e+00 0.000000000000e+00 
4.000000000000e+00 3.000000000000e+00 0.000000000000e+00 0.000000000000e+00 
2  5  4  2
2  3  6  2
2  6  5  2
7  1  8  7
7  9  1  7
8  1  2  8
1  9  2  1
8  2  10  8
9  3  2  9
10  2  4  10
9  11  3  9
3  11  6  3
12  10  4  12
12  4  13  12
11  14  6  11
VARIABLES  = "X","Y","Z", "PRESSURE1"
ZONE T="8.640000000000e+04s", N=14, E=15, F=FEPOINT, ET=QUADRILATERAL
STRANDID=1, SOLUTIONTIME=8.640000000000e+04
2.000000000000e+00 1.000000000000e+00 0.000000000000e+00 9.999999999624e+03 
2.000000000000e+00 2.000000000000e+00 0.000000000000e+00 9.999999999852e+03 
3.000000000000e+00 2.000000000000e+00 0.000000000000e+00 1.138987566567e+04 
1.000000000000e+00 3.000000000000e+00 0.000000000000e+00 8.898756660600e+03 
2.000000000000e+00 3.000000000000e+00 0.000000000000e+00 9.999999999560e+03 
3.000000000000e+00 3.000000000000e+00 0.000000000000e+00 1.110124333909e+04 
2.000000000000e+00 0.000000000000e+00 0.000000000000e+00 9.999999999893e+03 
1.000000000000e+00 1.000000000000e+00 0.000000000000e+00 7.690941385328e+03 
3.000000000000e+00 1.000000000000e+00 0.000000000000e+00 1.230905861444e+04 
1.000000000000e+00 2.000000000000e+00 0.000000000000e+00 8.610124333504e+03 
4.000000000000e+00 2.000000000000e+00 0.000000000000e+00 1.214920071033e+04 
0.000000000000e+00 2.000000000000e+00 0.000000000000e+00 7.850799289394e+03 
0.000000000000e+00 3.000000000000e+00 0.000000000000e+00 8.374777974692e+03 
4.000000000000e+00 3.000000000000e+00 0.000000000000e+00 1.162522202446e+04 
2  5  4  2
2  3  6  2
2  6  5  2
7  1  8  7
7  9  1  7
8  1  2  8
1  9  2  1
8  2  10  8
9  3  2  9
10  2  4  10
9  11  3  9
3  11  6  3
12  10  4  12
12  4  13  12
11  14  6  11
