VARIABLES  = "X","Y","Z", "PRESSURE1"
ZONE T="0.000000000000e+00s", N=11, E=10, F=FEPOINT, ET=QUADRILATERAL
STRANDID=1, SOLUTIONTIME=0.000000000000e+00
3.000000000000e+00 0.000000000000e+00 0.000000000000e+00 0.000000000000e+00 
4.000000000000e+00 0.000000000000e+00 0.000000000000e+00 0.000000000000e+00 
3.000000000000e+00 1.000000000000e+00 0.000000000000e+00 0.000000000000e+00 
4.000000000000e+00 1.000000000000e+00 0.000000000000e+00 0.000000000000e+00 
4.000000000000e+00 2.000000000000e+00 0.000000000000e+00 0.000000000000e+00 
4.000000000000e+00 3.000000000000e+00 0.000000000000e+00 0.000000000000e+00 
2.000000000000e+00 0.000000000000e+00 0.000000000000e+00 0.000000000000e+00 
2.000000000000e+00 1.000000000000e+00 0.000000000000e+00 0.000000000000e+00 
2.000000000000e+00 2.000000000000e+00 0.000000000000e+00 0.000000000000e+00 
3.000000000000e+00 2.000000000000e+00 0.000000000000e+00 0.000000000000e+00 
3.000000000000e+00 3.000000000000e+00 0.000000000000e+00 0.000000000000e+00 
1  2  3  1
2  4  3  2
3  4  5  3
7  1  3  7
7  3  8  7
8  3  9  8
3  10  9  3
3  5  10  3
10  5  11  10
5  6  11  5
VARIABLES  = "X","Y","Z", "PRESSURE1"
ZONE T="8.640000000000e+04s", N=11, E=10, F=FEPOINT, ET=QUADRILATERAL
STRANDID=1, SOLUTIONTIME=8.640000000000e+04
3.000000000000e+00 0.000000000000e+00 0.000000000000e+00 1.365452930702e+04 
4.000000000000e+00 0.000000000000e+00 0.000000000000e+00 2.000000000000e+04 
3.000000000000e+00 1.000000000000e+00 0.000000000000e+00 1.230905861444e+04 
4.000000000000e+00 1.000000000000e+00 0.000000000000e+00 1.419182948463e+04 
4.000000000000e+00 2.000000000000e+00 0.000000000000e+00 1.214920071033e+04 
4.000000000000e+00 3.000000000000e+00 0.000000000000e+00 1.162522202446e+04 
2.000000000000e+00 0.000000000000e+00 0.000000000000e+00 9.999999999893e+03 
2.000000000000e+00 1.000000000000e+00 0.000000000000e+00 9.999999999624e+03 
2.000000000000e+00 2.000000000000e+00 0.000000000000e+00 9.999999999852e+03 
3.000000000000e+00 2.000000000000e+00 0.000000000000e+00 1.138987566567e+04 
3.000000000000e+00 3.000000000000e+00 0.000000000000e+00 1.110124333909e+04 
1  2  3  1
2  4  3  2
3  4  5  3
7  1  3  7
7  3  8  7
8  3  9  8
3  10  9  3
3  5  10  3
10  5  11  10
5  6  11  5
