VARIABLES  = "X","Y","Z", "PRESSURE1"
ZONE T="0.000000000000e+00s", N=13, E=13, F=FEPOINT, ET=QUADRILATERAL
STRANDID=1, SOLUTIONTIME=0.000000000000e+00
0.000000000000e+00 0.000000000000e+00 0.000000000000e+00 0.000000000000e+00 
1.000000000000e+00 0.000000000000e+00 0.000000000000e+00 0.000000000000e+00 
2.000000000000e+00 0.000000000000e+00 0.000000000000e+00 0.000000000000e+00 
0.000000000000e+00 1.000000000000e+00 0.000000000000e+00 0.000000000000e+00 
1.000000000000e+00 1.000000000000e+00 0.000000000000e+00 0.000000000000e+00 
0.000000000000e+00 2.000000000000e+00 0.000000000000e+00 0.000000000000e+00 
1.000000000000e+00 2.000000000000e+00 0.000000000000e+00 0.000000000000e+00 
0.000000000000e+00 3.000000000000e+00 0.000000000000e+00 0.000000000000e+00 
2.000000000000e+00 1.000000000000e+00 0.000000000000e+00 0.000000000000e+00 
3.000000000000e+00 0.000000000000e+00 0.000000000000e+00 0.000000000000e+00 
3.000000000000e+00 1.000000000000e+00 0.000000000000e+00 0.000000000000e+00 
2.000000000000e+00 2.000000000000e+00 0.000000000000e+00 0.000000000000e+00 
1.000000000000e+00 3.000000000000e+00 0.000000000000e+00 0.000000000000e+00 
1  5  4  1
1  2  5  1
2  3  5  2
4  5  6  4
5  7  6  5
3  9  5  3
3  10  11  3
3  11  9  3
5  9  12  5
5  12  7  5
6  7  13  6
6  13  8  6
7  12  13  7
VARIABLES  = "X","Y","Z", "PRESSURE1"
ZONE T="8.640000000000e+04s", N=13, E=13, F=FEPOINT, ET=QUADRILATERAL
STRANDID=1, SOLUTIONTIME=8.640000000000e+04
0.000000000000e+00 0.000000000000e+00 0.000000000000e+00 0.000000000000e+00 
1.000000000000e+00 0.000000000000e+00 0.000000000000e+00 6.345470692446e+03 
2.000000000000e+00 0.000000000000e+00 0.000000000000e+00 9.999999999893e+03 
0.000000000000e+00 1.000000000000e+00 0.000000000000e+00 5.808170514808e+03 
1.000000000000e+00 1.000000000000e+00 0.000000000000e+00 7.690941385328e+03 
0.000000000000e+00 2.000000000000e+00 0.000000000000e+00 7.850799289394e+03 
1.000000000000e+00 2.000000000000e+00 0.000000000000e+00 8.610124333504e+03 
0.000000000000e+00 3.000000000000e+00 0.000000000000e+00 8.374777974692e+03 
2.000000000000e+00 1.000000000000e+00 0.000000000000e+00 9.999999999624e+03 
3.000000000000e+00 0.000000000000e+00 0.000000000000e+00 1.365452930702e+04 
3.000000000000e+00 1.000000000000e+00 0.000000000000e+00 1.230905861444e+04 
2.000000000000e+00 2.000000000000e+00 0.000000000000e+00 9.999999999852e+03 
1.000000000000e+00 3.000000000000e+00 0.000000000000e+00 8.898756660600e+03 
1  5  4  1
1  2  5  1
2  3  5  2
4  5  6  4
5  7  6  5
3  9  5  3
3  10  11  3
3  11  9  3
5  9  12  5
5  12  7  5
6  7  13  6
6  13  8  6
7  12  13  7
