<?xml version="1.0"?>
<!-- Time step: 119 | Time: 1.900000000000e+04 -->
<VTKFile type="UnstructuredGrid" version="0.1" byte_order="LittleEndian">
  <UnstructuredGrid>
    <Piece NumberOfPoints="6824" NumberOfCells="13330">
      <Points>
        <DataArray type="Float64" NumberOfComponents="3" format="ascii">
          0.000000000000e+00 0.000000000000e+00 0.000000000000e+00
          0.000000000000e+00 0.000000000000e+00 2.600000000000e-01
          5.300000000000e-01 0.000000000000e+00 2.600000000000e-01
          5.300000000000e-01 0.000000000000e+00 0.000000000000e+00
          0.000000000000e+00 0.000000000000e+00 4.999999999991e-03
          0.000000000000e+00 0.000000000000e+00 9.999999999982e-03
          0.000000000000e+00 0.000000000000e+00 1.499999999997e-02
          0.000000000000e+00 0.000000000000e+00 1.999999999996e-02
          0.000000000000e+00 0.000000000000e+00 2.499999999996e-02
          0.000000000000e+00 0.000000000000e+00 2.999999999995e-02
          0.000000000000e+00 0.000000000000e+00 3.499999999994e-02
          0.000000000000e+00 0.000000000000e+00 3.999999999992e-02
          0.000000000000e+00 0.000000000000e+00 4.499999999991e-02
          0.000000000000e+00 0.000000000000e+00 4.999999999990e-02
          0.000000000000e+00 0.000000000000e+00 5.499999999988e-02
          0.000000000000e+00 0.000000000000e+00 5.999999999987e-02
          0.000000000000e+00 0.000000000000e+00 6.499999999985e-02
          0.000000000000e+00 0.000000000000e+00 6.999999999983e-02
          0.000000000000e+00 0.000000000000e+00 7.499999999983e-02
          0.000000000000e+00 0.000000000000e+00 7.999999999981e-02
          0.000000000000e+00 0.000000000000e+00 8.499999999979e-02
          0.000000000000e+00 0.000000000000e+00 8.999999999978e-02
          0.000000000000e+00 0.000000000000e+00 9.499999999977e-02
          0.000000000000e+00 0.000000000000e+00 9.999999999975e-02
          0.000000000000e+00 0.000000000000e+00 1.049999999997e-01
          0.000000000000e+00 0.000000000000e+00 1.099999999997e-01
          0.000000000000e+00 0.000000000000e+00 1.149999999997e-01
          0.000000000000e+00 0.000000000000e+00 1.199999999997e-01
          0.000000000000e+00 0.000000000000e+00 1.249999999997e-01
          0.000000000000e+00 0.000000000000e+00 1.299999999997e-01
          0.000000000000e+00 0.000000000000e+00 1.349999999997e-01
          0.000000000000e+00 0.000000000000e+00 1.399999999997e-01
          0.000000000000e+00 0.000000000000e+00 1.449999999997e-01
          0.000000000000e+00 0.000000000000e+00 1.499999999997e-01
          0.000000000000e+00 0.000000000000e+00 1.549999999997e-01
          0.000000000000e+00 0.000000000000e+00 1.599999999997e-01
          0.000000000000e+00 0.000000000000e+00 1.649999999998e-01
          0.000000000000e+00 0.000000000000e+00 1.699999999998e-01
          0.000000000000e+00 0.000000000000e+00 1.749999999998e-01
          0.000000000000e+00 0.000000000000e+00 1.799999999998e-01
          0.000000000000e+00 0.000000000000e+00 1.849999999998e-01
          0.000000000000e+00 0.000000000000e+00 1.899999999998e-01
          0.000000000000e+00 0.000000000000e+00 1.949999999998e-01
          0.000000000000e+00 0.000000000000e+00 1.999999999999e-01
          0.000000000000e+00 0.000000000000e+00 2.049999999999e-01
          0.000000000000e+00 0.000000000000e+00 2.099999999999e-01
          0.000000000000e+00 0.000000000000e+00 2.149999999999e-01
          0.000000000000e+00 0.000000000000e+00 2.199999999999e-01
          0.000000000000e+00 0.000000000000e+00 2.249999999999e-01
          0.000000000000e+00 0.000000000000e+00 2.299999999999e-01
          0.000000000000e+00 0.000000000000e+00 2.349999999999e-01
          0.000000000000e+00 0.000000000000e+00 2.399999999999e-01
          0.000000000000e+00 0.000000000000e+00 2.450000000000e-01
          0.000000000000e+00 0.000000000000e+00 2.500000000000e-01
          0.000000000000e+00 0.000000000000e+00 2.550000000000e-01
          4.999999999991e-03 0.000000000000e+00 2.600000000000e-01
          9.999999999981e-03 0.000000000000e+00 2.600000000000e-01
          1.499999999997e-02 0.000000000000e+00 2.600000000000e-01
          1.999999999996e-02 0.000000000000e+00 2.600000000000e-01
          2.499999999995e-02 0.000000000000e+00 2.600000000000e-01
          2.999999999994e-02 0.000000000000e+00 2.600000000000e-01
          3.499999999993e-02 0.000000000000e+00 2.600000000000e-01
          3.999999999992e-02 0.000000000000e+00 2.600000000000e-01
          4.499999999992e-02 0.000000000000e+00 2.600000000000e-01
          4.999999999991e-02 0.000000000000e+00 2.600000000000e-01
          5.499999999990e-02 0.000000000000e+00 2.600000000000e-01
          5.999999999990e-02 0.000000000000e+00 2.600000000000e-01
          6.499999999989e-02 0.000000000000e+00 2.600000000000e-01
          6.999999999988e-02 0.000000000000e+00 2.600000000000e-01
          7.499999999986e-02 0.000000000000e+00 2.600000000000e-01
          7.999999999985e-02 0.000000000000e+00 2.600000000000e-01
          8.499999999983e-02 0.000000000000e+00 2.600000000000e-01
          8.999999999981e-02 0.000000000000e+00 2.600000000000e-01
          9.499999999980e-02 0.000000000000e+00 2.600000000000e-01
          9.999999999979e-02 0.000000000000e+00 2.600000000000e-01
          1.049999999998e-01 0.000000000000e+00 2.600000000000e-01
          1.099999999998e-01 0.000000000000e+00 2.600000000000e-01
          1.149999999997e-01 0.000000000000e+00 2.600000000000e-01
          1.199999999997e-01 0.000000000000e+00 2.600000000000e-01
          1.249999999997e-01 0.000000000000e+00 2.600000000000e-01
          1.299999999997e-01 0.000000000000e+00 2.600000000000e-01
          1.349999999997e-01 0.000000000000e+00 2.600000000000e-01
          1.399999999997e-01 0.000000000000e+00 2.600000000000e-01
          1.449999999997e-01 0.000000000000e+00 2.600000000000e-01
          1.499999999996e-01 0.000000000000e+00 2.600000000000e-01
          1.549999999996e-01 0.000000000000e+00 2.600000000000e-01
          1.599999999996e-01 0.000000000000e+00 2.600000000000e-01
          1.649999999996e-01 0.000000000000e+00 2.600000000000e-01
          1.699999999996e-01 0.000000000000e+00 2.600000000000e-01
          1.749999999996e-01 0.000000000000e+00 2.600000000000e-01
          1.799999999995e-01 0.000000000000e+00 2.600000000000e-01
          1.849999999995e-01 0.000000000000e+00 2.600000000000e-01
          1.899999999995e-01 0.000000000000e+00 2.600000000000e-01
          1.949999999995e-01 0.000000000000e+00 2.600000000000e-01
          1.999999999995e-01 0.000000000000e+00 2.600000000000e-01
          2.049999999995e-01 0.000000000000e+00 2.600000000000e-01
          2.099999999995e-01 0.000000000000e+00 2.600000000000e-01
          2.149999999994e-01 0.000000000000e+00 2.600000000000e-01
          2.199999999994e-01 0.000000000000e+00 2.600000000000e-01
          2.249999999994e-01 0.000000000000e+00 2.600000000000e-01
          2.299999999994e-01 0.000000000000e+00 2.600000000000e-01
          2.349999999994e-01 0.000000000000e+00 2.600000000000e-01
          2.399999999994e-01 0.000000000000e+00 2.600000000000e-01
          2.449999999993e-01 0.000000000000e+00 2.600000000000e-01
          2.499999999993e-01 0.000000000000e+00 2.600000000000e-01
          2.549999999993e-01 0.000000000000e+00 2.600000000000e-01
          2.599999999993e-01 0.000000000000e+00 2.600000000000e-01
          2.649999999993e-01 0.000000000000e+00 2.600000000000e-01
          2.699999999993e-01 0.000000000000e+00 2.600000000000e-01
          2.749999999993e-01 0.000000000000e+00 2.600000000000e-01
          2.799999999993e-01 0.000000000000e+00 2.600000000000e-01
          2.849999999993e-01 0.000000000000e+00 2.600000000000e-01
          2.899999999993e-01 0.000000000000e+00 2.600000000000e-01
          2.949999999993e-01 0.000000000000e+00 2.600000000000e-01
          2.999999999994e-01 0.000000000000e+00 2.600000000000e-01
          3.049999999994e-01 0.000000000000e+00 2.600000000000e-01
          3.099999999994e-01 0.000000000000e+00 2.600000000000e-01
          3.149999999994e-01 0.000000000000e+00 2.600000000000e-01
          3.199999999994e-01 0.000000000000e+00 2.600000000000e-01
          3.249999999994e-01 0.000000000000e+00 2.600000000000e-01
          3.299999999994e-01 0.000000000000e+00 2.600000000000e-01
          3.349999999995e-01 0.000000000000e+00 2.600000000000e-01
          3.399999999995e-01 0.000000000000e+00 2.600000000000e-01
          3.449999999995e-01 0.000000000000e+00 2.600000000000e-01
          3.499999999995e-01 0.000000000000e+00 2.600000000000e-01
          3.549999999995e-01 0.000000000000e+00 2.600000000000e-01
          3.599999999995e-01 0.000000000000e+00 2.600000000000e-01
          3.649999999996e-01 0.000000000000e+00 2.600000000000e-01
          3.699999999996e-01 0.000000000000e+00 2.600000000000e-01
          3.749999999996e-01 0.000000000000e+00 2.600000000000e-01
          3.799999999996e-01 0.000000000000e+00 2.600000000000e-01
          3.849999999996e-01 0.000000000000e+00 2.600000000000e-01
          3.899999999996e-01 0.000000000000e+00 2.600000000000e-01
          3.949999999996e-01 0.000000000000e+00 2.600000000000e-01
          3.999999999996e-01 0.000000000000e+00 2.600000000000e-01
          4.049999999996e-01 0.000000000000e+00 2.600000000000e-01
          4.099999999996e-01 0.000000000000e+00 2.600000000000e-01
          4.149999999997e-01 0.000000000000e+00 2.600000000000e-01
          4.199999999997e-01 0.000000000000e+00 2.600000000000e-01
          4.249999999997e-01 0.000000000000e+00 2.600000000000e-01
          4.299999999997e-01 0.000000000000e+00 2.600000000000e-01
          4.349999999997e-01 0.000000000000e+00 2.600000000000e-01
          4.399999999997e-01 0.000000000000e+00 2.600000000000e-01
          4.449999999997e-01 0.000000000000e+00 2.600000000000e-01
[...]
      <PointData Scalars="PRESSURE1">
        <DataArray type="Float64" Name="PRESSURE1" format="ascii">
          2.566590300000e+03 -5.032530000000e+01 1.962000000000e+01 2.570220000000e+03 2.516265000000e+03 2.465939700000e+03 2.415614400000e+03 2.365289100000e+03 2.314963800000e+03 2.264638500001e+03 2.214313200001e+03 2.163987900001e+03 2.113662600001e+03 2.063337300001e+03 2.013012000001e+03 1.962686700001e+03 1.912361400001e+03 1.862036100002e+03 1.811710800002e+03 1.761385500002e+03 1.711060200002e+03 1.660734900002e+03 1.610409600002e+03 1.560084300003e+03 1.509759000003e+03 1.459433700003e+03 1.409108400003e+03 1.358783100003e+03 1.308457800003e+03 1.258132500003e+03 1.207807200003e+03 1.157481900003e+03 1.107156600003e+03 1.056831300003e+03 1.006506000003e+03 9.561807000026e+02 9.058554000024e+02 8.555301000022e+02 8.052048000022e+02 7.548795000020e+02 7.045542000019e+02 6.542289000018e+02 6.039036000017e+02 5.535783000015e+02 5.032530000014e+02 4.529277000013e+02 4.026024000011e+02 3.522771000010e+02 3.019518000009e+02 2.516265000007e+02 2.013012000006e+02 1.509759000005e+02 1.006506000004e+02 5.032530000026e+01 1.810262739710e-10 -4.695533665025e+01 -4.418198187389e+01 -4.182940819093e+01 -3.980482665623e+01 -3.800889442742e+01 -3.638347971567e+01 -3.489128355502e+01 -3.350830118643e+01 -3.220456800974e+01 -3.097807758652e+01 -2.981699750683e+01 -2.871203135640e+01 -2.765491216340e+01 -2.664246591939e+01 -2.566672602610e+01 -2.472904792029e+01 -2.382335535553e+01 -2.294556034073e+01 -2.209588595775e+01 -2.127154685711e+01 -2.046949114360e+01 -1.968862930811e+01 -1.892884119339e+01 -1.818538391747e+01 -1.745969014530e+01 -1.674965906646e+01 -1.605571777307e+01 -1.537581290760e+01 -1.470982636237e+01 -1.405705312248e+01 -1.341510153279e+01 -1.278488706141e+01 -1.216661839712e+01 -1.155864629823e+01 -1.096056339403e+01 -1.037116377429e+01 -9.791840082242e+00 -9.220298503201e+00 -8.657748088295e+00 -8.103455038025e+00 -7.556302384524e+00 -7.016461149483e+00 -6.484103278863e+00 -5.958440552888e+00 -5.439655124710e+00 -4.926703112523e+00 -4.419920831401e+00 -3.919337680893e+00 -3.424228177382e+00 -2.934428008597e+00 -2.450457513143e+00 -1.971246450324e+00 -1.497262592823e+00 -1.027940871884e+00 -5.633482018712e-01 -1.032647770081e-01 3.526615580503e-01 8.043470917026e-01 1.251871500039e+00 1.695567680950e+00 2.135349727592e+00 2.571447391738e+00 3.004198879353e+00 3.433222641406e+00 3.858991890288e+00 4.281797429965e+00 4.701518838534e+00 5.118006955110e+00 5.531671051545e+00 5.942705290440e+00 6.350815744731e+00 6.756559710124e+00 7.159761249762e+00 7.560592742886e+00 7.959122677121e+00 8.355469793173e+00 8.749678286820e+00 9.141908556741e+00 9.532234777565e+00 9.920749735027e+00 1.030734159066e+01 1.069239899472e+01 1.107572996542e+01 1.145777042857e+01 1.183817720890e+01 1.221730124875e+01 1.259512225238e+01 1.297174842492e+01 1.334720289222e+01 1.372153652493e+01 1.409492940639e+01 1.446737890387e+01 1.483896616112e+01 1.520975308633e+01 1.557978087871e+01 1.594920199819e+01 1.631796586123e+01 1.668622603576e+01 1.705397458292e+01 1.742130836243e+01 1.778830645162e+01 1.815500525317e+01 1.852145619132e+01 1.888773459722e+01 1.925390132183e+01 6.866999999997e+01 1.177199999998e+02 1.667699999998e+02 2.158199999997e+02 2.648699999996e+02 3.139199999995e+02 3.629699999995e+02 4.120199999993e+02 4.610699999991e+02 5.101199999990e+02 5.591699999989e+02 6.082199999988e+02 6.572699999986e+02 7.063199999985e+02 7.553699999983e+02 8.044199999981e+02 8.534699999980e+02 9.025199999979e+02 9.515699999978e+02 1.000619999998e+03 1.049669999998e+03 1.098719999997e+03 1.147769999997e+03 1.196819999997e+03 1.245869999997e+03 1.294919999997e+03 1.343969999997e+03 1.393019999997e+03 1.442069999997e+03 1.491119999997e+03 1.540169999997e+03 1.589219999998e+03 1.638269999998e+03 1.687319999998e+03 1.736369999998e+03 1.785419999998e+03 1.834469999998e+03 1.883519999998e+03 1.932569999998e+03 1.981619999999e+03 2.030669999999e+03 2.079719999999e+03 2.128769999999e+03 2.177819999999e+03 2.226869999999e+03 2.275919999999e+03 2.324969999999e+03 2.374019999999e+03 2.423070000000e+03 2.472120000000e+03 2.521170000000e+03 2.569895729936e+03 2.569571566314e+03 2.569247615817e+03 2.568923974442e+03 2.568600761560e+03 2.568278067609e+03 2.567956029801e+03 2.567634739825e+03 2.567314380434e+03 2.566995081954e+03 2.566676977650e+03 2.566360185974e+03 2.566044898748e+03 2.565731439139e+03 2.565419789605e+03 2.565110368708e+03 2.564803327314e+03 2.564499179307e+03 2.564198211693e+03 2.563900670031e+03 2.563606935818e+03 2.563318127316e+03 2.563034844408e+03 2.562757526948e+03 2.562488846563e+03 2.562228707765e+03 2.561982388269e+03 2.561750490169e+03 2.561547055450e+03 2.561384899164e+03 2.561312208706e+03 2.561334946603e+03 2.561441091834e+03 2.561563634070e+03 2.561705303745e+03 2.561858358991e+03 2.561997953387e+03 2.562136421030e+03 2.562274159616e+03 2.562413121536e+03 2.562542502768e+03 2.562666090158e+03 2.562787368886e+03 2.562897057292e+03 2.563000852621e+03 2.563107018981e+03 2.563208693613e+03 2.563305939984e+03 2.563398859442e+03 2.563490524638e+03 2.563578118102e+03 2.563663288507e+03 2.563745751105e+03 2.563826088703e+03 2.563904278363e+03 2.563980459107e+03 2.564054850463e+03 2.564127445557e+03 2.564198317311e+03 2.564267691281e+03 2.564335506742e+03 2.564401863727e+03 2.564466866078e+03 2.564530624477e+03 2.564593150079e+03 2.564654593228e+03 2.564714957749e+03 2.564774265787e+03 2.564832634987e+03 2.564890129111e+03 2.564946656791e+03 2.565002397348e+03 2.565057316228e+03 2.565111471561e+03 2.565164836574e+03 2.565217490224e+03 2.565269453643e+03 2.565320783055e+03 2.565371498766e+03 2.565421586540e+03 2.565471104590e+03 2.565520059465e+03 2.565568525993e+03 2.565616457149e+03 2.565663919800e+03 2.565710940782e+03 2.565757529943e+03 2.565803689966e+03 2.565849491079e+03 2.565894905795e+03 2.565939989306e+03 2.565984736850e+03 2.566029207100e+03 2.566073397880e+03 2.566117323696e+03 2.566161049551e+03 2.566204547616e+03 2.566247879486e+03 2.566291028832e+03 2.566334044527e+03 2.566376943123e+03 2.566419734849e+03 2.566462447383e+03 2.566505098592e+03 2.566547709071e+03 8.148625140295e+02 7.947926415657e+02 1.757091362859e+03 2.188987796714e+03 4.110220765661e+02 2.206271288435e+03 3.470256459292e+02 6.213897659165e+02 1.285615394653e+03 2.329468420954e+03 2.312777640896e+02 5.065107999066e+02 1.973929523837e+03 5.634453766670e+02 1.904180710440e+03 2.322394408599e+03 2.345163807611e+02 6.295066486870e+02 2.343759520193e+03 2.416655011782e+02 7.998243078115e+02 6.107596506338e+02 1.911151952443e+03 2.176700361620e+03 3.556374848374e+02 1.955603431804e+03 5.732211898445e+02 6.177033266950e+02 2.004640682961e+03 1.769372293991e+03 4.565484643319e+02 8.159300191003e+02 1.739153901572e+03 1.779899651245e+03 3.065900423456e+02 8.213505544822e+02 1.982278364498e+03 2.303122012708e+03 4.856120125998e+02 1.982633085969e+03 6.281123007234e+02 6.751483141872e+02 1.852708269331e+03 1.971226703275e+03 2.069446563252e+03 2.099066736106e+03 2.693080771370e+02 2.742520652860e+02 2.035051914511e+03 2.121175779716e+03 2.105578713727e+03 4.492299035049e+02 4.715287432604e+02 2.150256865121e+03 2.121986663635e+03 3.599607775009e+02 3.705241179690e+02 2.170943312213e+03 3.166867279603e+02 2.340202759408e+03 4.241277020855e+02 2.270157741056e+03 1.413320631647e+02 2.214551270323e+03 2.317376787206e+03 2.418449663306e+03 2.703707222041e+02 2.273383155503e+03 2.662008387405e+02 1.987982246349e+02 2.447835844741e+03 2.236848629128e+02 2.398107845906e+03 2.472669293360e+03 2.200360557101e+02 2.452634825467e+03 1.177756394390e+02 2.413515849326e+03 2.422824549000e+03 1.673817219712e+02 2.464528151520e+03 2.459862152710e+03 2.522121389744e+03 2.489022111644e+03 9.295995219695e+01 7.674330220841e+02 1.731723527687e+03 7.856565811829e+02 1.357778614998e+03 4.663864929931e+02 2.093828542542e+03 2.081621803447e+03 3.735631986660e+02 4.537143986840e+02 2.749981024419e+02 2.276441859224e+03 9.508335168854e+02 1.739342276151e+03 1.951871333628e+03 2.308210251740e+03 1.548887084267e+03 9.687926791563e+02 3.044664726465e+02 1.609252568404e+03 2.392306152387e+03 1.585789504197e+03 4.418530923542e+02 2.109426030057e+03 1.296751249799e+02 9.799831851960e+02 1.642025161135e+03 9.161758431668e+02 3.824028571241e+02 1.125203172602e+03 2.140573972803e+03 3.488363218987e+02 1.389855261480e+02 9.265991891457e+02 1.660092308012e+03 2.024241182473e+03 5.526142758407e+02 2.677602909374e+02 2.387797789799e+03 1.626024977629e+02 2.204886118835e+03 1.436603772562e+03 1.069427962601e+03 2.021495968866e+02 2.389771696776e+03 2.210072802198e+03 2.316332110703e+03 3.185694373189e+02 2.345218527719e+03 3.251381951655e+02 2.264490713416e+03 2.370305151167e+03 2.140100249826e+03 2.386400297442e+03 2.202435132413e+03 2.371923658583e+03 1.349392064782e+03 2.183474131747e+03 3.892497019848e+02 1.490186978074e+02 2.427996958343e+03 6.340571698633e+01 2.482574003580e+03 1.868784559973e+03 7.376731945204e+02 2.041898295256e+03 7.494106747446e+02 1.666420764968e+03 2.380236105758e+03 2.413761210163e+03 2.095069766951e+02 1.642812863188e+02 8.645985487782e+01 7.063331708301e+02 2.348545501701e+02 2.333146158589e+03 1.155047160495e+02 9.369990476158e+02 1.193835050166e+03 2.263051868219e+03 6.168242200562e+02 1.104283963277e+03 6.215655839622e+02 2.335256369364e+02 2.367665395430e+03 1.964052440770e+03 6.076110738402e+02 2.352731924259e+02 1.261814137298e+02 1.568026732495e+02 2.329284584991e+03 1.972362990607e+03 1.596376598898e+03 1.974342563612e+03 4.919437322735e+02 2.056041245846e+03 1.675063106614e+03 1.691299355566e+02 5.257420730317e+02 2.076254380367e+03 2.231023458276e+03 3.392694536344e+02 2.105722446531e+03 2.123269860585e+03 2.361276591856e+03 9.980159078933e+02 2.445036583444e+03 6.887687736232e+02 1.748392167686e+03 1.168035053499e+02 1.252007765249e+02 7.561549117458e+02 2.065349250007e+03 1.260491969066e+02 1.117495445578e+02 1.860451252674e+03 2.171981403374e+03 9.442765507119e+02 5.384296873584e+02 1.776806571878e+02 4.289511543592e+02 2.033720434809e+02 7.447674823963e+02 7.923227496926e+01 5.587855470888e+02 2.442135398287e+03 1.737646883046e+03 2.104345647951e+03 3.167049311250e+02 7.611636716719e+02 2.374070473944e+03 1.493066715005e+02 5.267254645656e+02 7.008116341716e+02 2.135127715465e+03 4.441728667752e+02 2.187270691320e+03 5.308367869469e+02 2.478055878239e+03 3.788560251777e+02 1.153178492186e+02 2.460882858350e+03 4.693721439756e+02 3.254588338816e+02 2.416115985594e+03 1.075409226971e+02 2.455882609332e+03 2.226674110490e+03 2.705738475504e+02 2.418211147209e+03 2.911394832800e+02 2.884763020743e+02 1.071541739493e+02 2.455486710688e+03 4.867358963639e+02 5.138721983208e+02 1.823835628884e+03 4.785649038336e+02 2.475693464488e+03 4.934579675264e+02 5.794850653146e+02 5.326428762426e+02 1.310392195312e+02 6.220534948076e+02 1.905698558694e+03 2.908673854472e+02 2.268442535069e+03 3.441693897687e+02 8.574498274868e+01 2.478952984273e+03 2.043612631585e+03 2.334556603390e+03 2.147403154333e+02 4.212306110341e+02 3.066883604773e+02 1.894912152928e+03 3.631220773389e+02 2.466159863408e+03 7.704883823379e+02 2.426270157133e+03 9.024299670599e+01 2.474494780128e+03 2.290675416144e+03 6.917779281029e+01 5.389186277107e+02 1.921067285097e+03 2.482679456337e+03 2.256330964632e+03 2.331048538355e+03 1.061849265005e+02 2.381955157851e+03 2.261685493174e+02 2.283643830165e+03 3.094077552324e+02 7.283437155534e+02 1.889338943909e+03 1.716584296001e+02 6.421351357336e+02 3.683209260086e+02 8.676244259982e+01 2.385131167523e+03 1.925693928361e+02 2.244763498130e+03 1.884481107664e+03 2.408512958474e+02 1.807017237033e+03 1.209718152114e+02 2.308324516753e+03 2.423149918095e+03 4.240036845977e+01 2.345779640973e+03 2.069319080344e+02 2.920363768362e+02 2.268958620506e+03 2.513625588721e+03 2.804648987215e+02 2.194334720672e+03 2.313133478615e+02 2.353202369433e+03 5.940765184588e+01 2.402197113255e+03 2.494130636958e+03 2.102842929501e+03 2.345923289807e+03 2.490822960363e+03 4.931232524958e+02 2.319689637727e+03 2.057793748710e+02 2.523944411980e+03 1.650060469206e+02 2.414838791464e+03 1.814211737299e+02 6.274356765731e+02 1.269676312215e+02 2.491451636795e+03 2.228683344883e+03 4.461370055824e+02 1.527277418338e+02 2.476045996931e+02 2.439474065787e+03 6.374140388505e+02 2.522392999230e+03 6.052035336200e+02 1.946987451149e+03 2.288984395745e+03 2.401034703122e+03 2.257983443510e+03 2.094671250346e+02 2.974108203597e+02 4.158667059235e+02 2.226353299326e+03 8.481432981006e+01 1.781955374248e+02 8.089975822446e+01 1.985259995490e+02 2.189159900209e+03 2.426856470237e+03 2.444712027487e+03 2.489117915075e+03 2.404863353479e+03 2.355655581784e+02 3.224433915272e+02 9.118270839422e+01 6.234830172509e+02 5.301071338639e+02 6.527757909770e+02 6.714138118227e+02 4.450351750490e+02 1.910002798773e+03 1.319614814574e+02 1.086150663460e+02 2.383079920699e+03 2.026731192788e+03 2.452340970497e+03 1.460566346390e+02 2.185594259076e+03 1.747464754223e+03 1.889110479774e+03 8.081856748799e+02 1.752142909160e+03 1.536223189100e+03 1.323193439792e+03 1.209259388355e+03 1.054394953659e+03 1.208046743177e+03 1.917257343433e+03 1.724074325268e+03 5.711920363332e+02 1.080876554892e+03 5.687611864039e+02 1.309770434288e+03 1.219796754830e+03 1.345713896718e+03 1.414081437900e+03 7.603699332358e+02 1.426660374025e+03 7.403052949826e+02 1.339680507204e+03 1.585663077875e+03 9.959700095643e+02 1.057441226142e+03 1.895975983719e+03 9.902211496490e+02 1.121704845860e+03 8.986394190406e+02 1.928207916939e+03 1.883195245607e+03 1.521105161912e+03 8.656056964225e+02 1.879489589951e+03 1.941863234453e+03 1.366012419114e+03 1.412801325293e+03 1.564958409124e+03 9.794295907708e+02 1.951025134140e+03 1.535753444621e+03 1.139605844071e+03 6.227357466809e+02 6.041228789911e+02 2.004526845737e+02 8.914057671081e+02 1.317835065964e+03 1.558610837042e+03 1.628191947847e+03 1.555287388217e+03 1.165418815524e+03 2.355272696914e+03 1.865165456099e+03 1.404672025888e+02 1.113039711814e+03 1.804379531623e+03 1.395185144288e+03 1.635872929088e+03 2.226516069840e+02 1.683754319001e+03 2.071111872092e+02 2.368547465000e+03 1.177239932839e+03 6.789543435746e+02 1.637676381623e+03 2.134576543097e+03 8.817756140647e+02 4.249724501521e+02 1.932069044467e+03 6.215924566312e+02 2.118129990453e+03 1.765784063288e+03 9.201077546657e+02 2.423617332115e+03 1.548330742692e+02 1.164586803323e+03 3.462721048407e+02 1.531015244346e+03 2.165074262557e+03 2.414984739757e+03 2.392463834776e+03 6.291774191376e+02 2.298184543119e+03 2.034821565907e+03 5.337813907841e+02 1.801495461178e+03 1.074868438669e+03 6.006977564917e+02 1.492836993302e+02 1.967435506974e+03 1.313019385048e+02 4.997771185134e+02 2.434905154857e+03 1.217922819308e+02 2.870890194883e+02 9.191300767827e+02 2.284864372581e+03 1.756161847501e+03 1.035730053527e+03 1.916352355318e+03 7.873912942752e+02 4.467825659088e+02 7.876820277200e+02 7.105590064856e+02 7.232232914203e+02 1.014761242656e+02 2.173233176668e+03 2.151035948954e+02 4.352772182993e+02 5.927465719550e+02 6.705704748970e+02 5.187515898965e+02 1.599688849125e+02 2.314355799133e+03 8.971414168243e+02 8.742608992742e+02 1.784307145929e+02 2.043825187492e+03 2.392091958544e+03 1.951638366781e+03 5.192908731036e+02 2.000713910180e+03 2.204205045312e+03 1.529603911654e+03 9.668502508774e+02 2.101925546208e+03 2.423307400963e+03 1.950255066896e+02 2.147517585070e+03 2.028989542381e+02 1.339010794787e+03 8.180367906905e+02 6.038835126530e+02 2.068246983293e+03 4.254355421283e+02 2.102799484023e+03 2.050047997434e+03 3.066186458697e+02 6.054692763207e+01 2.297581561944e+02 1.868217779082e+03 2.185212867630e+03 4.320919450811e+02 4.223694036974e+02 2.094042045930e+03 3.568258254506e+02 1.355508815253e+03 3.936141050686e+02 1.722353888504e+03 1.006284299001e+03 4.305926766355e+02 1.197601907760e+03 2.265603804251e+03 2.522433077260e+02 4.776560084072e+02 1.893078601247e+03 1.250636910841e+02 2.126022934642e+03 2.126304813672e+03 9.464272326644e+01 2.255379961130e+03 2.051576200121e+03 2.445443273702e+03 6.728245060506e+02 2.234050456317e+03 1.821800272195e+03 2.243684092869e+03 2.251425095137e+03 2.215598140204e+03 2.280311320011e+03 2.276893916981e+03 1.640676000850e+03 2.146956032893e+03 2.038497298823e+03 1.917679073364e+03 2.116881260408e+03 2.425046282421e+02 4.139090198547e+02 3.137354554135e+02 3.684220211247e+02 8.005572287265e+02 1.689777926550e+03 5.270815615483e+02 3.331658313152e+02 2.424305664549e+03 2.357235774948e+03 2.103293253078e+02 1.267493969382e+02 2.293704820789e+03 1.666181567052e+03 4.348951064901e+02 1.704629550761e+03 2.733630439161e+02 1.701172538121e+03 3.368309984561e+02 4.100361888203e+02 2.062827679087e+03 2.454462029012e+02 6.655613359816e+02 2.248715148194e+02 6.264281554828e+02 1.953788365009e+03 2.048174853565e+02 2.096494124846e+03 6.751373117239e+02 1.846906120288e+03 2.486045948880e+03 8.248231077472e+02 4.514525795468e+02 2.308517425238e+03 5.738608410559e+02 2.360114392426e+03 1.972563523200e+03 2.477751954979e+02 3.183439425151e+02 1.609911371483e+02 2.274185039326e+03 1.961776337250e+03 2.390338094479e+02 2.193249062839e+03 9.455623012774e+02 1.743307785363e+03 1.851263465633e+03 3.879208177880e+02 2.006386233333e+03 2.645411610912e+02 1.832707013946e+03 2.266942406160e+03 4.416767103135e+02 6.038320579739e+02 7.762401602129e+02 6.888954992013e+01 2.705818409565e+02 1.877430729090e+03 1.861891386140e+03 7.956613687434e+01 2.415288236296e+03 2.323609090575e+03 1.777626219549e+03 5.161997230970e+01 2.589317949213e+02 1.389681407153e+02 2.427673612845e+03 2.155974762753e+03 2.456898282549e+03 2.185163094408e+03 1.085424136803e+03 4.418324270041e+02 2.007147833366e+03 8.571682993037e+01 2.306179789415e+02 2.243218288025e+03 7.186419021041e+02 6.874040679348e+02 2.348396565421e+03 1.265299006988e+03 1.687602105667e+03 7.640547285860e+01 1.802590639533e+03 2.292136373007e+03 2.363790674708e+03 2.838128766117e+02 1.623514581004e+02 3.238435671647e+02 1.825535612335e+02 3.831902282653e+02 6.704744643247e+02 1.930181757161e+03 4.805886254871e+02 2.489080867985e+03 2.221934196314e+03 2.463872660922e+03 2.324873714229e+02 2.005252991829e+03 3.999053937622e+02 1.552257070031e+03 2.496341814328e+03 2.348293630923e+03 2.344859704351e+03 6.449090939981e+02 1.782349966714e+02 7.853053270751e+01 1.822490976715e+02 5.430994151950e+02 2.072015064526e+03 2.084783072588e+03 2.053200689719e+03 2.193436880217e+03 2.095476498402e+03 2.322442581169e+03 2.024015048063e+03 2.265514574573e+03 1.181734527208e+03 7.456581605554e+02 3.042424724729e+02 1.984509499875e+03 2.185589807669e+03 2.403512125760e+03 9.118069716274e+02 2.286861637506e+03 3.225590059362e+02 1.865404165549e+03 7.191788644324e+02 1.543150254168e+03 1.510655649595e+02 2.268192732797e+03 2.246849238494e+03 1.846786146469e+03 2.731726434422e+02 2.180969541561e+03 2.487794042010e+03 1.725864148552e+03 2.038952799104e+03 2.013201066825e+03 2.374798503921e+03 2.487480933087e+03 2.098517870743e+03 1.892209511708e+02 2.106712916845e+03 2.237287454506e+03 7.276316295193e+02 8.640141779020e+02 6.384460408013e+01 3.880938711391e+02 6.859058609080e+02 5.103973091709e+02 1.691672632924e+03 1.452849396350e+03 3.142037493625e+02 1.969774477852e+03 2.471583481712e+03 5.876695764761e+02 2.166884151031e+03 1.773360575754e+03 3.114106020967e+02 3.964414082605e+02 4.501229426004e+02 2.380968192090e+03 5.741246605360e+01 2.352225085224e+03 2.164495670725e+03 2.397488018050e+03 2.908675209969e+02 2.391848039115e+03 2.096727348627e+03 6.698278921271e+02 1.980788257639e+03 5.832094863694e+02 2.219323698812e+03 6.912177692813e+02 3.881720730183e+02 8.364681792690e+02 3.759771958637e+02 2.068740762553e+03 2.345617602101e+03 6.041036398794e+02 3.011887099731e+02 2.170895426603e+02 2.163346927774e+03 2.045339390342e+03 3.726441066448e+02 1.795059418915e+02 1.935413832639e+03 2.017134785334e+03 1.678630595486e+03 4.411013552746e+02 2.381406375870e+03 1.664720183