<?xml version="1.0"?>
<!-- Time step: 146 | Time: 2.900000000000e+04 -->
<VTKFile type="UnstructuredGrid" version="0.1" byte_order="LittleEndian">
  <UnstructuredGrid>
    <Piece NumberOfPoints="6824" NumberOfCells="13330">
      <Points>
        <DataArray type="Float64" NumberOfComponents="3" format="ascii">
          0.000000000000e+00 0.000000000000e+00 0.000000000000e+00
          0.000000000000e+00 0.000000000000e+00 2.600000000000e-01
          5.300000000000e-01 0.000000000000e+00 2.600000000000e-01
          5.300000000000e-01 0.000000000000e+00 0.000000000000e+00
          0.000000000000e+00 0.000000000000e+00 4.999999999991e-03
          0.000000000000e+00 0.000000000000e+00 9.999999999982e-03
          0.000000000000e+00 0.000000000000e+00 1.499999999997e-02
          0.000000000000e+00 0.000000000000e+00 1.999999999996e-02
          0.000000000000e+00 0.000000000000e+00 2.499999999996e-02
          0.000000000000e+00 0.000000000000e+00 2.999999999995e-02
          0.000000000000e+00 0.000000000000e+00 3.499999999994e-02
          0.000000000000e+00 0.000000000000e+00 3.999999999992e-02
          0.000000000000e+00 0.000000000000e+00 4.499999999991e-02
          0.000000000000e+00 0.000000000000e+00 4.999999999990e-02
          0.000000000000e+00 0.000000000000e+00 5.499999999988e-02
          0.000000000000e+00 0.000000000000e+00 5.999999999987e-02
          0.000000000000e+00 0.000000000000e+00 6.499999999985e-02
          0.000000000000e+00 0.000000000000e+00 6.999999999983e-02
          0.000000000000e+00 0.000000000000e+00 7.499999999983e-02
          0.000000000000e+00 0.000000000000e+00 7.999999999981e-02
          0.000000000000e+00 0.000000000000e+00 8.499999999979e-02
          0.000000000000e+00 0.000000000000e+00 8.999999999978e-02
          0.000000000000e+00 0.000000000000e+00 9.499999999977e-02
          0.000000000000e+00 0.000000000000e+00 9.999999999975e-02
          0.000000000000e+00 0.000000000000e+00 1.049999999997e-01
          0.000000000000e+00 0.000000000000e+00 1.099999999997e-01
          0.000000000000e+00 0.000000000000e+00 1.149999999997e-01
          0.000000000000e+00 0.000000000000e+00 1.199999999997e-01
          0.000000000000e+00 0.000000000000e+00 1.249999999997e-01
          0.000000000000e+00 0.000000000000e+00 1.299999999997e-01
          0.000000000000e+00 0.000000000000e+00 1.349999999997e-01
          0.000000000000e+00 0.000000000000e+00 1.399999999997e-01
          0.000000000000e+00 0.000000000000e+00 1.449999999997e-01
          0.000000000000e+00 0.000000000000e+00 1.499999999997e-01
          0.000000000000e+00 0.000000000000e+00 1.549999999997e-01
          0.000000000000e+00 0.000000000000e+00 1.599999999997e-01
          0.000000000000e+00 0.000000000000e+00 1.649999999998e-01
          0.000000000000e+00 0.000000000000e+00 1.699999999998e-01
          0.000000000000e+00 0.000000000000e+00 1.749999999998e-01
          0.000000000000e+00 0.000000000000e+00 1.799999999998e-01
          0.000000000000e+00 0.000000000000e+00 1.849999999998e-01
          0.000000000000e+00 0.000000000000e+00 1.899999999998e-01
          0.000000000000e+00 0.000000000000e+00 1.949999999998e-01
          0.000000000000e+00 0.000000000000e+00 1.999999999999e-01
          0.000000000000e+00 0.000000000000e+00 2.049999999999e-01
          0.000000000000e+00 0.000000000000e+00 2.099999999999e-01
          0.000000000000e+00 0.000000000000e+00 2.149999999999e-01
          0.000000000000e+00 0.000000000000e+00 2.199999999999e-01
          0.000000000000e+00 0.000000000000e+00 2.249999999999e-01
          0.000000000000e+00 0.000000000000e+00 2.299999999999e-01
          0.000000000000e+00 0.000000000000e+00 2.349999999999e-01
          0.000000000000e+00 0.000000000000e+00 2.399999999999e-01
          0.000000000000e+00 0.000000000000e+00 2.450000000000e-01
          0.000000000000e+00 0.000000000000e+00 2.500000000000e-01
          0.000000000000e+00 0.000000000000e+00 2.550000000000e-01
          4.999999999991e-03 0.000000000000e+00 2.600000000000e-01
          9.999999999981e-03 0.000000000000e+00 2.600000000000e-01
          1.499999999997e-02 0.000000000000e+00 2.600000000000e-01
          1.999999999996e-02 0.000000000000e+00 2.600000000000e-01
          2.499999999995e-02 0.000000000000e+00 2.600000000000e-01
          2.999999999994e-02 0.000000000000e+00 2.600000000000e-01
          3.499999999993e-02 0.000000000000e+00 2.600000000000e-01
          3.999999999992e-02 0.000000000000e+00 2.600000000000e-01
          4.499999999992e-02 0.000000000000e+00 2.600000000000e-01
          4.999999999991e-02 0.000000000000e+00 2.600000000000e-01
          5.499999999990e-02 0.000000000000e+00 2.600000000000e-01
          5.999999999990e-02 0.000000000000e+00 2.600000000000e-01
          6.499999999989e-02 0.000000000000e+00 2.600000000000e-01
          6.999999999988e-02 0.000000000000e+00 2.600000000000e-01
          7.499999999986e-02 0.000000000000e+00 2.600000000000e-01
          7.999999999985e-02 0.000000000000e+00 2.600000000000e-01
          8.499999999983e-02 0.000000000000e+00 2.600000000000e-01
          8.999999999981e-02 0.000000000000e+00 2.600000000000e-01
          9.499999999980e-02 0.000000000000e+00 2.600000000000e-01
          9.999999999979e-02 0.000000000000e+00 2.600000000000e-01
          1.049999999998e-01 0.000000000000e+00 2.600000000000e-01
          1.099999999998e-01 0.000000000000e+00 2.600000000000e-01
          1.149999999997e-01 0.000000000000e+00 2.600000000000e-01
          1.199999999997e-01 0.000000000000e+00 2.600000000000e-01
          1.249999999997e-01 0.000000000000e+00 2.600000000000e-01
          1.299999999997e-01 0.000000000000e+00 2.600000000000e-01
          1.349999999997e-01 0.000000000000e+00 2.600000000000e-01
          1.399999999997e-01 0.000000000000e+00 2.600000000000e-01
          1.449999999997e-01 0.000000000000e+00 2.600000000000e-01
          1.499999999996e-01 0.000000000000e+00 2.600000000000e-01
          1.549999999996e-01 0.000000000000e+00 2.600000000000e-01
          1.599999999996e-01 0.000000000000e+00 2.600000000000e-01
          1.649999999996e-01 0.000000000000e+00 2.600000000000e-01
          1.699999999996e-01 0.000000000000e+00 2.600000000000e-01
          1.749999999996e-01 0.000000000000e+00 2.600000000000e-01
          1.799999999995e-01 0.000000000000e+00 2.600000000000e-01
          1.849999999995e-01 0.000000000000e+00 2.600000000000e-01
          1.899999999995e-01 0.000000000000e+00 2.600000000000e-01
          1.949999999995e-01 0.000000000000e+00 2.600000000000e-01
          1.999999999995e-01 0.000000000000e+00 2.600000000000e-01
          2.049999999995e-01 0.000000000000e+00 2.600000000000e-01
          2.099999999995e-01 0.000000000000e+00 2.600000000000e-01
          2.149999999994e-01 0.000000000000e+00 2.600000000000e-01
          2.199999999994e-01 0.000000000000e+00 2.600000000000e-01
          2.249999999994e-01 0.000000000000e+00 2.600000000000e-01
          2.299999999994e-01 0.000000000000e+00 2.600000000000e-01
          2.349999999994e-01 0.000000000000e+00 2.600000000000e-01
          2.399999999994e-01 0.000000000000e+00 2.600000000000e-01
          2.449999999993e-01 0.000000000000e+00 2.600000000000e-01
          2.499999999993e-01 0.000000000000e+00 2.600000000000e-01
          2.549999999993e-01 0.000000000000e+00 2.600000000000e-01
          2.599999999993e-01 0.000000000000e+00 2.600000000000e-01
          2.649999999993e-01 0.000000000000e+00 2.600000000000e-01
          2.699999999993e-01 0.000000000000e+00 2.600000000000e-01
          2.749999999993e-01 0.000000000000e+00 2.600000000000e-01
          2.799999999993e-01 0.000000000000e+00 2.600000000000e-01
          2.849999999993e-01 0.000000000000e+00 2.600000000000e-01
          2.899999999993e-01 0.000000000000e+00 2.600000000000e-01
          2.949999999993e-01 0.000000000000e+00 2.600000000000e-01
          2.999999999994e-01 0.000000000000e+00 2.600000000000e-01
          3.049999999994e-01 0.000000000000e+00 2.600000000000e-01
          3.099999999994e-01 0.000000000000e+00 2.600000000000e-01
          3.149999999994e-01 0.000000000000e+00 2.600000000000e-01
          3.199999999994e-01 0.000000000000e+00 2.600000000000e-01
          3.249999999994e-01 0.000000000000e+00 2.600000000000e-01
          3.299999999994e-01 0.000000000000e+00 2.600000000000e-01
          3.349999999995e-01 0.000000000000e+00 2.600000000000e-01
          3.399999999995e-01 0.000000000000e+00 2.600000000000e-01
          3.449999999995e-01 0.000000000000e+00 2.600000000000e-01
          3.499999999995e-01 0.000000000000e+00 2.600000000000e-01
          3.549999999995e-01 0.000000000000e+00 2.600000000000e-01
          3.599999999995e-01 0.000000000000e+00 2.600000000000e-01
          3.649999999996e-01 0.000000000000e+00 2.600000000000e-01
          3.699999999996e-01 0.000000000000e+00 2.600000000000e-01
          3.749999999996e-01 0.000000000000e+00 2.600000000000e-01
          3.799999999996e-01 0.000000000000e+00 2.600000000000e-01
          3.849999999996e-01 0.000000000000e+00 2.600000000000e-01
          3.899999999996e-01 0.000000000000e+00 2.600000000000e-01
          3.949999999996e-01 0.000000000000e+00 2.600000000000e-01
          3.999999999996e-01 0.000000000000e+00 2.600000000000e-01
          4.049999999996e-01 0.000000000000e+00 2.600000000000e-01
          4.099999999996e-01 0.000000000000e+00 2.600000000000e-01
          4.149999999997e-01 0.000000000000e+00 2.600000000000e-01
          4.199999999997e-01 0.000000000000e+00 2.600000000000e-01
          4.249999999997e-01 0.000000000000e+00 2.600000000000e-01
          4.299999999997e-01 0.000000000000e+00 2.600000000000e-01
          4.349999999997e-01 0.000000000000e+00 2.600000000000e-01
          4.399999999997e-01 0.000000000000e+00 2.600000000000e-01
          4.449999999997e-01 0.000000000000e+00 2.600000000000e-01
[...]
      <PointData Scalars="PRESSURE1">
        <DataArray type="Float64" Name="PRESSURE1" format="ascii">
          2.566590300000e+03 -5.032530000000e+01 5.395500000000e+01 2.604555000000e+03 2.516265000000e+03 2.465939700000e+03 2.415614400000e+03 2.365289100000e+03 2.314963800000e+03 2.264638500001e+03 2.214313200001e+03 2.163987900001e+03 2.113662600001e+03 2.063337300001e+03 2.013012000001e+03 1.962686700001e+03 1.912361400001e+03 1.862036100002e+03 1.811710800002e+03 1.761385500002e+03 1.711060200002e+03 1.660734900002e+03 1.610409600002e+03 1.560084300003e+03 1.509759000003e+03 1.459433700003e+03 1.409108400003e+03 1.358783100003e+03 1.308457800003e+03 1.258132500003e+03 1.207807200003e+03 1.157481900003e+03 1.107156600003e+03 1.056831300003e+03 1.006506000003e+03 9.561807000026e+02 9.058554000024e+02 8.555301000022e+02 8.052048000022e+02 7.548795000020e+02 7.045542000019e+02 6.542289000018e+02 6.039036000017e+02 5.535783000015e+02 5.032530000014e+02 4.529277000013e+02 4.026024000011e+02 3.522771000010e+02 3.019518000009e+02 2.516265000007e+02 2.013012000006e+02 1.509759000005e+02 1.006506000004e+02 5.032530000026e+01 1.810262739710e-10 -4.640053954854e+01 -4.309931985715e+01 -4.023052897445e+01 -3.769838737453e+01 -3.540321420162e+01 -3.328836005455e+01 -3.131719756524e+01 -2.946663208858e+01 -2.770467383580e+01 -2.603181564243e+01 -2.443527080888e+01 -2.290490668250e+01 -2.143422860380e+01 -2.001688031883e+01 -1.864458233932e+01 -1.731962347243e+01 -1.603699317633e+01 -1.478914367125e+01 -1.357728833078e+01 -1.239849142835e+01 -1.124864691577e+01 -1.012629304432e+01 -9.029491063953e+00 -7.955851845342e+00 -6.904796718605e+00 -5.874981145148e+00 -4.866015446776e+00 -3.874870151456e+00 -2.901610284345e+00 -1.944375487067e+00 -1.001996913086e+00 -7.518448811186e-02 8.374982549607e-01 1.737231877941e+00 2.625002076819e+00 3.501212879958e+00 4.365806170442e+00 5.220777687337e+00 6.064891812918e+00 6.899738936737e+00 7.726246337173e+00 8.544309895230e+00 9.354057539500e+00 1.015640038998e+01 1.095127394542e+01 1.173991823786e+01 1.252210230905e+01 1.329789876204e+01 1.406816280717e+01 1.483318043772e+01 1.559253781398e+01 1.634735927113e+01 1.709730761766e+01 1.784300683688e+01 1.858448401491e+01 1.932201729966e+01 2.005599232006e+01 2.078642112508e+01 2.151344245981e+01 2.223740526030e+01 2.295830387383e+01 2.367638787039e+01 2.439196982422e+01 2.510482990177e+01 2.581536523346e+01 2.652383238861e+01 2.723019421209e+01 2.793439358320e+01 2.863674895546e+01 2.933742497842e+01 3.003627542504e+01 3.073367492469e+01 3.142955113651e+01 3.212403583491e+01 3.281719535685e+01 3.350912365274e+01 3.419986832268e+01 3.488953947295e+01 3.557819430702e+01 3.626590000056e+01 3.695261605173e+01 3.763855377451e+01 3.832363214767e+01 3.900807744740e+01 3.969173107542e+01 4.037477404878e+01 4.105720407448e+01 4.173907881273e+01 4.242041624137e+01 4.310124536547e+01 4.378165295077e+01 4.446164192390e+01 4.514125194809e+01 4.582051353612e+01 4.649944715539e+01 4.717812071490e+01 4.785651450444e+01 4.853469520908e+01 4.921266082250e+01 4.989045281901e+01 5.056810493857e+01 5.124563281121e+01 5.192305808295e+01 5.260041209472e+01 5.327772006167e+01 1.030050000000e+02 1.520549999998e+02 2.011049999998e+02 2.501549999997e+02 2.992049999996e+02 3.482549999995e+02 3.973049999995e+02 4.463549999993e+02 4.954049999991e+02 5.444549999990e+02 5.935049999989e+02 6.425549999988e+02 6.916049999986e+02 7.406549999985e+02 7.897049999983e+02 8.387549999981e+02 8.878049999980e+02 9.368549999979e+02 9.859049999978e+02 1.034954999998e+03 1.084004999998e+03 1.133054999997e+03 1.182104999997e+03 1.231154999997e+03 1.280204999997e+03 1.329254999997e+03 1.378304999997e+03 1.427354999997e+03 1.476404999997e+03 1.525454999997e+03 1.574504999997e+03 1.623554999998e+03 1.672604999998e+03 1.721654999998e+03 1.770704999998e+03 1.819754999998e+03 1.868804999998e+03 1.917854999998e+03 1.966904999998e+03 2.015954999999e+03 2.065004999999e+03 2.114054999999e+03 2.163104999999e+03 2.212154999999e+03 2.261204999999e+03 2.310254999999e+03 2.359304999999e+03 2.408354999999e+03 2.457405000000e+03 2.506455000000e+03 2.555505000000e+03 2.603891212320e+03 2.603227450383e+03 2.602563739862e+03 2.601900103637e+03 2.601236569859e+03 2.600573159314e+03 2.599909903355e+03 2.599246821803e+03 2.598583954503e+03 2.597921328239e+03 2.597258969041e+03 2.596596898109e+03 2.595935150384e+03 2.595273786419e+03 2.594612791744e+03 2.593952239970e+03 2.593292143741e+03 2.592632579867e+03 2.591973575803e+03 2.591315145023e+03 2.590657314550e+03 2.590000211842e+03 2.589343860376e+03 2.588688253088e+03 2.588033581493e+03 2.587379733430e+03 2.586726961599e+03 2.586075067085e+03 2.585424422228e+03 2.584774909720e+03 2.584126713201e+03 2.583479852214e+03 2.582834494324e+03 2.582190684343e+03 2.581548438884e+03 2.580907996157e+03 2.580269634356e+03 2.579633213684e+03 2.578998923632e+03 2.578366887854e+03 2.577737535385e+03 2.577110799605e+03 2.576486725176e+03 2.575866046982e+03 2.575248663290e+03 2.574634404492e+03 2.574024166283e+03 2.573417917083e+03 2.572816136252e+03 2.572218783343e+03 2.571627228589e+03 2.571040593412e+03 2.570460223369e+03 2.569886195748e+03 2.569319400322e+03 2.568760368440e+03 2.568209376683e+03 2.567667935477e+03 2.567137030857e+03 2.566616839369e+03 2.566109794399e+03 2.565617607836e+03 2.565142428756e+03 2.564686740453e+03 2.564255137470e+03 2.563852535771e+03 2.563493066795e+03 2.563198346326e+03 2.563003514205e+03 2.562993143072e+03 2.563106948576e+03 2.563288049680e+03 2.563481984334e+03 2.563688713301e+03 2.563870168563e+03 2.564041868791e+03 2.564200974285e+03 2.564348204418e+03 2.564484452833e+03 2.564607891194e+03 2.564722359182e+03 2.564829583332e+03 2.564931435226e+03 2.565028143633e+03 2.565120834711e+03 2.565210033505e+03 2.565295978269e+03 2.565378830416e+03 2.565459187018e+03 2.565536955856e+03 2.565612567706e+03 2.565686057324e+03 2.565757837459e+03 2.565827918463e+03 2.565896415613e+03 2.565963726534e+03 2.566029697821e+03 2.566094699460e+03 2.566158641349e+03 2.566221811733e+03 2.566284308818e+03 2.566346193504e+03 2.566407625858e+03 2.566468708785e+03 2.566529559956e+03 8.401480794530e+02 8.090574317150e+02 1.779663442512e+03 2.194048177640e+03 4.347786767322e+02 2.227866028965e+03 3.612607331889e+02 6.322919452728e+02 1.304034414028e+03 2.331376336595e+03 2.552071365224e+02 5.166494465827e+02 2.000151577247e+03 5.730331756238e+02 1.931662219708e+03 2.322597225926e+03 2.596366119092e+02 6.381840076171e+02 2.343187166260e+03 2.681278014701e+02 8.082157661962e+02 6.187841744498e+02 1.940494045348e+03 2.176447890389e+03 3.837657753787e+02 1.985849669732e+03 5.799178356756e+02 6.476644204942e+02 2.004529876360e+03 1.800308362057e+03 4.858080066609e+02 8.209783221384e+02 1.739458136625e+03 1.811987990689e+03 3.142538262631e+02 8.536920741765e+02 1.982129668983e+03 2.332138235615e+03 5.157869703621e+02 1.982490957022e+03 6.327395006684e+02 7.067389033140e+02 1.852652201090e+03 2.001795560696e+03 2.099925935347e+03 2.098887555263e+03 2.995098471498e+02 2.801546236253e+02 2.066158662446e+03 2.121013578456e+03 2.137259872389e+03 4.543278674194e+02 5.028994607715e+02 2.181242270447e+03 2.121856366179e+03 3.638392716896e+02 4.026561561319e+02 2.203378968696e+03 3.205761120521e+02 2.340060845225e+03 4.569106841354e+02 2.270038831725e+03 1.731251300673e+02 2.214483588380e+03 2.349724404703e+03 2.418320269026e+03 3.027052464456e+02 2.306798523198e+03 2.988296000189e+02 2.012861294213e+02 2.447735294358e+03 2.251468656986e+02 2.431098839515e+03 2.472583083911e+03 2.535733039084e+02 2.485746099509e+03 1.194806821614e+02 2.413483232163e+03 2.456697214236e+03 2.011681329141e+02 2.464497176154e+03 2.493717221509e+03 2.522094194298e+03 2.489008644267e+03 1.269707809834e+02 7.963193304979e+02 1.758908329738e+03 7.959308154651e+02 1.366610528541e+03 4.865945089830e+02 2.107551090182e+03 2.099865096062e+03 3.909419640898e+02 4.726533077160e+02 2.935756944619e+02 2.290065804405e+03 9.584893324246e+02 1.768318163076e+03 1.954702007251e+03 2.330376262491e+03 1.578890626298e+03 9.751626692127e+02 3.179675050358e+02 1.640664234665e+03 2.414970977374e+03 1.601547277239e+03 4.644625138396e+02 2.118529155114e+03 1.429769370724e+02 9.851323949456e+02 1.662613014218e+03 9.321936350297e+02 3.976286865382e+02 1.156664050883e+03 2.160946475053e+03 3.604744494137e+02 1.515231034487e+02 9.302601071428e+02 1.692586641277e+03 2.028151273286e+03 5.796175962331e+02 2.791691413646e+02 2.411783308260e+03 1.731946415383e+02 2.230936232239e+03 1.460975823556e+03 1.082647434921e+03 2.129870525596e+02 2.414650189866e+03 2.238427379875e+03 2.343101472704e+03 3.286444708689e+02 2.371144427117e+03 3.340831894759e+02 2.292174802686e+03 2.369775297393e+03 2.167571376965e+03 2.385935653443e+03 2.226566125688e+03 2.371554840441e+03 1.350656876077e+03 2.184882619568e+03 4.152268159008e+02 1.710789658728e+02 2.430948852511e+03 7.922224797916e+01 2.482247152396e+03 1.893359057896e+03 7.411272297684e+02 2.071789819800e+03 7.612068668727e+02 1.666447617321e+03 2.379958823380e+03 2.443374043331e+03 2.158693255606e+02 1.923223325964e+02 9.600822085484e+01 7.193346272997e+02 2.580261980885e+02 2.336203108952e+03 1.214120606820e+02 9.697387800679e+02 1.227311263064e+03 2.262815779487e+03 6.196662622215e+02 1.105624890164e+03 6.522033047258e+02 2.620668644038e+02 2.397969049825e+03 1.996193853292e+03 6.388771573997e+02 2.646128872099e+02 1.351471666400e+02 1.837956329161e+02 2.329088792757e+03 2.005562688611e+03 1.596375117259e+03 1.974297399185e+03 5.058818709270e+02 2.078485045143e+03 1.708442522571e+03 1.834889978148e+02 5.292829342164e+02 2.082478690462e+03 2.233154531004e+03 3.642832566586e+02 2.105627211534e+03 2.155819080957e+03 2.361111574231e+03 1.031341254686e+03 2.463457308128e+03 6.955674078512e+02 1.781610786367e+03 1.237344560521e+02 1.305195782363e+02 7.870573709834e+02 2.094433378715e+03 1.343016471436e+02 1.392802247956e+02 1.893827485887e+03 2.202227149336e+03 9.455887126759e+02 5.692782068768e+02 1.822550784231e+02 4.310155542143e+02 2.346677812090e+02 7.778650773682e+02 1.081918494566e+02 5.925144227571e+02 2.472999818695e+03 1.737627157900e+03 2.137873919339e+03 3.192034592938e+02 7.673059178717e+02 2.405837653813e+03 1.530565082464e+02 5.597367351599e+02 7.343487223643e+02 2.135083912054e+03 4.776846452505e+02 2.220541151579e+03 5.595059741454e+02 2.509862571698e+03 4.120740374377e+02 1.389371890107e+02 2.460660400214e+03 4.766426435985e+02 3.563971425190e+02 2.448373077263e+03 1.331660122270e+02 2.454995803658e+03 2.226562424712e+03 2.976948025187e+02 2.446590829121e+03 3.246103448240e+02 2.901345254155e+02 1.313857331652e+02 2.454869632635e+03 4.944564675881e+02 5.223284386299e+02 1.854019011889e+03 5.109419349101e+02 2.475493699908e+03 4.991799852976e+02 6.110114579071e+02 5.646324344953e+02 1.633073925723e+02 6.280488998235e+02 1.905715624882e+03 3.154371269156e+02 2.270618515322e+03 3.745971062038e+02 1.121938003095e+02 2.478159740096e+03 2.043498374331e+03 2.334267857805e+03 2.405704091683e+02 4.518947046706e+02 3.384846726797e+02 1.894820079807e+03 3.922450488577e+02 2.494979970724e+03 8.043777179404e+02 2.426115728637e+03 1.151717794957e+02 2.473506975397e+03 2.324357120305e+03 7.351597688481e+01 5.438116530685e+02 1.952271917111e+03 2.515254288658e+03 2.256181344622e+03 2.331012905238e+03 1.391280326259e+02 2.415677223109e+03 2.583147303153e+02 2.283543124844e+03 3.162211190208e+02 7.332573180313e+02 1.919883364742e+03 1.727029988056e+02 6.753453737762e+02 3.733786774388e+02 1.180780410080e+02 2.385212272992e+03 2.171520779968e+02 2.277584595500e+03 1.884420663274e+03 2.432486849493e+02 1.806963008398e+03 1.234369369375e+02 2.341548450780e+03 2.456437219458e+03 4.452510024275e+01 2.345762034137e+03 2.089274452011e+02 3.159938341854e+02 2.272145128190e+03 2.513505046090e+03 2.809988737107e+02 2.228337420971e+03 2.348483719413e+02 2.385902539373e+03 9.120638185409e+01 2.402148816497e+03 2.527429304727e+03 2.102627715880e+03 2.345798844663e+03 2.490779703901e+03 5.226320962333e+02 2.319626173612e+03 2.062947185782e+02 2.523887417586e+03 1.666295146956e+02 2.414753697754e+03 2.149554283712e+02 6.615283788104e+02 1.283259967365e+02 2.525129120930e+03 2.228627875704e+03 4.757284184034e+02 1.548572039482e+02 2.507276621951e+02 2.439458523871e+03 6.695322375387e+02 2.522296727370e+03 6.123564221229e+02 1.976871706446e+03 2.288851400527e+03 2.400969657793e+03 2.290205174506e+03 2.421845128971e+02 3.006004312256e+02 4.477948142132e+02 2.257903090434e+03 8.523864904129e+01 2.122484393438e+02 8.219899982990e+01 2.015766735801e+02 2.189069868633e+03 2.426742213347e+03 2.444666150646e+03 2.523177428469e+03 2.438930046566e+03 2.383450115203e+02 3.551867748093e+02 1.249558210270e+02 6.324302150540e+02 5.399537389508e+02 6.607268360374e+02 6.802684778210e+02 4.558605005656e+02 1.937826291726e+03 1.658163929546e+02 1.094750217835e+02 2.382944536228e+03 2.026579913268e+03 2.486441872685e+03 1.464831413191e+02 2.185484667086e+03 1.766259879913e+03 1.906726974762e+03 8.278252260277e+02 1.769070278168e+03 1.547328792202e+03 1.337814839798e+03 1.221195390249e+03 1.081115326356e+03 1.231093764340e+03 1.936590292583e+03 1.729715306593e+03 5.880399444497e+02 1.101003998519e+03 5.922371672793e+02 1.331100441538e+03 1.235646357951e+03 1.371998453914e+03 1.427476379197e+03 7.876545961211e+02 1.446547544591e+03 7.611048177077e+02 1.344535654837e+03 1.611724251002e+03 1.005020198300e+03 1.074735948699e+03 1.911376683818e+03 1.000592193585e+03 1.146559860748e+03 9.101034131236e+02 1.948667204576e+03 1.889658815580e+03 1.543559485885e+03 8.891846358491e+02 1.893272578139e+03 1.952258634882e+03 1.396484397831e+03 1.444285830562e+03 1.568171550480e+03 1.007940963311e+03 1.972683095072e+03 1.563271265060e+03 1.147325937604e+03 6.472956157340e+02 6.187820263121e+02 2.219380824806e+02 9.215371838176e+02 1.350340463464e+03 1.587482646303e+03 1.633122144806e+03 1.556290555675e+03 1.195145811670e+03 2.361207766214e+03 1.873807631307e+03 1.566867148131e+02 1.118562338350e+03 1.830261041908e+03 1.424493193156e+03 1.650209195556e+03 2.434562353177e+02 1.708440971653e+03 2.269132359684e+02 2.377373763849e+03 1.180076282898e+03 7.050650316243e+02 1.661210125639e+03 2.141304526720e+03 8.941476358823e+02 4.463337576805e+02 1.940581263564e+03 6.496358548868e+02 2.139587277187e+03 1.767100633893e+03 9.338670381374e+02 2.437136744977e+03 1.720970380348e+02 1.197055321581e+03 3.625992595345e+02 1.531350530980e+03 2.175323003615e+03 2.431810634670e+03 2.413223375282e+03 6.543277023598e+02 2.319055784816e+03 2.059200677115e+03 5.452002113283e+02 1.825092128728e+03 1.078192330638e+03 6.126740619286e+02 1.615800142772e+02 1.990937015182e+03 1.414152014538e+02 5.256587965560e+02 2.445434795571e+03 1.401359298091e+02 3.091288047628e+02 9.503639565972e+02 2.290963939816e+03 1.777689075886e+03 1.068427158942e+03 1.939064468150e+03 8.024578329278e+02 4.613047114123e+02 7.951176489102e+02 7.405514139935e+02 7.342787710960e+02 1.135506353771e+02 2.200097510876e+03 2.307529154541e+02 4.468264981120e+02 6.054832063408e+02 6.845489053326e+02 5.467069910577e+02 1.714560594735e+02 2.334024282683e+03 9.289827813903e+02 8.824178480347e+02 2.010473408588e+02 2.061121069594e+03 2.394864552889e+03 1.976951669000e+03 5.374362509596e+02 2.001088205000e+03 2.225127222529e+03 1.561909994907e+03 9.989682430615e+02 2.102900718453e+03 2.445030220237e+03 2.040322830674e+02 2.170783999604e+03 2.125807182793e+02 1.372536875469e+03 8.249562087732e+02 6.172168186701e+02 2.094351963145e+03 4.341381241711e+02 2.129421795998e+03 2.050542265905e+03 3.172586826719e+02 7.174509821021e+01 2.449769069525e+02 1.895051277634e+03 2.214241285757e+03 4.597889426632e+02 4.455119827033e+02 2.122507340013e+03 3.678978065699e+02 1.355648428733e+03 4.207042075349e+02 1.752401700700e+03 1.008604964929e+03 4.400230372367e+02 1.198808609634e+03 2.265192270258e+03 2.670296753325e+02 4.908510519119e+02 1.893503267106e+03 1.381037921990e+02 2.127538787221e+03 2.155934644228e+03 1.056481548541e+02 2.260865836022e+03 2.079502567885e+03 2.470976157088e+03 6.832931667030e+02 2.263667543417e+03 1.854552243467e+03 2.266691991674e+03 2.278019835114e+03 2.240569569111e+03 2.279925448437e+03 2.276453489457e+03 1.640671443847e+03 2.150025841361e+03 2.065730961360e+03 1.950436402263e+03 2.116626333897e+03 2.564035791780e+02 4.220086220630e+02 3.365379286591e+02 3.814598374252e+02 8.322141657623e+02 1.720355310579e+03 5.294252628564e+02 3.477858492444e+02 2.424069799859e+03 2.356915361683e+03 2.184090054942e+02 1.552930018145e+02 2.318992042463e+03 1.695774564226e+03 4.614005129746e+02 1.704757247669e+03 2.876797169210e+02 1.729418866718e+03 3.634255687456e+02 4.201228181893e+02 2.062662945223e+03 2.761918478039e+02 6.950050064222e+02 2.333457868688e+02 6.553254715657e+02 1.954100506432e+03 2.136050511264e+02 2.096994877499e+03 7.056943691048e+02 1.878403635705e+03 2.485768874046e+03 8.286308154706e+02 4.757272021701e+02 2.332918414081e+03 6.031955914299e+02 2.385717587519e+03 1.972541015996e+03 2.546879482609e+02 3.308934182126e+02 1.747768820815e+02 2.304408569240e+03 1.988775819682e+03 2.511183589270e+02 2.215717548294e+03 9.479021521112e+02 1.775912146255e+03 1.851313491336e+03 4.125850851007e+02 2.009539853124e+03 2.926124943750e+02 1.861307872108e+03 2.266495887045e+03 4.670509570592e+02 6.075333597189e+02 7.808727435081e+02 8.265107071452e+01 2.755712005631e+02 1.909587449460e+03 1.861850222170e+03 9.359669472348e+01 2.444057928856e+03 2.347090667032e+03 1.807208550903e+03 6.818554459922e+01 2.629242365479e+02 1.621187592805e+02 2.428800204912e+03 2.184464601018e+03 2.456332721146e+03 2.185065115346e+03 1.118741702193e+03 4.701682630553e+02 2.007068850167e+03 9.859291318751e+01 2.358080632882e+02 2.258813996171e+03 7.205652403440e+02 6.915057064391e+02 2.347805943098e+03 1.299308401760e+03 1.718758719283e+03 9.751132593977e+01 1.802554587000e+03 2.291644479979e+03 2.391715869516e+03 3.016816842694e+02 1.910229116570e+02 3.514715845894e+02 1.883404909224e+02 3.900268374881e+02 7.033568192221e+02 1.930136805182e+03 4.813868119706e+02 2.511284817961e+03 2.249160192029e+03 2.463476523112e+03 2.601093429073e+02 2.037897478892e+03 4.134887397058e+02 1.583225955512e+03 2.497053656514e+03 2.375390388868e+03 2.372409173094e+03 6.547986164912e+02 2.054657537749e+02 1.009121853428e+02 2.126209539127e+02 5.474562255878e+02 2.071991063955e+03 2.114903183612e+03 2.086047196307e+03 2.193191234477e+03 2.128625372323e+03 2.353693714451e+03 2.056415596849e+03 2.265469658138e+03 1.182158688827e+03 7.781959325941e+02 3.329694974835e+02 1.984368879997e+03 2.185269262116e+03 2.402785481230e+03 9.453006767699e+02 2.286530435804e+03 3.309082208165e+02 1.865326296183e+03 7.257820407882e+02 1.576068555331e+03 1.819794273625e+02 2.269064224379e+03 2.246663751870e+03 1.846725556634e+03 2.862196319963e+02 2.180776774278e+03 2.517612804718e+03 1.725839217176e+03 2.038885872315e+03 2.044683376517e+03 2.374594831517e+03 2.510618962326e+03 2.098446472991e+03 2.190603196736e+02 2.137457207038e+03 2.242022565259e+03 7.590588671658e+02 8.704367360799e+02 7.840670891069e+01 3.939930669990e+02 6.912755015408e+02 5.194021710996e+02 1.723404925447e+03 1.486714927696e+03 3.376451816651e+02 1.969687781617e+03 2.495526868362e+03 5.916298856369e+02 2.171988591697e+03 1.804785758426e+03 3.209563091119e+02 4.276208652007e+02 4.555552446400e+02 2.410279297264e+03 6.382007752267e+01 2.383134207711e+03 2.168361059979e+03 2.424030182951e+03 3.171047249199e+02 2.391163412687e+03 2.099803469278e+03 6.758198030514e+02 2.014607913572e+03 5.934865498418e+02 2.220885969550e+03 7.006474698324e+02 3.911761024351e+02 8.694477183103e+02 4.045632506060e+02 2.068529999424e+03 2.374004989860e+03 6.055707631476e+02 3.350393092363e+02 2.305342171638e+02 2.163275776566e+03 2.077163616611e+03 4.040951546008e+02 1.836562334826e+02 1.935378295042e+03 2.016962733516e+03 1.678621863125e+03 4.699296625142e+02 2.380759095831e+03 1.697568703786e+03 2.247696636203e+