<?xml version="1.0"?>
<!-- Time step: 113 | Time: 1.900000000000e+04 -->
<VTKFile type="UnstructuredGrid" version="0.1" byte_order="LittleEndian">
  <UnstructuredGrid>
    <Piece NumberOfPoints="6824" NumberOfCells="13330">
      <Points>
        <DataArray type="Float64" NumberOfComponents="3" format="ascii">
          0.000000000000e+00 0.000000000000e+00 0.000000000000e+00
          0.000000000000e+00 0.000000000000e+00 2.600000000000e-01
          5.300000000000e-01 0.000000000000e+00 2.600000000000e-01
          5.300000000000e-01 0.000000000000e+00 0.000000000000e+00
          0.000000000000e+00 0.000000000000e+00 4.999999999991e-03
          0.000000000000e+00 0.000000000000e+00 9.999999999982e-03
          0.000000000000e+00 0.000000000000e+00 1.499999999997e-02
          0.000000000000e+00 0.000000000000e+00 1.999999999996e-02
          0.000000000000e+00 0.000000000000e+00 2.499999999996e-02
          0.000000000000e+00 0.000000000000e+00 2.999999999995e-02
          0.000000000000e+00 0.000000000000e+00 3.499999999994e-02
          0.000000000000e+00 0.000000000000e+00 3.999999999992e-02
          0.000000000000e+00 0.000000000000e+00 4.499999999991e-02
          0.000000000000e+00 0.000000000000e+00 4.999999999990e-02
          0.000000000000e+00 0.000000000000e+00 5.499999999988e-02
          0.000000000000e+00 0.000000000000e+00 5.999999999987e-02
          0.000000000000e+00 0.000000000000e+00 6.499999999985e-02
          0.000000000000e+00 0.000000000000e+00 6.999999999983e-02
          0.000000000000e+00 0.000000000000e+00 7.499999999983e-02
          0.000000000000e+00 0.000000000000e+00 7.999999999981e-02
          0.000000000000e+00 0.000000000000e+00 8.499999999979e-02
          0.000000000000e+00 0.000000000000e+00 8.999999999978e-02
          0.000000000000e+00 0.000000000000e+00 9.499999999977e-02
          0.000000000000e+00 0.000000000000e+00 9.999999999975e-02
          0.000000000000e+00 0.000000000000e+00 1.049999999997e-01
          0.000000000000e+00 0.000000000000e+00 1.099999999997e-01
          0.000000000000e+00 0.000000000000e+00 1.149999999997e-01
          0.000000000000e+00 0.000000000000e+00 1.199999999997e-01
          0.000000000000e+00 0.000000000000e+00 1.249999999997e-01
          0.000000000000e+00 0.000000000000e+00 1.299999999997e-01
          0.000000000000e+00 0.000000000000e+00 1.349999999997e-01
          0.000000000000e+00 0.000000000000e+00 1.399999999997e-01
          0.000000000000e+00 0.000000000000e+00 1.449999999997e-01
          0.000000000000e+00 0.000000000000e+00 1.499999999997e-01
          0.000000000000e+00 0.000000000000e+00 1.549999999997e-01
          0.000000000000e+00 0.000000000000e+00 1.599999999997e-01
          0.000000000000e+00 0.000000000000e+00 1.649999999998e-01
          0.000000000000e+00 0.000000000000e+00 1.699999999998e-01
          0.000000000000e+00 0.000000000000e+00 1.749999999998e-01
          0.000000000000e+00 0.000000000000e+00 1.799999999998e-01
          0.000000000000e+00 0.000000000000e+00 1.849999999998e-01
          0.000000000000e+00 0.000000000000e+00 1.899999999998e-01
          0.000000000000e+00 0.000000000000e+00 1.949999999998e-01
          0.000000000000e+00 0.000000000000e+00 1.999999999999e-01
          0.000000000000e+00 0.000000000000e+00 2.049999999999e-01
          0.000000000000e+00 0.000000000000e+00 2.099999999999e-01
          0.000000000000e+00 0.000000000000e+00 2.149999999999e-01
          0.000000000000e+00 0.000000000000e+00 2.199999999999e-01
          0.000000000000e+00 0.000000000000e+00 2.249999999999e-01
          0.000000000000e+00 0.000000000000e+00 2.299999999999e-01
          0.000000000000e+00 0.000000000000e+00 2.349999999999e-01
          0.000000000000e+00 0.000000000000e+00 2.399999999999e-01
          0.000000000000e+00 0.000000000000e+00 2.450000000000e-01
          0.000000000000e+00 0.000000000000e+00 2.500000000000e-01
          0.000000000000e+00 0.000000000000e+00 2.550000000000e-01
          4.999999999991e-03 0.000000000000e+00 2.600000000000e-01
          9.999999999981e-03 0.000000000000e+00 2.600000000000e-01
          1.499999999997e-02 0.000000000000e+00 2.600000000000e-01
          1.999999999996e-02 0.000000000000e+00 2.600000000000e-01
          2.499999999995e-02 0.000000000000e+00 2.600000000000e-01
          2.999999999994e-02 0.000000000000e+00 2.600000000000e-01
          3.499999999993e-02 0.000000000000e+00 2.600000000000e-01
          3.999999999992e-02 0.000000000000e+00 2.600000000000e-01
          4.499999999992e-02 0.000000000000e+00 2.600000000000e-01
          4.999999999991e-02 0.000000000000e+00 2.600000000000e-01
          5.499999999990e-02 0.000000000000e+00 2.600000000000e-01
          5.999999999990e-02 0.000000000000e+00 2.600000000000e-01
          6.499999999989e-02 0.000000000000e+00 2.600000000000e-01
          6.999999999988e-02 0.000000000000e+00 2.600000000000e-01
          7.499999999986e-02 0.000000000000e+00 2.600000000000e-01
          7.999999999985e-02 0.000000000000e+00 2.600000000000e-01
          8.499999999983e-02 0.000000000000e+00 2.600000000000e-01
          8.999999999981e-02 0.000000000000e+00 2.600000000000e-01
          9.499999999980e-02 0.000000000000e+00 2.600000000000e-01
          9.999999999979e-02 0.000000000000e+00 2.600000000000e-01
          1.049999999998e-01 0.000000000000e+00 2.600000000000e-01
          1.099999999998e-01 0.000000000000e+00 2.600000000000e-01
          1.149999999997e-01 0.000000000000e+00 2.600000000000e-01
          1.199999999997e-01 0.000000000000e+00 2.600000000000e-01
          1.249999999997e-01 0.000000000000e+00 2.600000000000e-01
          1.299999999997e-01 0.000000000000e+00 2.600000000000e-01
          1.349999999997e-01 0.000000000000e+00 2.600000000000e-01
          1.399999999997e-01 0.000000000000e+00 2.600000000000e-01
          1.449999999997e-01 0.000000000000e+00 2.600000000000e-01
          1.499999999996e-01 0.000000000000e+00 2.600000000000e-01
          1.549999999996e-01 0.000000000000e+00 2.600000000000e-01
          1.599999999996e-01 0.000000000000e+00 2.600000000000e-01
          1.649999999996e-01 0.000000000000e+00 2.600000000000e-01
          1.699999999996e-01 0.000000000000e+00 2.600000000000e-01
          1.749999999996e-01 0.000000000000e+00 2.600000000000e-01
          1.799999999995e-01 0.000000000000e+00 2.600000000000e-01
          1.849999999995e-01 0.000000000000e+00 2.600000000000e-01
          1.899999999995e-01 0.000000000000e+00 2.600000000000e-01
          1.949999999995e-01 0.000000000000e+00 2.600000000000e-01
          1.999999999995e-01 0.000000000000e+00 2.600000000000e-01
          2.049999999995e-01 0.000000000000e+00 2.600000000000e-01
          2.099999999995e-01 0.000000000000e+00 2.600000000000e-01
          2.149999999994e-01 0.000000000000e+00 2.600000000000e-01
          2.199999999994e-01 0.000000000000e+00 2.600000000000e-01
          2.249999999994e-01 0.000000000000e+00 2.600000000000e-01
          2.299999999994e-01 0.000000000000e+00 2.600000000000e-01
          2.349999999994e-01 0.000000000000e+00 2.600000000000e-01
          2.399999999994e-01 0.000000000000e+00 2.600000000000e-01
          2.449999999993e-01 0.000000000000e+00 2.600000000000e-01
          2.499999999993e-01 0.000000000000e+00 2.600000000000e-01
          2.549999999993e-01 0.000000000000e+00 2.600000000000e-01
          2.599999999993e-01 0.000000000000e+00 2.600000000000e-01
          2.649999999993e-01 0.000000000000e+00 2.600000000000e-01
          2.699999999993e-01 0.000000000000e+00 2.600000000000e-01
          2.749999999993e-01 0.000000000000e+00 2.600000000000e-01
          2.799999999993e-01 0.000000000000e+00 2.600000000000e-01
          2.849999999993e-01 0.000000000000e+00 2.600000000000e-01
          2.899999999993e-01 0.000000000000e+00 2.600000000000e-01
          2.949999999993e-01 0.000000000000e+00 2.600000000000e-01
          2.999999999994e-01 0.000000000000e+00 2.600000000000e-01
          3.049999999994e-01 0.000000000000e+00 2.600000000000e-01
          3.099999999994e-01 0.000000000000e+00 2.600000000000e-01
          3.149999999994e-01 0.000000000000e+00 2.600000000000e-01
          3.199999999994e-01 0.000000000000e+00 2.600000000000e-01
          3.249999999994e-01 0.000000000000e+00 2.600000000000e-01
          3.299999999994e-01 0.000000000000e+00 2.600000000000e-01
          3.349999999995e-01 0.000000000000e+00 2.600000000000e-01
          3.399999999995e-01 0.000000000000e+00 2.600000000000e-01
          3.449999999995e-01 0.000000000000e+00 2.600000000000e-01
          3.499999999995e-01 0.000000000000e+00 2.600000000000e-01
          3.549999999995e-01 0.000000000000e+00 2.600000000000e-01
          3.599999999995e-01 0.000000000000e+00 2.600000000000e-01
          3.649999999996e-01 0.000000000000e+00 2.600000000000e-01
          3.699999999996e-01 0.000000000000e+00 2.600000000000e-01
          3.749999999996e-01 0.000000000000e+00 2.600000000000e-01
          3.799999999996e-01 0.000000000000e+00 2.600000000000e-01
          3.849999999996e-01 0.000000000000e+00 2.600000000000e-01
          3.899999999996e-01 0.000000000000e+00 2.600000000000e-01
          3.949999999996e-01 0.000000000000e+00 2.600000000000e-01
          3.999999999996e-01 0.000000000000e+00 2.600000000000e-01
          4.049999999996e-01 0.000000000000e+00 2.600000000000e-01
          4.099999999996e-01 0.000000000000e+00 2.600000000000e-01
          4.149999999997e-01 0.000000000000e+00 2.600000000000e-01
          4.199999999997e-01 0.000000000000e+00 2.600000000000e-01
          4.249999999997e-01 0.000000000000e+00 2.600000000000e-01
          4.299999999997e-01 0.000000000000e+00 2.600000000000e-01
          4.349999999997e-01 0.000000000000e+00 2.600000000000e-01
          4.399999999997e-01 0.000000000000e+00 2.600000000000e-01
          4.449999999997e-01 0.000000000000e+00 2.600000000000e-01
[...]
      <PointData Scalars="PRESSURE1">
        <DataArray type="Float64" Name="PRESSURE1" format="ascii">
          2.566590300000e+03 -5.032530000000e+01 1.962000000000e+01 2.570220000000e+03 2.516265000000e+03 2.465939700000e+03 2.415614400000e+03 2.365289100000e+03 2.314963800000e+03 2.264638500001e+03 2.214313200001e+03 2.163987900001e+03 2.113662600001e+03 2.063337300001e+03 2.013012000001e+03 1.962686700001e+03 1.912361400001e+03 1.862036100002e+03 1.811710800002e+03 1.761385500002e+03 1.711060200002e+03 1.660734900002e+03 1.610409600002e+03 1.560084300003e+03 1.509759000003e+03 1.459433700003e+03 1.409108400003e+03 1.358783100003e+03 1.308457800003e+03 1.258132500003e+03 1.207807200003e+03 1.157481900003e+03 1.107156600003e+03 1.056831300003e+03 1.006506000003e+03 9.561807000026e+02 9.058554000024e+02 8.555301000022e+02 8.052048000022e+02 7.548795000020e+02 7.045542000019e+02 6.542289000018e+02 6.039036000017e+02 5.535783000015e+02 5.032530000014e+02 4.529277000013e+02 4.026024000011e+02 3.522771000010e+02 3.019518000009e+02 2.516265000007e+02 2.013012000006e+02 1.509759000005e+02 1.006506000004e+02 5.032530000026e+01 1.810262739710e-10 -4.695531720449e+01 -4.418194406670e+01 -4.182935279464e+01 -3.980475446842e+01 -3.800880628028e+01 -3.638337653073e+01 -3.489116627226e+01 -3.350817075781e+01 -3.220442521684e+01 -3.097792333508e+01 -2.981683259942e+01 -2.871185658430e+01 -2.765472826686e+01 -2.664227355773e+01 -2.566652581338e+01 -2.472884051599e+01 -2.382314138258e+01 -2.294534030976e+01 -2.209566042095e+01 -2.127131634880e+01 -2.046925613880e+01 -1.968839026636e+01 -1.892859855319e+01 -1.818513809132e+01 -1.745944155886e+01 -1.674940809824e+01 -1.605546484389e+01 -1.537555837183e+01 -1.470957058199e+01 -1.405679641383e+01 -1.341484423210e+01 -1.278462951490e+01 -1.216636091675e+01 -1.155838918250e+01 -1.096030690239e+01 -1.037090823387e+01 -9.791585749912e+00 -9.220045639675e+00 -8.657496991367e+00 -8.103205901295e+00 -7.556055442311e+00 -7.016216664222e+00 -6.483861452462e+00 -5.958201597097e+00 -5.439419249832e+00 -4.926470493878e+00 -4.419691650300e+00 -3.919112115775e+00 -3.424006381540e+00 -2.934210125142e+00 -2.450243693498e+00 -1.971036813458e+00 -1.497057261833e+00 -1.027739949667e+00 -5.631517856251e-01 -1.030729522529e-01 3.528487196420e-01 8.045295256123e-01 1.252049150911e+00 1.695740506739e+00 2.135517693332e+00 2.571610473842e+00 3.004357064108e+00 3.433375923558e+00 3.859140273486e+00 4.281940925742e+00 4.701657467411e+00 5.118140747149e+00 5.531800041835e+00 5.942829519470e+00 6.350935266936e+00 6.756674575479e+00 7.159871520622e+00 7.560698484571e+00 7.959223959909e+00 8.355566690688e+00 8.749770877665e+00 9.141996919908e+00 9.532318994210e+00 9.920829888033e+00 1.030741777401e+01 1.069247128707e+01 1.107579846118e+01 1.145783520150e+01 1.183823835611e+01 1.221735885058e+01 1.259517639332e+01 1.297179918512e+01 1.334725035322e+01 1.372158076708e+01 1.409497049930e+01 1.446741691907e+01 1.483900116562e+01 1.520978514379e+01 1.557981005065e+01 1.594922833470e+01 1.631798941750e+01 1.668624685470e+01 1.705399270874e+01 1.742132383136e+01 1.778831929326e+01 1.815501549414e+01 1.852146385382e+01 1.888773969677e+01 1.925390386852e+01 6.866999999997e+01 1.177199999998e+02 1.667699999998e+02 2.158199999997e+02 2.648699999996e+02 3.139199999995e+02 3.629699999995e+02 4.120199999993e+02 4.610699999991e+02 5.101199999990e+02 5.591699999989e+02 6.082199999988e+02 6.572699999986e+02 7.063199999985e+02 7.553699999983e+02 8.044199999981e+02 8.534699999980e+02 9.025199999979e+02 9.515699999978e+02 1.000619999998e+03 1.049669999998e+03 1.098719999997e+03 1.147769999997e+03 1.196819999997e+03 1.245869999997e+03 1.294919999997e+03 1.343969999997e+03 1.393019999997e+03 1.442069999997e+03 1.491119999997e+03 1.540169999997e+03 1.589219999998e+03 1.638269999998e+03 1.687319999998e+03 1.736369999998e+03 1.785419999998e+03 1.834469999998e+03 1.883519999998e+03 1.932569999998e+03 1.981619999999e+03 2.030669999999e+03 2.079719999999e+03 2.128769999999e+03 2.177819999999e+03 2.226869999999e+03 2.275919999999e+03 2.324969999999e+03 2.374019999999e+03 2.423070000000e+03 2.472120000000e+03 2.521170000000e+03 2.569895726326e+03 2.569571559073e+03 2.569247604899e+03 2.568923959780e+03 2.568600743062e+03 2.568278045163e+03 2.567956003264e+03 2.567634709030e+03 2.567314345172e+03 2.566995041983e+03 2.566676932692e+03 2.566360135718e+03 2.566044842829e+03 2.565731377100e+03 2.565419720983e+03 2.565110292913e+03 2.564803243692e+03 2.564499087031e+03 2.564198109812e+03 2.563900557469e+03 2.563606811307e+03 2.563317989114e+03 2.563034690401e+03 2.562757354667e+03 2.562488651949e+03 2.562228486346e+03 2.561982131381e+03 2.561750186131e+03 2.561546675393e+03 2.561384378479e+03 2.561311404924e+03 2.561334016941e+03 2.561440051269e+03 2.561562283495e+03 2.561703644891e+03 2.561857587786e+03 2.561998630116e+03 2.562136693855e+03 2.562273001607e+03 2.562411037860e+03 2.562540299443e+03 2.562664120572e+03 2.562785669410e+03 2.562895541733e+03 2.562999458314e+03 2.563105716237e+03 2.563207450783e+03 2.563304740826e+03 2.563397695822e+03 2.563489392605e+03 2.563577011506e+03 2.563662204533e+03 2.563744687217e+03 2.563825044405e+03 2.563903253273e+03 2.563979452945e+03 2.564053863387e+03 2.564126478033e+03 2.564197369926e+03 2.564266764789e+03 2.564334601889e+03 2.564400981182e+03 2.564466006405e+03 2.564529788116e+03 2.564592337394e+03 2.564653804477e+03 2.564714193102e+03 2.564773525327e+03 2.564831918719e+03 2.564889436983e+03 2.564945988665e+03 2.565001753071e+03 2.565056695589e+03 2.565110874319e+03 2.565164262440e+03 2.565216938901e+03 2.565268924815e+03 2.565320276404e+03 2.565371013964e+03 2.565421123230e+03 2.565470662432e+03 2.565519638107e+03 2.565568125118e+03 2.565616076400e+03 2.565663558853e+03 2.565710599324e+03 2.565757207662e+03 2.565803386543e+03 2.565849206242e+03 2.565894639246e+03 2.565939740785e+03 2.565984506086e+03 2.566028993867e+03 2.566073201946e+03 2.566117144838e+03 2.566160887597e+03 2.566204402369e+03 2.566247750801e+03 2.566290916547e+03 2.566333948521e+03 2.566376863292e+03 2.566419671095e+03 2.566462399633e+03 2.566505066789e+03 2.566547693179e+03 8.148625945358e+02 7.947929323507e+02 1.757091410878e+03 2.188987148974e+03 4.110221923234e+02 2.206271146698e+03 3.470259070970e+02 6.213900466988e+02 1.285615633087e+03 2.329467777669e+03 2.312778788997e+02 5.065110658352e+02 1.973929464081e+03 5.634456425595e+02 1.904180668318e+03 2.322393869503e+03 2.345164771592e+02 6.295069112192e+02 2.343759076237e+03 2.416655786662e+02 7.998245807927e+02 6.107599028142e+02 1.911151920962e+03 2.176700018330e+03 3.556375404807e+02 1.955603403758e+03 5.732214173359e+02 6.177033593291e+02 2.004640449169e+03 1.769372279886e+03 4.565485064314e+02 8.159301225528e+02 1.739153754675e+03 1.779899641590e+03 3.065902638773e+02 8.213505660391e+02 1.982278186191e+03 2.303121948404e+03 4.856120455480e+02 1.982632922746e+03 6.281124705312e+02 6.751483327791e+02 1.852708186972e+03 1.971226676844e+03 2.069446531009e+03 2.099066561070e+03 2.693081121722e+02 2.742522515747e+02 2.035051889505e+03 2.121175622054e+03 2.105578691341e+03 4.492300871499e+02 4.715287660427e+02 2.150256834458e+03 2.121986534480e+03 3.599609233267e+02 3.705241352965e+02 2.170943295270e+03 3.166868698229e+02 2.340202634970e+03 4.241277139284e+02 2.270157632584e+03 1.413320843247e+02 2.214551205334e+03 2.317376767062e+03 2.418449551612e+03 2.703707383418e+02 2.273383146688e+03 2.662008524595e+02 1.987983166047e+02 2.447835757411e+03 2.236849221993e+02 2.398107831926e+03 2.472669218416e+03 2.200360621312e+02 2.452634812520e+03 1.177757012941e+02 2.413515820271e+03 2.422824544209e+03 1.673817264184e+02 2.464528124207e+03 2.459862147677e+03 2.522121365916e+03 2.489022099790e+03 9.295995484355e+01 7.674330607437e+02 1.731723508400e+03 7.856568757431e+02 1.357778552025e+03 4.663866727917e+02 2.093827888046e+03 2.081621694704e+03 3.735634265113e+02 4.537146019992e+02 2.749983096033e+02 2.276441020689e+03 9.508336923162e+02 1.739342257407e+03 1.951870965287e+03 2.308210090569e+03 1.548887080273e+03 9.687927592687e+02 3.044667354416e+02 1.609252562588e+03 2.392305899807e+03 1.585789838275e+03 4.418532275329e+02 2.109425344493e+03 1.296753833656e+02 9.799832078883e+02 1.642025308202e+03 9.161761209549e+02 3.824031120912e+02 1.125203182841e+03 2.140574082557e+03 3.488365863476e+02 1.389857851379e+02 9.265991956522e+02 1.660092302988e+03 2.024240724561e+03 5.526143411566e+02 2.677605507770e+02 2.387797547811e+03 1.626027490934e+02 2.204886007099e+03 1.436603823224e+03 1.069428293744e+03 2.021498511146e+02 2.389771494668e+03 2.210072733452e+03 2.316331995826e+03 3.185696904171e+02 2.345218381510e+03 3.251384363839e+02 2.264490626839e+03 2.370304787161e+03 2.140100174670e+03 2.386399967367e+03 2.202434993701e+03 2.371923379487e+03 1.349392006758e+03 2.183473647865e+03 3.892497841610e+02 1.490188442612e+02 2.427996148804e+03 6.340595925310e+01 2.482573754367e+03 1.868784529723e+03 7.376732649806e+02 2.041898258916e+03 7.494109708928e+02 1.666420682280e+03 2.380235883923e+03 2.413761151553e+03 2.095071691040e+02 1.642813448187e+02 8.646009466362e+01 7.063334613199e+02 2.348546773750e+02 2.333145453662e+03 1.155048951854e+02 9.369990554870e+02 1.193835052419e+03 2.263051666827e+03 6.168243134377e+02 1.104283945465e+03 6.215656107723e+02 2.335256892864e+02 2.367665348967e+03 1.964052426139e+03 6.076110958357e+02 2.352732362575e+02 1.261816472494e+02 1.568027445113e+02 2.329284417826e+03 1.972362983042e+03 1.596376573063e+03 1.974342508952e+03 4.919440023460e+02 2.056041196925e+03 1.675063103805e+03 1.691301906579e+02 5.257422177725e+02 2.076253798459e+03 2.231022899274e+03 3.392695504748e+02 2.105722348947e+03 2.123269845537e+03 2.361276449857e+03 9.980159123351e+02 2.445035445069e+03 6.887690102938e+02 1.748392163359e+03 1.168037056794e+02 1.252009424978e+02 7.561549340076e+02 2.065349203724e+03 1.260494203235e+02 1.117496093689e+02 1.860451247599e+03 2.171981363605e+03 9.442765449690e+02 5.384297136913e+02 1.776808070057e+02 4.289512485873e+02 2.033720688296e+02 7.447674900486e+02 7.923232356643e+01 5.587855513784e+02 2.442135358316e+03 1.737646839474e+03 2.104345641417e+03 3.167050337008e+02 7.611638666193e+02 2.374070446478e+03 1.493067979673e+02 5.267254741620e+02 7.008116392750e+02 2.135127670660e+03 4.441728729630e+02 2.187270681831e+03 5.308368337310e+02 2.478055850179e+03 3.788560338105e+02 1.153179696267e+02 2.460882188405e+03 4.693723709773e+02 3.254588617018e+02 2.416115963368e+03 1.075410125941e+02 2.455882095564e+03 2.226673694917e+03 2.705739162514e+02 2.418211064394e+03 2.911394901275e+02 2.884763737529e+02 1.071542846437e+02 2.455486086082e+03 4.867361320535e+02 5.138724468890e+02 1.823835608435e+03 4.785649185136e+02 2.475693299839e+03 4.934581687113e+02 5.794850856429e+02 5.326428934833e+02 1.310392366163e+02 6.220537113842e+02 1.905698360884e+03 2.908674896331e+02 2.268441939144e+03 3.441694220603e+02 8.574506140357e+01 2.478952522249e+03 2.043612509209e+03 2.334556101548e+03 2.147404017857e+02 4.212306404035e+02 3.066883809660e+02 1.894912029219e+03 3.631221221343e+02 2.466159788416e+03 7.704883850055e+02 2.426270025646e+03 9.024309680271e+01 2.474494217710e+03 2.290675409821e+03 6.917793250396e+01 5.389188143591e+02 1.921067265568e+03 2.482679437323e+03 2.256330829465e+03 2.331048505783e+03 1.061849379315e+02 2.381955151600e+03 2.261685671958e+02 2.283643738105e+03 3.094079619684e+02 7.283438605216e+02 1.889338921674e+03 1.716584705043e+02 6.421351432956e+02 3.683211008897e+02 8.676246809925e+01 2.385130569052e+03 1.925694976641e+02 2.244763483784e+03 1.884480941806e+03 2.408513881238e+02 1.807017124507e+03 1.209719021498e+02 2.308324505797e+03 2.423149907158e+03 4.240044204141e+01 2.345779624934e+03 2.069319846026e+02 2.920364906831e+02 2.268957977010e+03 2.513625485730e+03 2.804649238353e+02 2.194334717715e+03 2.313134731639e+02 2.353202352676e+03 5.940767308429e+01 2.402197070230e+03 2.494130625928e+03 2.102842724336e+03 2.345923179982e+03 2.490822922427e+03 4.931232915594e+02 2.319689579846e+03 2.057793965478e+02 2.523944362294e+03 1.650061082108e+02 2.414838716643e+03 1.814211802172e+02 6.274356782092e+02 1.269676815110e+02 2.491451629837e+03 2.228683291872e+03 4.461370445763e+02 1.527278194736e+02 2.476047144889e+02 2.439474051997e+03 6.374140540810e+02 2.522392916238e+03 6.052037721171e+02 1.946987420923e+03 2.288984276297e+03 2.401034645378e+03 2.257983422926e+03 2.094671381802e+02 2.974109414492e+02 4.158667246205e+02 2.226353272298e+03 8.481434541921e+01 1.781955397059e+02 8.089980497888e+01 1.985261086539e+02 2.189159813149e+03 2.426856371130e+03 2.444711986983e+03 2.489117912171e+03 2.404863350720e+03 2.355656618150e+02 3.224434041212e+02 9.118271298576e+01 6.234832822745e+02 5.301073992204e+02 6.527760465619e+02 6.714140808798e+02 4.450354413273e+02 1.910002757695e+03 1.319614853653e+02 1.086150982602e+02 2.383079803165e+03 2.026731031496e+03 2.452340968051e+03 1.460566513011e+02 2.185594153861e+03 1.747464968683e+03 1.889110645986e+03 8.081858690782e+02 1.752143193385e+03 1.536223095746e+03 1.323193790877e+03 1.209259695651e+03 1.054395002275e+03 1.208046844371e+03 1.917257523038e+03 1.724074029527e+03 5.711922787637e+02 1.080876737805e+03 5.687613043562e+02 1.309770575610e+03 1.219797067695e+03 1.345713928313e+03 1.414081708343e+03 7.603699889447e+02 1.426660558900e+03 7.403054631077e+02 1.339680402838e+03 1.585663084396e+03 9.959702534013e+02 1.057441486850e+03 1.895975787327e+03 9.902214587461e+02 1.121704916742e+03 8.986397320303e+02 1.928208057948e+03 1.883194824878e+03 1.521105250997e+03 8.656058041933e+02 1.879489271001e+03 1.941862731287e+03 1.366012424043e+03 1.412801326687e+03 1.564958239939e+03 9.794296249792e+02 1.951025177762e+03 1.535753447037e+03 1.139605882970e+03 6.227358450748e+02 6.041231508585e+02 2.004528409402e+02 8.914057916758e+02 1.317835068566e+03 1.558610833254e+03 1.628191717487e+03 1.555287278209e+03 1.165418832576e+03 2.355271834357e+03 1.865165023977e+03 1.404674413004e+02 1.113039689885e+03 1.804379504694e+03 1.395185150948e+03 1.635873034991e+03 2.226517753419e+02 1.683754326932e+03 2.071113731141e+02 2.368546508389e+03 1.177239889421e+03 6.789544170406e+02 1.637676422112e+03 2.134575886184e+03 8.817759248124e+02 4.249726082484e+02 1.932068552944e+03 6.215925080187e+02 2.118129954448e+03 1.765783855757e+03 9.201080629286e+02 2.423616223762e+03 1.548333000229e+02 1.164586808941e+03 3.462723465145e+02 1.531015169584e+03 2.165073500468e+03 2.414983591835e+03 2.392462952296e+03 6.291775080647e+02 2.298183954668e+03 2.034821489815e+03 5.337816663195e+02 1.801495466044e+03 1.074868412702e+03 6.006980387581e+02 1.492839582384e+02 1.967435465335e+03 1.313021849933e+02 4.997771999425e+02 2.434904114270e+03 1.217924915267e+02 2.870891658706e+02 9.191300933194e+02 2.284863577808e+03 1.756161941806e+03 1.035730060321e+03 1.916352354620e+03 7.873915756489e+02 4.467828296826e+02 7.876822735017e+02 7.105590368804e+02 7.232235829797e+02 1.014763818111e+02 2.173233086578e+03 2.151038408476e+02 4.352774873628e+02 5.927468533851e+02 6.705707571952e+02 5.187516446776e+02 1.599691415858e+02 2.314355919013e+03 8.971414302021e+02 8.742611512875e+02 1.784308514303e+02 2.043824977060e+03 2.392091200196e+03 1.951638310650e+03 5.192910919658e+02 2.000713619634e+03 2.204204908507e+03 1.529603909533e+03 9.668502615005e+02 2.101925149232e+03 2.423307073822e+03 1.950257427659e+02 2.147517475751e+03 2.028991984848e+02 1.339010795681e+03 8.180370012419e+02 6.038837932590e+02 2.068246903019e+03 4.254357867324e+02 2.102799402643e+03 2.050047666456e+03 3.066189029349e+02 6.054718105224e+01 2.297584064557e+02 1.868217739996e+03 2.185212811261e+03 4.320920045106e+02 4.223695297211e+02 2.094041989847e+03 3.568260877755e+02 1.355508793548e+03 3.936141724990e+02 1.722353873887e+03 1.006284285160e+03 4.305929302017e+02 1.197601879743e+03 2.265603486216e+03 2.522435620257e+02 4.776562807381e+02 1.893078371449e+03 1.250639497619e+02 2.126022492072e+03 2.126304769144e+03 9.464297601331e+01 2.255379224943e+03 2.051576142361e+03 2.445443090482e+03 6.728247894145e+02 2.234050405253e+03 1.821800264557e+03 2.243683942949e+03 2.251424986090e+03 2.215598005030e+03 2.280311022168e+03 2.276893580650e+03 1.640675950711e+03 2.146955507425e+03 2.038497235372e+03 1.917679063840e+03 2.116881022858e+03 2.425048874502e+02 4.139092552886e+02 3.137355883473e+02 3.684222878079e+02 8.005572449202e+02 1.689777915272e+03 5.270816574115e+02 3.331660894225e+02 2.424305472720e+03 2.357235524098e+03 2.103295488016e+02 1.267494499251e+02 2.293704666900e+03 1.666181555203e+03 4.348951807162e+02 1.704629435040e+03 2.733633019443e+02 1.701172521922e+03 3.368310730847e+02 4.100364473672e+02 2.062827414137e+03 2.454462330095e+02 6.655613722301e+02 2.248717448264e+02 6.264281978543e+02 1.953788108683e+03 2.048177189126e+02 2.096493760382e+03 6.751373382255e+02 1.846906105511e+03 2.486045731048e+03 8.248231537275e+02 4.514526862050e+02 2.308517240757e+03 5.738608803183e+02 2.360114230835e+03 1.972563495617e+03 2.477754005761e+02 3.183442072428e+02 1.609913947730e+02 2.274184994816e+03 1.961776283847e+03 2.390340704911e+02 2.193248942369e+03 9.455622935016e+02 1.743307778771e+03 1.851263292601e+03 3.879209192885e+02 2.006385815278e+03 2.645412184531e+02 1.832706985355e+03 2.266942050230e+03 4.416768001944e+02 6.038321941161e+02 7.762402647102e+02 6.888980625377e+01 2.705820064737e+02 1.877430716955e+03 1.861891325926e+03 7.956639225783e+01 2.415288161905e+03 2.323608885950e+03 1.777626199610e+03 5.162020626909e+01 2.589319346622e+02 1.389682687234e+02 2.427672900751e+03 2.155974701082e+03 2.456897908901e+03 2.185162716252e+03 1.085424140529e+03 4.418324790138e+02 2.007147743503e+03 8.571708811703e+01 2.306181466630e+02 2.243217501046e+03 7.186419312726e+02 6.874041911350e+02 2.348396152785e+03 1.265299007600e+03 1.687602096053e+03 7.640563592163e+01 1.802590577760e+03 2.292135993604e+03 2.363790584561e+03 2.838130952301e+02 1.623515095047e+02 3.238436290420e+02 1.825537401618e+02 3.831904405813e+02 6.704744739244e+02 1.930181699137e+03 4.805886606088e+02 2.489080276704e+03 2.221934105631e+03 2.463872371102e+03 2.324874343580e+02 2.005252979812e+03 3.999056604858e+02 1.552257066081e+03 2.496341035202e+03 2.348293521044e+03 2.344859606723e+03 6.449093703547e+02 1.782350648071e+02 7.853067377886e+01 1.822491316149e+02 5.430995864678e+02 2.072015038428e+03 2.084783035949e+03 2.053200678358e+03 2.193436665277e+03 2.095476488858e+03 2.322442548429e+03 2.024015033829e+03 2.265514115683e+03 1.181734515498e+03 7.456581717592e+02 3.042425221229e+02 1.984509295742e+03 2.185589536366e+03 2.403511648254e+03 9.118069758809e+02 2.286861374503e+03 3.225592389685e+02 1.865404055552e+03 7.191790923484e+02 1.543150252381e+03 1.510655939576e+02 2.268192202814e+03 2.246849073733e+03 1.846786004923e+03 2.731729060906e+02 2.180969365180e+03 2.487793985401e+03 1.725864084589e+03 2.038952725035e+03 2.013201045744e+03 2.374798333168e+03 2.487480542255e+03 2.098517796294e+03 1.892209902537e+02 2.106712885461e+03 2.237286771607e+03 7.276316484928e+02 8.640143309160e+02 6.384485652346e+01 3.880940657980e+02 6.859060468784e+02 5.103975642222e+02 1.691672624822e+03 1.452849396252e+03 3.142038714601e+02 1.969774375413e+03 2.471583176012e+03 5.876697278084e+02 2.166883523187e+03 1.773360563505e+03 3.114108495861e+02 3.964414333757e+02 4.501231334555e+02 2.380968129307e+03 5.741265462351e+01 2.352225047501e+03 2.164495097027e+03 2.397487885061e+03 2.908676009819e+02 2.391847585707e+03 2.096726864524e+03 6.698281060781e+02 1.980788254170e+03 5.832097598484e+02 2.219323176739e+03 6.912180464612e+02 3.881721978953e+02 8.364681868873e+02 3.759772461577e+02 2.068740548683e+03 2.345617523383e+03 6.041036832750e+02 3.011887137945e+02 2.170898027129e+02 2.163346857218e+03 2.045339370986e+03 3.726441296350e+02 1.795060807889e+02 1.935413786867e+03 2.017134595075e+03 1.678630568359e+03 4.411014020226e+02 2.381405948072e+03 1.664720179