<?xml version="1.0"?>
<!-- Time step: 159 | Time: 2.900000000000e+04 -->
<VTKFile type="UnstructuredGrid" version="0.1" byte_order="LittleEndian">
  <UnstructuredGrid>
    <Piece NumberOfPoints="6824" NumberOfCells="13330">
      <Points>
        <DataArray type="Float64" NumberOfComponents="3" format="ascii">
          0.000000000000e+00 0.000000000000e+00 0.000000000000e+00
          0.000000000000e+00 0.000000000000e+00 2.600000000000e-01
          5.300000000000e-01 0.000000000000e+00 2.600000000000e-01
          5.300000000000e-01 0.000000000000e+00 0.000000000000e+00
          0.000000000000e+00 0.000000000000e+00 4.999999999991e-03
          0.000000000000e+00 0.000000000000e+00 9.999999999982e-03
          0.000000000000e+00 0.000000000000e+00 1.499999999997e-02
          0.000000000000e+00 0.000000000000e+00 1.999999999996e-02
          0.000000000000e+00 0.000000000000e+00 2.499999999996e-02
          0.000000000000e+00 0.000000000000e+00 2.999999999995e-02
          0.000000000000e+00 0.000000000000e+00 3.499999999994e-02
          0.000000000000e+00 0.000000000000e+00 3.999999999992e-02
          0.000000000000e+00 0.000000000000e+00 4.499999999991e-02
          0.000000000000e+00 0.000000000000e+00 4.999999999990e-02
          0.000000000000e+00 0.000000000000e+00 5.499999999988e-02
          0.000000000000e+00 0.000000000000e+00 5.999999999987e-02
          0.000000000000e+00 0.000000000000e+00 6.499999999985e-02
          0.000000000000e+00 0.000000000000e+00 6.999999999983e-02
          0.000000000000e+00 0.000000000000e+00 7.499999999983e-02
          0.000000000000e+00 0.000000000000e+00 7.999999999981e-02
          0.000000000000e+00 0.000000000000e+00 8.499999999979e-02
          0.000000000000e+00 0.000000000000e+00 8.999999999978e-02
          0.000000000000e+00 0.000000000000e+00 9.499999999977e-02
          0.000000000000e+00 0.000000000000e+00 9.999999999975e-02
          0.000000000000e+00 0.000000000000e+00 1.049999999997e-01
          0.000000000000e+00 0.000000000000e+00 1.099999999997e-01
          0.000000000000e+00 0.000000000000e+00 1.149999999997e-01
          0.000000000000e+00 0.000000000000e+00 1.199999999997e-01
          0.000000000000e+00 0.000000000000e+00 1.249999999997e-01
          0.000000000000e+00 0.000000000000e+00 1.299999999997e-01
          0.000000000000e+00 0.000000000000e+00 1.349999999997e-01
          0.000000000000e+00 0.000000000000e+00 1.399999999997e-01
          0.000000000000e+00 0.000000000000e+00 1.449999999997e-01
          0.000000000000e+00 0.000000000000e+00 1.499999999997e-01
          0.000000000000e+00 0.000000000000e+00 1.549999999997e-01
          0.000000000000e+00 0.000000000000e+00 1.599999999997e-01
          0.000000000000e+00 0.000000000000e+00 1.649999999998e-01
          0.000000000000e+00 0.000000000000e+00 1.699999999998e-01
          0.000000000000e+00 0.000000000000e+00 1.749999999998e-01
          0.000000000000e+00 0.000000000000e+00 1.799999999998e-01
          0.000000000000e+00 0.000000000000e+00 1.849999999998e-01
          0.000000000000e+00 0.000000000000e+00 1.899999999998e-01
          0.000000000000e+00 0.000000000000e+00 1.949999999998e-01
          0.000000000000e+00 0.000000000000e+00 1.999999999999e-01
          0.000000000000e+00 0.000000000000e+00 2.049999999999e-01
          0.000000000000e+00 0.000000000000e+00 2.099999999999e-01
          0.000000000000e+00 0.000000000000e+00 2.149999999999e-01
          0.000000000000e+00 0.000000000000e+00 2.199999999999e-01
          0.000000000000e+00 0.000000000000e+00 2.249999999999e-01
          0.000000000000e+00 0.000000000000e+00 2.299999999999e-01
          0.000000000000e+00 0.000000000000e+00 2.349999999999e-01
          0.000000000000e+00 0.000000000000e+00 2.399999999999e-01
          0.000000000000e+00 0.000000000000e+00 2.450000000000e-01
          0.000000000000e+00 0.000000000000e+00 2.500000000000e-01
          0.000000000000e+00 0.000000000000e+00 2.550000000000e-01
          4.999999999991e-03 0.000000000000e+00 2.600000000000e-01
          9.999999999981e-03 0.000000000000e+00 2.600000000000e-01
          1.499999999997e-02 0.000000000000e+00 2.600000000000e-01
          1.999999999996e-02 0.000000000000e+00 2.600000000000e-01
          2.499999999995e-02 0.000000000000e+00 2.600000000000e-01
          2.999999999994e-02 0.000000000000e+00 2.600000000000e-01
          3.499999999993e-02 0.000000000000e+00 2.600000000000e-01
          3.999999999992e-02 0.000000000000e+00 2.600000000000e-01
          4.499999999992e-02 0.000000000000e+00 2.600000000000e-01
          4.999999999991e-02 0.000000000000e+00 2.600000000000e-01
          5.499999999990e-02 0.000000000000e+00 2.600000000000e-01
          5.999999999990e-02 0.000000000000e+00 2.600000000000e-01
          6.499999999989e-02 0.000000000000e+00 2.600000000000e-01
          6.999999999988e-02 0.000000000000e+00 2.600000000000e-01
          7.499999999986e-02 0.000000000000e+00 2.600000000000e-01
          7.999999999985e-02 0.000000000000e+00 2.600000000000e-01
          8.499999999983e-02 0.000000000000e+00 2.600000000000e-01
          8.999999999981e-02 0.000000000000e+00 2.600000000000e-01
          9.499999999980e-02 0.000000000000e+00 2.600000000000e-01
          9.999999999979e-02 0.000000000000e+00 2.600000000000e-01
          1.049999999998e-01 0.000000000000e+00 2.600000000000e-01
          1.099999999998e-01 0.000000000000e+00 2.600000000000e-01
          1.149999999997e-01 0.000000000000e+00 2.600000000000e-01
          1.199999999997e-01 0.000000000000e+00 2.600000000000e-01
          1.249999999997e-01 0.000000000000e+00 2.600000000000e-01
          1.299999999997e-01 0.000000000000e+00 2.600000000000e-01
          1.349999999997e-01 0.000000000000e+00 2.600000000000e-01
          1.399999999997e-01 0.000000000000e+00 2.600000000000e-01
          1.449999999997e-01 0.000000000000e+00 2.600000000000e-01
          1.499999999996e-01 0.000000000000e+00 2.600000000000e-01
          1.549999999996e-01 0.000000000000e+00 2.600000000000e-01
          1.599999999996e-01 0.000000000000e+00 2.600000000000e-01
          1.649999999996e-01 0.000000000000e+00 2.600000000000e-01
          1.699999999996e-01 0.000000000000e+00 2.600000000000e-01
          1.749999999996e-01 0.000000000000e+00 2.600000000000e-01
          1.799999999995e-01 0.000000000000e+00 2.600000000000e-01
          1.849999999995e-01 0.000000000000e+00 2.600000000000e-01
          1.899999999995e-01 0.000000000000e+00 2.600000000000e-01
          1.949999999995e-01 0.000000000000e+00 2.600000000000e-01
          1.999999999995e-01 0.000000000000e+00 2.600000000000e-01
          2.049999999995e-01 0.000000000000e+00 2.600000000000e-01
          2.099999999995e-01 0.000000000000e+00 2.600000000000e-01
          2.149999999994e-01 0.000000000000e+00 2.600000000000e-01
          2.199999999994e-01 0.000000000000e+00 2.600000000000e-01
          2.249999999994e-01 0.000000000000e+00 2.600000000000e-01
          2.299999999994e-01 0.000000000000e+00 2.600000000000e-01
          2.349999999994e-01 0.000000000000e+00 2.600000000000e-01
          2.399999999994e-01 0.000000000000e+00 2.600000000000e-01
          2.449999999993e-01 0.000000000000e+00 2.600000000000e-01
          2.499999999993e-01 0.000000000000e+00 2.600000000000e-01
          2.549999999993e-01 0.000000000000e+00 2.600000000000e-01
          2.599999999993e-01 0.000000000000e+00 2.600000000000e-01
          2.649999999993e-01 0.000000000000e+00 2.600000000000e-01
          2.699999999993e-01 0.000000000000e+00 2.600000000000e-01
          2.749999999993e-01 0.000000000000e+00 2.600000000000e-01
          2.799999999993e-01 0.000000000000e+00 2.600000000000e-01
          2.849999999993e-01 0.000000000000e+00 2.600000000000e-01
          2.899999999993e-01 0.000000000000e+00 2.600000000000e-01
          2.949999999993e-01 0.000000000000e+00 2.600000000000e-01
          2.999999999994e-01 0.000000000000e+00 2.600000000000e-01
          3.049999999994e-01 0.000000000000e+00 2.600000000000e-01
          3.099999999994e-01 0.000000000000e+00 2.600000000000e-01
          3.149999999994e-01 0.000000000000e+00 2.600000000000e-01
          3.199999999994e-01 0.000000000000e+00 2.600000000000e-01
          3.249999999994e-01 0.000000000000e+00 2.600000000000e-01
          3.299999999994e-01 0.000000000000e+00 2.600000000000e-01
          3.349999999995e-01 0.000000000000e+00 2.600000000000e-01
          3.399999999995e-01 0.000000000000e+00 2.600000000000e-01
          3.449999999995e-01 0.000000000000e+00 2.600000000000e-01
          3.499999999995e-01 0.000000000000e+00 2.600000000000e-01
          3.549999999995e-01 0.000000000000e+00 2.600000000000e-01
          3.599999999995e-01 0.000000000000e+00 2.600000000000e-01
          3.649999999996e-01 0.000000000000e+00 2.600000000000e-01
          3.699999999996e-01 0.000000000000e+00 2.600000000000e-01
          3.749999999996e-01 0.000000000000e+00 2.600000000000e-01
          3.799999999996e-01 0.000000000000e+00 2.600000000000e-01
          3.849999999996e-01 0.000000000000e+00 2.600000000000e-01
          3.899999999996e-01 0.000000000000e+00 2.600000000000e-01
          3.949999999996e-01 0.000000000000e+00 2.600000000000e-01
          3.999999999996e-01 0.000000000000e+00 2.600000000000e-01
          4.049999999996e-01 0.000000000000e+00 2.600000000000e-01
          4.099999999996e-01 0.000000000000e+00 2.600000000000e-01
          4.149999999997e-01 0.000000000000e+00 2.600000000000e-01
          4.199999999997e-01 0.000000000000e+00 2.600000000000e-01
          4.249999999997e-01 0.000000000000e+00 2.600000000000e-01
          4.299999999997e-01 0.000000000000e+00 2.600000000000e-01
          4.349999999997e-01 0.000000000000e+00 2.600000000000e-01
          4.399999999997e-01 0.000000000000e+00 2.600000000000e-01
          4.449999999997e-01 0.000000000000e+00 2.600000000000e-01
[...]
      <PointData Scalars="PRESSURE1">
        <DataArray type="Float64" Name="PRESSURE1" format="ascii">
          2.566590300000e+03 -5.032530000000e+01 5.395500000000e+01 2.604555000000e+03 2.516265000000e+03 2.465939700000e+03 2.415614400000e+03 2.365289100000e+03 2.314963800000e+03 2.264638500001e+03 2.214313200001e+03 2.163987900001e+03 2.113662600001e+03 2.063337300001e+03 2.013012000001e+03 1.962686700001e+03 1.912361400001e+03 1.862036100002e+03 1.811710800002e+03 1.761385500002e+03 1.711060200002e+03 1.660734900002e+03 1.610409600002e+03 1.560084300003e+03 1.509759000003e+03 1.459433700003e+03 1.409108400003e+03 1.358783100003e+03 1.308457800003e+03 1.258132500003e+03 1.207807200003e+03 1.157481900003e+03 1.107156600003e+03 1.056831300003e+03 1.006506000003e+03 9.561807000026e+02 9.058554000024e+02 8.555301000022e+02 8.052048000022e+02 7.548795000020e+02 7.045542000019e+02 6.542289000018e+02 6.039036000017e+02 5.535783000015e+02 5.032530000014e+02 4.529277000013e+02 4.026024000011e+02 3.522771000010e+02 3.019518000009e+02 2.516265000007e+02 2.013012000006e+02 1.509759000005e+02 1.006506000004e+02 5.032530000026e+01 1.810262739710e-10 -4.640056984482e+01 -4.309937878814e+01 -4.023061569480e+01 -3.769850117677e+01 -3.540335434409e+01 -3.328852560441e+01 -3.131738742319e+01 -2.946684492126e+01 -2.770490834000e+01 -2.603207019676e+01 -2.443554359184e+01 -2.290519592711e+01 -2.143453224192e+01 -2.001719630905e+01 -1.864490874996e+01 -1.731995806415e+01 -1.603733373074e+01 -1.478948821437e+01 -1.357763472126e+01 -1.239883765026e+01 -1.124899116285e+01 -1.012663364092e+01 -9.029826510973e+00 -7.956180648062e+00 -6.905117613330e+00 -5.875292917396e+00 -4.866317158309e+00 -3.875161035791e+00 -2.901889701357e+00 -1.944642971449e+00 -1.002252149643e+00 -7.542727239381e-02 8.372679985844e-01 1.737014102156e+00 2.624796649182e+00 3.501019578772e+00 4.365624691000e+00 5.220607707983e+00 6.064732890467e+00 6.899590635905e+00 7.726108215660e+00 8.544181460906e+00 9.353938272203e+00 1.015628979325e+01 1.095117149308e+01 1.173982347315e+01 1.252201474095e+01 1.329781789447e+01 1.406808820211e+01 1.483311167377e+01 1.559247443402e+01 1.634730090785e+01 1.709725387711e+01 1.784295737775e+01 1.858443850113e+01 1.932197542089e+01 2.005595380028e+01 2.078638569412e+01 2.151340986276e+01 2.223737527362e+01 2.295827627815e+01 2.367636246946e+01 2.439194644777e+01 2.510480836970e+01 2.581534539605e+01 2.652381411657e+01 2.723017737752e+01 2.793437805828e+01 2.863673463470e+01 2.933741176873e+01 3.003626322836e+01 3.073366366513e+01 3.142954073704e+01 3.212402622728e+01 3.281718647793e+01 3.350911544570e+01 3.419986073448e+01 3.488953245693e+01 3.557818782015e+01 3.626589400380e+01 3.695261050558e+01 3.763854864861e+01 3.832362740951e+01 3.900807307362e+01 3.969172703737e+01 4.037477032504e+01 4.105720064395e+01 4.173907565670e+01 4.242041334214e+01 4.310124270662e+01 4.378165051895e+01 4.446163970610e+01 4.514124993270e+01 4.582051171267e+01 4.649944551414e+01 4.717811924825e+01 4.785651320429e+01 4.853469406935e+01 4.921265983711e+01 4.989045198309e+01 5.056810424823e+01 5.124563226302e+01 5.192305767409e+01 5.260041182324e+01 5.327771992631e+01 1.030050000000e+02 1.520549999998e+02 2.011049999998e+02 2.501549999997e+02 2.992049999996e+02 3.482549999995e+02 3.973049999995e+02 4.463549999993e+02 4.954049999991e+02 5.444549999990e+02 5.935049999989e+02 6.425549999988e+02 6.916049999986e+02 7.406549999985e+02 7.897049999983e+02 8.387549999981e+02 8.878049999980e+02 9.368549999979e+02 9.859049999978e+02 1.034954999998e+03 1.084004999998e+03 1.133054999997e+03 1.182104999997e+03 1.231154999997e+03 1.280204999997e+03 1.329254999997e+03 1.378304999997e+03 1.427354999997e+03 1.476404999997e+03 1.525454999997e+03 1.574504999997e+03 1.623554999998e+03 1.672604999998e+03 1.721654999998e+03 1.770704999998e+03 1.819754999998e+03 1.868804999998e+03 1.917854999998e+03 1.966904999998e+03 2.015954999999e+03 2.065004999999e+03 2.114054999999e+03 2.163104999999e+03 2.212154999999e+03 2.261204999999e+03 2.310254999999e+03 2.359304999999e+03 2.408354999999e+03 2.457405000000e+03 2.506455000000e+03 2.555505000000e+03 2.603891212423e+03 2.603227450590e+03 2.602563740173e+03 2.601900104052e+03 2.601236570379e+03 2.600573159941e+03 2.599909904090e+03 2.599246822645e+03 2.598583955456e+03 2.597921329303e+03 2.597258970218e+03 2.596596899400e+03 2.595935151791e+03 2.595273787944e+03 2.594612793389e+03 2.593952241735e+03 2.593292145629e+03 2.592632581878e+03 2.591973577937e+03 2.591315147280e+03 2.590657316930e+03 2.590000214344e+03 2.589343862997e+03 2.588688255826e+03 2.588033584342e+03 2.587379736384e+03 2.586726964650e+03 2.586075070224e+03 2.585424425441e+03 2.584774912992e+03 2.584126716512e+03 2.583479855541e+03 2.582834497638e+03 2.582190687610e+03 2.581548442066e+03 2.580907999206e+03 2.580269637212e+03 2.579633216282e+03 2.578998925898e+03 2.578366889699e+03 2.577737536697e+03 2.577110800265e+03 2.576486725055e+03 2.575866045901e+03 2.575248661066e+03 2.574634400941e+03 2.574024161154e+03 2.573417910120e+03 2.572816127159e+03 2.572218771825e+03 2.571627214264e+03 2.571040575973e+03 2.570460202463e+03 2.569886171100e+03 2.569319371748e+03 2.568760335941e+03 2.568209340561e+03 2.567667896684e+03 2.567136991210e+03 2.566616801943e+03 2.566109765191e+03 2.565617597407e+03 2.565142455402e+03 2.564686835115e+03 2.564255352903e+03 2.563852961581e+03 2.563493867589e+03 2.563199960717e+03 2.563007393605e+03 2.563004615313e+03 2.563125893002e+03 2.563302694102e+03 2.563484078492e+03 2.563679978983e+03 2.563855609397e+03 2.564025189784e+03 2.564184615005e+03 2.564333599584e+03 2.564472209870e+03 2.564598052286e+03 2.564714904286e+03 2.564824381748e+03 2.564928280641e+03 2.565026738506e+03 2.565120883820e+03 2.565211245947e+03 2.565298075589e+03 2.565381551732e+03 2.565462332765e+03 2.565540338392e+03 2.565616045653e+03 2.565689511320e+03 2.565761187969e+03 2.565831098298e+03 2.565899378808e+03 2.565966445443e+03 2.566032150698e+03 2.566096877291e+03 2.566160538802e+03 2.566223428773e+03 2.566285647643e+03 2.566347257826e+03 2.566408419605e+03 2.566469235674e+03 2.566529822701e+03 8.401480771616e+02 8.090573292543e+02 1.779663449638e+03 2.194046793045e+03 4.347786674708e+02 2.227866033356e+03 3.612605639177e+02 6.322915257492e+02 1.304034453236e+03 2.331370791729e+03 2.552071259343e+02 5.166490196499e+02 2.000151580121e+03 5.730326905366e+02 1.931662221913e+03 2.322601385464e+03 2.596366042045e+02 6.381834406692e+02 2.343181735973e+03 2.681277960506e+02 8.082150012132e+02 6.187836212660e+02 1.940494046781e+03 2.176454055500e+03 3.837657721385e+02 1.985849670882e+03 5.799173632328e+02 6.476644190756e+02 2.004536229377e+03 1.800308362867e+03 4.858080044942e+02 8.209779724035e+02 1.739458622916e+03 1.811987991205e+03 3.142534390034e+02 8.536920737939e+02 1.982132607865e+03 2.332138237308e+03 5.157869687501e+02 1.982493356249e+03 6.327392066029e+02 7.067389025660e+02 1.852651966167e+03 2.001795561751e+03 2.099925936476e+03 2.098890996358e+03 2.995098452170e+02 2.801542993438e+02 2.066158663361e+03 2.121016431247e+03 2.137259873152e+03 4.543275489182e+02 5.028994596748e+02 2.181242271439e+03 2.121858405841e+03 3.638390455653e+02 4.026561552612e+02 2.203378969247e+03 3.205758885113e+02 2.340062978872e+03 4.569106835610e+02 2.270040623683e+03 1.731251289185e+02 2.214484535362e+03 2.349724405301e+03 2.418322161630e+03 3.027052456054e+02 2.306798523470e+03 2.988295993070e+02 2.012859919801e+02 2.447736756543e+03 2.251467852684e+02 2.431098839922e+03 2.472584334461e+03 2.535733035742e+02 2.485746099881e+03 1.194805889355e+02 2.413483703147e+03 2.456697214376e+03 2.011681326805e+02 2.464497624336e+03 2.493717221654e+03 2.522094588005e+03 2.489008839109e+03 1.269707808432e+02 7.963193291463e+02 1.758908331942e+03 7.959302193671e+02 1.366608427647e+03 4.865944862631e+02 2.107551061330e+03 2.099865102125e+03 3.909419003608e+02 4.726532732973e+02 2.935756461522e+02 2.290065790320e+03 9.584883400953e+02 1.768318164482e+03 1.954706651196e+03 2.330376266264e+03 1.578890627106e+03 9.751618677931e+02 3.179672987856e+02 1.640664235214e+03 2.414970980875e+03 1.601547498312e+03 4.644625018403e+02 2.118528825725e+03 1.429767197040e+02 9.851318706700e+02 1.662613029360e+03 9.321936328420e+02 3.976285618584e+02 1.156664050809e+03 2.160946480271e+03 3.604741436959e+02 1.515228521060e+02 9.302599961186e+02 1.692586641635e+03 2.028158720984e+03 5.796175928858e+02 2.791688331337e+02 2.411783311579e+03 1.731943131497e+02 2.230936235078e+03 1.460975827450e+03 1.082647346715e+03 2.129867283665e+02 2.414650192963e+03 2.238427381799e+03 2.343101475216e+03 3.286441016399e+02 2.371144429917e+03 3.340827932214e+02 2.292174804865e+03 2.369777511128e+03 2.167571379231e+03 2.385939061208e+03 2.226566129319e+03 2.371559286802e+03 1.350657042280e+03 2.184892113865e+03 4.152268104980e+02 1.710789472425e+02 2.430948788074e+03 7.922212850902e+01 2.482250780831e+03 1.893359061994e+03 7.411270711374e+02 2.071789821114e+03 7.612065068393e+02 1.666445672089e+03 2.379962729048e+03 2.443374044828e+03 2.158689960990e+02 1.923223288620e+02 9.600787591345e+01 7.193344061972e+02 2.580261851080e+02 2.336200952830e+03 1.214117606237e+02 9.697387798612e+02 1.227311263066e+03 2.262819820439e+03 6.196661227471e+02 1.105625729262e+03 6.522033035754e+02 2.620668612371e+02 2.397969051084e+03 1.996193853875e+03 6.388771564485e+02 2.646128846695e+02 1.351468120161e+02 1.837956279883e+02 2.329091814416e+03 2.005562688909e+03 1.596374160142e+03 1.974297679795e+03 5.058816970650e+02 2.078485050316e+03 1.708442522757e+03 1.834888267479e+02 5.292827312077e+02 2.082479879766e+03 2.233156254905e+03 3.642832493869e+02 2.105628514343e+03 2.155819081466e+03 2.361114049486e+03 1.031341254588e+03 2.463457310307e+03 6.955668573371e+02 1.781610786608e+03 1.237341235707e+02 1.305193007712e+02 7.870573701775e+02 2.094433380328e+03 1.343012924587e+02 1.392802204534e+02 1.893827486118e+03 2.202227150577e+03 9.455890113677e+02 5.692782056589e+02 1.822548304533e+02 4.310154446383e+02 2.346677798319e+02 7.778650770842e+02 1.081918464797e+02 5.925144225668e+02 2.472999819775e+03 1.737626410335e+03 2.137873919565e+03 3.192033196570e+02 7.673054074579e+02 2.405837654598e+03 1.530563043704e+02 5.597367347232e+02 7.343487221650e+02 2.135084454534e+03 4.776846449549e+02 2.220541151887e+03 5.595059718452e+02 2.509862572477e+03 4.120740370111e+02 1.389371768092e+02 2.460657861041e+03 4.766421998114e+02 3.563971410542e+02 2.448373077898e+03 1.331660050775e+02 2.454982070393e+03 2.226558638511e+03 2.976947980283e+02 2.446590831046e+03 3.246103444746e+02 2.901344344482e+02 1.313857228090e+02 2.454872444682e+03 4.944560031573e+02 5.223279530237e+02 1.854019012966e+03 5.109419342170e+02 2.475496496584e+03 4.991796123266e+02 6.110114570078e+02 5.646324337073e+02 1.633073916529e+02 6.280484617418e+02 1.905719311208e+03 3.154371183796e+02 2.270615643117e+03 3.745971044921e+02 1.121937945154e+02 2.478150248154e+03 2.043499976546e+03 2.334260624615e+03 2.405704026856e+02 4.518947031882e+02 3.384846716154e+02 1.894820647211e+03 3.922450463875e+02 2.494979972496e+03 8.043777178444e+02 2.426117979399e+03 1.151717708658e+02 2.473494302285e+03 2.324357120499e+03 7.351574770926e+01 5.438113363298e+02 1.952271917944e+03 2.515254289196e+03 2.256183695437e+03 2.331013414330e+03 1.391280320157e+02 2.415677223293e+03 2.583147293692e+02 2.283544612577e+03 3.162207513993e+02 7.332569942689e+02 1.919883365755e+03 1.727029414355e+02 6.753453734628e+02 3.733783770651e+02 1.180780395961e+02 2.385212246472e+03 2.171520688944e+02 2.277584595947e+03 1.884422129003e+03 2.432485518420e+02 1.806962271979e+03 1.234368024222e+02 2.341548451111e+03 2.456437219776e+03 4.452498509859e+01 2.345762285595e+03 2.089273350626e+02 3.159938241584e+02 2.272141742165e+03 2.513506783656e+03 2.809988450345e+02 2.228337421067e+03 2.348481748087e+02 2.385902539866e+03 9.120638069127e+01 2.402149514980e+03 2.527429305042e+03 2.102632447657e+03 2.345800696470e+03 2.490780330271e+03 5.226320942975e+02 2.319627088886e+03 2.062946903380e+02 2.523888242972e+03 1.666294254839e+02 2.414754936763e+03 2.149554280308e+02 6.615283787418e+02 1.283259223416e+02 2.525129121130e+03 2.228628646830e+03 4.757284164041e+02 1.548570871090e+02 2.507274874836e+02 2.439458748357e+03 6.695322369027e+02 2.522298119624e+03 6.123559027649e+02 1.976871707712e+03 2.288853424488e+03 2.400970601589e+03 2.290205175135e+03 2.421845122051e+02 3.006002506573e+02 4.477948132915e+02 2.257903091266e+03 8.523862585606e+01 2.122484392243e+02 8.219892891876e+01 2.015765049276e+02 2.189071156595e+03 2.426743880709e+03 2.444666814879e+03 2.523177428553e+03 2.438930046646e+03 2.383448567900e+02 3.551867741692e+02 1.249558207834e+02 6.324296603529e+02 5.399532856436e+02 6.607262482154e+02 6.802678774170e+02 4.558601328325e+02 1.937826293775e+03 1.658163927483e+02 1.094749747331e+02 2.382946537067e+03 2.026582602923e+03 2.486441872756e+03 1.464831179370e+02 2.185486296508e+03 1.766259906310e+03 1.906727000602e+03 8.278252204272e+02 1.769070347963e+03 1.547329238389e+03 1.337815076018e+03 1.221194980828e+03 1.081115326200e+03 1.231093768459e+03 1.936590305736e+03 1.729714926503e+03 5.880398892282e+02 1.101004008582e+03 5.922371597701e+02 1.331100452335e+03 1.235646463681e+03 1.371998455591e+03 1.427476795684e+03 7.876545941695e+02 1.446547566727e+03 7.611048100636e+02 1.344532727780e+03 1.611724253674e+03 1.005019062214e+03 1.074735979006e+03 1.911376744899e+03 1.000591346309e+03 1.146559861783e+03 9.101029462552e+02 1.948667214138e+03 1.889663112810e+03 1.543559493915e+03 8.891846338264e+02 1.893272776893e+03 1.952259339178e+03 1.396484398235e+03 1.444285830887e+03 1.568166471443e+03 1.007940962732e+03 1.972683102072e+03 1.563271266723e+03 1.147324261379e+03 6.472956106284e+02 6.187819042947e+02 2.219380610963e+02 9.215371831509e+02 1.350340463583e+03 1.587482647465e+03 1.633118565156e+03 1.556289551610e+03 1.195145811715e+03 2.361207636333e+03 1.873810480180e+03 1.566866095625e+02 1.118561185352e+03 1.830261044993e+03 1.424493193844e+03 1.650209771839e+03 2.434562096109e+02 1.708440975745e+03 2.269132009414e+02 2.377373721885e+03 1.180076006260e+03 7.050650284829e+02 1.661210131303e+03 2.141303897989e+03 8.941473474179e+02 4.463337402595e+02 1.940583471550e+03 6.496358525779e+02 2.139587282420e+03 1.767096299902e+03 9.338669396833e+02 2.437136739090e+03 1.720969606360e+02 1.197055321564e+03 3.625991683019e+02 1.531349363018e+03 2.175322849078e+03 2.431810635027e+03 2.413223378518e+03 6.543276979616e+02 2.319055788447e+03 2.059200681030e+03 5.451998620422e+02 1.825092134018e+03 1.078192198257e+03 6.126737473009e+02 1.615797521228e+02 1.990937019975e+03 1.414148631663e+02 5.256587917811e+02 2.445434778906e+03 1.401358730758e+02 3.091287877137e+02 9.503639561622e+02 2.290963516206e+03 1.777689085565e+03 1.068427158816e+03 1.939064474045e+03 8.024577690406e+02 4.613045629913e+02 7.951169486237e+02 7.405514128193e+02 7.342783230758e+02 1.135503649915e+02 2.200097513391e+03 2.307527949768e+02 4.468261760243e+02 6.054829574651e+02 6.845487563950e+02 5.467069882556e+02 1.714557630415e+02 2.334024285544e+03 9.289827810114e+02 8.824169682115e+02 2.010473251760e+02 2.061121076881e+03 2.394864096470e+03 1.976951672434e+03 5.374362117321e+02 2.001088586900e+03 2.225127226945e+03 1.561909995217e+03 9.989682428102e+02 2.102903771527e+03 2.445030223637e+03 2.040319186525e+02 2.170784003783e+03 2.125803618036e+02 1.372536875526e+03 8.249555383939e+02 6.172166163344e+02 2.094351966044e+03 4.341376874748e+02 2.129421798636e+03 2.050540866938e+03 3.172583363642e+02 7.174479558169e+01 2.449767719493e+02 1.895051280153e+03 2.214241287427e+03 4.597889393163e+02 4.455119719857e+02 2.122507341871e+03 3.678974707277e+02 1.355647712719e+03 4.207042034667e+02 1.752401701723e+03 1.008605268641e+03 4.400226127281e+02 1.198809514810e+03 2.265198955736e+03 2.670295247499e+02 4.908508332744e+02 1.893504750219e+03 1.381035632436e+02 2.127547764442e+03 2.155934645667e+03 1.056478444128e+02 2.260864806322e+03 2.079502569950e+03 2.470976159965e+03 6.832926796599e+02 2.263667544888e+03 1.854552243839e+03 2.266691995566e+03 2.278019837712e+03 2.240569572382e+03 2.279931594411e+03 2.276459728562e+03 1.640669936379e+03 2.150030940592e+03 2.065730963724e+03 1.950436402664e+03 2.116632529028e+03 2.564033901698e+02 4.220081894798e+02 3.365379152319e+02 3.814596079167e+02 8.322141652118e+02 1.720355311414e+03 5.294251441856e+02 3.477856962706e+02 2.424073097732e+03 2.356919806943e+03 2.184086380021e+02 1.552929985109e+02 2.318992045523e+03 1.695774565323e+03 4.614005084872e+02 1.704756268650e+03 2.876795476217e+02 1.729418868365e+03 3.634255638717e+02 4.201224240969e+02 2.062671057803e+03 2.761918461606e+02 6.950050049264e+02 2.333454144665e+02 6.553254697098e+02 1.954102991445e+03 2.136046835243e+02 2.096993806105e+03 7.056943680341e+02 1.878403636413e+03 2.485772348132e+03 8.286306488413e+02 4.757271945203e+02 2.332918417411e+03 6.031955896185e+02 2.385717590419e+03 1.972541131621e+03 2.546875936070e+02 3.308931630303e+02 1.747766863346e+02 2.304408570511e+03 1.988775822147e+03 2.511180839168e+02 2.215717552572e+03 9.479023327046e+02 1.775912146631e+03 1.851315446895e+03 4.125850775566e+02 2.009547807018e+03 2.926124908510e+02 1.861307873761e+03 2.266501822465e+03 4.670509511733e+02 6.075331520496e+02 7.808724596768e+02 8.265087298329e+01 2.755709204162e+02 1.909587450006e+03 1.861850033431e+03 9.359650842854e+01 2.444057930644e+03 2.347090670575e+03 1.807208552135e+03 6.818544739619e+01 2.629240118239e+02 1.621187455147e+02 2.428799257591e+03 2.184464602882e+03 2.456332551023e+03 2.185064928396e+03 1.118741702140e+03 4.701682602425e+02 2.007069653839e+03 9.859267720734e+01 2.358077791438e+02 2.258813990720e+03 7.205651749633e+02 6.915054741608e+02 2.347805058370e+03 1.299308401771e+03 1.718758719965e+03 9.751130076371e+01 1.802554028844e+03 2.291648216764e+03 2.391715871603e+03 3.016816246141e+02 1.910229085013e+02 3.514715808015e+02 1.883401874019e+02 3.900264452006e+02 7.033568188350e+02 1.930136938845e+03 4.813867743773e+02 2.511284821317e+03 2.249160194388e+03 2.463479942632e+03 2.601093388682e+02 2.037897479348e+03 4.134885406366e+02 1.583225956097e+03 2.497054021221e+03 2.375390391254e+03 2.372409175317e+03 6.547980968161e+02 2.054657491825e+02 1.009121679355e+02 2.126209520020e+02 5.474559556589e+02 2.071991310047e+03 2.114903184866e+03 2.086047196717e+03 2.193196076270e+03 2.128625372655e+03 2.353693715394e+03 2.056415597378e+03 2.265465454147e+03 1.182159239690e+03 7.781959321797e+02 3.329694946016e+02 1.984373017073e+03 2.185276501314e+03 2.402775996467e+03 9.453006766498e+02 2.286535881745e+03 3.309078223942e+02 1.865326352695e+03 7.257814907118e+02 1.576068555550e+03 1.819794257509e+02 2.269070708294e+03 2.246666828527e+03 1.846725850084e+03 2.862194029067e+02 2.180780261357e+03 2.517612806149e+03 1.725838063665e+03 2.038886581426e+03 2.044683377309e+03 2.374597856492e+03 2.510618965654e+03 2.098447364437e+03 2.190603174288e+02 2.137457208094e+03 2.242020709950e+03 7.590588664493e+02 8.704361026489e+02 7.840654412992e+01 3.939927147234e+02 6.912751199506e+02 5.194016960055e+02 1.723404925993e+03 1.486714927751e+03 3.376451703872e+02 1.969688587849e+03 2.495526871601e+03 5.916296531312e+02 2.171987741935e+03 1.804785759106e+03 3.209559270984e+02 4.276208639310e+02 4.555549033507e+02 2.410279298862e+03 6.381976514922e+01 2.383134208768e+03 2.168362106303e+03 2.424030185521e+03 3.171047193703e+02 2.391156216523e+03 2.099811384265e+03 6.758193480727e+02 2.014607913707e+03 5.934860961617e+02 2.220892860427e+03 7.006468789580e+02 3.911759318430e+02 8.694477180629e+02 4.045632477845e+02 2.068535063307e+03 2.374004991781e+03 6.055707002444e+02 3.350393090423e+02 2.305340068151e+02 2.163276739824e+03 2.077163617313e+03 4.040951534313e+02 1.836560068164e+02 1.935378395249e+03 2.016966413906e+03 1.678621180178e+03 4.699296600381e+02 2.380755640008e+03 1.697568704074e+03 2.247701390725e+