<?xml version="1.0"?>
<!-- Time step: 41 | Time: 9.000000000000e+03 -->
<VTKFile type="UnstructuredGrid" version="0.1" byte_order="LittleEndian">
  <UnstructuredGrid>
    <Piece NumberOfPoints="6824" NumberOfCells="13330">
      <Points>
        <DataArray type="Float64" NumberOfComponents="3" format="ascii">
          0.000000000000e+00 0.000000000000e+00 0.000000000000e+00
          0.000000000000e+00 0.000000000000e+00 2.600000000000e-01
          5.300000000000e-01 0.000000000000e+00 2.600000000000e-01
          5.300000000000e-01 0.000000000000e+00 0.000000000000e+00
          0.000000000000e+00 0.000000000000e+00 4.999999999991e-03
          0.000000000000e+00 0.000000000000e+00 9.999999999982e-03
          0.000000000000e+00 0.000000000000e+00 1.499999999997e-02
          0.000000000000e+00 0.000000000000e+00 1.999999999996e-02
          0.000000000000e+00 0.000000000000e+00 2.499999999996e-02
          0.000000000000e+00 0.000000000000e+00 2.999999999995e-02
          0.000000000000e+00 0.000000000000e+00 3.499999999994e-02
          0.000000000000e+00 0.000000000000e+00 3.999999999992e-02
          0.000000000000e+00 0.000000000000e+00 4.499999999991e-02
          0.000000000000e+00 0.000000000000e+00 4.999999999990e-02
          0.000000000000e+00 0.000000000000e+00 5.499999999988e-02
          0.000000000000e+00 0.000000000000e+00 5.999999999987e-02
          0.000000000000e+00 0.000000000000e+00 6.499999999985e-02
          0.000000000000e+00 0.000000000000e+00 6.999999999983e-02
          0.000000000000e+00 0.000000000000e+00 7.499999999983e-02
          0.000000000000e+00 0.000000000000e+00 7.999999999981e-02
          0.000000000000e+00 0.000000000000e+00 8.499999999979e-02
          0.000000000000e+00 0.000000000000e+00 8.999999999978e-02
          0.000000000000e+00 0.000000000000e+00 9.499999999977e-02
          0.000000000000e+00 0.000000000000e+00 9.999999999975e-02
          0.000000000000e+00 0.000000000000e+00 1.049999999997e-01
          0.000000000000e+00 0.000000000000e+00 1.099999999997e-01
          0.000000000000e+00 0.000000000000e+00 1.149999999997e-01
          0.000000000000e+00 0.000000000000e+00 1.199999999997e-01
          0.000000000000e+00 0.000000000000e+00 1.249999999997e-01
          0.000000000000e+00 0.000000000000e+00 1.299999999997e-01
          0.000000000000e+00 0.000000000000e+00 1.349999999997e-01
          0.000000000000e+00 0.000000000000e+00 1.399999999997e-01
          0.000000000000e+00 0.000000000000e+00 1.449999999997e-01
          0.000000000000e+00 0.000000000000e+00 1.499999999997e-01
          0.000000000000e+00 0.000000000000e+00 1.549999999997e-01
          0.000000000000e+00 0.000000000000e+00 1.599999999997e-01
          0.000000000000e+00 0.000000000000e+00 1.649999999998e-01
          0.000000000000e+00 0.000000000000e+00 1.699999999998e-01
          0.000000000000e+00 0.000000000000e+00 1.749999999998e-01
          0.000000000000e+00 0.000000000000e+00 1.799999999998e-01
          0.000000000000e+00 0.000000000000e+00 1.849999999998e-01
          0.000000000000e+00 0.000000000000e+00 1.899999999998e-01
          0.000000000000e+00 0.000000000000e+00 1.949999999998e-01
          0.000000000000e+00 0.000000000000e+00 1.999999999999e-01
          0.000000000000e+00 0.000000000000e+00 2.049999999999e-01
          0.000000000000e+00 0.000000000000e+00 2.099999999999e-01
          0.000000000000e+00 0.000000000000e+00 2.149999999999e-01
          0.000000000000e+00 0.000000000000e+00 2.199999999999e-01
          0.000000000000e+00 0.000000000000e+00 2.249999999999e-01
          0.000000000000e+00 0.000000000000e+00 2.299999999999e-01
          0.000000000000e+00 0.000000000000e+00 2.349999999999e-01
          0.000000000000e+00 0.000000000000e+00 2.399999999999e-01
          0.000000000000e+00 0.000000000000e+00 2.450000000000e-01
          0.000000000000e+00 0.000000000000e+00 2.500000000000e-01
          0.000000000000e+00 0.000000000000e+00 2.550000000000e-01
          4.999999999991e-03 0.000000000000e+00 2.600000000000e-01
          9.999999999981e-03 0.000000000000e+00 2.600000000000e-01
          1.499999999997e-02 0.000000000000e+00 2.600000000000e-01
          1.999999999996e-02 0.000000000000e+00 2.600000000000e-01
          2.499999999995e-02 0.000000000000e+00 2.600000000000e-01
          2.999999999994e-02 0.000000000000e+00 2.600000000000e-01
          3.499999999993e-02 0.000000000000e+00 2.600000000000e-01
          3.999999999992e-02 0.000000000000e+00 2.600000000000e-01
          4.499999999992e-02 0.000000000000e+00 2.600000000000e-01
          4.999999999991e-02 0.000000000000e+00 2.600000000000e-01
          5.499999999990e-02 0.000000000000e+00 2.600000000000e-01
          5.999999999990e-02 0.000000000000e+00 2.600000000000e-01
          6.499999999989e-02 0.000000000000e+00 2.600000000000e-01
          6.999999999988e-02 0.000000000000e+00 2.600000000000e-01
          7.499999999986e-02 0.000000000000e+00 2.600000000000e-01
          7.999999999985e-02 0.000000000000e+00 2.600000000000e-01
          8.499999999983e-02 0.000000000000e+00 2.600000000000e-01
          8.999999999981e-02 0.000000000000e+00 2.600000000000e-01
          9.499999999980e-02 0.000000000000e+00 2.600000000000e-01
          9.999999999979e-02 0.000000000000e+00 2.600000000000e-01
          1.049999999998e-01 0.000000000000e+00 2.600000000000e-01
          1.099999999998e-01 0.000000000000e+00 2.600000000000e-01
          1.149999999997e-01 0.000000000000e+00 2.600000000000e-01
          1.199999999997e-01 0.000000000000e+00 2.600000000000e-01
          1.249999999997e-01 0.000000000000e+00 2.600000000000e-01
          1.299999999997e-01 0.000000000000e+00 2.600000000000e-01
          1.349999999997e-01 0.000000000000e+00 2.600000000000e-01
          1.399999999997e-01 0.000000000000e+00 2.600000000000e-01
          1.449999999997e-01 0.000000000000e+00 2.600000000000e-01
          1.499999999996e-01 0.000000000000e+00 2.600000000000e-01
          1.549999999996e-01 0.000000000000e+00 2.600000000000e-01
          1.599999999996e-01 0.000000000000e+00 2.600000000000e-01
          1.649999999996e-01 0.000000000000e+00 2.600000000000e-01
          1.699999999996e-01 0.000000000000e+00 2.600000000000e-01
          1.749999999996e-01 0.000000000000e+00 2.600000000000e-01
          1.799999999995e-01 0.000000000000e+00 2.600000000000e-01
          1.849999999995e-01 0.000000000000e+00 2.600000000000e-01
          1.899999999995e-01 0.000000000000e+00 2.600000000000e-01
          1.949999999995e-01 0.000000000000e+00 2.600000000000e-01
          1.999999999995e-01 0.000000000000e+00 2.600000000000e-01
          2.049999999995e-01 0.000000000000e+00 2.600000000000e-01
          2.099999999995e-01 0.000000000000e+00 2.600000000000e-01
          2.149999999994e-01 0.000000000000e+00 2.600000000000e-01
          2.199999999994e-01 0.000000000000e+00 2.600000000000e-01
          2.249999999994e-01 0.000000000000e+00 2.600000000000e-01
          2.299999999994e-01 0.000000000000e+00 2.600000000000e-01
          2.349999999994e-01 0.000000000000e+00 2.600000000000e-01
          2.399999999994e-01 0.000000000000e+00 2.600000000000e-01
          2.449999999993e-01 0.000000000000e+00 2.600000000000e-01
          2.499999999993e-01 0.000000000000e+00 2.600000000000e-01
          2.549999999993e-01 0.000000000000e+00 2.600000000000e-01
          2.599999999993e-01 0.000000000000e+00 2.600000000000e-01
          2.649999999993e-01 0.000000000000e+00 2.600000000000e-01
          2.699999999993e-01 0.000000000000e+00 2.600000000000e-01
          2.749999999993e-01 0.000000000000e+00 2.600000000000e-01
          2.799999999993e-01 0.000000000000e+00 2.600000000000e-01
          2.849999999993e-01 0.000000000000e+00 2.600000000000e-01
          2.899999999993e-01 0.000000000000e+00 2.600000000000e-01
          2.949999999993e-01 0.000000000000e+00 2.600000000000e-01
          2.999999999994e-01 0.000000000000e+00 2.600000000000e-01
          3.049999999994e-01 0.000000000000e+00 2.600000000000e-01
          3.099999999994e-01 0.000000000000e+00 2.600000000000e-01
          3.149999999994e-01 0.000000000000e+00 2.600000000000e-01
          3.199999999994e-01 0.000000000000e+00 2.600000000000e-01
          3.249999999994e-01 0.000000000000e+00 2.600000000000e-01
          3.299999999994e-01 0.000000000000e+00 2.600000000000e-01
          3.349999999995e-01 0.000000000000e+00 2.600000000000e-01
          3.399999999995e-01 0.000000000000e+00 2.600000000000e-01
          3.449999999995e-01 0.000000000000e+00 2.600000000000e-01
          3.499999999995e-01 0.000000000000e+00 2.600000000000e-01
          3.549999999995e-01 0.000000000000e+00 2.600000000000e-01
          3.599999999995e-01 0.000000000000e+00 2.600000000000e-01
          3.649999999996e-01 0.000000000000e+00 2.600000000000e-01
          3.699999999996e-01 0.000000000000e+00 2.600000000000e-01
          3.749999999996e-01 0.000000000000e+00 2.600000000000e-01
          3.799999999996e-01 0.000000000000e+00 2.600000000000e-01
          3.849999999996e-01 0.000000000000e+00 2.600000000000e-01
          3.899999999996e-01 0.000000000000e+00 2.600000000000e-01
          3.949999999996e-01 0.000000000000e+00 2.600000000000e-01
          3.999999999996e-01 0.000000000000e+00 2.600000000000e-01
          4.049999999996e-01 0.000000000000e+00 2.600000000000e-01
          4.099999999996e-01 0.000000000000e+00 2.600000000000e-01
          4.149999999997e-01 0.000000000000e+00 2.600000000000e-01
          4.199999999997e-01 0.000000000000e+00 2.600000000000e-01
          4.249999999997e-01 0.000000000000e+00 2.600000000000e-01
          4.299999999997e-01 0.000000000000e+00 2.600000000000e-01
          4.349999999997e-01 0.000000000000e+00 2.600000000000e-01
          4.399999999997e-01 0.000000000000e+00 2.600000000000e-01
          4.449999999997e-01 0.000000000000e+00 2.600000000000e-01
[...]
      <PointData Scalars="PRESSURE1">
        <DataArray type="Float64" Name="PRESSURE1" format="ascii">
          2.566590300000e+03 -5.032530000000e+01 6.867000000000e+01 2.619270000000e+03 2.516265000000e+03 2.465939700000e+03 2.415614400000e+03 2.365289100000e+03 2.314963800000e+03 2.264638500001e+03 2.214313200001e+03 2.163987900001e+03 2.113662600001e+03 2.063337300001e+03 2.013012000001e+03 1.962686700001e+03 1.912361400001e+03 1.862036100002e+03 1.811710800002e+03 1.761385500002e+03 1.711060200002e+03 1.660734900002e+03 1.610409600002e+03 1.560084300003e+03 1.509759000003e+03 1.459433700003e+03 1.409108400003e+03 1.358783100003e+03 1.308457800003e+03 1.258132500003e+03 1.207807200003e+03 1.157481900003e+03 1.107156600003e+03 1.056831300003e+03 1.006506000003e+03 9.561807000026e+02 9.058554000024e+02 8.555301000022e+02 8.052048000022e+02 7.548795000020e+02 7.045542000019e+02 6.542289000018e+02 6.039036000017e+02 5.535783000015e+02 5.032530000014e+02 4.529277000013e+02 4.026024000011e+02 3.522771000010e+02 3.019518000009e+02 2.516265000007e+02 2.013012000006e+02 1.509759000005e+02 1.006506000004e+02 5.032530000026e+01 1.810262739710e-10 -4.622702555028e+01 -4.276092456716e+01 -3.973001831988e+01 -3.703701655514e+01 -3.458179227257e+01 -3.230790541790e+01 -3.017876329090e+01 -2.817145017700e+01 -2.625397345663e+01 -2.442673174723e+01 -2.267752605797e+01 -2.099526377786e+01 -1.937486655800e+01 -1.780877461013e+01 -1.628890577610e+01 -1.481750967690e+01 -1.339021265237e+01 -1.199865500936e+01 -1.064436146446e+01 -9.324337195618e+00 -8.034259199779e+00 -6.772154844688e+00 -5.536470091409e+00 -4.325103550386e+00 -3.137191540803e+00 -1.971498501186e+00 -8.272707014213e-01 2.984868693563e-01 1.405767901051e+00 2.496528361051e+00 3.572008398143e+00 4.631516529911e+00 5.676561715916e+00 6.708391306200e+00 7.728042617826e+00 8.735962254701e+00 9.732124244859e+00 1.071857838687e+01 1.169411594381e+01 1.266036544436e+01 1.361828530117e+01 1.456779999612e+01 1.550906273913e+01 1.644300484926e+01 1.736958704355e+01 1.829005135266e+01 1.920419468136e+01 2.011210651737e+01 2.101463974068e+01 2.191209216316e+01 2.280407875971e+01 2.369169827660e+01 2.457464192905e+01 2.545352193327e+01 2.632837589888e+01 2.719947956007e+01 2.806720922467e+01 2.893158620644e+01 2.979274978865e+01 3.065103733062e+01 3.150645004648e+01 3.235922903853e+01 3.320967199781e+01 3.405757970325e+01 3.490332663637e+01 3.574715542822e+01 3.658903546171e+01 3.742891739059e+01 3.826709888224e+01 3.910373454555e+01 3.993869270154e+01 4.077231942548e+01 4.160455070310e+01 4.243550907086e+01 4.326525683181e+01 4.409388136048e+01 4.492142740954e+01 4.574799651553e+01 4.657364167120e+01 4.739842489524e+01 4.822231035412e+01 4.904549032413e+01 4.986789218251e+01 5.068972126573e+01 5.151083454986e+01 5.233139621451e+01 5.315140452567e+01 5.397091184219e+01 5.478993470402e+01 5.560849950972e+01 5.642668466558e+01 5.724449298046e+01 5.806196031169e+01 5.887911425070e+01 5.969597330907e+01 6.051259862654e+01 6.132897256596e+01 6.214515509687e+01 6.296114446988e+01 6.377697795929e+01 6.459268588352e+01 6.540828229107e+01 6.622378662151e+01 6.703922700715e+01 6.785462607780e+01 1.177200000000e+02 1.667699999998e+02 2.158199999998e+02 2.648699999997e+02 3.139199999996e+02 3.629699999995e+02 4.120199999995e+02 4.610699999993e+02 5.101199999991e+02 5.591699999990e+02 6.082199999989e+02 6.572699999988e+02 7.063199999986e+02 7.553699999985e+02 8.044199999983e+02 8.534699999981e+02 9.025199999980e+02 9.515699999979e+02 1.000619999998e+03 1.049669999998e+03 1.098719999998e+03 1.147769999997e+03 1.196819999997e+03 1.245869999997e+03 1.294919999997e+03 1.343969999997e+03 1.393019999997e+03 1.442069999997e+03 1.491119999997e+03 1.540169999997e+03 1.589219999997e+03 1.638269999998e+03 1.687319999998e+03 1.736369999998e+03 1.785419999998e+03 1.834469999998e+03 1.883519999998e+03 1.932569999998e+03 1.981619999998e+03 2.030669999999e+03 2.079719999999e+03 2.128769999999e+03 2.177819999999e+03 2.226869999999e+03 2.275919999999e+03 2.324969999999e+03 2.374019999999e+03 2.423069999999e+03 2.472120000000e+03 2.521170000000e+03 2.570220000000e+03 2.618466635162e+03 2.617663293048e+03 2.616859996318e+03 2.616056765161e+03 2.615253624416e+03 2.614450592408e+03 2.613647696782e+03 2.612844954989e+03 2.612042402127e+03 2.611240061755e+03 2.610437956746e+03 2.609636105694e+03 2.608834539262e+03 2.608033310628e+03 2.607232406888e+03 2.606431892621e+03 2.605631778693e+03 2.604832132306e+03 2.604032977235e+03 2.603234324935e+03 2.602436198674e+03 2.601638709613e+03 2.600841877659e+03 2.600045696034e+03 2.599250331016e+03 2.598455684051e+03 2.597661974089e+03 2.596869027040e+03 2.596077164951e+03 2.595286284513e+03 2.594496542885e+03 2.593707954936e+03 2.592920662600e+03 2.592134701677e+03 2.591350083384e+03 2.590567008373e+03 2.589785709793e+03 2.589006063098e+03 2.588228224080e+03 2.587452290768e+03 2.586678617451e+03 2.585907138840e+03 2.585137882552e+03 2.584371448231e+03 2.583607737112e+03 2.582846593170e+03 2.582088730435e+03 2.581334103379e+03 2.580583069264e+03 2.579835563555e+03 2.579092633562e+03 2.578353547222e+03 2.577619294804e+03 2.576889863052e+03 2.576165843967e+03 2.575447537371e+03 2.574735030973e+03 2.574029239041e+03 2.573330673822e+03 2.572639218626e+03 2.571956147656e+03 2.571282085042e+03 2.570617701054e+03 2.569963549178e+03 2.569320996906e+03 2.568690374143e+03 2.568073715641e+03 2.567472961339e+03 2.566888817708e+03 2.566323007551e+03 2.565781616879e+03 2.565264243818e+03 2.564777870949e+03 2.564330909100e+03 2.563940310742e+03 2.563634526932e+03 2.563476538400e+03 2.563501871309e+03 2.563660577173e+03 2.563877522350e+03 2.564081221573e+03 2.564271805051e+03 2.564452494002e+03 2.564612886687e+03 2.564757459554e+03 2.564892100921e+03 2.565015181870e+03 2.565129206172e+03 2.565236895246e+03 2.565338486598e+03 2.565435247228e+03 2.565527550092e+03 2.565616459895e+03 2.565702104320e+03 2.565784828472e+03 2.565865404079e+03 2.565943600404e+03 2.566020101797e+03 2.566094767060e+03 2.566168108575e+03 2.566240302110e+03 2.566311457078e+03 2.566381848910e+03 2.566451653594e+03 2.566521069766e+03 8.508409688937e+02 8.143772745161e+02 1.789368961321e+03 2.198485932369e+03 4.447261145226e+02 2.237434285929e+03 3.666440161729e+02 6.360969026108e+02 1.311473942007e+03 2.335441150271e+03 2.652270782267e+02 5.201600675985e+02 2.011510994329e+03 5.762895763518e+02 1.943524486543e+03 2.325993066546e+03 2.702094877610e+02 6.410291107528e+02 2.344679969147e+03 2.793173048558e+02 8.108480845422e+02 6.213674435353e+02 1.953127973994e+03 2.178105069785e+03 3.957153751559e+02 1.998862867046e+03 5.819859055481e+02 6.604461093894e+02 2.005782608441e+03 1.813594392349e+03 4.982698028717e+02 8.223523520585e+02 1.741193780719e+03 1.825758623154e+03 3.168106677573e+02 8.675328776777e+02 1.982534832582e+03 2.344677873539e+03 5.286586480285e+02 1.982708446180e+03 6.339813459451e+02 7.202447696110e+02 1.852681630711e+03 2.014943689409e+03 2.113044266820e+03 2.098868447700e+03 3.123878930027e+02 2.820554910267e+02 2.079533727780e+03 2.120959159200e+03 2.150875830711e+03 4.558623167954e+02 5.163024367107e+02 2.194573655174e+03 2.121805501305e+03 3.649935038633e+02 4.163951572426e+02 2.217308621834e+03 3.217536252715e+02 2.339994766271e+03 4.709388911268e+02 2.269985695653e+03 1.867112678093e+02 2.214454812066e+03 2.363621042352e+03 2.418258957972e+03 3.165330303812e+02 2.321134116289e+03 3.127879793879e+02 2.020436920632e+02 2.447687904686e+03 2.255799809298e+02 2.445260889506e+03 2.472542480336e+03 2.679345285229e+02 2.499957935014e+03 1.200056960948e+02 2.413468226320e+03 2.471221975160e+03 2.156397803920e+02 2.464482783302e+03 2.508234823449e+03 2.522081480134e+03 2.489002375923e+03 1.415419370271e+02 8.086313936843e+02 1.770611239933e+03 7.993910666933e+02 1.369904755199e+03 4.948572564382e+02 2.113864682906e+03 2.107738996341e+03 3.978292418788e+02 4.802995922811e+02 3.010450851749e+02 2.297256945035e+03 9.608055761859e+02 1.780777391795e+03 1.958453963061e+03 2.340276217029e+03 1.591762734336e+03 9.771088685614e+02 3.230143531700e+02 1.654139825969e+03 2.425138924190e+03 1.607479171367e+03 4.738726034575e+02 2.123638052700e+03 1.479469090806e+02 9.867900106530e+02 1.671308619334e+03 9.383693380201e+02 4.034772542078e+02 1.170131871437e+03 2.169898320210e+03 3.646745124029e+02 1.561475299115e+02 9.314344700545e+02 1.706523250805e+03 2.032175743534e+03 5.910684585967e+02 2.832815907577e+02 2.422419128902e+03 1.769685046686e+02 2.242287190600e+03 1.471375920323e+03 1.087356659551e+03 2.168612162775e+02 2.425605539957e+03 2.250692932796e+03 2.354753868481e+03 3.321763635113e+02 2.382478246086e+03 3.371458375378e+02 2.304179157974e+03 2.369790400421e+03 2.179472838384e+03 2.385758073111e+03 2.237169072230e+03 2.371370180392e+03 1.352384716797e+03 2.188658916240e+03 4.262002492039e+02 1.802175306564e+02 2.436046775967e+03 8.536654063376e+01 2.482071692086e+03 1.903997090957e+03 7.419846375422e+02 2.084663994792e+03 7.653684641101e+02 1.667122870988e+03 2.379818418102e+03 2.456159212870e+03 2.179556115943e+02 2.042275306072e+02 9.935294463251e+01 7.240708796195e+02 2.676914704929e+02 2.340624922986e+03 1.233485009935e+02 9.837570160708e+02 1.241655009764e+03 2.262707976879e+03 6.203418678294e+02 1.106604461209e+03 6.652856457698e+02 2.741991661196e+02 2.411031819095e+03 2.009994718359e+03 6.522374349406e+02 2.771042652754e+02 1.382516323420e+02 1.952251727386e+02 2.328995482261e+03 2.019804497632e+03 1.596443802667e+03 1.974282604365e+03 5.111065167198e+02 2.088307490966e+03 1.722753691411e+03 1.889440809512e+02 5.302201485744e+02 2.086880082990e+03 2.237146432384e+03 3.748110570392e+02 2.105590198787e+03 2.169794424906e+03 2.361033311300e+03 1.045616327244e+03 2.472559893675e+03 6.976024485813e+02 1.795855689683e+03 1.260479828383e+02 1.322439271626e+02 8.002623995281e+02 2.106978594005e+03 1.371220138470e+02 1.509535280159e+02 1.908140876231e+03 2.215256505964e+03 9.461416586492e+02 5.824511877482e+02 1.837095709011e+02 4.315523869442e+02 2.480329534649e+02 7.920363972866e+02 1.205104486023e+02 6.069619397611e+02 2.486292287732e+03 1.737650890025e+03 2.152254375893e+03 3.199267470849e+02 7.690418432498e+02 2.419497280448e+03 1.542367435919e+02 5.738670824131e+02 7.487127771595e+02 2.135066435354e+03 4.920355609552e+02 2.234815948946e+03 5.717065538146e+02 2.523539807169e+03 4.262945023665e+02 1.488095277199e+02 2.464354573187e+03 4.789894876192e+02 3.696047914648e+02 2.462234040843e+03 1.439687742899e+02 2.456090380806e+03 2.229103857911e+03 3.091853347254e+02 2.458883556711e+03 3.389423742405e+02 2.906100984033e+02 1.415436558333e+02 2.458000454447e+03 4.969741526875e+02 5.251323025045e+02 1.866994184491e+03 5.247910988551e+02 2.475394655856e+03 5.009194574712e+02 6.244861652311e+02 5.783110463749e+02 1.771047990326e+02 6.298090188941e+02 1.907159121740e+03 3.257571963170e+02 2.274652314379e+03 3.875775388182e+02 1.233740993767e+02 2.478095958302e+03 2.043466271778e+03 2.337013734177e+03 2.514695809667e+02 4.649823355199e+02 3.520737499191e+02 1.894994400267e+03 4.046423783945e+02 2.507449499296e+03 8.188970856026e+02 2.426041587191e+03 1.256530504736e+02 2.475216210321e+03 2.338802679537e+03 7.490663254033e+01 5.452128963034e+02 1.965680690021e+03 2.529246096526e+03 2.256114031264e+03 2.330996925552e+03 1.532252557205e+02 2.430139874231e+03 2.720584763281e+02 2.283498137877e+03 3.184503510996e+02 7.345589667510e+02 1.933014929668e+03 1.730175355289e+02 6.895648870702e+02 3.749396487536e+02 1.314512853073e+02 2.388703754383e+03 2.274748968581e+02 2.291674794530e+03 1.885329190607e+03 2.439667124413e+02 1.807383479127e+03 1.242019451747e+02 2.355805497700e+03 2.470721228179e+03 4.518960137023e+01 2.345754108926e+03 2.095281933162e+02 3.260290906093e+02 2.276375900042e+03 2.513447305480e+03 2.811485814550e+02 2.242915000668e+03 2.359373217192e+02 2.399944598117e+03 1.047947403967e+02 2.402126602690e+03 2.541718283356e+03 2.102733363651e+03 2.345741220110e+03 2.490759499229e+03 5.352068342213e+02 2.319597676251e+03 2.064466437026e+02 2.523860641890e+03 1.671226077386e+02 2.414714074086e+03 2.293152293751e+02 6.761366228710e+02 1.287418971749e+02 2.539573769115e+03 2.228604133251e+03 4.883382912013e+02 1.555105552192e+02 2.516763065830e+02 2.439451345120e+03 6.832700375140e+02 2.522251008238e+03 6.145878176778e+02 1.989734132386e+03 2.288791026851e+03 2.400939645967e+03 2.304048822456e+03 2.561818736479e+02 3.015532523767e+02 4.614440094695e+02 2.271469613695e+03 8.536914679469e+01 2.268383146129e+02 8.260060248107e+01 2.025154529651e+02 2.189032054410e+03 2.426688314461e+03 2.444644861824e+03 2.537779140300e+03 2.453534614470e+03 2.391862519195e+02 3.691964452046e+02 1.394214861284e+02 6.353914052762e+02 5.433320684542e+02 6.632576503838e+02 6.831681737461e+02 4.596843461793e+02 1.949831179095e+03 1.803183906120e+02 1.097385613596e+02 2.382880791654e+03 2.026643936832e+03 2.501060574566e+03 1.466120338974e+02 2.185438487220e+03 1.774068730287e+03 1.913963353805e+03 8.358311966743e+02 1.775776049359e+03 1.551413823543e+03 1.343147907763e+03 1.225217656239e+03 1.092490654855e+03 1.240821013866e+03 1.944811175585e+03 1.733409756619e+03 5.946609322155e+02 1.109287025078e+03 6.020646990311e+02 1.340033807247e+03 1.241687036583e+03 1.383229892084e+03 1.432136904483e+03 7.992491216494e+02 1.454795178834e+03 7.696729922932e+02 1.347170997676e+03 1.622912191631e+03 1.007861339025e+03 1.081562990297e+03 1.917512950146e+03 1.003993269874e+03 1.157104030423e+03 9.140494607825e+02 1.957476156761e+03 1.893754385399e+03 1.553105930191e+03 8.990946961753e+02 1.898767739115e+03 1.957087286933e+03 1.409540407001e+03 1.457780177478e+03 1.571144934860e+03 1.020104431658e+03 1.982081746973e+03 1.575077711543e+03 1.149930704895e+03 6.576331365537e+02 6.243319294688e+02 2.308045052834e+02 9.344092642477e+02 1.364268695283e+03 1.599873133982e+03 1.636518310760e+03 1.558399341987e+03 1.207861424161e+03 2.366792891407e+03 1.878154112779e+03 1.630216242199e+02 1.120646705526e+03 1.841431097143e+03 1.437050475103e+03 1.655405125536e+03 2.519980000721e+02 1.719059393382e+03 2.349732542992e+02 2.383868755673e+03 1.181815801471e+03 7.161202501064e+02 1.671299694461e+03 2.145944375546e+03 8.985259863909e+02 4.551492422298e+02 1.945046552816e+03 6.615607450196e+02 2.149019706813e+03 1.769920131554e+03 9.389022992138e+02 2.445052322577e+03 1.789327624493e+02 1.210962189063e+03 3.689785741084e+02 1.532707644751e+03 2.181009586285e+03 2.440426322505e+03 2.422747740809e+03 6.649384359599e+02 2.328429531436e+03 2.069826007937e+03 5.492613793692e+02 1.835278719878e+03 1.079705847687e+03 6.169667269314e+02 1.660961236360e+02 2.001162442253e+03 1.449903462535e+02 5.365950351226e+02 2.452735267639e+03 1.474922715773e+02 3.182614192706e+02 9.637223025102e+02 2.296127606177e+03 1.786905749992e+03 1.082429357213e+03 1.948918447118e+03 8.081748330178e+02 4.668117814701e+02 7.973544978083e+02 7.533515368133e+02 7.381143058577e+02 1.179714875109e+02 2.211762575727e+03 2.368136753264e+02 4.509700897821e+02 6.101264239836e+02 6.897587385965e+02 5.585860636961e+02 1.756151639682e+02 2.343013511352e+03 9.426065810425e+02 8.849157712898e+02 2.104497062225e+02 2.068491967680e+03 2.399572682991e+03 1.987930187981e+03 5.446954458952e+02 2.003647247410e+03 2.234397175613e+03 1.575761352247e+03 1.012715648096e+03 2.106309288811e+03 2.454913204195e+03 2.071449014729e+02 2.181012053232e+03 2.159683182719e+02 1.386904436110e+03 8.269755257585e+02 6.221354326248e+02 2.105689313292e+03 4.370742603485e+02 2.140975575573e+03 2.053387512685e+03 3.210326423892e+02 7.578555787121e+01 2.508326412211e+02 1.906636982017e+03 2.226776152588e+03 4.715469533986e+02 4.551722481918e+02 2.134803665363e+03 3.718485736802e+02 1.356264513821e+03 4.321854635268e+02 1.765310114202e+03 1.009641638689e+03 4.432575281179e+02 1.200027209444e+03 2.265464485056e+03 2.726799442506e+02 4.957312534384e+02 1.895811301457e+03 1.429552060538e+02 2.131262474342e+03 2.168708893923e+03 1.096039091340e+02 2.265666535611e+03 2.091573617503e+03 2.482180131877e+03 6.868880305620e+02 2.276444978689e+03 1.868603044592e+03 2.276877782174e+03 2.289593557892e+03 2.251504153768e+03 2.279949486248e+03 2.276855450716e+03 1.640872670069e+03 2.154084203356e+03 2.077518053417e+03 1.964492377924e+03 2.116967604009e+03 2.616401363576e+02 4.247051155275e+02 3.460324155851e+02 3.862858105160e+02 8.457534622971e+02 1.733483967259e+03 5.299926929317e+02 3.533514470502e+02 2.423951581166e+03 2.356753841616e+03 2.211495684303e+02 1.674246252852e+02 2.330072377444e+03 1.708484990876e+03 4.726178038393e+02 1.705974458280e+03 2.931080991330e+02 1.741564817234e+03 3.746788207654e+02 4.236385911697e+02 2.063974659845e+03 2.893123278659e+02 7.075588373218e+02 2.362397470657e+02 6.676333535516e+02 1.956405533016e+03 2.166277790287e+02 2.099988278952e+03 7.187431339124e+02 1.891930103968e+03 2.485624860107e+03 8.296618682041e+02 4.859186851606e+02 2.343671714414e+03 6.156961240455e+02 2.396932921408e+03 1.972533618834e+03 2.569713142620e+02 3.355047637672e+02 1.799667905963e+02 2.317434787470e+03 2.000451314094e+03 2.555319166383e+02 2.225647739556e+03 9.487799967205e+02 1.789898274414e+03 1.852690862559e+03 4.229536087866e+02 2.013441385956e+03 3.045335174311e+02 1.873623176293e+03 2.267288488816e+03 4.777505114783e+02 6.084745462459e+02 7.820940741768e+02 8.783369978391e+01 2.771453065703e+02 1.923391094114e+03 1.861847457001e+03 9.890298766458e+01 2.456505468123e+03 2.357510247187e+03 1.819927262922e+03 7.468712771837e+01 2.641578220507e+02 1.717717439696e+02 2.433036750870e+03 2.196778465182e+03 2.456050452236e+03 2.187358967383e+03 1.133014857431e+03 4.822148504334e+02 2.007043519267e+03 1.033721363730e+02 2.374649161967e+02 2.266361679450e+03 7.210157037449e+02 6.925461389999e+02 2.348623532156e+03 1.313883088466e+03 1.732131682106e+03 1.061948987326e+02 1.802576660869e+03 2.292571764737e+03 2.403825537587e+03 3.088079162155e+02 2.032126131260e+02 3.631939333660e+02 1.902221225315e+02 3.922402760982e+02 7.174322614442e+02 1.930124001338e+03 4.815698621614e+02 2.521420633201e+03 2.260977129600e+03 2.463254328246e+03 2.718262195494e+02 2.051909032274e+03 4.185615508621e+02 1.596509482603e+03 2.501824536177e+03 2.387174089596e+03 2.384369310477e+03 6.581524020272e+02 2.170038757638e+02 1.102019180654e+02 2.255737263704e+02 5.486611145055e+02 2.071982054899e+03 2.127874891457e+03 2.100143946411e+03 2.193131112236e+03 2.142848414717e+03 2.367140962523e+03 2.070326381821e+03 2.268327224792e+03 1.182738019426e+03 7.921211257956e+02 3.451872119345e+02 1.985191922738e+03 2.185563324327e+03 2.404037000504e+03 9.596479936126e+02 2.286417164780e+03 3.337313367527e+02 1.865468489013e+03 7.277187368807e+02 1.590180956608e+03 1.951739081866e+02 2.272754085501e+03 2.246579507713e+03 1.847424132536e+03 2.910620159343e+02 2.180699709201e+03 2.530482751172e+03 1.725966735844e+03 2.038861902100e+03 2.058212749008e+03 2.374495843152e+03 2.521023646217e+03 2.098418889433e+03 2.317749560017e+02 2.150687017965e+03 2.246532176819e+03 7.724943750639e+02 8.722828314834e+02 8.396015371994e+01 3.958515142094e+02 6.927531548138e+02 5.224334748195e+02 1.737021110263e+03 1.501229371347e+03 3.474400826415e+02 1.969673376492e+03 2.506181031379e+03 5.926665039319e+02 2.176381957693e+03 1.818277470574e+03 3.242686628638e+02 4.409372167193e+02 4.572113826402e+02 2.422941836384e+03 6.594486605334e+01 2.396442713295e+03 2.172544966714e+03 2.435605952024e+03 3.281929243904e+02 2.392124407264e+03 2.103809657065e+03 6.775456005471e+02 2.029108162915e+03 5.970313094607e+02 2.224750855376e+03 7.037830124011e+02 3.920259378419e+02 8.835687733833e+02 4.167198137896e+02 2.068880864942e+03 2.386296267600e+03 6.058921554287e+02 3.495396698321e+02 2.355635869431e+02 2.163246600051e+03 2.090836183331e+03 4.175317809767e+02 1.849650118250e+02 1.935367631255e+03 2.017315438275e+03 1.678643724068e+03 4.821975512242e+02 2.381403964026e+03 1.711655219871e+03 2.247590309439e+03 3.