<?xml version="1.0"?>
<!-- Time step: 42 | Time: 9.000000000000e+03 -->
<VTKFile type="UnstructuredGrid" version="0.1" byte_order="LittleEndian">
  <UnstructuredGrid>
    <Piece NumberOfPoints="6824" NumberOfCells="13330">
      <Points>
        <DataArray type="Float64" NumberOfComponents="3" format="ascii">
          0.000000000000e+00 0.000000000000e+00 0.000000000000e+00
          0.000000000000e+00 0.000000000000e+00 2.600000000000e-01
          5.300000000000e-01 0.000000000000e+00 2.600000000000e-01
          5.300000000000e-01 0.000000000000e+00 0.000000000000e+00
          0.000000000000e+00 0.000000000000e+00 4.999999999991e-03
          0.000000000000e+00 0.000000000000e+00 9.999999999982e-03
          0.000000000000e+00 0.000000000000e+00 1.499999999997e-02
          0.000000000000e+00 0.000000000000e+00 1.999999999996e-02
          0.000000000000e+00 0.000000000000e+00 2.499999999996e-02
          0.000000000000e+00 0.000000000000e+00 2.999999999995e-02
          0.000000000000e+00 0.000000000000e+00 3.499999999994e-02
          0.000000000000e+00 0.000000000000e+00 3.999999999992e-02
          0.000000000000e+00 0.000000000000e+00 4.499999999991e-02
          0.000000000000e+00 0.000000000000e+00 4.999999999990e-02
          0.000000000000e+00 0.000000000000e+00 5.499999999988e-02
          0.000000000000e+00 0.000000000000e+00 5.999999999987e-02
          0.000000000000e+00 0.000000000000e+00 6.499999999985e-02
          0.000000000000e+00 0.000000000000e+00 6.999999999983e-02
          0.000000000000e+00 0.000000000000e+00 7.499999999983e-02
          0.000000000000e+00 0.000000000000e+00 7.999999999981e-02
          0.000000000000e+00 0.000000000000e+00 8.499999999979e-02
          0.000000000000e+00 0.000000000000e+00 8.999999999978e-02
          0.000000000000e+00 0.000000000000e+00 9.499999999977e-02
          0.000000000000e+00 0.000000000000e+00 9.999999999975e-02
          0.000000000000e+00 0.000000000000e+00 1.049999999997e-01
          0.000000000000e+00 0.000000000000e+00 1.099999999997e-01
          0.000000000000e+00 0.000000000000e+00 1.149999999997e-01
          0.000000000000e+00 0.000000000000e+00 1.199999999997e-01
          0.000000000000e+00 0.000000000000e+00 1.249999999997e-01
          0.000000000000e+00 0.000000000000e+00 1.299999999997e-01
          0.000000000000e+00 0.000000000000e+00 1.349999999997e-01
          0.000000000000e+00 0.000000000000e+00 1.399999999997e-01
          0.000000000000e+00 0.000000000000e+00 1.449999999997e-01
          0.000000000000e+00 0.000000000000e+00 1.499999999997e-01
          0.000000000000e+00 0.000000000000e+00 1.549999999997e-01
          0.000000000000e+00 0.000000000000e+00 1.599999999997e-01
          0.000000000000e+00 0.000000000000e+00 1.649999999998e-01
          0.000000000000e+00 0.000000000000e+00 1.699999999998e-01
          0.000000000000e+00 0.000000000000e+00 1.749999999998e-01
          0.000000000000e+00 0.000000000000e+00 1.799999999998e-01
          0.000000000000e+00 0.000000000000e+00 1.849999999998e-01
          0.000000000000e+00 0.000000000000e+00 1.899999999998e-01
          0.000000000000e+00 0.000000000000e+00 1.949999999998e-01
          0.000000000000e+00 0.000000000000e+00 1.999999999999e-01
          0.000000000000e+00 0.000000000000e+00 2.049999999999e-01
          0.000000000000e+00 0.000000000000e+00 2.099999999999e-01
          0.000000000000e+00 0.000000000000e+00 2.149999999999e-01
          0.000000000000e+00 0.000000000000e+00 2.199999999999e-01
          0.000000000000e+00 0.000000000000e+00 2.249999999999e-01
          0.000000000000e+00 0.000000000000e+00 2.299999999999e-01
          0.000000000000e+00 0.000000000000e+00 2.349999999999e-01
          0.000000000000e+00 0.000000000000e+00 2.399999999999e-01
          0.000000000000e+00 0.000000000000e+00 2.450000000000e-01
          0.000000000000e+00 0.000000000000e+00 2.500000000000e-01
          0.000000000000e+00 0.000000000000e+00 2.550000000000e-01
          4.999999999991e-03 0.000000000000e+00 2.600000000000e-01
          9.999999999981e-03 0.000000000000e+00 2.600000000000e-01
          1.499999999997e-02 0.000000000000e+00 2.600000000000e-01
          1.999999999996e-02 0.000000000000e+00 2.600000000000e-01
          2.499999999995e-02 0.000000000000e+00 2.600000000000e-01
          2.999999999994e-02 0.000000000000e+00 2.600000000000e-01
          3.499999999993e-02 0.000000000000e+00 2.600000000000e-01
          3.999999999992e-02 0.000000000000e+00 2.600000000000e-01
          4.499999999992e-02 0.000000000000e+00 2.600000000000e-01
          4.999999999991e-02 0.000000000000e+00 2.600000000000e-01
          5.499999999990e-02 0.000000000000e+00 2.600000000000e-01
          5.999999999990e-02 0.000000000000e+00 2.600000000000e-01
          6.499999999989e-02 0.000000000000e+00 2.600000000000e-01
          6.999999999988e-02 0.000000000000e+00 2.600000000000e-01
          7.499999999986e-02 0.000000000000e+00 2.600000000000e-01
          7.999999999985e-02 0.000000000000e+00 2.600000000000e-01
          8.499999999983e-02 0.000000000000e+00 2.600000000000e-01
          8.999999999981e-02 0.000000000000e+00 2.600000000000e-01
          9.499999999980e-02 0.000000000000e+00 2.600000000000e-01
          9.999999999979e-02 0.000000000000e+00 2.600000000000e-01
          1.049999999998e-01 0.000000000000e+00 2.600000000000e-01
          1.099999999998e-01 0.000000000000e+00 2.600000000000e-01
          1.149999999997e-01 0.000000000000e+00 2.600000000000e-01
          1.199999999997e-01 0.000000000000e+00 2.600000000000e-01
          1.249999999997e-01 0.000000000000e+00 2.600000000000e-01
          1.299999999997e-01 0.000000000000e+00 2.600000000000e-01
          1.349999999997e-01 0.000000000000e+00 2.600000000000e-01
          1.399999999997e-01 0.000000000000e+00 2.600000000000e-01
          1.449999999997e-01 0.000000000000e+00 2.600000000000e-01
          1.499999999996e-01 0.000000000000e+00 2.600000000000e-01
          1.549999999996e-01 0.000000000000e+00 2.600000000000e-01
          1.599999999996e-01 0.000000000000e+00 2.600000000000e-01
          1.649999999996e-01 0.000000000000e+00 2.600000000000e-01
          1.699999999996e-01 0.000000000000e+00 2.600000000000e-01
          1.749999999996e-01 0.000000000000e+00 2.600000000000e-01
          1.799999999995e-01 0.000000000000e+00 2.600000000000e-01
          1.849999999995e-01 0.000000000000e+00 2.600000000000e-01
          1.899999999995e-01 0.000000000000e+00 2.600000000000e-01
          1.949999999995e-01 0.000000000000e+00 2.600000000000e-01
          1.999999999995e-01 0.000000000000e+00 2.600000000000e-01
          2.049999999995e-01 0.000000000000e+00 2.600000000000e-01
          2.099999999995e-01 0.000000000000e+00 2.600000000000e-01
          2.149999999994e-01 0.000000000000e+00 2.600000000000e-01
          2.199999999994e-01 0.000000000000e+00 2.600000000000e-01
          2.249999999994e-01 0.000000000000e+00 2.600000000000e-01
          2.299999999994e-01 0.000000000000e+00 2.600000000000e-01
          2.349999999994e-01 0.000000000000e+00 2.600000000000e-01
          2.399999999994e-01 0.000000000000e+00 2.600000000000e-01
          2.449999999993e-01 0.000000000000e+00 2.600000000000e-01
          2.499999999993e-01 0.000000000000e+00 2.600000000000e-01
          2.549999999993e-01 0.000000000000e+00 2.600000000000e-01
          2.599999999993e-01 0.000000000000e+00 2.600000000000e-01
          2.649999999993e-01 0.000000000000e+00 2.600000000000e-01
          2.699999999993e-01 0.000000000000e+00 2.600000000000e-01
          2.749999999993e-01 0.000000000000e+00 2.600000000000e-01
          2.799999999993e-01 0.000000000000e+00 2.600000000000e-01
          2.849999999993e-01 0.000000000000e+00 2.600000000000e-01
          2.899999999993e-01 0.000000000000e+00 2.600000000000e-01
          2.949999999993e-01 0.000000000000e+00 2.600000000000e-01
          2.999999999994e-01 0.000000000000e+00 2.600000000000e-01
          3.049999999994e-01 0.000000000000e+00 2.600000000000e-01
          3.099999999994e-01 0.000000000000e+00 2.600000000000e-01
          3.149999999994e-01 0.000000000000e+00 2.600000000000e-01
          3.199999999994e-01 0.000000000000e+00 2.600000000000e-01
          3.249999999994e-01 0.000000000000e+00 2.600000000000e-01
          3.299999999994e-01 0.000000000000e+00 2.600000000000e-01
          3.349999999995e-01 0.000000000000e+00 2.600000000000e-01
          3.399999999995e-01 0.000000000000e+00 2.600000000000e-01
          3.449999999995e-01 0.000000000000e+00 2.600000000000e-01
          3.499999999995e-01 0.000000000000e+00 2.600000000000e-01
          3.549999999995e-01 0.000000000000e+00 2.600000000000e-01
          3.599999999995e-01 0.000000000000e+00 2.600000000000e-01
          3.649999999996e-01 0.000000000000e+00 2.600000000000e-01
          3.699999999996e-01 0.000000000000e+00 2.600000000000e-01
          3.749999999996e-01 0.000000000000e+00 2.600000000000e-01
          3.799999999996e-01 0.000000000000e+00 2.600000000000e-01
          3.849999999996e-01 0.000000000000e+00 2.600000000000e-01
          3.899999999996e-01 0.000000000000e+00 2.600000000000e-01
          3.949999999996e-01 0.000000000000e+00 2.600000000000e-01
          3.999999999996e-01 0.000000000000e+00 2.600000000000e-01
          4.049999999996e-01 0.000000000000e+00 2.600000000000e-01
          4.099999999996e-01 0.000000000000e+00 2.600000000000e-01
          4.149999999997e-01 0.000000000000e+00 2.600000000000e-01
          4.199999999997e-01 0.000000000000e+00 2.600000000000e-01
          4.249999999997e-01 0.000000000000e+00 2.600000000000e-01
          4.299999999997e-01 0.000000000000e+00 2.600000000000e-01
          4.349999999997e-01 0.000000000000e+00 2.600000000000e-01
          4.399999999997e-01 0.000000000000e+00 2.600000000000e-01
          4.449999999997e-01 0.000000000000e+00 2.600000000000e-01
[...]
      <PointData Scalars="PRESSURE1">
        <DataArray type="Float64" Name="PRESSURE1" format="ascii">
          2.566590300000e+03 -5.032530000000e+01 6.867000000000e+01 2.619270000000e+03 2.516265000000e+03 2.465939700000e+03 2.415614400000e+03 2.365289100000e+03 2.314963800000e+03 2.264638500001e+03 2.214313200001e+03 2.163987900001e+03 2.113662600001e+03 2.063337300001e+03 2.013012000001e+03 1.962686700001e+03 1.912361400001e+03 1.862036100002e+03 1.811710800002e+03 1.761385500002e+03 1.711060200002e+03 1.660734900002e+03 1.610409600002e+03 1.560084300003e+03 1.509759000003e+03 1.459433700003e+03 1.409108400003e+03 1.358783100003e+03 1.308457800003e+03 1.258132500003e+03 1.207807200003e+03 1.157481900003e+03 1.107156600003e+03 1.056831300003e+03 1.006506000003e+03 9.561807000026e+02 9.058554000024e+02 8.555301000022e+02 8.052048000022e+02 7.548795000020e+02 7.045542000019e+02 6.542289000018e+02 6.039036000017e+02 5.535783000015e+02 5.032530000014e+02 4.529277000013e+02 4.026024000011e+02 3.522771000010e+02 3.019518000009e+02 2.516265000007e+02 2.013012000006e+02 1.509759000005e+02 1.006506000004e+02 5.032530000026e+01 1.810262739710e-10 -4.622702924509e+01 -4.276093162747e+01 -3.973002839733e+01 -3.703702922288e+01 -3.458180703418e+01 -3.230792167776e+01 -3.017878038764e+01 -2.817146738172e+01 -2.625399011724e+01 -2.442674713467e+01 -2.267753945168e+01 -2.099527453342e+01 -1.937487408365e+01 -1.780877837129e+01 -1.628890535197e+01 -1.481750466859e+01 -1.339020278318e+01 -1.199864010013e+01 -1.064434140945e+01 -9.324311977851e+00 -8.034228884355e+00 -6.772119562280e+00 -5.536430037727e+00 -4.325058981565e+00 -3.137142755299e+00 -1.971445845040e+00 -8.272145600153e-01 2.985461223274e-01 1.405829856054e+00 2.496592625730e+00 3.572074587867e+00 4.631584225542e+00 5.676630527816e+00 6.708460872489e+00 7.728112604221e+00 8.736032342150e+00 9.732194119400e+00 1.071864779683e+01 1.169418461862e+01 1.266043316533e+01 1.361835188513e+01 1.456786527235e+01 1.550912655385e+01 1.644306708144e+01 1.736964758614e+01 1.829011012916e+01 1.920425162792e+01 2.011216158314e+01 2.101469289421e+01 2.191214338814e+01 2.280412804941e+01 2.369174563465e+01 2.457468737033e+01 2.545356548009e+01 2.632841758148e+01 2.719951941390e+01 2.806724728827e+01 2.893162252492e+01 2.979278441080e+01 3.065107030575e+01 3.150648142827e+01 3.235925888084e+01 3.320970035186e+01 3.405760662861e+01 3.490335218678e+01 3.574717965412e+01 3.658905841677e+01 3.742893913210e+01 3.826711946110e+01 3.910375400978e+01 3.993871110504e+01 4.077233681216e+01 4.160456712044e+01 4.243552456324e+01 4.326527144242e+01 4.409389513033e+01 4.492144037876e+01 4.574800872120e+01 4.657365314892e+01 4.739843567877e+01 4.822232047917e+01 4.904549981910e+01 4.986790107916e+01 5.068972958771e+01 5.151084232698e+01 5.233140347004e+01 5.315141128311e+01 5.397091812301e+01 5.478994052915e+01 5.560850489908e+01 5.642668963580e+01 5.724449754814e+01 5.806196449194e+01 5.887911805747e+01 5.969597675556e+01 6.051260172323e+01 6.132897532418e+01 6.214515752529e+01 6.296114657725e+01 6.377697975270e+01 6.459268736869e+01 6.540828347310e+01 6.622378750461e+01 6.703922759423e+01 6.785462637077e+01 1.177200000000e+02 1.667699999998e+02 2.158199999998e+02 2.648699999997e+02 3.139199999996e+02 3.629699999995e+02 4.120199999995e+02 4.610699999993e+02 5.101199999991e+02 5.591699999990e+02 6.082199999989e+02 6.572699999988e+02 7.063199999986e+02 7.553699999985e+02 8.044199999983e+02 8.534699999981e+02 9.025199999980e+02 9.515699999979e+02 1.000619999998e+03 1.049669999998e+03 1.098719999998e+03 1.147769999997e+03 1.196819999997e+03 1.245869999997e+03 1.294919999997e+03 1.343969999997e+03 1.393019999997e+03 1.442069999997e+03 1.491119999997e+03 1.540169999997e+03 1.589219999997e+03 1.638269999998e+03 1.687319999998e+03 1.736369999998e+03 1.785419999998e+03 1.834469999998e+03 1.883519999998e+03 1.932569999998e+03 1.981619999998e+03 2.030669999999e+03 2.079719999999e+03 2.128769999999e+03 2.177819999999e+03 2.226869999999e+03 2.275919999999e+03 2.324969999999e+03 2.374019999999e+03 2.423069999999e+03 2.472120000000e+03 2.521170000000e+03 2.570220000000e+03 2.618466634856e+03 2.617663292434e+03 2.616859995394e+03 2.616056763925e+03 2.615253622860e+03 2.614450590529e+03 2.613647694571e+03 2.612844952438e+03 2.612042399226e+03 2.611240058492e+03 2.610437953109e+03 2.609636101668e+03 2.608834534832e+03 2.608033305775e+03 2.607232401594e+03 2.606431886864e+03 2.605631772452e+03 2.604832125553e+03 2.604032969943e+03 2.603234317075e+03 2.602436190216e+03 2.601638700521e+03 2.600841867894e+03 2.600045685559e+03 2.599250319781e+03 2.598455672015e+03 2.597661961195e+03 2.596869013242e+03 2.596077150184e+03 2.595286268714e+03 2.594496525984e+03 2.593707936861e+03 2.592920643268e+03 2.592134681002e+03 2.591350061278e+03 2.590566984733e+03 2.589785684501e+03 2.589006036040e+03 2.588228195131e+03 2.587452259795e+03 2.586678584292e+03 2.585907103336e+03 2.585137844540e+03 2.584371407501e+03 2.583607693456e+03 2.582846546391e+03 2.582088680277e+03 2.581334049586e+03 2.580583011550e+03 2.579835501632e+03 2.579092567059e+03 2.578353475824e+03 2.577619218116e+03 2.576889780683e+03 2.576165755486e+03 2.575447442332e+03 2.574734928946e+03 2.574029129560e+03 2.573330556431e+03 2.572639092945e+03 2.571956013348e+03 2.571281941913e+03 2.570617549142e+03 2.569963388857e+03 2.569320829025e+03 2.568690200264e+03 2.568073538666e+03 2.567472786121e+03 2.566888651548e+03 2.566322860917e+03 2.565781509631e+03 2.565264195864e+03 2.564777911418e+03 2.564330988557e+03 2.563940286180e+03 2.563634096606e+03 2.563478296512e+03 2.563513854710e+03 2.563681465466e+03 2.563894665526e+03 2.564088447388e+03 2.564270719370e+03 2.564445758049e+03 2.564603162067e+03 2.564746566503e+03 2.564881264860e+03 2.565005216134e+03 2.565120533591e+03 2.565229627052e+03 2.565332556746e+03 2.565430531866e+03 2.565523880740e+03 2.565613683356e+03 2.565700062079e+03 2.565783370890e+03 2.565864420757e+03 2.565942970946e+03 2.566019743991e+03 2.566094595131e+03 2.566168064041e+03 2.566240336466e+03 2.566311528299e+03 2.566381927485e+03 2.566451717642e+03 2.566521105120e+03 8.508409768834e+02 8.143773823738e+02 1.789368950354e+03 2.198485498721e+03 4.447261309328e+02 2.237434264060e+03 3.666440931952e+02 6.360969911659e+02 1.311473957545e+03 2.335440776192e+03 2.652270952523e+02 5.201601259968e+02 2.011510986779e+03 5.762896218560e+02 1.943524481190e+03 2.325991579683e+03 2.702095011722e+02 6.410291177889e+02 2.344672575423e+03 2.793173150014e+02 8.108480425335e+02 6.213674216311e+02 1.953127970467e+03 2.178111336508e+03 3.957153818653e+02 1.998862864120e+03 5.819858396789e+02 6.604461128415e+02 2.005784754984e+03 1.813594390564e+03 4.982698076694e+02 8.223521033621e+02 1.741192913463e+03 1.825758621993e+03 3.168106673766e+02 8.675328787584e+02 1.982535426912e+03 2.344677868293e+03 5.286586516913e+02 1.982710693596e+03 6.339812264432e+02 7.202447715020e+02 1.852683674823e+03 2.014943686702e+03 2.113044263752e+03 2.098871738025e+03 3.123878971081e+02 2.820554668956e+02 2.079533725348e+03 2.120961943082e+03 2.150875828622e+03 4.558622572335e+02 5.163024392186e+02 2.194573652387e+03 2.121807706211e+03 3.649934603473e+02 4.163951591857e+02 2.217308620295e+03 3.217535877842e+02 2.339995160024e+03 4.709388924329e+02 2.269986511211e+03 1.867112702680e+02 2.214455543244e+03 2.363621040610e+03 2.418259053435e+03 3.165330322203e+02 2.321134115512e+03 3.127879809488e+02 2.020436713552e+02 2.447688028774e+03 2.255799667980e+02 2.445260888310e+03 2.472542590686e+03 2.679345292544e+02 2.499957933914e+03 1.200056834846e+02 2.413468343451e+03 2.471221974750e+03 2.156397809008e+02 2.464482864467e+03 2.508234823020e+03 2.522081534812e+03 2.489002408906e+03 1.415419373312e+02 8.086313974649e+02 1.770611235692e+03 7.993911623948e+02 1.369905264931e+03 4.948572886854e+02 2.113864590253e+03 2.107738953614e+03 3.978292962973e+02 4.802996335276e+02 3.010451302854e+02 2.297256875207e+03 9.608053759164e+02 1.780777388900e+03 1.958455835001e+03 2.340276197135e+03 1.591762733061e+03 9.771085119503e+02 3.230144300511e+02 1.654139824953e+03 2.425138906068e+03 1.607479179684e+03 4.738726237673e+02 2.123637844830e+03 1.479469800929e+02 9.867895579187e+02 1.671308608120e+03 9.383694114745e+02 4.034773266374e+02 1.170131872078e+03 2.169898292619e+03 3.646745839020e+02 1.561475985848e+02 9.314340909510e+02 1.706523250084e+03 2.032175305074e+03 5.910684661416e+02 2.832816553954e+02 2.422419114410e+03 1.769685558499e+02 2.242287181214e+03 1.471375918456e+03 1.087356851411e+03 2.168612716546e+02 2.425605527521e+03 2.250692926951e+03 2.354753859914e+03 3.321764112544e+02 2.382478235911e+03 3.371458629883e+02 2.304179151017e+03 2.369782448985e+03 2.179472831608e+03 2.385746632516e+03 2.237169058788e+03 2.371364994005e+03 1.352383036256e+03 2.188656692994e+03 4.262002597487e+02 1.802175554571e+02 2.436046601486e+03 8.536660470036e+01 2.482067132490e+03 1.903997081836e+03 7.419844834231e+02 2.084663991255e+03 7.653685903525e+02 1.667122250894e+03 2.379816298116e+03 2.456159208186e+03 2.179555978256e+02 2.042275379390e+02 9.935297995729e+01 7.240709953107e+02 2.676914902173e+02 2.340624659108e+03 1.233484880108e+02 9.837570167428e+02 1.241655009880e+03 2.262708536703e+03 6.203417853935e+02 1.106603707846e+03 6.652856485821e+02 2.741991725247e+02 2.411031815262e+03 2.009994716872e+03 6.522374372507e+02 2.771042705313e+02 1.382516588128e+02 1.952251820022e+02 2.328995580480e+03 2.019804496871e+03 1.596443818754e+03 1.974283819134e+03 5.111066030099e+02 2.088307473942e+03 1.722753691027e+03 1.889441522330e+02 5.302200752739e+02 2.086879559924e+03 2.237145284650e+03 3.748110702228e+02 2.105591905938e+03 2.169794423510e+03 2.361033451329e+03 1.045616327600e+03 2.472559863344e+03 6.976023412829e+02 1.795855689152e+03 1.260479801004e+02 1.322439097073e+02 8.002624017003e+02 2.106978589562e+03 1.371220291897e+02 1.509535363165e+02 1.908140875677e+03 2.215256502412e+03 9.461414079329e+02 5.824511905993e+02 1.837095473237e+02 4.315523526383e+02 2.480329564120e+02 7.920363980359e+02 1.205104545751e+02 6.069619402153e+02 2.486292284442e+03 1.737651627016e+03 2.152254375280e+03 3.199267178513e+02 7.690416625691e+02 2.419497278120e+03 1.542367213260e+02 5.738670834410e+02 7.487127776700e+02 2.135067113072e+03 4.920355616327e+02 2.234815948086e+03 5.717065590598e+02 2.523539804827e+03 4.262945033265e+02 1.488095462304e+02 2.464354410251e+03 4.789894620265e+02 3.696047946548e+02 2.462234038961e+03 1.439687867248e+02 2.456090569261e+03 2.229100077232e+03 3.091853434503e+02 2.458883550415e+03 3.389423750133e+02 2.906100795344e+02 1.415436722733e+02 2.458000379787e+03 4.969741377516e+02 5.251323091060e+02 1.866994182015e+03 5.247911004550e+02 2.475393779101e+03 5.009193930765e+02 6.244861673861e+02 5.783110482276e+02 1.771048010096e+02 6.298089148039e+02 1.907159940907e+03 3.257572110258e+02 2.274651595008e+03 3.875775425345e+02 1.233741098888e+02 2.478099868519e+03 2.043468926243e+03 2.337010516165e+03 2.514695926351e+02 4.649823388259e+02 3.520737522523e+02 1.894997076934e+03 4.046423836545e+02 2.507449493551e+03 8.188970858602e+02 2.426041485210e+03 1.256530648168e+02 2.475216923173e+03 2.338802678982e+03 7.490661399920e+01 5.452128105670e+02 1.965680687952e+03 2.529246094923e+03 2.256115030461e+03 2.330997139135e+03 1.532252570382e+02 2.430139873692e+03 2.720584783811e+02 2.283498810601e+03 3.184503354046e+02 7.345587902266e+02 1.933014927208e+03 1.730175264526e+02 6.895648878469e+02 3.749396050483e+02 1.314512882976e+02 2.388703425922e+03 2.274749119652e+02 2.291674793258e+03 1.885328388015e+03 2.439666898343e+02 1.807384428461e+03 1.242019281490e+02 2.355805496743e+03 2.470721227244e+03 4.518958797845e+01 2.345754208079e+03 2.095281754919e+02 3.260291072216e+02 2.276375455579e+03 2.513447244878e+03 2.811485753352e+02 2.242915000400e+03 2.359372940578e+02 2.399944596675e+03 1.047947428742e+02 2.402126778015e+03 2.541718282421e+03 2.102735106507e+03 2.345741622226e+03 2.490759590207e+03 5.352068385978e+02 2.319598054055e+03 2.064466387229e+02 2.523860728627e+03 1.671225942893e+02 2.414714283786e+03 2.293152301169e+02 6.761366230398e+02 1.287418866582e+02 2.539573768524e+03 2.228604695823e+03 4.883382956328e+02 1.555105388308e+02 2.516762790967e+02 2.439451394830e+03 6.832700390862e+02 2.522251047824e+03 6.145877585764e+02 1.989734129183e+03 2.288791750131e+03 2.400939863679e+03 2.304048820647e+03 2.561818751534e+02 3.015532199157e+02 4.614440115483e+02 2.271469611309e+03 8.536914364401e+01 2.268383148735e+02 8.260059320942e+01 2.025154294448e+02 2.189033140791e+03 2.426688448376e+03 2.444644988356e+03 2.537779140053e+03 2.453534614233e+03 2.391862272031e+02 3.691964466239e+02 1.394214866561e+02 6.353914254964e+02 5.433321204258e+02 6.632576164333e+02 6.831681868143e+02 4.596844141232e+02 1.949831174082e+03 1.803183910602e+02 1.097385547798e+02 2.382880991581e+03 2.026647196403e+03 2.501060574358e+03 1.466120303093e+02 2.185439812318e+03 1.774068707954e+03 1.913963312260e+03 8.358312260233e+02 1.775776016589e+03 1.551414489121e+03 1.343148030983e+03 1.225218008042e+03 1.092490658107e+03 1.240821017892e+03 1.944811146912e+03 1.733411634874e+03 5.946609922027e+02 1.109287041612e+03 6.020647146985e+02 1.340033810345e+03 1.241687104126e+03 1.383229891854e+03 1.432137174262e+03 7.992491272278e+02 1.454795178607e+03 7.696730161554e+02 1.347170545733e+03 1.622912188125e+03 1.007861334373e+03 1.081563034785e+03 1.917512879632e+03 1.003993427927e+03 1.157104034327e+03 9.140496278404e+02 1.957476134161e+03 1.893754753829e+03 1.553105925519e+03 8.990947069038e+02 1.898767644800e+03 1.957087088519e+03 1.409540406747e+03 1.457780177135e+03 1.571145442190e+03 1.020104434338e+03 1.982081728925e+03 1.575077709395e+03 1.149930509902e+03 6.576331484646e+02 6.243320165195e+02 2.308045326538e+02 9.344092664078e+02 1.364268695270e+03 1.599873132219e+03 1.636519918494e+03 1.558397915563e+03 1.207861425048e+03 2.366792741163e+03 1.878154121983e+03 1.630216862568e+02 1.120646134352e+03 1.841431090776e+03 1.437050474575e+03 1.655405169558e+03 2.519980309578e+02 1.719059387206e+03 2.349732912819e+02 2.383868654932e+03 1.181814813563e+03 7.161202581623e+02 1.671299687799e+03 2.145944027027e+03 8.985261468792e+02 4.551492684265e+02 1.945046323614e+03 6.615607506025e+02 2.149019685147e+03 1.769922589466e+03 9.389024356936e+02 2.445052269775e+03 1.789328173409e+02 1.210962189382e+03 3.689786372033e+02 1.532705541947e+03 2.181009446224e+03 2.440426284641e+03 2.422747716271e+03 6.649384464095e+02 2.328429506112e+03 2.069825996450e+03 5.492614650350e+02 1.835278710022e+03 1.079705141678e+03 6.169668270086e+02 1.660961912223e+02 2.001162429514e+03 1.449903902495e+02 5.365950451466e+02 2.452735196910e+03 1.474923187036e+02 3.182614434338e+02 9.637223039342e+02 2.296127418117e+03 1.786905736624e+03 1.082429357730e+03 1.948918433124e+03 8.081749238759e+02 4.668118613549e+02 7.973543771736e+02 7.533515398750e+02 7.381144154443e+02 1.179715525664e+02 2.211762567881e+03 2.368137416022e+02 4.509701669306e+02 6.101265247979e+02 6.897588391332e+02 5.585860699666e+02 1.756152254278e+02 2.343013480789e+03 9.426065822218e+02 8.849156756673e+02 2.104497284428e+02 2.068491916191e+03 2.399572481013e+03 1.987930179170e+03 5.446954931096e+02 2.003653588447e+03 2.234397150531e+03 1.575761351737e+03 1.012715648973e+03 2.106309387977e+03 2.454913183282e+03 2.071449285331e+02 2.181012037846e+03 2.159683566510e+02 1.386904436085e+03 8.269753449071e+02 6.221355324343e+02 2.105689304827e+03 4.370742784792e+02 2.140975567725e+03 2.053392217537e+03 3.210326989769e+02 7.578561452117e+01 2.508327101865e+02 1.906636976189e+03 2.226776147662e+03 4.715469604827e+02 4.551722666400e+02 2.134803660096e+03 3.718486391053e+02 1.356263903556e+03 4.321854718216e+02 1.765310112084e+03 1.009641135407e+03 4.432575653288e+02 1.200026074453e+03 2.265459893257e+03 2.726800158396e+02 4.957313415996e+02 1.895815547572e+03 1.429552763753e+02 2.131260978853e+03 2.168708889852e+03 1.096039641226e+02 2.265666290567e+03 2.091573611775e+03 2.482180120708e+03 6.868881153034e+02 2.276444974316e+03 1.868603043724e+03 2.276877765371e+03 2.289593549256e+03 2.251504142194e+03 2.279941700079e+03 2.276854647236e+03 1.640873177433e+03 2.154082944871e+03 2.077518046857e+03 1.964492376927e+03 2.116965911781e+03 2.616402104343e+02 4.247051181585e+02 3.460324362663e+02 3.862858907472e+02 8.457534638317e+02 1.733483965575e+03 5.299926415542e+02 3.533515217484e+02 2.423950218963e+03 2.356750519195e+03 2.211495794236e+02 1.674246318521e+02 2.330072366173e+03 1.708484988787e+03 4.726178130193e+02 1.705972733870e+03 2.931081731670e+02 1.741564814086e+03 3.746788302693e+02 4.236386427927e+02 2.063979231919e+03 2.893123313750e+02 7.075588410858e+02 2.362397645896e+02 6.676333580764e+02 1.956411253205e+03 2.166278022690e+02 2.099990507494e+03 7.187431366233e+02 1.891930102296e+03 2.485622053048e+03 8.296616284395e+02 4.859186996031e+02 2.343671701125e+03 6.156961283170e+02 2.396932910561e+03 1.972534201987e+03 2.569713050092e+02 3.355048396935e+02 1.799668625749e+02 2.317434783686e+03 2.000451307733e+03 2.555319859399e+02 2.225647721247e+03 9.487796421274e+02 1.789898273591e+03 1.852690491817e+03 4.229536226150e+02 2.013441662621e+03 3.045335245052e+02 1.873623172534e+03 2.267292843358e+03 4.777505230723e+02 6.084744479989e+02 7.820938633085e+02 8.783377028054e+01 2.771452760185e+02 1.923391092795e+03 1.861848849881e+03 9.890305815047e+01 2.456505462365e+03 2.357510231504e+03 1.819927260236e+03 7.468718720035e+01 2.641577909739e+02 1.717717641671e+02 2.433036546176e+03 2.196778459700e+03 2.456038368553e+03 2.187359689287e+03 1.133014857693e+03 4.822148565096e+02 2.007045572640e+03 1.033722054633e+02 2.374648907461e+02 2.266361621724e+03 7.210156191403e+02 6.925459972731e+02 2.348622709260e+03 1.313883088483e+03 1.732131680719e+03 1.061949285006e+02 1.802578031988e+03 2.292574263069e+03 2.403825530728e+03 3.088079666656e+02 2.032126194531e+02 3.631939409994e+02 1.902221049707e+02 3.922402527295e+02 7.174322624188e+02 1.930125367990e+03 4.815698469710e+02 2.521420614408e+03 2.260977122106e+03 2.463246775166e+03 2.718262274655e+02 2.051909031088e+03 4.185616326778e+02 1.596509481635e+03 2.501824357597e+03 2.387174081486e+03 2.384369303095e+03 6.581524631796e+02 2.170038845210e+02 1.102019415980e+02 2.255737303831e+02 5.486610281974e+02 2.071982517448e+03 2.127874888006e+03 2.100143945320e+03 2.193132765493e+03 2.142848413819e+03 2.367140959734e+03 2.070326380431e+03 2.268322476743e+03 1.182737353129e+03 7.921211268921e+02 3.451872179003e+02 1.985191354852e+03 2.185559638386e+03 2.404030985707e+03 9.596479939850e+02 2.286414427794e+03 3.337313495819e+02 1.865471061009e+03 7.277186038651e+02 1.590180956235e+03 1.951739115936e+02 2.272752269294e+03 2.246580621648e+03 1.847423740007e+03 2.910620910782e+02 2.180701887748e+03 2.530482746677e+03 1.725967922300e+03 2.038863419627e+03 2.058212746931e+03 2.374495448287e+03 2.521023629675e+03 2.098420181448e+03 2.317749606661e+02 2.150687015048e+03 2.246531838907e+03 7.724943769434e+02 8.722825786182e+02 8.396022310825e+01 3.958514748064e+02 6.927530068191e+02 5.224335000354e+02 1.737021109137e+03 1.501229371272e+03 3.474401008875e+02 1.969675950554e+03 2.506181016727e+03 5.926664069169e+02 2.176381458980e+03 1.818277469060e+03 3.242687004789e+02 4.409372195461e+02 4.572113255694e+02 2.422941831371e+03 6.594485926706e+01 2.396442710127e+03 2.172544128770e+03 2.435605942853e+03 3.281929348455e+02 2.392117834636e+03 2.103808495872e+03 6.775454731506e+02 2.029108162568e+03 5.970313778315e+02 2.224749057470e+03 7.037830556429e+02 3.920258960255e+02 8.835687740889e+02 4.167198197492e+02 2.068880476273e+03 2.386296261437e+03 6.058921145172e+02 3.495396702624e+02 2.355636604191e+02 2.163247578016e+03 2.090836181463e+03 4.175317835706e+02 1.849649874867e+02 1.935368668644e+03 2.017315884260e+03 1.678643948876e+03 4.821975566261e+02 2.381402761883e+03 1.711655219285e+03 2.247590843959e+03 3.