 TITLE = "Profiles along polylines"
 VARIABLES = "DIST" "PRESSURE1" "SATURATION1" "SATURATION2" 
 ZONE T="TIME=0.000000000000e+00"
0.000000000000e+00 9.806700000000e+04 1.000000000000e+00 0.000000000000e+00 
3.333333330000e-01 9.806700000000e+04 1.000000000000e+00 0.000000000000e+00 
6.666666670000e-01 9.806700000000e+04 1.000000000000e+00 0.000000000000e+00 
1.000000000000e+00 9.806700000000e+04 1.000000000000e+00 0.000000000000e+00 
1.333333333000e+00 9.806700000000e+04 1.000000000000e+00 0.000000000000e+00 
1.666666667000e+00 9.806700000000e+04 1.000000000000e+00 0.000000000000e+00 
2.000000000000e+00 9.806700000000e+04 1.000000000000e+00 0.000000000000e+00 
2.333333333000e+00 9.806700000000e+04 1.000000000000e+00 0.000000000000e+00 
2.666666667000e+00 9.806700000000e+04 1.000000000000e+00 0.000000000000e+00 
3.000000000000e+00 9.806700000000e+04 1.000000000000e+00 0.000000000000e+00 
3.333333333000e+00 9.806700000000e+04 1.000000000000e+00 0.000000000000e+00 
3.666666667000e+00 9.806700000000e+04 1.000000000000e+00 0.000000000000e+00 
4.000000000000e+00 9.806700000000e+04 1.000000000000e+00 0.000000000000e+00 
4.333333333000e+00 9.806700000000e+04 1.000000000000e+00 0.000000000000e+00 
4.666666667000e+00 9.806700000000e+04 1.000000000000e+00 0.000000000000e+00 
5.000000000000e+00 9.806700000000e+04 8.999977480000e-01 1.000022520000e-01 
5.333333333000e+00 9.806700000000e+04 8.999977480000e-01 1.000022520000e-01 
5.666666667000e+00 9.806700000000e+04 8.999977480000e-01 1.000022520000e-01 
6.000000000000e+00 9.806700000000e+04 8.999977480000e-01 1.000022520000e-01 
6.333333333000e+00 9.806700000000e+04 8.999977480000e-01 1.000022520000e-01 
6.666666667000e+00 9.806700000000e+04 8.999977480000e-01 1.000022520000e-01 
7.000000000000e+00 9.806700000000e+04 8.999977480000e-01 1.000022520000e-01 
7.333333333000e+00 9.806700000000e+04 8.999977480000e-01 1.000022520000e-01 
7.666666667000e+00 9.806700000000e+04 8.999977480000e-01 1.000022520000e-01 
8.000000000000e+00 9.806700000000e+04 8.999977480000e-01 1.000022520000e-01 
8.333333333000e+00 9.806700000000e+04 8.999977480000e-01 1.000022520000e-01 
8.666666667000e+00 9.806700000000e+04 8.999977480000e-01 1.000022520000e-01 
9.000000000000e+00 9.806700000000e+04 8.999977480000e-01 1.000022520000e-01 
9.333333333000e+00 9.806700000000e+04 8.999977480000e-01 1.000022520000e-01 
9.666666667000e+00 9.806700000000e+04 8.999977480000e-01 1.000022520000e-01 
1.000000000000e+01 9.806700000000e+04 8.999977480000e-01 1.000022520000e-01 
1.033333333000e+01 9.806700000000e+04 1.000000000000e+00 0.000000000000e+00 
1.066666667000e+01 9.806700000000e+04 1.000000000000e+00 0.000000000000e+00 
1.100000000000e+01 9.806700000000e+04 1.000000000000e+00 0.000000000000e+00 
1.133333333000e+01 9.806700000000e+04 1.000000000000e+00 0.000000000000e+00 
1.166666667000e+01 9.806700000000e+04 1.000000000000e+00 0.000000000000e+00 
1.200000000000e+01 9.806700000000e+04 1.000000000000e+00 0.000000000000e+00 
1.233333333000e+01 9.806700000000e+04 1.000000000000e+00 0.000000000000e+00 
1.266666667000e+01 9.806700000000e+04 1.000000000000e+00 0.000000000000e+00 
1.300000000000e+01 9.806700000000e+04 1.000000000000e+00 0.000000000000e+00 
1.333333333000e+01 9.806700000000e+04 1.000000000000e+00 0.000000000000e+00 
1.366666667000e+01 9.806700000000e+04 1.000000000000e+00 0.000000000000e+00 
1.400000000000e+01 9.806700000000e+04 1.000000000000e+00 0.000000000000e+00 
1.433333333000e+01 9.806700000000e+04 1.000000000000e+00 0.000000000000e+00 
1.466666667000e+01 9.806700000000e+04 1.000000000000e+00 0.000000000000e+00 
1.500000000000e+01 9.806700000000e+04 1.000000000000e+00 0.000000000000e+00 
1.533333333000e+01 9.806700000000e+04 1.000000000000e+00 0.000000000000e+00 
1.566666667000e+01 9.806700000000e+04 1.000000000000e+00 0.000000000000e+00 
1.600000000000e+01 9.806700000000e+04 1.000000000000e+00 0.000000000000e+00 
1.633333333000e+01 9.806700000000e+04 1.000000000000e+00 0.000000000000e+00 
1.666666667000e+01 9.806700000000e+04 1.000000000000e+00 0.000000000000e+00 
1.700000000000e+01 9.806700000000e+04 1.000000000000e+00 0.000000000000e+00 
1.733333333000e+01 9.806700000000e+04 1.000000000000e+00 0.000000000000e+00 
1.766666667000e+01 9.806700000000e+04 1.000000000000e+00 0.000000000000e+00 
1.800000000000e+01 9.806700000000e+04 1.000000000000e+00 0.000000000000e+00 
1.833333333000e+01 9.806700000000e+04 1.000000000000e+00 0.000000000000e+00 
1.866666667000e+01 9.806700000000e+04 1.000000000000e+00 0.000000000000e+00 
1.900000000000e+01 9.806700000000e+04 1.000000000000e+00 0.000000000000e+00 
1.933333333000e+01 9.806700000000e+04 1.000000000000e+00 0.000000000000e+00 
1.966666667000e+01 9.806700000000e+04 1.000000000000e+00 0.000000000000e+00 
2.000000000000e+01 9.806700000000e+04 1.000000000000e+00 0.000000000000e+00 
2.033333333000e+01 9.806700000000e+04 1.000000000000e+00 0.000000000000e+00 
2.066666667000e+01 9.806700000000e+04 1.000000000000e+00 0.000000000000e+00 
2.100000000000e+01 9.806700000000e+04 1.000000000000e+00 0.000000000000e+00 
2.133333333000e+01 9.806700000000e+04 1.000000000000e+00 0.000000000000e+00 
2.166666667000e+01 9.806700000000e+04 1.000000000000e+00 0.000000000000e+00 
2.200000000000e+01 9.806700000000e+04 1.000000000000e+00 0.000000000000e+00 
2.233333333000e+01 9.806700000000e+04 1.000000000000e+00 0.000000000000e+00 
2.266666667000e+01 9.806700000000e+04 1.000000000000e+00 0.000000000000e+00 
2.300000000000e+01 9.806700000000e+04 1.000000000000e+00 0.000000000000e+00 
2.333333333000e+01 9.806700000000e+04 1.000000000000e+00 0.000000000000e+00 
2.366666667000e+01 9.806700000000e+04 1.000000000000e+00 0.000000000000e+00 
2.400000000000e+01 9.806700000000e+04 1.000000000000e+00 0.000000000000e+00 
2.433333333000e+01 9.806700000000e+04 1.000000000000e+00 0.000000000000e+00 
2.466666667000e+01 9.806700000000e+04 1.000000000000e+00 0.000000000000e+00 
2.500000000000e+01 9.806700000000e+04 1.000000000000e+00 0.000000000000e+00 
2.533333333000e+01 9.806700000000e+04 1.000000000000e+00 0.000000000000e+00 
2.566666667000e+01 9.806700000000e+04 1.000000000000e+00 0.000000000000e+00 
2.600000000000e+01 9.806700000000e+04 1.000000000000e+00 0.000000000000e+00 
2.633333333000e+01 9.806700000000e+04 1.000000000000e+00 0.000000000000e+00 
2.666666667000e+01 9.806700000000e+04 1.000000000000e+00 0.000000000000e+00 
2.700000000000e+01 9.806700000000e+04 1.000000000000e+00 0.000000000000e+00 
2.733333333000e+01 9.806700000000e+04 1.000000000000e+00 0.000000000000e+00 
2.766666667000e+01 9.806700000000e+04 1.000000000000e+00 0.000000000000e+00 
2.800000000000e+01 9.806700000000e+04 1.000000000000e+00 0.000000000000e+00 
2.833333333000e+01 9.806700000000e+04 1.000000000000e+00 0.000000000000e+00 
2.866666667000e+01 9.806700000000e+04 1.000000000000e+00 0.000000000000e+00 
2.900000000000e+01 9.806700000000e+04 1.000000000000e+00 0.000000000000e+00 
2.933333333000e+01 9.806700000000e+04 1.000000000000e+00 0.000000000000e+00 
2.966666667000e+01 9.806700000000e+04 1.000000000000e+00 0.000000000000e+00 
3.000000000000e+01 9.806700000000e+04 1.000000000000e+00 0.000000000000e+00 
3.033333333000e+01 9.806700000000e+04 1.000000000000e+00 0.000000000000e+00 
3.066666667000e+01 9.806700000000e+04 1.000000000000e+00 0.000000000000e+00 
3.100000000000e+01 9.806700000000e+04 1.000000000000e+00 0.000000000000e+00 
3.133333333000e+01 9.806700000000e+04 1.000000000000e+00 0.000000000000e+00 
3.166666667000e+01 9.806700000000e+04 1.000000000000e+00 0.000000000000e+00 
3.200000000000e+01 9.806700000000e+04 1.000000000000e+00 0.000000000000e+00 
3.233333333000e+01 9.806700000000e+04 1.000000000000e+00 0.000000000000e+00 
3.266666667000e+01 9.806700000000e+04 1.000000000000e+00 0.000000000000e+00 
3.300000000000e+01 9.806700000000e+04 1.000000000000e+00 0.000000000000e+00 
3.333333333000e+01 9.806700000000e+04 1.000000000000e+00 0.000000000000e+00 
3.366666667000e+01 9.806700000000e+04 1.000000000000e+00 0.000000000000e+00 
3.400000000000e+01 9.806700000000e+04 1.000000000000e+00 0.000000000000e+00 
3.433333333000e+01 9.806700000000e+04 1.000000000000e+00 0.000000000000e+00 
3.466666667000e+01 9.806700000000e+04 1.000000000000e+00 0.000000000000e+00 
3.500000000000e+01 9.806700000000e+04 1.000000000000e+00 0.000000000000e+00 
3.533333333000e+01 9.806700000000e+04 1.000000000000e+00 0.000000000000e+00 
3.566666667000e+01 9.806700000000e+04 1.000000000000e+00 0.000000000000e+00 
3.600000000000e+01 9.806700000000e+04 1.000000000000e+00 0.000000000000e+00 
3.633333333000e+01 9.806700000000e+04 1.000000000000e+00 0.000000000000e+00 
3.666666667000e+01 9.806700000000e+04 1.000000000000e+00 0.000000000000e+00 
3.700000000000e+01 9.806700000000e+04 1.000000000000e+00 0.000000000000e+00 
3.733333333000e+01 9.806700000000e+04 1.000000000000e+00 0.000000000000e+00 
3.766666667000e+01 9.806700000000e+04 1.000000000000e+00 0.000000000000e+00 
3.800000000000e+01 9.806700000000e+04 1.000000000000e+00 0.000000000000e+00 
3.833333333000e+01 9.806700000000e+04 1.000000000000e+00 0.000000000000e+00 
3.866666667000e+01 9.806700000000e+04 1.000000000000e+00 0.000000000000e+00 
3.900000000000e+01 9.806700000000e+04 1.000000000000e+00 0.000000000000e+00 
3.933333333000e+01 9.806700000000e+04 1.000000000000e+00 0.000000000000e+00 
3.966666667000e+01 9.806700000000e+04 1.000000000000e+00 0.000000000000e+00 
4.000000000000e+01 9.806700000000e+04 1.000000000000e+00 0.000000000000e+00 
4.033333333000e+01 9.806700000000e+04 1.000000000000e+00 0.000000000000e+00 
4.066666667000e+01 9.806700000000e+04 1.000000000000e+00 0.000000000000e+00 
4.100000000000e+01 9.806700000000e+04 1.000000000000e+00 0.000000000000e+00 
4.133333333000e+01 9.806700000000e+04 1.000000000000e+00 0.000000000000e+00 
4.166666667000e+01 9.806700000000e+04 1.000000000000e+00 0.000000000000e+00 
4.200000000000e+01 9.806700000000e+04 1.000000000000e+00 0.000000000000e+00 
4.233333333000e+01 9.806700000000e+04 1.000000000000e+00 0.000000000000e+00 
4.266666667000e+01 9.806700000000e+04 1.000000000000e+00 0.000000000000e+00 
4.300000000000e+01 9.806700000000e+04 1.000000000000e+00 0.000000000000e+00 
4.333333333000e+01 9.806700000000e+04 1.000000000000e+00 0.000000000000e+00 
4.366666667000e+01 9.806700000000e+04 1.000000000000e+00 0.000000000000e+00 
4.400000000000e+01 9.806700000000e+04 1.000000000000e+00 0.000000000000e+00 
4.433333333000e+01 9.806700000000e+04 1.000000000000e+00 0.000000000000e+00 
4.466666667000e+01 9.806700000000e+04 1.000000000000e+00 0.000000000000e+00 
4.500000000000e+01 9.806700000000e+04 1.000000000000e+00 0.000000000000e+00 
4.533333333000e+01 9.806700000000e+04 1.000000000000e+00 0.000000000000e+00 
4.566666667000e+01 9.806700000000e+04 1.000000000000e+00 0.000000000000e+00 
4.600000000000e+01 9.806700000000e+04 1.000000000000e+00 0.000000000000e+00 
4.633333333000e+01 9.806700000000e+04 1.000000000000e+00 0.000000000000e+00 
4.666666667000e+01 9.806700000000e+04 1.000000000000e+00 0.000000000000e+00 
4.700000000000e+01 9.806700000000e+04 1.000000000000e+00 0.000000000000e+00 
4.733333333000e+01 9.806700000000e+04 1.000000000000e+00 0.000000000000e+00 
4.766666667000e+01 9.806700000000e+04 1.000000000000e+00 0.000000000000e+00 
4.800000000000e+01 9.806700000000e+04 1.000000000000e+00 0.000000000000e+00 
4.833333333000e+01 9.806700000000e+04 1.000000000000e+00 0.000000000000e+00 
4.866666667000e+01 9.806700000000e+04 1.000000000000e+00 0.000000000000e+00 
4.900000000000e+01 9.806700000000e+04 1.000000000000e+00 0.000000000000e+00 
4.933333333000e+01 9.806700000000e+04 1.000000000000e+00 0.000000000000e+00 
4.966666667000e+01 9.806700000000e+04 1.000000000000e+00 0.000000000000e+00 
5.000000000000e+01 9.806700000000e+04 1.000000000000e+00 0.000000000000e+00 
 TITLE = "Profiles along polylines"
 VARIABLES = "DIST" "PRESSURE1" "SATURATION1" "SATURATION2" 
 ZONE T="TIME=2.160000000000e+04"
0.000000000000e+00 9.810000000000e+04 1.000000000000e+00 0.000000000000e+00 
3.333333330000e-01 9.806924540908e+04 1.000000000000e+00 0.000000000000e+00 
6.666666670000e-01 9.803849081806e+04 1.000000000000e+00 0.000000000000e+00 
1.000000000000e+00 9.800773622714e+04 1.000000000000e+00 0.000000000000e+00 
1.333333333000e+00 9.797698163622e+04 1.000000000000e+00 0.000000000000e+00 
1.666666667000e+00 9.794622704520e+04 1.000000000000e+00 0.000000000000e+00 
2.000000000000e+00 9.791547245428e+04 1.000000000000e+00 0.000000000000e+00 
2.333333333000e+00 9.788471786336e+04 1.000000000000e+00 0.000000000000e+00 
2.666666667000e+00 9.785396327235e+04 1.000000000000e+00 0.000000000000e+00 
3.000000000000e+00 9.782320868143e+04 1.000000000000e+00 0.000000000000e+00 
3.333333333000e+00 9.779245409052e+04 1.000000000000e+00 0.000000000000e+00 
3.666666667000e+00 9.776169949951e+04 1.000000000000e+00 0.000000000000e+00 
4.000000000000e+00 9.773094490860e+04 1.000000000000e+00 0.000000000000e+00 
4.333333333000e+00 9.770019031769e+04 1.000000000000e+00 0.000000000000e+00 
4.666666667000e+00 9.766943572669e+04 1.000000000000e+00 0.000000000000e+00 
5.000000000000e+00 9.763109328442e+04 8.999977480000e-01 1.000022520000e-01 
5.333333333000e+00 9.758189631487e+04 8.999977480000e-01 1.000022520000e-01 
5.666666667000e+00 9.753269934517e+04 8.999977480000e-01 1.000022520000e-01 
6.000000000000e+00 9.748350237562e+04 8.999977480000e-01 1.000022520000e-01 
6.333333333000e+00 9.743430540608e+04 8.999977480000e-01 1.000022520000e-01 
6.666666667000e+00 9.738510843639e+04 8.999977480000e-01 1.000022520000e-01 
7.000000000000e+00 9.733591146685e+04 8.999977480000e-01 1.000022520000e-01 
7.333333333000e+00 9.728671449731e+04 8.999977480000e-01 1.000022520000e-01 
7.666666667000e+00 9.723751752763e+04 8.999977480000e-01 1.000022520000e-01 
8.000000000000e+00 9.718832055810e+04 8.999977480000e-01 1.000022520000e-01 
8.333333333000e+00 9.713912358857e+04 8.999977480000e-01 1.000022520000e-01 
8.666666667000e+00 9.708992661889e+04 8.999977480000e-01 1.000022520000e-01 
9.000000000000e+00 9.704072964937e+04 8.999977480000e-01 1.000022520000e-01 
9.333333333000e+00 9.699153267984e+04 8.999977480000e-01 1.000022520000e-01 
9.666666667000e+00 9.694233571018e+04 8.999977480000e-01 1.000022520000e-01 
1.000000000000e+01 9.689313874066e+04 8.999977480000e-01 1.000022520000e-01 
1.033333333000e+01 9.685479629877e+04 1.000000000000e+00 0.000000000000e+00 
1.066666667000e+01 9.682404170724e+04 1.000000000000e+00 0.000000000000e+00 
1.100000000000e+01 9.679328711665e+04 1.000000000000e+00 0.000000000000e+00 
1.133333333000e+01 9.676253252605e+04 1.000000000000e+00 0.000000000000e+00 
1.166666667000e+01 9.673177793453e+04 1.000000000000e+00 0.000000000000e+00 
1.200000000000e+01 9.670102334394e+04 1.000000000000e+00 0.000000000000e+00 
1.233333333000e+01 9.667026875335e+04 1.000000000000e+00 0.000000000000e+00 
1.266666667000e+01 9.663951416185e+04 1.000000000000e+00 0.000000000000e+00 
1.300000000000e+01 9.660875957126e+04 1.000000000000e+00 0.000000000000e+00 
1.333333333000e+01 9.657800498068e+04 1.000000000000e+00 0.000000000000e+00 
1.366666667000e+01 9.654725038918e+04 1.000000000000e+00 0.000000000000e+00 
1.400000000000e+01 9.651649579861e+04 1.000000000000e+00 0.000000000000e+00 
1.433333333000e+01 9.648574120803e+04 1.000000000000e+00 0.000000000000e+00 
1.466666667000e+01 9.645498661654e+04 1.000000000000e+00 0.000000000000e+00 
1.500000000000e+01 9.642423202598e+04 1.000000000000e+00 0.000000000000e+00 
1.533333333000e+01 9.639347743542e+04 1.000000000000e+00 0.000000000000e+00 
1.566666667000e+01 9.636272284393e+04 1.000000000000e+00 0.000000000000e+00 
1.600000000000e+01 9.633196825338e+04 1.000000000000e+00 0.000000000000e+00 
1.633333333000e+01 9.630121366282e+04 1.000000000000e+00 0.000000000000e+00 
1.666666667000e+01 9.627045907135e+04 1.000000000000e+00 0.000000000000e+00 
1.700000000000e+01 9.623970448081e+04 1.000000000000e+00 0.000000000000e+00 
1.733333333000e+01 9.620894989026e+04 1.000000000000e+00 0.000000000000e+00 
1.766666667000e+01 9.617819529880e+04 1.000000000000e+00 0.000000000000e+00 
1.800000000000e+01 9.614744070827e+04 1.000000000000e+00 0.000000000000e+00 
1.833333333000e+01 9.611668611774e+04 1.000000000000e+00 0.000000000000e+00 
1.866666667000e+01 9.608593152629e+04 1.000000000000e+00 0.000000000000e+00 
1.900000000000e+01 9.605517693576e+04 1.000000000000e+00 0.000000000000e+00 
1.933333333000e+01 9.602442234524e+04 1.000000000000e+00 0.000000000000e+00 
1.966666667000e+01 9.599366775381e+04 1.000000000000e+00 0.000000000000e+00 
2.000000000000e+01 9.596291316329e+04 1.000000000000e+00 0.000000000000e+00 
2.033333333000e+01 9.593215857279e+04 1.000000000000e+00 0.000000000000e+00 
2.066666667000e+01 9.590140398136e+04 1.000000000000e+00 0.000000000000e+00 
2.100000000000e+01 9.587064939086e+04 1.000000000000e+00 0.000000000000e+00 
2.133333333000e+01 9.583989480037e+04 1.000000000000e+00 0.000000000000e+00 
2.166666667000e+01 9.580914020896e+04 1.000000000000e+00 0.000000000000e+00 
2.200000000000e+01 9.577838561847e+04 1.000000000000e+00 0.000000000000e+00 
2.233333333000e+01 9.574763102799e+04 1.000000000000e+00 0.000000000000e+00 
2.266666667000e+01 9.571687643659e+04 1.000000000000e+00 0.000000000000e+00 
2.300000000000e+01 9.568612184612e+04 1.000000000000e+00 0.000000000000e+00 
2.333333333000e+01 9.565536725565e+04 1.000000000000e+00 0.000000000000e+00 
2.366666667000e+01 9.562461266426e+04 1.000000000000e+00 0.000000000000e+00 
2.400000000000e+01 9.559385807380e+04 1.000000000000e+00 0.000000000000e+00 
2.433333333000e+01 9.556310348335e+04 1.000000000000e+00 0.000000000000e+00 
2.466666667000e+01 9.553234889197e+04 1.000000000000e+00 0.000000000000e+00 
2.500000000000e+01 9.550159430153e+04 1.000000000000e+00 0.000000000000e+00 
2.533333333000e+01 9.547083971108e+04 1.000000000000e+00 0.000000000000e+00 
2.566666667000e+01 9.544008511972e+04 1.000000000000e+00 0.000000000000e+00 
2.600000000000e+01 9.540933052929e+04 1.000000000000e+00 0.000000000000e+00 
2.633333333000e+01 9.537857593886e+04 1.000000000000e+00 0.000000000000e+00 
2.666666667000e+01 9.534782134751e+04 1.000000000000e+00 0.000000000000e+00 
2.700000000000e+01 9.531706675709e+04 1.000000000000e+00 0.000000000000e+00 
2.733333333000e+01 9.528631216667e+04 1.000000000000e+00 0.000000000000e+00 
2.766666667000e+01 9.525555757533e+04 1.000000000000e+00 0.000000000000e+00 
2.800000000000e+01 9.522480298491e+04 1.000000000000e+00 0.000000000000e+00 
2.833333333000e+01 9.519404839450e+04 1.000000000000e+00 0.000000000000e+00 
2.866666667000e+01 9.516329380317e+04 1.000000000000e+00 0.000000000000e+00 
2.900000000000e+01 9.513253921277e+04 1.000000000000e+00 0.000000000000e+00 
2.933333333000e+01 9.510178462237e+04 1.000000000000e+00 0.000000000000e+00 
2.966666667000e+01 9.507103003105e+04 1.000000000000e+00 0.000000000000e+00 
3.000000000000e+01 9.504027544065e+04 1.000000000000e+00 0.000000000000e+00 
3.033333333000e+01 9.500952085026e+04 1.000000000000e+00 0.000000000000e+00 
3.066666667000e+01 9.497876625894e+04 1.000000000000e+00 0.000000000000e+00 
3.100000000000e+01 9.494801166855e+04 1.000000000000e+00 0.000000000000e+00 
3.133333333000e+01 9.491725707817e+04 1.000000000000e+00 0.000000000000e+00 
3.166666667000e+01 9.488650248686e+04 1.000000000000e+00 0.000000000000e+00 
3.200000000000e+01 9.485574789647e+04 1.000000000000e+00 0.000000000000e+00 
3.233333333000e+01 9.482499330609e+04 1.000000000000e+00 0.000000000000e+00 
3.266666667000e+01 9.479423871479e+04 1.000000000000e+00 0.000000000000e+00 
3.300000000000e+01 9.476348412441e+04 1.000000000000e+00 0.000000000000e+00 
3.333333333000e+01 9.473272953403e+04 1.000000000000e+00 0.000000000000e+00 
3.366666667000e+01 9.470197494273e+04 1.000000000000e+00 0.000000000000e+00 
3.400000000000e+01 9.467122035236e+04 1.000000000000e+00 0.000000000000e+00 
3.433333333000e+01 9.464046576198e+04 1.000000000000e+00 0.000000000000e+00 
3.466666667000e+01 9.460971117069e+04 1.000000000000e+00 0.000000000000e+00 
3.500000000000e+01 9.457895658032e+04 1.000000000000e+00 0.000000000000e+00 
3.533333333000e+01 9.454820198995e+04 1.000000000000e+00 0.000000000000e+00 
3.566666667000e+01 9.451744739865e+04 1.000000000000e+00 0.000000000000e+00 
3.600000000000e+01 9.448669280828e+04 1.000000000000e+00 0.000000000000e+00 
3.633333333000e+01 9.445593821791e+04 1.000000000000e+00 0.000000000000e+00 
3.666666667000e+01 9.442518362662e+04 1.000000000000e+00 0.000000000000e+00 
3.700000000000e+01 9.439442903625e+04 1.000000000000e+00 0.000000000000e+00 
3.733333333000e+01 9.436367444588e+04 1.000000000000e+00 0.000000000000e+00 
3.766666667000e+01 9.433291985459e+04 1.000000000000e+00 0.000000000000e+00 
3.800000000000e+01 9.430216526422e+04 1.000000000000e+00 0.000000000000e+00 
3.833333333000e+01 9.427141067386e+04 1.000000000000e+00 0.000000000000e+00 
3.866666667000e+01 9.424065608257e+04 1.000000000000e+00 0.000000000000e+00 
3.900000000000e+01 9.420990149220e+04 1.000000000000e+00 0.000000000000e+00 
3.933333333000e+01 9.417914690183e+04 1.000000000000e+00 0.000000000000e+00 
3.966666667000e+01 9.414839231054e+04 1.000000000000e+00 0.000000000000e+00 
4.000000000000e+01 9.411763772018e+04 1.000000000000e+00 0.000000000000e+00 
4.033333333000e+01 9.408688312981e+04 1.000000000000e+00 0.000000000000e+00 
4.066666667000e+01 9.405612853852e+04 1.000000000000e+00 0.000000000000e+00 
4.100000000000e+01 9.402537394816e+04 1.000000000000e+00 0.000000000000e+00 
4.133333333000e+01 9.399461935779e+04 1.000000000000e+00 0.000000000000e+00 
4.166666667000e+01 9.396386476651e+04 1.000000000000e+00 0.000000000000e+00 
4.200000000000e+01 9.393311017614e+04 1.000000000000e+00 0.000000000000e+00 
4.233333333000e+01 9.390235558577e+04 1.000000000000e+00 0.000000000000e+00 
4.266666667000e+01 9.387160099449e+04 1.000000000000e+00 0.000000000000e+00 
4.300000000000e+01 9.384084640412e+04 1.000000000000e+00 0.000000000000e+00 
4.333333333000e+01 9.381009181376e+04 1.000000000000e+00 0.000000000000e+00 
4.366666667000e+01 9.377933722247e+04 1.000000000000e+00 0.000000000000e+00 
4.400000000000e+01 9.374858263210e+04 1.000000000000e+00 0.000000000000e+00 
4.433333333000e+01 9.371782804174e+04 1.000000000000e+00 0.000000000000e+00 
4.466666667000e+01 9.368707345045e+04 1.000000000000e+00 0.000000000000e+00 
4.500000000000e+01 9.365631886009e+04 1.000000000000e+00 0.000000000000e+00 
4.533333333000e+01 9.362556426972e+04 1.000000000000e+00 0.000000000000e+00 
4.566666667000e+01 9.359480967843e+04 1.000000000000e+00 0.000000000000e+00 
4.600000000000e+01 9.356405508807e+04 1.000000000000e+00 0.000000000000e+00 
4.633333333000e+01 9.353330049770e+04 1.000000000000e+00 0.000000000000e+00 
4.666666667000e+01 9.350254590642e+04 1.000000000000e+00 0.000000000000e+00 
4.700000000000e+01 9.347179131605e+04 1.000000000000e+00 0.000000000000e+00 
4.733333333000e+01 9.344103672569e+04 1.000000000000e+00 0.000000000000e+00 
4.766666667000e+01 9.341028213440e+04 1.000000000000e+00 0.000000000000e+00 
4.800000000000e+01 9.337952754403e+04 1.000000000000e+00 0.000000000000e+00 
4.833333333000e+01 9.334877295367e+04 1.000000000000e+00 0.000000000000e+00 
4.866666667000e+01 9.331801836238e+04 1.000000000000e+00 0.000000000000e+00 
4.900000000000e+01 9.328726377202e+04 1.000000000000e+00 0.000000000000e+00 
4.933333333000e+01 9.325650918165e+04 1.000000000000e+00 0.000000000000e+00 
4.966666667000e+01 9.322575459036e+04 1.000000000000e+00 0.000000000000e+00 
5.000000000000e+01 9.319500000000e+04 1.000000000000e+00 0.000000000000e+00 
 ZONE T="TIME=4.320000000000e+04"
0.000000000000e+00 9.810000000000e+04 1.000000000000e+00 0.000000000000e+00 
3.333333330000e-01 9.806924540908e+04 1.000000000000e+00 0.000000000000e+00 
6.666666670000e-01 9.803849081806e+04 1.000000000000e+00 0.000000000000e+00 
1.000000000000e+00 9.800773622714e+04 1.000000000000e+00 0.000000000000e+00 
1.333333333000e+00 9.797698163622e+04 1.000000000000e+00 0.000000000000e+00 
1.666666667000e+00 9.794622704520e+04 1.000000000000e+00 0.000000000000e+00 
2.000000000000e+00 9.791547245428e+04 1.000000000000e+00 0.000000000000e+00 
2.333333333000e+00 9.788471786336e+04 1.000000000000e+00 0.000000000000e+00 
2.666666667000e+00 9.785396327235e+04 1.000000000000e+00 0.000000000000e+00 
3.000000000000e+00 9.782320868143e+04 1.000000000000e+00 0.000000000000e+00 
3.333333333000e+00 9.779245409052e+04 1.000000000000e+00 0.000000000000e+00 
3.666666667000e+00 9.776169949951e+04 1.000000000000e+00 0.000000000000e+00 
4.000000000000e+00 9.773094490860e+04 1.000000000000e+00 0.000000000000e+00 
4.333333333000e+00 9.770019031769e+04 1.000000000000e+00 0.000000000000e+00 
4.666666667000e+00 9.766943572669e+04 1.000000000000e+00 0.000000000000e+00 
5.000000000000e+00 9.763109328442e+04 8.999977480000e-01 1.000022520000e-01 
5.333333333000e+00 9.758189631487e+04 8.999977480000e-01 1.000022520000e-01 
5.666666667000e+00 9.753269934517e+04 8.999977480000e-01 1.000022520000e-01 
6.000000000000e+00 9.748350237562e+04 8.999977480000e-01 1.000022520000e-01 
6.333333333000e+00 9.743430540608e+04 8.999977480000e-01 1.000022520000e-01 
6.666666667000e+00 9.738510843639e+04 8.999977480000e-01 1.000022520000e-01 
7.000000000000e+00 9.733591146685e+04 8.999977480000e-01 1.000022520000e-01 
7.333333333000e+00 9.728671449731e+04 8.999977480000e-01 1.000022520000e-01 
7.666666667000e+00 9.723751752763e+04 8.999977480000e-01 1.000022520000e-01 
8.000000000000e+00 9.718832055810e+04 8.999977480000e-01 1.000022520000e-01 
8.333333333000e+00 9.713912358857e+04 8.999977480000e-01 1.000022520000e-01 
8.666666667000e+00 9.708992661889e+04 8.999977480000e-01 1.000022520000e-01 
9.000000000000e+00 9.704072964937e+04 8.999977480000e-01 1.000022520000e-01 
9.333333333000e+00 9.699153267984e+04 8.999977480000e-01 1.000022520000e-01 
9.666666667000e+00 9.694233571018e+04 8.999977480000e-01 1.000022520000e-01 
1.000000000000e+01 9.689313874066e+04 8.999977480000e-01 1.000022520000e-01 
1.033333333000e+01 9.685479629877e+04 1.000000000000e+00 0.000000000000e+00 
1.066666667000e+01 9.682404170724e+04 1.000000000000e+00 0.000000000000e+00 
1.100000000000e+01 9.679328711665e+04 1.000000000000e+00 0.000000000000e+00 
1.133333333000e+01 9.676253252605e+04 1.000000000000e+00 0.000000000000e+00 
1.166666667000e+01 9.673177793453e+04 1.000000000000e+00 0.000000000000e+00 
1.200000000000e+01 9.670102334394e+04 1.000000000000e+00 0.000000000000e+00 
1.233333333000e+01 9.667026875335e+04 1.000000000000e+00 0.000000000000e+00 
1.266666667000e+01 9.663951416185e+04 1.000000000000e+00 0.000000000000e+00 
1.300000000000e+01 9.660875957126e+04 1.000000000000e+00 0.000000000000e+00 
1.333333333000e+01 9.657800498068e+04 1.000000000000e+00 0.000000000000e+00 
1.366666667000e+01 9.654725038918e+04 1.000000000000e+00 0.000000000000e+00 
1.400000000000e+01 9.651649579861e+04 1.000000000000e+00 0.000000000000e+00 
1.433333333000e+01 9.648574120803e+04 1.000000000000e+00 0.000000000000e+00 
1.466666667000e+01 9.645498661654e+04 1.000000000000e+00 0.000000000000e+00 
1.500000000000e+01 9.642423202598e+04 1.000000000000e+00 0.000000000000e+00 
1.533333333000e+01 9.639347743542e+04 1.000000000000e+00 0.000000000000e+00 
1.566666667000e+01 9.636272284393e+04 1.000000000000e+00 0.000000000000e+00 
1.600000000000e+01 9.633196825338e+04 1.000000000000e+00 0.000000000000e+00 
1.633333333000e+01 9.630121366282e+04 1.000000000000e+00 0.000000000000e+00 
1.666666667000e+01 9.627045907135e+04 1.000000000000e+00 0.000000000000e+00 
1.700000000000e+01 9.623970448081e+04 1.000000000000e+00 0.000000000000e+00 
1.733333333000e+01 9.620894989026e+04 1.000000000000e+00 0.000000000000e+00 
1.766666667000e+01 9.617819529880e+04 1.000000000000e+00 0.000000000000e+00 
1.800000000000e+01 9.614744070827e+04 1.000000000000e+00 0.000000000000e+00 
1.833333333000e+01 9.611668611774e+04 1.000000000000e+00 0.000000000000e+00 
1.866666667000e+01 9.608593152629e+04 1.000000000000e+00 0.000000000000e+00 
1.900000000000e+01 9.605517693576e+04 1.000000000000e+00 0.000000000000e+00 
1.933333333000e+01 9.602442234524e+04 1.000000000000e+00 0.000000000000e+00 
1.966666667000e+01 9.599366775381e+04 1.000000000000e+00 0.000000000000e+00 
2.000000000000e+01 9.596291316329e+04 1.000000000000e+00 0.000000000000e+00 
2.033333333000e+01 9.593215857279e+04 1.000000000000e+00 0.000000000000e+00 
2.066666667000e+01 9.590140398136e+04 1.000000000000e+00 0.000000000000e+00 
2.100000000000e+01 9.587064939086e+04 1.000000000000e+00 0.000000000000e+00 
2.133333333000e+01 9.583989480037e+04 1.000000000000e+00 0.000000000000e+00 
2.166666667000e+01 9.580914020896e+04 1.000000000000e+00 0.000000000000e+00 
2.200000000000e+01 9.577838561847e+04 1.000000000000e+00 0.000000000000e+00 
2.233333333000e+01 9.574763102799e+04 1.000000000000e+00 0.000000000000e+00 
2.266666667000e+01 9.571687643659e+04 1.000000000000e+00 0.000000000000e+00 
2.300000000000e+01 9.568612184612e+04 1.000000000000e+00 0.000000000000e+00 
2.333333333000e+01 9.565536725565e+04 1.000000000000e+00 0.000000000000e+00 
2.366666667000e+01 9.562461266426e+04 1.000000000000e+00 0.000000000000e+00 
2.400000000000e+01 9.559385807380e+04 1.000000000000e+00 0.000000000000e+00 
2.433333333000e+01 9.556310348335e+04 1.000000000000e+00 0.000000000000e+00 
2.466666667000e+01 9.553234889197e+04 1.000000000000e+00 0.000000000000e+00 
2.500000000000e+01 9.550159430153e+04 1.000000000000e+00 0.000000000000e+00 
2.533333333000e+01 9.547083971108e+04 1.000000000000e+00 0.000000000000e+00 
2.566666667000e+01 9.544008511972e+04 1.000000000000e+00 0.000000000000e+00 
2.600000000000e+01 9.540933052929e+04 1.000000000000e+00 0.000000000000e+00 
2.633333333000e+01 9.537857593886e+04 1.000000000000e+00 0.000000000000e+00 
2.666666667000e+01 9.534782134751e+04 1.000000000000e+00 0.000000000000e+00 
2.700000000000e+01 9.531706675709e+04 1.000000000000e+00 0.000000000000e+00 
2.733333333000e+01 9.528631216667e+04 1.000000000000e+00 0.000000000000e+00 