VARIABLES  = "X","Y","Z", "TEMPERATURE1", "PRESSURE1", "VISCOSITY", "DENSITY", "HEAT_CONDUCTIVITY"
ZONE T="0.000000000000e+00s", N=201, E=200, F=FEPOINT, ET=QUADRILATERAL
STRANDID=1, SOLUTIONTIME=0.000000000000e+00
0.000000000000e+00 0.000000000000e+00 0.000000000000e+00 4.000000000000e+02 3.000000000000e+07 4.505019407295e-05 5.615000000000e+02 6.000000000000e-02 
2.000000000000e+00 0.000000000000e+00 0.000000000000e+00 4.000000000000e+02 3.000000000000e+07 4.505019407295e-05 5.615000000000e+02 6.000000000000e-02 
4.000000000000e+00 0.000000000000e+00 0.000000000000e+00 4.000000000000e+02 3.000000000000e+07 4.505019407295e-05 5.615000000000e+02 6.000000000000e-02 
6.000000000000e+00 0.000000000000e+00 0.000000000000e+00 4.000000000000e+02 3.000000000000e+07 4.505019407295e-05 5.615000000000e+02 6.000000000000e-02 
8.000000000000e+00 0.000000000000e+00 0.000000000000e+00 4.000000000000e+02 3.000000000000e+07 4.505019407295e-05 5.615000000000e+02 6.000000000000e-02 
1.000000000000e+01 0.000000000000e+00 0.000000000000e+00 4.000000000000e+02 3.000000000000e+07 4.505019407295e-05 5.615000000000e+02 6.000000000000e-02 
1.200000000000e+01 0.000000000000e+00 0.000000000000e+00 4.000000000000e+02 3.000000000000e+07 4.505019407295e-05 5.615000000000e+02 6.000000000000e-02 
1.400000000000e+01 0.000000000000e+00 0.000000000000e+00 4.000000000000e+02 3.000000000000e+07 4.505019407295e-05 5.615000000000e+02 6.000000000000e-02 
1.600000000000e+01 0.000000000000e+00 0.000000000000e+00 4.000000000000e+02 3.000000000000e+07 4.505019407295e-05 5.615000000000e+02 6.000000000000e-02 
1.800000000000e+01 0.000000000000e+00 0.000000000000e+00 4.000000000000e+02 3.000000000000e+07 4.505019407295e-05 5.615000000000e+02 6.000000000000e-02 
2.000000000000e+01 0.000000000000e+00 0.000000000000e+00 4.000000000000e+02 3.000000000000e+07 4.505019407295e-05 5.615000000000e+02 6.000000000000e-02 
2.200000000000e+01 0.000000000000e+00 0.000000000000e+00 4.000000000000e+02 3.000000000000e+07 4.505019407295e-05 5.615000000000e+02 6.000000000000e-02 
2.400000000000e+01 0.000000000000e+00 0.000000000000e+00 4.000000000000e+02 3.000000000000e+07 4.505019407295e-05 5.615000000000e+02 6.000000000000e-02 
2.600000000000e+01 0.000000000000e+00 0.000000000000e+00 4.000000000000e+02 3.000000000000e+07 4.505019407295e-05 5.615000000000e+02 6.000000000000e-02 
2.800000000000e+01 0.000000000000e+00 0.000000000000e+00 4.000000000000e+02 3.000000000000e+07 4.505019407295e-05 5.615000000000e+02 6.000000000000e-02 
3.000000000000e+01 0.000000000000e+00 0.000000000000e+00 4.000000000000e+02 3.000000000000e+07 4.505019407295e-05 5.615000000000e+02 6.000000000000e-02 
3.200000000000e+01 0.000000000000e+00 0.000000000000e+00 4.000000000000e+02 3.000000000000e+07 4.505019407295e-05 5.615000000000e+02 6.000000000000e-02 
3.400000000000e+01 0.000000000000e+00 0.000000000000e+00 4.000000000000e+02 3.000000000000e+07 4.505019407295e-05 5.615000000000e+02 6.000000000000e-02 
3.600000000000e+01 0.000000000000e+00 0.000000000000e+00 4.000000000000e+02 3.000000000000e+07 4.505019407295e-05 5.615000000000e+02 6.000000000000e-02 
3.800000000000e+01 0.000000000000e+00 0.000000000000e+00 4.000000000000e+02 3.000000000000e+07 4.505019407295e-05 5.615000000000e+02 6.000000000000e-02 
4.000000000000e+01 0.000000000000e+00 0.000000000000e+00 4.000000000000e+02 3.000000000000e+07 4.505019407295e-05 5.615000000000e+02 6.000000000000e-02 
4.200000000000e+01 0.000000000000e+00 0.000000000000e+00 4.000000000000e+02 3.000000000000e+07 4.505019407295e-05 5.615000000000e+02 6.000000000000e-02 
4.400000000000e+01 0.000000000000e+00 0.000000000000e+00 4.000000000000e+02 3.000000000000e+07 4.505019407295e-05 5.615000000000e+02 6.000000000000e-02 
4.600000000000e+01 0.000000000000e+00 0.000000000000e+00 4.000000000000e+02 3.000000000000e+07 4.505019407295e-05 5.615000000000e+02 6.000000000000e-02 
4.800000000000e+01 0.000000000000e+00 0.000000000000e+00 4.000000000000e+02 3.000000000000e+07 4.505019407295e-05 5.615000000000e+02 6.000000000000e-02 
5.000000000000e+01 0.000000000000e+00 0.000000000000e+00 4.000000000000e+02 3.000000000000e+07 4.505019407295e-05 5.615000000000e+02 6.000000000000e-02 
5.200000000000e+01 0.000000000000e+00 0.000000000000e+00 4.000000000000e+02 3.000000000000e+07 4.505019407295e-05 5.615000000000e+02 6.000000000000e-02 
5.400000000000e+01 0.000000000000e+00 0.000000000000e+00 4.000000000000e+02 3.000000000000e+07 4.505019407295e-05 5.615000000000e+02 6.000000000000e-02 
5.600000000000e+01 0.000000000000e+00 0.000000000000e+00 4.000000000000e+02 3.000000000000e+07 4.505019407295e-05 5.615000000000e+02 6.000000000000e-02 
5.800000000000e+01 0.000000000000e+00 0.000000000000e+00 4.000000000000e+02 3.000000000000e+07 4.505019407295e-05 5.615000000000e+02 6.000000000000e-02 
6.000000000000e+01 0.000000000000e+00 0.000000000000e+00 4.000000000000e+02 3.000000000000e+07 4.505019407295e-05 5.615000000000e+02 6.000000000000e-02 
6.200000000000e+01 0.000000000000e+00 0.000000000000e+00 4.000000000000e+02 3.000000000000e+07 4.505019407295e-05 5.615000000000e+02 6.000000000000e-02 
6.400000000000e+01 0.000000000000e+00 0.000000000000e+00 4.000000000000e+02 3.000000000000e+07 4.505019407295e-05 5.615000000000e+02 6.000000000000e-02 
6.600000000000e+01 0.000000000000e+00 0.000000000000e+00 4.000000000000e+02 3.000000000000e+07 4.505019407295e-05 5.615000000000e+02 6.000000000000e-02 
6.800000000000e+01 0.000000000000e+00 0.000000000000e+00 4.000000000000e+02 3.000000000000e+07 4.505019407295e-05 5.615000000000e+02 6.000000000000e-02 
7.000000000000e+01 0.000000000000e+00 0.000000000000e+00 4.000000000000e+02 3.000000000000e+07 4.505019407295e-05 5.615000000000e+02 6.000000000000e-02 
7.200000000000e+01 0.000000000000e+00 0.000000000000e+00 4.000000000000e+02 3.000000000000e+07 4.505019407295e-05 5.615000000000e+02 6.000000000000e-02 
7.400000000000e+01 0.000000000000e+00 0.000000000000e+00 4.000000000000e+02 3.000000000000e+07 4.505019407295e-05 5.615000000000e+02 6.000000000000e-02 
7.600000000000e+01 0.000000000000e+00 0.000000000000e+00 4.000000000000e+02 3.000000000000e+07 4.505019407295e-05 5.615000000000e+02 6.000000000000e-02 
7.800000000000e+01 0.000000000000e+00 0.000000000000e+00 4.000000000000e+02 3.000000000000e+07 4.505019407295e-05 5.615000000000e+02 6.000000000000e-02 
8.000000000000e+01 0.000000000000e+00 0.000000000000e+00 4.000000000000e+02 3.000000000000e+07 4.505019407295e-05 5.615000000000e+02 6.000000000000e-02 
8.200000000000e+01 0.000000000000e+00 0.000000000000e+00 4.000000000000e+02 3.000000000000e+07 4.505019407295e-05 5.615000000000e+02 6.000000000000e-02 
8.400000000000e+01 0.000000000000e+00 0.000000000000e+00 4.000000000000e+02 3.000000000000e+07 4.505019407295e-05 5.615000000000e+02 6.000000000000e-02 
8.600000000000e+01 0.000000000000e+00 0.000000000000e+00 4.000000000000e+02 3.000000000000e+07 4.505019407295e-05 5.615000000000e+02 6.000000000000e-02 
8.800000000000e+01 0.000000000000e+00 0.000000000000e+00 4.000000000000e+02 3.000000000000e+07 4.505019407295e-05 5.615000000000e+02 6.000000000000e-02 
9.000000000000e+01 0.000000000000e+00 0.000000000000e+00 4.000000000000e+02 3.000000000000e+07 4.505019407295e-05 5.615000000000e+02 6.000000000000e-02 
9.200000000000e+01 0.000000000000e+00 0.000000000000e+00 4.000000000000e+02 3.000000000000e+07 4.505019407295e-05 5.615000000000e+02 6.000000000000e-02 
9.400000000000e+01 0.000000000000e+00 0.000000000000e+00 4.000000000000e+02 3.000000000000e+07 4.505019407295e-05 5.615000000000e+02 6.000000000000e-02 
9.600000000000e+01 0.000000000000e+00 0.000000000000e+00 4.000000000000e+02 3.000000000000e+07 4.505019407295e-05 5.615000000000e+02 6.000000000000e-02 
9.800000000000e+01 0.000000000000e+00 0.000000000000e+00 4.000000000000e+02 3.000000000000e+07 4.505019407295e-05 5.615000000000e+02 6.000000000000e-02 
1.000000000000e+02 0.000000000000e+00 0.000000000000e+00 4.000000000000e+02 3.000000000000e+07 4.505019407295e-05 5.615000000000e+02 6.000000000000e-02 
1.020000000000e+02 0.000000000000e+00 0.000000000000e+00 4.000000000000e+02 3.000000000000e+07 4.505019407295e-05 5.615000000000e+02 6.000000000000e-02 
1.040000000000e+02 0.000000000000e+00 0.000000000000e+00 4.000000000000e+02 3.000000000000e+07 4.505019407295e-05 5.615000000000e+02 6.000000000000e-02 
1.060000000000e+02 0.000000000000e+00 0.000000000000e+00 4.000000000000e+02 3.000000000000e+07 4.505019407295e-05 5.615000000000e+02 6.000000000000e-02 
1.080000000000e+02 0.000000000000e+00 0.000000000000e+00 4.000000000000e+02 3.000000000000e+07 4.505019407295e-05 5.615000000000e+02 6.000000000000e-02 
1.100000000000e+02 0.000000000000e+00 0.000000000000e+00 4.000000000000e+02 3.000000000000e+07 4.505019407295e-05 5.615000000000e+02 6.000000000000e-02 
1.120000000000e+02 0.000000000000e+00 0.000000000000e+00 4.000000000000e+02 3.000000000000e+07 4.505019407295e-05 5.615000000000e+02 6.000000000000e-02 
1.140000000000e+02 0.000000000000e+00 0.000000000000e+00 4.000000000000e+02 3.000000000000e+07 4.505019407295e-05 5.615000000000e+02 6.000000000000e-02 
1.160000000000e+02 0.000000000000e+00 0.000000000000e+00 4.000000000000e+02 3.000000000000e+07 4.505019407295e-05 5.615000000000e+02 6.000000000000e-02 
1.180000000000e+02 0.000000000000e+00 0.000000000000e+00 4.000000000000e+02 3.000000000000e+07 4.505019407295e-05 5.615000000000e+02 6.000000000000e-02 
1.200000000000e+02 0.000000000000e+00 0.000000000000e+00 4.000000000000e+02 3.000000000000e+07 4.505019407295e-05 5.615000000000e+02 6.000000000000e-02 
1.220000000000e+02 0.000000000000e+00 0.000000000000e+00 4.000000000000e+02 3.000000000000e+07 4.505019407295e-05 5.615000000000e+02 6.000000000000e-02 
1.240000000000e+02 0.000000000000e+00 0.000000000000e+00 4.000000000000e+02 3.000000000000e+07 4.505019407295e-05 5.615000000000e+02 6.000000000000e-02 
1.260000000000e+02 0.000000000000e+00 0.000000000000e+00 4.000000000000e+02 3.000000000000e+07 4.505019407295e-05 5.615000000000e+02 6.000000000000e-02 
1.280000000000e+02 0.000000000000e+00 0.000000000000e+00 4.000000000000e+02 3.000000000000e+07 4.505019407295e-05 5.615000000000e+02 6.000000000000e-02 
1.300000000000e+02 0.000000000000e+00 0.000000000000e+00 4.000000000000e+02 3.000000000000e+07 4.505019407295e-05 5.615000000000e+02 6.000000000000e-02 
1.320000000000e+02 0.000000000000e+00 0.000000000000e+00 4.000000000000e+02 3.000000000000e+07 4.505019407295e-05 5.615000000000e+02 6.000000000000e-02 
1.340000000000e+02 0.000000000000e+00 0.000000000000e+00 4.000000000000e+02 3.000000000000e+07 4.505019407295e-05 5.615000000000e+02 6.000000000000e-02 
1.360000000000e+02 0.000000000000e+00 0.000000000000e+00 4.000000000000e+02 3.000000000000e+07 4.505019407295e-05 5.615000000000e+02 6.000000000000e-02 
1.380000000000e+02 0.000000000000e+00 0.000000000000e+00 4.000000000000e+02 3.000000000000e+07 4.505019407295e-05 5.615000000000e+02 6.000000000000e-02 
1.400000000000e+02 0.000000000000e+00 0.000000000000e+00 4.000000000000e+02 3.000000000000e+07 4.505019407295e-05 5.615000000000e+02 6.000000000000e-02 
1.420000000000e+02 0.000000000000e+00 0.000000000000e+00 4.000000000000e+02 3.000000000000e+07 4.505019407295e-05 5.615000000000e+02 6.000000000000e-02 
1.440000000000e+02 0.000000000000e+00 0.000000000000e+00 4.000000000000e+02 3.000000000000e+07 4.505019407295e-05 5.615000000000e+02 6.000000000000e-02 
1.460000000000e+02 0.000000000000e+00 0.000000000000e+00 4.000000000000e+02 3.000000000000e+07 4.505019407295e-05 5.615000000000e+02 6.000000000000e-02 
1.480000000000e+02 0.000000000000e+00 0.000000000000e+00 4.000000000000e+02 3.000000000000e+07 4.505019407295e-05 5.615000000000e+02 6.000000000000e-02 
1.500000000000e+02 0.000000000000e+00 0.000000000000e+00 4.000000000000e+02 3.000000000000e+07 4.505019407295e-05 5.615000000000e+02 6.000000000000e-02 
1.520000000000e+02 0.000000000000e+00 0.000000000000e+00 4.000000000000e+02 3.000000000000e+07 4.505019407295e-05 5.615000000000e+02 6.000000000000e-02 
1.540000000000e+02 0.000000000000e+00 0.000000000000e+00 4.000000000000e+02 3.000000000000e+07 4.505019407295e-05 5.615000000000e+02 6.000000000000e-02 
1.560000000000e+02 0.000000000000e+00 0.000000000000e+00 4.000000000000e+02 3.000000000000e+07 4.505019407295e-05 5.615000000000e+02 6.000000000000e-02 
1.580000000000e+02 0.000000000000e+00 0.000000000000e+00 4.000000000000e+02 3.000000000000e+07 4.505019407295e-05 5.615000000000e+02 6.000000000000e-02 
1.600000000000e+02 0.000000000000e+00 0.000000000000e+00 4.000000000000e+02 3.000000000000e+07 4.505019407295e-05 5.615000000000e+02 6.000000000000e-02 
1.620000000000e+02 0.000000000000e+00 0.000000000000e+00 4.000000000000e+02 3.000000000000e+07 4.505019407295e-05 5.615000000000e+02 6.000000000000e-02 
1.640000000000e+02 0.000000000000e+00 0.000000000000e+00 4.000000000000e+02 3.000000000000e+07 4.505019407295e-05 5.615000000000e+02 6.000000000000e-02 
1.660000000000e+02 0.000000000000e+00 0.000000000000e+00 4.000000000000e+02 3.000000000000e+07 4.505019407295e-05 5.615000000000e+02 6.000000000000e-02 
1.680000000000e+02 0.000000000000e+00 0.000000000000e+00 4.000000000000e+02 3.000000000000e+07 4.505019407295e-05 5.615000000000e+02 6.000000000000e-02 
1.700000000000e+02 0.000000000000e+00 0.000000000000e+00 4.000000000000e+02 3.000000000000e+07 4.505019407295e-05 5.615000000000e+02 6.000000000000e-02 
1.720000000000e+02 0.000000000000e+00 0.000000000000e+00 4.000000000000e+02 3.000000000000e+07 4.505019407295e-05 5.615000000000e+02 6.000000000000e-02 
1.740000000000e+02 0.000000000000e+00 0.000000000000e+00 4.000000000000e+02 3.000000000000e+07 4.505019407295e-05 5.615000000000e+02 6.000000000000e-02 
1.760000000000e+02 0.000000000000e+00 0.000000000000e+00 4.000000000000e+02 3.000000000000e+07 4.505019407295e-05 5.615000000000e+02 6.000000000000e-02 
1.780000000000e+02 0.000000000000e+00 0.000000000000e+00 4.000000000000e+02 3.000000000000e+07 4.505019407295e-05 5.615000000000e+02 6.000000000000e-02 
1.800000000000e+02 0.000000000000e+00 0.000000000000e+00 4.000000000000e+02 3.000000000000e+07 4.505019407295e-05 5.615000000000e+02 6.000000000000e-02 
1.820000000000e+02 0.000000000000e+00 0.000000000000e+00 4.000000000000e+02 3.000000000000e+07 4.505019407295e-05 5.615000000000e+02 6.000000000000e-02 
1.840000000000e+02 0.000000000000e+00 0.000000000000e+00 4.000000000000e+02 3.000000000000e+07 4.505019407295e-05 5.615000000000e+02 6.000000000000e-02 
1.860000000000e+02 0.000000000000e+00 0.000000000000e+00 4.000000000000e+02 3.000000000000e+07 4.505019407295e-05 5.615000000000e+02 6.000000000000e-02 
1.880000000000e+02 0.000000000000e+00 0.000000000000e+00 4.000000000000e+02 3.000000000000e+07 4.505019407295e-05 5.615000000000e+02 6.000000000000e-02 
1.900000000000e+02 0.000000000000e+00 0.000000000000e+00 4.000000000000e+02 3.000000000000e+07 4.505019407295e-05 5.615000000000e+02 6.000000000000e-02 
1.920000000000e+02 0.000000000000e+00 0.000000000000e+00 4.000000000000e+02 3.000000000000e+07 4.505019407295e-05 5.615000000000e+02 6.000000000000e-02 
1.940000000000e+02 0.000000000000e+00 0.000000000000e+00 4.000000000000e+02 3.000000000000e+07 4.505019407295e-05 5.615000000000e+02 6.000000000000e-02 
1.960000000000e+02 0.000000000000e+00 0.000000000000e+00 4.000000000000e+02 3.000000000000e+07 4.505019407295e-05 5.615000000000e+02 6.000000000000e-02 
1.980000000000e+02 0.000000000000e+00 0.000000000000e+00 4.000000000000e+02 3.000000000000e+07 4.505019407295e-05 5.615000000000e+02 6.000000000000e-02 
2.000000000000e+02 0.000000000000e+00 0.000000000000e+00 4.000000000000e+02 3.000000000000e+07 4.505019407295e-05 5.615000000000e+02 6.000000000000e-02 
2.020000000000e+02 0.000000000000e+00 0.000000000000e+00 4.000000000000e+02 3.000000000000e+07 4.505019407295e-05 5.615000000000e+02 6.000000000000e-02 
2.040000000000e+02 0.000000000000e+00 0.000000000000e+00 4.000000000000e+02 3.000000000000e+07 4.505019407295e-05 5.615000000000e+02 6.000000000000e-02 
2.060000000000e+02 0.000000000000e+00 0.000000000000e+00 4.000000000000e+02 3.000000000000e+07 4.505019407295e-05 5.615000000000e+02 6.000000000000e-02 
2.080000000000e+02 0.000000000000e+00 0.000000000000e+00 4.000000000000e+02 3.000000000000e+07 4.505019407295e-05 5.615000000000e+02 6.000000000000e-02 
2.100000000000e+02 0.000000000000e+00 0.000000000000e+00 4.000000000000e+02 3.000000000000e+07 4.505019407295e-05 5.615000000000e+02 6.000000000000e-02 
2.120000000000e+02 0.000000000000e+00 0.000000000000e+00 4.000000000000e+02 3.000000000000e+07 4.505019407295e-05 5.615000000000e+02 6.000000000000e-02 
2.140000000000e+02 0.000000000000e+00 0.000000000000e+00 4.000000000000e+02 3.000000000000e+07 4.505019407295e-05 5.615000000000e+02 6.000000000000e-02 
2.160000000000e+02 0.000000000000e+00 0.000000000000e+00 4.000000000000e+02 3.000000000000e+07 4.505019407295e-05 5.615000000000e+02 6.000000000000e-02 
2.180000000000e+02 0.000000000000e+00 0.000000000000e+00 4.000000000000e+02 3.000000000000e+07 4.505019407295e-05 5.615000000000e+02 6.000000000000e-02 
2.200000000000e+02 0.000000000000e+00 0.000000000000e+00 4.000000000000e+02 3.000000000000e+07 4.505019407295e-05 5.615000000000e+02 6.000000000000e-02 
2.220000000000e+02 0.000000000000e+00 0.000000000000e+00 4.000000000000e+02 3.000000000000e+07 4.505019407295e-05 5.615000000000e+02 6.000000000000e-02 
2.240000000000e+02 0.000000000000e+00 0.000000000000e+00 4.000000000000e+02 3.000000000000e+07 4.505019407295e-05 5.615000000000e+02 6.000000000000e-02 
2.260000000000e+02 0.000000000000e+00 0.000000000000e+00 4.000000000000e+02 3.000000000000e+07 4.505019407295e-05 5.615000000000e+02 6.000000000000e-02 
2.280000000000e+02 0.000000000000e+00 0.000000000000e+00 4.000000000000e+02 3.000000000000e+07 4.505019407295e-05 5.615000000000e+02 6.000000000000e-02 
2.300000000000e+02 0.000000000000e+00 0.000000000000e+00 4.000000000000e+02 3.000000000000e+07 4.505019407295e-05 5.615000000000e+02 6.000000000000e-02 
2.320000000000e+02 0.000000000000e+00 0.000000000000e+00 4.000000000000e+02 3.000000000000e+07 4.505019407295e-05 5.615000000000e+02 6.000000000000e-02 
2.340000000000e+02 0.000000000000e+00 0.000000000000e+00 4.000000000000e+02 3.000000000000e+07 4.505019407295e-05 5.615000000000e+02 6.000000000000e-02 
2.360000000000e+02 0.000000000000e+00 0.000000000000e+00 4.000000000000e+02 3.000000000000e+07 4.505019407295e-05 5.615000000000e+02 6.000000000000e-02 
2.380000000000e+02 0.000000000000e+00 0.000000000000e+00 4.000000000000e+02 3.000000000000e+07 4.505019407295e-05 5.615000000000e+02 6.000000000000e-02 
2.400000000000e+02 0.000000000000e+00 0.000000000000e+00 4.000000000000e+02 3.000000000000e+07 4.505019407295e-05 5.615000000000e+02 6.000000000000e-02 
2.420000000000e+02 0.000000000000e+00 0.000000000000e+00 4.000000000000e+02 3.000000000000e+07 4.505019407295e-05 5.615000000000e+02 6.000000000000e-02 
2.440000000000e+02 0.000000000000e+00 0.000000000000e+00 4.000000000000e+02 3.000000000000e+07 4.505019407295e-05 5.615000000000e+02 6.000000000000e-02 
2.460000000000e+02 0.000000000000e+00 0.000000000000e+00 4.000000000000e+02 3.000000000000e+07 4.505019407295e-05 5.615000000000e+02 6.000000000000e-02 
2.480000000000e+02 0.000000000000e+00 0.000000000000e+00 4.000000000000e+02 3.000000000000e+07 4.505019407295e-05 5.615000000000e+02 6.000000000000e-02 
2.500000000000e+02 0.000000000000e+00 0.000000000000e+00 4.000000000000e+02 3.000000000000e+07 4.505019407295e-05 5.615000000000e+02 6.000000000000e-02 
2.520000000000e+02 0.000000000000e+00 0.000000000000e+00 4.000000000000e+02 3.000000000000e+07 4.505019407295e-05 5.615000000000e+02 6.000000000000e-02 
2.540000000000e+02 0.000000000000e+00 0.000000000000e+00 4.000000000000e+02 3.000000000000e+07 4.505019407295e-05 5.615000000000e+02 6.000000000000e-02 
2.560000000000e+02 0.000000000000e+00 0.000000000000e+00 4.000000000000e+02 3.000000000000e+07 4.505019407295e-05 5.615000000000e+02 6.000000000000e-02 
2.580000000000e+02 0.000000000000e+00 0.000000000000e+00 4.000000000000e+02 3.000000000000e+07 4.505019407295e-05 5.615000000000e+02 6.000000000000e-02 
2.600000000000e+02 0.000000000000e+00 0.000000000000e+00 4.000000000000e+02 3.000000000000e+07 4.505019407295e-05 5.615000000000e+02 6.000000000000e-02 
2.620000000000e+02 0.000000000000e+00 0.000000000000e+00 4.000000000000e+02 3.000000000000e+07 4.505019407295e-05 5.615000000000e+02 6.000000000000e-02 
2.640000000000e+02 0.000000000000e+00 0.000000000000e+00 4.000000000000e+02 3.000000000000e+07 4.505019407295e-05 5.615000000000e+02 6.000000000000e-02 
2.660000000000e+02 0.000000000000e+00 0.000000000000e+00 4.000000000000e+02 3.000000000000e+07 4.505019407295e-05 5.615000000000e+02 6.000000000000e-02 
2.680000000000e+02 0.000000000000e+00 0.000000000000e+00 4.000000000000e+02 3.000000000000e+07 4.505019407295e-05 5.615000000000e+02 6.000000000000e-02 
2.700000000000e+02 0.000000000000e+00 0.000000000000e+00 4.000000000000e+02 3.000000000000e+07 4.505019407295e-05 5.615000000000e+02 6.000000000000e-02 
2.720000000000e+02 0.000000000000e+00 0.000000000000e+00 4.000000000000e+02 3.000000000000e+07 4.505019407295e-05 5.615000000000e+02 6.000000000000e-02 
2.740000000000e+02 0.000000000000e+00 0.000000000000e+00 4.000000000000e+02 3.000000000000e+07 4.505019407295e-05 5.615000000000e+02 6.000000000000e-02 
2.760000000000e+02 0.000000000000e+00 0.000000000000e+00 4.000000000000e+02 3.000000000000e+07 4.505019407295e-05 5.615000000000e+02 6.000000000000e-02 
2.780000000000e+02 0.000000000000e+00 0.000000000000e+00 4.000000000000e+02 3.000000000000e+07 4.505019407295e-05 5.615000000000e+02 6.000000000000e-02 
2.800000000000e+02 0.000000000000e+00 0.000000000000e+00 4.000000000000e+02 3.000000000000e+07 4.505019407295e-05 5.615000000000e+02 6.000000000000e-02 
2.820000000000e+02 0.000000000000e+00 0.000000000000e+00 4.000000000000e+02 3.000000000000e+07 4.505019407295e-05 5.615000000000e+02 6.000000000000e-02 
2.840000000000e+02 0.000000000000e+00 0.000000000000e+00 4.000000000000e+02 3.000000000000e+07 4.505019407295e-05 5.615000000000e+02 6.000000000000e-02 
2.860000000000e+02 0.000000000000e+00 0.000000000000e+00 4.000000000000e+02 3.000000000000e+07 4.505019407295e-05 5.615000000000e+02 6.000000000000e-02 
2.880000000000e+02 0.000000000000e+00 0.000000000000e+00 4.000000000000e+02 3.000000000000e+07 4.505019407295e-05 5.615000000000e+02 6.000000000000e-02 
2.900000000000e+02 0.000000000000e+00 0.000000000000e+00 4.000000000000e+02 3.000000000000e+07 4.505019407295e-05 5.615000000000e+02 6.000000000000e-02 
2.920000000000e+02 0.000000000000e+00 0.000000000000e+00 4.000000000000e+02 3.000000000000e+07 4.505019407295e-05 5.615000000000e+02 6.000000000000e-02 
2.940000000000e+02 0.000000000000e+00 0.000000000000e+00 4.000000000000e+02 3.000000000000e+07 4.505019407295e-05 5.615000000000e+02 6.000000000000e-02 
2.960000000000e+02 0.000000000000e+00 0.000000000000e+00 4.000000000000e+02 3.000000000000e+07 4.505019407295e-05 5.615000000000e+02 6.000000000000e-02 
2.980000000000e+02 0.000000000000e+00 0.000000000000e+00 4.000000000000e+02 3.000000000000e+07 4.505019407295e-05 5.615000000000e+02 6.000000000000e-02 
3.000000000000e+02 0.000000000000e+00 0.000000000000e+00 4.000000000000e+02 3.000000000000e+07 4.505019407295e-05 5.615000000000e+02 6.000000000000e-02 
3.020000000000e+02 0.000000000000e+00 0.000000000000e+00 4.000000000000e+02 3.000000000000e+07 4.505019407295e-05 5.615000000000e+02 6.000000000000e-02 
3.040000000000e+02 0.000000000000e+00 0.000000000000e+00 4.000000000000e+02 3.000000000000e+07 4.505019407295e-05 5.615000000000e+02 6.000000000000e-02 
3.060000000000e+02 0.000000000000e+00 0.000000000000e+00 4.000000000000e+02 3.000000000000e+07 4.505019407295e-05 5.615000000000e+02 6.000000000000e-02 
3.080000000000e+02 0.000000000000e+00 0.000000000000e+00 4.000000000000e+02 3.000000000000e+07 4.505019407295e-05 5.615000000000e+02 6.000000000000e-02 
3.100000000000e+02 0.000000000000e+00 0.000000000000e+00 4.000000000000e+02 3.000000000000e+07 4.505019407295e-05 5.615000000000e+02 6.000000000000e-02 
3.120000000000e+02 0.000000000000e+00 0.000000000000e+00 4.000000000000e+02 3.000000000000e+07 4.505019407295e-05 5.615000000000e+02 6.000000000000e-02 
3.140000000000e+02 0.000000000000e+00 0.000000000000e+00 4.000000000000e+02 3.000000000000e+07 4.505019407295e-05 5.615000000000e+02 6.000000000000e-02 
3.160000000000e+02 0.000000000000e+00 0.000000000000e+00 4.000000000000e+02 3.000000000000e+07 4.505019407295e-05 5.615000000000e+02 6.000000000000e-02 
3.180000000000e+02 0.000000000000e+00 0.000000000000e+00 4.000000000000e+02 3.000000000000e+07 4.505019407295e-05 5.615000000000e+02 6.000000000000e-02 
3.200000000000e+02 0.000000000000e+00 0.000000000000e+00 4.000000000000e+02 3.000000000000e+07 4.505019407295e-05 5.615000000000e+02 6.000000000000e-02 
3.220000000000e+02 0.000000000000e+00 0.000000000000e+00 4.000000000000e+02 3.000000000000e+07 4.505019407295e-05 5.615000000000e+02 6.000000000000e-02 
3.240000000000e+02 0.000000000000e+00 0.000000000000e+00 4.000000000000e+02 3.000000000000e+07 4.505019407295e-05 5.615000000000e+02 6.000000000000e-02 
3.260000000000e+02 0.000000000000e+00 0.000000000000e+00 4.000000000000e+02 3.000000000000e+07 4.505019407295e-05 5.615000000000e+02 6.000000000000e-02 
3.280000000000e+02 0.000000000000e+00 0.000000000000e+00 4.000000000000e+02 3.000000000000e+07 4.505019407295e-05 5.615000000000e+02 6.000000000000e-02 
3.300000000000e+02 0.000000000000e+00 0.000000000000e+00 4.000000000000e+02 3.000000000000e+07 4.505019407295e-05 5.615000000000e+02 6.000000000000e-02 
3.320000000000e+02 0.000000000000e+00 0.000000000000e+00 4.000000000000e+02 3.000000000000e+07 4.505019407295e-05 5.615000000000e+02 6.000000000000e-02 
3.340000000000e+02 0.000000000000e+00 0.000000000000e+00 4.000000000000e+02 3.000000000000e+07 4.505019407295e-05 5.615000000000e+02 6.000000000000e-02 
3.360000000000e+02 0.000000000000e+00 0.000000000000e+00 4.000000000000e+02 3.000000000000e+07 4.505019407295e-05 5.615000000000e+02 6.000000000000e-02 
3.380000000000e+02 0.000000000000e+00 0.000000000000e+00 4.000000000000e+02 3.000000000000e+07 4.505019407295e-05 5.615000000000e+02 6.000000000000e-02 
3.400000000000e+02 0.000000000000e+00 0.000000000000e+00 4.000000000000e+02 3.000000000000e+07 4.505019407295e-05 5.615000000000e+02 6.000000000000e-02 
3.420000000000e+02 0.000000000000e+00 0.000000000000e+00 4.000000000000e+02 3.000000000000e+07 4.505019407295e-05 5.615000000000e+02 6.000000000000e-02 
3.440000000000e+02 0.000000000000e+00 0.000000000000e+00 4.000000000000e+02 3.000000000000e+07 4.505019407295e-05 5.615000000000e+02 6.000000000000e-02 
3.460000000000e+02 0.000000000000e+00 0.000000000000e+00 4.000000000000e+02 3.000000000000e+07 4.505019407295e-05 5.615000000000e+02 6.000000000000e-02 
3.480000000000e+02 0.000000000000e+00 0.000000000000e+00 4.000000000000e+02 3.000000000000e+07 4.505019407295e-05 5.615000000000e+02 6.000000000000e-02 
3.500000000000e+02 0.000000000000e+00 0.000000000000e+00 4.000000000000e+02 3.000000000000e+07 4.505019407295e-05 5.615000000000e+02 6.000000000000e-02 
3.520000000000e+02 0.000000000000e+00 0.000000000000e+00 4.000000000000e+02 3.000000000000e+07 4.505019407295e-05 5.615000000000e+02 6.000000000000e-02 
3.540000000000e+02 0.000000000000e+00 0.000000000000e+00 4.000000000000e+02 3.000000000000e+07 4.505019407295e-05 5.615000000000e+02 6.000000000000e-02 
3.560000000000e+02 0.000000000000e+00 0.000000000000e+00 4.000000000000e+02 3.000000000000e+07 4.505019407295e-05 5.615000000000e+02 6.000000000000e-02 
3.580000000000e+02 0.000000000000e+00 0.000000000000e+00 4.000000000000e+02 3.000000000000e+07 4.505019407295e-05 5.615000000000e+02 6.000000000000e-02 
3.600000000000e+02 0.000000000000e+00 0.000000000000e+00 4.000000000000e+02 3.000000000000e+07 4.505019407295e-05 5.615000000000e+02 6.000000000000e-02 
3.620000000000e+02 0.000000000000e+00 0.000000000000e+00 4.000000000000e+02 3.000000000000e+07 4.505019407295e-05 5.615000000000e+02 6.000000000000e-02 
3.640000000000e+02 0.000000000000e+00 0.000000000000e+00 4.000000000000e+02 3.000000000000e+07 4.505019407295e-05 5.615000000000e+02 6.000000000000e-02 
3.660000000000e+02 0.000000000000e+00 0.000000000000e+00 4.000000000000e+02 3.000000000000e+07 4.505019407295e-05 5.615000000000e+02 6.000000000000e-02 
3.680000000000e+02 0.000000000000e+00 0.000000000000e+00 4.000000000000e+02 3.000000000000e+07 4.505019407295e-05 5.615000000000e+02 6.000000000000e-02 
3.700000000000e+02 0.000000000000e+00 0.000000000000e+00 4.000000000000e+02 3.000000000000e+07 4.505019407295e-05 5.615000000000e+02 6.000000000000e-02 
3.720000000000e+02 0.000000000000e+00 0.000000000000e+00 4.000000000000e+02 3.000000000000e+07 4.505019407295e-05 5.615000000000e+02 6.000000000000e-02 
3.740000000000e+02 0.000000000000e+00 0.000000000000e+00 4.000000000000e+02 3.000000000000e+07 4.505019407295e-05 5.615000000000e+02 6.000000000000e-02 
3.760000000000e+02 0.000000000000e+00 0.000000000000e+00 4.000000000000e+02 3.000000000000e+07 4.505019407295e-05 5.615000000000e+02 6.000000000000e-02 
3.780000000000e+02 0.000000000000e+00 0.000000000000e+00 4.000000000000e+02 3.000000000000e+07 4.505019407295e-05 5.615000000000e+02 6.000000000000e-02 
3.800000000000e+02 0.000000000000e+00 0.000000000000e+00 4.000000000000e+02 3.000000000000e+07 4.505019407295e-05 5.615000000000e+02 6.000000000000e-02 
3.820000000000e+02 0.000000000000e+00 0.000000000000e+00 4.000000000000e+02 3.000000000000e+07 4.505019407295e-05 5.615000000000e+02 6.000000000000e-02 
3.840000000000e+02 0.000000000000e+00 0.000000000000e+00 4.000000000000e+02 3.000000000000e+07 4.505019407295e-05 5.615000000000e+02 6.000000000000e-02 
3.860000000000e+02 0.000000000000e+00 0.000000000000e+00 4.000000000000e+02 3.000000000000e+07 4.505019407295e-05 5.615000000000e+02 6.000000000000e-02 