VARIABLES  = "X","Y","Z", "HEAD", "C(4)", "CO3-2", "Ca", "Mg", "Cl", "pH", "pe", "Calcite", "Dolomite(dis)"
ZONE T="0.000000000000e+00s", N=101, E=100, F=FEPOINT, ET=QUADRILATERAL
STRANDID=1, SOLUTIONTIME=0.000000000000e+00
0.000000000000e+00 0.000000000000e+00 0.000000000000e+00 1.000000000000e+00 1.227217038571e-01 1.000000000000e-04 1.227217038571e-01 9.999999975403e-10 9.999999975403e-10 9.909703055512e+00 -2.517201979763e+00 5.741200000000e-02 0.000000000000e+00 
5.000000000000e-03 0.000000000000e+00 0.000000000000e+00 1.000000000000e+00 1.227217038571e-01 1.000000000000e-04 1.227217038571e-01 9.999999975403e-10 9.999999975403e-10 9.909703055512e+00 -2.517201979763e+00 5.741200000000e-02 0.000000000000e+00 
1.000000000000e-02 0.000000000000e+00 0.000000000000e+00 1.000000000000e+00 1.227217038571e-01 1.000000000000e-04 1.227217038571e-01 9.999999975403e-10 9.999999975403e-10 9.909703055512e+00 -2.517201979763e+00 5.741200000000e-02 0.000000000000e+00 
1.500000000000e-02 0.000000000000e+00 0.000000000000e+00 1.000000000000e+00 1.227217038571e-01 1.000000000000e-04 1.227217038571e-01 9.999999975403e-10 9.999999975403e-10 9.909703055512e+00 -2.517201979763e+00 5.741200000000e-02 0.000000000000e+00 
2.000000000000e-02 0.000000000000e+00 0.000000000000e+00 1.000000000000e+00 1.227217038571e-01 1.000000000000e-04 1.227217038571e-01 9.999999975403e-10 9.999999975403e-10 9.909703055512e+00 -2.517201979763e+00 5.741200000000e-02 0.000000000000e+00 
2.500000000000e-02 0.000000000000e+00 0.000000000000e+00 1.000000000000e+00 1.227217038571e-01 1.000000000000e-04 1.227217038571e-01 9.999999975403e-10 9.999999975403e-10 9.909703055512e+00 -2.517201979763e+00 5.741200000000e-02 0.000000000000e+00 
3.000000000000e-02 0.000000000000e+00 0.000000000000e+00 1.000000000000e+00 1.227217038571e-01 1.000000000000e-04 1.227217038571e-01 9.999999975403e-10 9.999999975403e-10 9.909703055512e+00 -2.517201979763e+00 5.741200000000e-02 0.000000000000e+00 
3.500000000000e-02 0.000000000000e+00 0.000000000000e+00 1.000000000000e+00 1.227217038571e-01 1.000000000000e-04 1.227217038571e-01 9.999999975403e-10 9.999999975403e-10 9.909703055512e+00 -2.517201979763e+00 5.741200000000e-02 0.000000000000e+00 
4.000000000000e-02 0.000000000000e+00 0.000000000000e+00 1.000000000000e+00 1.227217038571e-01 1.000000000000e-04 1.227217038571e-01 9.999999975403e-10 9.999999975403e-10 9.909703055512e+00 -2.517201979763e+00 5.741200000000e-02 0.000000000000e+00 
4.500000000000e-02 0.000000000000e+00 0.000000000000e+00 1.000000000000e+00 1.227217038571e-01 1.000000000000e-04 1.227217038571e-01 9.999999975403e-10 9.999999975403e-10 9.909703055512e+00 -2.517201979763e+00 5.741200000000e-02 0.000000000000e+00 
5.000000000000e-02 0.000000000000e+00 0.000000000000e+00 1.000000000000e+00 1.227217038571e-01 1.000000000000e-04 1.227217038571e-01 9.999999975403e-10 9.999999975403e-10 9.909703055512e+00 -2.517201979763e+00 5.741200000000e-02 0.000000000000e+00 
5.500000000000e-02 0.000000000000e+00 0.000000000000e+00 1.000000000000e+00 1.227217038571e-01 1.000000000000e-04 1.227217038571e-01 9.999999975403e-10 9.999999975403e-10 9.909703055512e+00 -2.517201979763e+00 5.741200000000e-02 0.000000000000e+00 
6.000000000000e-02 0.000000000000e+00 0.000000000000e+00 1.000000000000e+00 1.227217038571e-01 1.000000000000e-04 1.227217038571e-01 9.999999975403e-10 9.999999975403e-10 9.909703055512e+00 -2.517201979763e+00 5.741200000000e-02 0.000000000000e+00 
6.500000000000e-02 0.000000000000e+00 0.000000000000e+00 1.000000000000e+00 1.227217038571e-01 1.000000000000e-04 1.227217038571e-01 9.999999975403e-10 9.999999975403e-10 9.909703055512e+00 -2.517201979763e+00 5.741200000000e-02 0.000000000000e+00 
7.000000000000e-02 0.000000000000e+00 0.000000000000e+00 1.000000000000e+00 1.227217038571e-01 1.000000000000e-04 1.227217038571e-01 9.999999975403e-10 9.999999975403e-10 9.909703055512e+00 -2.517201979763e+00 5.741200000000e-02 0.000000000000e+00 
7.500000000000e-02 0.000000000000e+00 0.000000000000e+00 1.000000000000e+00 1.227217038571e-01 1.000000000000e-04 1.227217038571e-01 9.999999975403e-10 9.999999975403e-10 9.909703055512e+00 -2.517201979763e+00 5.741200000000e-02 0.000000000000e+00 
8.000000000000e-02 0.000000000000e+00 0.000000000000e+00 1.000000000000e+00 1.227217038571e-01 1.000000000000e-04 1.227217038571e-01 9.999999975403e-10 9.999999975403e-10 9.909703055512e+00 -2.517201979763e+00 5.741200000000e-02 0.000000000000e+00 
8.500000000000e-02 0.000000000000e+00 0.000000000000e+00 1.000000000000e+00 1.227217038571e-01 1.000000000000e-04 1.227217038571e-01 9.999999975403e-10 9.999999975403e-10 9.909703055512e+00 -2.517201979763e+00 5.741200000000e-02 0.000000000000e+00 
9.000000000000e-02 0.000000000000e+00 0.000000000000e+00 1.000000000000e+00 1.227217038571e-01 1.000000000000e-04 1.227217038571e-01 9.999999975403e-10 9.999999975403e-10 9.909703055512e+00 -2.517201979763e+00 5.741200000000e-02 0.000000000000e+00 
9.500000000000e-02 0.000000000000e+00 0.000000000000e+00 1.000000000000e+00 1.227217038571e-01 1.000000000000e-04 1.227217038571e-01 9.999999975403e-10 9.999999975403e-10 9.909703055512e+00 -2.517201979763e+00 5.741200000000e-02 0.000000000000e+00 
1.000000000000e-01 0.000000000000e+00 0.000000000000e+00 1.000000000000e+00 1.227217038571e-01 1.000000000000e-04 1.227217038571e-01 9.999999975403e-10 9.999999975403e-10 9.909703055512e+00 -2.517201979763e+00 5.741200000000e-02 0.000000000000e+00 
1.050000000000e-01 0.000000000000e+00 0.000000000000e+00 1.000000000000e+00 1.227217038571e-01 1.000000000000e-04 1.227217038571e-01 9.999999975403e-10 9.999999975403e-10 9.909703055512e+00 -2.517201979763e+00 5.741200000000e-02 0.000000000000e+00 
1.100000000000e-01 0.000000000000e+00 0.000000000000e+00 1.000000000000e+00 1.227217038571e-01 1.000000000000e-04 1.227217038571e-01 9.999999975403e-10 9.999999975403e-10 9.909703055512e+00 -2.517201979763e+00 5.741200000000e-02 0.000000000000e+00 
1.150000000000e-01 0.000000000000e+00 0.000000000000e+00 1.000000000000e+00 1.227217038571e-01 1.000000000000e-04 1.227217038571e-01 9.999999975403e-10 9.999999975403e-10 9.909703055512e+00 -2.517201979763e+00 5.741200000000e-02 0.000000000000e+00 
1.200000000000e-01 0.000000000000e+00 0.000000000000e+00 1.000000000000e+00 1.227217038571e-01 1.000000000000e-04 1.227217038571e-01 9.999999975403e-10 9.999999975403e-10 9.909703055512e+00 -2.517201979763e+00 5.741200000000e-02 0.000000000000e+00 
1.250000000000e-01 0.000000000000e+00 0.000000000000e+00 1.000000000000e+00 1.227217038571e-01 1.000000000000e-04 1.227217038571e-01 9.999999975403e-10 9.999999975403e-10 9.909703055512e+00 -2.517201979763e+00 5.741200000000e-02 0.000000000000e+00 
1.300000000000e-01 0.000000000000e+00 0.000000000000e+00 1.000000000000e+00 1.227217038571e-01 1.000000000000e-04 1.227217038571e-01 9.999999975403e-10 9.999999975403e-10 9.909703055512e+00 -2.517201979763e+00 5.741200000000e-02 0.000000000000e+00 
1.350000000000e-01 0.000000000000e+00 0.000000000000e+00 1.000000000000e+00 1.227217038571e-01 1.000000000000e-04 1.227217038571e-01 9.999999975403e-10 9.999999975403e-10 9.909703055512e+00 -2.517201979763e+00 5.741200000000e-02 0.000000000000e+00 
1.400000000000e-01 0.000000000000e+00 0.000000000000e+00 1.000000000000e+00 1.227217038571e-01 1.000000000000e-04 1.227217038571e-01 9.999999975403e-10 9.999999975403e-10 9.909703055512e+00 -2.517201979763e+00 5.741200000000e-02 0.000000000000e+00 
1.450000000000e-01 0.000000000000e+00 0.000000000000e+00 1.000000000000e+00 1.227217038571e-01 1.000000000000e-04 1.227217038571e-01 9.999999975403e-10 9.999999975403e-10 9.909703055512e+00 -2.517201979763e+00 5.741200000000e-02 0.000000000000e+00 
1.500000000000e-01 0.000000000000e+00 0.000000000000e+00 1.000000000000e+00 1.227217038571e-01 1.000000000000e-04 1.227217038571e-01 9.999999975403e-10 9.999999975403e-10 9.909703055512e+00 -2.517201979763e+00 5.741200000000e-02 0.000000000000e+00 
1.550000000000e-01 0.000000000000e+00 0.000000000000e+00 1.000000000000e+00 1.227217038571e-01 1.000000000000e-04 1.227217038571e-01 9.999999975403e-10 9.999999975403e-10 9.909703055512e+00 -2.517201979763e+00 5.741200000000e-02 0.000000000000e+00 
1.600000000000e-01 0.000000000000e+00 0.000000000000e+00 1.000000000000e+00 1.227217038571e-01 1.000000000000e-04 1.227217038571e-01 9.999999975403e-10 9.999999975403e-10 9.909703055512e+00 -2.517201979763e+00 5.741200000000e-02 0.000000000000e+00 
1.650000000000e-01 0.000000000000e+00 0.000000000000e+00 1.000000000000e+00 1.227217038571e-01 1.000000000000e-04 1.227217038571e-01 9.999999975403e-10 9.999999975403e-10 9.909703055512e+00 -2.517201979763e+00 5.741200000000e-02 0.000000000000e+00 
1.700000000000e-01 0.000000000000e+00 0.000000000000e+00 1.000000000000e+00 1.227217038571e-01 1.000000000000e-04 1.227217038571e-01 9.999999975403e-10 9.999999975403e-10 9.909703055512e+00 -2.517201979763e+00 5.741200000000e-02 0.000000000000e+00 
1.750000000000e-01 0.000000000000e+00 0.000000000000e+00 1.000000000000e+00 1.227217038571e-01 1.000000000000e-04 1.227217038571e-01 9.999999975403e-10 9.999999975403e-10 9.909703055512e+00 -2.517201979763e+00 5.741200000000e-02 0.000000000000e+00 
1.800000000000e-01 0.000000000000e+00 0.000000000000e+00 1.000000000000e+00 1.227217038571e-01 1.000000000000e-04 1.227217038571e-01 9.999999975403e-10 9.999999975403e-10 9.909703055512e+00 -2.517201979763e+00 5.741200000000e-02 0.000000000000e+00 
1.850000000000e-01 0.000000000000e+00 0.000000000000e+00 1.000000000000e+00 1.227217038571e-01 1.000000000000e-04 1.227217038571e-01 9.999999975403e-10 9.999999975403e-10 9.909703055512e+00 -2.517201979763e+00 5.741200000000e-02 0.000000000000e+00 
1.900000000000e-01 0.000000000000e+00 0.000000000000e+00 1.000000000000e+00 1.227217038571e-01 1.000000000000e-04 1.227217038571e-01 9.999999975403e-10 9.999999975403e-10 9.909703055512e+00 -2.517201979763e+00 5.741200000000e-02 0.000000000000e+00 
1.950000000000e-01 0.000000000000e+00 0.000000000000e+00 1.000000000000e+00 1.227217038571e-01 1.000000000000e-04 1.227217038571e-01 9.999999975403e-10 9.999999975403e-10 9.909703055512e+00 -2.517201979763e+00 5.741200000000e-02 0.000000000000e+00 
2.000000000000e-01 0.000000000000e+00 0.000000000000e+00 1.000000000000e+00 1.227217038571e-01 1.000000000000e-04 1.227217038571e-01 9.999999975403e-10 9.999999975403e-10 9.909703055512e+00 -2.517201979763e+00 5.741200000000e-02 0.000000000000e+00 
2.050000000000e-01 0.000000000000e+00 0.000000000000e+00 1.000000000000e+00 1.227217038571e-01 1.000000000000e-04 1.227217038571e-01 9.999999975403e-10 9.999999975403e-10 9.909703055512e+00 -2.517201979763e+00 5.741200000000e-02 0.000000000000e+00 
2.100000000000e-01 0.000000000000e+00 0.000000000000e+00 1.000000000000e+00 1.227217038571e-01 1.000000000000e-04 1.227217038571e-01 9.999999975403e-10 9.999999975403e-10 9.909703055512e+00 -2.517201979763e+00 5.741200000000e-02 0.000000000000e+00 
2.150000000000e-01 0.000000000000e+00 0.000000000000e+00 1.000000000000e+00 1.227217038571e-01 1.000000000000e-04 1.227217038571e-01 9.999999975403e-10 9.999999975403e-10 9.909703055512e+00 -2.517201979763e+00 5.741200000000e-02 0.000000000000e+00 
2.200000000000e-01 0.000000000000e+00 0.000000000000e+00 1.000000000000e+00 1.227217038571e-01 1.000000000000e-04 1.227217038571e-01 9.999999975403e-10 9.999999975403e-10 9.909703055512e+00 -2.517201979763e+00 5.741200000000e-02 0.000000000000e+00 
2.250000000000e-01 0.000000000000e+00 0.000000000000e+00 1.000000000000e+00 1.227217038571e-01 1.000000000000e-04 1.227217038571e-01 9.999999975403e-10 9.999999975403e-10 9.909703055512e+00 -2.517201979763e+00 5.741200000000e-02 0.000000000000e+00 
2.300000000000e-01 0.000000000000e+00 0.000000000000e+00 1.000000000000e+00 1.227217038571e-01 1.000000000000e-04 1.227217038571e-01 9.999999975403e-10 9.999999975403e-10 9.909703055512e+00 -2.517201979763e+00 5.741200000000e-02 0.000000000000e+00 
2.350000000000e-01 0.000000000000e+00 0.000000000000e+00 1.000000000000e+00 1.227217038571e-01 1.000000000000e-04 1.227217038571e-01 9.999999975403e-10 9.999999975403e-10 9.909703055512e+00 -2.517201979763e+00 5.741200000000e-02 0.000000000000e+00 
2.400000000000e-01 0.000000000000e+00 0.000000000000e+00 1.000000000000e+00 1.227217038571e-01 1.000000000000e-04 1.227217038571e-01 9.999999975403e-10 9.999999975403e-10 9.909703055512e+00 -2.517201979763e+00 5.741200000000e-02 0.000000000000e+00 
2.450000000000e-01 0.000000000000e+00 0.000000000000e+00 1.000000000000e+00 1.227217038571e-01 1.000000000000e-04 1.227217038571e-01 9.999999975403e-10 9.999999975403e-10 9.909703055512e+00 -2.517201979763e+00 5.741200000000e-02 0.000000000000e+00 
2.500000000000e-01 0.000000000000e+00 0.000000000000e+00 1.000000000000e+00 1.227217038571e-01 1.000000000000e-04 1.227217038571e-01 9.999999975403e-10 9.999999975403e-10 9.909703055512e+00 -2.517201979763e+00 5.741200000000e-02 0.000000000000e+00 
2.550000000000e-01 0.000000000000e+00 0.000000000000e+00 1.000000000000e+00 1.227217038571e-01 1.000000000000e-04 1.227217038571e-01 9.999999975403e-10 9.999999975403e-10 9.909703055512e+00 -2.517201979763e+00 5.741200000000e-02 0.000000000000e+00 
2.600000000000e-01 0.000000000000e+00 0.000000000000e+00 1.000000000000e+00 1.227217038571e-01 1.000000000000e-04 1.227217038571e-01 9.999999975403e-10 9.999999975403e-10 9.909703055512e+00 -2.517201979763e+00 5.741200000000e-02 0.000000000000e+00 
2.650000000000e-01 0.000000000000e+00 0.000000000000e+00 1.000000000000e+00 1.227217038571e-01 1.000000000000e-04 1.227217038571e-01 9.999999975403e-10 9.999999975403e-10 9.909703055512e+00 -2.517201979763e+00 5.741200000000e-02 0.000000000000e+00 
2.700000000000e-01 0.000000000000e+00 0.000000000000e+00 1.000000000000e+00 1.227217038571e-01 1.000000000000e-04 1.227217038571e-01 9.999999975403e-10 9.999999975403e-10 9.909703055512e+00 -2.517201979763e+00 5.741200000000e-02 0.000000000000e+00 
2.750000000000e-01 0.000000000000e+00 0.000000000000e+00 1.000000000000e+00 1.227217038571e-01 1.000000000000e-04 1.227217038571e-01 9.999999975403e-10 9.999999975403e-10 9.909703055512e+00 -2.517201979763e+00 5.741200000000e-02 0.000000000000e+00 
2.800000000000e-01 0.000000000000e+00 0.000000000000e+00 1.000000000000e+00 1.227217038571e-01 1.000000000000e-04 1.227217038571e-01 9.999999975403e-10 9.999999975403e-10 9.909703055512e+00 -2.517201979763e+00 5.741200000000e-02 0.000000000000e+00 
2.850000000000e-01 0.000000000000e+00 0.000000000000e+00 1.000000000000e+00 1.227217038571e-01 1.000000000000e-04 1.227217038571e-01 9.999999975403e-10 9.999999975403e-10 9.909703055512e+00 -2.517201979763e+00 5.741200000000e-02 0.000000000000e+00 
2.900000000000e-01 0.000000000000e+00 0.000000000000e+00 1.000000000000e+00 1.227217038571e-01 1.000000000000e-04 1.227217038571e-01 9.999999975403e-10 9.999999975403e-10 9.909703055512e+00 -2.517201979763e+00 5.741200000000e-02 0.000000000000e+00 
2.950000000000e-01 0.000000000000e+00 0.000000000000e+00 1.000000000000e+00 1.227217038571e-01 1.000000000000e-04 1.227217038571e-01 9.999999975403e-10 9.999999975403e-10 9.909703055512e+00 -2.517201979763e+00 5.741200000000e-02 0.000000000000e+00 
3.000000000000e-01 0.000000000000e+00 0.000000000000e+00 1.000000000000e+00 1.227217038571e-01 1.000000000000e-04 1.227217038571e-01 9.999999975403e-10 9.999999975403e-10 9.909703055512e+00 -2.517201979763e+00 5.741200000000e-02 0.000000000000e+00 
3.050000000000e-01 0.000000000000e+00 0.000000000000e+00 1.000000000000e+00 1.227217038571e-01 1.000000000000e-04 1.227217038571e-01 9.999999975403e-10 9.999999975403e-10 9.909703055512e+00 -2.517201979763e+00 5.741200000000e-02 0.000000000000e+00 
3.100000000000e-01 0.000000000000e+00 0.000000000000e+00 1.000000000000e+00 1.227217038571e-01 1.000000000000e-04 1.227217038571e-01 9.999999975403e-10 9.999999975403e-10 9.909703055512e+00 -2.517201979763e+00 5.741200000000e-02 0.000000000000e+00 
3.150000000000e-01 0.000000000000e+00 0.000000000000e+00 1.000000000000e+00 1.227217038571e-01 1.000000000000e-04 1.227217038571e-01 9.999999975403e-10 9.999999975403e-10 9.909703055512e+00 -2.517201979763e+00 5.741200000000e-02 0.000000000000e+00 
3.200000000000e-01 0.000000000000e+00 0.000000000000e+00 1.000000000000e+00 1.227217038571e-01 1.000000000000e-04 1.227217038571e-01 9.999999975403e-10 9.999999975403e-10 9.909703055512e+00 -2.517201979763e+00 5.741200000000e-02 0.000000000000e+00 
3.250000000000e-01 0.000000000000e+00 0.000000000000e+00 1.000000000000e+00 1.227217038571e-01 1.000000000000e-04 1.227217038571e-01 9.999999975403e-10 9.999999975403e-10 9.909703055512e+00 -2.517201979763e+00 5.741200000000e-02 0.000000000000e+00 
3.300000000000e-01 0.000000000000e+00 0.000000000000e+00 1.000000000000e+00 1.227217038571e-01 1.000000000000e-04 1.227217038571e-01 9.999999975403e-10 9.999999975403e-10 9.909703055512e+00 -2.517201979763e+00 5.741200000000e-02 0.000000000000e+00 
3.350000000000e-01 0.000000000000e+00 0.000000000000e+00 1.000000000000e+00 1.227217038571e-01 1.000000000000e-04 1.227217038571e-01 9.999999975403e-10 9.999999975403e-10 9.909703055512e+00 -2.517201979763e+00 5.741200000000e-02 0.000000000000e+00 
3.400000000000e-01 0.000000000000e+00 0.000000000000e+00 1.000000000000e+00 1.227217038571e-01 1.000000000000e-04 1.227217038571e-01 9.999999975403e-10 9.999999975403e-10 9.909703055512e+00 -2.517201979763e+00 5.741200000000e-02 0.000000000000e+00 
3.450000000000e-01 0.000000000000e+00 0.000000000000e+00 1.000000000000e+00 1.227217038571e-01 1.000000000000e-04 1.227217038571e-01 9.999999975403e-10 9.999999975403e-10 9.909703055512e+00 -2.517201979763e+00 5.741200000000e-02 0.000000000000e+00 
3.500000000000e-01 0.000000000000e+00 0.000000000000e+00 1.000000000000e+00 1.227217038571e-01 1.000000000000e-04 1.227217038571e-01 9.999999975403e-10 9.999999975403e-10 9.909703055512e+00 -2.517201979763e+00 5.741200000000e-02 0.000000000000e+00 
3.550000000000e-01 0.000000000000e+00 0.000000000000e+00 1.000000000000e+00 1.227217038571e-01 1.000000000000e-04 1.227217038571e-01 9.999999975403e-10 9.999999975403e-10 9.909703055512e+00 -2.517201979763e+00 5.741200000000e-02 0.000000000000e+00 
3.600000000000e-01 0.000000000000e+00 0.000000000000e+00 1.000000000000e+00 1.227217038571e-01 1.000000000000e-04 1.227217038571e-01 9.999999975403e-10 9.999999975403e-10 9.909703055512e+00 -2.517201979763e+00 5.741200000000e-02 0.000000000000e+00 
3.650000000000e-01 0.000000000000e+00 0.000000000000e+00 1.000000000000e+00 1.227217038571e-01 1.000000000000e-04 1.227217038571e-01 9.999999975403e-10 9.999999975403e-10 9.909703055512e+00 -2.517201979763e+00 5.741200000000e-02 0.000000000000e+00 
3.700000000000e-01 0.000000000000e+00 0.000000000000e+00 1.000000000000e+00 1.227217038571e-01 1.000000000000e-04 1.227217038571e-01 9.999999975403e-10 9.999999975403e-10 9.909703055512e+00 -2.517201979763e+00 5.741200000000e-02 0.000000000000e+00 
3.750000000000e-01 0.000000000000e+00 0.000000000000e+00 1.000000000000e+00 1.227217038571e-01 1.000000000000e-04 1.227217038571e-01 9.999999975403e-10 9.999999975403e-10 9.909703055512e+00 -2.517201979763e+00 5.741200000000e-02 0.000000000000e+00 
3.800000000000e-01 0.000000000000e+00 0.000000000000e+00 1.000000000000e+00 1.227217038571e-01 1.000000000000e-04 1.227217038571e-01 9.999999975403e-10 9.999999975403e-10 9.909703055512e+00 -2.517201979763e+00 5.741200000000e-02 0.000000000000e+00 
3.850000000000e-01 0.000000000000e+00 0.000000000000e+00 1.000000000000e+00 1.227217038571e-01 1.000000000000e-04 1.227217038571e-01 9.999999975403e-10 9.999999975403e-10 9.909703055512e+00 -2.517201979763e+00 5.741200000000e-02 0.000000000000e+00 
3.900000000000e-01 0.000000000000e+00 0.000000000000e+00 1.000000000000e+00 1.227217038571e-01 1.000000000000e-04 1.227217038571e-01 9.999999975403e-10 9.999999975403e-10 9.909703055512e+00 -2.517201979763e+00 5.741200000000e-02 0.000000000000e+00 
3.950000000000e-01 0.000000000000e+00 0.000000000000e+00 1.000000000000e+00 1.227217038571e-01 1.000000000000e-04 1.227217038571e-01 9.999999975403e-10 9.999999975403e-10 9.909703055512e+00 -2.517201979763e+00 5.741200000000e-02 0.000000000000e+00 
4.000000000000e-01 0.000000000000e+00 0.000000000000e+00 1.000000000000e+00 1.227217038571e-01 1.000000000000e-04 1.227217038571e-01 9.999999975403e-10 9.999999975403e-10 9.909703055512e+00 -2.517201979763e+00 5.741200000000e-02 0.000000000000e+00 
4.050000000000e-01 0.000000000000e+00 0.000000000000e+00 1.000000000000e+00 1.227217038571e-01 1.000000000000e-04 1.227217038571e-01 9.999999975403e-10 9.999999975403e-10 9.909703055512e+00 -2.517201979763e+00 5.741200000000e-02 0.000000000000e+00 
4.100000000000e-01 0.000000000000e+00 0.000000000000e+00 1.000000000000e+00 1.227217038571e-01 1.000000000000e-04 1.227217038571e-01 9.999999975403e-10 9.999999975403e-10 9.909703055512e+00 -2.517201979763e+00 5.741200000000e-02 0.000000000000e+00 
4.150000000000e-01 0.000000000000e+00 0.000000000000e+00 1.000000000000e+00 1.227217038571e-01 1.000000000000e-04 1.227217038571e-01 9.999999975403e-10 9.999999975403e-10 9.909703055512e+00 -2.517201979763e+00 5.741200000000e-02 0.000000000000e+00 
4.200000000000e-01 0.000000000000e+00 0.000000000000e+00 1.000000000000e+00 1.227217038571e-01 1.000000000000e-04 1.227217038571e-01 9.999999975403e-10 9.999999975403e-10 9.909703055512e+00 -2.517201979763e+00 5.741200000000e-02 0.000000000000e+00 
4.250000000000e-01 0.000000000000e+00 0.000000000000e+00 1.000000000000e+00 1.227217038571e-01 1.000000000000e-04 1.227217038571e-01 9.999999975403e-10 9.999999975403e-10 9.909703055512e+00 -2.517201979763e+00 5.741200000000e-02 0.000000000000e+00 
4.300000000000e-01 0.000000000000e+00 0.000000000000e+00 1.000000000000e+00 1.227217038571e-01 1.000000000000e-04 1.227217038571e-01 9.999999975403e-10 9.999999975403e-10 9.909703055512e+00 -2.517201979763e+00 5.741200000000e-02 0.000000000000e+00 
4.350000000000e-01 0.000000000000e+00 0.000000000000e+00 1.000000000000e+00 1.227217038571e-01 1.000000000000e-04 1.227217038571e-01 9.999999975403e-10 9.999999975403e-10 9.909703055512e+00 -2.517201979763e+00 5.741200000000e-02 0.000000000000e+00 
4.400000000000e-01 0.000000000000e+00 0.000000000000e+00 1.000000000000e+00 1.227217038571e-01 1.000000000000e-04 1.227217038571e-01 9.999999975403e-10 9.999999975403e-10 9.909703055512e+00 -2.517201979763e+00 5.741200000000e-02 0.000000000000e+00 
4.450000000000e-01 0.000000000000e+00 0.000000000000e+00 1.000000000000e+00 1.227217038571e-01 1.000000000000e-04 1.227217038571e-01 9.999999975403e-10 9.999999975403e-10 9.909703055512e+00 -2.517201979763e+00 5.741200000000e-02 0.000000000000e+00 
4.500000000000e-01 0.000000000000e+00 0.000000000000e+00 1.000000000000e+00 1.227217038571e-01 1.000000000000e-04 1.227217038571e-01 9.999999975403e-10 9.999999975403e-10 9.909703055512e+00 -2.517201979763e+00 5.741200000000e-02 0.000000000000e+00 
4.550000000000e-01 0.000000000000e+00 0.000000000000e+00 1.000000000000e+00 1.227217038571e-01 1.000000000000e-04 1.227217038571e-01 9.999999975403e-10 9.999999975403e-10 9.909703055512e+00 -2.517201979763e+00 5.741200000000e-02 0.000000000000e+00 
4.600000000000e-01 0.000000000000e+00 0.000000000000e+00 1.000000000000e+00 1.227217038571e-01 1.000000000000e-04 1.227217038571e-01 9.999999975403e-10 9.999999975403e-10 9.909703055512e+00 -2.517201979763e+00 5.741200000000e-02 0.000000000000e+00 
4.650000000000e-01 0.000000000000e+00 0.000000000000e+00 1.000000000000e+00 1.227217038571e-01 1.000000000000e-04 1.227217038571e-01 9.999999975403e-10 9.999999975403e-10 9.909703055512e+00 -2.517201979763e+00 5.741200000000e-02 0.000000000000e+00 
4.700000000000e-01 0.000000000000e+00 0.000000000000e+00 1.000000000000e+00 1.227217038571e-01 1.000000000000e-04 1.227217038571e-01 9.999999975403e-10 9.999999975403e-10 9.909703055512e+00 -2.517201979763e+00 5.741200000000e-02 0.000000000000e+00 
4.750000000000e-01 0.000000000000e+00 0.000000000000e+00 1.000000000000e+00 1.227217038571e-01 1.000000000000e-04 1.227217038571e-01 9.999999975403e-10 9.999999975403e-10 9.909703055512e+00 -2.517201979763e+00 5.741200000000e-02 0.000000000000e+00 
4.800000000000e-01 0.000000000000e+00 0.000000000000e+00 1.000000000000e+00 1.227217038571e-01 1.000000000000e-04 1.227217038571e-01 9.999999975403e-10 9.999999975403e-10 9.909703055512e+00 -2.517201979763e+00 5.741200000000e-02 0.000000000000e+00 
4.850000000000e-01 0.000000000000e+00 0.000000000000e+00 1.000000000000e+00 1.227217038571e-01 1.000000000000e-04 1.227217038571e-01 9.999999975403e-10 9.999999975403e-10 9.909703055512e+00 -2.517201979763e+00 5.741200000000e-02 0.000000000000e+00 
4.900000000000e-01 0.000000000000e+00 0.000000000000e+00 1.000000000000e+00 1.227217038571e-01 1.000000000000e-04 1.227217038571e-01 9.999999975403e-10 9.999999975403e-10 9.909703055512e+00 -2.517201979763e+00 5.741200000000e-02 0.000000000000e+00 
4.950000000000e-01 0.000000000000e+00 0.000000000000e+00 1.000000000000e+00 1.227217038571e-01 1.000000000000e-04 1.227217038571e-01 9.999999975403e-10 9.999999975403e-10 9.909703055512e+00 -2.517201979763e+00 5.741200000000e-02 0.000000000000e+00 
5.000000000000e-01 0.000000000000e+00 0.000000000000e+00 1.000000000000e+00 1.227217038571e-01 1.000000000000e-04 1.227217038571e-01 9.999999975403e-10 9.999999975403e-10 9.909703055512e+00 -2.517201979763e+00 5.741200000000e-02 0.000000000000e+00 
1  2  2  1
3  4  4  3
5  6  6  5
7  8  8  7
9  10  10  9
11  12  12  11
13  14  14  13
15  16  16  15
17  18  18  17
19  20  20  19
21  22  22  21
23  24  24  23
25  26  26  25
27  28  28  27
29  30  30  29
31  32  32  31
33  34  34  33
35  36  36  35
37  38  38  37
39  40  40  39
41  42  42  41
43  44  44  43
45  46  46  45
47  48  48  47
49  50  50  49
51  52  52  51
53  54  54  53
55  56  56  55
57  58  58  57
59  60  60  59
61  62  62  61
63  64  64  63
65  66  66  65
67  68  68  67
69  70  70  69
71  72  72  71
73  74  74  73
75  76  76  75
77  78  78  77
79  80  80  79
81  82  82  81
83  84  84  83
85  86  86  85
87  88  88  87
89  90  90  89
91  92  92  91
93  94  94  93
95  96  96  95
97  98  98  97
99  100  100  99
2  3  3  2
4  5  5  4
6  7  7  6
8  9  9  8
10  11  11  10
12  13  13  12
14  15  15  14
16  17  17  16
18  19  19  18
20  21  21  20
22  23  23  22
24  25  25  24
26  27  27  26
28  29  29  28
30  31  31  30
32  33  33  32
34  35  35  34
36  37  37  36
38  39  39  38
40  41  41  40
42  43  43  42
44  45  45  44
46  47  47  46
48  49  49  48
50  51  51  50
52  53  53  52
54  55  55  54
56  57  57  56
58  59  59  58
60  61  61  60
62  63  63  62
64  65  65  64
66  67  67  66
68  69  69  68
70  71  71  70
72  73  73  72
74  75  75  74
76  77  77  76
78  79  79  78
80  81  81  80
82  83  83  82
84  85  85  84
86  87  87  86
88  89  89  88
90  91  91  90
92  93  93  92
94  95  95  94
96  97  97  96
98  99  99  98
100  101  101  100
VARIABLES  = "X","Y","Z", "HEAD", "C(4)", "CO3-2", "Ca", "Mg", "Cl", "pH", "pe", "Calcite", "Dolomite(dis)"
ZONE T="2.133332000000e+04s", N=101, E=100, F=FEPOINT, ET=QUADRILATERAL
STRANDID=1, SOLUTIONTIME=2.133332000000e+04
0.000000000000e+00 0.000000000000e+00 0.000000000000e+00 1.000000000000e+05 4.603547433806e-16 1.809482899774e-19 9.999999999958e-08 9.999999999958e-01 1.999999999991e+00 6.944195373760e+00 -5.026934946050e+00 0.000000000000e+00 0.000000000000e+00 
5.000000000000e-03 0.000000000000e+00 0.000000000000e+00 8.703543647365e+04 3.458285554933e-06 1.386730143234e-09 3.328462677462e-06 9.999965450629e-01 1.999992710370e+00 6.951476393648e+00 -3.450514868511e+00 0.000000000000e+00 0.000000000000e+00 
1.000000000000e-02 0.000000000000e+00 0.000000000000e+00 7.407087294730e+04 9.321231973761e-06 3.867801229590e-09 8.839079789695e-06 9.999897058158e-01 1.999978321959e+00 6.963993626596e+00 -3.463162263402e+00 0.000000000000e+00 0.000000000000e+00 
1.500000000000e-02 0.000000000000e+00 0.000000000000e+00 6.110630942096e+04 2.137136657080e-05 9.501193778404e-09 2.013482813115e-05 9.999785275862e-01 1.999954451942e+00 6.989367393012e+00 -3.487940715290e+00 0.000000000000e+00 0.000000000000e+00 
2.000000000000e-02 0.000000000000e+00 0.000000000000e+00 4.814174589461e+04 3.958257736864e-05 1.946278581920e-08 3.704339532353e-05 9.999589524371e-01 1.999912682826e+00 7.026764311872e+00 -3.530141353006e+00 0.000000000000e+00 0.000000000000e+00 
2.500000000000e-02 0.000000000000e+00 0.000000000000e+00 3.517718236826e+04 7.371176392771e-05 4.325636132032e-08 6.850663410178e-05 9.999292736588e-01 1.999847983491e+00 7.093345359138e+00 -3.596844941635e+00 0.000000000000e+00 0.000000000000e+00 
3.000000000000e-02 0.000000000000e+00 0.000000000000e+00 2.221261884191e+04 1.236060665014e-04 9.137865734215e-08 1.142296976339e-04 9.998817677035e-01 1.999744604542e+00 7.181975198969e+00 -3.693633805976e+00 0.000000000000e+00 0.000000000000e+00 
3.500000000000e-02 0.000000000000e+00 0.000000000000e+00 9.248055315563e+03 2.122481807774e-04 2.201538870616e-07 1.939706584661e-04 9.998133017340e-01 1.999589855832e+00 7.315119413916e+00 -3.824993473332e+00 0.000000000000e+00 0.000000000000e+00 
4.000000000000e-02 0.000000000000e+00 0.000000000000e+00 -3.716508210786e+03 3.430999702027e-04 5.189129583386e-07 3.098200813966e-04 9.997122102032e-01 1.999357638522e+00 7.467238592482e+00 -3.982141535329e+00 0.000000000000e+00 0.000000000000e+00 
4.500000000000e-02 0.000000000000e+00 0.000000000000e+00 -1.668107173713e+04 5.661628852890e-04 1.337021991342e-06 5.029578010195e-04 9.995735439007e-01 1.999020441769e+00 7.651215262801e+00 -4.162016776992e+00 0.000000000000e+00 0.000000000000e+00 
5.000000000000e-02 0.000000000000e+00 0.000000000000e+00 -2.964563526348e+04 9.560848104477e-04 3.706926533608e-06 8.127350458643e-04 9.994115032614e-01 1.998536058806e+00 7.860101866907e+00 -2.564292204390e+00 0.000000000000e+00 9.122024749821e-06 