 TITLE = "Profiles along polylines"
 VARIABLES = "DIST" "TEMPERATURE1" "VELOCITY_X1" "VELOCITY_Y1" "VELOCITY_Z1" 
 ZONE T="TIME=0.000000000000e+00"
0.000000000000e+00 1.000000000000e+00 0.000000000000e+00 0.000000000000e+00 0.000000000000e+00 
2.000000000000e+00 0.000000000000e+00 0.000000000000e+00 0.000000000000e+00 0.000000000000e+00 
4.000000000000e+00 0.000000000000e+00 0.000000000000e+00 0.000000000000e+00 0.000000000000e+00 
6.000000000000e+00 0.000000000000e+00 0.000000000000e+00 0.000000000000e+00 0.000000000000e+00 
8.000000000000e+00 0.000000000000e+00 0.000000000000e+00 0.000000000000e+00 0.000000000000e+00 
1.000000000000e+01 0.000000000000e+00 0.000000000000e+00 0.000000000000e+00 0.000000000000e+00 
1.200000000000e+01 0.000000000000e+00 0.000000000000e+00 0.000000000000e+00 0.000000000000e+00 
1.400000000000e+01 0.000000000000e+00 0.000000000000e+00 0.000000000000e+00 0.000000000000e+00 
1.600000000000e+01 0.000000000000e+00 0.000000000000e+00 0.000000000000e+00 0.000000000000e+00 
1.800000000000e+01 0.000000000000e+00 0.000000000000e+00 0.000000000000e+00 0.000000000000e+00 
2.000000000000e+01 0.000000000000e+00 0.000000000000e+00 0.000000000000e+00 0.000000000000e+00 
2.200000000000e+01 0.000000000000e+00 0.000000000000e+00 0.000000000000e+00 0.000000000000e+00 
2.400000000000e+01 0.000000000000e+00 0.000000000000e+00 0.000000000000e+00 0.000000000000e+00 
2.600000000000e+01 0.000000000000e+00 0.000000000000e+00 0.000000000000e+00 0.000000000000e+00 
2.800000000000e+01 0.000000000000e+00 0.000000000000e+00 0.000000000000e+00 0.000000000000e+00 
3.000000000000e+01 0.000000000000e+00 0.000000000000e+00 0.000000000000e+00 0.000000000000e+00 
3.200000000000e+01 0.000000000000e+00 0.000000000000e+00 0.000000000000e+00 0.000000000000e+00 
3.400000000000e+01 0.000000000000e+00 0.000000000000e+00 0.000000000000e+00 0.000000000000e+00 
3.600000000000e+01 0.000000000000e+00 0.000000000000e+00 0.000000000000e+00 0.000000000000e+00 
3.800000000000e+01 0.000000000000e+00 0.000000000000e+00 0.000000000000e+00 0.000000000000e+00 
4.000000000000e+01 0.000000000000e+00 0.000000000000e+00 0.000000000000e+00 0.000000000000e+00 
4.200000000000e+01 0.000000000000e+00 0.000000000000e+00 0.000000000000e+00 0.000000000000e+00 
4.400000000000e+01 0.000000000000e+00 0.000000000000e+00 0.000000000000e+00 0.000000000000e+00 
4.600000000000e+01 0.000000000000e+00 0.000000000000e+00 0.000000000000e+00 0.000000000000e+00 
4.800000000000e+01 0.000000000000e+00 0.000000000000e+00 0.000000000000e+00 0.000000000000e+00 
5.000000000000e+01 0.000000000000e+00 0.000000000000e+00 0.000000000000e+00 0.000000000000e+00 
 TITLE = "Profiles along polylines"
 VARIABLES = "DIST" "TEMPERATURE1" "VELOCITY_X1" "VELOCITY_Y1" "VELOCITY_Z1" 
 ZONE T="TIME=2.000000000000e+06"
0.000000000000e+00 1.000000000000e+00 5.000000000000e-05 0.000000000000e+00 0.000000000000e+00 
2.000000000000e+00 8.856126693069e-02 6.666666666667e-05 0.000000000000e+00 0.000000000000e+00 
4.000000000000e+00 7.816954340375e-03 6.666666666667e-05 0.000000000000e+00 0.000000000000e+00 
6.000000000000e+00 6.899717820223e-04 6.666666666667e-05 0.000000000000e+00 0.000000000000e+00 
8.000000000000e+00 6.090109254254e-05 6.666666666667e-05 0.000000000000e+00 0.000000000000e+00 
1.000000000000e+01 5.375499584585e-06 6.666666666667e-05 0.000000000000e+00 0.000000000000e+00 
1.200000000000e+01 4.744742510798e-07 6.666666666667e-05 0.000000000000e+00 0.000000000000e+00 
1.400000000000e+01 4.188005559495e-08 6.666666666667e-05 0.000000000000e+00 0.000000000000e+00 
1.600000000000e+01 3.696530293573e-09 6.666666666667e-05 0.000000000000e+00 0.000000000000e+00 
1.800000000000e+01 3.262211606983e-10 6.666666666667e-05 0.000000000000e+00 0.000000000000e+00 
2.000000000000e+01 2.881541055161e-11 6.666666666667e-05 0.000000000000e+00 0.000000000000e+00 
2.200000000000e+01 2.564883526660e-12 6.666666666667e-05 0.000000000000e+00 0.000000000000e+00 
2.400000000000e+01 2.246861045468e-13 6.666666666667e-05 0.000000000000e+00 0.000000000000e+00 
2.600000000000e+01 1.661867779432e-14 6.666666666667e-05 0.000000000000e+00 0.000000000000e+00 
2.800000000000e+01 9.993052176796e-16 6.666666666667e-05 0.000000000000e+00 0.000000000000e+00 
3.000000000000e+01 5.004277202544e-17 6.666666666667e-05 0.000000000000e+00 0.000000000000e+00 
3.200000000000e+01 2.156780689005e-18 6.666666666667e-05 0.000000000000e+00 0.000000000000e+00 
3.400000000000e+01 8.227517403031e-20 6.666666666667e-05 0.000000000000e+00 0.000000000000e+00 
3.600000000000e+01 2.839402762337e-21 6.666666666667e-05 0.000000000000e+00 0.000000000000e+00 
3.800000000000e+01 9.015405788281e-23 6.666666666667e-05 0.000000000000e+00 0.000000000000e+00 
4.000000000000e+01 2.668114032376e-24 6.666666666667e-05 0.000000000000e+00 0.000000000000e+00 
4.200000000000e+01 7.435871650131e-26 6.666666666667e-05 0.000000000000e+00 0.000000000000e+00 
4.400000000000e+01 1.967500685628e-27 6.666666666667e-05 0.000000000000e+00 0.000000000000e+00 
4.600000000000e+01 4.975349367778e-29 6.666666666667e-05 0.000000000000e+00 0.000000000000e+00 
4.800000000000e+01 1.208505833748e-30 6.666666666667e-05 0.000000000000e+00 0.000000000000e+00 
5.000000000000e+01 4.810214681720e-32 5.000000000000e-05 0.000000000000e+00 0.000000000000e+00 
 TITLE = "Profiles along polylines"
 VARIABLES = "DIST" "TEMPERATURE1" "VELOCITY_X1" "VELOCITY_Y1" "VELOCITY_Z1" 
 ZONE T="TIME=6.000000000000e+06"
0.000000000000e+00 1.000000000000e+00 5.000000000000e-05 0.000000000000e+00 0.000000000000e+00 
2.000000000000e+00 1.645377739259e-01 6.666666666667e-05 0.000000000000e+00 0.000000000000e+00 
4.000000000000e+00 2.318596095497e-02 6.666666666667e-05 0.000000000000e+00 0.000000000000e+00 
6.000000000000e+00 2.981581397080e-03 6.666666666667e-05 0.000000000000e+00 0.000000000000e+00 
8.000000000000e+00 3.607469927909e-04 6.666666666667e-05 0.000000000000e+00 0.000000000000e+00 
1.000000000000e+01 4.178189530189e-05 6.666666666667e-05 0.000000000000e+00 0.000000000000e+00 
1.200000000000e+01 4.682491279645e-06 6.666666666667e-05 0.000000000000e+00 0.000000000000e+00 
1.400000000000e+01 5.114352503914e-07 6.666666666667e-05 0.000000000000e+00 0.000000000000e+00 
1.600000000000e+01 5.471665571775e-08 6.666666666667e-05 0.000000000000e+00 0.000000000000e+00 
1.800000000000e+01 5.755306891820e-09 6.666666666667e-05 0.000000000000e+00 0.000000000000e+00 
2.000000000000e+01 5.969341436474e-10 6.666666666667e-05 0.000000000000e+00 0.000000000000e+00 
2.200000000000e+01 6.118118140682e-11 6.666666666667e-05 0.000000000000e+00 0.000000000000e+00 
2.400000000000e+01 6.188129319161e-12 6.666666666667e-05 0.000000000000e+00 0.000000000000e+00 
2.600000000000e+01 6.154175913557e-13 6.666666666667e-05 0.000000000000e+00 0.000000000000e+00 
2.800000000000e+01 6.005075139036e-14 6.666666666667e-05 0.000000000000e+00 0.000000000000e+00 
3.000000000000e+01 5.750762476623e-15 6.666666666667e-05 0.000000000000e+00 0.000000000000e+00 
3.200000000000e+01 5.413855067254e-16 6.666666666667e-05 0.000000000000e+00 0.000000000000e+00 
3.400000000000e+01 5.019972507824e-17 6.666666666667e-05 0.000000000000e+00 0.000000000000e+00 
3.600000000000e+01 4.592320061637e-18 6.666666666667e-05 0.000000000000e+00 0.000000000000e+00 
3.800000000000e+01 4.149850849965e-19 6.666666666667e-05 0.000000000000e+00 0.000000000000e+00 
4.000000000000e+01 3.707202741339e-20 6.666666666667e-05 0.000000000000e+00 0.000000000000e+00 
4.200000000000e+01 3.275280460818e-21 6.666666666667e-05 0.000000000000e+00 0.000000000000e+00 
4.400000000000e+01 2.861958619649e-22 6.666666666667e-05 0.000000000000e+00 0.000000000000e+00 
4.600000000000e+01 2.472525766163e-23 6.666666666667e-05 0.000000000000e+00 0.000000000000e+00 
4.800000000000e+01 2.099149842722e-24 6.666666666667e-05 0.000000000000e+00 0.000000000000e+00 
5.000000000000e+01 3.003387983974e-25 5.000000000000e-05 0.000000000000e+00 0.000000000000e+00 
 TITLE = "Profiles along polylines"
 VARIABLES = "DIST" "TEMPERATURE1" "VELOCITY_X1" "VELOCITY_Y1" "VELOCITY_Z1" 
 ZONE T="TIME=1.000000000000e+07"
0.000000000000e+00 1.000000000000e+00 5.000000000000e-05 0.000000000000e+00 0.000000000000e+00 
2.000000000000e+00 2.138025988554e-01 6.666666666667e-05 0.000000000000e+00 0.000000000000e+00 
4.000000000000e+00 3.808785893236e-02 6.666666666667e-05 0.000000000000e+00 0.000000000000e+00 
6.000000000000e+00 6.047602480276e-03 6.666666666667e-05 0.000000000000e+00 0.000000000000e+00 
8.000000000000e+00 8.858815910520e-04 6.666666666667e-05 0.000000000000e+00 0.000000000000e+00 
1.000000000000e+01 1.221938998654e-04 6.666666666667e-05 0.000000000000e+00 0.000000000000e+00 
1.200000000000e+01 1.608356800025e-05 6.666666666667e-05 0.000000000000e+00 0.000000000000e+00 
1.400000000000e+01 2.038791836953e-06 6.666666666667e-05 0.000000000000e+00 0.000000000000e+00 
1.600000000000e+01 2.505629077071e-07 6.666666666667e-05 0.000000000000e+00 0.000000000000e+00 
1.800000000000e+01 3.000459163323e-08 6.666666666667e-05 0.000000000000e+00 0.000000000000e+00 
2.000000000000e+01 3.514648937624e-09 6.666666666667e-05 0.000000000000e+00 0.000000000000e+00 
2.200000000000e+01 4.039468540297e-10 6.666666666667e-05 0.000000000000e+00 0.000000000000e+00 
2.400000000000e+01 4.563793208046e-11 6.666666666667e-05 0.000000000000e+00 0.000000000000e+00 
2.600000000000e+01 5.073642917583e-12 6.666666666667e-05 0.000000000000e+00 0.000000000000e+00 
2.800000000000e+01 5.553809748863e-13 6.666666666667e-05 0.000000000000e+00 0.000000000000e+00 
3.000000000000e+01 5.989703631949e-14 6.666666666667e-05 0.000000000000e+00 0.000000000000e+00 
3.200000000000e+01 6.368645631491e-15 6.666666666667e-05 0.000000000000e+00 0.000000000000e+00 
3.400000000000e+01 6.680604672158e-16 6.666666666667e-05 0.000000000000e+00 0.000000000000e+00 
3.600000000000e+01 6.918515226184e-17 6.666666666667e-05 0.000000000000e+00 0.000000000000e+00 
3.800000000000e+01 7.078293776416e-18 6.666666666667e-05 0.000000000000e+00 0.000000000000e+00 
4.000000000000e+01 7.158651400178e-19 6.666666666667e-05 0.000000000000e+00 0.000000000000e+00 
4.200000000000e+01 7.160783163825e-20 6.666666666667e-05 0.000000000000e+00 0.000000000000e+00 
4.400000000000e+01 7.087963283422e-21 6.666666666667e-05 0.000000000000e+00 0.000000000000e+00 
4.600000000000e+01 6.945472153252e-22 6.666666666667e-05 0.000000000000e+00 0.000000000000e+00 
4.800000000000e+01 6.696468202561e-23 6.666666666667e-05 0.000000000000e+00 0.000000000000e+00 
5.000000000000e+01 1.083470242277e-23 5.000000000000e-05 0.000000000000e+00 0.000000000000e+00 
 TITLE = "Profiles along polylines"
 VARIABLES = "DIST" "TEMPERATURE1" "VELOCITY_X1" "VELOCITY_Y1" "VELOCITY_Z1" 
 ZONE T="TIME=1.200000000000e+07"
0.000000000000e+00 1.000000000000e+00 5.000000000000e-05 0.000000000000e+00 0.000000000000e+00 
2.000000000000e+00 2.340081119463e-01 6.666666666667e-05 0.000000000000e+00 0.000000000000e+00 
4.000000000000e+00 4.536806723840e-02 6.666666666667e-05 0.000000000000e+00 0.000000000000e+00 
6.000000000000e+00 7.793641681397e-03 6.666666666667e-05 0.000000000000e+00 0.000000000000e+00 
8.000000000000e+00 1.228537443740e-03 6.666666666667e-05 0.000000000000e+00 0.000000000000e+00 
1.000000000000e+01 1.814809118010e-04 6.666666666667e-05 0.000000000000e+00 0.000000000000e+00 
1.200000000000e+01 2.547293983198e-05 6.666666666667e-05 0.000000000000e+00 0.000000000000e+00 
1.400000000000e+01 3.430331395246e-06 6.666666666667e-05 0.000000000000e+00 0.000000000000e+00 
1.600000000000e+01 4.463490356509e-07 6.666666666667e-05 0.000000000000e+00 0.000000000000e+00 
1.800000000000e+01 5.641823084494e-08 6.666666666667e-05 0.000000000000e+00 0.000000000000e+00 
2.000000000000e+01 6.956455250595e-09 6.666666666667e-05 0.000000000000e+00 0.000000000000e+00 
2.200000000000e+01 8.394959542468e-10 6.666666666667e-05 0.000000000000e+00 0.000000000000e+00 
2.400000000000e+01 9.939185563984e-11 6.666666666667e-05 0.000000000000e+00 0.000000000000e+00 
2.600000000000e+01 1.156409538477e-11 6.666666666667e-05 0.000000000000e+00 0.000000000000e+00 
2.800000000000e+01 1.323848909905e-12 6.666666666667e-05 0.000000000000e+00 0.000000000000e+00 
3.000000000000e+01 1.492665787640e-13 6.666666666667e-05 0.000000000000e+00 0.000000000000e+00 
3.200000000000e+01 1.659035858013e-14 6.666666666667e-05 0.000000000000e+00 0.000000000000e+00 
3.400000000000e+01 1.819083832529e-15 6.666666666667e-05 0.000000000000e+00 0.000000000000e+00 
3.600000000000e+01 1.969071947995e-16 6.666666666667e-05 0.000000000000e+00 0.000000000000e+00 
3.800000000000e+01 2.105560678452e-17 6.666666666667e-05 0.000000000000e+00 0.000000000000e+00 
4.000000000000e+01 2.225534460049e-18 6.666666666667e-05 0.000000000000e+00 0.000000000000e+00 
4.200000000000e+01 2.326490916680e-19 6.666666666667e-05 0.000000000000e+00 0.000000000000e+00 
4.400000000000e+01 2.406490278334e-20 6.666666666667e-05 0.000000000000e+00 0.000000000000e+00 
4.600000000000e+01 2.464340155342e-21 6.666666666667e-05 0.000000000000e+00 0.000000000000e+00 
4.800000000000e+01 2.482057481673e-22 6.666666666667e-05 0.000000000000e+00 0.000000000000e+00 
5.000000000000e+01 4.177374333873e-23 5.000000000000e-05 0.000000000000e+00 0.000000000000e+00 
