 TITLE = "Profiles along polylines"
 VARIABLES = "DIST" "PRESSURE1" "SATURATION1" "SATURATION2" 
 ZONE T="TIME=0.000000000000e+00"
0.000000000000e+00 9.806700000000e+04 1.000000000000e+00 0.000000000000e+00 
3.333333330000e-01 9.806700000000e+04 1.000000000000e+00 0.000000000000e+00 
6.666666670000e-01 9.806700000000e+04 1.000000000000e+00 0.000000000000e+00 
1.000000000000e+00 9.806700000000e+04 1.000000000000e+00 0.000000000000e+00 
1.333333333000e+00 9.806700000000e+04 1.000000000000e+00 0.000000000000e+00 
1.666666667000e+00 9.806700000000e+04 1.000000000000e+00 0.000000000000e+00 
2.000000000000e+00 9.806700000000e+04 1.000000000000e+00 0.000000000000e+00 
2.333333333000e+00 9.806700000000e+04 1.000000000000e+00 0.000000000000e+00 
2.666666667000e+00 9.806700000000e+04 1.000000000000e+00 0.000000000000e+00 
3.000000000000e+00 9.806700000000e+04 1.000000000000e+00 0.000000000000e+00 
3.333333333000e+00 9.806700000000e+04 1.000000000000e+00 0.000000000000e+00 
3.666666667000e+00 9.806700000000e+04 1.000000000000e+00 0.000000000000e+00 
4.000000000000e+00 9.806700000000e+04 1.000000000000e+00 0.000000000000e+00 
4.333333333000e+00 9.806700000000e+04 1.000000000000e+00 0.000000000000e+00 
4.666666667000e+00 9.806700000000e+04 1.000000000000e+00 0.000000000000e+00 
5.000000000000e+00 9.806700000000e+04 8.999977480000e-01 1.000022520000e-01 
5.333333333000e+00 9.806700000000e+04 8.999977480000e-01 1.000022520000e-01 
5.666666667000e+00 9.806700000000e+04 8.999977480000e-01 1.000022520000e-01 
6.000000000000e+00 9.806700000000e+04 8.999977480000e-01 1.000022520000e-01 
6.333333333000e+00 9.806700000000e+04 8.999977480000e-01 1.000022520000e-01 
6.666666667000e+00 9.806700000000e+04 8.999977480000e-01 1.000022520000e-01 
7.000000000000e+00 9.806700000000e+04 8.999977480000e-01 1.000022520000e-01 
7.333333333000e+00 9.806700000000e+04 8.999977480000e-01 1.000022520000e-01 
7.666666667000e+00 9.806700000000e+04 8.999977480000e-01 1.000022520000e-01 
8.000000000000e+00 9.806700000000e+04 8.999977480000e-01 1.000022520000e-01 
8.333333333000e+00 9.806700000000e+04 8.999977480000e-01 1.000022520000e-01 
8.666666667000e+00 9.806700000000e+04 8.999977480000e-01 1.000022520000e-01 
9.000000000000e+00 9.806700000000e+04 8.999977480000e-01 1.000022520000e-01 
9.333333333000e+00 9.806700000000e+04 8.999977480000e-01 1.000022520000e-01 
9.666666667000e+00 9.806700000000e+04 8.999977480000e-01 1.000022520000e-01 
1.000000000000e+01 9.806700000000e+04 8.999977480000e-01 1.000022520000e-01 
1.033333333000e+01 9.806700000000e+04 1.000000000000e+00 0.000000000000e+00 
1.066666667000e+01 9.806700000000e+04 1.000000000000e+00 0.000000000000e+00 
1.100000000000e+01 9.806700000000e+04 1.000000000000e+00 0.000000000000e+00 
1.133333333000e+01 9.806700000000e+04 1.000000000000e+00 0.000000000000e+00 
1.166666667000e+01 9.806700000000e+04 1.000000000000e+00 0.000000000000e+00 
1.200000000000e+01 9.806700000000e+04 1.000000000000e+00 0.000000000000e+00 
1.233333333000e+01 9.806700000000e+04 1.000000000000e+00 0.000000000000e+00 
1.266666667000e+01 9.806700000000e+04 1.000000000000e+00 0.000000000000e+00 
1.300000000000e+01 9.806700000000e+04 1.000000000000e+00 0.000000000000e+00 
1.333333333000e+01 9.806700000000e+04 1.000000000000e+00 0.000000000000e+00 
1.366666667000e+01 9.806700000000e+04 1.000000000000e+00 0.000000000000e+00 
1.400000000000e+01 9.806700000000e+04 1.000000000000e+00 0.000000000000e+00 
1.433333333000e+01 9.806700000000e+04 1.000000000000e+00 0.000000000000e+00 
1.466666667000e+01 9.806700000000e+04 1.000000000000e+00 0.000000000000e+00 
1.500000000000e+01 9.806700000000e+04 1.000000000000e+00 0.000000000000e+00 
1.533333333000e+01 9.806700000000e+04 1.000000000000e+00 0.000000000000e+00 
1.566666667000e+01 9.806700000000e+04 1.000000000000e+00 0.000000000000e+00 
1.600000000000e+01 9.806700000000e+04 1.000000000000e+00 0.000000000000e+00 
1.633333333000e+01 9.806700000000e+04 1.000000000000e+00 0.000000000000e+00 
1.666666667000e+01 9.806700000000e+04 1.000000000000e+00 0.000000000000e+00 
1.700000000000e+01 9.806700000000e+04 1.000000000000e+00 0.000000000000e+00 
1.733333333000e+01 9.806700000000e+04 1.000000000000e+00 0.000000000000e+00 
1.766666667000e+01 9.806700000000e+04 1.000000000000e+00 0.000000000000e+00 
1.800000000000e+01 9.806700000000e+04 1.000000000000e+00 0.000000000000e+00 
1.833333333000e+01 9.806700000000e+04 1.000000000000e+00 0.000000000000e+00 
1.866666667000e+01 9.806700000000e+04 1.000000000000e+00 0.000000000000e+00 
1.900000000000e+01 9.806700000000e+04 1.000000000000e+00 0.000000000000e+00 
1.933333333000e+01 9.806700000000e+04 1.000000000000e+00 0.000000000000e+00 
1.966666667000e+01 9.806700000000e+04 1.000000000000e+00 0.000000000000e+00 
2.000000000000e+01 9.806700000000e+04 1.000000000000e+00 0.000000000000e+00 
2.033333333000e+01 9.806700000000e+04 1.000000000000e+00 0.000000000000e+00 
2.066666667000e+01 9.806700000000e+04 1.000000000000e+00 0.000000000000e+00 
2.100000000000e+01 9.806700000000e+04 1.000000000000e+00 0.000000000000e+00 
2.133333333000e+01 9.806700000000e+04 1.000000000000e+00 0.000000000000e+00 
2.166666667000e+01 9.806700000000e+04 1.000000000000e+00 0.000000000000e+00 
2.200000000000e+01 9.806700000000e+04 1.000000000000e+00 0.000000000000e+00 
2.233333333000e+01 9.806700000000e+04 1.000000000000e+00 0.000000000000e+00 
2.266666667000e+01 9.806700000000e+04 1.000000000000e+00 0.000000000000e+00 
2.300000000000e+01 9.806700000000e+04 1.000000000000e+00 0.000000000000e+00 
2.333333333000e+01 9.806700000000e+04 1.000000000000e+00 0.000000000000e+00 
2.366666667000e+01 9.806700000000e+04 1.000000000000e+00 0.000000000000e+00 
2.400000000000e+01 9.806700000000e+04 1.000000000000e+00 0.000000000000e+00 
2.433333333000e+01 9.806700000000e+04 1.000000000000e+00 0.000000000000e+00 
2.466666667000e+01 9.806700000000e+04 1.000000000000e+00 0.000000000000e+00 
2.500000000000e+01 9.806700000000e+04 1.000000000000e+00 0.000000000000e+00 
2.533333333000e+01 9.806700000000e+04 1.000000000000e+00 0.000000000000e+00 
2.566666667000e+01 9.806700000000e+04 1.000000000000e+00 0.000000000000e+00 
2.600000000000e+01 9.806700000000e+04 1.000000000000e+00 0.000000000000e+00 
2.633333333000e+01 9.806700000000e+04 1.000000000000e+00 0.000000000000e+00 
2.666666667000e+01 9.806700000000e+04 1.000000000000e+00 0.000000000000e+00 
2.700000000000e+01 9.806700000000e+04 1.000000000000e+00 0.000000000000e+00 
2.733333333000e+01 9.806700000000e+04 1.000000000000e+00 0.000000000000e+00 
2.766666667000e+01 9.806700000000e+04 1.000000000000e+00 0.000000000000e+00 
2.800000000000e+01 9.806700000000e+04 1.000000000000e+00 0.000000000000e+00 
2.833333333000e+01 9.806700000000e+04 1.000000000000e+00 0.000000000000e+00 
2.866666667000e+01 9.806700000000e+04 1.000000000000e+00 0.000000000000e+00 
2.900000000000e+01 9.806700000000e+04 1.000000000000e+00 0.000000000000e+00 
2.933333333000e+01 9.806700000000e+04 1.000000000000e+00 0.000000000000e+00 
2.966666667000e+01 9.806700000000e+04 1.000000000000e+00 0.000000000000e+00 
3.000000000000e+01 9.806700000000e+04 1.000000000000e+00 0.000000000000e+00 
3.033333333000e+01 9.806700000000e+04 1.000000000000e+00 0.000000000000e+00 
3.066666667000e+01 9.806700000000e+04 1.000000000000e+00 0.000000000000e+00 
3.100000000000e+01 9.806700000000e+04 1.000000000000e+00 0.000000000000e+00 
3.133333333000e+01 9.806700000000e+04 1.000000000000e+00 0.000000000000e+00 
3.166666667000e+01 9.806700000000e+04 1.000000000000e+00 0.000000000000e+00 
3.200000000000e+01 9.806700000000e+04 1.000000000000e+00 0.000000000000e+00 
3.233333333000e+01 9.806700000000e+04 1.000000000000e+00 0.000000000000e+00 
3.266666667000e+01 9.806700000000e+04 1.000000000000e+00 0.000000000000e+00 
3.300000000000e+01 9.806700000000e+04 1.000000000000e+00 0.000000000000e+00 
3.333333333000e+01 9.806700000000e+04 1.000000000000e+00 0.000000000000e+00 
3.366666667000e+01 9.806700000000e+04 1.000000000000e+00 0.000000000000e+00 
3.400000000000e+01 9.806700000000e+04 1.000000000000e+00 0.000000000000e+00 
3.433333333000e+01 9.806700000000e+04 1.000000000000e+00 0.000000000000e+00 
3.466666667000e+01 9.806700000000e+04 1.000000000000e+00 0.000000000000e+00 
3.500000000000e+01 9.806700000000e+04 1.000000000000e+00 0.000000000000e+00 
3.533333333000e+01 9.806700000000e+04 1.000000000000e+00 0.000000000000e+00 
3.566666667000e+01 9.806700000000e+04 1.000000000000e+00 0.000000000000e+00 
3.600000000000e+01 9.806700000000e+04 1.000000000000e+00 0.000000000000e+00 
3.633333333000e+01 9.806700000000e+04 1.000000000000e+00 0.000000000000e+00 
3.666666667000e+01 9.806700000000e+04 1.000000000000e+00 0.000000000000e+00 
3.700000000000e+01 9.806700000000e+04 1.000000000000e+00 0.000000000000e+00 
3.733333333000e+01 9.806700000000e+04 1.000000000000e+00 0.000000000000e+00 
3.766666667000e+01 9.806700000000e+04 1.000000000000e+00 0.000000000000e+00 
3.800000000000e+01 9.806700000000e+04 1.000000000000e+00 0.000000000000e+00 
3.833333333000e+01 9.806700000000e+04 1.000000000000e+00 0.000000000000e+00 
3.866666667000e+01 9.806700000000e+04 1.000000000000e+00 0.000000000000e+00 
3.900000000000e+01 9.806700000000e+04 1.000000000000e+00 0.000000000000e+00 
3.933333333000e+01 9.806700000000e+04 1.000000000000e+00 0.000000000000e+00 
3.966666667000e+01 9.806700000000e+04 1.000000000000e+00 0.000000000000e+00 
4.000000000000e+01 9.806700000000e+04 1.000000000000e+00 0.000000000000e+00 
4.033333333000e+01 9.806700000000e+04 1.000000000000e+00 0.000000000000e+00 
4.066666667000e+01 9.806700000000e+04 1.000000000000e+00 0.000000000000e+00 
4.100000000000e+01 9.806700000000e+04 1.000000000000e+00 0.000000000000e+00 
4.133333333000e+01 9.806700000000e+04 1.000000000000e+00 0.000000000000e+00 
4.166666667000e+01 9.806700000000e+04 1.000000000000e+00 0.000000000000e+00 
4.200000000000e+01 9.806700000000e+04 1.000000000000e+00 0.000000000000e+00 
4.233333333000e+01 9.806700000000e+04 1.000000000000e+00 0.000000000000e+00 
4.266666667000e+01 9.806700000000e+04 1.000000000000e+00 0.000000000000e+00 
4.300000000000e+01 9.806700000000e+04 1.000000000000e+00 0.000000000000e+00 
4.333333333000e+01 9.806700000000e+04 1.000000000000e+00 0.000000000000e+00 
4.366666667000e+01 9.806700000000e+04 1.000000000000e+00 0.000000000000e+00 
4.400000000000e+01 9.806700000000e+04 1.000000000000e+00 0.000000000000e+00 
4.433333333000e+01 9.806700000000e+04 1.000000000000e+00 0.000000000000e+00 
4.466666667000e+01 9.806700000000e+04 1.000000000000e+00 0.000000000000e+00 
4.500000000000e+01 9.806700000000e+04 1.000000000000e+00 0.000000000000e+00 
4.533333333000e+01 9.806700000000e+04 1.000000000000e+00 0.000000000000e+00 
4.566666667000e+01 9.806700000000e+04 1.000000000000e+00 0.000000000000e+00 
4.600000000000e+01 9.806700000000e+04 1.000000000000e+00 0.000000000000e+00 
4.633333333000e+01 9.806700000000e+04 1.000000000000e+00 0.000000000000e+00 
4.666666667000e+01 9.806700000000e+04 1.000000000000e+00 0.000000000000e+00 
4.700000000000e+01 9.806700000000e+04 1.000000000000e+00 0.000000000000e+00 
4.733333333000e+01 9.806700000000e+04 1.000000000000e+00 0.000000000000e+00 
4.766666667000e+01 9.806700000000e+04 1.000000000000e+00 0.000000000000e+00 
4.800000000000e+01 9.806700000000e+04 1.000000000000e+00 0.000000000000e+00 
4.833333333000e+01 9.806700000000e+04 1.000000000000e+00 0.000000000000e+00 
4.866666667000e+01 9.806700000000e+04 1.000000000000e+00 0.000000000000e+00 
4.900000000000e+01 9.806700000000e+04 1.000000000000e+00 0.000000000000e+00 
4.933333333000e+01 9.806700000000e+04 1.000000000000e+00 0.000000000000e+00 
4.966666667000e+01 9.806700000000e+04 1.000000000000e+00 0.000000000000e+00 
5.000000000000e+01 9.806700000000e+04 1.000000000000e+00 0.000000000000e+00 
 TITLE = "Profiles along polylines"
 VARIABLES = "DIST" "PRESSURE1" "SATURATION1" "SATURATION2" 
 ZONE T="TIME=2.160000000000e+04"
0.000000000000e+00 9.810000000000e+04 1.000000000000e+00 0.000000000000e+00 
3.333333330000e-01 9.806924540955e+04 1.000000000000e+00 0.000000000000e+00 
6.666666670000e-01 9.803849081900e+04 1.000000000000e+00 0.000000000000e+00 
1.000000000000e+00 9.800773622854e+04 1.000000000000e+00 0.000000000000e+00 
1.333333333000e+00 9.797698163809e+04 1.000000000000e+00 0.000000000000e+00 
1.666666667000e+00 9.794622704754e+04 1.000000000000e+00 0.000000000000e+00 
2.000000000000e+00 9.791547245708e+04 1.000000000000e+00 0.000000000000e+00 
2.333333333000e+00 9.788471786663e+04 1.000000000000e+00 0.000000000000e+00 
2.666666667000e+00 9.785396327608e+04 1.000000000000e+00 0.000000000000e+00 
3.000000000000e+00 9.782320868562e+04 1.000000000000e+00 0.000000000000e+00 
3.333333333000e+00 9.779245409515e+04 1.000000000000e+00 0.000000000000e+00 
3.666666667000e+00 9.776169950460e+04 1.000000000000e+00 0.000000000000e+00 
4.000000000000e+00 9.773094491413e+04 1.000000000000e+00 0.000000000000e+00 
4.333333333000e+00 9.770019032366e+04 1.000000000000e+00 0.000000000000e+00 
4.666666667000e+00 9.766943573310e+04 1.000000000000e+00 0.000000000000e+00 
5.000000000000e+00 9.763109329137e+04 8.999977480000e-01 1.000022520000e-01 
5.333333333000e+00 9.758189632251e+04 8.999977480000e-01 1.000022520000e-01 
5.666666667000e+00 9.753269935350e+04 8.999977480000e-01 1.000022520000e-01 
6.000000000000e+00 9.748350238463e+04 8.999977480000e-01 1.000022520000e-01 
6.333333333000e+00 9.743430541576e+04 8.999977480000e-01 1.000022520000e-01 
6.666666667000e+00 9.738510844673e+04 8.999977480000e-01 1.000022520000e-01 
7.000000000000e+00 9.733591147786e+04 8.999977480000e-01 1.000022520000e-01 
7.333333333000e+00 9.728671450897e+04 8.999977480000e-01 1.000022520000e-01 
7.666666667000e+00 9.723751753994e+04 8.999977480000e-01 1.000022520000e-01 
8.000000000000e+00 9.718832057105e+04 8.999977480000e-01 1.000022520000e-01 
8.333333333000e+00 9.713912360215e+04 8.999977480000e-01 1.000022520000e-01 
8.666666667000e+00 9.708992663309e+04 8.999977480000e-01 1.000022520000e-01 
9.000000000000e+00 9.704072966419e+04 8.999977480000e-01 1.000022520000e-01 
9.333333333000e+00 9.699153269527e+04 8.999977480000e-01 1.000022520000e-01 
9.666666667000e+00 9.694233572621e+04 8.999977480000e-01 1.000022520000e-01 
1.000000000000e+01 9.689313875728e+04 8.999977480000e-01 1.000022520000e-01 
1.033333333000e+01 9.685479631584e+04 1.000000000000e+00 0.000000000000e+00 
1.066666667000e+01 9.682404172467e+04 1.000000000000e+00 0.000000000000e+00 
1.100000000000e+01 9.679328713442e+04 1.000000000000e+00 0.000000000000e+00 
1.133333333000e+01 9.676253254415e+04 1.000000000000e+00 0.000000000000e+00 
1.166666667000e+01 9.673177795296e+04 1.000000000000e+00 0.000000000000e+00 
1.200000000000e+01 9.670102336269e+04 1.000000000000e+00 0.000000000000e+00 
1.233333333000e+01 9.667026877241e+04 1.000000000000e+00 0.000000000000e+00 
1.266666667000e+01 9.663951418120e+04 1.000000000000e+00 0.000000000000e+00 
1.300000000000e+01 9.660875959090e+04 1.000000000000e+00 0.000000000000e+00 
1.333333333000e+01 9.657800500060e+04 1.000000000000e+00 0.000000000000e+00 
1.366666667000e+01 9.654725040936e+04 1.000000000000e+00 0.000000000000e+00 
1.400000000000e+01 9.651649581904e+04 1.000000000000e+00 0.000000000000e+00 
1.433333333000e+01 9.648574122872e+04 1.000000000000e+00 0.000000000000e+00 
1.466666667000e+01 9.645498663746e+04 1.000000000000e+00 0.000000000000e+00 
1.500000000000e+01 9.642423204712e+04 1.000000000000e+00 0.000000000000e+00 
1.533333333000e+01 9.639347745677e+04 1.000000000000e+00 0.000000000000e+00 
1.566666667000e+01 9.636272286549e+04 1.000000000000e+00 0.000000000000e+00 
1.600000000000e+01 9.633196827513e+04 1.000000000000e+00 0.000000000000e+00 
1.633333333000e+01 9.630121368475e+04 1.000000000000e+00 0.000000000000e+00 
1.666666667000e+01 9.627045909345e+04 1.000000000000e+00 0.000000000000e+00 
1.700000000000e+01 9.623970450306e+04 1.000000000000e+00 0.000000000000e+00 
1.733333333000e+01 9.620894991266e+04 1.000000000000e+00 0.000000000000e+00 
1.766666667000e+01 9.617819532134e+04 1.000000000000e+00 0.000000000000e+00 
1.800000000000e+01 9.614744073093e+04 1.000000000000e+00 0.000000000000e+00 
1.833333333000e+01 9.611668614051e+04 1.000000000000e+00 0.000000000000e+00 
1.866666667000e+01 9.608593154916e+04 1.000000000000e+00 0.000000000000e+00 
1.900000000000e+01 9.605517695872e+04 1.000000000000e+00 0.000000000000e+00 
1.933333333000e+01 9.602442236828e+04 1.000000000000e+00 0.000000000000e+00 
1.966666667000e+01 9.599366777691e+04 1.000000000000e+00 0.000000000000e+00 
2.000000000000e+01 9.596291318645e+04 1.000000000000e+00 0.000000000000e+00 
2.033333333000e+01 9.593215859598e+04 1.000000000000e+00 0.000000000000e+00 
2.066666667000e+01 9.590140400459e+04 1.000000000000e+00 0.000000000000e+00 
2.100000000000e+01 9.587064941411e+04 1.000000000000e+00 0.000000000000e+00 
2.133333333000e+01 9.583989482362e+04 1.000000000000e+00 0.000000000000e+00 
2.166666667000e+01 9.580914023220e+04 1.000000000000e+00 0.000000000000e+00 
2.200000000000e+01 9.577838564170e+04 1.000000000000e+00 0.000000000000e+00 
2.233333333000e+01 9.574763105119e+04 1.000000000000e+00 0.000000000000e+00 
2.266666667000e+01 9.571687645975e+04 1.000000000000e+00 0.000000000000e+00 
2.300000000000e+01 9.568612186923e+04 1.000000000000e+00 0.000000000000e+00 
2.333333333000e+01 9.565536727870e+04 1.000000000000e+00 0.000000000000e+00 
2.366666667000e+01 9.562461268724e+04 1.000000000000e+00 0.000000000000e+00 
2.400000000000e+01 9.559385809670e+04 1.000000000000e+00 0.000000000000e+00 
2.433333333000e+01 9.556310350615e+04 1.000000000000e+00 0.000000000000e+00 
2.466666667000e+01 9.553234891467e+04 1.000000000000e+00 0.000000000000e+00 
2.500000000000e+01 9.550159432411e+04 1.000000000000e+00 0.000000000000e+00 
2.533333333000e+01 9.547083973354e+04 1.000000000000e+00 0.000000000000e+00 
2.566666667000e+01 9.544008514205e+04 1.000000000000e+00 0.000000000000e+00 
2.600000000000e+01 9.540933055147e+04 1.000000000000e+00 0.000000000000e+00 
2.633333333000e+01 9.537857596088e+04 1.000000000000e+00 0.000000000000e+00 
2.666666667000e+01 9.534782136937e+04 1.000000000000e+00 0.000000000000e+00 
2.700000000000e+01 9.531706677877e+04 1.000000000000e+00 0.000000000000e+00 
2.733333333000e+01 9.528631218817e+04 1.000000000000e+00 0.000000000000e+00 
2.766666667000e+01 9.525555759664e+04 1.000000000000e+00 0.000000000000e+00 
2.800000000000e+01 9.522480300603e+04 1.000000000000e+00 0.000000000000e+00 
2.833333333000e+01 9.519404841541e+04 1.000000000000e+00 0.000000000000e+00 
2.866666667000e+01 9.516329382387e+04 1.000000000000e+00 0.000000000000e+00 
2.900000000000e+01 9.513253923324e+04 1.000000000000e+00 0.000000000000e+00 
2.933333333000e+01 9.510178464261e+04 1.000000000000e+00 0.000000000000e+00 
2.966666667000e+01 9.507103005105e+04 1.000000000000e+00 0.000000000000e+00 
3.000000000000e+01 9.504027546041e+04 1.000000000000e+00 0.000000000000e+00 
3.033333333000e+01 9.500952086977e+04 1.000000000000e+00 0.000000000000e+00 
3.066666667000e+01 9.497876627820e+04 1.000000000000e+00 0.000000000000e+00 
3.100000000000e+01 9.494801168755e+04 1.000000000000e+00 0.000000000000e+00 
3.133333333000e+01 9.491725709689e+04 1.000000000000e+00 0.000000000000e+00 
3.166666667000e+01 9.488650250531e+04 1.000000000000e+00 0.000000000000e+00 
3.200000000000e+01 9.485574791465e+04 1.000000000000e+00 0.000000000000e+00 
3.233333333000e+01 9.482499332398e+04 1.000000000000e+00 0.000000000000e+00 
3.266666667000e+01 9.479423873239e+04 1.000000000000e+00 0.000000000000e+00 
3.300000000000e+01 9.476348414172e+04 1.000000000000e+00 0.000000000000e+00 
3.333333333000e+01 9.473272955104e+04 1.000000000000e+00 0.000000000000e+00 
3.366666667000e+01 9.470197495944e+04 1.000000000000e+00 0.000000000000e+00 
3.400000000000e+01 9.467122036876e+04 1.000000000000e+00 0.000000000000e+00 
3.433333333000e+01 9.464046577808e+04 1.000000000000e+00 0.000000000000e+00 
3.466666667000e+01 9.460971118647e+04 1.000000000000e+00 0.000000000000e+00 
3.500000000000e+01 9.457895659579e+04 1.000000000000e+00 0.000000000000e+00 
3.533333333000e+01 9.454820200510e+04 1.000000000000e+00 0.000000000000e+00 
3.566666667000e+01 9.451744741348e+04 1.000000000000e+00 0.000000000000e+00 
3.600000000000e+01 9.448669282279e+04 1.000000000000e+00 0.000000000000e+00 
3.633333333000e+01 9.445593823209e+04 1.000000000000e+00 0.000000000000e+00 
3.666666667000e+01 9.442518364047e+04 1.000000000000e+00 0.000000000000e+00 
3.700000000000e+01 9.439442904977e+04 1.000000000000e+00 0.000000000000e+00 
3.733333333000e+01 9.436367445907e+04 1.000000000000e+00 0.000000000000e+00 
3.766666667000e+01 9.433291986745e+04 1.000000000000e+00 0.000000000000e+00 
3.800000000000e+01 9.430216527675e+04 1.000000000000e+00 0.000000000000e+00 
3.833333333000e+01 9.427141068604e+04 1.000000000000e+00 0.000000000000e+00 
3.866666667000e+01 9.424065609441e+04 1.000000000000e+00 0.000000000000e+00 
3.900000000000e+01 9.420990150371e+04 1.000000000000e+00 0.000000000000e+00 
3.933333333000e+01 9.417914691300e+04 1.000000000000e+00 0.000000000000e+00 
3.966666667000e+01 9.414839232137e+04 1.000000000000e+00 0.000000000000e+00 
4.000000000000e+01 9.411763773066e+04 1.000000000000e+00 0.000000000000e+00 
4.033333333000e+01 9.408688313995e+04 1.000000000000e+00 0.000000000000e+00 
4.066666667000e+01 9.405612854832e+04 1.000000000000e+00 0.000000000000e+00 
4.100000000000e+01 9.402537395761e+04 1.000000000000e+00 0.000000000000e+00 
4.133333333000e+01 9.399461936689e+04 1.000000000000e+00 0.000000000000e+00 
4.166666667000e+01 9.396386477526e+04 1.000000000000e+00 0.000000000000e+00 
4.200000000000e+01 9.393311018455e+04 1.000000000000e+00 0.000000000000e+00 
4.233333333000e+01 9.390235559383e+04 1.000000000000e+00 0.000000000000e+00 
4.266666667000e+01 9.387160100220e+04 1.000000000000e+00 0.000000000000e+00 
4.300000000000e+01 9.384084641148e+04 1.000000000000e+00 0.000000000000e+00 
4.333333333000e+01 9.381009182077e+04 1.000000000000e+00 0.000000000000e+00 
4.366666667000e+01 9.377933722913e+04 1.000000000000e+00 0.000000000000e+00 
4.400000000000e+01 9.374858263842e+04 1.000000000000e+00 0.000000000000e+00 
4.433333333000e+01 9.371782804770e+04 1.000000000000e+00 0.000000000000e+00 
4.466666667000e+01 9.368707345607e+04 1.000000000000e+00 0.000000000000e+00 
4.500000000000e+01 9.365631886535e+04 1.000000000000e+00 0.000000000000e+00 
4.533333333000e+01 9.362556427464e+04 1.000000000000e+00 0.000000000000e+00 
4.566666667000e+01 9.359480968300e+04 1.000000000000e+00 0.000000000000e+00 
4.600000000000e+01 9.356405509228e+04 1.000000000000e+00 0.000000000000e+00 
4.633333333000e+01 9.353330050157e+04 1.000000000000e+00 0.000000000000e+00 
4.666666667000e+01 9.350254590993e+04 1.000000000000e+00 0.000000000000e+00 
4.700000000000e+01 9.347179131921e+04 1.000000000000e+00 0.000000000000e+00 
4.733333333000e+01 9.344103672850e+04 1.000000000000e+00 0.000000000000e+00 
4.766666667000e+01 9.341028213686e+04 1.000000000000e+00 0.000000000000e+00 
4.800000000000e+01 9.337952754614e+04 1.000000000000e+00 0.000000000000e+00 
4.833333333000e+01 9.334877295543e+04 1.000000000000e+00 0.000000000000e+00 
4.866666667000e+01 9.331801836379e+04 1.000000000000e+00 0.000000000000e+00 
4.900000000000e+01 9.328726377307e+04 1.000000000000e+00 0.000000000000e+00 
4.933333333000e+01 9.325650918235e+04 1.000000000000e+00 0.000000000000e+00 
4.966666667000e+01 9.322575459072e+04 1.000000000000e+00 0.000000000000e+00 
5.000000000000e+01 9.319500000000e+04 1.000000000000e+00 0.000000000000e+00 
 TITLE = "Profiles along polylines"
 VARIABLES = "DIST" "PRESSURE1" "SATURATION1" "SATURATION2" 
 ZONE T="TIME=4.320000000000e+04"
0.000000000000e+00 9.810000000000e+04 1.000000000000e+00 0.000000000000e+00 
3.333333330000e-01 9.806924540955e+04 1.000000000000e+00 0.000000000000e+00 
6.666666670000e-01 9.803849081900e+04 1.000000000000e+00 0.000000000000e+00 
1.000000000000e+00 9.800773622854e+04 1.000000000000e+00 0.000000000000e+00 
1.333333333000e+00 9.797698163809e+04 1.000000000000e+00 0.000000000000e+00 
1.666666667000e+00 9.794622704754e+04 1.000000000000e+00 0.000000000000e+00 
2.000000000000e+00 9.791547245708e+04 1.000000000000e+00 0.000000000000e+00 
2.333333333000e+00 9.788471786663e+04 1.000000000000e+00 0.000000000000e+00 
2.666666667000e+00 9.785396327608e+04 1.000000000000e+00 0.000000000000e+00 
3.000000000000e+00 9.782320868562e+04 1.000000000000e+00 0.000000000000e+00 
3.333333333000e+00 9.779245409515e+04 1.000000000000e+00 0.000000000000e+00 
3.666666667000e+00 9.776169950460e+04 1.000000000000e+00 0.000000000000e+00 
4.000000000000e+00 9.773094491413e+04 1.000000000000e+00 0.000000000000e+00 
4.333333333000e+00 9.770019032366e+04 1.000000000000e+00 0.000000000000e+00 
4.666666667000e+00 9.766943573310e+04 1.000000000000e+00 0.000000000000e+00 
5.000000000000e+00 9.763109329137e+04 8.999977480000e-01 1.000022520000e-01 
5.333333333000e+00 9.758189632251e+04 8.999977480000e-01 1.000022520000e-01 
5.666666667000e+00 9.753269935350e+04 8.999977480000e-01 1.000022520000e-01 
6.000000000000e+00 9.748350238463e+04 8.999977480000e-01 1.000022520000e-01 
6.333333333000e+00 9.743430541576e+04 8.999977480000e-01 1.000022520000e-01 
6.666666667000e+00 9.738510844673e+04 8.999977480000e-01 1.000022520000e-01 
7.000000000000e+00 9.733591147786e+04 8.999977480000e-01 1.000022520000e-01 
7.333333333000e+00 9.728671450897e+04 8.999977480000e-01 1.000022520000e-01 
7.666666667000e+00 9.723751753994e+04 8.999977480000e-01 1.000022520000e-01 
8.000000000000e+00 9.718832057105e+04 8.999977480000e-01 1.000022520000e-01 
8.333333333000e+00 9.713912360215e+04 8.999977480000e-01 1.000022520000e-01 
8.666666667000e+00 9.708992663309e+04 8.999977480000e-01 1.000022520000e-01 
9.000000000000e+00 9.704072966419e+04 8.999977480000e-01 1.000022520000e-01 
9.333333333000e+00 9.699153269527e+04 8.999977480000e-01 1.000022520000e-01 
9.666666667000e+00 9.694233572621e+04 8.999977480000e-01 1.000022520000e-01 
1.000000000000e+01 9.689313875728e+04 8.999977480000e-01 1.000022520000e-01 
1.033333333000e+01 9.685479631584e+04 1.000000000000e+00 0.000000000000e+00 
1.066666667000e+01 9.682404172467e+04 1.000000000000e+00 0.000000000000e+00 
1.100000000000e+01 9.679328713442e+04 1.000000000000e+00 0.000000000000e+00 
1.133333333000e+01 9.676253254415e+04 1.000000000000e+00 0.000000000000e+00 
1.166666667000e+01 9.673177795296e+04 1.000000000000e+00 0.000000000000e+00 
1.200000000000e+01 9.670102336269e+04 1.000000000000e+00 0.000000000000e+00 
1.233333333000e+01 9.667026877241e+04 1.000000000000e+00 0.000000000000e+00 
1.266666667000e+01 9.663951418120e+04 1.000000000000e+00 0.000000000000e+00 
1.300000000000e+01 9.660875959090e+04 1.000000000000e+00 0.000000000000e+00 
1.333333333000e+01 9.657800500060e+04 1.000000000000e+00 0.000000000000e+00 
1.366666667000e+01 9.654725040936e+04 1.000000000000e+00 0.000000000000e+00 
1.400000000000e+01 9.651649581904e+04 1.000000000000e+00 0.000000000000e+00 
1.433333333000e+01 9.648574122872e+04 1.000000000000e+00 0.000000000000e+00 
1.466666667000e+01 9.645498663746e+04 1.000000000000e+00 0.000000000000e+00 
1.500000000000e+01 9.642423204712e+04 1.000000000000e+00 0.000000000000e+00 
1.533333333000e+01 9.639347745677e+04 1.000000000000e+00 0.000000000000e+00 
1.566666667000e+01 9.636272286549e+04 1.000000000000e+00 0.000000000000e+00 
1.600000000000e+01 9.633196827513e+04 1.000000000000e+00 0.000000000000e+00 
1.633333333000e+01 9.630121368475e+04 1.000000000000e+00 0.000000000000e+00 
1.666666667000e+01 9.627045909345e+04 1.000000000000e+00 0.000000000000e+00 
1.700000000000e+01 9.623970450306e+04 1.000000000000e+00 0.000000000000e+00 
1.733333333000e+01 9.620894991266e+04 1.000000000000e+00 0.000000000000e+00 
1.766666667000e+01 9.617819532134e+04 1.000000000000e+00 0.000000000000e+00 
1.800000000000e+01 9.614744073093e+04 1.000000000000e+00 0.000000000000e+00 
1.833333333000e+01 9.611668614051e+04 1.000000000000e+00 0.000000000000e+00 
1.866666667000e+01 9.608593154916e+04 1.000000000000e+00 0.000000000000e+00 
1.900000000000e+01 9.605517695872e+04 1.000000000000e+00 0.000000000000e+00 
1.933333333000e+01 9.602442236828e+04 1.000000000000e+00 0.000000000000e+00 
1.966666667000e+01 9.599366777691e+04 1.000000000000e+00 0.000000000000e+00 
2.000000000000e+01 9.596291318645e+04 1.000000000000e+00 0.000000000000e+00 
2.033333333000e+01 9.593215859598e+04 1.000000000000e+00 0.000000000000e+00 
2.066666667000e+01 9.590140400459e+04 1.000000000000e+00 0.000000000000e+00 
2.100000000000e+01 9.587064941411e+04 1.000000000000e+00 0.000000000000e+00 
2.133333333000e+01 9.583989482362e+04 1.000000000000e+00 0.000000000000e+00 
2.166666667000e+01 9.580914023220e+04 1.000000000000e+00 0.000000000000e+00 
2.200000000000e+01 9.577838564170e+04 1.000000000000e+00 0.000000000000e+00 
2.233333333000e+01 9.574763105119e+04 1.000000000000e+00 0.000000000000e+00 
2.266666667000e+01 9.571687645975e+04 1.000000000000e+00 0.000000000000e+00 
2.300000000000e+01 9.568612186923e+04 1.000000000000e+00 0.000000000000e+00 
2.333333333000e+01 9.565536727870e+04 1.000000000000e+00 0.000000000000e+00 
2.366666667000e+01 9.562461268724e+04 1.000000000000e+00 0.000000000000e+00 
2.400000000000e+01 9.559385809670e+04 1.000000000000e+00 0.000000000000e+00 
2.433333333000e+01 9.556310350615e+04 1.000000000000e+00 0.000000000000e+00 
2.466666667000e+01 9.553234891467e+04 1.000000000000e+00 0.000000000000e+00 
2.500000000000e+01 9.550159432411e+04 1.000000000000e+00 0.000000000000e+00 
2.533333333000e+01 9.547083973354e+04 1.000000000000e+00 0.000000000000e+00 
2.566666667000e+01 9.544008514205e+04 1.000000000000e+00 0.000000000000e+00 
2.600000000000e+01 9.540933055147e+04 1.000000000000e+00 0.000000000000e+00 
2.633333333000e+01 9.537857596088e+04 1.000000000000e+00 0.000000000000e+00 
2.666666667000e+01 9.534782136937e+04 1.000000000000e+00 0.000000000000e+00 
2.700000000000e+01 9.531706677877e+04 1.000000000000e+00 0.000000000000e+00 