 TITLE = "Time curves in points"
 VARIABLES = "TIME "  "Tracer" 
 ZONE T="POINT=POINT8"
0.000000000000e+00 0.000000000000e+00 
2.160000000000e+04 0.000000000000e+00 
4.320000000000e+04 8.735070409331e-25 
6.480000000000e+04 4.614906197010e-23 
8.640000000000e+04 9.404153576697e-22 
1.080000000000e+05 1.180250720881e-20 
1.296000000000e+05 1.086323828298e-19 
1.512000000000e+05 7.985351298341e-19 
1.728000000000e+05 4.939562456760e-18 
1.944000000000e+05 2.658850806970e-17 
2.160000000000e+05 1.272120876546e-16 
2.376000000000e+05 5.502090756437e-16 
2.592000000000e+05 2.176879900410e-15 
2.808000000000e+05 7.952634223211e-15 
3.024000000000e+05 2.703255885226e-14 
3.240000000000e+05 8.604966756002e-14 
3.456000000000e+05 2.579188979196e-13 
3.672000000000e+05 7.313721672773e-13 
3.888000000000e+05 1.970291038772e-12 
4.104000000000e+05 5.061295758499e-12 
4.320000000000e+05 1.243833788247e-11 
4.536000000000e+05 2.933029614419e-11 
4.752000000000e+05 6.654045610535e-11 
4.968000000000e+05 1.455873711447e-10 
5.184000000000e+05 3.078865037244e-10 
5.400000000000e+05 6.306166960539e-10 
5.616000000000e+05 1.253299844570e-09 
5.832000000000e+05 2.421041194981e-09 
6.048000000000e+05 4.552949558994e-09 
6.264000000000e+05 8.347602370586e-09 
6.480000000000e+05 1.494161681317e-08 
6.696000000000e+05 2.614252010166e-08 
6.912000000000e+05 4.476315581866e-08 
7.128000000000e+05 7.509177289641e-08 
7.344000000000e+05 1.235395833037e-07 
7.560000000000e+05 1.995156899922e-07 
7.776000000000e+05 3.165875775097e-07 
7.992000000000e+05 4.939934068366e-07 
8.208000000000e+05 7.585796915249e-07 
8.424000000000e+05 1.147244019588e-06 
8.640000000000e+05 1.709966784459e-06 
8.856000000000e+05 2.513517845827e-06 
9.072000000000e+05 3.645923163935e-06 
9.288000000000e+05 5.221772314736e-06 
9.504000000000e+05 7.388440082611e-06 
9.720000000000e+05 1.033328385893e-05 
9.936000000000e+05 1.429186333432e-05 
1.015200000000e+06 1.955721007433e-05 
1.036800000000e+06 2.649015234967e-05 
1.058400000000e+06 3.553067549528e-05 
1.080000000000e+06 4.721027072134e-05 
1.101600000000e+06 6.216519642349e-05 
1.123200000000e+06 8.115054646716e-05 
1.144800000000e+06 1.050549905329e-04 
1.166400000000e+06 1.349160233151e-04 
1.188000000000e+06 1.719355330584e-04 
1.209600000000e+06 2.174954764420e-04 
1.231200000000e+06 2.731734269386e-04 
1.252800000000e+06 3.407577481527e-04 
1.274400000000e+06 4.222621327954e-04 
1.296000000000e+06 5.199392422804e-04 
1.317600000000e+06 6.362931816408e-04 
1.339200000000e+06 7.740905496596e-04 
1.360800000000e+06 9.363698146827e-04 
1.382400000000e+06 1.126448782324e-03 
1.404000000000e+06 1.347929941820e-03 
1.425600000000e+06 1.604703502662e-03 
1.447200000000e+06 1.900947961770e-03 
1.468800000000e+06 2.241128073214e-03 
1.490400000000e+06 2.629990126646e-03 
1.512000000000e+06 3.072554476442e-03 
1.533600000000e+06 3.574105300323e-03 
1.555200000000e+06 4.140177603225e-03 
1.576800000000e+06 4.776541518648e-03 
1.598400000000e+06 5.489183995071e-03 
1.620000000000e+06 6.284287988571e-03 
1.641600000000e+06 7.168209314093e-03 
1.663200000000e+06 8.147451336286e-03 
1.684800000000e+06 9.228637706247e-03 
1.706400000000e+06 1.041848337244e-02 
1.728000000000e+06 1.172376411231e-02 
1.749600000000e+06 1.315128484570e-02 
1.771200000000e+06 1.470784700168e-02 
1.792800000000e+06 1.640021521732e-02 
1.814400000000e+06 1.823508365002e-02 
1.836000000000e+06 2.021904218431e-02 
1.857600000000e+06 2.235854281014e-02 
1.879200000000e+06 2.465986644263e-02 
1.900800000000e+06 2.712909044285e-02 
1.922400000000e+06 2.977205708686e-02 
1.944000000000e+06 3.259434321494e-02 
1.965600000000e+06 3.560123127617e-02 
1.987200000000e+06 3.879768196468e-02 
2.008800000000e+06 4.218830862424e-02 
2.030400000000e+06 4.577735357671e-02 
2.052000000000e+06 4.956866650848e-02 
2.073600000000e+06 5.356568502704e-02 
2.095200000000e+06 5.777141747788e-02 
2.116800000000e+06 6.218842809012e-02 
2.138400000000e+06 6.681882449788e-02 
2.160000000000e+06 7.166424766371e-02 
2.181600000000e+06 7.672586421052e-02 
2.203200000000e+06 8.200436114952e-02 
2.224800000000e+06 8.749994297394e-02 
2.246400000000e+06 9.321233107178e-02 
2.268000000000e+06 9.914076539564e-02 
2.289600000000e+06 1.052840083139e-01 
2.311200000000e+06 1.116403505551e-01 
2.332800000000e+06 1.182076191465e-01 
2.354400000000e+06 1.249831872385e-01 
2.376000000000e+06 1.319639856982e-01 
2.397600000000e+06 1.391465163496e-01 
2.419200000000e+06 1.465268667313e-01 
2.440800000000e+06 1.541007262408e-01 
2.462400000000e+06 1.618634035296e-01 
2.484000000000e+06 1.698098450138e-01 
2.505600000000e+06 1.779346543633e-01 
2.527200000000e+06 1.862321128347e-01 
2.548800000000e+06 1.946962003124e-01 
2.570400000000e+06 2.033206169285e-01 
2.592000000000e+06 2.120988051322e-01 
2.613600000000e+06 2.210239720847e-01 
2.635200000000e+06 2.300891122613e-01 
2.656800000000e+06 2.392870301446e-01 
2.678400000000e+06 2.486103629025e-01 
2.700000000000e+06 2.580516029468e-01 
2.721600000000e+06 2.676031202763e-01 
2.743200000000e+06 2.772571845151e-01 
2.764800000000e+06 2.870059865620e-01 
2.786400000000e+06 2.968416597752e-01 
2.808000000000e+06 3.067563006222e-01 
2.829600000000e+06 3.167419887316e-01 
2.851200000000e+06 3.267908062904e-01 
2.872800000000e+06 3.368948567377e-01 
2.894400000000e+06 3.470462827105e-01 
2.916000000000e+06 3.572372832041e-01 
2.937600000000e+06 3.674601299173e-01 
2.959200000000e+06 3.777071827555e-01 
2.980800000000e+06 3.879709044724e-01 
3.002400000000e+06 3.982438744361e-01 
3.024000000000e+06 4.085188015092e-01 
3.045600000000e+06 4.187885360382e-01 
3.067200000000e+06 4.290460809516e-01 
3.088800000000e+06 4.392846019711e-01 
3.110400000000e+06 4.494974369412e-01 
3.132000000000e+06 4.596781042900e-01 
3.153600000000e+06 4.698203106341e-01 
3.175200000000e+06 4.799179575442e-01 
3.196800000000e+06 4.899651474920e-01 
3.218400000000e+06 4.999561889986e-01 
3.240000000000e+06 5.098856010091e-01 
3.261600000000e+06 5.197481165191e-01 
3.283200000000e+06 5.295386854789e-01 
3.304800000000e+06 5.392524770054e-01 
3.326400000000e+06 5.488848809295e-01 
3.348000000000e+06 5.584315087102e-01 
3.369600000000e+06 5.678881937463e-01 
3.391200000000e+06 5.772509911156e-01 
3.412800000000e+06 5.865161767755e-01 
3.434400000000e+06 5.956802462538e-01 
3.456000000000e+06 6.047399128640e-01 
3.477600000000e+06 6.136921054747e-01 
3.499200000000e+06 6.225339658647e-01 
3.520800000000e+06 6.312628456947e-01 
3.542400000000e+06 6.398763031258e-01 
3.564000000000e+06 6.483720991134e-01 
3.585600000000e+06 6.567481934064e-01 
3.607200000000e+06 6.650027402792e-01 
3.628800000000e+06 6.731340840233e-01 
3.650400000000e+06 6.811407542259e-01 
3.672000000000e+06 6.890214608596e-01 
3.693600000000e+06 6.967750892080e-01 
3.715200000000e+06 7.044006946509e-01 
3.736800000000e+06 7.118974973313e-01 
3.758400000000e+06 7.192648767250e-01 
3.780000000000e+06 7.265023661335e-01 
3.801600000000e+06 7.336096471196e-01 
3.823200000000e+06 7.405865439033e-01 
3.844800000000e+06 7.474330177354e-01 
3.866400000000e+06 7.541491612645e-01 
3.888000000000e+06 7.607351929136e-01 
3.909600000000e+06 7.671914512787e-01 
3.931200000000e+06 7.735183895634e-01 
3.952800000000e+06 7.797165700621e-01 
3.974400000000e+06 7.857866587012e-01 
3.996000000000e+06 7.917294196507e-01 
4.017600000000e+06 7.975457100143e-01 
4.039200000000e+06 8.032364746063e-01 
4.060800000000e+06 8.088027408243e-01 
4.082400000000e+06 8.142456136232e-01 
4.104000000000e+06 8.195662705979e-01 
4.125600000000e+06 8.247659571790e-01 
4.147200000000e+06 8.298459819474e-01 
4.168800000000e+06 8.348077120711e-01 
4.190400000000e+06 8.396525688682e-01 
4.212000000000e+06 8.443820234984e-01 
4.233600000000e+06 8.489975927865e-01 
4.255200000000e+06 8.535008351786e-01 
4.276800000000e+06 8.578933468324e-01 
4.298400000000e+06 8.621767578440e-01 
4.320000000000e+06 8.663527286097e-01 
4.341600000000e+06 8.704229463238e-01 
4.363200000000e+06 8.743891216126e-01 
4.384800000000e+06 8.782529853029e-01 
4.406400000000e+06 8.820162853247e-01 
4.428000000000e+06 8.856807837472e-01 
4.449600000000e+06 8.892482539452e-01 
4.471200000000e+06 8.927204778962e-01 
4.492800000000e+06 8.960992436042e-01 
4.514400000000e+06 8.993863426495e-01 
4.536000000000e+06 9.025835678614e-01 
4.557600000000e+06 9.056927111117e-01 
4.579200000000e+06 9.087155612261e-01 
4.600800000000e+06 9.116539020110e-01 
4.622400000000e+06 9.145095103924e-01 
4.644000000000e+06 9.172841546649e-01 
4.665600000000e+06 9.199795928465e-01 
4.687200000000e+06 9.225975711369e-01 
4.708800000000e+06 9.251398224770e-01 
4.730400000000e+06 9.276080652039e-01 
4.752000000000e+06 9.300040018014e-01 
4.773600000000e+06 9.323293177404e-01 
4.795200000000e+06 9.345856804072e-01 
4.816800000000e+06 9.367747381160e-01 
4.838400000000e+06 9.388981192031e-01 
4.860000000000e+06 9.409574311987e-01 
4.881600000000e+06 9.429542600738e-01 
4.903200000000e+06 9.448901695594e-01 
4.924800000000e+06 9.467667005340e-01 
4.946400000000e+06 9.485853704774e-01 
4.968000000000e+06 9.503476729871e-01 
4.989600000000e+06 9.520550773555e-01 
5.011200000000e+06 9.537090282029e-01 
5.032800000000e+06 9.553109451666e-01 
5.054400000000e+06 9.568622226408e-01 
5.076000000000e+06 9.583642295656e-01 
5.097600000000e+06 9.598183092627e-01 
5.119200000000e+06 9.612257793157e-01 
5.140800000000e+06 9.625879314910e-01 
5.162400000000e+06 9.639060316988e-01 
5.184000000000e+06 9.651813199906e-01 
5.205600000000e+06 9.664150105918e-01 
5.227200000000e+06 9.676082919666e-01 
5.248800000000e+06 9.687623269139e-01 
5.270400000000e+06 9.698782526914e-01 
5.292000000000e+06 9.709571811665e-01 
5.313600000000e+06 9.720001989919e-01 
5.335200000000e+06 9.730083678046e-01 
5.356800000000e+06 9.739827244461e-01 
5.378400000000e+06 9.749242812015e-01 
5.400000000000e+06 9.758340260584e-01 
5.421600000000e+06 9.767129229807e-01 
5.443200000000e+06 9.775619121988e-01 
5.464800000000e+06 9.783819105131e-01 
5.486400000000e+06 9.791738116099e-01 
5.508000000000e+06 9.799384863893e-01 
5.529600000000e+06 9.806767833020e-01 
5.551200000000e+06 9.813895286964e-01 
5.572800000000e+06 9.820775271726e-01 
5.594400000000e+06 9.827415619437e-01 
5.616000000000e+06 9.833823952030e-01 
5.637600000000e+06 9.840007684961e-01 
5.659200000000e+06 9.845974030970e-01 
5.680800000000e+06 9.851730003881e-01 
5.702400000000e+06 9.857282422419e-01 
5.724000000000e+06 9.862637914056e-01 
5.745600000000e+06 9.867802918859e-01 
5.767200000000e+06 9.872783693346e-01 
5.788800000000e+06 9.877586314347e-01 
5.810400000000e+06 9.882216682852e-01 
5.832000000000e+06 9.886680527849e-01 
5.853600000000e+06 9.890983410149e-01 
5.875200000000e+06 9.895130726190e-01 
5.896800000000e+06 9.899127711807e-01 
5.918400000000e+06 9.902979445990e-01 
5.940000000000e+06 9.906690854593e-01 
5.961600000000e+06 9.910266714019e-01 
5.983200000000e+06 9.913711654862e-01 
6.004800000000e+06 9.917030165507e-01 
6.026400000000e+06 9.920226595687e-01 
6.048000000000e+06 9.923305159995e-01 
6.069600000000e+06 9.926269941349e-01 
6.091200000000e+06 9.929124894404e-01 
6.112800000000e+06 9.931873848911e-01 
6.134400000000e+06 9.934520513031e-01 
6.156000000000e+06 9.937068476589e-01 
6.177600000000e+06 9.939521214270e-01 
6.199200000000e+06 9.941882088765e-01 
6.220800000000e+06 9.944154353857e-01 
6.242400000000e+06 9.946341157451e-01 
6.264000000000e+06 9.948445544542e-01 
6.285600000000e+06 9.950470460127e-01 
6.307200000000e+06 9.952418752063e-01 
6.328800000000e+06 9.954293173855e-01 
6.350400000000e+06 9.956096387395e-01 
6.372000000000e+06 9.957830965637e-01 
6.393600000000e+06 9.959499395216e-01 
6.415200000000e+06 9.961104079006e-01 
6.436800000000e+06 9.962647338618e-01 
6.458400000000e+06 9.964131416849e-01 
6.480000000000e+06 9.965558480059e-01 
6.501600000000e+06 9.966930620507e-01 
6.523200000000e+06 9.968249858614e-01 
6.544800000000e+06 9.969518145186e-01 
6.566400000000e+06 9.970737363569e-01 
6.588000000000e+06 9.971909331758e-01 
6.609600000000e+06 9.973035804443e-01 
6.631200000000e+06 9.974118475014e-01 
6.652800000000e+06 9.975158977504e-01 
6.674400000000e+06 9.976158888479e-01 
6.696000000000e+06 9.977119728890e-01 
6.717600000000e+06 9.978042965858e-01 
6.739200000000e+06 9.978930014422e-01 
6.760800000000e+06 9.979782239237e-01 
6.782400000000e+06 9.980600956218e-01 
6.804000000000e+06 9.981387434146e-01 
6.825600000000e+06 9.982142896222e-01 
6.847200000000e+06 9.982868521584e-01 
6.868800000000e+06 9.983565446766e-01 
6.890400000000e+06 9.984234767135e-01 
6.912000000000e+06 9.984877538265e-01 
6.933600000000e+06 9.985494777286e-01 
6.955200000000e+06 9.986087464183e-01 
6.976800000000e+06 9.986656543063e-01 
6.998400000000e+06 9.987202923377e-01 
7.020000000000e+06 9.987727481109e-01 
7.041600000000e+06 9.988231059931e-01 
7.063200000000e+06 9.988714472312e-01 
7.084800000000e+06 9.989178500608e-01 
7.106400000000e+06 9.989623898103e-01 
7.128000000000e+06 9.990051390027e-01 
7.149600000000e+06 9.990461674539e-01 
7.171200000000e+06 9.990855423676e-01 
7.192800000000e+06 9.991233284277e-01 
7.214400000000e+06 9.991595878873e-01 
7.236000000000e+06 9.991943806549e-01 
7.257600000000e+06 9.992277643780e-01 
7.279200000000e+06 9.992597945239e-01 
7.300800000000e+06 9.992905244576e-01 
7.322400000000e+06 9.993200055174e-01 
7.344000000000e+06 9.993482870881e-01 
7.365600000000e+06 9.993754166713e-01 
7.387200000000e+06 9.994014399538e-01 
7.408800000000e+06 9.994264008737e-01 
7.430400000000e+06 9.994503416838e-01 
7.452000000000e+06 9.994733030134e-01 
7.473600000000e+06 9.994953239277e-01 
7.495200000000e+06 9.995164419851e-01 
7.516800000000e+06 9.995366932932e-01 
7.538400000000e+06 9.995561125616e-01 
7.560000000000e+06 9.995747331543e-01 
7.581600000000e+06 9.995925871392e-01 
7.603200000000e+06 9.996097053367e-01 
7.624800000000e+06 9.996261173656e-01 
7.646400000000e+06 9.996418516886e-01 
7.668000000000e+06 9.996569356554e-01 
7.689600000000e+06 9.996713955443e-01 
7.711200000000e+06 9.996852566026e-01 
7.732800000000e+06 9.996985430855e-01 
7.754400000000e+06 9.997112782938e-01 
7.776000000000e+06 9.997234846097e-01 
7.797600000000e+06 9.997351835316e-01 
7.819200000000e+06 9.997463957081e-01 
7.840800000000e+06 9.997571409701e-01 
7.862400000000e+06 9.997674383622e-01 
7.884000000000e+06 9.997773061725e-01 
7.905600000000e+06 9.997867619617e-01 
7.927200000000e+06 9.997958225913e-01 
7.948800000000e+06 9.998045042501e-01 
7.970400000000e+06 9.998128224805e-01 
7.992000000000e+06 9.998207922032e-01 
8.013600000000e+06 9.998284277412e-01 
8.035200000000e+06 9.998357428434e-01 
8.056800000000e+06 9.998427507064e-01 
8.078400000000e+06 9.998494639962e-01 
8.100000000000e+06 9.998558948688e-01 
8.121600000000e+06 9.998620549904e-01 
8.143200000000e+06 9.998679555560e-01 
8.164800000000e+06 9.998736073085e-01 
8.186400000000e+06 9.998790205557e-01 
8.208000000000e+06 9.998842051882e-01 
8.229600000000e+06 9.998891706952e-01 
8.251200000000e+06 9.998939261805e-01 
8.272800000000e+06 9.998984803778e-01 
8.294400000000e+06 9.999028416653e-01 
8.316000000000e+06 9.999070180798e-01 
8.337600000000e+06 9.999110173302e-01 
8.359200000000e+06 9.999148468104e-01 
8.380800000000e+06 9.999185136120e-01 
8.402400000000e+06 9.999220245363e-01 
8.424000000000e+06 9.999253861059e-01 
8.445600000000e+06 9.999286045759e-01 
8.467200000000e+06 9.999316859442e-01 
8.488800000000e+06 9.999346359624e-01 
8.510400000000e+06 9.999374601453e-01 
8.532000000000e+06 9.999401637803e-01 
8.553600000000e+06 9.999427519372e-01 
8.575200000000e+06 9.999452294759e-01 
8.596800000000e+06 9.999476010560e-01 
8.618400000000e+06 9.999498711441e-01 
8.640000000000e+06 9.999520440219e-01 
8.661600000000e+06 9.999541237935e-01 
8.683200000000e+06 9.999561143930e-01 
8.704800000000e+06 9.999580195910e-01 
8.726400000000e+06 9.999598430013e-01 
8.748000000000e+06 9.999615880875e-01 
8.769600000000e+06 9.999632581689e-01 
8.791200000000e+06 9.999648564264e-01 
8.812800000000e+06 9.999663859083e-01 
8.834400000000e+06 9.999678495356e-01 
8.856000000000e+06 9.999692501072e-01 
8.877600000000e+06 9.999705903049e-01 
8.899200000000e+06 9.999718726983e-01 
8.920800000000e+06 9.999730997493e-01 
8.942400000000e+06 9.999742738165e-01 
8.964000000000e+06 9.999753971597e-01 
8.985600000000e+06 9.999764719434e-01 
9.007200000000e+06 9.999775002416e-01 
9.028800000000e+06 9.999784840406e-01 
9.050400000000e+06 9.999794252434e-01 
9.072000000000e+06 9.999803256724e-01 
9.093600000000e+06 9.999811870737e-01 
9.115200000000e+06 9.999820111191e-01 
9.136800000000e+06 9.999827994102e-01 
9.158400000000e+06 9.999835534808e-01 
9.180000000000e+06 9.999842747996e-01 
9.201600000000e+06 9.999849647735e-01 
9.223200000000e+06 9.999856247494e-01 
9.244800000000e+06 9.999862560174e-01 
9.266400000000e+06 9.999868598127e-01 
9.288000000000e+06 9.999874373180e-01 
9.309600000000e+06 9.999879896659e-01 
9.331200000000e+06 9.999885179408e-01 
9.352800000000e+06 9.999890231807e-01 
9.374400000000e+06 9.999895063799e-01 
9.396000000000e+06 9.999899684899e-01 
9.417600000000e+06 9.999904104217e-01 
9.439200000000e+06 9.999908330477e-01 
9.460800000000e+06 9.999912372027e-01 
9.482400000000e+06 9.999916236860e-01 
9.504000000000e+06 9.999919932628e-01 
9.525600000000e+06 9.999923466653e-01 
9.547200000000e+06 9.999926845947e-01 
9.568800000000e+06 9.999930077219e-01 
9.590400000000e+06 9.999933166891e-01 
9.612000000000e+06 9.999936121111e-01 
9.633600000000e+06 9.999938945760e-01 
9.655200000000e+06 9.999941646470e-01 
9.676800000000e+06 9.999944228629e-01 
9.698400000000e+06 9.999946697394e-01 
9.720000000000e+06 9.999949057699e-01 
9.741600000000e+06 9.999951314267e-01 
9.763200000000e+06 9.999953471616e-01 
9.784800000000e+06 9.999955534072e-01 
9.806400000000e+06 9.999957505771e-01 
9.828000000000e+06 9.999959390673e-01 
9.849600000000e+06 9.999961192566e-01 
9.871200000000e+06 9.999962915075e-01 
9.892800000000e+06 9.999964561668e-01 
9.914400000000e+06 9.999966135663e-01 
9.936000000000e+06 9.999967640233e-01 
9.957600000000e+06 9.999969078417e-01 
9.979200000000e+06 9.999970453119e-01 
1.000080000000e+07 9.999971767119e-01 
1.002240000000e+07 9.999973023075e-01 
1.004400000000e+07 9.999974223533e-01 
1.006560000000e+07 9.999975370924e-01 
1.008720000000e+07 9.999976467576e-01 
1.010880000000e+07 9.999977515715e-01 
1.013040000000e+07 9.999978517472e-01 
1.015200000000e+07 9.999979474883e-01 
1.017360000000e+07 9.999980389896e-01 
1.019520000000e+07 9.999981264375e-01 
1.021680000000e+07 9.999982100102e-01 
1.023840000000e+07 9.999982898782e-01 
1.026000000000e+07 9.999983662045e-01 
1.028160000000e+07 9.999984391450e-01 
1.030320000000e+07 9.999985088488e-01 
1.032480000000e+07 9.999985754586e-01 
1.034640000000e+07 9.999986391107e-01 
1.036800000000e+07 9.999986999355e-01 
1.038960000000e+07 9.999987580577e-01 
1.041120000000e+07 9.999988135966e-01 
1.043280000000e+07 9.999988666662e-01 
1.045440000000e+07 9.999989173755e-01 
1.047600000000e+07 9.999989658289e-01 
1.049760000000e+07 9.999990121260e-01 
1.051920000000e+07 9.999990563621e-01 
1.054080000000e+07 9.999990986284e-01 
1.056240000000e+07 9.999991390120e-01 
1.058400000000e+07 9.999991775962e-01 
1.060560000000e+07 9.999992144608e-01 
1.062720000000e+07 9.999992496818e-01 
1.064880000000e+07 9.999992833321e-01 
1.067040000000e+07 9.999993154812e-01 
1.069200000000e+07 9.999993461958e-01 
1.071360000000e+07 9.999993755394e-01 
1.073520000000e+07 9.999994035729e-01 
1.075680000000e+07 9.999994303544e-01 
1.077840000000e+07 9.999994559395e-01 
1.080000000000e+07 9.999994803812e-01 
