 TITLE = "Profiles along polylines"
 VARIABLES = "DIST" "PCE-l" "PCE-h" 
 ZONE T="TIME=0.000000000000e+00"
0.000000000000e+00 1.000000000000e-10 1.000000000000e-10 
7.300000000000e+00 1.000000000000e-10 1.000000000000e-10 
1.460000000000e+01 1.000000000000e-10 1.000000000000e-10 
2.190000000000e+01 1.000000000000e-10 1.000000000000e-10 
2.920000000000e+01 1.000000000000e-10 1.000000000000e-10 
3.650000000000e+01 1.000000000000e-10 1.000000000000e-10 
4.380000000000e+01 1.000000000000e-10 1.000000000000e-10 
5.110000000000e+01 1.000000000000e-10 1.000000000000e-10 
5.840000000000e+01 1.000000000000e-10 1.000000000000e-10 
6.570000000000e+01 1.000000000000e-10 1.000000000000e-10 
7.300000000000e+01 1.000000000000e-10 1.000000000000e-10 
8.030000000000e+01 1.000000000000e-10 1.000000000000e-10 
8.760000000000e+01 1.000000000000e-10 1.000000000000e-10 
9.490000000000e+01 1.000000000000e-10 1.000000000000e-10 
1.022000000000e+02 1.000000000000e-10 1.000000000000e-10 
1.095000000000e+02 1.000000000000e-10 1.000000000000e-10 
1.168000000000e+02 1.000000000000e-10 1.000000000000e-10 
1.241000000000e+02 1.000000000000e-10 1.000000000000e-10 
1.314000000000e+02 1.000000000000e-10 1.000000000000e-10 
1.387000000000e+02 1.000000000000e-10 1.000000000000e-10 
1.460000000000e+02 1.000000000000e-10 1.000000000000e-10 
1.533000000000e+02 1.000000000000e-10 1.000000000000e-10 
1.606000000000e+02 1.000000000000e-10 1.000000000000e-10 
1.679000000000e+02 1.000000000000e-10 1.000000000000e-10 
1.752000000000e+02 1.000000000000e-10 1.000000000000e-10 
1.825000000000e+02 1.000000000000e-10 1.000000000000e-10 
1.898000000000e+02 1.000000000000e-10 1.000000000000e-10 
1.971000000000e+02 1.000000000000e-10 1.000000000000e-10 
2.044000000000e+02 1.000000000000e-10 1.000000000000e-10 
2.117000000000e+02 1.000000000000e-10 1.000000000000e-10 
2.190000000000e+02 1.000000000000e-10 1.000000000000e-10 
2.263000000000e+02 1.000000000000e-10 1.000000000000e-10 
2.336000000000e+02 1.000000000000e-10 1.000000000000e-10 
2.409000000000e+02 1.000000000000e-10 1.000000000000e-10 
2.482000000000e+02 1.000000000000e-10 1.000000000000e-10 
2.555000000000e+02 1.000000000000e-10 1.000000000000e-10 
2.628000000000e+02 1.000000000000e-10 1.000000000000e-10 
2.701000000000e+02 1.000000000000e-10 1.000000000000e-10 
2.774000000000e+02 1.000000000000e-10 1.000000000000e-10 
2.847000000000e+02 1.000000000000e-10 1.000000000000e-10 
2.920000000000e+02 1.000000000000e-10 1.000000000000e-10 
2.993000000000e+02 1.000000000000e-10 1.000000000000e-10 
3.066000000000e+02 1.000000000000e-10 1.000000000000e-10 
3.139000000000e+02 1.000000000000e-10 1.000000000000e-10 
3.212000000000e+02 1.000000000000e-10 1.000000000000e-10 
3.285000000000e+02 1.000000000000e-10 1.000000000000e-10 
3.358000000000e+02 1.000000000000e-10 1.000000000000e-10 
3.431000000000e+02 1.000000000000e-10 1.000000000000e-10 
3.504000000000e+02 1.000000000000e-10 1.000000000000e-10 
3.577000000000e+02 1.000000000000e-10 1.000000000000e-10 
3.650000000000e+02 1.000000000000e-10 1.000000000000e-10 
3.723000000000e+02 1.000000000000e-10 1.000000000000e-10 
3.796000000000e+02 1.000000000000e-10 1.000000000000e-10 
3.869000000000e+02 1.000000000000e-10 1.000000000000e-10 
3.942000000000e+02 1.000000000000e-10 1.000000000000e-10 
4.015000000000e+02 1.000000000000e-10 1.000000000000e-10 
4.088000000000e+02 1.000000000000e-10 1.000000000000e-10 
4.161000000000e+02 1.000000000000e-10 1.000000000000e-10 
4.234000000000e+02 1.000000000000e-10 1.000000000000e-10 
4.307000000000e+02 1.000000000000e-10 1.000000000000e-10 
4.380000000000e+02 1.000000000000e-10 1.000000000000e-10 
4.453000000000e+02 1.000000000000e-10 1.000000000000e-10 
4.526000000000e+02 1.000000000000e-10 1.000000000000e-10 
4.599000000000e+02 1.000000000000e-10 1.000000000000e-10 
4.672000000000e+02 1.000000000000e-10 1.000000000000e-10 
4.745000000000e+02 1.000000000000e-10 1.000000000000e-10 
4.818000000000e+02 1.000000000000e-10 1.000000000000e-10 
4.891000000000e+02 1.000000000000e-10 1.000000000000e-10 
4.964000000000e+02 1.000000000000e-10 1.000000000000e-10 
5.037000000000e+02 1.000000000000e-10 1.000000000000e-10 
5.110000000000e+02 1.000000000000e-10 1.000000000000e-10 
5.183000000000e+02 1.000000000000e-10 1.000000000000e-10 
5.256000000000e+02 1.000000000000e-10 1.000000000000e-10 
5.329000000000e+02 1.000000000000e-10 1.000000000000e-10 
5.402000000000e+02 1.000000000000e-10 1.000000000000e-10 
5.475000000000e+02 1.000000000000e-10 1.000000000000e-10 
5.548000000000e+02 1.000000000000e-10 1.000000000000e-10 
5.621000000000e+02 1.000000000000e-10 1.000000000000e-10 
5.694000000000e+02 1.000000000000e-10 1.000000000000e-10 
5.767000000000e+02 1.000000000000e-10 1.000000000000e-10 
5.840000000000e+02 1.000000000000e-10 1.000000000000e-10 
5.913000000000e+02 1.000000000000e-10 1.000000000000e-10 
5.986000000000e+02 1.000000000000e-10 1.000000000000e-10 
6.059000000000e+02 1.000000000000e-10 1.000000000000e-10 
6.132000000000e+02 1.000000000000e-10 1.000000000000e-10 
6.205000000000e+02 1.000000000000e-10 1.000000000000e-10 
6.278000000000e+02 1.000000000000e-10 1.000000000000e-10 
6.351000000000e+02 1.000000000000e-10 1.000000000000e-10 
6.424000000000e+02 1.000000000000e-10 1.000000000000e-10 
6.497000000000e+02 1.000000000000e-10 1.000000000000e-10 
6.570000000000e+02 1.000000000000e-10 1.000000000000e-10 
6.643000000000e+02 1.000000000000e-10 1.000000000000e-10 
6.716000000000e+02 1.000000000000e-10 1.000000000000e-10 
6.789000000000e+02 1.000000000000e-10 1.000000000000e-10 
6.862000000000e+02 1.000000000000e-10 1.000000000000e-10 
6.935000000000e+02 1.000000000000e-10 1.000000000000e-10 
7.008000000000e+02 1.000000000000e-10 1.000000000000e-10 
7.081000000000e+02 1.000000000000e-10 1.000000000000e-10 
7.154000000000e+02 1.000000000000e-10 1.000000000000e-10 
7.227000000000e+02 1.000000000000e-10 1.000000000000e-10 
7.300000000000e+02 1.000000000000e-10 1.000000000000e-10 
7.373000000000e+02 1.000000000000e-10 1.000000000000e-10 
7.446000000000e+02 1.000000000000e-10 1.000000000000e-10 
7.519000000000e+02 1.000000000000e-10 1.000000000000e-10 
7.592000000000e+02 1.000000000000e-10 1.000000000000e-10 
7.665000000000e+02 1.000000000000e-10 1.000000000000e-10 
7.738000000000e+02 1.000000000000e-10 1.000000000000e-10 
7.811000000000e+02 1.000000000000e-10 1.000000000000e-10 
7.884000000000e+02 1.000000000000e-10 1.000000000000e-10 
7.957000000000e+02 1.000000000000e-10 1.000000000000e-10 
8.030000000000e+02 1.000000000000e-10 1.000000000000e-10 
8.103000000000e+02 1.000000000000e-10 1.000000000000e-10 
8.176000000000e+02 1.000000000000e-10 1.000000000000e-10 
8.249000000000e+02 1.000000000000e-10 1.000000000000e-10 
8.322000000000e+02 1.000000000000e-10 1.000000000000e-10 
8.395000000000e+02 1.000000000000e-10 1.000000000000e-10 
8.468000000000e+02 1.000000000000e-10 1.000000000000e-10 
8.541000000000e+02 1.000000000000e-10 1.000000000000e-10 
8.614000000000e+02 1.000000000000e-10 1.000000000000e-10 
8.687000000000e+02 1.000000000000e-10 1.000000000000e-10 
8.760000000000e+02 1.000000000000e-10 1.000000000000e-10 
 TITLE = "Profiles along polylines"
 VARIABLES = "DIST" "PCE-l" "PCE-h" 
 ZONE T="TIME=6.307200000000e+08"
0.000000000000e+00 9.892176365800e-01 1.078236342500e-02 
7.300000000000e+00 6.796037270271e-01 7.421304595901e-03 
1.460000000000e+01 4.644803459211e-01 5.081678558258e-03 
2.190000000000e+01 3.174526318333e-01 3.479638470021e-03 
2.920000000000e+01 2.169654202642e-01 2.382654420809e-03 
3.650000000000e+01 1.482866697900e-01 1.631503427135e-03 
4.380000000000e+01 1.013476544350e-01 1.117158833228e-03 
5.110000000000e+01 6.926682670819e-02 7.649655145696e-04 
5.840000000000e+01 4.734094053759e-02 5.238039758328e-04 
6.570000000000e+01 3.235552655560e-02 3.586705542564e-04 
7.300000000000e+01 2.211363117840e-02 2.455967736512e-04 
8.030000000000e+01 1.511372973807e-02 1.681704129655e-04 
8.760000000000e+01 1.032959375836e-02 1.151533360007e-04 
9.490000000000e+01 7.059839567182e-03 7.885031949577e-05 
1.022000000000e+02 4.825101149205e-03 5.399212129241e-05 
1.095000000000e+02 3.297752148402e-03 3.697067025594e-05 
1.168000000000e+02 2.253873835183e-03 2.531536873264e-05 
1.241000000000e+02 1.540427247479e-03 1.733449487449e-05 
1.314000000000e+02 1.052816740590e-03 1.186965577068e-05 
1.387000000000e+02 7.195556239081e-04 8.127651201792e-06 
1.460000000000e+02 4.917857743834e-04 5.565343709527e-06 
1.533000000000e+02 3.361147347634e-04 3.810824284921e-06 
1.606000000000e+02 2.297201783372e-04 2.609431258348e-06 
1.679000000000e+02 1.570040075104e-04 1.786787052796e-06 
1.752000000000e+02 1.073055860951e-04 1.223488053892e-06 
1.825000000000e+02 7.333882102590e-05 8.377735979598e-07 
1.898000000000e+02 5.012397644136e-05 5.736587285869e-07 
1.971000000000e+02 3.425761389588e-05 3.928081974463e-07 
2.044000000000e+02 2.341362743257e-05 2.689722517790e-07 
2.117000000000e+02 1.600222219834e-05 1.841765846457e-07 
2.190000000000e+02 1.093684077888e-05 1.261134340348e-07 
2.263000000000e+02 7.474867223877e-06 8.635515895911e-08 
2.336000000000e+02 5.108755000428e-06 5.913100009042e-08 
2.409000000000e+02 3.491617558929e-06 4.048947640402e-08 
2.482000000000e+02 2.386372645200e-06 2.772484310776e-08 
2.555000000000e+02 1.630984578719e-06 1.898436316022e-08 
2.628000000000e+02 1.114708850035e-06 1.299938992240e-08 
2.701000000000e+02 7.618562565520e-07 8.901227549063e-09 
2.774000000000e+02 5.206964806504e-07 6.095044075074e-09 
2.847000000000e+02 3.558739548587e-07 4.173532083604e-09 
2.920000000000e+02 2.432248168395e-07 2.857793071520e-09 
2.993000000000e+02 1.662337607793e-07 1.956849704537e-09 
3.066000000000e+02 1.136139156029e-07 1.339939222821e-09 
3.139000000000e+02 7.764889397996e-08 9.174963467956e-10 
3.212000000000e+02 5.306875433552e-08 6.282369315886e-10 
3.285000000000e+02 3.626957890010e-08 4.301724400197e-10 
3.358000000000e+02 2.478826514877e-08 2.945518145258e-10 
3.431000000000e+02 1.694141778641e-08 2.016883541777e-10 
3.504000000000e+02 1.157852858562e-08 1.381019915844e-10 
3.577000000000e+02 7.913288362155e-09 9.456252522495e-11 
3.650000000000e+02 5.408297974929e-09 6.474976265210e-11 
3.723000000000e+02 3.696274626531e-09 4.433608084711e-11 
3.796000000000e+02 2.526200697163e-09 3.035822811339e-11 
3.869000000000e+02 1.726519430271e-09 2.078717822082e-11 
3.942000000000e+02 1.179981205150e-09 1.423359679518e-11 
4.015000000000e+02 8.064523457373e-10 9.746165428268e-12 
4.088000000000e+02 5.511658856135e-10 6.673488220995e-12 
4.161000000000e+02 3.766916111894e-10 4.569535102128e-12 
4.234000000000e+02 2.574480272523e-10 3.128896067251e-12 
4.307000000000e+02 1.759515868340e-10 2.142447837868e-12 
4.380000000000e+02 1.202532458291e-10 1.466997509449e-12 
4.453000000000e+02 8.218648886650e-11 1.004496657834e-12 
4.526000000000e+02 5.616995121923e-11 6.878086220977e-13 
4.599000000000e+02 3.838907664118e-11 4.709629414311e-13 
4.672000000000e+02 2.623682544438e-11 3.224822793357e-13 
4.745000000000e+02 1.793142918835e-11 2.208131709246e-13 
4.818000000000e+02 1.225514700392e-11 1.511973202194e-13 
4.891000000000e+02 8.375719888757e-12 1.035292847145e-13 
4.964000000000e+02 5.724344524997e-12 7.088956853176e-14 
5.037000000000e+02 3.912275085125e-12 4.854018783631e-14 
5.110000000000e+02 2.673825147109e-12 3.323690472341e-14 
5.183000000000e+02 1.827412633760e-12 2.275829338218e-14 
5.256000000000e+02 1.248936168332e-12 1.558327774369e-14 
5.329000000000e+02 8.535792758282e-13 1.067033196174e-14 
5.402000000000e+02 5.833745539554e-13 7.306292424446e-15 
5.475000000000e+02 3.987044669926e-13 5.002834892339e-15 
5.548000000000e+02 2.724926051683e-13 3.425589263812e-15 
5.621000000000e+02 1.862337295459e-13 2.345602471722e-15 
5.694000000000e+02 1.272805256271e-13 1.606103486307e-15 
5.767000000000e+02 8.698924864653e-14 1.099746672507e-15 
5.840000000000e+02 5.945237367403e-14 7.530290804785e-16 
5.913000000000e+02 4.063243202939e-14 5.156213915120e-16 
5.986000000000e+02 2.777003531596e-14 3.530611366897e-16 
6.059000000000e+02 1.897929340403e-14 2.417515546410e-16 
6.132000000000e+02 1.297130332005e-14 1.655342494196e-16 
6.205000000000e+02 8.865171084985e-15 1.133463960585e-16 
6.278000000000e+02 6.058852932299e-15 7.761134488417e-17 
6.351000000000e+02 4.140885303277e-15 5.314283667542e-17 
6.424000000000e+02 2.830054257177e-15 3.638837417956e-17 
6.497000000000e+02 1.934164906854e-15 2.491536495665e-17 
6.570000000000e+02 1.321862424083e-15 1.706115249234e-17 
6.643000000000e+02 9.033721898179e-16 1.167994675876e-17 
6.716000000000e+02 6.173336946266e-16 7.997139732170e-18 
6.789000000000e+02 4.218325483821e-16 5.483293247494e-18 
6.862000000000e+02 2.881500658217e-16 3.718610819888e-18 
6.935000000000e+02 1.968624397917e-16 2.648524418156e-18 
7.008000000000e+02 1.342025758033e-16 1.555356064170e-18 
7.081000000000e+02 9.186754958546e-17 1.631428951938e-18 
7.154000000000e+02 6.188089424276e-17 -6.121360397148e-20 
7.227000000000e+02 4.335429355191e-17 2.150585197717e-18 
7.300000000000e+02 2.699876306488e-17 -3.691333648219e-18 
7.373000000000e+02 2.256489529551e-17 2.394733703446e-18 
7.446000000000e+02 7.309450882660e-18 -1.713576888607e-17 
7.519000000000e+02 1.899036696430e-17 -8.760250535315e-18 
7.592000000000e+02 -1.733690232957e-17 -8.548379305715e-17 
7.665000000000e+02 2.369682427375e-17 -1.004156318602e-16 
7.738000000000e+02 -7.463050641618e-17 -3.216373548900e-16 
7.811000000000e+02 -2.642867405138e-17 -4.319192164106e-16 
7.884000000000e+02 -1.951949732759e-16 -7.681724301918e-16 
7.957000000000e+02 -3.901759852235e-16 -1.089876755468e-15 
8.030000000000e+02 -5.037741985033e-16 -1.247091631737e-15 
8.103000000000e+02 -1.078347931236e-15 -1.778992537698e-15 
8.176000000000e+02 -1.349246584342e-15 -1.902048562425e-15 
8.249000000000e+02 -8.743302052320e-16 -1.208230159616e-15 
8.322000000000e+02 -3.793369802564e-15 -4.013484651768e-15 
8.395000000000e+02 2.469665006098e-15 2.505419136756e-15 
8.468000000000e+02 -8.951335315963e-15 -9.093298777275e-15 
8.541000000000e+02 1.286274839262e-14 1.330265446984e-14 
8.614000000000e+02 -3.796670233165e-15 -3.642857923060e-15 
8.687000000000e+02 7.157858998943e-14 7.397872622183e-14 
8.760000000000e+02 1.999583648603e-13 2.058874618426e-13 
