 TITLE = "Time curves in points"
 VARIABLES = "TIME "  "PRESSURE1"  "TEMPERATURE1"  "CARBON1"  "WATER1"  "DENSITY1"  "VISCOSITY1"  "SPESIFIC_HEAT_CAPACITY1"  "HEAT_CONDUCTIVITY1" 
 ZONE T="POINT=POINT2"
0.000000000000e+00 6.200000000000e+06 3.181500000000e+02 0.000000000000e+00 1.000000000000e+00 9.928977663537e+02 5.968336458950e-04 1.000000000000e+03 6.000000000000e-01 
3.600000000000e+04 6.200074422315e+06 3.181500000000e+02 2.366490134254e-52 1.000000000000e+00 9.928977981430e+02 5.968336587854e-04 1.000000000000e+03 6.000000000000e-01 
7.200000000000e+04 6.202084570334e+06 3.181500000000e+02 1.669431965616e-50 1.000000000000e+00 9.928986567725e+02 5.968340069575e-04 1.000000000000e+03 6.000000000000e-01 
1.080000000000e+05 6.207836782255e+06 3.181500000000e+02 6.637676334548e-42 1.000000000000e+00 9.929011138107e+02 5.968350033083e-04 1.000000000000e+03 6.000000000000e-01 
1.440000000000e+05 6.215813488399e+06 3.181500000000e+02 1.012861422581e-35 1.000000000000e+00 9.929045210247e+02 5.968363850324e-04 1.000000000000e+03 6.000000000000e-01 
1.800000000000e+05 6.223569048654e+06 3.181500000000e+02 4.228929940095e-33 1.000000000000e+00 9.929078337665e+02 5.968377285217e-04 1.000000000000e+03 6.000000000000e-01 
2.160000000000e+05 6.234465592498e+06 3.181500000000e+02 2.091097940307e-31 1.000000000000e+00 9.929124881431e+02 5.968396162413e-04 1.000000000000e+03 6.000000000000e-01 
2.520000000000e+05 6.253667943216e+06 3.181500000000e+02 8.888488282180e-29 1.000000000000e+00 9.929206902320e+02 5.968429432022e-04 1.000000000000e+03 6.000000000000e-01 
2.880000000000e+05 6.283191746732e+06 3.181500000000e+02 1.799688826374e-23 1.000000000000e+00 9.929333008983e+02 5.968480592882e-04 1.000000000000e+03 6.000000000000e-01 
3.240000000000e+05 6.323193041075e+06 3.181500000000e+02 4.608611470536e-19 1.000000000000e+00 9.929503866301e+02 5.968549926301e-04 1.000000000000e+03 6.000000000000e-01 
3.600000000000e+05 6.373132855732e+06 3.181500000000e+02 1.550039935736e-15 1.000000000000e+00 9.929717170035e+02 5.968636512527e-04 1.000000000000e+03 6.000000000000e-01 
3.960000000000e+05 6.429127638312e+06 3.181500000000e+02 1.055808330993e-12 9.999999999998e-01 9.929956330595e+02 5.968733631832e-04 1.000000000000e+03 6.000000000000e-01 
4.320000000000e+05 6.488502807328e+06 3.181500000000e+02 1.350455878037e-10 9.999999999619e-01 9.930209915805e+02 5.968836629554e-04 1.000000000000e+03 6.000000000000e-01 
4.680000000000e+05 6.549328298618e+06 3.181500000000e+02 6.098115971458e-09 9.999999975786e-01 9.930469376526e+02 5.968941090193e-04 1.000000000000e+03 6.000000000000e-01 
5.040000000000e+05 6.607317566876e+06 3.181500000000e+02 1.328360668759e-07 9.999999335548e-01 9.930710482684e+02 5.969018115993e-04 1.000000000000e+03 6.000000000000e-01 
5.400000000000e+05 6.658247319089e+06 3.181500000000e+02 1.536897304169e-06 9.999991054984e-01 9.930857636180e+02 5.968846023405e-04 1.000000000000e+03 6.000000000000e-01 
5.760000000000e+05 6.686662770446e+06 3.181500000000e+02 1.061472990180e-05 9.999931635151e-01 9.930533726590e+02 5.967218276717e-04 1.000000000000e+03 6.000000000000e-01 
6.120000000000e+05 6.705930750830e+06 3.181500000000e+02 4.175412536363e-05 9.999716337380e-01 9.929109763482e+02 5.961521687134e-04 1.000000000000e+03 6.000000000000e-01 
6.480000000000e+05 6.726930219447e+06 3.181500000000e+02 1.225309162049e-04 9.999134160046e-01 9.925347049052e+02 5.946787245405e-04 1.000000000000e+03 6.000000000000e-01 
6.840000000000e+05 6.759078310826e+06 3.181500000000e+02 3.124546232509e-04 9.997707618022e-01 9.916608797648e+02 5.912542828825e-04 1.000000000000e+03 6.000000000000e-01 
7.200000000000e+05 6.806463862842e+06 3.181500000000e+02 7.685342142043e-04 9.994112596983e-01 9.896106257999e+02 5.832311301396e-04 1.000000000000e+03 6.000000000000e-01 
7.560000000000e+05 6.856332790199e+06 3.181500000000e+02 1.932217567086e-03 9.984412032200e-01 9.845194073073e+02 5.638070130817e-04 1.000000000000e+03 6.000000000000e-01 
7.920000000000e+05 6.902387151434e+06 3.181500000000e+02 4.702523735248e-03 9.960070395206e-01 9.728617688751e+02 5.225793641926e-04 1.000000000000e+03 6.000000000000e-01 
8.280000000000e+05 6.972090887265e+06 3.181500000000e+02 1.059123580117e-02 9.905961574570e-01 9.498635344397e+02 4.528344685194e-04 1.000000000000e+03 6.000000000000e-01 
8.640000000000e+05 7.032756996931e+06 3.181500000000e+02 2.476243103620e-02 9.769774071591e-01 8.999606596385e+02 3.432336830896e-04 1.000000000000e+03 6.000000000000e-01 
9.000000000000e+05 7.102899550160e+06 3.181500000000e+02 5.377448782554e-02 9.481740716758e-01 8.153413598922e+02 2.301719135333e-04 1.000000000000e+03 6.000000000000e-01 
9.360000000000e+05 7.155299965744e+06 3.181500000000e+02 1.140606593528e-01 8.869709857512e-01 6.841328653390e+02 1.368909751747e-04 1.000000000000e+03 6.000000000000e-01 
9.720000000000e+05 7.184288958356e+06 3.181500000000e+02 2.125060837397e-01 7.860721749861e-01 5.426307640479e+02 8.243728325004e-05 1.000000000000e+03 6.000000000000e-01 
1.008000000000e+06 7.151443235258e+06 3.181500000000e+02 3.359532656211e-01 6.594086818737e-01 4.272083119416e+02 5.479219465871e-05 1.000000000000e+03 6.000000000000e-01 
1.044000000000e+06 7.087928437027e+06 3.181500000000e+02 4.136959732185e-01 5.795318458320e-01 3.726493932075e+02 4.503841088195e-05 1.000000000000e+03 6.000000000000e-01 
1.080000000000e+06 7.021234724882e+06 3.181500000000e+02 4.555240603543e-01 5.363864002193e-01 3.456040360097e+02 4.096436152867e-05 1.000000000000e+03 6.000000000000e-01 
1.116000000000e+06 6.962550275984e+06 3.181500000000e+02 4.858303087348e-01 5.050082678548e-01 3.270574469393e+02 3.839394214438e-05 1.000000000000e+03 6.000000000000e-01 
1.152000000000e+06 6.912842186888e+06 3.181500000000e+02 5.113355974845e-01 4.785160457515e-01 3.125009213621e+02 3.645455049132e-05 1.000000000000e+03 6.000000000000e-01 
1.188000000000e+06 6.870136435346e+06 3.181500000000e+02 5.326179961712e-01 4.563183072073e-01 3.009629513863e+02 3.496895601885e-05 1.000000000000e+03 6.000000000000e-01 
1.224000000000e+06 6.832736802428e+06 3.181500000000e+02 5.502101597119e-01 4.378732889261e-01 2.917337377360e+02 3.381902265832e-05 1.000000000000e+03 6.000000000000e-01 
1.260000000000e+06 6.799589180197e+06 3.181500000000e+02 5.648974179842e-01 4.223813380399e-01 2.842018004017e+02 3.290732520847e-05 1.000000000000e+03 6.000000000000e-01 
1.296000000000e+06 6.769980790428e+06 3.181500000000e+02 5.773204764695e-01 4.091903575613e-01 2.779373263202e+02 3.216770592362e-05 1.000000000000e+03 6.000000000000e-01 
1.332000000000e+06 6.743358813508e+06 3.181500000000e+02 5.879267581320e-01 3.978454829424e-01 2.726520083158e+02 3.155739209381e-05 1.000000000000e+03 6.000000000000e-01 
1.368000000000e+06 6.719275513938e+06 3.181500000000e+02 5.970404068372e-01 3.880175617294e-01 2.681433002117e+02 3.104734499653e-05 1.000000000000e+03 6.000000000000e-01 
1.404000000000e+06 6.697368141048e+06 3.181500000000e+02 6.049109484850e-01 3.794534363845e-01 2.642617794881e+02 3.061672593481e-05 1.000000000000e+03 6.000000000000e-01 
1.440000000000e+06 6.732696474639e+06 3.181500000000e+02 6.117545544579e-01 3.719404008677e-01 2.643069126838e+02 3.036956198847e-05 1.000000000000e+03 6.000000000000e-01 
1.476000000000e+06 6.813085166962e+06 3.181500000000e+02 6.935354722652e-01 2.890935210995e-01 2.453715933926e+02 2.711025829326e-05 1.000000000000e+03 6.000000000000e-01 
1.512000000000e+06 6.899028324323e+06 3.181500000000e+02 7.921894026931e-01 1.916418930480e-01 2.262735593477e+02 2.402518577929e-05 1.000000000000e+03 6.000000000000e-01 
1.548000000000e+06 6.978518790252e+06 3.181500000000e+02 8.682030063724e-01 1.184670679766e-01 2.147963628218e+02 2.213727950573e-05 1.000000000000e+03 6.000000000000e-01 
1.584000000000e+06 7.041761405335e+06 3.181500000000e+02 9.234551902785e-01 6.683926597239e-02 2.077906808100e+02 2.096628524395e-05 1.000000000000e+03 6.000000000000e-01 
1.620000000000e+06 7.093344769204e+06 3.181500000000e+02 9.569132558926e-01 3.649189793394e-02 2.046105242920e+02 2.034564067286e-05 1.000000000000e+03 6.000000000000e-01 
1.656000000000e+06 7.139267650193e+06 3.181500000000e+02 9.771032478872e-01 1.876635764223e-02 2.035859473883e+02 2.001818967377e-05 1.000000000000e+03 6.000000000000e-01 
1.692000000000e+06 7.176773884458e+06 3.181500000000e+02 9.886783069887e-01 8.957984553486e-03 2.036268554529e+02 1.985706986782e-05 1.000000000000e+03 6.000000000000e-01 
1.728000000000e+06 7.206021273810e+06 3.181500000000e+02 9.945583743970e-01 4.150236442039e-03 2.042057843650e+02 1.979551744346e-05 1.000000000000e+03 6.000000000000e-01 
1.764000000000e+06 7.223823374845e+06 3.181500000000e+02 9.974461980812e-01 1.874710588877e-03 2.046786802602e+02 1.977209937951e-05 1.000000000000e+03 6.000000000000e-01 
1.800000000000e+06 7.256098187660e+06 3.181500000000e+02 9.987814312186e-01 8.602052063967e-04 2.062169934157e+02 1.980584202081e-05 1.000000000000e+03 6.000000000000e-01 
1.836000000000e+06 7.277090289879e+06 3.181500000000e+02 9.995206480807e-01 3.242041142209e-04 2.072478688349e+02 1.983082002528e-05 1.000000000000e+03 6.000000000000e-01 
1.872000000000e+06 7.300473142369e+06 3.181500000000e+02 9.998009458536e-01 1.289227417675e-04 2.085003331842e+02 1.986968661836e-05 1.000000000000e+03 6.000000000000e-01 
1.908000000000e+06 7.321827438352e+06 3.181500000000e+02 9.999238935151e-01 4.711158156220e-05 2.096764661778e+02 1.990827499488e-05 1.000000000000e+03 6.000000000000e-01 
1.944000000000e+06 7.309547795831e+06 3.181500000000e+02 9.999720745915e-01 1.649644842960e-05 2.089776584721e+02 1.988371131955e-05 1.000000000000e+03 6.000000000000e-01 
1.980000000000e+06 7.336584123956e+06 3.181500000000e+02 9.999861922659e-01 7.788506665258e-06 2.104982692871e+02 1.993567530527e-05 1.000000000000e+03 6.000000000000e-01 
2.016000000000e+06 7.361374139634e+06 3.181500000000e+02 9.999956495619e-01 2.334002260474e-06 2.119057332263e+02 1.998411968904e-05 1.000000000000e+03 6.000000000000e-01 
2.052000000000e+06 7.387358301976e+06 3.181500000000e+02 9.999986543502e-01 6.858911455596e-07 2.133954327008e+02 2.003579966308e-05 1.000000000000e+03 6.000000000000e-01 
2.088000000000e+06 7.410246607746e+06 3.181500000000e+02 9.999995998276e-01 1.935610385967e-07 2.147193203488e+02 2.008201977223e-05 1.000000000000e+03 6.000000000000e-01 
2.124000000000e+06 7.430804265593e+06 3.181500000000e+02 9.999998845987e-01 5.290853139210e-08 2.159177278673e+02 2.012408542355e-05 1.000000000000e+03 6.000000000000e-01 
2.160000000000e+06 7.380990673193e+06 3.181500000000e+02 9.999999679422e-01 1.391316788484e-08 2.130287228781e+02 2.002302121476e-05 1.000000000000e+03 6.000000000000e-01 
2.196000000000e+06 7.329509085667e+06 3.181500000000e+02 9.999999775386e-01 9.179539262854e-09 2.100957492946e+02 1.992165598346e-05 1.000000000000e+03 6.000000000000e-01 
2.232000000000e+06 7.277785516279e+06 3.181500000000e+02 9.999999812891e-01 7.190888727984e-09 2.072011004158e+02 1.982283612104e-05 1.000000000000e+03 6.000000000000e-01 
2.268000000000e+06 7.230547898374e+06 3.181500000000e+02 9.999999841866e-01 5.712923138589e-09 2.046015827467e+02 1.973512496127e-05 1.000000000000e+03 6.000000000000e-01 
2.304000000000e+06 7.188585669512e+06 3.181500000000e+02 9.999999862658e-01 4.663884026297e-09 2.023265552835e+02 1.965916463139e-05 1.000000000000e+03 6.000000000000e-01 
2.340000000000e+06 7.150944094794e+06 3.181500000000e+02 9.999999876812e-01 3.933246540859e-09 2.003123716277e+02 1.959253827653e-05 1.000000000000e+03 6.000000000000e-01 
2.376000000000e+06 7.116743487008e+06 3.181500000000e+02 9.999999886464e-01 3.410456346424e-09 1.985035754529e+02 1.953320579408e-05 1.000000000000e+03 6.000000000000e-01 
2.412000000000e+06 7.085429185462e+06 3.181500000000e+02 9.999999893049e-01 3.024879469473e-09 1.968647849530e+02 1.947985828075e-05 1.000000000000e+03 6.000000000000e-01 
2.448000000000e+06 7.056610532758e+06 3.181500000000e+02 9.999999897398e-01 2.734936673111e-09 1.953709620497e+02 1.943156811553e-05 1.000000000000e+03 6.000000000000e-01 
2.484000000000e+06 7.029969332721e+06 3.181500000000e+02 9.999999900021e-01 2.514510339432e-09 1.940020246591e+02 1.938759827922e-05 1.000000000000e+03 6.000000000000e-01 
2.520000000000e+06 7.005238439907e+06 3.181500000000e+02 9.999999901259e-01 2.346017670869e-09 1.927414032595e+02 1.934734704629e-05 1.000000000000e+03 6.000000000000e-01 
2.556000000000e+06 6.982194930408e+06 3.181500000000e+02 9.999999901344e-01 2.217230375159e-09 1.915754558186e+02 1.931032313844e-05 1.000000000000e+03 6.000000000000e-01 
2.592000000000e+06 6.960652205242e+06 3.181500000000e+02 9.999999900438e-01 2.119503937705e-09 1.904928918245e+02 1.927612287198e-05 1.000000000000e+03 6.000000000000e-01 
2.628000000000e+06 6.940452420546e+06 3.181500000000e+02 9.999999898646e-01 2.046630806405e-09 1.894842622518e+02 1.924441070281e-05 1.000000000000e+03 6.000000000000e-01 
2.664000000000e+06 6.921460698099e+06 3.181500000000e+02 9.999999896041e-01 1.994081615866e-09 1.885415753205e+02 1.921490469660e-05 1.000000000000e+03 6.000000000000e-01 
2.700000000000e+06 6.903560861424e+06 3.181500000000e+02 9.999999892666e-01 1.958506163110e-09 1.876580138543e+02 1.918736585796e-05 1.000000000000e+03 6.000000000000e-01 
2.736000000000e+06 6.886652164096e+06 3.181500000000e+02 9.999999888544e-01 1.937400992326e-09 1.868277198614e+02 1.916159003294e-05 1.000000000000e+03 6.000000000000e-01 
2.772000000000e+06 6.870646698682e+06 3.181500000000e+02 9.999999883684e-01 1.928882565264e-09 1.860456257723e+02 1.913740160648e-05 1.000000000000e+03 6.000000000000e-01 
2.808000000000e+06 6.855467321468e+06 3.181500000000e+02 9.999999878081e-01 1.931529066674e-09 1.853073206839e+02 1.911464853837e-05 1.000000000000e+03 6.000000000000e-01 
2.844000000000e+06 6.841045979531e+06 3.181500000000e+02 9.999999871719e-01 1.944268217833e-09 1.846089435292e+02 1.909319842092e-05 1.000000000000e+03 6.000000000000e-01 
2.880000000000e+06 6.827322351146e+06 3.181500000000e+02 9.999999864576e-01 1.966296585646e-09 1.839470970023e+02 1.907293531921e-05 1.000000000000e+03 6.000000000000e-01 
2.916000000000e+06 6.814242731098e+06 3.181500000000e+02 9.999999856619e-01 1.997020783794e-09 1.833187775741e+02 1.905375721521e-05 1.000000000000e+03 6.000000000000e-01 
2.952000000000e+06 6.801759109510e+06 3.181500000000e+02 9.999999847810e-01 2.036014106532e-09 1.827213181225e+02 1.903557392305e-05 1.000000000000e+03 6.000000000000e-01 
2.988000000000e+06 6.789828405103e+06 3.181500000000e+02 9.999999838104e-01 2.082984198214e-09 1.821523405491e+02 1.901830537534e-05 1.000000000000e+03 6.000000000000e-01 
3.024000000000e+06 6.778411822825e+06 3.181500000000e+02 9.999999827451e-01 2.137748722800e-09 1.816097163769e+02 1.900188020483e-05 1.000000000000e+03 6.000000000000e-01 
3.060000000000e+06 6.767474312457e+06 3.181500000000e+02 9.999999815793e-01 2.200216906475e-09 1.810915337770e+02 1.898623456271e-05 1.000000000000e+03 6.000000000000e-01 
3.096000000000e+06 6.756984109613e+06 3.181500000000e+02 9.999999803068e-01 2.270375438301e-09 1.805960698077e+02 1.897131112808e-05 1.000000000000e+03 6.000000000000e-01 
3.132000000000e+06 6.746912344670e+06 3.181500000000e+02 9.999999789209e-01 2.348277649172e-09 1.801217669168e+02 1.895705827299e-05 1.000000000000e+03 6.000000000000e-01 
3.168000000000e+06 6.737232707828e+06 3.181500000000e+02 9.999999774141e-01 2.434035171331e-09 1.796672129458e+02 1.894342935480e-05 1.000000000000e+03 6.000000000000e-01 
3.204000000000e+06 6.727921160912e+06 3.181500000000e+02 9.999999757785e-01 2.527811502161e-09 1.792311240312e+02 1.893038211347e-05 1.000000000000e+03 6.000000000000e-01 
3.240000000000e+06 6.718955688392e+06 3.181500000000e+02 9.999999740055e-01 2.629817043675e-09 1.788123299194e+02 1.891787815585e-05 1.000000000000e+03 6.000000000000e-01 
3.276000000000e+06 6.710316081303e+06 3.181500000000e+02 9.999999720861e-01 2.740305288288e-09 1.784097612957e+02 1.890588251240e-05 1.000000000000e+03 6.000000000000e-01 
3.312000000000e+06 6.701983749075e+06 3.181500000000e+02 9.999999700105e-01 2.859569914105e-09 1.780224388123e+02 1.889436325465e-05 1.000000000000e+03 6.000000000000e-01 
3.348000000000e+06 6.762187563305e+06 3.181500000000e+02 9.999999678079e-01 2.984975053909e-09 1.808416508386e+02 1.897870380648e-05 1.000000000000e+03 6.000000000000e-01 
3.384000000000e+06 6.803798878860e+06 3.181500000000e+02 9.999999889382e-01 9.103880182067e-10 1.828187915805e+02 1.903853689159e-05 1.000000000000e+03 6.000000000000e-01 
3.420000000000e+06 6.865725051739e+06 3.181500000000e+02 9.999999958418e-01 3.047721393505e-10 1.858058784390e+02 1.913000434441e-05 1.000000000000e+03 6.000000000000e-01 
3.456000000000e+06 6.877756211374e+06 3.181500000000e+02 9.999999987150e-01 8.325894202092e-11 1.863925651065e+02 1.914812062760e-05 1.000000000000e+03 6.000000000000e-01 
3.492000000000e+06 6.895470906867e+06 3.181500000000e+02 9.999999993432e-01 3.839522915702e-11 1.872602347481e+02 1.917500455472e-05 1.000000000000e+03 6.000000000000e-01 
3.528000000000e+06 6.913480157016e+06 3.181500000000e+02 9.999999996826e-01 1.666598105384e-11 1.881470551478e+02 1.920259422205e-05 1.000000000000e+03 6.000000000000e-01 
3.564000000000e+06 6.921844840509e+06 3.181500000000e+02 9.999999998624e-01 6.451413625484e-12 1.885605874866e+02 1.921549836946e-05 1.000000000000e+03 6.000000000000e-01 
3.600000000000e+06 6.971004228776e+06 3.181500000000e+02 9.999999999340e-01 2.771158646020e-12 1.910122076815e+02 1.929250779055e-05 1.000000000000e+03 6.000000000000e-01 
3.636000000000e+06 7.013553411943e+06 3.181500000000e+02 9.999999999813e-01 6.912240494640e-13 1.931641639168e+02 1.936081993186e-05 1.000000000000e+03 6.000000000000e-01 
3.672000000000e+06 7.047687309170e+06 3.181500000000e+02 9.999999999949e-01 1.639791124136e-13 1.949111718488e+02 1.941676945744e-05 1.000000000000e+03 6.000000000000e-01 
3.708000000000e+06 7.074606268115e+06 3.181500000000e+02 9.999999999986e-01 4.110539400860e-14 1.963021747295e+02 1.946163302067e-05 1.000000000000e+03 6.000000000000e-01 
3.744000000000e+06 7.095023826829e+06 3.181500000000e+02 9.999999999996e-01 1.077094711361e-14 1.973651637435e+02 1.949610578342e-05 1.000000000000e+03 6.000000000000e-01 
3.780000000000e+06 7.104805121881e+06 3.181500000000e+02 9.999999999999e-01 2.914849508800e-15 1.978768585060e+02 1.951275829650e-05 1.000000000000e+03 6.000000000000e-01 
3.816000000000e+06 7.122712013045e+06 3.181500000000e+02 1.000000000000e+00 8.752626041608e-16 1.988177986204e+02 1.954347890109e-05 1.000000000000e+03 6.000000000000e-01 
3.852000000000e+06 7.135389452998e+06 3.181500000000e+02 1.000000000000e+00 2.337131596646e-16 1.994872375633e+02 1.956541323617e-05 1.000000000000e+03 6.000000000000e-01 
3.888000000000e+06 7.153926673353e+06 3.181500000000e+02 1.000000000000e+00 6.311490894569e-17 2.004710637997e+02 1.959776613597e-05 1.000000000000e+03 6.000000000000e-01 
3.924000000000e+06 7.177196326107e+06 3.181500000000e+02 1.000000000000e+00 1.559542896630e-17 2.017144919293e+02 1.963885621196e-05 1.000000000000e+03 6.000000000000e-01 
3.960000000000e+06 7.198205331192e+06 3.181500000000e+02 1.000000000000e+00 3.472503836421e-18 2.028453023332e+02 1.967641887527e-05 1.000000000000e+03 6.000000000000e-01 
3.996000000000e+06 7.218116960701e+06 3.181500000000e+02 1.000000000000e+00 7.113129556140e-19 2.039243157708e+02 1.971243340334e-05 1.000000000000e+03 6.000000000000e-01 
4.032000000000e+06 7.219353020287e+06 3.181500000000e+02 1.000000000000e+00 7.446183025084e-20 2.039915333989e+02 1.971468251661e-05 1.000000000000e+03 6.000000000000e-01 
4.068000000000e+06 7.231406025498e+06 3.181500000000e+02 1.000000000000e+00 -3.260420353698e-20 2.046484360816e+02 1.973669699500e-05 1.000000000000e+03 6.000000000000e-01 
4.104000000000e+06 7.245300527967e+06 3.181500000000e+02 1.000000000000e+00 -5.821583257520e-20 2.054089939301e+02 1.976226319500e-05 1.000000000000e+03 6.000000000000e-01 
4.140000000000e+06 7.258434754201e+06 3.181500000000e+02 1.000000000000e+00 -5.939435830997e-20 2.061312055117e+02 1.978661784199e-05 1.000000000000e+03 6.000000000000e-01 
4.176000000000e+06 7.272328640154e+06 3.181500000000e+02 1.000000000000e+00 -4.991286322967e-20 2.068986795719e+02 1.981258154843e-05 1.000000000000e+03 6.000000000000e-01 
4.212000000000e+06 7.284162446585e+06 3.181500000000e+02 1.000000000000e+00 -3.744664924751e-20 2.075552139693e+02 1.983485979217e-05 1.000000000000e+03 6.000000000000e-01 
4.248000000000e+06 7.283661674602e+06 3.181500000000e+02 1.000000000000e+00 -2.472087645027e-20 2.075273778227e+02 1.983391395947e-05 1.000000000000e+03 6.000000000000e-01 
4.284000000000e+06 7.278475356110e+06 3.181500000000e+02 1.000000000000e+00 -1.351214865966e-20 2.072393673134e+02 1.982413435294e-05 1.000000000000e+03 6.000000000000e-01 
4.320000000000e+06 7.294805636912e+06 3.181500000000e+02 1.000000000000e+00 -6.654620692745e-21 2.081479559699e+02 1.985502693636e-05 1.000000000000e+03 6.000000000000e-01 
4.356000000000e+06 7.306862934690e+06 3.181500000000e+02 1.000000000000e+00 -3.572461120174e-21 2.088220617546e+02 1.987802414830e-05 1.000000000000e+03 6.000000000000e-01 
4.392000000000e+06 7.310994891855e+06 3.181500000000e+02 1.000000000000e+00 -2.302856495472e-21 2.090537150079e+02 1.988594221311e-05 1.000000000000e+03 6.000000000000e-01 
4.428000000000e+06 7.314441918028e+06 3.181500000000e+02 1.000000000000e+00 -1.886399022781e-21 2.092472201330e+02 1.989256230218e-05 1.000000000000e+03 6.000000000000e-01 
4.464000000000e+06 7.335999904075e+06 3.181500000000e+02 1.000000000000e+00 -1.862267045408e-21 2.104626460052e+02 1.993426769176e-05 1.000000000000e+03 6.000000000000e-01 
4.500000000000e+06 7.349529209102e+06 3.181500000000e+02 1.000000000000e+00 -3.854185999268e-21 2.112300657546e+02 1.996071059270e-05 1.000000000000e+03 6.000000000000e-01 
4.536000000000e+06 7.360472084873e+06 3.181500000000e+02 1.000000000000e+00 -6.257186801294e-21 2.118534251057e+02 1.998225236686e-05 1.000000000000e+03 6.000000000000e-01 
4.572000000000e+06 7.370209839448e+06 3.181500000000e+02 1.000000000000e+00 -8.061008196987e-21 2.124101429299e+02 2.000153872539e-05 1.000000000000e+03 6.000000000000e-01 
4.608000000000e+06 7.364766080732e+06 3.181500000000e+02 1.000000000000e+00 -9.080013287066e-21 2.120986835215e+02 1.999074331738e-05 1.000000000000e+03 6.000000000000e-01 
4.644000000000e+06 7.372482509551e+06 3.181500000000e+02 1.000000000000e+00 -7.061123487399e-21 2.125403475393e+02 2.000605587383e-05 1.000000000000e+03 6.000000000000e-01 
4.680000000000e+06 7.381660045934e+06 3.181500000000e+02 1.000000000000e+00 -6.277814510559e-21 2.130672007700e+02 2.002435888971e-05 1.000000000000e+03 6.000000000000e-01 
4.716000000000e+06 7.372675899438e+06 3.181500000000e+02 1.000000000000e+00 -5.989780099990e-21 2.125514319247e+02 2.000644053437e-05 1.000000000000e+03 6.000000000000e-01 
4.752000000000e+06 7.382508889563e+06 3.181500000000e+02 1.000000000000e+00 -4.153514448785e-21 2.131160161789e+02 2.002605678376e-05 1.000000000000e+03 6.000000000000e-01 
4.788000000000e+06 7.392334283794e+06 3.181500000000e+02 1.000000000000e+00 -3.540241662672e-21 2.136821208266e+02 2.004577219582e-05 1.000000000000e+03 6.000000000000e-01 
4.824000000000e+06 7.392997575772e+06 3.181500000000e+02 1.000000000000e+00 -3.270565672475e-21 2.137204081854e+02 2.004710728365e-05 1.000000000000e+03 6.000000000000e-01 
4.860000000000e+06 7.399125355515e+06 3.181500000000e+02 1.000000000000e+00 -2.607051473330e-21 2.140745486618e+02 2.005946629413e-05 1.000000000000e+03 6.000000000000e-01 
4.896000000000e+06 7.412589948173e+06 3.181500000000e+02 1.000000000000e+00 -2.157133555421e-21 2.148554112149e+02 2.008678147967e-05 1.000000000000e+03 6.000000000000e-01 
4.932000000000e+06 7.402524981598e+06 3.181500000000e+02 1.000000000000e+00 -2.063435312590e-21 2.142713537232e+02 2.006634236745e-05 1.000000000000e+03 6.000000000000e-01 
4.968000000000e+06 7.403366434940e+06 3.181500000000e+02 1.000000000000e+00 -1.399712711918e-21 2.143201022733e+02 2.006804643526e-05 1.000000000000e+03 6.000000000000e-01 
5.004000000000e+06 7.409888254845e+06 3.181500000000e+02 1.000000000000e+00 -9.879477731493e-22 2.146984300925e+02 2.008128306565e-05 1.000000000000e+03 6.000000000000e-01 
5.040000000000e+06 7.412441209404e+06 3.181500000000e+02 1.000000000000e+00 -7.809097940371e-22 2.148467648646e+02 2.008647854011e-05 1.000000000000e+03 6.000000000000e-01 
5.076000000000e+06 7.414722434271e+06 3.181500000000e+02 1.000000000000e+00 -6.082455928412e-22 2.149794253657e+02 2.009112771713e-05 1.000000000000e+03 6.000000000000e-01 
5.112000000000e+06 7.418882534329e+06 3.181500000000e+02 1.000000000000e+00 -4.691254324121e-22 2.152216262622e+02 2.009962238544e-05 1.000000000000e+03 6.000000000000e-01 
5.148000000000e+06 7.421097163447e+06 3.181500000000e+02 1.000000000000e+00 -3.730005070029e-22 2.153507085649e+02 2.010415313601e-05 1.000000000000e+03 6.000000000000e-01 
5.184000000000e+06 7.425117956892e+06 3.181500000000e+02 1.000000000000e+00 -2.922890018672e-22 2.155853264128e+02 2.011239433179e-05 1.000000000000e+03 6.000000000000e-01 
5.220000000000e+06 7.427013969481e+06 3.181500000000e+02 1.000000000000e+00 -2.360002077791e-22 2.156960779498e+02 2.011628736442e-05 1.000000000000e+03 6.000000000000e-01 
5.256000000000e+06 7.429327260961e+06 3.181500000000e+02 1.000000000000e+00 -1.871001721595e-22 2.158313057463e+02 2.012104317193e-05 1.000000000000e+03 6.000000000000e-01 
5.292000000000e+06 7.430113253503e+06 3.181500000000e+02 1.000000000000e+00 -1.490137911117e-22 2.158772779143e+02 2.012266056392e-05 1.000000000000e+03 6.000000000000e-01 
5.328000000000e+06 7.425127977141e+06 3.181500000000e+02 1.000000000000e+00 -1.162675284296e-22 2.155859115269e+02 2.011241489449e-05 1.000000000000e+03 6.000000000000e-01 
5.364000000000e+06 7.381195147561e+06 3.181500000000e+02 1.000000000000e+00 -8.137720895263e-23 2.130404715179e+02 2.002342934095e-05 1.000000000000e+03 6.000000000000e-01 
5.400000000000e+06 7.351830287386e+06 3.181500000000e+02 1.000000000000e+00 -3.308492083285e-23 2.113609489165e+02 1.996522892927e-05 1.000000000000e+03 6.000000000000e-01 
5.436000000000e+06 7.326450525759e+06 3.181500000000e+02 1.000000000000e+00 -1.247225171505e-23 2.099231416613e+02 1.991572907618e-05 1.000000000000e+03 6.000000000000e-01 
5.472000000000e+06 7.302822791443e+06 3.181500000000e+02 1.000000000000e+00 -4.634233683630e-24 2.085958731997e+02 1.987030036387e-05 1.000000000000e+03 6.000000000000e-01 
5.508000000000e+06 7.280749728639e+06 3.181500000000e+02 1.000000000000e+00 -1.711005991555e-24 2.073656069520e+02 1.982841943431e-05 1.000000000000e+03 6.000000000000e-01 
5.544000000000e+06 7.260053854395e+06 3.181500000000e+02 1.000000000000e+00 -6.281862580109e-25 2.062204564065e+02 1.978963282772e-05 1.000000000000e+03 6.000000000000e-01 
5.580000000000e+06 7.240536684979e+06 3.181500000000e+02 1.000000000000e+00 -2.294144565534e-25 2.051478314867e+02 1.975347476944e-05 1.000000000000e+03 6.000000000000e-01 
5.616000000000e+06 7.222050941433e+06 3.181500000000e+02 1.000000000000e+00 -8.336724090108e-26 2.041383439968e+02 1.971959709669e-05 1.000000000000e+03 6.000000000000e-01 
5.652000000000e+06 7.204488948847e+06 3.181500000000e+02 1.000000000000e+00 -3.015218900915e-26 2.031850436189e+02 1.968774035006e-05 1.000000000000e+03 6.000000000000e-01 
5.688000000000e+06 7.187762719282e+06 3.181500000000e+02 1.000000000000e+00 -1.085583079678e-26 2.022822506477e+02 1.965769260534e-05 1.000000000000e+03 6.000000000000e-01 
5.724000000000e+06 7.171796668119e+06 3.181500000000e+02 1.000000000000e+00 -3.891207025034e-27 2.014251142557e+02 1.962927353392e-05 1.000000000000e+03 6.000000000000e-01 
5.760000000000e+06 7.156525564695e+06 3.181500000000e+02 1.000000000000e+00 -1.388779227591e-27 2.006094690433e+02 1.960232878994e-05 1.000000000000e+03 6.000000000000e-01 
5.796000000000e+06 7.141892937645e+06 3.181500000000e+02 1.000000000000e+00 -4.935884852670e-28 1.998317236443e+02 1.957672565929e-05 1.000000000000e+03 6.000000000000e-01 
5.832000000000e+06 7.127849481092e+06 3.181500000000e+02 1.000000000000e+00 -1.747296428435e-28 1.990887553045e+02 1.955234905966e-05 1.000000000000e+03 6.000000000000e-01 
5.868000000000e+06 7.114351763121e+06 3.181500000000e+02 1.000000000000e+00 -6.163570327881e-29 1.983778252963e+02 1.952909834936e-05 1.000000000000e+03 6.000000000000e-01 
5.904000000000e+06 7.101361252269e+06 3.181500000000e+02 1.000000000000e+00 -2.169126144820e-29 1.976965147484e+02 1.950688489864e-05 1.000000000000e+03 6.000000000000e-01 
5.940000000000e+06 7.088843561855e+06 3.181500000000e+02 1.000000000000e+00 -7.642133683041e-30 1.970426746279e+02 1.948563019296e-05 1.000000000000e+03 6.000000000000e-01 
5.976000000000e+06 7.076767842126e+06 3.181500000000e+02 1.000000000000e+00 -2.722036725122e-30 1.964143855271e+02 1.946526430912e-05 1.000000000000e+03 6.000000000000e-01 
6.012000000000e+06 7.065106283907e+06 3.181500000000e+02 1.000000000000e+00 -1.007069139323e-30 1.958099248766e+02 1.944572467420e-05 1.000000000000e+03 6.000000000000e-01 
6.048000000000e+06 7.053833710407e+06 3.181500000000e+02 1.000000000000e+00 -4.128728773555e-31 1.952277400116e+02 1.942695504711e-05 1.000000000000e+03 6.000000000000e-01 
6.084000000000e+06 7.042927238620e+06 3.181500000000e+02 1.000000000000e+00 -2.090714077243e-31 1.946664258586e+02 1.940890467560e-05 1.000000000000e+03 6.000000000000e-01 
6.120000000000e+06 7.032365996094e+06 3.181500000000e+02 1.000000000000e+00 -1.407749691157e-31 1.941247062957e+02 1.939152759299e-05 1.000000000000e+03 6.000000000000e-01 
6.156000000000e+06 7.022130881970e+06 3.181500000000e+02 1.000000000000e+00 -1.193833017807e-31 1.936014184548e+02 1.937478202650e-05 1.000000000000e+03 6.000000000000e-01 