 TITLE = "Time curves in points"
 VARIABLES = "TIME "  "PRESSURE1"  "TEMPERATURE1"  "CARBON1"  "WATER1"  "DENSITY1"  "VISCOSITY1"  "SPESIFIC_HEAT_CAPACITY1"  "HEAT_CONDUCTIVITY1" 
 ZONE T="POINT=POINT2"
0.000000000000e+00 6.200000000000e+06 3.181500000000e+02 0.000000000000e+00 1.000000000000e+00 9.928977951554e+02 5.968336575739e-04 1.000000000000e+03 6.000000000000e-01 
3.600000000000e+04 6.200074425026e+06 3.181500000000e+02 2.366468220931e-52 1.000000000000e+00 9.928978269461e+02 5.968336704649e-04 1.000000000000e+03 6.000000000000e-01 
7.200000000000e+04 6.202084637651e+06 3.181500000000e+02 1.669420277110e-50 1.000000000000e+00 9.928986856105e+02 5.968340186513e-04 1.000000000000e+03 6.000000000000e-01 
1.080000000000e+05 6.207837014767e+06 3.181500000000e+02 6.638172155525e-42 1.000000000000e+00 9.929011427405e+02 5.968350150398e-04 1.000000000000e+03 6.000000000000e-01 
1.440000000000e+05 6.215813917538e+06 3.181500000000e+02 1.013006341055e-35 1.000000000000e+00 9.929045500679e+02 5.968363968106e-04 1.000000000000e+03 6.000000000000e-01 
1.800000000000e+05 6.223569644294e+06 3.181500000000e+02 4.229612591913e-33 1.000000000000e+00 9.929078629094e+02 5.968377403410e-04 1.000000000000e+03 6.000000000000e-01 
2.160000000000e+05 6.234466460346e+06 3.181500000000e+02 2.091443355848e-31 1.000000000000e+00 9.929125174424e+02 5.968396281249e-04 1.000000000000e+03 6.000000000000e-01 
2.520000000000e+05 6.253669342689e+06 3.181500000000e+02 8.890517234437e-29 1.000000000000e+00 9.929207198290e+02 5.968429552083e-04 1.000000000000e+03 6.000000000000e-01 
2.880000000000e+05 6.283193963413e+06 3.181500000000e+02 1.800219968343e-23 1.000000000000e+00 9.929333309532e+02 5.968480714826e-04 1.000000000000e+03 6.000000000000e-01 
3.240000000000e+05 6.323196359110e+06 3.181500000000e+02 4.610093688282e-19 1.000000000000e+00 9.929504173026e+02 5.968550050788e-04 1.000000000000e+03 6.000000000000e-01 
3.600000000000e+05 6.373137560612e+06 3.181500000000e+02 1.550553208534e-15 1.000000000000e+00 9.929717484523e+02 5.968636640210e-04 1.000000000000e+03 6.000000000000e-01 
3.960000000000e+05 6.429133895788e+06 3.181500000000e+02 1.056155717850e-12 9.999999999998e-01 9.929956653776e+02 5.968733763097e-04 1.000000000000e+03 6.000000000000e-01 
4.320000000000e+05 6.488510733154e+06 3.181500000000e+02 1.350886919887e-10 9.999999999619e-01 9.930210248294e+02 5.968836764651e-04 1.000000000000e+03 6.000000000000e-01 
4.680000000000e+05 6.549337962866e+06 3.181500000000e+02 6.099989303888e-09 9.999999975777e-01 9.930469718577e+02 5.968941228929e-04 1.000000000000e+03 6.000000000000e-01 
5.040000000000e+05 6.607328876952e+06 3.181500000000e+02 1.328750825424e-07 9.999999335332e-01 9.930710831882e+02 5.969018251485e-04 1.000000000000e+03 6.000000000000e-01 
5.400000000000e+05 6.658260026118e+06 3.181500000000e+02 1.537326542953e-06 9.999991052241e-01 9.930857972648e+02 5.968846088696e-04 1.000000000000e+03 6.000000000000e-01 
5.760000000000e+05 6.686676017544e+06 3.181500000000e+02 1.061754057829e-05 9.999931615388e-01 9.930533943044e+02 5.967217896847e-04 1.000000000000e+03 6.000000000000e-01 
6.120000000000e+05 6.705944243570e+06 3.181500000000e+02 4.176462374801e-05 9.999716259632e-01 9.929109587400e+02 5.961519872278e-04 1.000000000000e+03 6.000000000000e-01 
6.480000000000e+05 6.726944095738e+06 3.181500000000e+02 1.225601880973e-04 9.999133934635e-01 9.925345922694e+02 5.946781955620e-04 1.000000000000e+03 6.000000000000e-01 
6.840000000000e+05 6.759093058488e+06 3.181500000000e+02 3.125255055465e-04 9.997707051539e-01 9.916605602179e+02 5.912529988465e-04 1.000000000000e+03 6.000000000000e-01 
7.200000000000e+05 6.806480049677e+06 3.181500000000e+02 7.686993880899e-04 9.994111221042e-01 9.896098501527e+02 5.832282095784e-04 1.000000000000e+03 6.000000000000e-01 
7.560000000000e+05 6.856350323091e+06 3.181500000000e+02 1.932609001964e-03 9.984408612509e-01 9.845175732426e+02 5.638005495023e-04 1.000000000000e+03 6.000000000000e-01 
7.920000000000e+05 6.902405570147e+06 3.181500000000e+02 4.703415584077e-03 9.960062241143e-01 9.728577095007e+02 5.225667338220e-04 1.000000000000e+03 6.000000000000e-01 
8.280000000000e+05 6.972110671155e+06 3.181500000000e+02 1.059310410842e-02 9.905943823844e-01 9.498555657655e+02 4.528146721197e-04 1.000000000000e+03 6.000000000000e-01 
8.640000000000e+05 7.032776986025e+06 3.181500000000e+02 2.476648113364e-02 9.769734166698e-01 8.999453691048e+02 3.432090876610e-04 1.000000000000e+03 6.000000000000e-01 
9.000000000000e+05 7.102919744965e+06 3.181500000000e+02 5.378250193430e-02 9.481659736150e-01 8.153168442295e+02 2.301500671263e-04 1.000000000000e+03 6.000000000000e-01 
9.360000000000e+05 7.155319839097e+06 3.181500000000e+02 1.140759093038e-01 8.869553533878e-01 6.841000750029e+02 1.368762547984e-04 1.000000000000e+03 6.000000000000e-01 
9.720000000000e+05 7.184308502683e+06 3.181500000000e+02 2.125303242911e-01 7.860472559484e-01 5.425974152685e+02 8.242874529187e-05 1.000000000000e+03 6.000000000000e-01 
1.008000000000e+06 7.151461541159e+06 3.181500000000e+02 3.359845684990e-01 6.593766331708e-01 4.271803023493e+02 5.478725480185e-05 1.000000000000e+03 6.000000000000e-01 
1.044000000000e+06 7.087945221783e+06 3.181500000000e+02 4.137273116886e-01 5.794998596825e-01 3.726266680805e+02 4.503500964293e-05 1.000000000000e+03 6.000000000000e-01 
1.080000000000e+06 7.021249922965e+06 3.181500000000e+02 4.555542603800e-01 5.363556256231e-01 3.455841983576e+02 4.096161254843e-05 1.000000000000e+03 6.000000000000e-01 
1.116000000000e+06 6.962564056873e+06 3.181500000000e+02 4.858599904606e-01 5.049780545288e-01 3.270392980286e+02 3.839154588701e-05 1.000000000000e+03 6.000000000000e-01 
1.152000000000e+06 6.912854809932e+06 3.181500000000e+02 5.113649733599e-01 4.784861726178e-01 3.124839996262e+02 3.645239631268e-05 1.000000000000e+03 6.000000000000e-01 
1.188000000000e+06 6.870148114608e+06 3.181500000000e+02 5.326470562372e-01 4.562887800292e-01 3.009470005132e+02 3.496698267363e-05 1.000000000000e+03 6.000000000000e-01 
1.224000000000e+06 6.832747686290e+06 3.181500000000e+02 5.502388895730e-01 4.378441175442e-01 2.917185678622e+02 3.381718799512e-05 1.000000000000e+03 6.000000000000e-01 
1.260000000000e+06 6.799599376783e+06 3.181500000000e+02 5.649258261795e-01 4.223525096695e-01 2.841872675959e+02 3.290559950021e-05 1.000000000000e+03 6.000000000000e-01 
1.296000000000e+06 6.769990386102e+06 3.181500000000e+02 5.773485806479e-01 4.091618509880e-01 2.779233218578e+02 3.216606788206e-05 1.000000000000e+03 6.000000000000e-01 
1.332000000000e+06 6.743367879781e+06 3.181500000000e+02 5.879545774021e-01 3.978172760488e-01 2.726384485067e+02 3.155582598853e-05 1.000000000000e+03 6.000000000000e-01 
1.368000000000e+06 6.719284110299e+06 3.181500000000e+02 5.970679599321e-01 3.879896331769e-01 2.681301190565e+02 3.104583883659e-05 1.000000000000e+03 6.000000000000e-01 
1.404000000000e+06 6.697376317225e+06 3.181500000000e+02 6.049382534715e-01 3.794257658127e-01 2.642489238809e+02 3.061527035077e-05 1.000000000000e+03 6.000000000000e-01 
1.440000000000e+06 6.732705306286e+06 3.181500000000e+02 6.117816288132e-01 3.719129688960e-01 2.642942058168e+02 3.036814044164e-05 1.000000000000e+03 6.000000000000e-01 
1.476000000000e+06 6.813095415599e+06 3.181500000000e+02 6.935633160286e-01 2.890657840164e-01 2.453601776166e+02 2.710908241277e-05 1.000000000000e+03 6.000000000000e-01 
1.512000000000e+06 6.899040317980e+06 3.181500000000e+02 7.922131968285e-01 1.916188096180e-01 2.262644754627e+02 2.402436580194e-05 1.000000000000e+03 6.000000000000e-01 
1.548000000000e+06 6.978532585040e+06 3.181500000000e+02 8.682209075178e-01 1.184501950186e-01 2.147891655227e+02 2.213671782102e-05 1.000000000000e+03 6.000000000000e-01 
1.584000000000e+06 7.041776669766e+06 3.181500000000e+02 9.234672741361e-01 6.682823636740e-02 2.077848771614e+02 2.096590125538e-05 1.000000000000e+03 6.000000000000e-01 
1.620000000000e+06 7.093361276330e+06 3.181500000000e+02 9.569209297465e-01 3.648512101833e-02 2.046056001953e+02 2.034536457158e-05 1.000000000000e+03 6.000000000000e-01 
1.656000000000e+06 7.139285251644e+06 3.181500000000e+02 9.771077933248e-01 1.876248199495e-02 2.035815768947e+02 2.001798058077e-05 1.000000000000e+03 6.000000000000e-01 
1.692000000000e+06 7.176792364656e+06 3.181500000000e+02 9.886807907273e-01 8.955944791565e-03 2.036228209747e+02 1.985690140179e-05 1.000000000000e+03 6.000000000000e-01 
1.728000000000e+06 7.206040455730e+06 3.181500000000e+02 9.945596781389e-01 4.149206406264e-03 2.042019277052e+02 1.979537082128e-05 1.000000000000e+03 6.000000000000e-01 
1.764000000000e+06 7.223842981224e+06 3.181500000000e+02 9.974468604512e-01 1.874207779958e-03 2.046749166481e+02 1.977196426054e-05 1.000000000000e+03 6.000000000000e-01 
1.800000000000e+06 7.256118603412e+06 3.181500000000e+02 9.987817698848e-01 8.599583352428e-04 2.062132466704e+02 1.980571095933e-05 1.000000000000e+03 6.000000000000e-01 
1.836000000000e+06 7.277111122749e+06 3.181500000000e+02 9.995207919178e-01 3.241038593829e-04 2.072441237785e+02 1.983069104239e-05 1.000000000000e+03 6.000000000000e-01 
1.872000000000e+06 7.300494565529e+06 3.181500000000e+02 9.998010095690e-01 1.288802785559e-04 2.084965711082e+02 1.986955743268e-05 1.000000000000e+03 6.000000000000e-01 
1.908000000000e+06 7.321849363292e+06 3.181500000000e+02 9.999239194864e-01 4.709506538583e-05 2.096726792421e+02 1.990814481208e-05 1.000000000000e+03 6.000000000000e-01 
1.944000000000e+06 7.309569333218e+06 3.181500000000e+02 9.999720847131e-01 1.649031526599e-05 2.089738874262e+02 1.988358226990e-05 1.000000000000e+03 6.000000000000e-01 
1.980000000000e+06 7.336606478112e+06 3.181500000000e+02 9.999861974650e-01 7.785499787184e-06 2.104944684522e+02 1.993554446528e-05 1.000000000000e+03 6.000000000000e-01 
2.016000000000e+06 7.361396974133e+06 3.181500000000e+02 9.999956513024e-01 2.333046465046e-06 2.119018886289e+02 1.998398660512e-05 1.000000000000e+03 6.000000000000e-01 
2.052000000000e+06 7.387381771753e+06 3.181500000000e+02 9.999986549189e-01 6.855948858350e-07 2.133915480818e+02 2.003566437142e-05 1.000000000000e+03 6.000000000000e-01 
2.088000000000e+06 7.410270657370e+06 3.181500000000e+02 9.999996000058e-01 1.934730910507e-07 2.147154005293e+02 2.008188250832e-05 1.000000000000e+03 6.000000000000e-01 
2.124000000000e+06 7.430828838524e+06 3.181500000000e+02 9.999998846527e-01 5.288331416466e-08 2.159137757268e+02 2.012394634355e-05 1.000000000000e+03 6.000000000000e-01 
2.160000000000e+06 7.381013767124e+06 3.181500000000e+02 9.999999679580e-01 1.390622689559e-08 2.130248356855e+02 2.002288604699e-05 1.000000000000e+03 6.000000000000e-01 
2.196000000000e+06 7.329530972271e+06 3.181500000000e+02 9.999999775496e-01 9.174964227412e-09 2.100919432655e+02 1.992152525393e-05 1.000000000000e+03 6.000000000000e-01 
2.232000000000e+06 7.277806046178e+06 3.181500000000e+02 9.999999812982e-01 7.187314669196e-09 2.071973634115e+02 1.982270932779e-05 1.000000000000e+03 6.000000000000e-01 
2.268000000000e+06 7.230567174456e+06 3.181500000000e+02 9.999999841943e-01 5.710083065482e-09 2.045979044777e+02 1.973500154418e-05 1.000000000000e+03 6.000000000000e-01 
2.304000000000e+06 7.188603877707e+06 3.181500000000e+02 9.999999862725e-01 4.661564049180e-09 2.023229290468e+02 1.965904415337e-05 1.000000000000e+03 6.000000000000e-01 
2.340000000000e+06 7.150961384883e+06 3.181500000000e+02 9.999999876872e-01 3.931290023701e-09 2.003087921421e+02 1.959242039435e-05 1.000000000000e+03 6.000000000000e-01 
2.376000000000e+06 7.116759966210e+06 3.181500000000e+02 9.999999886519e-01 3.408760840928e-09 1.985000380287e+02 1.953309022220e-05 1.000000000000e+03 6.000000000000e-01 
2.412000000000e+06 7.085444938131e+06 3.181500000000e+02 9.999999893100e-01 3.023377006488e-09 1.968612855331e+02 1.947974477954e-05 1.000000000000e+03 6.000000000000e-01 
2.448000000000e+06 7.056625630513e+06 3.181500000000e+02 9.999999897447e-01 2.733579768118e-09 1.953674972121e+02 1.943145648410e-05 1.000000000000e+03 6.000000000000e-01 
2.484000000000e+06 7.029983837147e+06 3.181500000000e+02 9.999999900069e-01 2.513264473382e-09 1.939985914924e+02 1.938748834740e-05 1.000000000000e+03 6.000000000000e-01 
2.520000000000e+06 7.005252403864e+06 3.181500000000e+02 9.999999901306e-01 2.344857069937e-09 1.927379992432e+02 1.934723866798e-05 1.000000000000e+03 6.000000000000e-01 
2.556000000000e+06 6.982208399475e+06 3.181500000000e+02 9.999999901391e-01 2.216135347326e-09 1.915720787448e+02 1.931021618688e-05 1.000000000000e+03 6.000000000000e-01 
2.592000000000e+06 6.960665219068e+06 3.181500000000e+02 9.999999900485e-01 2.118459096637e-09 1.904895397460e+02 1.927601723630e-05 1.000000000000e+03 6.000000000000e-01 
2.628000000000e+06 6.940465013896e+06 3.181500000000e+02 9.999999898694e-01 2.045623864000e-09 1.894809334412e+02 1.924430628543e-05 1.000000000000e+03 6.000000000000e-01 
2.664000000000e+06 6.921472901658e+06 3.181500000000e+02 9.999999896090e-01 1.993102550553e-09 1.885382682368e+02 1.921480141110e-05 1.000000000000e+03 6.000000000000e-01 
2.700000000000e+06 6.903572702414e+06 3.181500000000e+02 9.999999892716e-01 1.957546634704e-09 1.876547271148e+02 1.918726362731e-05 1.000000000000e+03 6.000000000000e-01 
2.736000000000e+06 6.886663666809e+06 3.181500000000e+02 9.999999888596e-01 1.936453922046e-09 1.868244522205e+02 1.916148878821e-05 1.000000000000e+03 6.000000000000e-01 
2.772000000000e+06 6.870657884880e+06 3.181500000000e+02 9.999999883738e-01 1.927941827568e-09 1.860423761019e+02 1.913730128561e-05 1.000000000000e+03 6.000000000000e-01 
2.808000000000e+06 6.855478210757e+06 3.181500000000e+02 9.999999878137e-01 1.930589261211e-09 1.853040879595e+02 1.911454908534e-05 1.000000000000e+03 6.000000000000e-01 
2.844000000000e+06 6.841056589627e+06 3.181500000000e+02 9.999999871778e-01 1.943324494953e-09 1.846057268164e+02 1.909309978490e-05 1.000000000000e+03 6.000000000000e-01 
2.880000000000e+06 6.827332698118e+06 3.181500000000e+02 9.999999864638e-01 1.965344514825e-09 1.839438954459e+02 1.907283745392e-05 1.000000000000e+03 6.000000000000e-01 
2.916000000000e+06 6.814252829587e+06 3.181500000000e+02 9.999999856684e-01 1.996056249528e-09 1.833155903897e+02 1.905366007842e-05 1.000000000000e+03 6.000000000000e-01 
2.952000000000e+06 6.801768972883e+06 3.181500000000e+02 9.999999847879e-01 2.035033226235e-09 1.827181445878e+02 1.903547747603e-05 1.000000000000e+03 6.000000000000e-01 
2.988000000000e+06 6.789838045610e+06 3.181500000000e+02 9.999999838177e-01 2.081983257338e-09 1.821491799979e+02 1.901820958255e-05 1.000000000000e+03 6.000000000000e-01 
3.024000000000e+06 6.778421251724e+06 3.181500000000e+02 9.999999827528e-01 2.136724120678e-09 1.816065681928e+02 1.900178503351e-05 1.000000000000e+03 6.000000000000e-01 
3.060000000000e+06 6.767483540114e+06 3.181500000000e+02 9.999999815876e-01 2.199165112230e-09 1.810883973882e+02 1.898613998261e-05 1.000000000000e+03 6.000000000000e-01 
3.096000000000e+06 6.756993145609e+06 3.181500000000e+02 9.999999803156e-01 2.269292954743e-09 1.805929446835e+02 1.897121711121e-05 1.000000000000e+03 6.000000000000e-01 
3.132000000000e+06 6.746921197876e+06 3.181500000000e+02 9.999999789303e-01 2.347160979729e-09 1.801186525629e+02 1.895696479338e-05 1.000000000000e+03 6.000000000000e-01 
3.168000000000e+06 6.737241386472e+06 3.181500000000e+02 9.999999774241e-01 2.432880793834e-09 1.796641089011e+02 1.894333638831e-05 1.000000000000e+03 6.000000000000e-01 
3.204000000000e+06 6.727929672646e+06 3.181500000000e+02 9.999999757891e-01 2.526615844894e-09 1.792280298650e+02 1.893028963762e-05 1.000000000000e+03 6.000000000000e-01 
3.240000000000e+06 6.718964040334e+06 3.181500000000e+02 9.999999740169e-01 2.628576464048e-09 1.788092452277e+02 1.891778614964e-05 1.000000000000e+03 6.000000000000e-01 
3.276000000000e+06 6.710324280102e+06 3.181500000000e+02 9.999999720983e-01 2.739016054577e-09 1.784066857003e+02 1.890579095622e-05 1.000000000000e+03 6.000000000000e-01 
3.312000000000e+06 6.701991800941e+06 3.181500000000e+02 9.999999700236e-01 2.858228186276e-09 1.780193719576e+02 1.889427213013e-05 1.000000000000e+03 6.000000000000e-01 
3.348000000000e+06 6.762197078664e+06 3.181500000000e+02 9.999999678219e-01 2.983578146124e-09 1.808385382891e+02 1.897861005748e-05 1.000000000000e+03 6.000000000000e-01 
3.384000000000e+06 6.803809060815e+06 3.181500000000e+02 9.999999889432e-01 9.099421817150e-10 1.828156292185e+02 1.903844073963e-05 1.000000000000e+03 6.000000000000e-01 
3.420000000000e+06 6.865736657751e+06 3.181500000000e+02 9.999999958438e-01 3.046170401262e-10 1.858026594111e+02 1.912990508101e-05 1.000000000000e+03 6.000000000000e-01 
3.456000000000e+06 6.877767964219e+06 3.181500000000e+02 9.999999987156e-01 8.321480492196e-11 1.863893283012e+02 1.914802054177e-05 1.000000000000e+03 6.000000000000e-01 
3.492000000000e+06 6.895483192771e+06 3.181500000000e+02 9.999999993435e-01 3.837436559154e-11 1.872569869832e+02 1.917490372300e-05 1.000000000000e+03 6.000000000000e-01 
3.528000000000e+06 6.913492863737e+06 3.181500000000e+02 9.999999996828e-01 1.665666646333e-11 1.881437900037e+02 1.920249243251e-05 1.000000000000e+03 6.000000000000e-01 
3.564000000000e+06 6.921857680889e+06 3.181500000000e+02 9.999999998625e-01 6.447697608875e-12 1.885573110995e+02 1.921539603372e-05 1.000000000000e+03 6.000000000000e-01 
3.600000000000e+06 6.971018303339e+06 3.181500000000e+02 9.999999999341e-01 2.769520110132e-12 1.910088859641e+02 1.929240286248e-05 1.000000000000e+03 6.000000000000e-01 
3.636000000000e+06 7.013568359429e+06 3.181500000000e+02 9.999999999813e-01 6.908001129608e-13 1.931607910009e+02 1.936071233773e-05 1.000000000000e+03 6.000000000000e-01 
3.672000000000e+06 7.047703010497e+06 3.181500000000e+02 9.999999999949e-01 1.638750571211e-13 1.949077589983e+02 1.941665972779e-05 1.000000000000e+03 6.000000000000e-01 
3.708000000000e+06 7.074622608516e+06 3.181500000000e+02 9.999999999986e-01 4.107847979360e-14 1.962987316823e+02 1.946152162793e-05 1.000000000000e+03 6.000000000000e-01 
3.744000000000e+06 7.095040646650e+06 3.181500000000e+02 9.999999999996e-01 1.076368397924e-14 1.973616969247e+02 1.949599308891e-05 1.000000000000e+03 6.000000000000e-01 
3.780000000000e+06 7.104822138458e+06 3.181500000000e+02 9.999999999999e-01 2.912828280304e-15 1.978733783884e+02 1.951264491227e-05 1.000000000000e+03 6.000000000000e-01 
3.816000000000e+06 7.122729478710e+06 3.181500000000e+02 1.000000000000e+00 8.746401485940e-16 1.988142984932e+02 1.954336438881e-05 1.000000000000e+03 6.000000000000e-01 
3.852000000000e+06 7.135407171279e+06 3.181500000000e+02 1.000000000000e+00 2.335424709692e-16 1.994837195710e+02 1.956529779892e-05 1.000000000000e+03 6.000000000000e-01 
3.888000000000e+06 7.153944835918e+06 3.181500000000e+02 1.000000000000e+00 6.306765706110e-17 2.004675232509e+02 1.959764945491e-05 1.000000000000e+03 6.000000000000e-01 
3.924000000000e+06 7.177215041881e+06 3.181500000000e+02 1.000000000000e+00 1.558344815350e-17 2.017109221690e+02 1.963873792636e-05 1.000000000000e+03 6.000000000000e-01 
3.960000000000e+06 7.198224522701e+06 3.181500000000e+02 1.000000000000e+00 3.469723897208e-18 2.028417042718e+02 1.967629906348e-05 1.000000000000e+03 6.000000000000e-01 
3.996000000000e+06 7.218136620374e+06 3.181500000000e+02 1.000000000000e+00 7.106500399291e-19 2.039206912282e+02 1.971231214410e-05 1.000000000000e+03 6.000000000000e-01 
4.032000000000e+06 7.219372627654e+06 3.181500000000e+02 1.000000000000e+00 7.428296769544e-20 2.039879027678e+02 1.971456101838e-05 1.000000000000e+03 6.000000000000e-01 
4.068000000000e+06 7.231425970375e+06 3.181500000000e+02 1.000000000000e+00 -3.266680986188e-20 2.046447920533e+02 1.973657470218e-05 1.000000000000e+03 6.000000000000e-01 
4.104000000000e+06 7.245320788938e+06 3.181500000000e+02 1.000000000000e+00 -5.823966408890e-20 2.054053302131e+02 1.976213983834e-05 1.000000000000e+03 6.000000000000e-01 
4.140000000000e+06 7.258455300209e+06 3.181500000000e+02 1.000000000000e+00 -5.940288640467e-20 2.061275221495e+02 1.978649343904e-05 1.000000000000e+03 6.000000000000e-01 
4.176000000000e+06 7.272349510295e+06 3.181500000000e+02 1.000000000000e+00 -4.991372396937e-20 2.068949763763e+02 1.981245606443e-05 1.000000000000e+03 6.000000000000e-01 
4.212000000000e+06 7.284183582843e+06 3.181500000000e+02 1.000000000000e+00 -3.744347045956e-20 2.075514930866e+02 1.983473335537e-05 1.000000000000e+03 6.000000000000e-01 
4.248000000000e+06 7.283682727569e+06 3.181500000000e+02 1.000000000000e+00 -2.471641186987e-20 2.075236536897e+02 1.983378742722e-05 1.000000000000e+03 6.000000000000e-01 
4.284000000000e+06 7.278496246450e+06 3.181500000000e+02 1.000000000000e+00 -1.350873111515e-20 2.072356484109e+02 1.982400815339e-05 1.000000000000e+03 6.000000000000e-01 
4.320000000000e+06 7.294827002399e+06 3.181500000000e+02 1.000000000000e+00 -6.652544726782e-21 2.081442184192e+02 1.985489961261e-05 1.000000000000e+03 6.000000000000e-01 
4.356000000000e+06 7.306884534655e+06 3.181500000000e+02 1.000000000000e+00 -3.571245750774e-21 2.088183036765e+02 1.987789575867e-05 1.000000000000e+03 6.000000000000e-01 
4.392000000000e+06 7.311016532361e+06 3.181500000000e+02 1.000000000000e+00 -2.302699907236e-21 2.090499476014e+02 1.988581337849e-05 1.000000000000e+03 6.000000000000e-01 
4.428000000000e+06 7.314463632010e+06 3.181500000000e+02 1.000000000000e+00 -1.886958116689e-21 2.092434471432e+02 1.989243317096e-05 1.000000000000e+03 6.000000000000e-01 
4.464000000000e+06 7.336022229847e+06 3.181500000000e+02 1.000000000000e+00 -1.863170905762e-21 2.104588462379e+02 1.993413697567e-05 1.000000000000e+03 6.000000000000e-01 
4.500000000000e+06 7.349551808226e+06 3.181500000000e+02 1.000000000000e+00 -3.855947409559e-21 2.112262425348e+02 1.996057864513e-05 1.000000000000e+03 6.000000000000e-01 
4.536000000000e+06 7.360494934866e+06 3.181500000000e+02 1.000000000000e+00 -6.259514166651e-21 2.118495843656e+02 1.998211946806e-05 1.000000000000e+03 6.000000000000e-01 
4.572000000000e+06 7.370232924498e+06 3.181500000000e+02 1.000000000000e+00 -8.063473809018e-21 2.124062870955e+02 2.000140499353e-05 1.000000000000e+03 6.000000000000e-01 
4.608000000000e+06 7.364788939448e+06 3.181500000000e+02 1.000000000000e+00 -9.082331751040e-21 2.120948307201e+02 1.999060986444e-05 1.000000000000e+03 6.000000000000e-01 
4.644000000000e+06 7.372505612318e+06 3.181500000000e+02 1.000000000000e+00 -7.062740738311e-21 2.125364860294e+02 2.000592187234e-05 1.000000000000e+03 6.000000000000e-01 
4.680000000000e+06 7.381683358865e+06 3.181500000000e+02 1.000000000000e+00 -6.279076191041e-21 2.130633241834e+02 2.002422406934e-05 1.000000000000e+03 6.000000000000e-01 
4.716000000000e+06 7.372698861552e+06 3.181500000000e+02 1.000000000000e+00 -5.990819735113e-21 2.125475617833e+02 2.000630622714e-05 1.000000000000e+03 6.000000000000e-01 
4.752000000000e+06 7.382532178569e+06 3.181500000000e+02 1.000000000000e+00 -4.154174919314e-21 2.131121356960e+02 2.002592180046e-05 1.000000000000e+03 6.000000000000e-01 
4.788000000000e+06 7.392357796066e+06 3.181500000000e+02 1.000000000000e+00 -3.540747892729e-21 2.136782239065e+02 2.004563632134e-05 1.000000000000e+03 6.000000000000e-01 
4.824000000000e+06 7.393021030983e+06 3.181500000000e+02 1.000000000000e+00 -3.270985116225e-21 2.137165059851e+02 2.004697120344e-05 1.000000000000e+03 6.000000000000e-01 
4.860000000000e+06 7.399148981180e+06 3.181500000000e+02 1.000000000000e+00 -2.607361551652e-21 2.140706379076e+02 2.005932971508e-05 1.000000000000e+03 6.000000000000e-01 
4.896000000000e+06 7.412613943153e+06 3.181500000000e+02 1.000000000000e+00 -2.157377518961e-21 2.148514811387e+02 2.008664378144e-05 1.000000000000e+03 6.000000000000e-01 
4.932000000000e+06 7.402548573088e+06 3.181500000000e+02 1.000000000000e+00 -2.063665304869e-21 2.142674307392e+02 2.006620524950e-05 1.000000000000e+03 6.000000000000e-01 
4.968000000000e+06 7.403390090586e+06 3.181500000000e+02 1.000000000000e+00 -1.399868273481e-21 2.143161804637e+02 2.006790933067e-05 1.000000000000e+03 6.000000000000e-01 
5.004000000000e+06 7.409912086129e+06 3.181500000000e+02 1.000000000000e+00 -9.880610338766e-22 2.146944987152e+02 2.008114541120e-05 1.000000000000e+03 6.000000000000e-01 
5.040000000000e+06 7.412465056080e+06 3.181500000000e+02 1.000000000000e+00 -7.810056854702e-22 2.148428266203e+02 2.008634056063e-05 1.000000000000e+03 6.000000000000e-01 
5.076000000000e+06 7.414746317044e+06 3.181500000000e+02 1.000000000000e+00 -6.083267476759e-22 2.149754822705e+02 2.009098949194e-05 1.000000000000e+03 6.000000000000e-01 
5.112000000000e+06 7.418906518379e+06 3.181500000000e+02 1.000000000000e+00 -4.691943296415e-22 2.152176763565e+02 2.009948378297e-05 1.000000000000e+03 6.000000000000e-01 
5.148000000000e+06 7.421121176882e+06 3.181500000000e+02 1.000000000000e+00 -3.730617515262e-22 2.153467535901e+02 2.010401428173e-05 1.000000000000e+03 6.000000000000e-01 
5.184000000000e+06 7.425142067411e+06 3.181500000000e+02 1.000000000000e+00 -2.923425263071e-22 2.155813647590e+02 2.011225510841e-05 1.000000000000e+03 6.000000000000e-01 
5.220000000000e+06 7.427038100927e+06 3.181500000000e+02 1.000000000000e+00 -2.360485684962e-22 2.156921116837e+02 2.011614791534e-05 1.000000000000e+03 6.000000000000e-01 
5.256000000000e+06 7.429351438583e+06 3.181500000000e+02 1.000000000000e+00 -1.871425456310e-22 2.158273350482e+02 2.012090348926e-05 1.000000000000e+03 6.000000000000e-01 
5.292000000000e+06 7.430137426958e+06 3.181500000000e+02 1.000000000000e+00 -1.490507667296e-22 2.158733045462e+02 2.012252076087e-05 1.000000000000e+03 6.000000000000e-01 
5.328000000000e+06 7.425151972375e+06 3.181500000000e+02 1.000000000000e+00 -1.162986935849e-22 2.155819431109e+02 2.011227543314e-05 1.000000000000e+03 6.000000000000e-01 
5.364000000000e+06 7.381217796309e+06 3.181500000000e+02 1.000000000000e+00 -8.140023790279e-23 2.130365581287e+02 2.002329325581e-05 1.000000000000e+03 6.000000000000e-01 
5.400000000000e+06 7.351852240315e+06 3.181500000000e+02 1.000000000000e+00 -3.309430508987e-23 2.113570822608e+02 1.996509540939e-05 1.000000000000e+03 6.000000000000e-01 
5.436000000000e+06 7.326471811669e+06 3.181500000000e+02 1.000000000000e+00 -1.247580460263e-23 2.099193104774e+02 1.991559757849e-05 1.000000000000e+03 6.000000000000e-01 
5.472000000000e+06 7.302843433620e+06 3.181500000000e+02 1.000000000000e+00 -4.635561323807e-24 2.085920728422e+02 1.987017065423e-05 1.000000000000e+03 6.000000000000e-01 
5.508000000000e+06 7.280769779852e+06 3.181500000000e+02 1.000000000000e+00 -1.711499117313e-24 2.073618352086e+02 1.982829137274e-05 1.000000000000e+03 6.000000000000e-01 
5.544000000000e+06 7.260073364498e+06 3.181500000000e+02 1.000000000000e+00 -6.283683851096e-25 2.062167115503e+02 1.978950629952e-05 1.000000000000e+03 6.000000000000e-01 
5.580000000000e+06 7.240555693806e+06 3.181500000000e+02 1.000000000000e+00 -2.294813591992e-25 2.051441119034e+02 1.975334967232e-05 1.000000000000e+03 6.000000000000e-01 
5.616000000000e+06 7.222069482535e+06 3.181500000000e+02 1.000000000000e+00 -8.339169327732e-26 2.041346482255e+02 1.971947334010e-05 1.000000000000e+03 6.000000000000e-01 
5.652000000000e+06 7.204507052083e+06 3.181500000000e+02 1.000000000000e+00 -3.016108350646e-26 2.031813703680e+02 1.968761785406e-05 1.000000000000e+03 6.000000000000e-01 
5.688000000000e+06 7.187780411526e+06 3.181500000000e+02 1.000000000000e+00 -1.085905129063e-26 2.022785987653e+02 1.965757129876e-05 1.000000000000e+03 6.000000000000e-01 
5.724000000000e+06 7.171813973502e+06 3.181500000000e+02 1.000000000000e+00 -3.892367925138e-27 2.014214826984e+02 1.962915335264e-05 1.000000000000e+03 6.000000000000e-01 
5.760000000000e+06 7.156542504957e+06 3.181500000000e+02 1.000000000000e+00 -1.389195928451e-27 2.006058568582e+02 1.960220967579e-05 1.000000000000e+03 6.000000000000e-01 
5.796000000000e+06 7.141909532485e+06 3.181500000000e+02 1.000000000000e+00 -4.937374745188e-28 1.998281299578e+02 1.957660755928e-05 1.000000000000e+03 6.000000000000e-01 
5.832000000000e+06 7.127865748436e+06 3.181500000000e+02 1.000000000000e+00 -1.747827433075e-28 1.990851793116e+02 1.955223192525e-05 1.000000000000e+03 6.000000000000e-01 
5.868000000000e+06 7.114367719351e+06 3.181500000000e+02 1.000000000000e+00 -6.165460171258e-29 1.983742662531e+02 1.952898213595e-05 1.000000000000e+03 6.000000000000e-01 
5.904000000000e+06 7.101376912406e+06 3.181500000000e+02 1.000000000000e+00 -2.169800879843e-29 1.976929719641e+02 1.950676956507e-05 1.000000000000e+03 6.000000000000e-01 
5.940000000000e+06 7.088858939732e+06 3.181500000000e+02 1.000000000000e+00 -7.644579214786e-30 1.970391474604e+02 1.948551570116e-05 1.000000000000e+03 6.000000000000e-01 
5.976000000000e+06 7.076782950502e+06 3.181500000000e+02 1.000000000000e+00 -2.722963053321e-30 1.964108733770e+02 1.946515062375e-05 1.000000000000e+03 6.000000000000e-01 
6.012000000000e+06 7.065121134601e+06 3.181500000000e+02 1.000000000000e+00 -1.007458924049e-30 1.958064271833e+02 1.944561176238e-05 1.000000000000e+03 6.000000000000e-01 
6.048000000000e+06 7.053848314366e+06 3.181500000000e+02 1.000000000000e+00 -4.130719949622e-31 1.952242562490e+02 1.942684287812e-05 1.000000000000e+03 6.000000000000e-01 
6.084000000000e+06 7.042941606044e+06 3.181500000000e+02 1.000000000000e+00 -2.092013691019e-31 1.946629555330e+02 1.940879322079e-05 1.000000000000e+03 6.000000000000e-01 
6.120000000000e+06 7.032380136483e+06 3.181500000000e+02 1.000000000000e+00 -1.408785380030e-31 1.941212489424e+02 1.939141682547e-05 1.000000000000e+03 6.000000000000e-01 
6.156000000000e+06 7.022144804201e+06 3.181500000000e+02 1.000000000000e+00 -1.194756984199e-31 1.935979736353e+02 1.937467192105e-05 1.000000000000e+03 6.000000000000e-01 