 TITLE = "Profiles along polylines"
 VARIABLES = "DIST" "VELOCITY_X1" "TEMPERATURE1" 
 ZONE T="TIME=0.000000000000e+00"
0.000000000000e+00 0.000000000000e+00 0.000000000000e+00 
2.500000000000e-02 0.000000000000e+00 0.000000000000e+00 
5.000000000000e-02 0.000000000000e+00 0.000000000000e+00 
7.500000000000e-02 0.000000000000e+00 0.000000000000e+00 
1.000000000000e-01 0.000000000000e+00 0.000000000000e+00 
1.250000000000e-01 0.000000000000e+00 0.000000000000e+00 
1.500000000000e-01 0.000000000000e+00 0.000000000000e+00 
1.750000000000e-01 0.000000000000e+00 0.000000000000e+00 
2.000000000000e-01 0.000000000000e+00 0.000000000000e+00 
2.250000000000e-01 0.000000000000e+00 0.000000000000e+00 
2.500000000000e-01 0.000000000000e+00 0.000000000000e+00 
2.750000000000e-01 0.000000000000e+00 0.000000000000e+00 
3.000000000000e-01 0.000000000000e+00 0.000000000000e+00 
3.250000000000e-01 0.000000000000e+00 0.000000000000e+00 
3.500000000000e-01 0.000000000000e+00 0.000000000000e+00 
3.750000000000e-01 0.000000000000e+00 0.000000000000e+00 
4.000000000000e-01 0.000000000000e+00 0.000000000000e+00 
4.250000000000e-01 0.000000000000e+00 0.000000000000e+00 
4.500000000000e-01 0.000000000000e+00 0.000000000000e+00 
4.750000000000e-01 0.000000000000e+00 0.000000000000e+00 
5.000000000000e-01 0.000000000000e+00 0.000000000000e+00 
5.250000000000e-01 0.000000000000e+00 0.000000000000e+00 
5.500000000000e-01 0.000000000000e+00 0.000000000000e+00 
5.750000000000e-01 0.000000000000e+00 0.000000000000e+00 
6.000000000000e-01 0.000000000000e+00 0.000000000000e+00 
6.250000000000e-01 0.000000000000e+00 0.000000000000e+00 
6.500000000000e-01 0.000000000000e+00 0.000000000000e+00 
6.750000000000e-01 0.000000000000e+00 0.000000000000e+00 
7.000000000000e-01 0.000000000000e+00 0.000000000000e+00 
7.250000000000e-01 0.000000000000e+00 0.000000000000e+00 
7.500000000000e-01 0.000000000000e+00 0.000000000000e+00 
7.750000000000e-01 0.000000000000e+00 0.000000000000e+00 
8.000000000000e-01 0.000000000000e+00 0.000000000000e+00 
8.250000000000e-01 0.000000000000e+00 0.000000000000e+00 
8.500000000000e-01 0.000000000000e+00 0.000000000000e+00 
8.750000000000e-01 0.000000000000e+00 0.000000000000e+00 
9.000000000000e-01 0.000000000000e+00 0.000000000000e+00 
9.250000000000e-01 0.000000000000e+00 0.000000000000e+00 
9.500000000000e-01 0.000000000000e+00 0.000000000000e+00 
9.750000000000e-01 0.000000000000e+00 0.000000000000e+00 
1.000000000000e+00 0.000000000000e+00 0.000000000000e+00 
 TITLE = "Profiles along polylines"
 VARIABLES = "DIST" "VELOCITY_X1" "TEMPERATURE1" 
 ZONE T="TIME=1.000000000000e+00"
0.000000000000e+00 1.000000000000e+00 1.000000000000e+00 
2.500000000000e-02 1.000000000000e+00 1.000000000000e+00 
5.000000000000e-02 1.000000000000e+00 1.000000000000e+00 
7.500000000000e-02 1.000000000000e+00 1.000000000000e+00 
1.000000000000e-01 1.000000000000e+00 1.000000000000e+00 
1.250000000000e-01 1.000000000000e+00 1.000000000000e+00 
1.500000000000e-01 1.000000000000e+00 1.000000000000e+00 
1.750000000000e-01 1.000000000000e+00 1.000000000000e+00 
2.000000000000e-01 1.000000000000e+00 1.000000000000e+00 
2.250000000000e-01 1.000000000000e+00 1.000000000000e+00 
2.500000000000e-01 1.000000000000e+00 1.000000000000e+00 
2.750000000000e-01 1.000000000000e+00 1.000000000000e+00 
3.000000000000e-01 1.000000000000e+00 1.000000000000e+00 
3.250000000000e-01 1.000000000000e+00 1.000000000000e+00 
3.500000000000e-01 1.000000000000e+00 1.000000000000e+00 
3.750000000000e-01 1.000000000000e+00 1.000000000000e+00 
4.000000000000e-01 1.000000000000e+00 1.000000000000e+00 
4.250000000000e-01 1.000000000000e+00 1.000000000000e+00 
4.500000000000e-01 1.000000000000e+00 1.000000000000e+00 
4.750000000000e-01 1.000000000000e+00 1.000000000000e+00 
5.000000000000e-01 1.000000000000e+00 1.000000000000e+00 
5.250000000000e-01 1.000000000000e+00 1.000000000000e+00 
5.500000000000e-01 1.000000000000e+00 1.000000000000e+00 
5.750000000000e-01 1.000000000000e+00 1.000000000000e+00 
6.000000000000e-01 1.000000000000e+00 1.000000000000e+00 
6.250000000000e-01 1.000000000000e+00 1.000000000000e+00 
6.500000000000e-01 1.000000000000e+00 1.000000000000e+00 
6.750000000000e-01 1.000000000000e+00 1.000000000000e+00 
7.000000000000e-01 1.000000000000e+00 9.999999999999e-01 
7.250000000000e-01 1.000000000000e+00 9.999999999989e-01 
7.500000000000e-01 1.000000000000e+00 9.999999999861e-01 
7.750000000000e-01 1.000000000000e+00 9.999999998308e-01 
8.000000000000e-01 1.000000000000e+00 9.999999979388e-01 
8.250000000000e-01 1.000000000000e+00 9.999999748900e-01 
8.500000000000e-01 1.000000000000e+00 9.999996940977e-01 
8.750000000000e-01 1.000000000000e+00 9.999962733468e-01 
9.000000000000e-01 1.000000000000e+00 9.999546000702e-01 
9.250000000000e-01 1.000000000000e+00 9.994469156299e-01 
9.500000000000e-01 1.000000000000e+00 9.932620530009e-01 
9.750000000000e-01 1.000000000000e+00 9.179150013761e-01 
1.000000000000e+00 1.000000000000e+00 0.000000000000e+00 
