 TITLE = "Time curves in points"
 VARIABLES = "TIME "  "PRESSURE1"  "TEMPERATURE1"  "VELOCITY_X1" 
 ZONE T="POINT=POINT1"
0.000000000000e+00 1.000000000000e+05 0.000000000000e+00 0.000000000000e+00 
1.000000000000e+05 1.000000000000e+05 3.956081393374e-211 1.000000000000e-06 
2.000000000000e+05 1.000000000000e+05 -2.310173719403e-208 1.000000000000e-06 
3.000000000000e+05 1.000000000000e+05 6.694232177024e-206 1.000000000000e-06 
4.000000000000e+05 1.000000000000e+05 -1.283335158374e-203 1.000000000000e-06 
5.000000000000e+05 1.000000000000e+05 1.830973886019e-201 1.000000000000e-06 
6.000000000000e+05 1.000000000000e+05 -2.073585514162e-199 1.000000000000e-06 
7.000000000000e+05 1.000000000000e+05 1.941573214587e-197 1.000000000000e-06 
8.000000000000e+05 1.000000000000e+05 -1.545883589377e-195 1.000000000000e-06 
9.000000000000e+05 1.000000000000e+05 1.068340581394e-193 1.000000000000e-06 
1.000000000000e+06 1.000000000000e+05 -6.509611080095e-192 1.000000000000e-06 
1.100000000000e+06 1.000000000000e+05 3.540543276001e-190 1.000000000000e-06 
1.200000000000e+06 1.000000000000e+05 -1.736122392290e-188 1.000000000000e-06 
1.300000000000e+06 1.000000000000e+05 7.738391748777e-187 1.000000000000e-06 
1.400000000000e+06 1.000000000000e+05 -3.156942933545e-185 1.000000000000e-06 
1.500000000000e+06 1.000000000000e+05 1.185670542680e-183 1.000000000000e-06 
1.600000000000e+06 1.000000000000e+05 -4.120227473602e-182 1.000000000000e-06 
1.700000000000e+06 1.000000000000e+05 1.330542398874e-180 1.000000000000e-06 
1.800000000000e+06 1.000000000000e+05 -4.008124551684e-179 1.000000000000e-06 
1.900000000000e+06 1.000000000000e+05 1.130101917889e-177 1.000000000000e-06 
2.000000000000e+06 1.000000000000e+05 -2.991250103054e-176 1.000000000000e-06 
2.100000000000e+06 1.000000000000e+05 7.452504135827e-175 1.000000000000e-06 
2.200000000000e+06 1.000000000000e+05 -1.751873639477e-173 1.000000000000e-06 
2.300000000000e+06 1.000000000000e+05 3.893932375309e-172 1.000000000000e-06 
2.400000000000e+06 1.000000000000e+05 -8.199812370059e-171 1.000000000000e-06 
2.500000000000e+06 1.000000000000e+05 1.638762540918e-169 1.000000000000e-06 
2.600000000000e+06 1.000000000000e+05 -3.113312185713e-168 1.000000000000e-06 
2.700000000000e+06 1.000000000000e+05 5.630679310503e-167 1.000000000000e-06 
2.800000000000e+06 1.000000000000e+05 -9.707624776237e-166 1.000000000000e-06 
2.900000000000e+06 1.000000000000e+05 1.597397860786e-164 1.000000000000e-06 
3.000000000000e+06 1.000000000000e+05 -2.511603646121e-163 1.000000000000e-06 
3.100000000000e+06 1.000000000000e+05 3.777262843025e-162 1.000000000000e-06 
3.200000000000e+06 1.000000000000e+05 -5.438829392519e-161 1.000000000000e-06 
3.300000000000e+06 1.000000000000e+05 7.504413460282e-160 1.000000000000e-06 
3.400000000000e+06 1.000000000000e+05 -9.930285697964e-159 1.000000000000e-06 
3.500000000000e+06 1.000000000000e+05 1.261139000535e-157 1.000000000000e-06 
3.600000000000e+06 1.000000000000e+05 -1.538214693592e-156 1.000000000000e-06 
3.700000000000e+06 1.000000000000e+05 1.803001542079e-155 1.000000000000e-06 
3.800000000000e+06 1.000000000000e+05 -2.032123453424e-154 1.000000000000e-06 
3.900000000000e+06 1.000000000000e+05 2.203470940707e-153 1.000000000000e-06 
4.000000000000e+06 1.000000000000e+05 -2.299725950218e-152 1.000000000000e-06 
4.100000000000e+06 1.000000000000e+05 2.311242478702e-151 1.000000000000e-06 
4.200000000000e+06 1.000000000000e+05 -2.237620795878e-150 1.000000000000e-06 
4.300000000000e+06 1.000000000000e+05 2.087624458911e-149 1.000000000000e-06 
4.400000000000e+06 1.000000000000e+05 -1.877498488007e-148 1.000000000000e-06 
4.500000000000e+06 1.000000000000e+05 1.628126433179e-147 1.000000000000e-06 
4.600000000000e+06 1.000000000000e+05 -1.361701377632e-146 1.000000000000e-06 
4.700000000000e+06 1.000000000000e+05 1.098623642247e-145 1.000000000000e-06 
4.800000000000e+06 1.000000000000e+05 -8.551883174734e-145 1.000000000000e-06 
4.900000000000e+06 1.000000000000e+05 6.423580384163e-144 1.000000000000e-06 
5.000000000000e+06 1.000000000000e+05 -4.656250170136e-143 1.000000000000e-06 
5.100000000000e+06 1.000000000000e+05 3.257350422722e-142 1.000000000000e-06 
5.200000000000e+06 1.000000000000e+05 -2.199230849569e-141 1.000000000000e-06 
5.300000000000e+06 1.000000000000e+05 1.433005424471e-140 1.000000000000e-06 
5.400000000000e+06 1.000000000000e+05 -9.010955513410e-140 1.000000000000e-06 
5.500000000000e+06 1.000000000000e+05 5.467605995298e-139 1.000000000000e-06 
5.600000000000e+06 1.000000000000e+05 -3.200850442033e-138 1.000000000000e-06 
5.700000000000e+06 1.000000000000e+05 1.807564226870e-137 1.000000000000e-06 
5.800000000000e+06 1.000000000000e+05 -9.844171178515e-137 1.000000000000e-06 
5.900000000000e+06 1.000000000000e+05 5.168866246338e-136 1.000000000000e-06 
6.000000000000e+06 1.000000000000e+05 -2.615715362006e-135 1.000000000000e-06 
6.100000000000e+06 1.000000000000e+05 1.275220242298e-134 1.000000000000e-06 
6.200000000000e+06 1.000000000000e+05 -5.986444597707e-134 1.000000000000e-06 
6.300000000000e+06 1.000000000000e+05 2.704559904783e-133 1.000000000000e-06 
6.400000000000e+06 1.000000000000e+05 -1.175123673779e-132 1.000000000000e-06 
6.500000000000e+06 1.000000000000e+05 4.906821445515e-132 1.000000000000e-06 
6.600000000000e+06 1.000000000000e+05 -1.967273543585e-131 1.000000000000e-06 
6.700000000000e+06 1.000000000000e+05 7.565433588837e-131 1.000000000000e-06 
6.800000000000e+06 1.000000000000e+05 -2.787348222571e-130 1.000000000000e-06 
6.900000000000e+06 1.000000000000e+05 9.824999913568e-130 1.000000000000e-06 
7.000000000000e+06 1.000000000000e+05 -3.307844623258e-129 1.000000000000e-06 
7.100000000000e+06 1.000000000000e+05 1.061648174553e-128 1.000000000000e-06 
7.200000000000e+06 1.000000000000e+05 -3.240540484587e-128 1.000000000000e-06 
7.300000000000e+06 1.000000000000e+05 9.380077338181e-128 1.000000000000e-06 
7.400000000000e+06 1.000000000000e+05 -2.565609892942e-127 1.000000000000e-06 
7.500000000000e+06 1.000000000000e+05 6.600571393762e-127 1.000000000000e-06 
7.600000000000e+06 1.000000000000e+05 -1.587658862692e-126 1.000000000000e-06 
7.700000000000e+06 1.000000000000e+05 3.540878929988e-126 1.000000000000e-06 
7.800000000000e+06 1.000000000000e+05 -7.234131537215e-126 1.000000000000e-06 
7.900000000000e+06 1.000000000000e+05 1.328184482238e-125 1.000000000000e-06 
8.000000000000e+06 1.000000000000e+05 -2.117217370633e-125 1.000000000000e-06 
8.100000000000e+06 1.000000000000e+05 2.713780556284e-125 1.000000000000e-06 
8.200000000000e+06 1.000000000000e+05 -2.132699251697e-125 1.000000000000e-06 
8.300000000000e+06 1.000000000000e+05 -1.293985505758e-125 1.000000000000e-06 
8.400000000000e+06 1.000000000000e+05 9.110603052749e-125 1.000000000000e-06 
8.500000000000e+06 1.000000000000e+05 -2.018101117101e-124 1.000000000000e-06 
8.600000000000e+06 1.000000000000e+05 2.649162270751e-124 1.000000000000e-06 
8.700000000000e+06 1.000000000000e+05 -1.084413392170e-124 1.000000000000e-06 
8.800000000000e+06 1.000000000000e+05 -4.474830743163e-124 1.000000000000e-06 
8.900000000000e+06 1.000000000000e+05 1.304525152612e-123 1.000000000000e-06 
9.000000000000e+06 1.000000000000e+05 -1.679863215834e-123 1.000000000000e-06 
9.100000000000e+06 1.000000000000e+05 1.073140425100e-124 1.000000000000e-06 
9.200000000000e+06 1.000000000000e+05 4.237137318993e-123 1.000000000000e-06 
9.300000000000e+06 1.000000000000e+05 -8.681508224394e-123 1.000000000000e-06 
9.400000000000e+06 1.000000000000e+05 5.358582838281e-123 1.000000000000e-06 
9.500000000000e+06 1.000000000000e+05 1.316175395754e-122 1.000000000000e-06 
9.600000000000e+06 1.000000000000e+05 -3.765256999462e-122 1.000000000000e-06 
9.700000000000e+06 1.000000000000e+05 2.960962721581e-122 1.000000000000e-06 
9.800000000000e+06 1.000000000000e+05 5.113306742754e-122 1.000000000000e-06 
9.900000000000e+06 1.000000000000e+05 -1.599721697925e-121 1.000000000000e-06 
1.000000000000e+07 1.000000000000e+05 1.086838360356e-121 1.000000000000e-06 
1.010000000000e+07 1.000000000000e+05 2.655834457202e-121 1.000000000000e-06 
1.020000000000e+07 1.000000000000e+05 -6.637782435901e-121 1.000000000000e-06 
1.030000000000e+07 1.000000000000e+05 1.923846049851e-121 1.000000000000e-06 
1.040000000000e+07 1.000000000000e+05 1.516054467075e-120 1.000000000000e-06 
1.050000000000e+07 1.000000000000e+05 -2.396167165999e-120 1.000000000000e-06 
1.060000000000e+07 1.000000000000e+05 -1.185619641344e-120 1.000000000000e-06 
1.070000000000e+07 1.000000000000e+05 7.724781103263e-120 1.000000000000e-06 
1.080000000000e+07 1.000000000000e+05 -5.217706957957e-120 1.000000000000e-06 
1.090000000000e+07 1.000000000000e+05 -1.517879522026e-119 1.000000000000e-06 
1.100000000000e+07 1.000000000000e+05 2.881698429463e-119 1.000000000000e-06 
1.110000000000e+07 1.000000000000e+05 1.352100424298e-119 1.000000000000e-06 
1.120000000000e+07 1.000000000000e+05 -8.874952448255e-119 1.000000000000e-06 
1.130000000000e+07 1.000000000000e+05 3.836100294122e-119 1.000000000000e-06 
1.140000000000e+07 1.000000000000e+05 2.061679930259e-118 1.000000000000e-06 
1.150000000000e+07 1.000000000000e+05 -2.560398384460e-118 1.000000000000e-06 
1.160000000000e+07 1.000000000000e+05 -3.702095535968e-118 1.000000000000e-06 
1.170000000000e+07 1.000000000000e+05 9.259125892943e-118 1.000000000000e-06 
1.180000000000e+07 1.000000000000e+05 4.194910969072e-118 1.000000000000e-06 
1.190000000000e+07 1.000000000000e+05 -2.709347602311e-117 1.000000000000e-06 
1.200000000000e+07 1.000000000000e+05 3.131572474164e-118 1.000000000000e-06 
1.210000000000e+07 1.000000000000e+05 7.077333603621e-117 1.000000000000e-06 
1.220000000000e+07 1.000000000000e+05 -3.998064988253e-117 1.000000000000e-06 
1.230000000000e+07 1.000000000000e+05 -1.726580320147e-116 1.000000000000e-06 
1.240000000000e+07 1.000000000000e+05 1.702138625456e-116 1.000000000000e-06 
1.250000000000e+07 1.000000000000e+05 4.050650112785e-116 1.000000000000e-06 
1.260000000000e+07 1.000000000000e+05 -5.724491082023e-116 1.000000000000e-06 
1.270000000000e+07 1.000000000000e+05 -9.369163220854e-116 1.000000000000e-06 
1.280000000000e+07 1.000000000000e+05 1.732388820653e-115 1.000000000000e-06 
1.290000000000e+07 1.000000000000e+05 2.191063869540e-115 1.000000000000e-06 
1.300000000000e+07 1.000000000000e+05 -4.946922597108e-115 1.000000000000e-06 
1.310000000000e+07 1.000000000000e+05 -5.314917883656e-115 1.000000000000e-06 
1.320000000000e+07 1.000000000000e+05 1.362335239560e-114 1.000000000000e-06 
1.330000000000e+07 1.000000000000e+05 1.365549715287e-114 1.000000000000e-06 
1.340000000000e+07 1.000000000000e+05 -3.653133474294e-114 1.000000000000e-06 
1.350000000000e+07 1.000000000000e+05 -3.746964764125e-114 1.000000000000e-06 
1.360000000000e+07 1.000000000000e+05 9.553563713286e-114 1.000000000000e-06 
1.370000000000e+07 1.000000000000e+05 1.089064643476e-113 1.000000000000e-06 
1.380000000000e+07 1.000000000000e+05 -2.423388919427e-113 1.000000000000e-06 
1.390000000000e+07 1.000000000000e+05 -3.286587407929e-113 1.000000000000e-06 
1.400000000000e+07 1.000000000000e+05 5.881640734954e-113 1.000000000000e-06 
1.410000000000e+07 1.000000000000e+05 1.006043134817e-112 1.000000000000e-06 
1.420000000000e+07 1.000000000000e+05 -1.329049187748e-112 1.000000000000e-06 
1.430000000000e+07 1.000000000000e+05 -3.058143058288e-112 1.000000000000e-06 
1.440000000000e+07 1.000000000000e+05 2.633577179070e-112 1.000000000000e-06 
1.450000000000e+07 1.000000000000e+05 9.065370919159e-112 1.000000000000e-06 
1.460000000000e+07 1.000000000000e+05 -3.794639761096e-112 1.000000000000e-06 
1.470000000000e+07 1.000000000000e+05 -2.576296675646e-111 1.000000000000e-06 
1.480000000000e+07 1.000000000000e+05 -5.247327978586e-113 1.000000000000e-06 
1.490000000000e+07 1.000000000000e+05 6.882430749831e-111 1.000000000000e-06 
1.500000000000e+07 1.000000000000e+05 3.368418518771e-111 1.000000000000e-06 
1.510000000000e+07 1.000000000000e+05 -1.678479899663e-110 1.000000000000e-06 
1.520000000000e+07 1.000000000000e+05 -1.778494815948e-110 1.000000000000e-06 
1.530000000000e+07 1.000000000000e+05 3.528642253977e-110 1.000000000000e-06 
1.540000000000e+07 1.000000000000e+05 6.790831499567e-110 1.000000000000e-06 
1.550000000000e+07 1.000000000000e+05 -5.408769032372e-110 1.000000000000e-06 
1.560000000000e+07 1.000000000000e+05 -2.158678355894e-109 1.000000000000e-06 
1.570000000000e+07 1.000000000000e+05 5.551308190063e-111 1.000000000000e-06 
1.580000000000e+07 1.000000000000e+05 5.831026256370e-109 1.000000000000e-06 
1.590000000000e+07 1.000000000000e+05 3.900997352423e-109 1.000000000000e-06 
1.600000000000e+07 1.000000000000e+05 -1.285350494989e-108 1.000000000000e-06 
1.610000000000e+07 1.000000000000e+05 -2.000225788910e-108 1.000000000000e-06 
1.620000000000e+07 1.000000000000e+05 1.923263003474e-108 1.000000000000e-06 
1.630000000000e+07 1.000000000000e+05 6.885514852203e-108 1.000000000000e-06 
1.640000000000e+07 1.000000000000e+05 4.051120751071e-109 1.000000000000e-06 
1.650000000000e+07 1.000000000000e+05 -1.816183288467e-107 1.000000000000e-06 
1.660000000000e+07 1.000000000000e+05 -1.658142434872e-107 1.000000000000e-06 
1.670000000000e+07 1.000000000000e+05 3.430481866293e-107 1.000000000000e-06 
1.680000000000e+07 1.000000000000e+05 7.529951667803e-107 1.000000000000e-06 
1.690000000000e+07 1.000000000000e+05 -2.316880601392e-107 1.000000000000e-06 
1.700000000000e+07 1.000000000000e+05 -2.241643811047e-106 1.000000000000e-06 
1.710000000000e+07 1.000000000000e+05 -1.525168143382e-106 1.000000000000e-06 
1.720000000000e+07 1.000000000000e+05 4.535638381100e-106 1.000000000000e-06 
1.730000000000e+07 1.000000000000e+05 8.631604543755e-106 1.000000000000e-06 
1.740000000000e+07 1.000000000000e+05 -3.408963539894e-106 1.000000000000e-06 
1.750000000000e+07 1.000000000000e+05 -2.676019387120e-105 1.000000000000e-06 
1.760000000000e+07 1.000000000000e+05 -1.912743281616e-105 1.000000000000e-06 
1.770000000000e+07 1.000000000000e+05 5.141648967010e-105 1.000000000000e-06 
1.780000000000e+07 1.000000000000e+05 1.078133304502e-104 1.000000000000e-06 
1.790000000000e+07 1.000000000000e+05 -1.824936883601e-105 1.000000000000e-06 
1.800000000000e+07 1.000000000000e+05 -3.109140210744e-104 1.000000000000e-06 
1.810000000000e+07 1.000000000000e+05 -3.088134791834e-104 1.000000000000e-06 
1.820000000000e+07 1.000000000000e+05 4.760865614533e-104 1.000000000000e-06 
1.830000000000e+07 1.000000000000e+05 1.396944382212e-103 1.000000000000e-06 
1.840000000000e+07 1.000000000000e+05 4.011045627702e-104 1.000000000000e-06 
1.850000000000e+07 1.000000000000e+05 -3.272704737436e-103 1.000000000000e-06 
1.860000000000e+07 1.000000000000e+05 -5.138718601473e-103 1.000000000000e-06 
1.870000000000e+07 1.000000000000e+05 2.358209759981e-103 1.000000000000e-06 
1.880000000000e+07 1.000000000000e+05 1.685279043300e-102 1.000000000000e-06 
1.890000000000e+07 1.000000000000e+05 1.540010227999e-102 1.000000000000e-06 
1.900000000000e+07 1.000000000000e+05 -2.529082863938e-102 1.000000000000e-06 
1.910000000000e+07 1.000000000000e+05 -7.500281539677e-102 1.000000000000e-06 
1.920000000000e+07 1.000000000000e+05 -3.233691459099e-102 1.000000000000e-06 
1.930000000000e+07 1.000000000000e+05 1.583888125632e-101 1.000000000000e-06 
1.940000000000e+07 1.000000000000e+05 3.045791257203e-101 1.000000000000e-06 
1.950000000000e+07 1.000000000000e+05 -4.412778307423e-103 1.000000000000e-06 
1.960000000000e+07 1.000000000000e+05 -8.278304747605e-101 1.000000000000e-06 
1.970000000000e+07 1.000000000000e+05 -1.162992135992e-100 1.000000000000e-06 
1.980000000000e+07 1.000000000000e+05 5.653475626664e-101 1.000000000000e-06 
1.990000000000e+07 1.000000000000e+05 3.958076240955e-100 1.000000000000e-06 
2.000000000000e+07 1.000000000000e+05 4.271603584999e-100 1.000000000000e-06 
2.010000000000e+07 1.000000000000e+05 -4.363915901221e-100 1.000000000000e-06 
2.020000000000e+07 1.000000000000e+05 -1.805269440324e-99 1.000000000000e-06 
2.030000000000e+07 1.000000000000e+05 -1.545613491564e-99 1.000000000000e-06 
2.040000000000e+07 1.000000000000e+05 2.520421913074e-99 1.000000000000e-06 
2.050000000000e+07 1.000000000000e+05 8.049394507853e-99 1.000000000000e-06 
2.060000000000e+07 1.000000000000e+05 5.682445111308e-99 1.000000000000e-06 
2.070000000000e+07 1.000000000000e+05 -1.284703996356e-98 1.000000000000e-06 
2.080000000000e+07 1.000000000000e+05 -3.564445482756e-98 1.000000000000e-06 
2.090000000000e+07 1.000000000000e+05 -2.207933136724e-98 1.000000000000e-06 
2.100000000000e+07 1.000000000000e+05 6.084320537548e-98 1.000000000000e-06 
2.110000000000e+07 1.000000000000e+05 1.582605596494e-97 1.000000000000e-06 
2.120000000000e+07 1.000000000000e+05 9.409531214401e-98 1.000000000000e-06 
2.130000000000e+07 1.000000000000e+05 -2.728557685867e-97 1.000000000000e-06 
2.140000000000e+07 1.000000000000e+05 -7.073488541734e-97 1.000000000000e-06 
2.150000000000e+07 1.000000000000e+05 -4.456173748645e-97 1.000000000000e-06 
2.160000000000e+07 1.000000000000e+05 1.161611948233e-96 1.000000000000e-06 
2.170000000000e+07 1.000000000000e+05 3.178347294839e-96 1.000000000000e-06 
2.180000000000e+07 1.000000000000e+05 2.296827429886e-96 1.000000000000e-06 
2.190000000000e+07 1.000000000000e+05 -4.639088426644e-96 1.000000000000e-06 
2.200000000000e+07 1.000000000000e+05 -1.426834148127e-95 1.000000000000e-06 
2.210000000000e+07 1.000000000000e+05 -1.239415001909e-95 1.000000000000e-06 
2.220000000000e+07 1.000000000000e+05 1.679227334635e-95 1.000000000000e-06 
2.230000000000e+07 1.000000000000e+05 6.331222857724e-95 1.000000000000e-06 
2.240000000000e+07 1.000000000000e+05 6.753314372109e-95 1.000000000000e-06 
2.250000000000e+07 1.000000000000e+05 -5.007766519800e-95 1.000000000000e-06 
2.260000000000e+07 1.000000000000e+05 -2.733971435366e-94 1.000000000000e-06 
2.270000000000e+07 1.000000000000e+05 -3.619380912481e-94 1.000000000000e-06 
2.280000000000e+07 1.000000000000e+05 7.755332911641e-95 1.000000000000e-06 
2.290000000000e+07 1.000000000000e+05 1.123214387785e-93 1.000000000000e-06 
2.300000000000e+07 1.000000000000e+05 1.872542125622e-93 1.000000000000e-06 
2.310000000000e+07 1.000000000000e+05 4.501342944736e-94 1.000000000000e-06 
2.320000000000e+07 1.000000000000e+05 -4.228808680709e-93 1.000000000000e-06 
2.330000000000e+07 1.000000000000e+05 -9.202010327222e-93 1.000000000000e-06 
2.340000000000e+07 1.000000000000e+05 -6.010139490593e-93 1.000000000000e-06 
2.350000000000e+07 1.000000000000e+05 1.346504753246e-92 1.000000000000e-06 
2.360000000000e+07 1.000000000000e+05 4.214686225823e-92 1.000000000000e-06 
2.370000000000e+07 1.000000000000e+05 4.487574298445e-92 1.000000000000e-06 
2.380000000000e+07 1.000000000000e+05 -2.714962366693e-92 1.000000000000e-06 
2.390000000000e+07 1.000000000000e+05 -1.746808615683e-91 1.000000000000e-06 
2.400000000000e+07 1.000000000000e+05 -2.691582174601e-91 1.000000000000e-06 
2.410000000000e+07 1.000000000000e+05 -5.718565239430e-92 1.000000000000e-06 
2.420000000000e+07 1.000000000000e+05 6.167143075325e-91 1.000000000000e-06 
2.430000000000e+07 1.000000000000e+05 1.384301530925e-90 1.000000000000e-06 
2.440000000000e+07 1.000000000000e+05 1.099714697806e-90 1.000000000000e-06 
2.450000000000e+07 1.000000000000e+05 -1.542407811293e-90 1.000000000000e-06 
2.460000000000e+07 1.000000000000e+05 -6.104805413396e-90 1.000000000000e-06 
2.470000000000e+07 1.000000000000e+05 -8.224152727612e-90 1.000000000000e-06 
2.480000000000e+07 1.000000000000e+05 -2.279920502433e-91 1.000000000000e-06 
2.490000000000e+07 1.000000000000e+05 2.185850010693e-89 1.000000000000e-06 
2.500000000000e+07 1.000000000000e+05 4.568947872047e-89 1.000000000000e-06 
2.510000000000e+07 1.000000000000e+05 3.528948486612e-89 1.000000000000e-06 
2.520000000000e+07 1.000000000000e+05 -5.064373359573e-89 1.000000000000e-06 
2.530000000000e+07 1.000000000000e+05 -2.017035504775e-88 1.000000000000e-06 
2.540000000000e+07 1.000000000000e+05 -2.859254045298e-88 1.000000000000e-06 
2.550000000000e+07 1.000000000000e+05 -5.500975100407e-89 1.000000000000e-06 
2.560000000000e+07 1.000000000000e+05 6.603199134824e-88 1.000000000000e-06 
2.570000000000e+07 1.000000000000e+05 1.553982422583e-87 1.000000000000e-06 
2.580000000000e+07 1.000000000000e+05 1.524931110728e-87 1.000000000000e-06 
2.590000000000e+07 1.000000000000e+05 -9.524845262620e-88 1.000000000000e-06 
2.600000000000e+07 1.000000000000e+05 -6.196425653886e-87 1.000000000000e-06 
2.610000000000e+07 1.000000000000e+05 -1.081145553565e-86 1.000000000000e-06 
2.620000000000e+07 1.000000000000e+05 -6.629577962613e-87 1.000000000000e-06 
2.630000000000e+07 1.000000000000e+05 1.494361651720e-86 1.000000000000e-06 
2.640000000000e+07 1.000000000000e+05 5.073456178575e-86 1.000000000000e-06 
2.650000000000e+07 1.000000000000e+05 7.083365787202e-86 1.000000000000e-06 
2.660000000000e+07 1.000000000000e+05 1.824318851028e-86 1.000000000000e-06 
2.670000000000e+07 1.000000000000e+05 -1.522908958603e-85 1.000000000000e-06 
2.680000000000e+07 1.000000000000e+05 -3.880913887710e-85 1.000000000000e-06 
2.690000000000e+07 1.000000000000e+05 -4.513786390622e-85 1.000000000000e-06 
2.700000000000e+07 1.000000000000e+05 4.541625467619e-86 1.000000000000e-06 
2.710000000000e+07 1.000000000000e+05 1.330449181474e-84 1.000000000000e-06 
2.720000000000e+07 1.000000000000e+05 2.876898513050e-84 1.000000000000e-06 
2.730000000000e+07 1.000000000000e+05 2.889804747332e-84 1.000000000000e-06 
2.740000000000e+07 1.000000000000e+05 -1.268214776224e-84 1.000000000000e-06 
2.750000000000e+07 1.000000000000e+05 -1.075839398388e-83 1.000000000000e-06 
2.760000000000e+07 1.000000000000e+05 -2.115242919095e-83 1.000000000000e-06 
2.770000000000e+07 1.000000000000e+05 -1.924603765449e-83 1.000000000000e-06 
2.780000000000e+07 1.000000000000e+05 1.329101994391e-83 1.000000000000e-06 
2.790000000000e+07 1.000000000000e+05 8.313013927702e-83 1.000000000000e-06 
2.800000000000e+07 1.000000000000e+05 1.564946587585e-82 1.000000000000e-06 
2.810000000000e+07 1.000000000000e+05 1.374739516892e-82 1.000000000000e-06 
2.820000000000e+07 1.000000000000e+05 -1.056447657194e-82 1.000000000000e-06 
2.830000000000e+07 1.000000000000e+05 -6.218977410273e-82 1.000000000000e-06 
2.840000000000e+07 1.000000000000e+05 -1.172391736561e-81 1.000000000000e-06 
2.850000000000e+07 1.000000000000e+05 -1.066572859132e-81 1.000000000000e-06 
2.860000000000e+07 1.000000000000e+05 6.756201708806e-82 1.000000000000e-06 
2.870000000000e+07 1.000000000000e+05 4.508978352419e-81 1.000000000000e-06 
2.880000000000e+07 1.000000000000e+05 8.877547573503e-81 1.000000000000e-06 
2.890000000000e+07 1.000000000000e+05 8.874317841696e-81 1.000000000000e-06 
2.900000000000e+07 1.000000000000e+05 -2.984654757765e-81 1.000000000000e-06 
2.910000000000e+07 1.000000000000e+05 -3.136285653781e-80 1.000000000000e-06 
2.920000000000e+07 1.000000000000e+05 -6.731301439049e-80 1.000000000000e-06 
2.930000000000e+07 1.000000000000e+05 -7.685965652663e-80 1.000000000000e-06 
2.940000000000e+07 1.000000000000e+05 -2.339052681114e-81 1.000000000000e-06 
2.950000000000e+07 1.000000000000e+05 2.040357821853e-79 1.000000000000e-06 
2.960000000000e+07 1.000000000000e+05 5.029095247420e-79 1.000000000000e-06 
2.970000000000e+07 1.000000000000e+05 6.704358533719e-79 1.000000000000e-06 
2.980000000000e+07 1.000000000000e+05 2.679904382448e-79 1.000000000000e-06 
2.990000000000e+07 1.000000000000e+05 -1.172468211247e-78 1.000000000000e-06 
3.000000000000e+07 1.000000000000e+05 -3.616436763722e-78 1.000000000000e-06 
3.010000000000e+07 1.000000000000e+05 -5.721012458226e-78 1.000000000000e-06 
3.020000000000e+07 1.000000000000e+05 -4.277213401291e-78 1.000000000000e-06 
3.030000000000e+07 1.000000000000e+05 5.014589689780e-78 1.000000000000e-06 
3.040000000000e+07 1.000000000000e+05 2.415145975795e-77 1.000000000000e-06 
3.050000000000e+07 1.000000000000e+05 4.651716492325e-77 1.000000000000e-06 
3.060000000000e+07 1.000000000000e+05 5.029992146204e-77 1.000000000000e-06 
3.070000000000e+07 1.000000000000e+05 -1.033665473128e-78 1.000000000000e-06 
3.080000000000e+07 1.000000000000e+05 -1.400293323319e-76 1.000000000000e-06 
3.090000000000e+07 1.000000000000e+05 -3.498516082550e-76 1.000000000000e-06 
3.100000000000e+07 1.000000000000e+05 -5.006415354052e-76 1.000000000000e-06 
3.110000000000e+07 1.000000000000e+05 -3.109609377053e-76 1.000000000000e-06 
3.120000000000e+07 1.000000000000e+05 5.794808048938e-76 1.000000000000e-06 
3.130000000000e+07 1.000000000000e+05 2.323891980269e-75 1.000000000000e-06 
3.140000000000e+07 1.000000000000e+05 4.340335524409e-75 1.000000000000e-06 
3.150000000000e+07 1.000000000000e+05 4.737571159937e-75 1.000000000000e-06 
3.160000000000e+07 1.000000000000e+05 2.664856357977e-76 1.000000000000e-06 
3.170000000000e+07 1.000000000000e+05 -1.227225199855e-74 1.000000000000e-06 
3.180000000000e+07 1.000000000000e+05 -3.231061607381e-74 1.000000000000e-06 
3.190000000000e+07 1.000000000000e+05 -4.977028054594e-74 1.000000000000e-06 
3.200000000000e+07 1.000000000000e+05 -4.027448068301e-74 1.000000000000e-06 
3.210000000000e+07 1.000000000000e+05 3.181738176251e-74 1.000000000000e-06 
3.220000000000e+07 1.000000000000e+05 1.928250542577e-73 1.000000000000e-06 
3.230000000000e+07 1.000000000000e+05 4.147738822672e-73 1.000000000000e-06 
3.240000000000e+07 1.000000000000e+05 5.541313525752e-73 1.000000000000e-06 
3.250000000000e+07 1.000000000000e+05 3.132214365535e-73 1.000000000000e-06 
3.260000000000e+07 1.000000000000e+05 -6.963356032199e-73 1.000000000000e-06 
3.270000000000e+07 1.000000000000e+05 -2.685561666872e-72 1.000000000000e-06 
3.280000000000e+07 1.000000000000e+05 -5.158799976797e-72 1.000000000000e-06 
3.290000000000e+07 1.000000000000e+05 -6.247041068794e-72 1.000000000000e-06 
3.300000000000e+07 1.000000000000e+05 -2.376846048739e-72 1.000000000000e-06 
3.310000000000e+07 1.000000000000e+05 1.081678712955e-71 1.000000000000e-06 
3.320000000000e+07 1.000000000000e+05 3.520580756782e-71 1.000000000000e-06 
3.330000000000e+07 1.000000000000e+05 6.395623128521e-71 1.000000000000e-06 
3.340000000000e+07 1.000000000000e+05 7.390800002649e-71 1.000000000000e-06 
3.350000000000e+07 1.000000000000e+05 2.202902203709e-71 1.000000000000e-06 
3.360000000000e+07 1.000000000000e+05 -1.436077496965e-70 1.000000000000e-06 
3.370000000000e+07 1.000000000000e+05 -4.451879941704e-70 1.000000000000e-06 
3.380000000000e+07 1.000000000000e+05 -8.016993096732e-70 1.000000000000e-06 
3.390000000000e+07 1.000000000000e+05 -9.364188272135e-70 1.000000000000e-06 
3.400000000000e+07 1.000000000000e+05 -3.262781561026e-70 1.000000000000e-06 
3.410000000000e+07 1.000000000000e+05 1.686139791494e-69 1.000000000000e-06 
3.420000000000e+07 1.000000000000e+05 5.456719975397e-69 1.000000000000e-06 
3.430000000000e+07 1.000000000000e+05 1.016829084078e-68 1.000000000000e-06 
3.440000000000e+07 1.000000000000e+05 1.265101839907e-68 1.000000000000e-06 
3.450000000000e+07 1.000000000000e+05 6.533810733693e-69 1.000000000000e-06 
3.460000000000e+07 1.000000000000e+05 -1.689051299302e-68 1.000000000000e-06 
3.470000000000e+07 1.000000000000e+05 -6.405041045936e-68 1.000000000000e-06 
3.480000000000e+07 1.000000000000e+05 -1.288954049858e-67 1.000000000000e-06 
3.490000000000e+07 1.000000000000e+05 -1.775392356027e-67 1.000000000000e-06 
3.500000000000e+07 1.000000000000e+05 -1.337790289259e-67 1.000000000000e-06 
3.510000000000e+07 1.000000000000e+05 1.192522124933e-67 1.000000000000e-06 
3.520000000000e+07 1.000000000000e+05 6.957676343341e-67 1.000000000000e-06 
3.530000000000e+07 1.000000000000e+05 1.593194585513e-66 1.000000000000e-06 
3.540000000000e+07 1.000000000000e+05 2.495352210302e-66 1.000000000000e-06 
3.550000000000e+07 1.000000000000e+05 2.537805577907e-66 1.000000000000e-06 
3.560000000000e+07 1.000000000000e+05 1.899460193760e-67 1.000000000000e-06 
3.570000000000e+07 1.000000000000e+05 -6.440843611187e-66 1.000000000000e-06 
3.580000000000e+07 1.000000000000e+05 -1.845320680792e-65 1.000000000000e-06 
3.590000000000e+07 1.000000000000e+05 -3.377066263979e-65 1.000000000000e-06 
3.600000000000e+07 1.000000000000e+05 -4.364606047685e-65 1.000000000000e-06 
3.610000000000e+07 1.000000000000e+05 -2.934984976067e-65 1.000000000000e-06 
3.620000000000e+07 1.000000000000e+05 3.765609331878e-65 1.000000000000e-06 
3.630000000000e+07 1.000000000000e+05 1.863478403861e-64 1.000000000000e-06 
3.640000000000e+07 1.000000000000e+05 4.204745134308e-64 1.000000000000e-06 
3.650000000000e+07 1.000000000000e+05 6.720226340155e-64 1.000000000000e-06 
3.660000000000e+07 1.000000000000e+05 7.399176552510e-64 1.000000000000e-06 
3.670000000000e+07 1.000000000000e+05 2.431889520471e-64 1.000000000000e-06 
3.680000000000e+07 1.000000000000e+05 -1.345890194487e-63 1.000000000000e-06 
3.690000000000e+07 1.000000000000e+05 -4.482871094777e-63 1.000000000000e-06 
3.700000000000e+07 1.000000000000e+05 -9.023723293346e-63 1.000000000000e-06 
3.710000000000e+07 1.000000000000e+05 -1.332564287465e-62 1.000000000000e-06 
3.720000000000e+07 1.000000000000e+05 -1.312427126824e-62 1.000000000000e-06 
3.730000000000e+07 1.000000000000e+05 -7.735991407790e-64 1.000000000000e-06 
3.740000000000e+07 1.000000000000e+05 3.389041087221e-62 1.000000000000e-06 
3.750000000000e+07 1.000000000000e+05 9.905679551712e-62 1.000000000000e-06 
3.760000000000e+07 1.000000000000e+05 1.904934262042e-61 1.000000000000e-06 
3.770000000000e+07 1.000000000000e+05 2.738962379284e-61 1.000000000000e-06 
3.780000000000e+07 1.000000000000e+05 2.626660795303e-61 1.000000000000e-06 
3.790000000000e+07 1.000000000000e+05 1.934504779013e-63 1.000000000000e-06 
3.800000000000e+07 1.000000000000e+05 -7.173402119110e-61 1.000000000000e-06 
3.810000000000e+07 1.000000000000e+05 -2.075061009716e-60 1.000000000000e-06 