 TITLE = "Time curves in points"
 VARIABLES = "TIME "  "TEMPERATURE1"  "DISPLACEMENT_X1"  "DISPLACEMENT_Y1"  "STRESS_XX"  "STRESS_XY"  "STRESS_YY"  "STRESS_ZZ"  "STRAIN_XX"  "STRAIN_XY"  "STRAIN_YY"  "STRAIN_ZZ"  "STRAIN_PLS"  p_(1st_Invariant)  q_(2nd_Invariant)   Effective_Strain
 ZONE T="POINT=POINT8"
0.000000000000e+00 2.981500000000e+02 0.000000000000e+00 0.000000000000e+00 0.000000000000e+00 0.000000000000e+00 0.000000000000e+00 0.000000000000e+00 0.000000000000e+00 0.000000000000e+00 0.000000000000e+00 0.000000000000e+00 0.000000000000e+00 -0.000000000000e+00 0.000000000000e+00  0.000000000000e+00
1.000000000000e-01 3.080000000000e+02 0.000000000000e+00 -2.782330252595e-08 -2.689821096806e+05 -6.795907165425e+01 -2.124571229778e+06 -2.123759401654e+06 9.422268643222e-05 -6.904641680072e-09 -4.124086870339e-08 0.000000000000e+00 0.000000000000e+00 1.505770913704e+06 1.855183342990e+06  9.424331439299e-05
2.000000000000e-01 3.080000000000e+02 0.000000000000e+00 -6.336074059602e-08 -3.267730348196e+05 -5.962903092363e+00 -2.144438838652e+06 -2.144727205837e+06 9.235207188771e-05 -6.058309541841e-10 1.464905299790e-08 0.000000000000e+00 0.000000000000e+00 1.538646359770e+06 1.817810004609e+06  9.234474823861e-05
3.000000000000e-01 3.080000000000e+02 0.000000000000e+00 -6.023029380111e-08 -3.975993785306e+05 -6.935162511432e+00 -2.170654187098e+06 -2.170928462720e+06 9.008511747680e-05 -7.046125111615e-10 1.393320160104e-08 0.000000000000e+00 0.000000000000e+00 1.579727342783e+06 1.773191962328e+06  9.007815169246e-05
4.000000000000e-01 3.080000000000e+02 0.000000000000e+00 -5.116533116634e-08 -4.561652036334e+05 -6.565405358836e+00 -2.192414241727e+06 -2.192616450247e+06 8.821172332798e-05 -6.670451844577e-10 1.027219284882e-08 0.000000000000e+00 0.000000000000e+00 1.613731965202e+06 1.736350151221e+06  8.820658768772e-05
5.000000000000e-01 3.080000000000e+02 0.000000000000e+00 -4.178862886321e-08 -5.108177994935e+05 2.417252318035e+01 -2.212607878224e+06 -2.212824932984e+06 8.646196238130e-05 2.455928355124e-09 1.102638179618e-08 0.000000000000e+00 0.000000000000e+00 1.645416870234e+06 1.701898617006e+06  8.645644982240e-05
6.000000000000e-01 3.080000000000e+02 0.000000000000e+00 -3.884523317629e-08 -5.591921944737e+05 4.320903956985e+00 -2.230615669450e+06 -2.230748123259e+06 8.491504118231e-05 4.390038420297e-10 6.728653528011e-09 0.000000000000e+00 0.000000000000e+00 1.673518662394e+06 1.671489705834e+06  8.491167705890e-05
7.000000000000e-01 3.080000000000e+02 0.000000000000e+00 -3.004255580908e-08 -6.033394351310e+05 -2.257984471471e+00 -2.247057674748e+06 -2.247107219667e+06 8.350340345444e-05 -2.294112223014e-10 2.516881906817e-09 0.000000000000e+00 0.000000000000e+00 1.699168109849e+06 1.643743012641e+06  8.350214504288e-05
8.000000000000e-01 3.080000000000e+02 0.000000000000e+00 -2.286182005470e-08 -6.455534605764e+05 2.991734232895e+00 -2.262568478958e+06 -2.262692923674e+06 8.215068472537e-05 3.039601980621e-10 6.321791583976e-09 0.000000000000e+00 0.000000000000e+00 1.723604954403e+06 1.617077244339e+06  8.214752401371e-05
9.000000000000e-01 3.080000000000e+02 0.000000000000e+00 -2.020283232507e-08 -6.851713803102e+05 6.631849488739e+00 -2.277043716459e+06 -2.277298076128e+06 8.088003614753e-05 6.737959080559e-10 1.292147117692e-08 0.000000000000e+00 0.000000000000e+00 1.746504390966e+06 1.591999531264e+06  8.087357619455e-05
1.000000000000e+00 3.080000000000e+02 0.000000000000e+00 -1.802082364395e-08 -7.221136501290e+05 -7.730917269323e-01 -2.290941960804e+06 -2.291025014952e+06 7.970069733301e-05 -7.854611945632e-11 4.219150712329e-09 0.000000000000e+00 0.000000000000e+00 1.768026875295e+06 1.568869839398e+06  7.969858784153e-05
