 TITLE = "Time curves in points"
 VARIABLES = "TIME "  "TEMPERATURE1"  "DISPLACEMENT_X1"  "DISPLACEMENT_Y1"  "STRESS_XX"  "STRESS_XY"  "STRESS_YY"  "STRESS_ZZ"  "STRAIN_XX"  "STRAIN_XY"  "STRAIN_YY"  "STRAIN_ZZ"  "STRAIN_PLS"  p_(1st_Invariant)  q_(2nd_Invariant)   Effective_Strain
 ZONE T="POINT=POINT7"
0.000000000000e+00 2.981500000000e+02 0.000000000000e+00 0.000000000000e+00 0.000000000000e+00 0.000000000000e+00 0.000000000000e+00 0.000000000000e+00 0.000000000000e+00 0.000000000000e+00 0.000000000000e+00 0.000000000000e+00 0.000000000000e+00 -0.000000000000e+00 0.000000000000e+00  0.000000000000e+00
1.000000000000e-01 2.981481874324e+02 7.774324092249e-09 7.738500181820e-09 -1.853949820599e+05 -1.464841956047e+02 -6.830009075975e+04 -6.822578451872e+04 -5.952195235091e-06 -1.488279427344e-08 -3.774757044338e-09 0.000000000000e+00 0.000000000000e+00 1.073069524461e+05 1.171323368848e+05  5.950364591119e-06
2.000000000000e-01 2.981588244055e+02 3.155260813060e-09 3.057543574397e-08 -3.156967858348e+05 -1.666370695781e+02 -1.190473786246e+05 -1.187045852332e+05 -1.000720379056e-05 -1.693032626914e-08 -1.741390428167e-08 0.000000000000e+00 0.000000000000e+00 1.844829165642e+05 1.968212394138e+05  9.998551213492e-06
3.000000000000e-01 2.981408143462e+02 1.203242601785e-09 2.210735887534e-08 -3.915562866611e+05 -1.081130711828e+02 -1.432179841300e+05 -1.430112050392e+05 -1.262609014639e-05 -1.098428803217e-08 -1.050437781560e-08 0.000000000000e+00 0.000000000000e+00 2.259284919434e+05 2.484418271856e+05  1.262085557596e-05
4.000000000000e-01 2.981423762000e+02 -6.198361287155e-10 1.373452478887e-08 -4.545985809375e+05 -7.909758728743e+01 -1.667853183765e+05 -1.666300828220e+05 -1.462879970427e-05 -8.036314868403e-09 -7.885966167900e-09 0.000000000000e+00 0.000000000000e+00 2.626713273786e+05 2.878909443258e+05  1.462486493967e-05
5.000000000000e-01 2.981525810825e+02 -2.666924437609e-09 8.171102048396e-09 -5.095690140112e+05 -7.447982639859e+01 -1.890984433027e+05 -1.890273758455e+05 -1.628351521882e-05 -7.567150362096e-09 -3.610226826121e-09 0.000000000000e+00 0.000000000000e+00 2.958982777198e+05 3.205061363081e+05  1.628171568100e-05
6.000000000000e-01 2.981603599934e+02 -2.392490255938e-09 6.339834377441e-09 -5.583342338540e+05 -5.212725604917e+01 -2.088005335347e+05 -2.086803862073e+05 -1.776241546045e-05 -5.296129214596e-09 -6.103484232288e-09 0.000000000000e+00 0.000000000000e+00 3.252717178654e+05 3.495938011264e+05  1.775936687403e-05
7.000000000000e-01 2.981616063537e+02 -1.244887418971e-09 2.985934116071e-09 -6.032623166433e+05 -1.239991280028e+01 -2.255913305594e+05 -2.255314378009e+05 -1.918872864519e-05 -1.259831140509e-09 -3.042552133185e-09 0.000000000000e+00 0.000000000000e+00 3.514616950012e+05 3.777009366352e+05  1.918720767413e-05
8.000000000000e-01 2.981567524495e+02 -2.005225149886e-09 -2.776525898409e-10 -6.449845893649e+05 -2.133212371142e+01 -2.400280552989e+05 -2.399662814821e+05 -2.057493004044e-05 -2.167343769080e-09 -3.138109894994e-09 0.000000000000e+00 0.000000000000e+00 3.749929753820e+05 4.049874261932e+05  2.057336150748e-05
9.000000000000e-01 2.981481305803e+02 -2.149634065514e-09 -7.273283495860e-10 -6.846509663883e+05 -2.237189624536e+01 -2.529086691338e+05 -2.528606886400e+05 -2.193494610962e-05 -2.272984658528e-09 -2.437409085372e-09 0.000000000000e+00 0.000000000000e+00 3.968067747207e+05 4.317662912397e+05  2.193372785997e-05
1.000000000000e+00 2.981384398368e+02 -1.485253165259e-09 -9.909902879656e-10 -7.220447093635e+05 -9.615369295666e+00 -2.647225969155e+05 -2.646931482192e+05 -2.323345930613e-05 -9.769215204396e-10 -1.495993774556e-09 0.000000000000e+00 0.000000000000e+00 4.171534848327e+05 4.573368378104e+05  2.323271140698e-05
