 TITLE = "Time curves in points"
 VARIABLES = "TIME "  "TEMPERATURE1"  "DISPLACEMENT_X1"  "DISPLACEMENT_Y1"  "STRESS_XX"  "STRESS_XY"  "STRESS_YY"  "STRESS_ZZ"  "STRAIN_XX"  "STRAIN_XY"  "STRAIN_YY"  "STRAIN_ZZ"  "STRAIN_PLS"  p_(1st_Invariant)  q_(2nd_Invariant)   Effective_Strain
 ZONE T="POINT=POINT3"
0.000000000000e+00 2.981500000000e+02 0.000000000000e+00 0.000000000000e+00 0.000000000000e+00 0.000000000000e+00 0.000000000000e+00 0.000000000000e+00 0.000000000000e+00 0.000000000000e+00 0.000000000000e+00 0.000000000000e+00 0.000000000000e+00 -0.000000000000e+00 0.000000000000e+00  0.000000000000e+00
1.000000000000e-01 2.981481874325e+02 9.433453515854e-08 0.000000000000e+00 -1.058447285318e+05 -1.359555129863e+02 -4.834573717217e+04 -4.135954061280e+04 -3.275847546283e-06 -1.381308011940e-08 -3.548987852160e-07 0.000000000000e+00 0.000000000000e+00 6.518333543891e+04 6.129188899882e+04  3.113696899676e-06
2.000000000000e-01 2.981588244054e+02 3.816876705477e-08 0.000000000000e+00 -3.334343172411e+05 7.065249162856e+01 -1.222871637410e+05 -1.243684606756e+05 -1.062054551353e-05 7.178293149462e-09 1.057298842752e-07 0.000000000000e+00 0.000000000000e+00 1.933633138859e+05 2.101142719573e+05  1.067381044638e-05
3.000000000000e-01 2.981408143461e+02 3.168283083902e-08 0.000000000000e+00 -4.005190954945e+05 1.722302674513e+01 -1.449555618810e+05 -1.459003094130e+05 -1.293463433294e-05 1.749859517305e-09 4.799317462409e-08 0.000000000000e+00 0.000000000000e+00 2.304583222628e+05 2.550924736897e+05  1.295869792926e-05
4.000000000000e-01 2.981423762000e+02 2.720332112010e-08 0.000000000000e+00 -4.562752058861e+05 -9.352608402212e+00 -1.669950998274e+05 -1.671394125456e+05 -1.468809830170e-05 -9.502250136648e-10 7.331086086493e-09 0.000000000000e+00 0.000000000000e+00 2.634699060864e+05 2.892079771574e+05  1.469176530874e-05
5.000000000000e-01 2.981525810824e+02 2.350903562721e-08 0.000000000000e+00 -5.143145279603e+05 2.761510869081e+01 -1.900295055227e+05 -1.905600514074e+05 -1.644672740889e-05 2.805695042986e-09 2.695173094475e-08 0.000000000000e+00 0.000000000000e+00 2.983013616301e+05 3.240200787914e+05  1.646022054062e-05
6.000000000000e-01 2.981603599934e+02 2.027477940245e-08 0.000000000000e+00 -5.588301711351e+05 2.855309143988e-01 -2.087144566558e+05 -2.087910485136e+05 -1.778198742917e-05 2.900994090292e-11 3.890866377128e-09 0.000000000000e+00 0.000000000000e+00 3.254452254348e+05 3.500774248348e+05  1.778393318166e-05
7.000000000000e-01 2.981616063537e+02 1.502697571759e-08 0.000000000000e+00 -6.032518431199e+05 1.705953487767e+01 -2.254207845516e+05 -2.254825625271e+05 -1.919067945411e-05 1.733248743571e-09 3.138321153255e-09 0.000000000000e+00 0.000000000000e+00 3.513850633995e+05 3.778001745242e+05  1.919224904192e-05
8.000000000000e-01 2.981567524492e+02 1.197187259021e-08 0.000000000000e+00 -6.448385192604e+05 1.039142930862e+01 -2.398372483477e+05 -2.398753246355e+05 -2.057213028695e-05 1.055769217756e-09 1.934275421569e-09 0.000000000000e+00 0.000000000000e+00 3.748503640812e+05 4.049822345113e+05  2.057309757412e-05
9.000000000000e-01 2.981481305797e+02 8.822998246925e-09 0.000000000000e+00 -6.840304091981e+05 -6.322663475270e+00 -2.526685296026e+05 -2.526283004353e+05 -2.191522712515e-05 -6.423826090874e-10 -2.043641696985e-09 0.000000000000e+00 0.000000000000e+00 3.964424130786e+05 4.313819957250e+05  2.191420540401e-05
1.000000000000e+00 2.981384398360e+02 7.440244714064e-09 0.000000000000e+00 -7.219933542487e+05 1.308289605204e+01 -2.645776273732e+05 -2.646401404421e+05 -2.323354326138e-05 1.329222238887e-09 3.175663897865e-09 0.000000000000e+00 0.000000000000e+00 4.170703740213e+05 4.573844741064e+05  2.323513137015e-05
