 TITLE = "Time curves in points"
 VARIABLES = "TIME "  "TEMPERATURE1"  "DISPLACEMENT_X1"  "DISPLACEMENT_Y1"  "STRESS_XX"  "STRESS_XY"  "STRESS_YY"  "STRESS_ZZ"  "STRAIN_XX"  "STRAIN_XY"  "STRAIN_YY"  "STRAIN_ZZ"  "STRAIN_PLS"  p_(1st_Invariant)  q_(2nd_Invariant)   Effective_Strain
 ZONE T="POINT=POINT2"
0.000000000000e+00 2.981500000000e+02 0.000000000000e+00 0.000000000000e+00 0.000000000000e+00 0.000000000000e+00 0.000000000000e+00 0.000000000000e+00 0.000000000000e+00 0.000000000000e+00 0.000000000000e+00 0.000000000000e+00 0.000000000000e+00 -0.000000000000e+00 0.000000000000e+00  0.000000000000e+00
1.000000000000e-01 2.981481874324e+02 -2.576215049408e-08 0.000000000000e+00 -1.741329261323e+05 8.338840524291e+02 -6.155614282701e+04 -6.336416347459e+04 -5.627053143013e-06 8.472261972680e-08 9.184744889684e-08 0.000000000000e+00 0.000000000000e+00 9.968441081131e+04 1.116930884935e+05  5.675431901717e-06
2.000000000000e-01 2.981588244055e+02 -2.821051225047e-08 0.000000000000e+00 -3.245378726898e+05 1.534914539545e+02 -1.189490438072e+05 -1.210651282860e+05 -1.033641541571e-05 1.559473172178e-08 1.074970915245e-07 0.000000000000e+00 0.000000000000e+00 1.881840149277e+05 2.045391691679e+05  1.039061612475e-05
3.000000000000e-01 2.981408143462e+02 -2.658653311012e-08 0.000000000000e+00 -3.943193921668e+05 1.626537481037e+01 -1.426728420164e+05 -1.436100551576e+05 -1.273603432007e-05 1.652562080734e-09 4.761042756963e-08 0.000000000000e+00 0.000000000000e+00 2.268674297803e+05 2.511792565301e+05  1.275990647251e-05
4.000000000000e-01 2.981423762001e+02 -2.528317236220e-08 0.000000000000e+00 -4.558349280090e+05 -2.427364218899e+01 -1.662993296664e+05 -1.668326795806e+05 -1.468131422016e-05 -2.466202046401e-09 2.709417564320e-08 0.000000000000e+00 0.000000000000e+00 2.629889790853e+05 2.892692952092e+05  1.469488066226e-05
5.000000000000e-01 2.981525810825e+02 -2.500340910286e-08 0.000000000000e+00 -5.117832017931e+05 -1.091269840836e+02 -1.888530640643e+05 -1.895589541532e+05 -1.636899178011e-05 -1.108730158290e-08 3.585921651576e-08 0.000000000000e+00 0.000000000000e+00 2.967317400035e+05 3.225778273175e+05  1.638696206702e-05
6.000000000000e-01 2.981603599934e+02 -2.157429619573e-08 0.000000000000e+00 -5.590769637119e+05 -2.104283590457e+01 -2.084475836087e+05 -2.087856267900e+05 -1.779479991563e-05 -2.137952127904e-09 1.717259360970e-08 0.000000000000e+00 0.000000000000e+00 3.254367247035e+05 3.504604826825e+05  1.780339280910e-05
7.000000000000e-01 2.981616063537e+02 -1.500741519116e-08 0.000000000000e+00 -6.034748869876e+05 4.715600241750e-01 -2.254434368542e+05 -2.255489004947e+05 -1.919864011384e-05 4.791049845617e-11 5.357552935701e-09 0.000000000000e+00 0.000000000000e+00 3.514890747788e+05 3.779787293489e+05  1.920131945106e-05
8.000000000000e-01 2.981567524493e+02 -1.339379692254e-08 0.000000000000e+00 -6.453512026098e+05 3.962505075543e+00 -2.398891385796e+05 -2.400277595201e+05 -2.059043090896e-05 4.025905156751e-10 7.041943774850e-09 0.000000000000e+00 0.000000000000e+00 3.750893669032e+05 4.053927713932e+05  2.059395279563e-05
9.000000000000e-01 2.981481305801e+02 -1.152531606311e-08 0.000000000000e+00 -6.848379416253e+05 -3.487211104593e+00 -2.527883575226e+05 -2.528786877849e+05 -2.194353009509e-05 -3.543006482266e-10 4.588777326598e-09 0.000000000000e+00 0.000000000000e+00 3.968349956443e+05 4.320044260967e+05  2.194582485215e-05
1.000000000000e+00 2.981384398366e+02 -8.498133466972e-09 0.000000000000e+00 -7.222815597997e+05 -2.432151486586e+00 -2.646540936837e+05 -2.647386019248e+05 -2.324318226005e-05 -2.471065910371e-10 4.293018647433e-09 0.000000000000e+00 0.000000000000e+00 4.172247518027e+05 4.575852178676e+05  2.324532907063e-05
