 TITLE = "Time curves in points"
 VARIABLES = "TIME "  "TEMPERATURE1"  "DISPLACEMENT_X1"  "DISPLACEMENT_Y1"  "STRESS_XX"  "STRESS_XY"  "STRESS_YY"  "STRESS_ZZ"  "STRAIN_XX"  "STRAIN_XY"  "STRAIN_YY"  "STRAIN_ZZ"  "STRAIN_PLS"  p_(1st_Invariant)  q_(2nd_Invariant)   Effective_Strain
 ZONE T="POINT=POINT6"
0.000000000000e+00 2.981500000000e+02 0.000000000000e+00 0.000000000000e+00 0.000000000000e+00 0.000000000000e+00 0.000000000000e+00 0.000000000000e+00 0.000000000000e+00 0.000000000000e+00 0.000000000000e+00 0.000000000000e+00 0.000000000000e+00 -0.000000000000e+00 0.000000000000e+00  0.000000000000e+00
1.000000000000e-01 3.080000000000e+02 0.000000000000e+00 5.209055359482e-08 -2.683618616002e+05 2.916245569156e+01 -2.123195600001e+06 -2.123220514632e+06 9.422681957403e-05 2.962905498262e-09 1.265663243787e-09 0.000000000000e+00 0.000000000000e+00 1.504925992078e+06 1.854846196530e+06  9.422618688853e-05
2.000000000000e-01 3.080000000000e+02 0.000000000000e+00 2.021336530789e-08 -3.264723884891e+05 -3.536433109212e+00 -2.144152676328e+06 -2.144568767501e+06 9.235929605379e-05 -3.593016038960e-10 2.113743155927e-08 0.000000000000e+00 0.000000000000e+00 1.538397944106e+06 1.817888369150e+06  9.234872915439e-05
3.000000000000e-01 3.080000000000e+02 0.000000000000e+00 1.396161474343e-08 -3.974221769027e+05 -6.864854059963e+00 -2.170592394406e+06 -2.170863934253e+06 9.009084127342e-05 -6.974691724922e-10 1.379422423481e-08 0.000000000000e+00 0.000000000000e+00 1.579626168521e+06 1.773306003059e+06  9.008394496150e-05
4.000000000000e-01 3.080000000000e+02 0.000000000000e+00 1.218967825241e-08 -4.560664623402e+05 -3.988926714126e+00 -2.192395662482e+06 -2.192584773702e+06 8.821513021718e-05 -4.052749541551e-10 9.606849980343e-09 0.000000000000e+00 0.000000000000e+00 1.613682299508e+06 1.736423763489e+06  8.821032718733e-05
5.000000000000e-01 3.080000000000e+02 0.000000000000e+00 1.116769661267e-08 -5.106577940886e+05 5.153467005959e+00 -2.212679410459e+06 -2.212801045228e+06 8.646887715788e-05 5.235922478055e-10 6.179046250446e-09 0.000000000000e+00 0.000000000000e+00 1.645379416592e+06 1.702082437038e+06  8.646578780509e-05
6.000000000000e-01 3.080000000000e+02 0.000000000000e+00 7.234710363251e-09 -5.591369959050e+05 -4.117437185203e-01 -2.230609033712e+06 -2.230731427997e+06 8.491699715026e-05 -4.183316180166e-11 6.217629644710e-09 0.000000000000e+00 0.000000000000e+00 1.673492485871e+06 1.671533238310e+06  8.491388850619e-05
7.000000000000e-01 3.080000000000e+02 0.000000000000e+00 3.079635800931e-09 -6.034127294970e+05 1.679654179015e+00 -2.247059221021e+06 -2.247127426640e+06 8.350070661485e-05 1.706528645879e-10 3.464845447365e-09 0.000000000000e+00 0.000000000000e+00 1.699199792386e+06 1.643680595397e+06  8.349897424657e-05
8.000000000000e-01 3.080000000000e+02 0.000000000000e+00 3.186565159445e-09 -6.456079733912e+05 -3.076035320329e-01 -2.262674677598e+06 -2.262736315767e+06 8.215011979270e-05 -3.125251885454e-11 3.131218983140e-09 0.000000000000e+00 0.000000000000e+00 1.723672988919e+06 1.617097524173e+06  8.214855422798e-05
9.000000000000e-01 3.080000000000e+02 0.000000000000e+00 1.374199478233e-09 -6.852143359225e+05 -3.313363717490e-01 -2.277329204220e+06 -2.277386755838e+06 8.088235893173e-05 -3.366377536970e-11 2.923622236467e-09 0.000000000000e+00 0.000000000000e+00 1.746643431993e+06 1.592143644887e+06  8.088089716026e-05
1.000000000000e+00 3.080000000000e+02 0.000000000000e+00 -8.916904185169e-10 -7.221840690919e+05 1.755194316185e-01 -2.291015291296e+06 -2.291063827305e+06 7.969909171721e-05 1.783277425244e-11 2.465629247526e-09 0.000000000000e+00 0.000000000000e+00 1.768087729231e+06 1.568855490772e+06  7.969785893120e-05
