 TITLE = "Time curves in points"
 VARIABLES = "TIME "  "TEMPERATURE1"  "DISPLACEMENT_X1"  "DISPLACEMENT_Y1"  "DISPLACEMENT_Z1"  "STRESS_XX"  "STRESS_XY"  "STRESS_YY"  "STRESS_ZZ"  "STRESS_XZ"  "STRESS_YZ"  "STRAIN_XX"  "STRAIN_XY"  "STRAIN_YY"  "STRAIN_ZZ"  "STRAIN_XZ"  "STRAIN_YZ"  "STRAIN_PLS"  p_(1st_Invariant)  q_(2nd_Invariant)   Effective_Strain
 ZONE T="POINT=POINT12"
0.000000000000e+00 2.981500000000e+02 0.000000000000e+00 0.000000000000e+00 0.000000000000e+00 0.000000000000e+00 0.000000000000e+00 0.000000000000e+00 0.000000000000e+00 0.000000000000e+00 0.000000000000e+00 0.000000000000e+00 0.000000000000e+00 0.000000000000e+00 0.000000000000e+00 0.000000000000e+00 0.000000000000e+00 0.000000000000e+00 -0.000000000000e+00 0.000000000000e+00  0.000000000000e+00
1.000000000000e-01 2.981499930226e+02 7.340509187532e-11 -1.800071087282e-10 -3.498156720725e-10 -2.878239497013e+01 -8.084202818278e+00 -5.186714075432e+01 1.584356588838e+01 3.378685476175e+00 2.666977963360e+01 -6.739225268198e-10 -8.213550063371e-10 -1.846627612657e-09 1.593076284793e-09 3.432744443793e-10 2.709649610774e-09 0.000000000000e+00 2.160198994535e+01 7.693309964922e+01  5.794568929391e-09
2.000000000000e-01 2.981500460540e+02 5.524836265951e-08 4.903563713571e-07 1.751316998345e-07 -4.570781039737e+04 5.883636979458e+02 -1.102981310751e+05 -4.724602582375e+04 3.572813930648e+02 -6.936196001096e+03 -1.270922053543e-07 5.977775171129e-08 -3.408280495783e-06 -2.052335490145e-07 3.629978953538e-08 -7.047175137113e-07 0.000000000000e+00 6.775065576541e+04 6.496672775113e+04  3.467053459405e-06
3.000000000000e-01 2.981498598774e+02 5.980254064505e-08 7.540992243923e-07 3.001619512971e-07 -6.653326289435e+04 3.515853462088e+02 -1.668084735550e+05 -7.280467472295e+04 2.534086283347e+02 -6.350475346098e+03 -7.394066280828e-08 3.572107117482e-08 -5.167921364372e-06 -3.925283837016e-07 2.574631663880e-08 -6.452082951635e-07 0.000000000000e+00 1.020488037241e+05 9.791389295216e+04  5.067736739167e-06
4.000000000000e-01 2.981499563408e+02 4.610261851590e-08 8.844800630793e-07 3.301654587110e-07 -7.856531775707e+04 2.856495707747e+02 -2.001619120210e+05 -8.636086538758e+04 2.384868540352e+02 -5.575810710534e+03 -4.743707881367e-08 2.902199639071e-08 -6.224544067422e-06 -4.434508984433e-07 2.423026436998e-08 -5.665023681902e-07 0.000000000000e+00 1.216960317219e+05 1.182889456685e+05  6.069128512949e-06
5.000000000000e-01 2.981502850479e+02 3.028144471148e-08 1.539929371146e-06 3.647023990682e-07 -1.482769336999e+05 1.869612628087e+02 -3.877716105436e+05 -1.547600466170e+05 2.478819070357e+02 -6.335773825957e+03 -7.031080446095e-08 1.899526430137e-08 -1.223664038812e-05 -3.996529406544e-07 2.518480175483e-08 -6.437146207173e-07 0.000000000000e+00 2.302695302868e+05 2.365750943069e+05  1.205683406322e-05
6.000000000000e-01 2.981502928728e+02 3.028326588533e-08 1.587036347400e-06 3.639673281874e-07 -1.551869497207e+05 2.347739577047e+02 -4.081573380781e+05 -1.623095408982e+05 2.001808324570e+02 -6.045829427587e+03 -4.710338548044e-08 2.385303410280e-08 -1.289799911403e-05 -4.089310172937e-07 2.033837257764e-08 -6.142562698429e-07 0.000000000000e+00 2.418846095657e+05 2.497055981920e+05  1.271854988740e-05
7.000000000000e-01 2.981496805637e+02 1.748313771217e-08 1.769034497755e-06 2.596090792679e-07 -1.953935826487e+05 -1.198932889901e+02 -5.195620228509e+05 -2.003800199092e+05 2.231723985132e+02 -5.297927707941e+03 -4.583609248723e-08 -1.218115816139e-08 -1.651359285476e-05 -2.991471053183e-07 2.267431568894e-08 -5.382694551268e-07 0.000000000000e+00 3.051118751363e+05 3.218353511436e+05  1.636920598687e-05
8.000000000000e-01 2.981486874723e+02 1.396008273762e-08 1.790729058213e-06 2.174765247696e-07 -2.055786437870e+05 -1.150817132272e+02 -5.500108251772e+05 -2.098865911175e+05 1.708587581758e+02 -4.868139023206e+03 -2.630730870743e-08 -1.169230206388e-08 -1.752346212333e-05 -2.451510330993e-07 1.735924983066e-08 -4.946029247577e-07 0.000000000000e+00 3.218253533606e+05 3.424025612247e+05  1.740989336488e-05
9.000000000000e-01 2.981479914635e+02 1.383538219740e-08 1.808416602318e-06 1.844688295283e-07 -2.138699317474e+05 2.454887827270e+02 -5.730616876390e+05 -2.176829452088e+05 8.758915548517e+01 -4.544813134121e+03 -2.440636327756e-08 2.494166032507e-08 -1.827134756257e-05 -2.181074471166e-07 8.899058197294e-09 -4.617530144267e-07 0.000000000000e+00 3.348715215317e+05 3.573874974881e+05  1.816853550321e-05
1.000000000000e+00 2.981484883310e+02 1.586723626314e-08 1.821539431979e-06 1.704397727612e-07 -2.200449540011e+05 2.083296779621e+02 -5.885846789778e+05 -2.233387293345e+05 1.607406609661e+02 -4.610846930735e+03 -3.187018557500e-08 2.116629528095e-08 -1.875368821439e-05 -1.991939725097e-07 1.633125115416e-08 -4.684620481627e-07 0.000000000000e+00 3.439894541045e+05 3.669911146486e+05  1.865642989159e-05
