 TITLE = "Profiles along polylines"
 VARIABLES = "DIST" "DISPLACEMENT_X1" "DISPLACEMENT_Y1" "TEMPERATURE1" "STRESS_XX" "STRESS_XY" "STRESS_YY" "STRESS_ZZ" "STRAIN_XX" "STRAIN_XY" "STRAIN_YY" "STRAIN_ZZ"  p_(1st_Invariant)  q_(2nd_Invariant)   Effective_Strain
 ZONE T="TIME=0.000000000000e+00"
0.000000000000e+00 0.000000000000e+00 0.000000000000e+00 2.500000000000e+01 0.000000000000e+00 0.000000000000e+00 0.000000000000e+00 0.000000000000e+00 0.000000000000e+00 0.000000000000e+00 0.000000000000e+00 0.000000000000e+00 -0.000000000000e+00 0.000000000000e+00  0.000000000000e+00
2.706366175423e+00 0.000000000000e+00 0.000000000000e+00 2.500000000000e+01 0.000000000000e+00 0.000000000000e+00 0.000000000000e+00 0.000000000000e+00 0.000000000000e+00 0.000000000000e+00 0.000000000000e+00 0.000000000000e+00 -0.000000000000e+00 0.000000000000e+00  0.000000000000e+00
5.572652989512e+00 0.000000000000e+00 0.000000000000e+00 2.500000000000e+01 0.000000000000e+00 0.000000000000e+00 0.000000000000e+00 0.000000000000e+00 0.000000000000e+00 0.000000000000e+00 0.000000000000e+00 0.000000000000e+00 -0.000000000000e+00 0.000000000000e+00  0.000000000000e+00
8.609324411420e+00 0.000000000000e+00 0.000000000000e+00 2.500000000000e+01 0.000000000000e+00 0.000000000000e+00 0.000000000000e+00 0.000000000000e+00 0.000000000000e+00 0.000000000000e+00 0.000000000000e+00 0.000000000000e+00 -0.000000000000e+00 0.000000000000e+00  0.000000000000e+00
1.182737955688e+01 0.000000000000e+00 0.000000000000e+00 2.500000000000e+01 0.000000000000e+00 0.000000000000e+00 0.000000000000e+00 0.000000000000e+00 0.000000000000e+00 0.000000000000e+00 0.000000000000e+00 0.000000000000e+00 -0.000000000000e+00 0.000000000000e+00  0.000000000000e+00
1.523619499301e+01 0.000000000000e+00 0.000000000000e+00 2.500000000000e+01 0.000000000000e+00 0.000000000000e+00 0.000000000000e+00 0.000000000000e+00 0.000000000000e+00 0.000000000000e+00 0.000000000000e+00 0.000000000000e+00 -0.000000000000e+00 0.000000000000e+00  0.000000000000e+00
1.884768529545e+01 0.000000000000e+00 0.000000000000e+00 2.500000000000e+01 0.000000000000e+00 0.000000000000e+00 0.000000000000e+00 0.000000000000e+00 0.000000000000e+00 0.000000000000e+00 0.000000000000e+00 0.000000000000e+00 -0.000000000000e+00 0.000000000000e+00  0.000000000000e+00
2.267335393406e+01 0.000000000000e+00 0.000000000000e+00 2.500000000000e+01 0.000000000000e+00 0.000000000000e+00 0.000000000000e+00 0.000000000000e+00 0.000000000000e+00 0.000000000000e+00 0.000000000000e+00 0.000000000000e+00 -0.000000000000e+00 0.000000000000e+00  0.000000000000e+00
2.672766545364e+01 0.000000000000e+00 0.000000000000e+00 2.500000000000e+01 0.000000000000e+00 0.000000000000e+00 0.000000000000e+00 0.000000000000e+00 0.000000000000e+00 0.000000000000e+00 0.000000000000e+00 0.000000000000e+00 -0.000000000000e+00 0.000000000000e+00  0.000000000000e+00
3.102247701015e+01 0.000000000000e+00 0.000000000000e+00 2.500000000000e+01 0.000000000000e+00 0.000000000000e+00 0.000000000000e+00 0.000000000000e+00 0.000000000000e+00 0.000000000000e+00 0.000000000000e+00 0.000000000000e+00 -0.000000000000e+00 0.000000000000e+00  0.000000000000e+00
3.557215812203e+01 0.000000000000e+00 0.000000000000e+00 2.500000000000e+01 0.000000000000e+00 0.000000000000e+00 0.000000000000e+00 0.000000000000e+00 0.000000000000e+00 0.000000000000e+00 0.000000000000e+00 0.000000000000e+00 -0.000000000000e+00 0.000000000000e+00  0.000000000000e+00
4.039547527718e+01 0.000000000000e+00 0.000000000000e+00 2.500000000000e+01 0.000000000000e+00 0.000000000000e+00 0.000000000000e+00 0.000000000000e+00 0.000000000000e+00 0.000000000000e+00 0.000000000000e+00 0.000000000000e+00 -0.000000000000e+00 0.000000000000e+00  0.000000000000e+00
4.550000000000e+01 0.000000000000e+00 0.000000000000e+00 2.500000000000e+01 0.000000000000e+00 0.000000000000e+00 0.000000000000e+00 0.000000000000e+00 0.000000000000e+00 0.000000000000e+00 0.000000000000e+00 0.000000000000e+00 -0.000000000000e+00 0.000000000000e+00  0.000000000000e+00
 TITLE = "Profiles along polylines"
 VARIABLES = "DIST" "DISPLACEMENT_X1" "DISPLACEMENT_Y1" "TEMPERATURE1" "STRESS_XX" "STRESS_XY" "STRESS_YY" "STRESS_ZZ" "STRAIN_XX" "STRAIN_XY" "STRAIN_YY" "STRAIN_ZZ"  p_(1st_Invariant)  q_(2nd_Invariant)   Effective_Strain
 ZONE T="TIME=1.000000000000e+00"
0.000000000000e+00 4.209475991962e-10 0.000000000000e+00 2.500001482968e+01 -8.310319603244e-02 3.327144835363e-01 -1.884906437176e+00 -2.904744452582e+00 1.063834180802e-09 3.327144835363e-10 1.629325602307e-10 -3.469864474728e-10 1.624251361930e+00 2.540907066724e+00  1.364963284279e-09
2.706366175423e+00 8.511567436644e-10 0.000000000000e+00 2.500000080709e+01 -7.047700447307e-01 -1.510119385114e-01 1.154160561753e-01 2.638001923674e-01 -2.906808361047e-10 -1.510119385114e-10 1.194122143483e-10 1.936042824444e-10 1.085179320626e-01 9.406590853287e-01  5.220347126792e-10
5.572652989512e+00 4.714204311563e-10 0.000000000000e+00 2.499999944983e+01 -4.572719379214e-02 -1.897346350418e-02 1.584353532258e-01 3.607118251467e-02 -5.453738596759e-11 -1.897346350418e-11 4.754388754139e-11 -1.363819781418e-11 -4.959311398278e-02 1.809782640943e-01  9.485918897330e-11
8.609324411420e+00 3.630972057847e-10 0.000000000000e+00 2.499999991445e+01 -6.309570415986e-02 1.061136713320e-02 6.005332439877e-02 -1.117428915275e-03 -3.338897635508e-11 1.061136713320e-11 2.818553792423e-11 -2.399838732790e-12 1.386602892120e-03 1.082230510863e-01  5.640398655757e-11
1.182737955688e+01 2.784732887501e-10 0.000000000000e+00 2.499999999635e+01 -4.422285715371e-02 1.353261710422e-03 3.126322276321e-02 -5.663895627595e-03 -2.035995443195e-11 1.353261710422e-12 1.738308552650e-11 -1.080473668899e-12 6.207843339364e-03 6.541995777813e-02  3.277290317856e-11
1.523619499301e+01 2.183724874677e-10 0.000000000000e+00 2.500000000303e+01 -3.470735407253e-02 -3.391155484017e-05 1.789542781169e-02 -3.879045260753e-03 -1.519166253918e-11 -3.391155484017e-14 1.110972840293e-11 2.224918667123e-13 6.896990507198e-03 4.577975460668e-02  2.288993382357e-11
1.884768529545e+01 1.707002359870e-10 0.000000000000e+00 2.499999999932e+01 -2.716624515664e-02 -4.828527286061e-05 1.076239120867e-02 -3.613675749458e-03 -1.160209333650e-11 -4.828527286061e-14 7.362224846158e-12 1.741913670955e-13 6.672509899145e-03 3.316617457744e-02  1.658324545520e-11
2.267335393406e+01 1.318142211106e-10 0.000000000000e+00 2.500000000003e+01 -2.220247513015e-02 -7.948507219644e-07 5.903915459607e-03 -3.811477218035e-03 -9.089412929943e-12 -7.948507219644e-16 4.963782364935e-12 1.060860261141e-13 6.703345629525e-03 2.472434887776e-02  1.236217449638e-11
2.672766545364e+01 9.912914727695e-11 0.000000000000e+00 2.499999999998e+01 -1.864012076329e-02 -1.326119236992e-05 2.414339086568e-03 -3.888423378942e-03 -7.309151315266e-12 -1.326119236992e-14 3.218078609663e-12 6.669737690827e-14 6.704735018555e-03 1.871668674126e-02  9.358364511272e-12
3.102247701015e+01 7.067874730994e-11 0.000000000000e+00 2.500000000000e+01 -1.630371308835e-02 -9.060661260621e-06 6.604601477614e-05 -3.955938344087e-03 -6.132414336772e-12 -9.060661260621e-15 2.052465214791e-12 4.147303535960e-14 6.731201805887e-03 1.477520566669e-02  7.387615335025e-12
3.557215812203e+01 4.517885901515e-11 0.000000000000e+00 2.500000000000e+01 -1.452102112162e-02 -1.123756998397e-05 -1.744338837222e-03 -4.047414729529e-03 -5.229260775311e-12 -1.123756998397e-14 1.159080366889e-12 7.542420735536e-15 6.770924896125e-03 1.179501923094e-02  5.897533704972e-12
4.039547527718e+01 2.179399525379e-11 0.000000000000e+00 2.500000000000e+01 -1.322856259687e-02 -5.435711227576e-06 -3.031993409859e-03 -4.155780322011e-03 -4.572642911440e-12 -5.435711227576e-15 5.256416820680e-13 -3.625177400801e-14 6.805445442914e-03 9.683709921779e-03  4.841861826089e-12
4.550000000000e+01 0.000000000000e+00 0.000000000000e+00 2.500000000000e+01 -1.223721849125e-02 2.188689755166e-06 -3.998281236851e-03 -4.167266505141e-03 -4.078332299005e-12 2.188689755166e-15 4.113632819585e-14 -4.335630594911e-14 6.800922077748e-03 8.155758606751e-03  4.077880624934e-12
