 TITLE = "Profiles along polylines"
 VARIABLES = "DIST" "PRESSURE1" "SATURATION1" 
 ZONE T="TIME=0.000000000000e+00"
0.000000000000e+00 -2.150000000000e+04 4.545259079631e-01 
2.000000000000e-02 -2.150000000000e+04 4.545259079631e-01 
4.000000000000e-02 -2.150000000000e+04 4.545259079631e-01 
 TITLE = "Profiles along polylines"
 VARIABLES = "DIST" "PRESSURE1" "SATURATION1" 
 ZONE T="TIME=1.000000000000e-02"
0.000000000000e+00 0.000000000000e+00 1.000000000000e+00 
2.000000000000e-02 0.000000000000e+00 1.000000000000e+00 
4.000000000000e-02 0.000000000000e+00 1.000000000000e+00 
 TITLE = "Profiles along polylines"
 VARIABLES = "DIST" "PRESSURE1" "SATURATION1" 
 ZONE T="TIME=1.000000000000e-01"
0.000000000000e+00 0.000000000000e+00 1.000000000000e+00 
2.000000000000e-02 0.000000000000e+00 1.000000000000e+00 
4.000000000000e-02 0.000000000000e+00 1.000000000000e+00 
 TITLE = "Profiles along polylines"
 VARIABLES = "DIST" "PRESSURE1" "SATURATION1" 
 ZONE T="TIME=1.000000000000e+00"
0.000000000000e+00 0.000000000000e+00 1.000000000000e+00 
2.000000000000e-02 0.000000000000e+00 1.000000000000e+00 
4.000000000000e-02 0.000000000000e+00 1.000000000000e+00 
 TITLE = "Profiles along polylines"
 VARIABLES = "DIST" "PRESSURE1" "SATURATION1" 
 ZONE T="TIME=1.800000000000e+02"
0.000000000000e+00 0.000000000000e+00 1.000000000000e+00 
2.000000000000e-02 0.000000000000e+00 1.000000000000e+00 
4.000000000000e-02 0.000000000000e+00 1.000000000000e+00 
 TITLE = "Profiles along polylines"
 VARIABLES = "DIST" "PRESSURE1" "SATURATION1" 
 ZONE T="TIME=1.800000000000e+03"
0.000000000000e+00 0.000000000000e+00 1.000000000000e+00 
2.000000000000e-02 0.000000000000e+00 1.000000000000e+00 
4.000000000000e-02 0.000000000000e+00 1.000000000000e+00 
 TITLE = "Profiles along polylines"
 VARIABLES = "DIST" "PRESSURE1" "SATURATION1" 
 ZONE T="TIME=3.600000000000e+03"
0.000000000000e+00 0.000000000000e+00 1.000000000000e+00 
2.000000000000e-02 0.000000000000e+00 1.000000000000e+00 
4.000000000000e-02 0.000000000000e+00 1.000000000000e+00 
 TITLE = "Profiles along polylines"
 VARIABLES = "DIST" "PRESSURE1" "SATURATION1" 
 ZONE T="TIME=7.200000000000e+03"
0.000000000000e+00 0.000000000000e+00 1.000000000000e+00 
2.000000000000e-02 0.000000000000e+00 1.000000000000e+00 
4.000000000000e-02 0.000000000000e+00 1.000000000000e+00 
 TITLE = "Profiles along polylines"
 VARIABLES = "DIST" "PRESSURE1" "SATURATION1" 
 ZONE T="TIME=3.240000000000e+04"
0.000000000000e+00 0.000000000000e+00 1.000000000000e+00 
2.000000000000e-02 0.000000000000e+00 1.000000000000e+00 
4.000000000000e-02 0.000000000000e+00 1.000000000000e+00 
 ZONE T="TIME=6.120000000000e+04"
0.000000000000e+00 0.000000000000e+00 1.000000000000e+00 
2.000000000000e-02 0.000000000000e+00 1.000000000000e+00 
4.000000000000e-02 0.000000000000e+00 1.000000000000e+00 
