VARIABLES  = "X","Y","Z", "PRESSURE1", "SATURATION1"
ZONE T="0.000000000000e+00s", N=511, E=876, F=FEPOINT, ET=QUADRILATERAL
STRANDID=1, SOLUTIONTIME=0.000000000000e+00
1.653000000000e-01 0.000000000000e+00 1.184700000000e+00 -2.150000000000e+04 4.545259079631e-01 
1.320000000000e-01 0.000000000000e+00 1.203500000000e+00 -2.150000000000e+04 4.545259079631e-01 
1.295000000000e-01 0.000000000000e+00 1.167700000000e+00 -2.150000000000e+04 4.545259079631e-01 
9.230000000000e-02 0.000000000000e+00 3.960000000000e-02 -2.150000000000e+04 4.545259079631e-01 
6.350000000000e-02 0.000000000000e+00 6.870000000000e-02 -2.150000000000e+04 4.545259079631e-01 
6.460000000000e-02 0.000000000000e+00 2.490000000000e-02 -2.150000000000e+04 4.545259079631e-01 
6.450000000000e-02 0.000000000000e+00 1.929000000000e+00 -2.150000000000e+04 4.545259079631e-01 
9.730000000000e-02 0.000000000000e+00 1.955900000000e+00 -2.150000000000e+04 4.545259079631e-01 
6.550000000000e-02 0.000000000000e+00 1.973900000000e+00 -2.150000000000e+04 4.545259079631e-01 
1.050000000000e-01 0.000000000000e+00 1.827100000000e+00 -2.150000000000e+04 4.545259079631e-01 
9.060000000000e-02 0.000000000000e+00 1.793200000000e+00 -2.150000000000e+04 4.545259079631e-01 
1.290000000000e-01 0.000000000000e+00 1.791700000000e+00 -2.150000000000e+04 4.545259079631e-01 
9.930000000000e-02 0.000000000000e+00 8.598000000000e-01 -2.150000000000e+04 4.545259079631e-01 
1.317000000000e-01 0.000000000000e+00 8.432000000000e-01 -2.150000000000e+04 4.545259079631e-01 
1.300000000000e-01 0.000000000000e+00 8.794000000000e-01 -2.150000000000e+04 4.545259079631e-01 
2.000000000000e-01 0.000000000000e+00 1.666700000000e+00 -2.150000000000e+04 4.545259079631e-01 
2.000000000000e-01 0.000000000000e+00 1.697000000000e+00 -2.150000000000e+04 4.545259079631e-01 
1.619000000000e-01 0.000000000000e+00 1.680900000000e+00 -2.150000000000e+04 4.545259079631e-01 
3.310000000000e-02 0.000000000000e+00 1.183700000000e+00 -2.150000000000e+04 4.545259079631e-01 
0.000000000000e+00 0.000000000000e+00 1.181800000000e+00 -2.150000000000e+04 4.545259079631e-01 
1.930000000000e-02 0.000000000000e+00 1.150700000000e+00 -2.150000000000e+04 4.545259079631e-01 
2.000000000000e-01 0.000000000000e+00 1.181800000000e+00 -2.150000000000e+04 4.545259079631e-01 
1.797000000000e-01 0.000000000000e+00 1.152200000000e+00 -2.150000000000e+04 4.545259079631e-01 
0.000000000000e+00 0.000000000000e+00 1.151500000000e+00 -2.150000000000e+04 4.545259079631e-01 
3.430000000000e-02 0.000000000000e+00 1.116900000000e+00 -2.150000000000e+04 4.545259079631e-01 
0.000000000000e+00 0.000000000000e+00 1.090900000000e+00 -2.150000000000e+04 4.545259079631e-01 
3.440000000000e-02 0.000000000000e+00 1.075300000000e+00 -2.150000000000e+04 4.545259079631e-01 
2.000000000000e-01 0.000000000000e+00 1.151500000000e+00 -2.150000000000e+04 4.545259079631e-01 
1.327000000000e-01 0.000000000000e+00 1.274500000000e+00 -2.150000000000e+04 4.545259079631e-01 
1.016000000000e-01 0.000000000000e+00 1.256600000000e+00 -2.150000000000e+04 4.545259079631e-01 
1.312000000000e-01 0.000000000000e+00 1.239500000000e+00 -2.150000000000e+04 4.545259079631e-01 
1.527000000000e-01 0.000000000000e+00 1.151700000000e+00 -2.150000000000e+04 4.545259079631e-01 
1.000000000000e-01 0.000000000000e+00 2.000000000000e+00 -2.150000000000e+04 4.545259079631e-01 
1.272000000000e-01 0.000000000000e+00 1.971600000000e+00 -2.150000000000e+04 4.545259079631e-01 
1.000000000000e-01 0.000000000000e+00 0.000000000000e+00 -2.150000000000e+04 4.545259079631e-01 
1.265000000000e-01 0.000000000000e+00 3.400000000000e-02 -2.150000000000e+04 4.545259079631e-01 
2.980000000000e-02 0.000000000000e+00 3.940000000000e-02 -2.150000000000e+04 4.545259079631e-01 
1.488000000000e-01 0.000000000000e+00 9.555000000000e-01 -2.150000000000e+04 4.545259079631e-01 
1.393000000000e-01 0.000000000000e+00 9.901000000000e-01 -2.150000000000e+04 4.545259079631e-01 
1.212000000000e-01 0.000000000000e+00 9.684000000000e-01 -2.150000000000e+04 4.545259079631e-01 
9.740000000000e-02 0.000000000000e+00 1.929600000000e+00 -2.150000000000e+04 4.545259079631e-01 
3.330000000000e-02 0.000000000000e+00 2.000000000000e+00 -2.150000000000e+04 4.545259079631e-01 
3.010000000000e-02 0.000000000000e+00 1.959900000000e+00 -2.150000000000e+04 4.545259079631e-01 
3.330000000000e-02 0.000000000000e+00 0.000000000000e+00 -2.150000000000e+04 4.545259079631e-01 
1.652000000000e-01 0.000000000000e+00 4.450000000000e-02 -2.150000000000e+04 4.545259079631e-01 
2.000000000000e-01 0.000000000000e+00 6.060000000000e-02 -2.150000000000e+04 4.545259079631e-01 
1.658000000000e-01 0.000000000000e+00 8.320000000000e-02 -2.150000000000e+04 4.545259079631e-01 
1.681000000000e-01 0.000000000000e+00 1.858000000000e+00 -2.150000000000e+04 4.545259079631e-01 
2.000000000000e-01 0.000000000000e+00 1.878800000000e+00 -2.150000000000e+04 4.545259079631e-01 
1.753000000000e-01 0.000000000000e+00 1.887500000000e+00 -2.150000000000e+04 4.545259079631e-01 
2.000000000000e-01 0.000000000000e+00 1.212100000000e+00 -2.150000000000e+04 4.545259079631e-01 
1.657000000000e-01 0.000000000000e+00 1.227400000000e+00 -2.150000000000e+04 4.545259079631e-01 
1.542000000000e-01 0.000000000000e+00 8.621000000000e-01 -2.150000000000e+04 4.545259079631e-01 
1.030000000000e-01 0.000000000000e+00 1.493400000000e+00 -2.150000000000e+04 4.545259079631e-01 
6.730000000000e-02 0.000000000000e+00 1.470800000000e+00 -2.150000000000e+04 4.545259079631e-01 
9.990000000000e-02 0.000000000000e+00 1.453100000000e+00 -2.150000000000e+04 4.545259079631e-01 
1.330000000000e-01 0.000000000000e+00 1.471000000000e+00 -2.150000000000e+04 4.545259079631e-01 
0.000000000000e+00 0.000000000000e+00 9.091000000000e-01 -2.150000000000e+04 4.545259079631e-01 
3.290000000000e-02 0.000000000000e+00 8.865000000000e-01 -2.150000000000e+04 4.545259079631e-01 
3.260000000000e-02 0.000000000000e+00 9.259000000000e-01 -2.150000000000e+04 4.545259079631e-01 
6.740000000000e-02 0.000000000000e+00 8.744000000000e-01 -2.150000000000e+04 4.545259079631e-01 
6.980000000000e-02 0.000000000000e+00 8.407000000000e-01 -2.150000000000e+04 4.545259079631e-01 
2.000000000000e-01 0.000000000000e+00 3.030000000000e-02 -2.150000000000e+04 4.545259079631e-01 
1.768000000000e-01 0.000000000000e+00 1.890000000000e-02 -2.150000000000e+04 4.545259079631e-01 
9.670000000000e-02 0.000000000000e+00 1.412300000000e+00 -2.150000000000e+04 4.545259079631e-01 
1.310000000000e-01 0.000000000000e+00 1.398400000000e+00 -2.150000000000e+04 4.545259079631e-01 
1.299000000000e-01 0.000000000000e+00 1.433900000000e+00 -2.150000000000e+04 4.545259079631e-01 
1.041000000000e-01 0.000000000000e+00 7.804000000000e-01 -2.150000000000e+04 4.545259079631e-01 
1.396000000000e-01 0.000000000000e+00 8.035000000000e-01 -2.150000000000e+04 4.545259079631e-01 
1.018000000000e-01 0.000000000000e+00 8.217000000000e-01 -2.150000000000e+04 4.545259079631e-01 
6.850000000000e-02 0.000000000000e+00 8.051000000000e-01 -2.150000000000e+04 4.545259079631e-01 
1.517000000000e-01 0.000000000000e+00 1.960500000000e+00 -2.150000000000e+04 4.545259079631e-01 
1.300000000000e-01 0.000000000000e+00 1.933600000000e+00 -2.150000000000e+04 4.545259079631e-01 
1.739000000000e-01 0.000000000000e+00 1.942300000000e+00 -2.150000000000e+04 4.545259079631e-01 
0.000000000000e+00 0.000000000000e+00 1.969700000000e+00 -2.150000000000e+04 4.545259079631e-01 
0.000000000000e+00 0.000000000000e+00 1.939400000000e+00 -2.150000000000e+04 4.545259079631e-01 
2.000000000000e-01 0.000000000000e+00 6.364000000000e-01 -2.150000000000e+04 4.545259079631e-01 
2.000000000000e-01 0.000000000000e+00 6.667000000000e-01 -2.150000000000e+04 4.545259079631e-01 
1.671000000000e-01 0.000000000000e+00 6.551000000000e-01 -2.150000000000e+04 4.545259079631e-01 
0.000000000000e+00 0.000000000000e+00 1.121200000000e+00 -2.150000000000e+04 4.545259079631e-01 
7.000000000000e-02 0.000000000000e+00 1.132700000000e+00 -2.150000000000e+04 4.545259079631e-01 
9.980000000000e-02 0.000000000000e+00 1.149800000000e+00 -2.150000000000e+04 4.545259079631e-01 
6.930000000000e-02 0.000000000000e+00 1.168100000000e+00 -2.150000000000e+04 4.545259079631e-01 
2.000000000000e-01 0.000000000000e+00 1.848500000000e+00 -2.150000000000e+04 4.545259079631e-01 
1.757000000000e-01 0.000000000000e+00 6.245000000000e-01 -2.150000000000e+04 4.545259079631e-01 
0.000000000000e+00 0.000000000000e+00 5.455000000000e-01 -2.150000000000e+04 4.545259079631e-01 
0.000000000000e+00 0.000000000000e+00 5.152000000000e-01 -2.150000000000e+04 4.545259079631e-01 
3.310000000000e-02 0.000000000000e+00 5.271000000000e-01 -2.150000000000e+04 4.545259079631e-01 
0.000000000000e+00 0.000000000000e+00 6.060000000000e-02 -2.150000000000e+04 4.545259079631e-01 
0.000000000000e+00 0.000000000000e+00 3.030000000000e-02 -2.150000000000e+04 4.545259079631e-01 
4.500000000000e-02 0.000000000000e+00 1.240200000000e+00 -2.150000000000e+04 4.545259079631e-01 
0.000000000000e+00 0.000000000000e+00 1.242400000000e+00 -2.150000000000e+04 4.545259079631e-01 
2.890000000000e-02 0.000000000000e+00 1.216900000000e+00 -2.150000000000e+04 4.545259079631e-01 
2.430000000000e-02 0.000000000000e+00 5.577000000000e-01 -2.150000000000e+04 4.545259079631e-01 
0.000000000000e+00 0.000000000000e+00 1.636400000000e+00 -2.150000000000e+04 4.545259079631e-01 
2.900000000000e-02 0.000000000000e+00 1.626900000000e+00 -2.150000000000e+04 4.545259079631e-01 
2.700000000000e-02 0.000000000000e+00 1.664200000000e+00 -2.150000000000e+04 4.545259079631e-01 
2.550000000000e-02 0.000000000000e+00 7.200000000000e-02 -2.150000000000e+04 4.545259079631e-01 
1.602000000000e-01 0.000000000000e+00 1.909500000000e+00 -2.150000000000e+04 4.545259079631e-01 
2.000000000000e-01 0.000000000000e+00 5.758000000000e-01 -2.150000000000e+04 4.545259079631e-01 
1.672000000000e-01 0.000000000000e+00 5.950000000000e-01 -2.150000000000e+04 4.545259079631e-01 
1.746000000000e-01 0.000000000000e+00 5.625000000000e-01 -2.150000000000e+04 4.545259079631e-01 
1.546000000000e-01 0.000000000000e+00 1.256300000000e+00 -2.150000000000e+04 4.545259079631e-01 
2.000000000000e-01 0.000000000000e+00 1.424200000000e+00 -2.150000000000e+04 4.545259079631e-01 
1.674000000000e-01 0.000000000000e+00 1.448300000000e+00 -2.150000000000e+04 4.545259079631e-01 
1.765000000000e-01 0.000000000000e+00 1.415600000000e+00 -2.150000000000e+04 4.545259079631e-01 
6.520000000000e-02 0.000000000000e+00 1.207200000000e+00 -2.150000000000e+04 4.545259079631e-01 
9.950000000000e-02 0.000000000000e+00 1.185700000000e+00 -2.150000000000e+04 4.545259079631e-01 
1.011000000000e-01 0.000000000000e+00 1.221300000000e+00 -2.150000000000e+04 4.545259079631e-01 
2.000000000000e-01 0.000000000000e+00 1.454500000000e+00 -2.150000000000e+04 4.545259079631e-01 
1.620000000000e-02 0.000000000000e+00 1.770000000000e-02 -2.150000000000e+04 4.545259079631e-01 
6.670000000000e-02 0.000000000000e+00 2.000000000000e+00 -2.150000000000e+04 4.545259079631e-01 
5.780000000000e-02 0.000000000000e+00 3.375000000000e-01 -2.150000000000e+04 4.545259079631e-01 
9.620000000000e-02 0.000000000000e+00 3.278000000000e-01 -2.150000000000e+04 4.545259079631e-01 
8.120000000000e-02 0.000000000000e+00 3.611000000000e-01 -2.150000000000e+04 4.545259079631e-01 
1.630000000000e-02 0.000000000000e+00 1.982200000000e+00 -2.150000000000e+04 4.545259079631e-01 
6.670000000000e-02 0.000000000000e+00 0.000000000000e+00 -2.150000000000e+04 4.545259079631e-01 
9.320000000000e-02 0.000000000000e+00 5.510000000000e-01 -2.150000000000e+04 4.545259079631e-01 
5.390000000000e-02 0.000000000000e+00 5.549000000000e-01 -2.150000000000e+04 4.545259079631e-01 
6.570000000000e-02 0.000000000000e+00 5.283000000000e-01 -2.150000000000e+04 4.545259079631e-01 
4.640000000000e-02 0.000000000000e+00 1.767300000000e+00 -2.150000000000e+04 4.545259079631e-01 
6.140000000000e-02 0.000000000000e+00 1.733100000000e+00 -2.150000000000e+04 4.545259079631e-01 
7.690000000000e-02 0.000000000000e+00 1.766700000000e+00 -2.150000000000e+04 4.545259079631e-01 
1.489000000000e-01 0.000000000000e+00 1.641800000000e+00 -2.150000000000e+04 4.545259079631e-01 
1.074000000000e-01 0.000000000000e+00 1.638500000000e+00 -2.150000000000e+04 4.545259079631e-01 
1.343000000000e-01 0.000000000000e+00 1.616200000000e+00 -2.150000000000e+04 4.545259079631e-01 
8.760000000000e-02 0.000000000000e+00 5.152000000000e-01 -2.150000000000e+04 4.545259079631e-01 
6.830000000000e-02 0.000000000000e+00 1.097500000000e+00 -2.150000000000e+04 4.545259079631e-01 
6.940000000000e-02 0.000000000000e+00 1.064000000000e+00 -2.150000000000e+04 4.545259079631e-01 
1.082000000000e-01 0.000000000000e+00 6.321000000000e-01 -2.150000000000e+04 4.545259079631e-01 
1.463000000000e-01 0.000000000000e+00 6.277000000000e-01 -2.150000000000e+04 4.545259079631e-01 
1.349000000000e-01 0.000000000000e+00 6.543000000000e-01 -2.150000000000e+04 4.545259079631e-01 
5.940000000000e-02 0.000000000000e+00 3.609000000000e-01 -2.150000000000e+04 4.545259079631e-01 
1.028000000000e-01 0.000000000000e+00 1.341000000000e-01 -2.150000000000e+04 4.545259079631e-01 
8.980000000000e-02 0.000000000000e+00 9.910000000000e-02 -2.150000000000e+04 4.545259079631e-01 
1.274000000000e-01 0.000000000000e+00 9.990000000000e-02 -2.150000000000e+04 4.545259079631e-01 
2.000000000000e-01 0.000000000000e+00 1.818000000000e-01 -2.150000000000e+04 4.545259079631e-01 
2.000000000000e-01 0.000000000000e+00 2.121000000000e-01 -2.150000000000e+04 4.545259079631e-01 
1.599000000000e-01 0.000000000000e+00 1.983000000000e-01 -2.150000000000e+04 4.545259079631e-01 
1.417000000000e-01 0.000000000000e+00 1.362400000000e+00 -2.150000000000e+04 4.545259079631e-01 
1.035000000000e-01 0.000000000000e+00 1.370300000000e+00 -2.150000000000e+04 4.545259079631e-01 
1.186000000000e-01 0.000000000000e+00 1.336100000000e+00 -2.150000000000e+04 4.545259079631e-01 
1.136000000000e-01 0.000000000000e+00 1.604600000000e+00 -2.150000000000e+04 4.545259079631e-01 
1.341000000000e-01 0.000000000000e+00 9.189000000000e-01 -2.150000000000e+04 4.545259079631e-01 
1.209000000000e-01 0.000000000000e+00 9.464000000000e-01 -2.150000000000e+04 4.545259079631e-01 
4.570000000000e-02 0.000000000000e+00 1.048400000000e+00 -2.150000000000e+04 4.545259079631e-01 
1.139000000000e-01 0.000000000000e+00 6.674000000000e-01 -2.150000000000e+04 4.545259079631e-01 
2.000000000000e-01 0.000000000000e+00 6.061000000000e-01 -2.150000000000e+04 4.545259079631e-01 
1.372000000000e-01 0.000000000000e+00 1.348000000000e-01 -2.150000000000e+04 4.545259079631e-01 
0.000000000000e+00 0.000000000000e+00 1.333300000000e+00 -2.150000000000e+04 4.545259079631e-01 
0.000000000000e+00 0.000000000000e+00 1.303000000000e+00 -2.150000000000e+04 4.545259079631e-01 
3.160000000000e-02 0.000000000000e+00 1.317800000000e+00 -2.150000000000e+04 4.545259079631e-01 
0.000000000000e+00 0.000000000000e+00 6.970000000000e-01 -2.150000000000e+04 4.545259079631e-01 
0.000000000000e+00 0.000000000000e+00 6.667000000000e-01 -2.150000000000e+04 4.545259079631e-01 
3.270000000000e-02 0.000000000000e+00 6.825000000000e-01 -2.150000000000e+04 4.545259079631e-01 
5.890000000000e-02 0.000000000000e+00 1.831000000000e-01 -2.150000000000e+04 4.545259079631e-01 
9.800000000000e-02 0.000000000000e+00 1.748000000000e-01 -2.150000000000e+04 4.545259079631e-01 
8.260000000000e-02 0.000000000000e+00 2.082000000000e-01 -2.150000000000e+04 4.545259079631e-01 
1.041000000000e-01 0.000000000000e+00 1.718000000000e+00 -2.150000000000e+04 4.545259079631e-01 
1.441000000000e-01 0.000000000000e+00 1.717300000000e+00 -2.150000000000e+04 4.545259079631e-01 
1.293000000000e-01 0.000000000000e+00 1.752000000000e+00 -2.150000000000e+04 4.545259079631e-01 
2.000000000000e-01 0.000000000000e+00 3.636000000000e-01 -2.150000000000e+04 4.545259079631e-01 
2.000000000000e-01 0.000000000000e+00 3.939000000000e-01 -2.150000000000e+04 4.545259079631e-01 
1.675000000000e-01 0.000000000000e+00 3.804000000000e-01 -2.150000000000e+04 4.545259079631e-01 
2.000000000000e-01 0.000000000000e+00 5.152000000000e-01 -2.150000000000e+04 4.545259079631e-01 
2.000000000000e-01 0.000000000000e+00 5.455000000000e-01 -2.150000000000e+04 4.545259079631e-01 
1.595000000000e-01 0.000000000000e+00 5.299000000000e-01 -2.150000000000e+04 4.545259079631e-01 
0.000000000000e+00 0.000000000000e+00 6.061000000000e-01 -2.150000000000e+04 4.545259079631e-01 
0.000000000000e+00 0.000000000000e+00 5.758000000000e-01 -2.150000000000e+04 4.545259079631e-01 
3.250000000000e-02 0.000000000000e+00 5.878000000000e-01 -2.150000000000e+04 4.545259079631e-01 
5.980000000000e-02 0.000000000000e+00 9.042000000000e-01 -2.150000000000e+04 4.545259079631e-01 
9.510000000000e-02 0.000000000000e+00 9.005000000000e-01 -2.150000000000e+04 4.545259079631e-01 
7.110000000000e-02 0.000000000000e+00 9.349000000000e-01 -2.150000000000e+04 4.545259079631e-01 
1.464000000000e-01 0.000000000000e+00 1.826500000000e+00 -2.150000000000e+04 4.545259079631e-01 
2.580000000000e-02 0.000000000000e+00 1.745900000000e+00 -2.150000000000e+04 4.545259079631e-01 
1.550000000000e-01 0.000000000000e+00 1.131000000000e-01 -2.150000000000e+04 4.545259079631e-01 
0.000000000000e+00 0.000000000000e+00 1.606100000000e+00 -2.150000000000e+04 4.545259079631e-01 
0.000000000000e+00 0.000000000000e+00 1.575800000000e+00 -2.150000000000e+04 4.545259079631e-01 
3.300000000000e-02 0.000000000000e+00 1.590300000000e+00 -2.150000000000e+04 4.545259079631e-01 
1.716000000000e-01 0.000000000000e+00 9.281000000000e-01 -2.150000000000e+04 4.545259079631e-01 
3.160000000000e-02 0.000000000000e+00 2.593000000000e-01 -2.150000000000e+04 4.545259079631e-01 
5.860000000000e-02 0.000000000000e+00 2.322000000000e-01 -2.150000000000e+04 4.545259079631e-01 
6.800000000000e-02 0.000000000000e+00 2.681000000000e-01 -2.150000000000e+04 4.545259079631e-01 
4.480000000000e-02 0.000000000000e+00 2.852000000000e-01 -2.150000000000e+04 4.545259079631e-01 
1.724000000000e-01 0.000000000000e+00 9.812000000000e-01 -2.150000000000e+04 4.545259079631e-01 
1.407000000000e-01 0.000000000000e+00 1.337100000000e+00 -2.150000000000e+04 4.545259079631e-01 
2.190000000000e-02 0.000000000000e+00 1.290700000000e+00 -2.150000000000e+04 4.545259079631e-01 
2.270000000000e-02 0.000000000000e+00 7.114000000000e-01 -2.150000000000e+04 4.545259079631e-01 
1.182000000000e-01 0.000000000000e+00 2.076000000000e-01 -2.150000000000e+04 4.545259079631e-01 
9.940000000000e-02 0.000000000000e+00 2.433000000000e-01 -2.150000000000e+04 4.545259079631e-01 
7.630000000000e-02 0.000000000000e+00 1.238700000000e+00 -2.150000000000e+04 4.545259079631e-01 
4.600000000000e-02 0.000000000000e+00 1.150300000000e+00 -2.150000000000e+04 4.545259079631e-01 
3.030000000000e-02 0.000000000000e+00 1.267900000000e+00 -2.150000000000e+04 4.545259079631e-01 
1.048000000000e-01 0.000000000000e+00 1.770500000000e+00 -2.150000000000e+04 4.545259079631e-01 
2.300000000000e-02 0.000000000000e+00 1.561300000000e+00 -2.150000000000e+04 4.545259079631e-01 
1.015000000000e-01 0.000000000000e+00 1.299000000000e+00 -2.150000000000e+04 4.545259079631e-01 
1.418000000000e-01 0.000000000000e+00 1.311800000000e+00 -2.150000000000e+04 4.545259079631e-01 
8.610000000000e-02 0.000000000000e+00 1.336200000000e+00 -2.150000000000e+04 4.545259079631e-01 
1.280000000000e-01 0.000000000000e+00 1.666600000000e+00 -2.150000000000e+04 4.545259079631e-01 
0.000000000000e+00 0.000000000000e+00 8.485000000000e-01 -2.150000000000e+04 4.545259079631e-01 
0.000000000000e+00 0.000000000000e+00 8.182000000000e-01 -2.150000000000e+04 4.545259079631e-01 
3.460000000000e-02 0.000000000000e+00 8.305000000000e-01 -2.150000000000e+04 4.545259079631e-01 
9.780000000000e-02 0.000000000000e+00 3.959000000000e-01 -2.150000000000e+04 4.545259079631e-01 
5.840000000000e-02 0.000000000000e+00 3.850000000000e-01 -2.150000000000e+04 4.545259079631e-01 
1.135000000000e-01 0.000000000000e+00 3.604000000000e-01 -2.150000000000e+04 4.545259079631e-01 
2.290000000000e-02 0.000000000000e+00 8.597000000000e-01 -2.150000000000e+04 4.545259079631e-01 
1.003000000000e-01 0.000000000000e+00 4.833000000000e-01 -2.150000000000e+04 4.545259079631e-01 
1.181000000000e-01 0.000000000000e+00 5.192000000000e-01 -2.150000000000e+04 4.545259079631e-01 
5.950000000000e-02 0.000000000000e+00 4.961000000000e-01 -2.150000000000e+04 4.545259079631e-01 
1.008000000000e-01 0.000000000000e+00 9.912000000000e-01 -2.150000000000e+04 4.545259079631e-01 
1.256000000000e-01 0.000000000000e+00 1.024800000000e+00 -2.150000000000e+04 4.545259079631e-01 
8.660000000000e-02 0.000000000000e+00 1.608300000000e+00 -2.150000000000e+04 4.545259079631e-01 
1.010000000000e-01 0.000000000000e+00 1.574200000000e+00 -2.150000000000e+04 4.545259079631e-01 
1.399000000000e-01 0.000000000000e+00 1.585600000000e+00 -2.150000000000e+04 4.545259079631e-01 
2.590000000000e-02 0.000000000000e+00 1.926600000000e+00 -2.150000000000e+04 4.545259079631e-01 
1.011000000000e-01 0.000000000000e+00 6.985000000000e-01 -2.150000000000e+04 4.545259079631e-01 
8.670000000000e-02 0.000000000000e+00 6.640000000000e-01 -2.150000000000e+04 4.545259079631e-01 
1.407000000000e-01 0.000000000000e+00 6.861000000000e-01 -2.150000000000e+04 4.545259079631e-01 
1.374000000000e-01 0.000000000000e+00 6.600000000000e-02 -2.150000000000e+04 4.545259079631e-01 
2.290000000000e-02 0.000000000000e+00 6.192000000000e-01 -2.150000000000e+04 4.545259079631e-01 
5.980000000000e-02 0.000000000000e+00 2.077000000000e-01 -2.150000000000e+04 4.545259079631e-01 
1.010000000000e-01 0.000000000000e+00 1.863800000000e+00 -2.150000000000e+04 4.545259079631e-01 
1.317000000000e-01 0.000000000000e+00 1.856200000000e+00 -2.150000000000e+04 4.545259079631e-01 
1.772000000000e-01 0.000000000000e+00 1.650900000000e+00 -2.150000000000e+04 4.545259079631e-01 
1.748000000000e-01 0.000000000000e+00 1.713400000000e+00 -2.150000000000e+04 4.545259079631e-01 
1.003000000000e-01 0.000000000000e+00 5.916000000000e-01 -2.150000000000e+04 4.545259079631e-01 
6.920000000000e-02 0.000000000000e+00 5.859000000000e-01 -2.150000000000e+04 4.545259079631e-01 
1.268000000000e-01 0.000000000000e+00 1.692600000000e+00 -2.150000000000e+04 4.545259079631e-01 
1.311000000000e-01 0.000000000000e+00 5.977000000000e-01 -2.150000000000e+04 4.545259079631e-01 
1.773000000000e-01 0.000000000000e+00 4.098000000000e-01 -2.150000000000e+04 4.545259079631e-01 
1.464000000000e-01 0.000000000000e+00 5.670000000000e-01 -2.150000000000e+04 4.545259079631e-01 
5.280000000000e-02 0.000000000000e+00 6.204000000000e-01 -2.150000000000e+04 4.545259079631e-01 
1.060000000000e-01 0.000000000000e+00 6.810000000000e-02 -2.150000000000e+04 4.545259079631e-01 
9.520000000000e-02 0.000000000000e+00 1.532800000000e+00 -2.150000000000e+04 4.545259079631e-01 
7.080000000000e-02 0.000000000000e+00 1.504900000000e+00 -2.150000000000e+04 4.545259079631e-01 
0.000000000000e+00 0.000000000000e+00 1.212100000000e+00 -2.150000000000e+04 4.545259079631e-01 
7.060000000000e-02 0.000000000000e+00 1.437000000000e+00 -2.150000000000e+04 4.545259079631e-01 
1.756000000000e-01 0.000000000000e+00 1.668000000000e-01 -2.150000000000e+04 4.545259079631e-01 
9.490000000000e-02 0.000000000000e+00 7.403000000000e-01 -2.150000000000e+04 4.545259079631e-01 
6.790000000000e-02 0.000000000000e+00 7.699000000000e-01 -2.150000000000e+04 4.545259079631e-01 
1.007000000000e-01 0.000000000000e+00 1.080800000000e+00 -2.150000000000e+04 4.545259079631e-01 
1.377000000000e-01 0.000000000000e+00 1.098200000000e+00 -2.150000000000e+04 4.545259079631e-01 
1.010000000000e-01 0.000000000000e+00 1.115200000000e+00 -2.150000000000e+04 4.545259079631e-01 
1.530000000000e-01 0.000000000000e+00 1.418300000000e+00 -2.150000000000e+04 4.545259079631e-01 
1.668000000000e-01 0.000000000000e+00 8.915000000000e-01 -2.150000000000e+04 4.545259079631e-01 
9.560000000000e-02 0.000000000000e+00 1.748200000000e+00 -2.150000000000e+04 4.545259079631e-01 
1.677000000000e-01 0.000000000000e+00 7.732000000000e-01 -2.150000000000e+04 4.545259079631e-01 
1.748000000000e-01 0.000000000000e+00 8.033000000000e-01 -2.150000000000e+04 4.545259079631e-01 
1.678000000000e-01 0.000000000000e+00 8.342000000000e-01 -2.150000000000e+04 4.545259079631e-01 
4.610000000000e-02 0.000000000000e+00 8.569000000000e-01 -2.150000000000e+04 4.545259079631e-01 
4.170000000000e-02 0.000000000000e+00 1.698500000000e+00 -2.150000000000e+04 4.545259079631e-01 
2.580000000000e-02 0.000000000000e+00 1.720100000000e+00 -2.150000000000e+04 4.545259079631e-01 
2.000000000000e-01 0.000000000000e+00 1.484800000000e+00 -2.150000000000e+04 4.545259079631e-01 
2.000000000000e-01 0.000000000000e+00 1.515200000000e+00 -2.150000000000e+04 4.545259079631e-01 
1.675000000000e-01 0.000000000000e+00 1.493600000000e+00 -2.150000000000e+04 4.545259079631e-01 
6.690000000000e-02 0.000000000000e+00 1.271300000000e+00 -2.150000000000e+04 4.545259079631e-01 
6.490000000000e-02 0.000000000000e+00 1.309400000000e+00 -2.150000000000e+04 4.545259079631e-01 
3.480000000000e-02 0.000000000000e+00 1.836600000000e+00 -2.150000000000e+04 4.545259079631e-01 
6.580000000000e-02 0.000000000000e+00 1.814600000000e+00 -2.150000000000e+04 4.545259079631e-01 
7.240000000000e-02 0.000000000000e+00 1.846800000000e+00 -2.150000000000e+04 4.545259079631e-01 
5.110000000000e-02 0.000000000000e+00 1.867700000000e+00 -2.150000000000e+04 4.545259079631e-01 
2.000000000000e-01 0.000000000000e+00 8.182000000000e-01 -2.150000000000e+04 4.545259079631e-01 
2.000000000000e-01 0.000000000000e+00 8.485000000000e-01 -2.150000000000e+04 4.545259079631e-01 
2.000000000000e-01 0.000000000000e+00 7.576000000000e-01 -2.150000000000e+04 4.545259079631e-01 
2.000000000000e-01 0.000000000000e+00 7.879000000000e-01 -2.150000000000e+04 4.545259079631e-01 
0.000000000000e+00 0.000000000000e+00 1.212000000000e-01 -2.150000000000e+04 4.545259079631e-01 
0.000000000000e+00 0.000000000000e+00 9.090000000000e-02 -2.150000000000e+04 4.545259079631e-01 
3.260000000000e-02 0.000000000000e+00 1.013000000000e-01 -2.150000000000e+04 4.545259079631e-01 
1.222000000000e-01 0.000000000000e+00 1.520900000000e+00 -2.150000000000e+04 4.545259079631e-01 
1.035000000000e-01 0.000000000000e+00 9.316000000000e-01 -2.150000000000e+04 4.545259079631e-01 
1.347000000000e-01 0.000000000000e+00 1.501400000000e+00 -2.150000000000e+04 4.545259079631e-01 
7.070000000000e-02 0.000000000000e+00 1.487000000000e-01 -2.150000000000e+04 4.545259079631e-01 
2.430000000000e-02 0.000000000000e+00 1.305000000000e-01 -2.150000000000e+04 4.545259079631e-01 
1.684000000000e-01 0.000000000000e+00 1.284400000000e+00 -2.150000000000e+04 4.545259079631e-01 
1.227000000000e-01 0.000000000000e+00 7.518000000000e-01 -2.150000000000e+04 4.545259079631e-01 
1.534000000000e-01 0.000000000000e+00 1.044300000000e+00 -2.150000000000e+04 4.545259079631e-01 
1.675000000000e-01 0.000000000000e+00 1.071900000000e+00 -2.150000000000e+04 4.545259079631e-01 
1.303000000000e-01 0.000000000000e+00 1.061500000000e+00 -2.150000000000e+04 4.545259079631e-01 
4.540000000000e-02 0.000000000000e+00 4.397000000000e-01 -2.150000000000e+04 4.545259079631e-01 
3.180000000000e-02 0.000000000000e+00 4.123000000000e-01 -2.150000000000e+04 4.545259079631e-01 
6.810000000000e-02 0.000000000000e+00 4.217000000000e-01 -2.150000000000e+04 4.545259079631e-01 
1.362000000000e-01 0.000000000000e+00 7.707000000000e-01 -2.150000000000e+04 4.545259079631e-01 
1.492000000000e-01 0.000000000000e+00 1.525900000000e+00 -2.150000000000e+04 4.545259079631e-01 
1.669000000000e-01 0.000000000000e+00 1.557100000000e+00 -2.150000000000e+04 4.545259079631e-01 
1.290000000000e-01 0.000000000000e+00 1.549700000000e+00 -2.150000000000e+04 4.545259079631e-01 
1.672000000000e-01 0.000000000000e+00 7.152000000000e-01 -2.150000000000e+04 4.545259079631e-01 
1.292000000000e-01 0.000000000000e+00 7.229000000000e-01 -2.150000000000e+04 4.545259079631e-01 
1.496000000000e-01 0.000000000000e+00 7.459000000000e-01 -2.150000000000e+04 4.545259079631e-01 
1.767000000000e-01 0.000000000000e+00 1.527800000000e+00 -2.150000000000e+04 4.545259079631e-01 
0.000000000000e+00 0.000000000000e+00 1.666700000000e+00 -2.150000000000e+04 4.545259079631e-01 
1.669000000000e-01 0.000000000000e+00 1.016600000000e+00 -2.150000000000e+04 4.545259079631e-01 
1.768000000000e-01 0.000000000000e+00 7.437000000000e-01 -2.150000000000e+04 4.545259079631e-01 
1.776000000000e-01 0.000000000000e+00 8.630000000000e-01 -2.150000000000e+04 4.545259079631e-01 
3.190000000000e-02 0.000000000000e+00 4.672000000000e-01 -2.150000000000e+04 4.545259079631e-01 
6.870000000000e-02 0.000000000000e+00 4.579000000000e-01 -2.150000000000e+04 4.545259079631e-01 
0.000000000000e+00 0.000000000000e+00 8.788000000000e-01 -2.150000000000e+04 4.545259079631e-01 
1.726000000000e-01 0.000000000000e+00 3.445000000000e-01 -2.150000000000e+04 4.545259079631e-01 
1.711000000000e-01 0.000000000000e+00 4.926000000000e-01 -2.150000000000e+04 4.545259079631e-01 
0.000000000000e+00 0.000000000000e+00 1.697000000000e+00 -2.150000000000e+04 4.545259079631e-01 
1.711000000000e-01 0.000000000000e+00 2.350000000000e-01 -2.150000000000e+04 4.545259079631e-01 
2.790000000000e-02 0.000000000000e+00 6.467000000000e-01 -2.150000000000e+04 4.545259079631e-01 
2.700000000000e-02 0.000000000000e+00 1.352300000000e+00 -2.150000000000e+04 4.545259079631e-01 
6.220000000000e-02 0.000000000000e+00 1.532700000000e+00 -2.150000000000e+04 4.545259079631e-01 
0.000000000000e+00 0.000000000000e+00 1.424200000000e+00 -2.150000000000e+04 4.545259079631e-01 
3.010000000000e-02 0.000000000000e+00 1.406800000000e+00 -2.150000000000e+04 4.545259079631e-01 
2.620000000000e-02 0.000000000000e+00 1.439000000000e+00 -2.150000000000e+04 4.545259079631e-01 
3.030000000000e-02 0.000000000000e+00 1.532600000000e+00 -2.150000000000e+04 4.545259079631e-01 