 TITLE = "Profiles along polylines"
 VARIABLES = "DIST" "PRESSURE1" "SATURATION1" 
 ZONE T="TIME=0.000000000000e+00"
0.000000000000e+00 -2.150000000000e+04 4.545259079631e-01 
3.330000000000e-02 -2.150000000000e+04 4.545259079631e-01 
6.670000000000e-02 -2.150000000000e+04 4.545259079631e-01 
1.000000000000e-01 -2.150000000000e+04 4.545259079631e-01 
1.333000000000e-01 -2.150000000000e+04 4.545259079631e-01 
1.667000000000e-01 -2.150000000000e+04 4.545259079631e-01 
2.000000000000e-01 -2.150000000000e+04 4.545259079631e-01 
 TITLE = "Profiles along polylines"
 VARIABLES = "DIST" "PRESSURE1" "SATURATION1" 
 ZONE T="TIME=1.000000000000e-02"
0.000000000000e+00 0.000000000000e+00 8.802495995396e-01 
3.330000000000e-02 0.000000000000e+00 8.995593253464e-01 
6.670000000000e-02 0.000000000000e+00 9.529967710381e-01 
1.000000000000e-01 0.000000000000e+00 8.995399435118e-01 
1.333000000000e-01 0.000000000000e+00 9.044930062785e-01 
1.667000000000e-01 0.000000000000e+00 9.044976280587e-01 
2.000000000000e-01 0.000000000000e+00 9.188683944829e-01 
 TITLE = "Profiles along polylines"
 VARIABLES = "DIST" "PRESSURE1" "SATURATION1" 
 ZONE T="TIME=1.000000000000e-01"
0.000000000000e+00 0.000000000000e+00 8.807281949141e-01 
3.330000000000e-02 0.000000000000e+00 8.999140674610e-01 
6.670000000000e-02 0.000000000000e+00 9.532614970865e-01 
1.000000000000e-01 0.000000000000e+00 8.997188971875e-01 
1.333000000000e-01 0.000000000000e+00 9.048487723913e-01 
1.667000000000e-01 0.000000000000e+00 9.048951827915e-01 
2.000000000000e-01 0.000000000000e+00 9.190932541618e-01 
 TITLE = "Profiles along polylines"
 VARIABLES = "DIST" "PRESSURE1" "SATURATION1" 
 ZONE T="TIME=1.000000000000e+00"
0.000000000000e+00 0.000000000000e+00 8.857939639121e-01 
3.330000000000e-02 0.000000000000e+00 9.036366381865e-01 
6.670000000000e-02 0.000000000000e+00 9.559799435036e-01 
1.000000000000e-01 0.000000000000e+00 9.015497844296e-01 
1.333000000000e-01 0.000000000000e+00 9.085482640718e-01 
1.667000000000e-01 0.000000000000e+00 9.090316953055e-01 
2.000000000000e-01 0.000000000000e+00 9.214002240340e-01 
 TITLE = "Profiles along polylines"
 VARIABLES = "DIST" "PRESSURE1" "SATURATION1" 
 ZONE T="TIME=1.800000000000e+02"
0.000000000000e+00 0.000000000000e+00 1.000000000000e+00 
3.330000000000e-02 0.000000000000e+00 1.000000000000e+00 
6.670000000000e-02 0.000000000000e+00 1.000000000000e+00 
1.000000000000e-01 0.000000000000e+00 1.000000000000e+00 
1.333000000000e-01 0.000000000000e+00 1.000000000000e+00 
1.667000000000e-01 0.000000000000e+00 1.000000000000e+00 
2.000000000000e-01 0.000000000000e+00 1.000000000000e+00 
 TITLE = "Profiles along polylines"
 VARIABLES = "DIST" "PRESSURE1" "SATURATION1" 
 ZONE T="TIME=1.800000000000e+03"
0.000000000000e+00 0.000000000000e+00 1.000000000000e+00 
3.330000000000e-02 0.000000000000e+00 1.000000000000e+00 
6.670000000000e-02 0.000000000000e+00 1.000000000000e+00 
1.000000000000e-01 0.000000000000e+00 1.000000000000e+00 
1.333000000000e-01 0.000000000000e+00 1.000000000000e+00 
1.667000000000e-01 0.000000000000e+00 1.000000000000e+00 
2.000000000000e-01 0.000000000000e+00 1.000000000000e+00 
 TITLE = "Profiles along polylines"
 VARIABLES = "DIST" "PRESSURE1" "SATURATION1" 
 ZONE T="TIME=3.600000000000e+03"
0.000000000000e+00 0.000000000000e+00 1.000000000000e+00 
3.330000000000e-02 0.000000000000e+00 1.000000000000e+00 
6.670000000000e-02 0.000000000000e+00 1.000000000000e+00 
1.000000000000e-01 0.000000000000e+00 1.000000000000e+00 
1.333000000000e-01 0.000000000000e+00 1.000000000000e+00 
1.667000000000e-01 0.000000000000e+00 1.000000000000e+00 
2.000000000000e-01 0.000000000000e+00 1.000000000000e+00 
 TITLE = "Profiles along polylines"
 VARIABLES = "DIST" "PRESSURE1" "SATURATION1" 
 ZONE T="TIME=7.200000000000e+03"
0.000000000000e+00 0.000000000000e+00 1.000000000000e+00 
3.330000000000e-02 0.000000000000e+00 1.000000000000e+00 
6.670000000000e-02 0.000000000000e+00 1.000000000000e+00 
1.000000000000e-01 0.000000000000e+00 1.000000000000e+00 
1.333000000000e-01 0.000000000000e+00 1.000000000000e+00 
1.667000000000e-01 0.000000000000e+00 1.000000000000e+00 
2.000000000000e-01 0.000000000000e+00 1.000000000000e+00 
 TITLE = "Profiles along polylines"
 VARIABLES = "DIST" "PRESSURE1" "SATURATION1" 
 ZONE T="TIME=3.240000000000e+04"
0.000000000000e+00 0.000000000000e+00 1.000000000000e+00 
3.330000000000e-02 0.000000000000e+00 1.000000000000e+00 
6.670000000000e-02 0.000000000000e+00 1.000000000000e+00 
1.000000000000e-01 0.000000000000e+00 1.000000000000e+00 
1.333000000000e-01 0.000000000000e+00 1.000000000000e+00 
1.667000000000e-01 0.000000000000e+00 1.000000000000e+00 
2.000000000000e-01 0.000000000000e+00 1.000000000000e+00 
 ZONE T="TIME=6.120000000000e+04"
0.000000000000e+00 0.000000000000e+00 1.000000000000e+00 
3.330000000000e-02 0.000000000000e+00 1.000000000000e+00 
6.670000000000e-02 0.000000000000e+00 1.000000000000e+00 
1.000000000000e-01 0.000000000000e+00 1.000000000000e+00 
1.333000000000e-01 0.000000000000e+00 1.000000000000e+00 
1.667000000000e-01 0.000000000000e+00 1.000000000000e+00 
2.000000000000e-01 0.000000000000e+00 1.000000000000e+00 
