VARIABLES  = "X","Y","Z", "PRESSURE1", "SATURATION1"
ZONE T="0.000000000000e+00s", N=153, E=100, F=FEPOINT, ET=QUADRILATERAL
STRANDID=1, SOLUTIONTIME=0.000000000000e+00
0.000000000000e+00 0.000000000000e+00 0.000000000000e+00 -2.150000000000e+04 4.545259079631e-01 
0.000000000000e+00 0.000000000000e+00 4.000000000000e-02 -2.150000000000e+04 4.545259079631e-01 
2.000000000000e-02 0.000000000000e+00 4.000000000000e-02 -2.150000000000e+04 4.545259079631e-01 
2.000000000000e-02 0.000000000000e+00 0.000000000000e+00 -2.150000000000e+04 4.545259079631e-01 
0.000000000000e+00 0.000000000000e+00 8.000000000000e-02 -2.150000000000e+04 4.545259079631e-01 
2.000000000000e-02 0.000000000000e+00 8.000000000000e-02 -2.150000000000e+04 4.545259079631e-01 
0.000000000000e+00 0.000000000000e+00 1.200000000000e-01 -2.150000000000e+04 4.545259079631e-01 
2.000000000000e-02 0.000000000000e+00 1.200000000000e-01 -2.150000000000e+04 4.545259079631e-01 
0.000000000000e+00 0.000000000000e+00 1.600000000000e-01 -2.150000000000e+04 4.545259079631e-01 
2.000000000000e-02 0.000000000000e+00 1.600000000000e-01 -2.150000000000e+04 4.545259079631e-01 
0.000000000000e+00 0.000000000000e+00 2.000000000000e-01 -2.150000000000e+04 4.545259079631e-01 
2.000000000000e-02 0.000000000000e+00 2.000000000000e-01 -2.150000000000e+04 4.545259079631e-01 
0.000000000000e+00 0.000000000000e+00 2.400000000000e-01 -2.150000000000e+04 4.545259079631e-01 
2.000000000000e-02 0.000000000000e+00 2.400000000000e-01 -2.150000000000e+04 4.545259079631e-01 
0.000000000000e+00 0.000000000000e+00 2.800000000000e-01 -2.150000000000e+04 4.545259079631e-01 
2.000000000000e-02 0.000000000000e+00 2.800000000000e-01 -2.150000000000e+04 4.545259079631e-01 
0.000000000000e+00 0.000000000000e+00 3.200000000000e-01 -2.150000000000e+04 4.545259079631e-01 
2.000000000000e-02 0.000000000000e+00 3.200000000000e-01 -2.150000000000e+04 4.545259079631e-01 
0.000000000000e+00 0.000000000000e+00 3.600000000000e-01 -2.150000000000e+04 4.545259079631e-01 
2.000000000000e-02 0.000000000000e+00 3.600000000000e-01 -2.150000000000e+04 4.545259079631e-01 
0.000000000000e+00 0.000000000000e+00 4.000000000000e-01 -2.150000000000e+04 4.545259079631e-01 
2.000000000000e-02 0.000000000000e+00 4.000000000000e-01 -2.150000000000e+04 4.545259079631e-01 
0.000000000000e+00 0.000000000000e+00 4.400000000000e-01 -2.150000000000e+04 4.545259079631e-01 
2.000000000000e-02 0.000000000000e+00 4.400000000000e-01 -2.150000000000e+04 4.545259079631e-01 
0.000000000000e+00 0.000000000000e+00 4.800000000000e-01 -2.150000000000e+04 4.545259079631e-01 
2.000000000000e-02 0.000000000000e+00 4.800000000000e-01 -2.150000000000e+04 4.545259079631e-01 
0.000000000000e+00 0.000000000000e+00 5.200000000000e-01 -2.150000000000e+04 4.545259079631e-01 
2.000000000000e-02 0.000000000000e+00 5.200000000000e-01 -2.150000000000e+04 4.545259079631e-01 
0.000000000000e+00 0.000000000000e+00 5.600000000000e-01 -2.150000000000e+04 4.545259079631e-01 
2.000000000000e-02 0.000000000000e+00 5.600000000000e-01 -2.150000000000e+04 4.545259079631e-01 
0.000000000000e+00 0.000000000000e+00 6.000000000000e-01 -2.150000000000e+04 4.545259079631e-01 
2.000000000000e-02 0.000000000000e+00 6.000000000000e-01 -2.150000000000e+04 4.545259079631e-01 
0.000000000000e+00 0.000000000000e+00 6.400000000000e-01 -2.150000000000e+04 4.545259079631e-01 
2.000000000000e-02 0.000000000000e+00 6.400000000000e-01 -2.150000000000e+04 4.545259079631e-01 
0.000000000000e+00 0.000000000000e+00 6.800000000000e-01 -2.150000000000e+04 4.545259079631e-01 
2.000000000000e-02 0.000000000000e+00 6.800000000000e-01 -2.150000000000e+04 4.545259079631e-01 
0.000000000000e+00 0.000000000000e+00 7.200000000000e-01 -2.150000000000e+04 4.545259079631e-01 
2.000000000000e-02 0.000000000000e+00 7.200000000000e-01 -2.150000000000e+04 4.545259079631e-01 
0.000000000000e+00 0.000000000000e+00 7.600000000000e-01 -2.150000000000e+04 4.545259079631e-01 
2.000000000000e-02 0.000000000000e+00 7.600000000000e-01 -2.150000000000e+04 4.545259079631e-01 
0.000000000000e+00 0.000000000000e+00 8.000000000000e-01 -2.150000000000e+04 4.545259079631e-01 
2.000000000000e-02 0.000000000000e+00 8.000000000000e-01 -2.150000000000e+04 4.545259079631e-01 
0.000000000000e+00 0.000000000000e+00 8.400000000000e-01 -2.150000000000e+04 4.545259079631e-01 
2.000000000000e-02 0.000000000000e+00 8.400000000000e-01 -2.150000000000e+04 4.545259079631e-01 
0.000000000000e+00 0.000000000000e+00 8.800000000000e-01 -2.150000000000e+04 4.545259079631e-01 
2.000000000000e-02 0.000000000000e+00 8.800000000000e-01 -2.150000000000e+04 4.545259079631e-01 
0.000000000000e+00 0.000000000000e+00 9.200000000000e-01 -2.150000000000e+04 4.545259079631e-01 
2.000000000000e-02 0.000000000000e+00 9.200000000000e-01 -2.150000000000e+04 4.545259079631e-01 
0.000000000000e+00 0.000000000000e+00 9.600000000000e-01 -2.150000000000e+04 4.545259079631e-01 
2.000000000000e-02 0.000000000000e+00 9.600000000000e-01 -2.150000000000e+04 4.545259079631e-01 
0.000000000000e+00 0.000000000000e+00 1.000000000000e+00 -2.150000000000e+04 4.545259079631e-01 
2.000000000000e-02 0.000000000000e+00 1.000000000000e+00 -2.150000000000e+04 4.545259079631e-01 
0.000000000000e+00 0.000000000000e+00 1.040000000000e+00 -2.150000000000e+04 4.545259079631e-01 
2.000000000000e-02 0.000000000000e+00 1.040000000000e+00 -2.150000000000e+04 4.545259079631e-01 
0.000000000000e+00 0.000000000000e+00 1.080000000000e+00 -2.150000000000e+04 4.545259079631e-01 
2.000000000000e-02 0.000000000000e+00 1.080000000000e+00 -2.150000000000e+04 4.545259079631e-01 
0.000000000000e+00 0.000000000000e+00 1.120000000000e+00 -2.150000000000e+04 4.545259079631e-01 
2.000000000000e-02 0.000000000000e+00 1.120000000000e+00 -2.150000000000e+04 4.545259079631e-01 
0.000000000000e+00 0.000000000000e+00 1.160000000000e+00 -2.150000000000e+04 4.545259079631e-01 
2.000000000000e-02 0.000000000000e+00 1.160000000000e+00 -2.150000000000e+04 4.545259079631e-01 
0.000000000000e+00 0.000000000000e+00 1.200000000000e+00 -2.150000000000e+04 4.545259079631e-01 
2.000000000000e-02 0.000000000000e+00 1.200000000000e+00 -2.150000000000e+04 4.545259079631e-01 
0.000000000000e+00 0.000000000000e+00 1.240000000000e+00 -2.150000000000e+04 4.545259079631e-01 
2.000000000000e-02 0.000000000000e+00 1.240000000000e+00 -2.150000000000e+04 4.545259079631e-01 
0.000000000000e+00 0.000000000000e+00 1.280000000000e+00 -2.150000000000e+04 4.545259079631e-01 
2.000000000000e-02 0.000000000000e+00 1.280000000000e+00 -2.150000000000e+04 4.545259079631e-01 
0.000000000000e+00 0.000000000000e+00 1.320000000000e+00 -2.150000000000e+04 4.545259079631e-01 
2.000000000000e-02 0.000000000000e+00 1.320000000000e+00 -2.150000000000e+04 4.545259079631e-01 
0.000000000000e+00 0.000000000000e+00 1.360000000000e+00 -2.150000000000e+04 4.545259079631e-01 
2.000000000000e-02 0.000000000000e+00 1.360000000000e+00 -2.150000000000e+04 4.545259079631e-01 
0.000000000000e+00 0.000000000000e+00 1.400000000000e+00 -2.150000000000e+04 4.545259079631e-01 
2.000000000000e-02 0.000000000000e+00 1.400000000000e+00 -2.150000000000e+04 4.545259079631e-01 
0.000000000000e+00 0.000000000000e+00 1.440000000000e+00 -2.150000000000e+04 4.545259079631e-01 
2.000000000000e-02 0.000000000000e+00 1.440000000000e+00 -2.150000000000e+04 4.545259079631e-01 
0.000000000000e+00 0.000000000000e+00 1.480000000000e+00 -2.150000000000e+04 4.545259079631e-01 
2.000000000000e-02 0.000000000000e+00 1.480000000000e+00 -2.150000000000e+04 4.545259079631e-01 
0.000000000000e+00 0.000000000000e+00 1.520000000000e+00 -2.150000000000e+04 4.545259079631e-01 
2.000000000000e-02 0.000000000000e+00 1.520000000000e+00 -2.150000000000e+04 4.545259079631e-01 
0.000000000000e+00 0.000000000000e+00 1.560000000000e+00 -2.150000000000e+04 4.545259079631e-01 
2.000000000000e-02 0.000000000000e+00 1.560000000000e+00 -2.150000000000e+04 4.545259079631e-01 
0.000000000000e+00 0.000000000000e+00 1.600000000000e+00 -2.150000000000e+04 4.545259079631e-01 
2.000000000000e-02 0.000000000000e+00 1.600000000000e+00 -2.150000000000e+04 4.545259079631e-01 
0.000000000000e+00 0.000000000000e+00 1.640000000000e+00 -2.150000000000e+04 4.545259079631e-01 
2.000000000000e-02 0.000000000000e+00 1.640000000000e+00 -2.150000000000e+04 4.545259079631e-01 
0.000000000000e+00 0.000000000000e+00 1.680000000000e+00 -2.150000000000e+04 4.545259079631e-01 
2.000000000000e-02 0.000000000000e+00 1.680000000000e+00 -2.150000000000e+04 4.545259079631e-01 
0.000000000000e+00 0.000000000000e+00 1.720000000000e+00 -2.150000000000e+04 4.545259079631e-01 
2.000000000000e-02 0.000000000000e+00 1.720000000000e+00 -2.150000000000e+04 4.545259079631e-01 
0.000000000000e+00 0.000000000000e+00 1.760000000000e+00 -2.150000000000e+04 4.545259079631e-01 
2.000000000000e-02 0.000000000000e+00 1.760000000000e+00 -2.150000000000e+04 4.545259079631e-01 
0.000000000000e+00 0.000000000000e+00 1.800000000000e+00 -2.150000000000e+04 4.545259079631e-01 
2.000000000000e-02 0.000000000000e+00 1.800000000000e+00 -2.150000000000e+04 4.545259079631e-01 
0.000000000000e+00 0.000000000000e+00 1.840000000000e+00 -2.150000000000e+04 4.545259079631e-01 
2.000000000000e-02 0.000000000000e+00 1.840000000000e+00 -2.150000000000e+04 4.545259079631e-01 
0.000000000000e+00 0.000000000000e+00 1.880000000000e+00 -2.150000000000e+04 4.545259079631e-01 
2.000000000000e-02 0.000000000000e+00 1.880000000000e+00 -2.150000000000e+04 4.545259079631e-01 
0.000000000000e+00 0.000000000000e+00 1.920000000000e+00 -2.150000000000e+04 4.545259079631e-01 
2.000000000000e-02 0.000000000000e+00 1.920000000000e+00 -2.150000000000e+04 4.545259079631e-01 
0.000000000000e+00 0.000000000000e+00 1.960000000000e+00 -2.150000000000e+04 4.545259079631e-01 
2.000000000000e-02 0.000000000000e+00 1.960000000000e+00 -2.150000000000e+04 4.545259079631e-01 
0.000000000000e+00 0.000000000000e+00 2.000000000000e+00 -2.150000000000e+04 4.545259079631e-01 
2.000000000000e-02 0.000000000000e+00 2.000000000000e+00 -2.150000000000e+04 4.545259079631e-01 
4.000000000000e-02 0.000000000000e+00 4.000000000000e-02 -2.150000000000e+04 4.545259079631e-01 
4.000000000000e-02 0.000000000000e+00 0.000000000000e+00 -2.150000000000e+04 4.545259079631e-01 
4.000000000000e-02 0.000000000000e+00 8.000000000000e-02 -2.150000000000e+04 4.545259079631e-01 
4.000000000000e-02 0.000000000000e+00 1.200000000000e-01 -2.150000000000e+04 4.545259079631e-01 
4.000000000000e-02 0.000000000000e+00 1.600000000000e-01 -2.150000000000e+04 4.545259079631e-01 
4.000000000000e-02 0.000000000000e+00 2.000000000000e-01 -2.150000000000e+04 4.545259079631e-01 
4.000000000000e-02 0.000000000000e+00 2.400000000000e-01 -2.150000000000e+04 4.545259079631e-01 
4.000000000000e-02 0.000000000000e+00 2.800000000000e-01 -2.150000000000e+04 4.545259079631e-01 
4.000000000000e-02 0.000000000000e+00 3.200000000000e-01 -2.150000000000e+04 4.545259079631e-01 
4.000000000000e-02 0.000000000000e+00 3.600000000000e-01 -2.150000000000e+04 4.545259079631e-01 
4.000000000000e-02 0.000000000000e+00 4.000000000000e-01 -2.150000000000e+04 4.545259079631e-01 
4.000000000000e-02 0.000000000000e+00 4.400000000000e-01 -2.150000000000e+04 4.545259079631e-01 
4.000000000000e-02 0.000000000000e+00 4.800000000000e-01 -2.150000000000e+04 4.545259079631e-01 
4.000000000000e-02 0.000000000000e+00 5.200000000000e-01 -2.150000000000e+04 4.545259079631e-01 
4.000000000000e-02 0.000000000000e+00 5.600000000000e-01 -2.150000000000e+04 4.545259079631e-01 
4.000000000000e-02 0.000000000000e+00 6.000000000000e-01 -2.150000000000e+04 4.545259079631e-01 
4.000000000000e-02 0.000000000000e+00 6.400000000000e-01 -2.150000000000e+04 4.545259079631e-01 
4.000000000000e-02 0.000000000000e+00 6.800000000000e-01 -2.150000000000e+04 4.545259079631e-01 
4.000000000000e-02 0.000000000000e+00 7.200000000000e-01 -2.150000000000e+04 4.545259079631e-01 
4.000000000000e-02 0.000000000000e+00 7.600000000000e-01 -2.150000000000e+04 4.545259079631e-01 
4.000000000000e-02 0.000000000000e+00 8.000000000000e-01 -2.150000000000e+04 4.545259079631e-01 
4.000000000000e-02 0.000000000000e+00 8.400000000000e-01 -2.150000000000e+04 4.545259079631e-01 
4.000000000000e-02 0.000000000000e+00 8.800000000000e-01 -2.150000000000e+04 4.545259079631e-01 
4.000000000000e-02 0.000000000000e+00 9.200000000000e-01 -2.150000000000e+04 4.545259079631e-01 
4.000000000000e-02 0.000000000000e+00 9.600000000000e-01 -2.150000000000e+04 4.545259079631e-01 
4.000000000000e-02 0.000000000000e+00 1.000000000000e+00 -2.150000000000e+04 4.545259079631e-01 
4.000000000000e-02 0.000000000000e+00 1.040000000000e+00 -2.150000000000e+04 4.545259079631e-01 
4.000000000000e-02 0.000000000000e+00 1.080000000000e+00 -2.150000000000e+04 4.545259079631e-01 
4.000000000000e-02 0.000000000000e+00 1.120000000000e+00 -2.150000000000e+04 4.545259079631e-01 
4.000000000000e-02 0.000000000000e+00 1.160000000000e+00 -2.150000000000e+04 4.545259079631e-01 
4.000000000000e-02 0.000000000000e+00 1.200000000000e+00 -2.150000000000e+04 4.545259079631e-01 
4.000000000000e-02 0.000000000000e+00 1.240000000000e+00 -2.150000000000e+04 4.545259079631e-01 
4.000000000000e-02 0.000000000000e+00 1.280000000000e+00 -2.150000000000e+04 4.545259079631e-01 
4.000000000000e-02 0.000000000000e+00 1.320000000000e+00 -2.150000000000e+04 4.545259079631e-01 
4.000000000000e-02 0.000000000000e+00 1.360000000000e+00 -2.150000000000e+04 4.545259079631e-01 
4.000000000000e-02 0.000000000000e+00 1.400000000000e+00 -2.150000000000e+04 4.545259079631e-01 
4.000000000000e-02 0.000000000000e+00 1.440000000000e+00 -2.150000000000e+04 4.545259079631e-01 
4.000000000000e-02 0.000000000000e+00 1.480000000000e+00 -2.150000000000e+04 4.545259079631e-01 
4.000000000000e-02 0.000000000000e+00 1.520000000000e+00 -2.150000000000e+04 4.545259079631e-01 
4.000000000000e-02 0.000000000000e+00 1.560000000000e+00 -2.150000000000e+04 4.545259079631e-01 
4.000000000000e-02 0.000000000000e+00 1.600000000000e+00 -2.150000000000e+04 4.545259079631e-01 
4.000000000000e-02 0.000000000000e+00 1.640000000000e+00 -2.150000000000e+04 4.545259079631e-01 
4.000000000000e-02 0.000000000000e+00 1.680000000000e+00 -2.150000000000e+04 4.545259079631e-01 
4.000000000000e-02 0.000000000000e+00 1.720000000000e+00 -2.150000000000e+04 4.545259079631e-01 
4.000000000000e-02 0.000000000000e+00 1.760000000000e+00 -2.150000000000e+04 4.545259079631e-01 
4.000000000000e-02 0.000000000000e+00 1.800000000000e+00 -2.150000000000e+04 4.545259079631e-01 
4.000000000000e-02 0.000000000000e+00 1.840000000000e+00 -2.150000000000e+04 4.545259079631e-01 
4.000000000000e-02 0.000000000000e+00 1.880000000000e+00 -2.150000000000e+04 4.545259079631e-01 
4.000000000000e-02 0.000000000000e+00 1.920000000000e+00 -2.150000000000e+04 4.545259079631e-01 
4.000000000000e-02 0.000000000000e+00 1.960000000000e+00 -2.150000000000e+04 4.545259079631e-01 
4.000000000000e-02 0.000000000000e+00 2.000000000000e+00 -2.150000000000e+04 4.545259079631e-01 
1  2  3  4  
2  5  6  3  
5  7  8  6  
7  9  10  8  
9  11  12  10  
11  13  14  12  
13  15  16  14  
15  17  18  16  
17  19  20  18  
19  21  22  20  
21  23  24  22  
23  25  26  24  
25  27  28  26  
27  29  30  28  
29  31  32  30  
31  33  34  32  
33  35  36  34  
35  37  38  36  
37  39  40  38  
39  41  42  40  
41  43  44  42  
43  45  46  44  
45  47  48  46  
47  49  50  48  
49  51  52  50  
51  53  54  52  
53  55  56  54  
55  57  58  56  
57  59  60  58  
59  61  62  60  
61  63  64  62  
63  65  66  64  
65  67  68  66  
67  69  70  68  
69  71  72  70  
71  73  74  72  
73  75  76  74  
75  77  78  76  
77  79  80  78  
79  81  82  80  
81  83  84  82  
83  85  86  84  
85  87  88  86  
87  89  90  88  
89  91  92  90  
91  93  94  92  
93  95  96  94  
95  97  98  96  
97  99  100  98  
99  101  102  100  
4  3  103  104  
3  6  105  103  
6  8  106  105  
8  10  107  106  
10  12  108  107  
12  14  109  108  
14  16  110  109  
16  18  111  110  
18  20  112  111  
20  22  113  112  
22  24  114  113  
24  26  115  114  
26  28  116  115  
28  30  117  116  
30  32  118  117  
32  34  119  118  
34  36  120  119  
36  38  121  120  
38  40  122  121  
40  42  123  122  
42  44  124  123  
44  46  125  124  
46  48  126  125  
48  50  127  126  
50  52  128  127  
52  54  129  128  
54  56  130  129  
56  58  131  130  
58  60  132  131  
60  62  133  132  
62  64  134  133  
64  66  135  134  
66  68  136  135  
68  70  137  136  
70  72  138  137  
72  74  139  138  
74  76  140  139  
76  78  141  140  
78  80  142  141  
80  82  143  142  
82  84  144  143  
84  86  145  144  
86  88  146  145  
88  90  147  146  
90  92  148  147  
92  94  149  148  
94  96  150  149  
96  98  151  150  
98  100  152  151  
100  102  153  152  
VARIABLES  = "X","Y","Z", "PRESSURE1", "SATURATION1"
ZONE T="1.000000000000e-02s", N=153, E=100, F=FEPOINT, ET=QUADRILATERAL
STRANDID=1, SOLUTIONTIME=1.000000000000e-02
0.000000000000e+00 0.000000000000e+00 0.000000000000e+00 -2.150000000000e+04 4.545259079631e-01 
0.000000000000e+00 0.000000000000e+00 4.000000000000e-02 -2.150000000000e+04 4.545259079631e-01 
2.000000000000e-02 0.000000000000e+00 4.000000000000e-02 -2.150000000000e+04 4.545259079631e-01 
2.000000000000e-02 0.000000000000e+00 0.000000000000e+00 -2.150000000000e+04 4.545259079631e-01 
0.000000000000e+00 0.000000000000e+00 8.000000000000e-02 -2.150000000000e+04 4.545259079631e-01 
2.000000000000e-02 0.000000000000e+00 8.000000000000e-02 -2.150000000000e+04 4.545259079631e-01 
0.000000000000e+00 0.000000000000e+00 1.200000000000e-01 -2.150000000000e+04 4.545259079631e-01 
2.000000000000e-02 0.000000000000e+00 1.200000000000e-01 -2.150000000000e+04 4.545259079631e-01 
0.000000000000e+00 0.000000000000e+00 1.600000000000e-01 -2.150000000000e+04 4.545259079631e-01 
2.000000000000e-02 0.000000000000e+00 1.600000000000e-01 -2.150000000000e+04 4.545259079631e-01 
0.000000000000e+00 0.000000000000e+00 2.000000000000e-01 -2.150000000000e+04 4.545259079631e-01 
2.000000000000e-02 0.000000000000e+00 2.000000000000e-01 -2.150000000000e+04 4.545259079631e-01 
0.000000000000e+00 0.000000000000e+00 2.400000000000e-01 -2.150000000000e+04 4.545259079631e-01 
2.000000000000e-02 0.000000000000e+00 2.400000000000e-01 -2.150000000000e+04 4.545259079631e-01 
0.000000000000e+00 0.000000000000e+00 2.800000000000e-01 -2.150000000000e+04 4.545259079631e-01 
2.000000000000e-02 0.000000000000e+00 2.800000000000e-01 -2.150000000000e+04 4.545259079631e-01 
0.000000000000e+00 0.000000000000e+00 3.200000000000e-01 -2.150000000000e+04 4.545259079631e-01 
2.000000000000e-02 0.000000000000e+00 3.200000000000e-01 -2.150000000000e+04 4.545259079631e-01 
0.000000000000e+00 0.000000000000e+00 3.600000000000e-01 -2.150000000000e+04 4.545259079631e-01 
2.000000000000e-02 0.000000000000e+00 3.600000000000e-01 -2.150000000000e+04 4.545259079631e-01 
0.000000000000e+00 0.000000000000e+00 4.000000000000e-01 -2.150000000000e+04 4.545259079631e-01 
2.000000000000e-02 0.000000000000e+00 4.000000000000e-01 -2.150000000000e+04 4.545259079631e-01 
0.000000000000e+00 0.000000000000e+00 4.400000000000e-01 -2.150000000000e+04 4.545259079631e-01 
2.000000000000e-02 0.000000000000e+00 4.400000000000e-01 -2.150000000000e+04 4.545259079631e-01 
0.000000000000e+00 0.000000000000e+00 4.800000000000e-01 -2.150000000000e+04 4.545259079631e-01 
2.000000000000e-02 0.000000000000e+00 4.800000000000e-01 -2.150000000000e+04 4.545259079631e-01 
0.000000000000e+00 0.000000000000e+00 5.200000000000e-01 -2.150000000000e+04 4.545259079631e-01 
2.000000000000e-02 0.000000000000e+00 5.200000000000e-01 -2.150000000000e+04 4.545259079631e-01 
0.000000000000e+00 0.000000000000e+00 5.600000000000e-01 -2.150000000000e+04 4.545259079631e-01 
2.000000000000e-02 0.000000000000e+00 5.600000000000e-01 -2.150000000000e+04 4.545259079631e-01 
0.000000000000e+00 0.000000000000e+00 6.000000000000e-01 -2.150000000000e+04 4.545259079631e-01 
2.000000000000e-02 0.000000000000e+00 6.000000000000e-01 -2.150000000000e+04 4.545259079631e-01 
0.000000000000e+00 0.000000000000e+00 6.400000000000e-01 -2.150000000000e+04 4.545259079631e-01 
2.000000000000e-02 0.000000000000e+00 6.400000000000e-01 -2.150000000000e+04 4.545259079631e-01 
0.000000000000e+00 0.000000000000e+00 6.800000000000e-01 -2.150000000000e+04 4.545259079631e-01 
2.000000000000e-02 0.000000000000e+00 6.800000000000e-01 -2.150000000000e+04 4.545259079631e-01 
0.000000000000e+00 0.000000000000e+00 7.200000000000e-01 -2.150000000000e+04 4.545259079631e-01 
2.000000000000e-02 0.000000000000e+00 7.200000000000e-01 -2.150000000000e+04 4.545259079631e-01 
0.000000000000e+00 0.000000000000e+00 7.600000000000e-01 -2.150000000000e+04 4.545259079631e-01 
2.000000000000e-02 0.000000000000e+00 7.600000000000e-01 -2.150000000000e+04 4.545259079631e-01 
0.000000000000e+00 0.000000000000e+00 8.000000000000e-01 -2.150000000000e+04 4.545259079631e-01 
2.000000000000e-02 0.000000000000e+00 8.000000000000e-01 -2.150000000000e+04 4.545259079631e-01 
0.000000000000e+00 0.000000000000e+00 8.400000000000e-01 -2.150000000000e+04 4.545259079631e-01 
2.000000000000e-02 0.000000000000e+00 8.400000000000e-01 -2.150000000000e+04 4.545259079631e-01 
0.000000000000e+00 0.000000000000e+00 8.800000000000e-01 -2.150000000000e+04 4.545259079631e-01 
2.000000000000e-02 0.000000000000e+00 8.800000000000e-01 -2.150000000000e+04 4.545259079631e-01 
0.000000000000e+00 0.000000000000e+00 9.200000000000e-01 -2.150000000000e+04 4.545259079631e-01 
2.000000000000e-02 0.000000000000e+00 9.200000000000e-01 -2.150000000000e+04 4.545259079631e-01 
0.000000000000e+00 0.000000000000e+00 9.600000000000e-01 -2.150000000000e+04 4.545259079631e-01 
2.000000000000e-02 0.000000000000e+00 9.600000000000e-01 -2.150000000000e+04 4.545259079631e-01 
0.000000000000e+00 0.000000000000e+00 1.000000000000e+00 -2.150000000000e+04 4.545259079631e-01 
2.000000000000e-02 0.000000000000e+00 1.000000000000e+00 -2.150000000000e+04 4.545259079631e-01 
0.000000000000e+00 0.000000000000e+00 1.040000000000e+00 -2.150000000000e+04 4.545259079631e-01 
2.000000000000e-02 0.000000000000e+00 1.040000000000e+00 -2.150000000000e+04 4.545259079631e-01 
0.000000000000e+00 0.000000000000e+00 1.080000000000e+00 -2.150000000000e+04 4.545259079631e-01 
2.000000000000e-02 0.000000000000e+00 1.080000000000e+00 -2.150000000000e+04 4.545259079631e-01 
0.000000000000e+00 0.000000000000e+00 1.120000000000e+00 -2.150000000000e+04 4.545259079631e-01 
2.000000000000e-02 0.000000000000e+00 1.120000000000e+00 -2.150000000000e+04 4.545259079631e-01 
0.000000000000e+00 0.000000000000e+00 1.160000000000e+00 -2.150000000000e+04 4.545259079631e-01 
2.000000000000e-02 0.000000000000e+00 1.160000000000e+00 -2.150000000000e+04 4.545259079631e-01 
0.000000000000e+00 0.000000000000e+00 1.200000000000e+00 -2.150000000000e+04 4.545259079631e-01 
2.000000000000e-02 0.000000000000e+00 1.200000000000e+00 -2.150000000000e+04 4.545259079631e-01 
0.000000000000e+00 0.000000000000e+00 1.240000000000e+00 -2.150000000000e+04 4.545259079631e-01 
2.000000000000e-02 0.000000000000e+00 1.240000000000e+00 -2.150000000000e+04 4.545259079631e-01 
0.000000000000e+00 0.000000000000e+00 1.280000000000e+00 -2.150000000000e+04 4.545259079631e-01 
2.000000000000e-02 0.000000000000e+00 1.280000000000e+00 -2.150000000000e+04 4.545259079631e-01 
0.000000000000e+00 0.000000000000e+00 1.320000000000e+00 -2.150000000000e+04 4.545259079631e-01 
2.000000000000e-02 0.000000000000e+00 1.320000000000e+00 -2.150000000000e+04 4.545259079631e-01 
0.000000000000e+00 0.000000000000e+00 1.360000000000e+00 -2.150000000000e+04 4.545259079631e-01 
2.000000000000e-02 0.000000000000e+00 1.360000000000e+00 -2.150000000000e+04 4.545259079631e-01 
0.000000000000e+00 0.000000000000e+00 1.400000000000e+00 -2.150000000000e+04 4.545259079631e-01 
2.000000000000e-02 0.000000000000e+00 1.400000000000e+00 -2.150000000000e+04 4.545259079631e-01 
0.000000000000e+00 0.000000000000e+00 1.440000000000e+00 -2.150000000000e+04 4.545259079631e-01 
2.000000000000e-02 0.000000000000e+00 1.440000000000e+00 -2.150000000000e+04 4.545259079631e-01 
0.000000000000e+00 0.000000000000e+00 1.480000000000e+00 -2.150000000000e+04 4.545259079631e-01 
2.000000000000e-02 0.000000000000e+00 1.480000000000e+00 -2.150000000000e+04 4.545259079631e-01 
0.000000000000e+00 0.000000000000e+00 1.520000000000e+00 -2.150000000000e+04 4.545259079631e-01 
2.000000000000e-02 0.000000000000e+00 1.520000000000e+00 -2.150000000000e+04 4.545259079631e-01 
0.000000000000e+00 0.000000000000e+00 1.560000000000e+00 -2.150000000000e+04 4.545259079631e-01 
2.000000000000e-02 0.000000000000e+00 1.560000000000e+00 -2.150000000000e+04 4.545259079631e-01 
0.000000000000e+00 0.000000000000e+00 1.600000000000e+00 -2.150000000000e+04 4.545259079631e-01 
2.000000000000e-02 0.000000000000e+00 1.600000000000e+00 -2.150000000000e+04 4.545259079631e-01 
0.000000000000e+00 0.000000000000e+00 1.640000000000e+00 -2.150000000000e+04 4.545259079631e-01 
2.000000000000e-02 0.000000000000e+00 1.640000000000e+00 -2.150000000000e+04 4.545259079631e-01 
0.000000000000e+00 0.000000000000e+00 1.680000000000e+00 -2.150000000000e+04 4.545259079631e-01 
2.000000000000e-02 0.000000000000e+00 1.680000000000e+00 -2.150000000000e+04 4.545259079631e-01 
0.000000000000e+00 0.000000000000e+00 1.720000000000e+00 -2.150000000000e+04 4.545259079631e-01 
2.000000000000e-02 0.000000000000e+00 1.720000000000e+00 -2.150000000000e+04 4.545259079631e-01 
0.000000000000e+00 0.000000000000e+00 1.760000000000e+00 -2.150000000000e+04 4.545259079631e-01 
2.000000000000e-02 0.000000000000e+00 1.760000000000e+00 -2.150000000000e+04 4.545259079631e-01 
0.000000000000e+00 0.000000000000e+00 1.800000000000e+00 -2.150000000000e+04 4.545259079631e-01 
2.000000000000e-02 0.000000000000e+00 1.800000000000e+00 -2.150000000000e+04 4.545259079631e-01 
0.000000000000e+00 0.000000000000e+00 1.840000000000e+00 -2.150000000000e+04 4.545259079631e-01 
2.000000000000e-02 0.000000000000e+00 1.840000000000e+00 -2.150000000000e+04 4.545259079631e-01 
0.000000000000e+00 0.000000000000e+00 1.880000000000e+00 -2.150000000000e+04 4.545259079631e-01 
2.000000000000e-02 0.000000000000e+00 1.880000000000e+00 -2.150000000000e+04 4.545259079631e-01 
0.000000000000e+00 0.000000000000e+00 1.920000000000e+00 -2.149999999899e+04 4.545259079754e-01 
2.000000000000e-02 0.000000000000e+00 1.920000000000e+00 -2.149999999899e+04 4.545259079754e-01 
0.000000000000e+00 0.000000000000e+00 1.960000000000e+00 -2.149835767846e+04 4.345789792024e-01 
2.000000000000e-02 0.000000000000e+00 1.960000000000e+00 -2.149835767846e+04 4.345789792024e-01 
0.000000000000e+00 0.000000000000e+00 2.000000000000e+00 0.000000000000e+00 1.000000000000e+00 
2.000000000000e-02 0.000000000000e+00 2.000000000000e+00 0.000000000000e+00 1.000000000000e+00 
4.000000000000e-02 0.000000000000e+00 4.000000000000e-02 -2.150000000000e+04 4.545259079631e-01 
4.000000000000e-02 0.000000000000e+00 0.000000000000e+00 -2.150000000000e+04 4.545259079631e-01 
4.000000000000e-02 0.000000000000e+00 8.000000000000e-02 -2.150000000000e+04 4.545259079631e-01 
4.000000000000e-02 0.000000000000e+00 1.200000000000e-01 -2.150000000000e+04 4.545259079631e-01 
4.000000000000e-02 0.000000000000e+00 1.600000000000e-01 -2.150000000000e+04 4.545259079631e-01 
4.000000000000e-02 0.000000000000e+00 2.000000000000e-01 -2.150000000000e+04 4.545259079631e-01 
4.000000000000e-02 0.000000000000e+00 2.400000000000e-01 -2.150000000000e+04 4.545259079631e-01 
4.000000000000e-02 0.000000000000e+00 2.800000000000e-01 -2.150000000000e+04 4.545259079631e-01 
4.000000000000e-02 0.000000000000e+00 3.200000000000e-01 -2.150000000000e+04 4.545259079631e-01 
4.000000000000e-02 0.000000000000e+00 3.600000000000e-01 -2.150000000000e+04 4.545259079631e-01 
4.000000000000e-02 0.000000000000e+00 4.000000000000e-01 -2.150000000000e+04 4.545259079631e-01 
4.000000000000e-02 0.000000000000e+00 4.400000000000e-01 -2.150000000000e+04 4.545259079631e-01 
4.000000000000e-02 0.000000000000e+00 4.800000000000e-01 -2.150000000000e+04 4.545259079631e-01 
4.000000000000e-02 0.000000000000e+00 5.200000000000e-01 -2.150000000000e+04 4.545259079631e-01 
4.000000000000e-02 0.000000000000e+00 5.600000000000e-01 -2.150000000000e+04 4.545259079631e-01 
4.000000000000e-02 0.000000000000e+00 6.000000000000e-01 -2.150000000000e+04 4.545259079631e-01 
4.000000000000e-02 0.000000000000e+00 6.400000000000e-01 -2.150000000000e+04 4.545259079631e-01 
4.000000000000e-02 0.000000000000e+00 6.800000000000e-01 -2.150000000000e+04 4.545259079631e-01 
4.000000000000e-02 0.000000000000e+00 7.200000000000e-01 -2.150000000000e+04 4.545259079631e-01 
4.000000000000e-02 0.000000000000e+00 7.600000000000e-01 -2.150000000000e+04 4.545259079631e-01 
4.000000000000e-02 0.000000000000e+00 8.000000000000e-01 -2.150000000000e+04 4.545259079631e-01 
4.000000000000e-02 0.000000000000e+00 8.400000000000e-01 -2.150000000000e+04 4.545259079631e-01 
4.000000000000e-02 0.000000000000e+00 8.800000000000e-01 -2.150000000000e+04 4.545259079631e-01 
4.000000000000e-02 0.000000000000e+00 9.200000000000e-01 -2.150000000000e+04 4.545259079631e-01 
4.000000000000e-02 0.000000000000e+00 9.600000000000e-01 -2.150000000000e+04 4.545259079631e-01 
4.000000000000e-02 0.000000000000e+00 1.000000000000e+00 -2.150000000000e+04 4.545259079631e-01 
4.000000000000e-02 0.000000000000e+00 1.040000000000e+00 -2.150000000000e+04 4.545259079631e-01 
4.000000000000e-02 0.000000000000e+00 1.080000000000e+00 -2.150000000000e+04 4.545259079631e-01 
4.000000000000e-02 0.000000000000e+00 1.120000000000e+00 -2.150000000000e+04 4.545259079631e-01 
4.000000000000e-02 0.000000000000e+00 1.160000000000e+00 -2.150000000000e+04 4.545259079631e-01 
4.000000000000e-02 0.000000000000e+00 1.200000000000e+00 -2.150000000000e+04 4.545259079631e-01 
4.000000000000e-02 0.000000000000e+00 1.240000000000e+00 -2.150000000000e+04 4.545259079631e-01 