 TITLE = "Time curves in points"
 VARIABLES = "TIME "  "PRESSURE1"  "SATURATION1" 
 ZONE T="POINT=POINT10"
0.000000000000e+00 -3.108324111924e+03 7.819225761304e-01 
5.000000000000e-01 -2.522261569978e+03 8.139255558688e-01 
1.000000000000e+00 -1.877478716385e+03 8.556871346249e-01 
1.500000000000e+00 -1.603501929054e+03 8.760182376087e-01 
2.000000000000e+00 -1.426538108144e+03 8.897637158721e-01 
2.500000000000e+00 -1.296940716428e+03 9.001148810594e-01 
3.000000000000e+00 -1.195677642957e+03 9.083470793161e-01 
3.500000000000e+00 -1.113276917968e+03 9.151249309364e-01 
4.000000000000e+00 -1.044404294814e+03 9.208858001578e-01 
4.500000000000e+00 -9.856847636536e+02 9.258285879479e-01 
5.000000000000e+00 -9.349631258708e+02 9.300989826346e-01 
5.500000000000e+00 -8.904342951757e+02 9.338471525169e-01 
6.000000000000e+00 -8.511882487856e+02 9.371882697803e-01 
6.500000000000e+00 -8.162506435684e+02 9.401593303770e-01 
7.000000000000e+00 -7.848178956577e+02 9.428308162226e-01 
7.500000000000e+00 -7.565092665775e+02 9.452374201939e-01 
8.000000000000e+00 -7.308065506874e+02 9.474204598975e-01 
8.500000000000e+00 -7.072932207595e+02 9.494160420972e-01 
9.000000000000e+00 -6.857227357150e+02 9.512475315893e-01 
9.500000000000e+00 -6.660276102191e+02 9.529207744775e-01 
1.000000000000e+01 -6.479404591043e+02 9.544563706239e-01 
1.050000000000e+01 -6.312434530042e+02 9.558731372695e-01 
1.100000000000e+01 -6.157598833173e+02 9.571863033044e-01 
1.150000000000e+01 -6.013497046959e+02 9.584079208050e-01 
1.200000000000e+01 -5.879803543577e+02 9.595227925986e-01 
1.250000000000e+01 -5.756428231039e+02 9.605455856596e-01 
1.300000000000e+01 -5.642119779625e+02 9.614927735145e-01 
1.350000000000e+01 -5.535816363802e+02 9.623732732724e-01 
1.400000000000e+01 -5.436684762379e+02 9.631940773916e-01 
1.450000000000e+01 -5.344018733457e+02 9.639611049549e-01 
1.500000000000e+01 -5.257192081816e+02 9.646795959924e-01 
1.550000000000e+01 -5.175680998813e+02 9.653539304864e-01 
1.600000000000e+01 -5.099012768733e+02 9.659880561852e-01 
1.650000000000e+01 -5.026787602475e+02 9.665853099799e-01 
1.700000000000e+01 -4.958951947684e+02 9.671364752541e-01 
1.750000000000e+01 -4.896263912685e+02 9.676346120847e-01 
1.800000000000e+01 -4.838251654960e+02 9.680954335567e-01 
1.850000000000e+01 -4.784431690440e+02 9.685228215970e-01 
1.900000000000e+01 -4.734397178476e+02 9.689200395739e-01 
1.950000000000e+01 -4.687802487436e+02 9.692898576167e-01 
2.000000000000e+01 -4.644341079755e+02 9.696347300050e-01 
2.050000000000e+01 -4.603744327352e+02 9.699568057654e-01 
2.100000000000e+01 -4.565775086745e+02 9.702579806535e-01 
2.150000000000e+01 -4.530219950712e+02 9.705399593614e-01 
2.200000000000e+01 -4.496888094494e+02 9.708042652301e-01 
2.250000000000e+01 -4.465608396378e+02 9.710522635304e-01 
2.300000000000e+01 -4.436226786591e+02 9.712851828381e-01 
2.350000000000e+01 -4.408603603222e+02 9.715041362849e-01 
2.400000000000e+01 -4.382611864343e+02 9.717101354719e-01 
2.450000000000e+01 -5.677537978856e+02 9.614368817985e-01 
2.500000000000e+01 -7.925065716565e+02 9.428623011101e-01 
2.550000000000e+01 -9.156131667746e+02 9.325366549526e-01 
2.600000000000e+01 -1.009015884852e+03 9.247852105865e-01 
2.650000000000e+01 -1.086589967338e+03 9.183470968431e-01 
2.700000000000e+01 -1.153961678753e+03 9.128554638078e-01 
2.750000000000e+01 -1.214080641433e+03 9.079961127531e-01 
2.800000000000e+01 -1.268671191904e+03 9.036290500773e-01 
2.850000000000e+01 -1.318874585478e+03 8.996277537022e-01 
2.900000000000e+01 -1.365521591653e+03 8.959427620302e-01 
2.950000000000e+01 -1.409205808637e+03 8.925022817306e-01 
3.000000000000e+01 -1.450368236314e+03 8.893327181673e-01 
3.050000000000e+01 -1.489357648084e+03 8.863306039172e-01 
3.100000000000e+01 -1.526447450249e+03 8.834971607644e-01 
3.150000000000e+01 -1.561861512803e+03 8.808057523681e-01 
3.200000000000e+01 -1.595781383716e+03 8.782278907041e-01 
3.250000000000e+01 -1.628358354654e+03 8.758007186177e-01 
3.300000000000e+01 -1.659722482939e+03 8.734798159043e-01 
3.350000000000e+01 -1.689982029151e+03 8.712406447643e-01 
3.400000000000e+01 -1.719229286417e+03 8.690915654660e-01 
3.450000000000e+01 -1.747546808531e+03 8.670244194668e-01 
3.500000000000e+01 -1.775006399236e+03 8.650198971017e-01 
3.550000000000e+01 -1.801669945013e+03 8.630734813191e-01 
3.600000000000e+01 -1.827593342937e+03 8.612281955586e-01 
3.650000000000e+01 -1.852828750966e+03 8.594365079049e-01 
3.700000000000e+01 -1.877422446557e+03 8.576903780734e-01 
3.750000000000e+01 -1.901415344533e+03 8.559869014868e-01 
3.800000000000e+01 -1.924857148572e+03 8.543433750952e-01 
3.850000000000e+01 -1.947794444103e+03 8.527377958667e-01 
3.900000000000e+01 -1.970262098924e+03 8.511650874189e-01 
3.950000000000e+01 -1.992289729922e+03 8.496231771212e-01 
4.000000000000e+01 -2.013898766076e+03 8.481460206237e-01 
4.050000000000e+01 -2.035097439412e+03 8.467384433349e-01 
4.100000000000e+01 -2.055901721709e+03 8.453570524476e-01 
4.150000000000e+01 -2.076328572096e+03 8.440007216911e-01 
4.200000000000e+01 -2.096394127027e+03 8.426683796336e-01 
4.250000000000e+01 -2.116113508286e+03 8.413590222449e-01 
4.300000000000e+01 -2.135501111604e+03 8.400716936726e-01 
4.350000000000e+01 -2.154570316857e+03 8.388055055575e-01 
4.400000000000e+01 -2.173333676621e+03 8.375596244541e-01 
4.450000000000e+01 -2.191803075862e+03 8.363332612288e-01 
4.500000000000e+01 -2.209989733177e+03 8.351256709977e-01 
4.550000000000e+01 -2.227904112652e+03 8.339361589919e-01 
4.600000000000e+01 -2.245556017726e+03 8.327640743003e-01 
4.650000000000e+01 -2.262955871438e+03 8.316372249147e-01 
4.700000000000e+01 -2.280116065878e+03 8.305527125515e-01 
4.750000000000e+01 -2.297047719414e+03 8.294826427262e-01 
4.800000000000e+01 -2.313760412436e+03 8.284264101307e-01 
4.850000000000e+01 -2.330263293979e+03 8.273834365734e-01 
4.900000000000e+01 -2.346564588415e+03 8.263532023709e-01 
4.950000000000e+01 -2.362671977920e+03 8.253352220575e-01 
5.000000000000e+01 -2.378592586796e+03 8.243290454292e-01 
5.050000000000e+01 -2.394333131321e+03 8.233342480500e-01 
5.100000000000e+01 -2.409900038692e+03 8.223504237380e-01 
5.150000000000e+01 -2.425299364627e+03 8.213771898014e-01 
5.200000000000e+01 -2.440536666398e+03 8.204141950705e-01 
5.250000000000e+01 -2.455617153653e+03 8.194611103247e-01 
5.300000000000e+01 -2.470545692438e+03 8.185176280604e-01 
5.350000000000e+01 -2.485326831288e+03 8.175834608377e-01 
5.400000000000e+01 -2.499964873168e+03 8.166583367273e-01 
5.450000000000e+01 -2.514464423024e+03 8.157836164383e-01 
5.500000000000e+01 -2.528830320249e+03 8.149331610636e-01 
5.550000000000e+01 -2.543066751383e+03 8.140903695251e-01 
5.600000000000e+01 -2.557177416232e+03 8.132550228547e-01 
5.650000000000e+01 -2.571165618517e+03 8.124269255211e-01 
5.700000000000e+01 -2.585034290677e+03 8.116059039707e-01 
5.750000000000e+01 -2.598786060373e+03 8.107918026842e-01 
5.800000000000e+01 -2.612423384802e+03 8.099844762148e-01 
5.850000000000e+01 -2.625948524591e+03 8.091837907571e-01 
5.900000000000e+01 -2.639363636472e+03 8.083896186431e-01 
5.950000000000e+01 -2.652670761497e+03 8.076018390546e-01 
6.000000000000e+01 -2.665871913191e+03 8.068203327903e-01 
6.050000000000e+01 -2.678969030403e+03 8.060449850766e-01 
6.100000000000e+01 -2.691964116556e+03 8.052756772953e-01 
6.150000000000e+01 -2.704859181648e+03 8.045122904478e-01 
6.200000000000e+01 -2.717656275741e+03 8.037547031578e-01 
6.250000000000e+01 -2.730357603204e+03 8.030027848953e-01 
6.300000000000e+01 -2.742965511212e+03 8.022563966765e-01 
6.350000000000e+01 -2.755482496505e+03 8.015227423789e-01 
6.400000000000e+01 -2.767911256230e+03 8.008239564041e-01 
6.450000000000e+01 -2.780254526055e+03 8.001327358779e-01 
6.500000000000e+01 -2.792514881874e+03 7.994461581425e-01 
6.550000000000e+01 -2.804694679950e+03 7.987640912751e-01 
6.600000000000e+01 -2.816796031800e+03 7.980864170629e-01 
6.650000000000e+01 -2.828820820036e+03 7.974130301104e-01 
6.700000000000e+01 -2.840770747709e+03 7.967438350700e-01 
6.750000000000e+01 -2.852647277303e+03 7.960787500769e-01 
6.800000000000e+01 -2.864451730154e+03 7.954177011549e-01 
6.850000000000e+01 -2.876185340909e+03 7.947606191745e-01 
6.900000000000e+01 -2.887849220061e+03 7.941074419649e-01 
6.950000000000e+01 -2.899444376508e+03 7.934581130415e-01 
7.000000000000e+01 -2.910971788452e+03 7.928125776272e-01 
7.050000000000e+01 -2.922432426571e+03 7.921707813626e-01 
7.100000000000e+01 -2.933827217497e+03 7.915326723606e-01 
7.150000000000e+01 -2.945157098139e+03 7.908981981499e-01 
7.200000000000e+01 -2.956423006261e+03 7.902673062125e-01 
7.250000000000e+01 -2.967625966028e+03 7.896399391773e-01 
7.300000000000e+01 -2.978767095423e+03 7.890160344173e-01 
7.350000000000e+01 -2.989847579712e+03 7.883955255419e-01 
7.400000000000e+01 -3.000868677283e+03 7.877783420639e-01 
7.450000000000e+01 -3.011831855401e+03 7.871892952511e-01 
7.500000000000e+01 -3.022738647202e+03 7.866134182839e-01 
7.550000000000e+01 -3.033590497797e+03 7.860404419635e-01 
7.600000000000e+01 -3.044388727095e+03 7.854702966164e-01 
7.650000000000e+01 -3.055134476281e+03 7.849029220151e-01 
7.700000000000e+01 -3.065828753769e+03 7.843382649350e-01 
7.750000000000e+01 -3.076472447453e+03 7.837762785136e-01 
7.800000000000e+01 -3.087066337255e+03 7.832169215874e-01 
7.850000000000e+01 -3.097611112614e+03 7.826601577677e-01 
7.900000000000e+01 -3.108107388490e+03 7.821059545960e-01 
7.950000000000e+01 -3.118555719455e+03 7.815542827998e-01 
8.000000000000e+01 -3.128956613252e+03 7.810051155773e-01 
8.050000000000e+01 -3.139310543490e+03 7.804584279268e-01 
8.100000000000e+01 -3.149617960915e+03 7.799141960519e-01 
8.150000000000e+01 -3.159879303252e+03 7.793723968419e-01 
8.200000000000e+01 -3.170095019641e+03 7.788330065793e-01 
8.250000000000e+01 -3.180265563118e+03 7.782960013420e-01 
8.300000000000e+01 -3.190391387235e+03 7.777613571812e-01 
8.350000000000e+01 -3.200472972657e+03 7.772290487119e-01 
8.400000000000e+01 -3.210510879283e+03 7.766990463557e-01 
8.450000000000e+01 -3.220505712357e+03 7.761713181459e-01 
8.500000000000e+01 -3.230458124838e+03 7.756458295958e-01 
8.550000000000e+01 -3.240368830074e+03 7.751225430275e-01 
8.600000000000e+01 -3.250238542471e+03 7.746014207177e-01 
8.650000000000e+01 -3.260067975995e+03 7.740992670153e-01 
8.700000000000e+01 -3.269857841809e+03 7.736097743445e-01 
8.750000000000e+01 -3.279608839703e+03 7.731222249359e-01 
8.800000000000e+01 -3.289321583497e+03 7.726365881121e-01 
8.850000000000e+01 -3.298996668242e+03 7.721528341227e-01 
8.900000000000e+01 -3.308634610949e+03 7.716709371297e-01 
8.950000000000e+01 -3.318235831505e+03 7.711908761550e-01 
9.000000000000e+01 -3.327800752743e+03 7.707126300556e-01 
9.050000000000e+01 -3.337329734613e+03 7.702361808446e-01 
9.100000000000e+01 -3.346823087529e+03 7.697615130092e-01 
9.150000000000e+01 -3.356281110017e+03 7.692886116249e-01 
9.200000000000e+01 -3.365704092408e+03 7.688174621760e-01 
9.250000000000e+01 -3.375092317928e+03 7.683480505018e-01 
9.300000000000e+01 -3.384446086194e+03 7.678803616179e-01 
9.350000000000e+01 -3.393765672686e+03 7.674143817542e-01 
9.400000000000e+01 -3.403051360727e+03 7.669500967422e-01 
9.450000000000e+01 -3.412303449688e+03 7.664874916101e-01 
9.500000000000e+01 -3.421522259761e+03 7.660265503434e-01 
9.550000000000e+01 -3.430708138668e+03 7.655672555502e-01 
9.600000000000e+01 -3.439861474262e+03 7.651095878293e-01 
9.650000000000e+01 -3.448982711004e+03 7.646535249459e-01 
9.700000000000e+01 -3.458072359788e+03 7.641990413416e-01 
9.750000000000e+01 -3.467130992332e+03 7.637461084171e-01 
9.800000000000e+01 -3.476159229165e+03 7.632946951352e-01 
9.850000000000e+01 -3.485157698536e+03 7.628447700797e-01 
9.900000000000e+01 -3.494127006579e+03 7.623963029464e-01 
9.950000000000e+01 -3.503067718866e+03 7.619502085200e-01 
1.000000000000e+02 -3.511980574934e+03 7.615226482286e-01 
1.005000000000e+02 -3.520866165183e+03 7.610996941770e-01 
1.010000000000e+02 -3.529725043455e+03 7.606780114952e-01 
1.015000000000e+02 -3.538557658644e+03 7.602575788344e-01 
1.020000000000e+02 -3.547364415038e+03 7.598383769577e-01 
1.025000000000e+02 -3.556145586026e+03 7.594203928758e-01 
1.030000000000e+02 -3.564901482192e+03 7.590036117971e-01 
1.035000000000e+02 -3.573632303480e+03 7.585880242246e-01 
1.040000000000e+02 -3.582338254890e+03 7.581736203989e-01 
1.045000000000e+02 -3.591019520567e+03 7.577603915583e-01 
1.050000000000e+02 -3.599676231966e+03 7.573483314550e-01 
1.055000000000e+02 -3.608308550823e+03 7.569374323846e-01 
1.060000000000e+02 -3.616916585302e+03 7.565276892082e-01 
1.065000000000e+02 -3.625500450831e+03 7.561190964299e-01 
1.070000000000e+02 -3.634060283607e+03 7.557116475624e-01 
1.075000000000e+02 -3.642596213793e+03 7.553053364107e-01 
1.080000000000e+02 -3.651108366709e+03 7.549001570103e-01 
1.085000000000e+02 -3.659596883321e+03 7.544961026479e-01 
1.090000000000e+02 -3.668061935366e+03 7.540931651423e-01 
1.095000000000e+02 -3.676503705906e+03 7.536913357771e-01 
1.100000000000e+02 -3.684922410731e+03 7.532906042739e-01 
1.105000000000e+02 -3.693318308535e+03 7.528909583095e-01 
1.110000000000e+02 -3.701691698629e+03 7.524923836281e-01 
1.115000000000e+02 -3.710042908112e+03 7.520948646534e-01 
1.120000000000e+02 -3.718372274547e+03 7.516983853141e-01 
1.125000000000e+02 -3.726680128431e+03 7.513029298792e-01 
1.130000000000e+02 -3.734966778825e+03 7.509084836405e-01 
1.135000000000e+02 -3.743232503073e+03 7.505150334019e-01 
1.140000000000e+02 -3.751477541001e+03 7.501225677544e-01 
1.145000000000e+02 -3.759702161249e+03 7.497468937779e-01 
1.150000000000e+02 -3.767906610107e+03 7.493793341584e-01 
1.155000000000e+02 -3.776091092898e+03 7.490126689626e-01 
1.160000000000e+02 -3.784255809482e+03 7.486468892377e-01 
1.165000000000e+02 -3.792400898851e+03 7.482819887681e-01 
1.170000000000e+02 -3.800526452761e+03 7.479179634520e-01 
1.175000000000e+02 -3.808632600297e+03 7.475548074991e-01 
1.180000000000e+02 -3.816719408080e+03 7.471925179366e-01 
1.185000000000e+02 -3.824786964694e+03 7.468310907917e-01 
1.190000000000e+02 -3.832835293849e+03 7.464705250144e-01 
1.195000000000e+02 -3.840864492779e+03 7.461108162344e-01 
1.200000000000e+02 -3.848874600413e+03 7.457519627188e-01 
1.205000000000e+02 -3.856865676751e+03 7.453939617755e-01 
1.210000000000e+02 -3.864837751586e+03 7.450368120756e-01 
1.215000000000e+02 -3.872790909589e+03 7.446805098147e-01 
1.220000000000e+02 -3.880725204128e+03 7.443250526082e-01 
1.225000000000e+02 -3.888640725222e+03 7.439704364156e-01 
1.230000000000e+02 -3.896537548542e+03 7.436166578496e-01 
1.235000000000e+02 -3.904415760233e+03 7.432637130485e-01 
1.240000000000e+02 -3.912275482959e+03 7.429115965095e-01 
1.245000000000e+02 -3.920116861688e+03 7.425603017332e-01 
1.250000000000e+02 -3.927940063849e+03 7.422098212137e-01 
1.255000000000e+02 -3.935745295138e+03 7.418601457277e-01 
1.260000000000e+02 -3.943532784300e+03 7.415112650221e-01 
1.265000000000e+02 -3.951302769156e+03 7.411631684401e-01 
1.270000000000e+02 -3.959055488230e+03 7.408158452950e-01 
1.275000000000e+02 -3.966791171105e+03 7.404692853027e-01 
1.280000000000e+02 -3.974510029813e+03 7.401234789671e-01 
1.285000000000e+02 -3.982212252990e+03 7.397784178415e-01 
1.290000000000e+02 -3.989898002888e+03 7.394340946619e-01 
1.295000000000e+02 -3.997567414692e+03 7.390905033772e-01 
1.300000000000e+02 -4.005220610870e+03 7.387518216208e-01 
1.305000000000e+02 -4.012857735089e+03 7.384231066013e-01 
1.310000000000e+02 -4.020478905638e+03 7.380969200518e-01 
1.315000000000e+02 -4.028084224852e+03 7.377714119047e-01 
1.320000000000e+02 -4.035673774502e+03 7.374465786641e-01 
1.325000000000e+02 -4.043247628735e+03 7.371224171580e-01 
1.330000000000e+02 -4.050805835301e+03 7.367989253478e-01 
1.335000000000e+02 -4.058348452187e+03 7.364761007496e-01 
1.340000000000e+02 -4.065875522288e+03 7.361539415304e-01 
1.345000000000e+02 -4.073387075272e+03 7.358324464229e-01 
1.350000000000e+02 -4.080883147720e+03 7.355116138602e-01 
1.355000000000e+02 -4.088363774819e+03 7.351914423363e-01 
1.360000000000e+02 -4.095829004068e+03 7.348719298158e-01 
1.365000000000e+02 -4.103278848841e+03 7.345530757330e-01 
1.370000000000e+02 -4.110713363030e+03 7.342348777731e-01 
1.375000000000e+02 -4.118132605537e+03 7.339173334138e-01 
1.380000000000e+02 -4.125536612287e+03 7.336004411223e-01 
1.385000000000e+02 -4.132925444517e+03 7.332841982721e-01 
1.390000000000e+02 -4.140299173003e+03 7.329686018320e-01 
1.395000000000e+02 -4.147657893876e+03 7.326536476820e-01 
1.400000000000e+02 -4.155001700820e+03 7.323393318126e-01 
1.405000000000e+02 -4.162330708612e+03 7.320256493070e-01 
1.410000000000e+02 -4.169645072644e+03 7.317125935052e-01 
1.415000000000e+02 -4.176944959299e+03 7.314001572835e-01 
1.420000000000e+02 -4.184230560911e+03 7.310883324040e-01 
1.425000000000e+02 -4.191502066106e+03 7.307771107937e-01 
1.430000000000e+02 -4.198759655978e+03 7.304664847031e-01 
1.435000000000e+02 -4.206003501922e+03 7.301564467980e-01 
1.440000000000e+02 -4.213233764084e+03 7.298469902261e-01 
1.445000000000e+02 -4.220450580701e+03 7.295381090750e-01 
1.450000000000e+02 -4.227654066550e+03 7.292297984371e-01 
1.455000000000e+02 -4.234844314718e+03 7.289220543325e-01 
1.460000000000e+02 -4.242021398602e+03 7.286148736238e-01 
1.465000000000e+02 -4.249185373853e+03 7.283082539328e-01 
1.470000000000e+02 -4.256336300358e+03 7.280093251724e-01 
1.475000000000e+02 -4.263474232258e+03 7.277193043985e-01 
1.480000000000e+02 -4.270599240734e+03 7.274314536202e-01 
1.485000000000e+02 -4.277711366590e+03 7.271441232802e-01 
1.490000000000e+02 -4.284810649995e+03 7.268573117555e-01 
1.495000000000e+02 -4.291897133987e+03 7.265710173069e-01 
1.500000000000e+02 -4.298970813575e+03 7.262852401459e-01 
1.505000000000e+02 -4.306031737224e+03 7.259999783033e-01 
1.510000000000e+02 -4.313079942637e+03 7.257152302581e-01 
1.515000000000e+02 -4.320115412485e+03 7.254309967219e-01 
1.520000000000e+02 -4.327138185136e+03 7.251472761329e-01 
1.525000000000e+02 -4.334148282281e+03 7.248640676183e-01 
1.530000000000e+02 -4.341145721510e+03 7.245813704682e-01 
1.535000000000e+02 -4.348130536828e+03 7.242991833054e-01 
1.540000000000e+02 -4.355102754971e+03 7.240175050510e-01 
1.545000000000e+02 -4.362062409724e+03 7.237363343387e-01 
1.550000000000e+02 -4.369009545655e+03 7.234556693656e-01 
1.555000000000e+02 -4.375944218578e+03 7.231755078742e-01 
1.560000000000e+02 -4.382866474740e+03 7.228958479981e-01 
1.565000000000e+02 -4.389776385550e+03 7.226166868469e-01 
1.570000000000e+02 -4.396674051717e+03 7.223380203455e-01 
1.575000000000e+02 -4.403559564755e+03 7.220598447984e-01 
1.580000000000e+02 -4.410433048877e+03 7.217821551801e-01 
1.585000000000e+02 -4.417294638353e+03 7.215049460637e-01 
1.590000000000e+02 -4.424144489706e+03 7.212282111205e-01 
1.595000000000e+02 -4.430982745638e+03 7.209519445881e-01 
1.600000000000e+02 -4.437809544553e+03 7.206761408754e-01 
1.605000000000e+02 -4.444625019575e+03 7.204007946052e-01 
1.610000000000e+02 -4.451429288370e+03 7.201259010268e-01 
1.615000000000e+02 -4.458222456615e+03 7.198514558732e-01 
1.620000000000e+02 -4.465004610085e+03 7.195774556831e-01 
1.625000000000e+02 -4.471775816211e+03 7.193038977362e-01 
1.630000000000e+02 -4.478536127826e+03 7.190307799011e-01 
1.635000000000e+02 -4.485285587557e+03 7.187581004577e-01 
1.640000000000e+02 -4.492024226527e+03 7.184858581511e-01 
1.645000000000e+02 -4.498752064896e+03 7.182140521691e-01 
1.650000000000e+02 -4.505469126695e+03 7.179463428270e-01 
1.655000000000e+02 -4.512175420113e+03 7.176847468530e-01 
1.660000000000e+02 -4.518870984566e+03 7.174249584692e-01 
1.665000000000e+02 -4.525555821362e+03 7.171655863089e-01 
1.670000000000e+02 -4.532229973873e+03 7.169066286803e-01 
1.675000000000e+02 -3.471524027326e+03 7.612878014982e-01 
1.680000000000e+02 -2.498051234721e+03 8.139050340495e-01 
1.685000000000e+02 -2.099594135517e+03 8.401252573212e-01 
1.690000000000e+02 -1.846683191066e+03 8.578787107726e-01 
1.695000000000e+02 -1.664266070819e+03 8.714076030542e-01 
1.700000000000e+02 -1.523209573541e+03 8.822001932175e-01 
1.705000000000e+02 -1.409095511922e+03 8.911276564592e-01 
1.710000000000e+02 -1.314293673977e+03 8.987163059986e-01 
1.715000000000e+02 -1.233792492327e+03 9.052458282598e-01 
1.720000000000e+02 -1.164151006552e+03 9.109363097359e-01 
1.725000000000e+02 -1.103259463805e+03 9.159470475271e-01 
1.730000000000e+02 -1.049440253029e+03 9.204604159819e-01 
1.735000000000e+02 -1.001480294813e+03 9.244983525834e-01 
1.740000000000e+02 -9.584213280893e+02 9.281242942859e-01 
1.745000000000e+02 -9.195816174319e+02 9.313918794563e-01 
1.750000000000e+02 -8.842252355408e+02 9.343747551007e-01 
1.755000000000e+02 -8.521110658360e+02 9.371093624778e-01 
1.760000000000e+02 -8.227433316396e+02 9.396071500819e-01 
1.765000000000e+02 -7.956908235223e+02 9.419059636764e-01 
1.770000000000e+02 -7.707797112093e+02 9.440243250881e-01 
1.775000000000e+02 -7.477800232170e+02 9.459788368361e-01 
1.780000000000e+02 -7.264283918224e+02 9.477919672332e-01 
1.785000000000e+02 -7.065170807524e+02 9.494817400828e-01 
1.790000000000e+02 -6.879331575798e+02 9.510595286782e-01 
1.795000000000e+02 -6.706839232464e+02 9.525251818091e-01 
1.800000000000e+02 -6.546122482867e+02 9.538899451504e-01 
1.805000000000e+02 -6.395831026379e+02 9.551655083610e-01 
1.810000000000e+02 -6.254847604208e+02 9.563615234196e-01 
1.815000000000e+02 -6.122241779066e+02 9.574860148675e-01 
1.820000000000e+02 -5.997209068827e+02 9.585459080839e-01 
1.825000000000e+02 -5.879941217843e+02 9.595215943229e-01 
1.830000000000e+02 -5.770376352097e+02 9.604299301332e-01 
1.835000000000e+02 -5.667695749802e+02 9.612808359387e-01 
1.840000000000e+02 -5.571234880274e+02 9.620799028458e-01 
1.845000000000e+02 -5.480429394329e+02 9.628318724318e-01 
1.850000000000e+02 -5.394786046933e+02 9.635408830795e-01 
1.855000000000e+02 -5.313877764186e+02 9.642105141960e-01 
1.860000000000e+02 -5.237328323789e+02 9.648439156546e-01 
1.865000000000e+02 -5.164803071222e+02 9.654438864790e-01 
1.870000000000e+02 -5.096006864867e+02 9.660128933044e-01 
1.875000000000e+02 -5.030674934896e+02 9.665531471306e-01 
1.880000000000e+02 -4.968748227025e+02 9.670585963719e-01 
1.885000000000e+02 -4.910937117524e+02 9.675180149986e-01 
1.890000000000e+02 -4.857001876606e+02 9.679464927030e-01 
1.895000000000e+02 -4.806561162124e+02 9.683470918959e-01 
1.900000000000e+02 -4.759313259920e+02 9.687222349181e-01 
1.905000000000e+02 -4.714994976342e+02 9.690740330160e-01 
1.910000000000e+02 -4.673384442511e+02 9.694042651940e-01 
1.915000000000e+02 -6.010472580989e+02 9.586908213783e-01 
1.920000000000e+02 -8.339400136711e+02 9.393808808635e-01 
1.925000000000e+02 -9.618558517660e+02 9.286978402846e-01 
1.930000000000e+02 -1.058877000970e+03 9.206461771265e-01 
1.935000000000e+02 -1.139435161479e+03 9.140312680710e-01 
1.940000000000e+02 -1.209462501285e+03 9.083648677474e-01 
1.945000000000e+02 -1.271929123039e+03 9.033677851648e-01 
1.950000000000e+02 -1.328649371565e+03 8.988549770924e-01 
1.955000000000e+02 -1.380842260118e+03 8.947318945245e-01 
1.960000000000e+02 -1.429348787538e+03 8.909506389228e-01 
1.965000000000e+02 -1.474775672669e+03 8.874528775710e-01 
1.970000000000e+02 -1.517575685121e+03 8.841709066798e-01 
1.975000000000e+02 -1.558106856090e+03 8.810906238664e-01 
1.980000000000e+02 -1.596651064185e+03 8.781613320563e-01 
1.985000000000e+02 -1.633433206003e+03 8.754247472413e-01 
1.990000000000e+02 -1.668644934188e+03 8.728191365883e-01 
1.995000000000e+02 -1.702443278474e+03 8.703181055195e-01 
2.000000000000e+02 -1.734960370192e+03 8.679428106417e-01 
2.005000000000e+02 -1.766313767381e+03 8.656540543437e-01 
2.010000000000e+02 -1.796603733713e+03 8.634429209408e-01 
2.015000000000e+02 -1.825916179403e+03 8.613469001738e-01 
2.020000000000e+02 -1.854328290876e+03 8.593296766570e-01 
2.025000000000e+02 -1.881907878880e+03 8.573715568909e-01 
2.030000000000e+02 -1.908715877591e+03 8.554730705473e-01 
2.035000000000e+02 -1.934828992640e+03 8.536450192027e-01 
2.040000000000e+02 -1.960305453418e+03 8.518617067082e-01 
2.045000000000e+02 -1.985190695711e+03 8.501197742505e-01 
2.050000000000e+02 -2.009521999121e+03 8.484363662586e-01 
2.055000000000e+02 -2.033312682917e+03 8.468566490539e-01 
2.060000000000e+02 -2.056584536159e+03 8.453114177896e-01 
2.065000000000e+02 -2.079361394594e+03 8.437990524103e-01 
2.070000000000e+02 -2.101666601351e+03 8.423180028826e-01 
2.075000000000e+02 -2.123522402729e+03 8.408667920774e-01 
2.080000000000e+02 -2.144949572053e+03 8.394440407234e-01 
2.085000000000e+02 -2.165966990224e+03 8.380484952696e-01 
2.090000000000e+02 -2.186592509763e+03 8.366789703477e-01 
2.095000000000e+02 -2.206842961389e+03 8.353343484407e-01 
2.100000000000e+02 -2.226734309388e+03 8.340135695468e-01 
2.105000000000e+02 -2.246281703460e+03 8.327156277494e-01 
2.110000000000e+02 -2.265500958522e+03 8.314761323050e-01 
2.115000000000e+02 -2.284410009069e+03 8.302810972355e-01 
2.120000000000e+02 -2.303023497189e+03 8.291047401424e-01 
2.125000000000e+02 -2.321354799680e+03 8.279462157334e-01 
2.130000000000e+02 -2.339416145191e+03 8.268047512684e-01 
2.135000000000e+02 -2.357218816292e+03 8.256796337771e-01 
2.140000000000e+02 -2.374773185856e+03 8.245702077807e-01 
2.145000000000e+02 -2.392088744972e+03 8.234758735293e-01 
2.150000000000e+02 -2.409174163090e+03 8.223960831964e-01 
2.155000000000e+02 -2.426037468211e+03 8.213303294727e-01 
2.160000000000e+02 -2.442686290842e+03 8.202781301376e-01 
2.165000000000e+02 -2.459127735138e+03 8.192390362566e-01 
2.170000000000e+02 -2.475368301965e+03 8.182126370368e-01 
2.175000000000e+02 -2.491413851863e+03 8.171985621628e-01 
2.180000000000e+02 -2.507269760164e+03 8.162113083022e-01 
2.185000000000e+02 -2.522942098508e+03 8.152815620931e-01 
2.190000000000e+02 -2.538436324449e+03 8.143643136874e-01 
2.195000000000e+02 -2.553757437620e+03 8.134573129624e-01 
2.200000000000e+02 -2.568909901774e+03 8.125602957310e-01 
2.205000000000e+02 -2.583897975413e+03 8.116730099106e-01 
2.210000000000e+02 -2.598725679847e+03 8.107952174649e-01 
2.215000000000e+02 -2.613396927218e+03 8.099266868024e-01 
2.220000000000e+02 -2.627915534077e+03 8.090671919883e-01 
2.225000000000e+02 -2.642285193856e+03 8.082165143808e-01 
2.230000000000e+02 -2.656509645639e+03 8.073744326096e-01 
2.235000000000e+02 -2.670592584567e+03 8.065407279189e-01 
2.240000000000e+02 -2.684537837014e+03 8.057151737564e-01 
2.245000000000e+02 -2.698349346480e+03 8.048975366365e-01 
2.250000000000e+02 -2.712031251624e+03 8.040875715067e-01 
2.255000000000e+02 -2.725587737663e+03 8.032850305803e-01 
2.260000000000e+02 -2.739022836125e+03 8.024896752002e-01 
2.265000000000e+02 -2.752340362165e+03 8.017012795291e-01 
2.270000000000e+02 -2.765543984636e+03 8.009564064746e-01 
2.275000000000e+02 -2.778637226710e+03 8.002231900300e-01 
2.280000000000e+02 -2.791623264514e+03 7.994959765782e-01 
2.285000000000e+02 -2.804504932055e+03 7.987746074609e-01 
2.290000000000e+02 -2.817284777380e+03 7.980589400254e-01 
2.295000000000e+02 -2.829965186876e+03 7.973488406533e-01 
2.300000000000e+02 -2.842548251503e+03 7.966441922925e-01 
2.305000000000e+02 -2.855035969546e+03 7.959448830486e-01 
2.310000000000e+02 -2.867430227864e+03 7.952508072708e-01 
2.315000000000e+02 -2.879732764411e+03 7.945618676532e-01 
2.320000000000e+02 -2.891945335384e+03 7.938779658414e-01 
2.325000000000e+02 -2.904069605703e+03 7.931990086104e-01 
2.330000000000e+02 -2.916107270366e+03 7.925249010310e-01 
2.335000000000e+02 -2.928059947007e+03 7.918555525237e-01 
2.340000000000e+02 -2.939929354459e+03 7.911908668123e-01 
2.345000000000e+02 -2.951717278514e+03 7.905307438759e-01 
2.350000000000e+02 -2.963425571186e+03 7.898750799845e-01 
2.355000000000e+02 -2.975056182242e+03 7.892237659282e-01 
2.360000000000e+02 -2.986611067979e+03 7.885766921461e-01 
2.365000000000e+02 -2.998092116256e+03 7.879337529227e-01 
2.370000000000e+02 -3.009501222905e+03 7.873123391185e-01 
2.375000000000e+02 -3.020840384456e+03 7.867135765445e-01 
2.380000000000e+02 -3.032111422982e+03 7.861184686863e-01 
2.385000000000e+02 -3.043315950141e+03 7.855268723668e-01 
2.390000000000e+02 -3.054455394335e+03 7.849387121938e-01 
2.395000000000e+02 -3.065531035743e+03 7.843539205960e-01 
2.400000000000e+02 -3.076544028750e+03 7.837724366403e-01 
2.405000000000e+02 -3.087495425519e+03 7.831942047878e-01 
2.410000000000e+02 -3.098386194697e+03 7.826191739060e-01 
2.415000000000e+02 -3.109217238598e+03 7.820472963622e-01 
2.420000000000e+02 -3.119989408752e+03 7.814785272025e-01 
2.425000000000e+02 -3.130703525533e+03 7.809128231149e-01 
2.430000000000e+02 -3.141360403589e+03 7.803501410854e-01 
2.435000000000e+02 -3.151960811087e+03 7.797904405613e-01 
2.440000000000e+02 -3.162505510170e+03 7.792336813006e-01 
2.445000000000e+02 -3.172995274510e+03 7.786798224498e-01 
2.450000000000e+02 -3.183430927480e+03 7.781288205244e-01 
2.455000000000e+02 -3.193813299780e+03 7.775806316599e-01 
2.460000000000e+02 -3.204143271501e+03 7.770352093766e-01 
2.465000000000e+02 -3.214421813632e+03 7.764925023875e-01 
2.470000000000e+02 -3.224649926653e+03 7.759524578591e-01 
2.475000000000e+02 -3.234828633178e+03 7.754150217904e-01 
2.480000000000e+02 -3.244958908657e+03 7.748801426831e-01 
2.485000000000e+02 -3.255041701267e+03 7.743532308325e-01 
2.490000000000e+02 -3.265077865481e+03 7.738487333198e-01 
2.495000000000e+02 -3.275068322485e+03 7.733492118655e-01 
2.500000000000e+02 -3.285013883636e+03 7.728519350581e-01 
2.505000000000e+02 -3.294915280443e+03 7.723568663347e-01 
2.510000000000e+02 -3.304773233171e+03 7.718639696826e-01 
2.515000000000e+02 -3.314588315849e+03 7.713732164250e-01 
2.520000000000e+02 -3.324361078830e+03 7.708845790474e-01 
2.525000000000e+02 -3.334092039965e+03 7.703980316621e-01 