VARIABLES  = "X","Y","Z", "PRESSURE1", "SATURATION1"
ZONE T="0.000000000000e+00s", N=201, E=200, F=FEPOINT, ET=QUADRILATERAL
STRANDID=1, SOLUTIONTIME=0.000000000000e+00
0.000000000000e+00 0.000000000000e+00 0.000000000000e+00 -3.160000000000e+04 4.172918974040e-01 
0.000000000000e+00 0.000000000000e+00 1.250000000000e-03 -2.547014309114e+04 4.307661973338e-01 
0.000000000000e+00 0.000000000000e+00 2.500000000000e-03 -2.133107038750e+04 4.553762748132e-01 
0.000000000000e+00 0.000000000000e+00 3.750000000000e-03 -1.866503103158e+04 4.753371957619e-01 
0.000000000000e+00 0.000000000000e+00 5.000000000000e-03 -1.677809457482e+04 4.916899406330e-01 
0.000000000000e+00 0.000000000000e+00 6.250000000000e-03 -1.535824559763e+04 5.056564816285e-01 
0.000000000000e+00 0.000000000000e+00 7.500000000000e-03 -1.422651458606e+04 5.179634418935e-01 
0.000000000000e+00 0.000000000000e+00 8.750000000000e-03 -1.331339873101e+04 5.287476867368e-01 
0.000000000000e+00 0.000000000000e+00 1.000000000000e-02 -1.253679007782e+04 5.384908767645e-01 
0.000000000000e+00 0.000000000000e+00 1.125000000000e-02 -1.187787048505e+04 5.478122068685e-01 
0.000000000000e+00 0.000000000000e+00 1.250000000000e-02 -1.132028471999e+04 5.561987420274e-01 
0.000000000000e+00 0.000000000000e+00 1.375000000000e-02 -1.083088596156e+04 5.635654368381e-01 
0.000000000000e+00 0.000000000000e+00 1.500000000000e-02 -1.038982405857e+04 5.702036967366e-01 
0.000000000000e+00 0.000000000000e+00 1.625000000000e-02 -9.985933417561e+03 5.765753663648e-01 
0.000000000000e+00 0.000000000000e+00 1.750000000000e-02 -9.617872352644e+03 5.829257949121e-01 
0.000000000000e+00 0.000000000000e+00 1.875000000000e-02 -9.284659544979e+03 5.890401837756e-01 
0.000000000000e+00 0.000000000000e+00 2.000000000000e-02 -8.981726661007e+03 5.948343918661e-01 
0.000000000000e+00 0.000000000000e+00 2.125000000000e-02 -8.704883713431e+03 6.003214767831e-01 
0.000000000000e+00 0.000000000000e+00 2.250000000000e-02 -8.450039945840e+03 6.055290518174e-01 
0.000000000000e+00 0.000000000000e+00 2.375000000000e-02 -8.215650582535e+03 6.105051756097e-01 
0.000000000000e+00 0.000000000000e+00 2.500000000000e-02 -7.998640953971e+03 6.152436166730e-01 
0.000000000000e+00 0.000000000000e+00 2.625000000000e-02 -7.796522942024e+03 6.197596354638e-01 
0.000000000000e+00 0.000000000000e+00 2.750000000000e-02 -7.607956315356e+03 6.241052343870e-01 
0.000000000000e+00 0.000000000000e+00 2.875000000000e-02 -7.432007225827e+03 6.282899761558e-01 
0.000000000000e+00 0.000000000000e+00 3.000000000000e-02 -7.267192113162e+03 6.323037759878e-01 
0.000000000000e+00 0.000000000000e+00 3.125000000000e-02 -7.112383956134e+03 6.361418974475e-01 
0.000000000000e+00 0.000000000000e+00 3.250000000000e-02 -6.966742863620e+03 6.398323176976e-01 
0.000000000000e+00 0.000000000000e+00 3.375000000000e-02 -6.829222243963e+03 6.433879145289e-01 
0.000000000000e+00 0.000000000000e+00 3.500000000000e-02 -6.698977325378e+03 6.468520809540e-01 
0.000000000000e+00 0.000000000000e+00 3.625000000000e-02 -6.575690188563e+03 6.502227151227e-01 
0.000000000000e+00 0.000000000000e+00 3.750000000000e-02 -6.458704221407e+03 6.534498412081e-01 
0.000000000000e+00 0.000000000000e+00 3.875000000000e-02 -6.347560676378e+03 6.565378439811e-01 
0.000000000000e+00 0.000000000000e+00 4.000000000000e-02 -6.241680733899e+03 6.595414375966e-01 
0.000000000000e+00 0.000000000000e+00 4.125000000000e-02 -6.140739943578e+03 6.624868166985e-01 
0.000000000000e+00 0.000000000000e+00 4.250000000000e-02 -6.044385863101e+03 6.653334515909e-01 
0.000000000000e+00 0.000000000000e+00 4.375000000000e-02 -5.952233971461e+03 6.681053828310e-01 
0.000000000000e+00 0.000000000000e+00 4.500000000000e-02 -5.864174540003e+03 6.707970676087e-01 
0.000000000000e+00 0.000000000000e+00 4.625000000000e-02 -5.779854878742e+03 6.733992471349e-01 
0.000000000000e+00 0.000000000000e+00 4.750000000000e-02 -5.698989693264e+03 6.759554692514e-01 
0.000000000000e+00 0.000000000000e+00 4.875000000000e-02 -5.621466629656e+03 6.784500527155e-01 
0.000000000000e+00 0.000000000000e+00 5.000000000000e-02 -5.547004031523e+03 6.808518724371e-01 
0.000000000000e+00 0.000000000000e+00 5.125000000000e-02 -5.475346547456e+03 6.831870665138e-01 
0.000000000000e+00 0.000000000000e+00 5.250000000000e-02 -5.406456479028e+03 6.854582036402e-01 
0.000000000000e+00 0.000000000000e+00 5.375000000000e-02 -5.340153726987e+03 6.876476118580e-01 
0.000000000000e+00 0.000000000000e+00 5.500000000000e-02 -5.276214797295e+03 6.897764796717e-01 
0.000000000000e+00 0.000000000000e+00 5.625000000000e-02 -5.214507092755e+03 6.918881404466e-01 
0.000000000000e+00 0.000000000000e+00 5.750000000000e-02 -5.155016363095e+03 6.939680920812e-01 
0.000000000000e+00 0.000000000000e+00 5.875000000000e-02 -5.097600424784e+03 6.959789013072e-01 
0.000000000000e+00 0.000000000000e+00 6.000000000000e-02 -5.042093910780e+03 6.979232432185e-01 
0.000000000000e+00 0.000000000000e+00 6.125000000000e-02 -4.988365757078e+03 6.998407688274e-01 
0.000000000000e+00 0.000000000000e+00 6.250000000000e-02 -4.936439303768e+03 7.017362403189e-01 
0.000000000000e+00 0.000000000000e+00 6.375000000000e-02 -4.886247270249e+03 7.035742141304e-01 
0.000000000000e+00 0.000000000000e+00 6.500000000000e-02 -4.837663725590e+03 7.053536284261e-01 
0.000000000000e+00 0.000000000000e+00 6.625000000000e-02 -4.790574111319e+03 7.070784864930e-01 
0.000000000000e+00 0.000000000000e+00 6.750000000000e-02 -4.744886875689e+03 7.087857166443e-01 
0.000000000000e+00 0.000000000000e+00 6.875000000000e-02 -4.700609381578e+03 7.104848375958e-01 
0.000000000000e+00 0.000000000000e+00 7.000000000000e-02 -4.657711747847e+03 7.121414858700e-01 
0.000000000000e+00 0.000000000000e+00 7.125000000000e-02 -4.616105584090e+03 7.137485346909e-01 
0.000000000000e+00 0.000000000000e+00 7.250000000000e-02 -4.575707294458e+03 7.153091406896e-01 
0.000000000000e+00 0.000000000000e+00 7.375000000000e-02 -4.536442398512e+03 7.168260892516e-01 
0.000000000000e+00 0.000000000000e+00 7.500000000000e-02 -4.498249049983e+03 7.183221472697e-01 
0.000000000000e+00 0.000000000000e+00 7.625000000000e-02 -4.461135685911e+03 7.198055688141e-01 
0.000000000000e+00 0.000000000000e+00 7.750000000000e-02 -4.425095054007e+03 7.212552060887e-01 
0.000000000000e+00 0.000000000000e+00 7.875000000000e-02 -4.390066351624e+03 7.226643412664e-01 
0.000000000000e+00 0.000000000000e+00 8.000000000000e-02 -4.355990970332e+03 7.240352786722e-01 
0.000000000000e+00 0.000000000000e+00 8.125000000000e-02 -4.322816110857e+03 7.253701226164e-01 
0.000000000000e+00 0.000000000000e+00 8.250000000000e-02 -4.290494015647e+03 7.266707565856e-01 
0.000000000000e+00 0.000000000000e+00 8.375000000000e-02 -4.258982857812e+03 7.279528712935e-01 
0.000000000000e+00 0.000000000000e+00 8.500000000000e-02 -4.228274844924e+03 7.292376318605e-01 
0.000000000000e+00 0.000000000000e+00 8.625000000000e-02 -4.198400074518e+03 7.305101769151e-01 
0.000000000000e+00 0.000000000000e+00 8.750000000000e-02 -4.169324831528e+03 7.317494918100e-01 
0.000000000000e+00 0.000000000000e+00 8.875000000000e-02 -4.141007214748e+03 7.329566250591e-01 
0.000000000000e+00 0.000000000000e+00 9.000000000000e-02 -4.113409117788e+03 7.341331868172e-01 
0.000000000000e+00 0.000000000000e+00 9.125000000000e-02 -4.086495789507e+03 7.352806461750e-01 
0.000000000000e+00 0.000000000000e+00 9.250000000000e-02 -4.060235436167e+03 7.364003476621e-01 
0.000000000000e+00 0.000000000000e+00 9.375000000000e-02 -4.034598881222e+03 7.374935177753e-01 
0.000000000000e+00 0.000000000000e+00 9.500000000000e-02 -4.009559816957e+03 7.385687051177e-01 
0.000000000000e+00 0.000000000000e+00 9.625000000000e-02 -3.985110572021e+03 7.396413995431e-01 
0.000000000000e+00 0.000000000000e+00 9.750000000000e-02 -3.961272681572e+03 7.407041125760e-01 
0.000000000000e+00 0.000000000000e+00 9.875000000000e-02 -3.938028153062e+03 7.417414338377e-01 
0.000000000000e+00 0.000000000000e+00 1.000000000000e-01 -3.915350413701e+03 7.427535298940e-01 
0.000000000000e+00 0.000000000000e+00 1.012500000000e-01 -3.893214997514e+03 7.437414841872e-01 
0.000000000000e+00 0.000000000000e+00 1.025000000000e-01 -3.871599337915e+03 7.447062964859e-01 
0.000000000000e+00 0.000000000000e+00 1.037500000000e-01 -3.850482568976e+03 7.456488914657e-01 
0.000000000000e+00 0.000000000000e+00 1.050000000000e-01 -3.829845352641e+03 7.465701263158e-01 
0.000000000000e+00 0.000000000000e+00 1.062500000000e-01 -3.809669727901e+03 7.474707973814e-01 
0.000000000000e+00 0.000000000000e+00 1.075000000000e-01 -3.789938978610e+03 7.483516460467e-01 
0.000000000000e+00 0.000000000000e+00 1.087500000000e-01 -3.770637513224e+03 7.492133235664e-01 
0.000000000000e+00 0.000000000000e+00 1.100000000000e-01 -3.751753466325e+03 7.500708802990e-01 
0.000000000000e+00 0.000000000000e+00 1.112500000000e-01 -3.733293928924e+03 7.509347327148e-01 
0.000000000000e+00 0.000000000000e+00 1.125000000000e-01 -3.715270647730e+03 7.517893780550e-01 
0.000000000000e+00 0.000000000000e+00 1.137500000000e-01 -3.697671136106e+03 7.526239997914e-01 
0.000000000000e+00 0.000000000000e+00 1.150000000000e-01 -3.680479833862e+03 7.534392973780e-01 
0.000000000000e+00 0.000000000000e+00 1.162500000000e-01 -3.663682241364e+03 7.542359540334e-01 
0.000000000000e+00 0.000000000000e+00 1.175000000000e-01 -3.647264828160e+03 7.550146074994e-01 
0.000000000000e+00 0.000000000000e+00 1.187500000000e-01 -3.631214945940e+03 7.557758540625e-01 
0.000000000000e+00 0.000000000000e+00 1.200000000000e-01 -3.615520751309e+03 7.565202521732e-01 
0.000000000000e+00 0.000000000000e+00 1.212500000000e-01 -3.600171137051e+03 7.572483256681e-01 
0.000000000000e+00 0.000000000000e+00 1.225000000000e-01 -3.585155670779e+03 7.579605666466e-01 
0.000000000000e+00 0.000000000000e+00 1.237500000000e-01 -3.570464540018e+03 7.586574380464e-01 
0.000000000000e+00 0.000000000000e+00 1.250000000000e-01 -3.556088502917e+03 7.593393759564e-01 
0.000000000000e+00 0.000000000000e+00 1.262500000000e-01 -3.542018843907e+03 7.600067916970e-01 
0.000000000000e+00 0.000000000000e+00 1.275000000000e-01 -3.528247333708e+03 7.606600737312e-01 
0.000000000000e+00 0.000000000000e+00 1.287500000000e-01 -3.514766191062e+03 7.612995621668e-01 
0.000000000000e+00 0.000000000000e+00 1.300000000000e-01 -3.501569767130e+03 7.619338298876e-01 
0.000000000000e+00 0.000000000000e+00 1.312500000000e-01 -3.488662197926e+03 7.625695083803e-01 
0.000000000000e+00 0.000000000000e+00 1.325000000000e-01 -3.476051316726e+03 7.631976812519e-01 
0.000000000000e+00 0.000000000000e+00 1.337500000000e-01 -3.463731050836e+03 7.638114052681e-01 
0.000000000000e+00 0.000000000000e+00 1.350000000000e-01 -3.451693449300e+03 7.644110587926e-01 
0.000000000000e+00 0.000000000000e+00 1.362500000000e-01 -3.439930773076e+03 7.649970233065e-01 
0.000000000000e+00 0.000000000000e+00 1.375000000000e-01 -3.428435717345e+03 7.655696609638e-01 
0.000000000000e+00 0.000000000000e+00 1.387500000000e-01 -3.417201379616e+03 7.661293140230e-01 
0.000000000000e+00 0.000000000000e+00 1.400000000000e-01 -3.406221230524e+03 7.666763062846e-01 
0.000000000000e+00 0.000000000000e+00 1.412500000000e-01 -3.395489087328e+03 7.672109443992e-01 
0.000000000000e+00 0.000000000000e+00 1.425000000000e-01 -3.384999089792e+03 7.677335190575e-01 
0.000000000000e+00 0.000000000000e+00 1.437500000000e-01 -3.374745678196e+03 7.682443060758e-01 
0.000000000000e+00 0.000000000000e+00 1.450000000000e-01 -3.364723573262e+03 7.687435673870e-01 
0.000000000000e+00 0.000000000000e+00 1.462500000000e-01 -3.354927757787e+03 7.692315519480e-01 
0.000000000000e+00 0.000000000000e+00 1.475000000000e-01 -3.345353459808e+03 7.697084965706e-01 
0.000000000000e+00 0.000000000000e+00 1.487500000000e-01 -3.335996137159e+03 7.701746266850e-01 
0.000000000000e+00 0.000000000000e+00 1.500000000000e-01 -3.326851463260e+03 7.706301570413e-01 
0.000000000000e+00 0.000000000000e+00 1.512500000000e-01 -3.317915314051e+03 7.710752923561e-01 
0.000000000000e+00 0.000000000000e+00 1.525000000000e-01 -3.309183755930e+03 7.715102279076e-01 
0.000000000000e+00 0.000000000000e+00 1.537500000000e-01 -3.300653034623e+03 7.719351500867e-01 
0.000000000000e+00 0.000000000000e+00 1.550000000000e-01 -3.292319564899e+03 7.723502369050e-01 
0.000000000000e+00 0.000000000000e+00 1.562500000000e-01 -3.284179921039e+03 7.727556584661e-01 
0.000000000000e+00 0.000000000000e+00 1.575000000000e-01 -3.276230828023e+03 7.731515774580e-01 
0.000000000000e+00 0.000000000000e+00 1.587500000000e-01 -3.268469149964e+03 7.735381417282e-01 
0.000000000000e+00 0.000000000000e+00 1.600000000000e-01 -3.260892357350e+03 7.739154696567e-01 
0.000000000000e+00 0.000000000000e+00 1.612500000000e-01 -3.253498709588e+03 7.742860378489e-01 
0.000000000000e+00 0.000000000000e+00 1.625000000000e-01 -3.246288428881e+03 7.746566943205e-01 
0.000000000000e+00 0.000000000000e+00 1.637500000000e-01 -3.239266296894e+03 7.750252319222e-01 
0.000000000000e+00 0.000000000000e+00 1.650000000000e-01 -3.232431799186e+03 7.753844827366e-01 
0.000000000000e+00 0.000000000000e+00 1.662500000000e-01 -3.225782633651e+03 7.757339782408e-01 
0.000000000000e+00 0.000000000000e+00 1.675000000000e-01 -3.219315931701e+03 7.760738709748e-01 
0.000000000000e+00 0.000000000000e+00 1.687500000000e-01 -3.213028480237e+03 7.764043249136e-01 
0.000000000000e+00 0.000000000000e+00 1.700000000000e-01 -3.206917216430e+03 7.767255005933e-01 
0.000000000000e+00 0.000000000000e+00 1.712500000000e-01 -3.200979219709e+03 7.770375511055e-01 
0.000000000000e+00 0.000000000000e+00 1.725000000000e-01 -3.195211703953e+03 7.773406225017e-01 
0.000000000000e+00 0.000000000000e+00 1.737500000000e-01 -3.189612010256e+03 7.776348541708e-01 
0.000000000000e+00 0.000000000000e+00 1.750000000000e-01 -3.184177600205e+03 7.779203791909e-01 
0.000000000000e+00 0.000000000000e+00 1.762500000000e-01 -3.178906049629e+03 7.781973246549e-01 
0.000000000000e+00 0.000000000000e+00 1.775000000000e-01 -3.173795042792e+03 7.784658119748e-01 
0.000000000000e+00 0.000000000000e+00 1.787500000000e-01 -3.168842366977e+03 7.787259571642e-01 
0.000000000000e+00 0.000000000000e+00 1.800000000000e-01 -3.164045907447e+03 7.789778711019e-01 
0.000000000000e+00 0.000000000000e+00 1.812500000000e-01 -3.159403642731e+03 7.792216597782e-01 
0.000000000000e+00 0.000000000000e+00 1.825000000000e-01 -3.154913640239e+03 7.794574245238e-01 
0.000000000000e+00 0.000000000000e+00 1.837500000000e-01 -3.150574052151e+03 7.796852622252e-01 
0.000000000000e+00 0.000000000000e+00 1.850000000000e-01 -3.146383111583e+03 7.799052655250e-01 
0.000000000000e+00 0.000000000000e+00 1.862500000000e-01 -3.142339128992e+03 7.801175230095e-01 
0.000000000000e+00 0.000000000000e+00 1.875000000000e-01 -3.138440488816e+03 7.803221193848e-01 
0.000000000000e+00 0.000000000000e+00 1.887500000000e-01 -3.134685646323e+03 7.805191356414e-01 
0.000000000000e+00 0.000000000000e+00 1.900000000000e-01 -3.131073124663e+03 7.807086492084e-01 
0.000000000000e+00 0.000000000000e+00 1.912500000000e-01 -3.127601512094e+03 7.808907340984e-01 
0.000000000000e+00 0.000000000000e+00 1.925000000000e-01 -3.124269459393e+03 7.810654610431e-01 
0.000000000000e+00 0.000000000000e+00 1.937500000000e-01 -3.121075677412e+03 7.812328976212e-01 
0.000000000000e+00 0.000000000000e+00 1.950000000000e-01 -3.118018934799e+03 7.813931083772e-01 
0.000000000000e+00 0.000000000000e+00 1.962500000000e-01 -3.115098055848e+03 7.815461549341e-01 
0.000000000000e+00 0.000000000000e+00 1.975000000000e-01 -3.112311918480e+03 7.816920960991e-01 
0.000000000000e+00 0.000000000000e+00 1.987500000000e-01 -3.109659452359e+03 7.818309879620e-01 
0.000000000000e+00 0.000000000000e+00 2.000000000000e-01 -3.107139637107e+03 7.819628839884e-01 
0.000000000000e+00 0.000000000000e+00 2.012500000000e-01 -3.104751500640e+03 7.820878351067e-01 
0.000000000000e+00 0.000000000000e+00 2.025000000000e-01 -3.102494117604e+03 7.822058897905e-01 
0.000000000000e+00 0.000000000000e+00 2.037500000000e-01 -3.100366607903e+03 7.823170941348e-01 
0.000000000000e+00 0.000000000000e+00 2.050000000000e-01 -3.098368135321e+03 7.824214919282e-01 
0.000000000000e+00 0.000000000000e+00 2.062500000000e-01 -3.096497906235e+03 7.825191247207e-01 
0.000000000000e+00 0.000000000000e+00 2.075000000000e-01 -3.094755168402e+03 7.826100318863e-01 
0.000000000000e+00 0.000000000000e+00 2.087500000000e-01 -3.093139209830e+03 7.826942506827e-01 
0.000000000000e+00 0.000000000000e+00 2.100000000000e-01 -3.091649357717e+03 7.827718163063e-01 
0.000000000000e+00 0.000000000000e+00 2.112500000000e-01 -3.090284977470e+03 7.828427619435e-01 
0.000000000000e+00 0.000000000000e+00 2.125000000000e-01 -3.089045471781e+03 7.829071188193e-01 
0.000000000000e+00 0.000000000000e+00 2.137500000000e-01 -3.087930279769e+03 7.829649162414e-01 
0.000000000000e+00 0.000000000000e+00 2.150000000000e-01 -3.086938876193e+03 7.830161816421e-01 
0.000000000000e+00 0.000000000000e+00 2.162500000000e-01 -3.086070770709e+03 7.830609406162e-01 
0.000000000000e+00 0.000000000000e+00 2.175000000000e-01 -3.085325507195e+03 7.830992169568e-01 
0.000000000000e+00 0.000000000000e+00 2.187500000000e-01 -3.084702663127e+03 7.831310326876e-01 
0.000000000000e+00 0.000000000000e+00 2.200000000000e-01 -3.084201849006e+03 7.831564080928e-01 
0.000000000000e+00 0.000000000000e+00 2.212500000000e-01 -3.083822707834e+03 7.831753617441e-01 
0.000000000000e+00 0.000000000000e+00 2.225000000000e-01 -3.083564914647e+03 7.831879105253e-01 
0.000000000000e+00 0.000000000000e+00 2.237500000000e-01 -3.083428176086e+03 7.831940696541e-01 
0.000000000000e+00 0.000000000000e+00 2.250000000000e-01 -3.083412230021e+03 7.831938527021e-01 
0.000000000000e+00 0.000000000000e+00 2.262500000000e-01 -3.083516845217e+03 7.831872716117e-01 
0.000000000000e+00 0.000000000000e+00 2.275000000000e-01 -3.083741821043e+03 7.831743367113e-01 
0.000000000000e+00 0.000000000000e+00 2.287500000000e-01 -3.084086987228e+03 7.831550567277e-01 
0.000000000000e+00 0.000000000000e+00 2.300000000000e-01 -3.084552203656e+03 7.831294387963e-01 
0.000000000000e+00 0.000000000000e+00 2.312500000000e-01 -3.085137360202e+03 7.830974884701e-01 
0.000000000000e+00 0.000000000000e+00 2.325000000000e-01 -3.085842376614e+03 7.830592097249e-01 
0.000000000000e+00 0.000000000000e+00 2.337500000000e-01 -3.086667202426e+03 7.830146049639e-01 
0.000000000000e+00 0.000000000000e+00 2.350000000000e-01 -3.087611816921e+03 7.829636750192e-01 
0.000000000000e+00 0.000000000000e+00 2.362500000000e-01 -3.088676229130e+03 7.829064191516e-01 
0.000000000000e+00 0.000000000000e+00 2.375000000000e-01 -3.089860477867e+03 7.828428350481e-01 
0.000000000000e+00 0.000000000000e+00 2.387500000000e-01 -3.091164631811e+03 7.827729188176e-01 
0.000000000000e+00 0.000000000000e+00 2.400000000000e-01 -3.092588789620e+03 7.826966649844e-01 
0.000000000000e+00 0.000000000000e+00 2.412500000000e-01 -3.094133080094e+03 7.826140664792e-01 
0.000000000000e+00 0.000000000000e+00 2.425000000000e-01 -3.095797662369e+03 7.825251146283e-01 
0.000000000000e+00 0.000000000000e+00 2.437500000000e-01 -3.097582726156e+03 7.824297991409e-01 
0.000000000000e+00 0.000000000000e+00 2.450000000000e-01 -3.099488492029e+03 7.823281080937e-01 
0.000000000000e+00 0.000000000000e+00 2.462500000000e-01 -3.101515211739e+03 7.822200279131e-01 
0.000000000000e+00 0.000000000000e+00 2.475000000000e-01 -3.103663168586e+03 7.821055433562e-01 
0.000000000000e+00 0.000000000000e+00 2.487500000000e-01 -3.105932677831e+03 7.819846370518e-01 
0.000000000000e+00 0.000000000000e+00 2.500000000000e-01 -3.108324111924e+03 7.819225761304e-01 
1  2  2  1
2  3  3  2
3  4  4  3
4  5  5  4
5  6  6  5
6  7  7  6
7  8  8  7
8  9  9  8
9  10  10  9
10  11  11  10
11  12  12  11
12  13  13  12
13  14  14  13
14  15  15  14
15  16  16  15
16  17  17  16
17  18  18  17
18  19  19  18
19  20  20  19
20  21  21  20
21  22  22  21
22  23  23  22
23  24  24  23
24  25  25  24
25  26  26  25
26  27  27  26
27  28  28  27
28  29  29  28
29  30  30  29
30  31  31  30
31  32  32  31
32  33  33  32
33  34  34  33
34  35  35  34
35  36  36  35
36  37  37  36
37  38  38  37
38  39  39  38
39  40  40  39
40  41  41  40
41  42  42  41
42  43  43  42
43  44  44  43
44  45  45  44
45  46  46  45
46  47  47  46
47  48  48  47
48  49  49  48
49  50  50  49
50  51  51  50
51  52  52  51
52  53  53  52
53  54  54  53
54  55  55  54
55  56  56  55
56  57  57  56
57  58  58  57
58  59  59  58
59  60  60  59
60  61  61  60
61  62  62  61
62  63  63  62
63  64  64  63
64  65  65  64
65  66  66  65
66  67  67  66
67  68  68  67
68  69  69  68
69  70  70  69
70  71  71  70
71  72  72  71
72  73  73  72
73  74  74  73
74  75  75  74
75  76  76  75
76  77  77  76
77  78  78  77
78  79  79  78
79  80  80  79
80  81  81  80
81  82  82  81
82  83  83  82
83  84  84  83
84  85  85  84
85  86  86  85
86  87  87  86
87  88  88  87
88  89  89  88
89  90  90  89
90  91  91  90
91  92  92  91
92  93  93  92
93  94  94  93
94  95  95  94
95  96  96  95
96  97  97  96
97  98  98  97
98  99  99  98
99  100  100  99
100  101  101  100
101  102  102  101
102  103  103  102
103  104  104  103
104  105  105  104
105  106  106  105
106  107  107  106
107  108  108  107
108  109  109  108
109  110  110  109
110  111  111  110
111  112  112  111
112  113  113  112
113  114  114  113
114  115  115  114
115  116  116  115
116  117  117  116
117  118  118  117
118  119  119  118
119  120  120  119
120  121  121  120
121  122  122  121
122  123  123  122
123  124  124  123
124  125  125  124
125  126  126  125
126  127  127  126
127  128  128  127
128  129  129  128
129  130  130  129
130  131  131  130
131  132  132  131
132  133  133  132
133  134  134  133
134  135  135  134
135  136  136  135
136  137  137  136
137  138  138  137
138  139  139  138
139  140  140  139
140  141  141  140
141  142  142  141
142  143  143  142
143  144  144  143
144  145  145  144
145  146  146  145
146  147  147  146
147  148  148  147
148  149  149  148
149  150  150  149
150  151  151  150
151  152  152  151
152  153  153  152
153  154  154  153
154  155  155  154
155  156  156  155
156  157  157  156
157  158  158  157
158  159  159  158
159  160  160  159
160  161  161  160
161  162  162  161
162  163  163  162
163  164  164  163
164  165  165  164
165  166  166  165
166  167  167  166
167  168  168  167
168  169  169  168
169  170  170  169
170  171  171  170
171  172  172  171
172  173  173  172
173  174  174  173
174  175  175  174
175  176  176  175
176  177  177  176
177  178  178  177
178  179  179  178
179  180  180  179
180  181  181  180
181  182  182  181
182  183  183  182
183  184  184  183
184  185  185  184
185  186  186  185
186  187  187  186
187  188  188  187
188  189  189  188
189  190  190  189
190  191  191  190
191  192  192  191
192  193  193  192
193  194  194  193
194  195  195  194
195  196  196  195
196  197  197  196
197  198  198  197
198  199  199  198
199  200  200  199
200  201  201  200
VARIABLES  = "X","Y","Z", "PRESSURE1", "SATURATION1"
ZONE T="2.400000000000e+01s", N=201, E=200, F=FEPOINT, ET=QUADRILATERAL
STRANDID=1, SOLUTIONTIME=2.400000000000e+01
0.000000000000e+00 0.000000000000e+00 0.000000000000e+00 -3.180000000000e+04 4.188039785515e-01 
0.000000000000e+00 0.000000000000e+00 1.250000000000e-03 -2.494347394915e+04 4.326830680922e-01 
0.000000000000e+00 0.000000000000e+00 2.500000000000e-03 -2.107436983217e+04 4.572889915190e-01 
0.000000000000e+00 0.000000000000e+00 3.750000000000e-03 -1.850489036125e+04 4.767641957025e-01 
0.000000000000e+00 0.000000000000e+00 5.000000000000e-03 -1.664170246255e+04 4.930549117246e-01 
0.000000000000e+00 0.000000000000e+00 6.250000000000e-03 -1.521352261915e+04 5.072659098581e-01 
0.000000000000e+00 0.000000000000e+00 7.500000000000e-03 -1.406114476062e+04 5.199680533400e-01 
0.000000000000e+00 0.000000000000e+00 8.750000000000e-03 -1.312391619665e+04 5.311402917650e-01 
0.000000000000e+00 0.000000000000e+00 1.000000000000e-02 -1.230945357720e+04 5.416399050320e-01 
0.000000000000e+00 0.000000000000e+00 1.125000000000e-02 -1.162809186795e+04 5.517037109656e-01 
0.000000000000e+00 0.000000000000e+00 1.250000000000e-02 -1.104056087680e+04 5.605664067000e-01 
0.000000000000e+00 0.000000000000e+00 1.375000000000e-02 -1.051332195478e+04 5.685189993353e-01 
0.000000000000e+00 0.000000000000e+00 1.500000000000e-02 -1.002835518168e+04 5.761340357249e-01 
0.000000000000e+00 0.000000000000e+00 1.625000000000e-02 -9.582433119417e+03 5.837950585816e-01 
0.000000000000e+00 0.000000000000e+00 1.750000000000e-02 -9.176824772618e+03 5.913311476012e-01 
0.000000000000e+00 0.000000000000e+00 1.875000000000e-02 -8.805704254974e+03 5.985767539115e-01 
0.000000000000e+00 0.000000000000e+00 2.000000000000e-02 -8.462949740976e+03 6.055570730710e-01 
0.000000000000e+00 0.000000000000e+00 2.125000000000e-02 -8.145954075617e+03 6.123208714812e-01 
0.000000000000e+00 0.000000000000e+00 2.250000000000e-02 -7.850306322166e+03 6.188789789595e-01 
0.000000000000e+00 0.000000000000e+00 2.375000000000e-02 -7.573065878148e+03 6.252779573785e-01 
0.000000000000e+00 0.000000000000e+00 2.500000000000e-02 -7.313000648607e+03 6.315417660750e-01 
0.000000000000e+00 0.000000000000e+00 2.625000000000e-02 -7.067845415420e+03 6.376448010878e-01 
0.000000000000e+00 0.000000000000e+00 2.750000000000e-02 -6.836066002949e+03 6.436242901859e-01 
0.000000000000e+00 0.000000000000e+00 2.875000000000e-02 -6.615743945351e+03 6.495339663557e-01 
0.000000000000e+00 0.000000000000e+00 3.000000000000e-02 -6.406233599203e+03 6.553186043838e-01 
0.000000000000e+00 0.000000000000e+00 3.125000000000e-02 -6.206210662559e+03 6.610153739689e-01 
0.000000000000e+00 0.000000000000e+00 3.250000000000e-02 -6.014988767569e+03 6.666844013336e-01 
0.000000000000e+00 0.000000000000e+00 3.375000000000e-02 -5.831830638075e+03 6.722780042150e-01 
0.000000000000e+00 0.000000000000e+00 3.500000000000e-02 -5.656228462868e+03 6.778189748328e-01 
0.000000000000e+00 0.000000000000e+00 3.625000000000e-02 -5.487574003754e+03 6.832909558576e-01 
0.000000000000e+00 0.000000000000e+00 3.750000000000e-02 -5.325454974239e+03 6.886632058880e-01 
0.000000000000e+00 0.000000000000e+00 3.875000000000e-02 -5.169331281547e+03 6.939967545508e-01 
0.000000000000e+00 0.000000000000e+00 4.000000000000e-02 -5.018976052941e+03 6.993137136130e-01 
0.000000000000e+00 0.000000000000e+00 4.125000000000e-02 -4.873954135005e+03 7.045644372722e-01 
0.000000000000e+00 0.000000000000e+00 4.250000000000e-02 -4.734110341226e+03 7.097867418361e-01 
0.000000000000e+00 0.000000000000e+00 4.375000000000e-02 -4.599278794604e+03 7.149636379409e-01 
0.000000000000e+00 0.000000000000e+00 4.500000000000e-02 -4.468967379389e+03 7.200810568209e-01 
0.000000000000e+00 0.000000000000e+00 4.625000000000e-02 -4.343276241261e+03 7.251257425058e-01 
0.000000000000e+00 0.000000000000e+00 4.750000000000e-02 -4.221648771979e+03 7.301362956047e-01 
0.000000000000e+00 0.000000000000e+00 4.875000000000e-02 -4.104358836294e+03 7.351149516023e-01 
0.000000000000e+00 0.000000000000e+00 5.000000000000e-02 -3.990935144456e+03 7.400235801137e-01 
0.000000000000e+00 0.000000000000e+00 5.125000000000e-02 -3.881406454099e+03 7.448761057345e-01 
0.000000000000e+00 0.000000000000e+00 5.250000000000e-02 -3.775540666190e+03 7.496572480737e-01 
0.000000000000e+00 0.000000000000e+00 5.375000000000e-02 -3.673027366477e+03 7.544212442401e-01 
0.000000000000e+00 0.000000000000e+00 5.500000000000e-02 -3.574111062934e+03 7.591110462608e-01 
0.000000000000e+00 0.000000000000e+00 5.625000000000e-02 -3.478186127172e+03 7.637489004838e-01 
0.000000000000e+00 0.000000000000e+00 5.750000000000e-02 -3.385550441389e+03 7.683441728776e-01 
0.000000000000e+00 0.000000000000e+00 5.875000000000e-02 -3.295930901674e+03 7.728304490615e-01 
0.000000000000e+00 0.000000000000e+00 6.000000000000e-02 -3.209000615489e+03 7.772840889958e-01 
0.000000000000e+00 0.000000000000e+00 6.125000000000e-02 -3.125128220956e+03 7.816834238693e-01 
0.000000000000e+00 0.000000000000e+00 6.250000000000e-02 -3.043976459157e+03 7.859716928026e-01 
0.000000000000e+00 0.000000000000e+00 6.375000000000e-02 -2.965285328783e+03 7.902322722498e-01 
0.000000000000e+00 0.000000000000e+00 6.500000000000e-02 -2.889564545165e+03 7.944408772276e-01 
0.000000000000e+00 0.000000000000e+00 6.625000000000e-02 -2.816534952097e+03 7.985129118092e-01 
0.000000000000e+00 0.000000000000e+00 6.750000000000e-02 -2.745795023776e+03 8.025296631055e-01 
0.000000000000e+00 0.000000000000e+00 6.875000000000e-02 -2.677499628200e+03 8.065178673128e-01 
0.000000000000e+00 0.000000000000e+00 7.000000000000e-02 -2.611636796854e+03 8.103998218786e-01 
0.000000000000e+00 0.000000000000e+00 7.125000000000e-02 -2.547858071097e+03 8.141618959977e-01 
0.000000000000e+00 0.000000000000e+00 7.250000000000e-02 -2.485892848667e+03 8.179131320477e-01 
0.000000000000e+00 0.000000000000e+00 7.375000000000e-02 -2.426103240948e+03 8.216560646518e-01 
0.000000000000e+00 0.000000000000e+00 7.500000000000e-02 -2.368401974444e+03 8.252866207585e-01 
0.000000000000e+00 0.000000000000e+00 7.625000000000e-02 -2.312512154005e+03 8.288044932153e-01 
0.000000000000e+00 0.000000000000e+00 7.750000000000e-02 -2.258209901297e+03 8.322608885722e-01 
0.000000000000e+00 0.000000000000e+00 7.875000000000e-02 -2.205580056200e+03 8.356888831692e-01 
0.000000000000e+00 0.000000000000e+00 8.000000000000e-02 -2.154894701384e+03 8.390383930398e-01 
0.000000000000e+00 0.000000000000e+00 8.125000000000e-02 -2.105904378870e+03 8.422770073656e-01 
0.000000000000e+00 0.000000000000e+00 8.250000000000e-02 -2.058409603643e+03 8.454177607483e-01 
0.000000000000e+00 0.000000000000e+00 8.375000000000e-02 -2.012245419486e+03 8.485017598426e-01 
0.000000000000e+00 0.000000000000e+00 8.500000000000e-02 -1.967385598151e+03 8.515735281587e-01 
0.000000000000e+00 0.000000000000e+00 8.625000000000e-02 -1.923978483017e+03 8.546008088670e-01 