 TITLE = "Time curves in points"
 VARIABLES = "TIME "  "PRESSURE1"  "SATURATION1" 
 ZONE T="POINT=POINT6"
0.000000000000e+00 -3.326851463260e+03 7.706301570413e-01 
5.000000000000e-01 -3.331064449919e+03 7.704192363045e-01 
1.000000000000e+00 -3.335194732296e+03 7.702125925071e-01 
1.500000000000e+00 -3.338992192539e+03 7.700230063768e-01 
2.000000000000e+00 -3.341936483513e+03 7.698769872950e-01 
2.500000000000e+00 -3.343179530459e+03 7.698176238538e-01 
3.000000000000e+00 -3.341539020361e+03 7.699048333748e-01 
3.500000000000e+00 -3.335542685241e+03 7.702130413262e-01 
4.000000000000e+00 -3.323513146241e+03 7.708268196060e-01 
4.500000000000e+00 -3.303687071120e+03 7.718348085675e-01 
5.000000000000e+00 -3.274354835571e+03 7.733226371033e-01 
5.500000000000e+00 -3.234039722473e+03 7.754161146089e-01 
6.000000000000e+00 -3.181989304693e+03 7.781926532408e-01 
6.500000000000e+00 -3.117842298432e+03 7.816098916041e-01 
7.000000000000e+00 -3.041662571243e+03 7.856633674252e-01 
7.500000000000e+00 -2.954220416812e+03 7.904685807840e-01 
8.000000000000e+00 -2.857999168915e+03 7.958811468071e-01 
8.500000000000e+00 -2.754503123213e+03 8.017291783127e-01 
9.000000000000e+00 -2.646045259483e+03 8.081346409725e-01 
9.500000000000e+00 -2.534875100400e+03 8.147273755692e-01 
1.000000000000e+01 -2.422531817947e+03 8.217115418522e-01 
1.050000000000e+01 -2.311597754199e+03 8.287225619589e-01 
1.100000000000e+01 -2.202585704390e+03 8.357717069593e-01 
1.150000000000e+01 -2.097803392226e+03 8.427188851163e-01 
1.200000000000e+01 -1.997121520481e+03 8.494407436688e-01 
1.250000000000e+01 -1.901042156993e+03 8.561426620303e-01 
1.300000000000e+01 -1.810142265386e+03 8.625849543989e-01 
1.350000000000e+01 -1.724557108030e+03 8.687898483645e-01 
1.400000000000e+01 -1.644362065668e+03 8.746839776494e-01 
1.450000000000e+01 -1.569279655147e+03 8.802908239862e-01 
1.500000000000e+01 -1.499078094628e+03 8.856168923547e-01 
1.550000000000e+01 -1.433524619650e+03 8.906414158425e-01 
1.600000000000e+01 -1.372346936377e+03 8.953952886497e-01 
1.650000000000e+01 -1.315457252596e+03 8.998741657265e-01 
1.700000000000e+01 -1.262401273507e+03 9.040879728763e-01 
1.750000000000e+01 -1.212950737463e+03 9.080309287508e-01 
1.800000000000e+01 -1.166737479736e+03 9.117467228245e-01 
1.850000000000e+01 -1.123678789746e+03 9.152215532694e-01 
1.900000000000e+01 -1.083369558859e+03 9.185108390477e-01 
1.950000000000e+01 -1.045804300943e+03 9.216164838192e-01 
2.000000000000e+01 -1.010664267096e+03 9.245223538796e-01 
2.050000000000e+01 -9.777229783845e+02 9.272438482317e-01 
2.100000000000e+01 -9.469737041512e+02 9.297860016471e-01 
2.150000000000e+01 -9.181440291713e+02 9.321700596699e-01 
2.200000000000e+01 -8.910212464948e+02 9.344220859935e-01 
2.250000000000e+01 -8.656577836468e+02 9.365436221617e-01 
2.300000000000e+01 -8.419070345360e+02 9.385308945371e-01 
2.350000000000e+01 -8.195764205825e+02 9.403997346272e-01 
2.400000000000e+01 -7.985096840846e+02 9.421622442326e-01 
2.450000000000e+01 -7.866967521058e+02 9.431430106700e-01 
2.500000000000e+01 -7.907882681281e+02 9.427834344721e-01 
2.550000000000e+01 -8.085128916885e+02 9.412786292920e-01 
2.600000000000e+01 -8.346144606288e+02 9.390711606520e-01 
2.650000000000e+01 -8.652887407657e+02 9.364825067290e-01 
2.700000000000e+01 -8.982368628722e+02 9.337060288350e-01 
2.750000000000e+01 -9.320803051985e+02 9.308862808153e-01 
2.800000000000e+01 -9.654279280174e+02 9.281120085400e-01 
2.850000000000e+01 -9.984235542302e+02 9.253684017733e-01 
2.900000000000e+01 -1.030708785655e+03 9.226840597296e-01 
2.950000000000e+01 -1.061995784250e+03 9.200833044801e-01 
3.000000000000e+01 -1.092568859988e+03 9.175425580106e-01 
3.050000000000e+01 -1.122389766347e+03 9.151087570674e-01 
3.100000000000e+01 -1.151233931617e+03 9.127697381756e-01 
3.150000000000e+01 -1.179322638051e+03 9.104922735529e-01 
3.200000000000e+01 -1.206791228928e+03 9.082720653859e-01 
3.250000000000e+01 -1.233354739668e+03 9.061450930216e-01 
3.300000000000e+01 -1.259185171365e+03 9.040769066748e-01 
3.350000000000e+01 -1.284385630671e+03 9.020593496704e-01 
3.400000000000e+01 -1.309042297007e+03 9.000944778488e-01 
3.450000000000e+01 -1.333081631499e+03 8.981940666472e-01 
3.500000000000e+01 -1.356582807122e+03 8.963362666171e-01 
3.550000000000e+01 -1.379597503200e+03 8.945170700750e-01 
3.600000000000e+01 -1.402192475661e+03 8.927355913441e-01 
3.650000000000e+01 -1.424291726559e+03 8.910330830301e-01 
3.700000000000e+01 -1.445947002615e+03 8.893647697070e-01 
3.750000000000e+01 -1.467192489608e+03 8.877280860300e-01 
3.800000000000e+01 -1.488059423354e+03 8.861206845372e-01 
3.850000000000e+01 -1.508579374430e+03 8.845487046951e-01 
3.900000000000e+01 -1.528735252391e+03 8.830162471874e-01 
3.950000000000e+01 -1.548552660659e+03 8.815095187626e-01 
4.000000000000e+01 -1.568050246953e+03 8.800271479385e-01 
4.050000000000e+01 -1.587245881197e+03 8.785678150762e-01 
4.100000000000e+01 -1.606163186236e+03 8.771421175050e-01 
4.150000000000e+01 -1.624809155793e+03 8.757618957268e-01 
4.200000000000e+01 -1.643193096602e+03 8.744010662417e-01 
4.250000000000e+01 -1.661325027614e+03 8.730589198664e-01 
4.300000000000e+01 -1.679215182016e+03 8.717347231135e-01 
4.350000000000e+01 -1.696874861761e+03 8.704276807831e-01 
4.400000000000e+01 -1.714327630226e+03 8.691503264963e-01 
4.450000000000e+01 -1.731577724404e+03 8.678908177973e-01 
4.500000000000e+01 -1.748628472003e+03 8.666458811484e-01 
4.550000000000e+01 -1.765485731023e+03 8.654151103608e-01 
4.600000000000e+01 -1.782156420801e+03 8.641980227402e-01 
4.650000000000e+01 -1.798648361012e+03 8.629941026498e-01 
4.700000000000e+01 -1.814995744711e+03 8.618307908857e-01 
4.750000000000e+01 -1.831195941310e+03 8.606804674365e-01 
4.800000000000e+01 -1.847248015293e+03 8.595406598557e-01 
4.850000000000e+01 -1.863156052552e+03 8.584110959943e-01 
4.900000000000e+01 -1.878927144015e+03 8.572912872058e-01 
4.950000000000e+01 -1.894573688480e+03 8.561803769563e-01 
5.000000000000e+01 -1.910144531186e+03 8.550850711666e-01 
5.050000000000e+01 -1.925643615698e+03 8.540001184280e-01 
5.100000000000e+01 -1.941054087480e+03 8.529213765364e-01 
5.150000000000e+01 -1.956366514814e+03 8.518495222671e-01 
5.200000000000e+01 -1.971573470450e+03 8.507850901576e-01 
5.250000000000e+01 -1.986666844855e+03 8.497286701201e-01 
5.300000000000e+01 -2.001629313558e+03 8.486876106630e-01 
5.350000000000e+01 -2.016456485773e+03 8.477031846608e-01 
5.400000000000e+01 -2.031146475596e+03 8.467278194071e-01 
5.450000000000e+01 -2.045701485754e+03 8.457613940735e-01 
5.500000000000e+01 -2.060124593557e+03 8.448037164275e-01 
5.550000000000e+01 -2.074419026460e+03 8.438545790718e-01 
5.600000000000e+01 -2.088588014530e+03 8.429137720999e-01 
5.650000000000e+01 -2.102634756080e+03 8.419810865269e-01 
5.700000000000e+01 -2.116562445170e+03 8.410563130471e-01 
5.750000000000e+01 -2.130374284516e+03 8.401392414634e-01 
5.800000000000e+01 -2.144073515874e+03 8.392296589017e-01 
5.850000000000e+01 -2.157663464092e+03 8.383273470711e-01 
5.900000000000e+01 -2.171147572201e+03 8.374320801150e-01 
5.950000000000e+01 -2.184529506412e+03 8.365436179100e-01 
6.000000000000e+01 -2.197813267448e+03 8.356616990571e-01 
6.050000000000e+01 -2.211003349024e+03 8.347860311943e-01 
6.100000000000e+01 -2.224105240458e+03 8.339162594133e-01 
6.150000000000e+01 -2.237126424956e+03 8.330519056606e-01 
6.200000000000e+01 -2.250081902304e+03 8.321924255599e-01 
6.250000000000e+01 -2.262989287352e+03 8.313769143979e-01 
6.300000000000e+01 -2.275836407055e+03 8.305651521733e-01 
6.350000000000e+01 -2.288618319289e+03 8.297574793986e-01 
6.400000000000e+01 -2.301332614377e+03 8.289540615973e-01 
6.450000000000e+01 -2.313978075117e+03 8.281549830266e-01 
6.500000000000e+01 -2.326554174154e+03 8.273602816831e-01 
6.550000000000e+01 -2.339060833930e+03 8.265699657709e-01 
6.600000000000e+01 -2.351498310944e+03 8.257840216294e-01 
6.650000000000e+01 -2.363867122873e+03 8.250024186506e-01 
6.700000000000e+01 -2.376168014755e+03 8.242251116165e-01 
6.750000000000e+01 -2.388401914111e+03 8.234520436388e-01 
6.800000000000e+01 -2.400569951512e+03 8.226831449968e-01 
6.850000000000e+01 -2.412673463434e+03 8.219183330323e-01 
6.900000000000e+01 -2.424714013193e+03 8.211575109474e-01 
6.950000000000e+01 -2.436693449741e+03 8.204005642532e-01 
7.000000000000e+01 -2.448613979182e+03 8.196473564653e-01 
7.050000000000e+01 -2.460478365492e+03 8.188977168822e-01 
7.100000000000e+01 -2.472290269457e+03 8.181514201430e-01 
7.150000000000e+01 -2.484055159828e+03 8.174081311678e-01 
7.200000000000e+01 -2.495783810409e+03 8.166671956006e-01 
7.250000000000e+01 -2.507477231754e+03 8.159583417550e-01 
7.300000000000e+01 -2.519112089159e+03 8.152697750064e-01 
7.350000000000e+01 -2.530693675799e+03 8.145843249968e-01 
7.400000000000e+01 -2.542222960731e+03 8.139019512429e-01 
7.450000000000e+01 -2.553700193647e+03 8.132226465265e-01 
7.500000000000e+01 -2.565125551906e+03 8.125464046843e-01 
7.550000000000e+01 -2.576499272005e+03 8.118732145957e-01 
7.600000000000e+01 -2.587821684097e+03 8.112030588307e-01 
7.650000000000e+01 -2.599093224713e+03 8.105359132266e-01 
7.700000000000e+01 -2.610314421481e+03 8.098717479510e-01 
7.750000000000e+01 -2.621485901129e+03 8.092105271440e-01 
7.800000000000e+01 -2.632608387987e+03 8.085522090758e-01 
7.850000000000e+01 -2.643682721257e+03 8.078967451920e-01 
7.900000000000e+01 -2.654709842360e+03 8.072440808844e-01 
7.950000000000e+01 -2.665690837102e+03 8.065941530756e-01 
8.000000000000e+01 -2.676626951744e+03 8.059468893097e-01 
8.050000000000e+01 -2.687519648655e+03 8.053022045559e-01 
8.100000000000e+01 -2.698370663338e+03 8.046599979452e-01 
8.150000000000e+01 -2.709182163251e+03 8.040201436183e-01 
8.200000000000e+01 -2.719956971568e+03 8.033824778817e-01 
8.250000000000e+01 -2.730699137184e+03 8.027467664969e-01 
8.300000000000e+01 -2.741415779437e+03 8.021125989850e-01 
8.350000000000e+01 -2.752121272562e+03 8.014856812889e-01 
8.400000000000e+01 -2.762763647583e+03 8.008899315889e-01 
8.450000000000e+01 -2.773355467797e+03 8.002969794649e-01 
8.500000000000e+01 -2.783901453014e+03 7.997065760043e-01 
8.550000000000e+01 -2.794403754927e+03 7.991186077791e-01 
8.600000000000e+01 -2.804863638761e+03 7.985330078828e-01 
8.650000000000e+01 -2.815282035773e+03 7.979497267134e-01 
8.700000000000e+01 -2.825659746508e+03 7.973687212662e-01 
8.750000000000e+01 -2.835997522895e+03 7.967899508422e-01 
8.800000000000e+01 -2.846296109945e+03 7.962133748781e-01 
8.850000000000e+01 -2.856556283620e+03 7.956389509349e-01 
8.900000000000e+01 -2.866778868224e+03 7.950666337820e-01 
8.950000000000e+01 -2.876964738608e+03 7.944963753023e-01 
9.000000000000e+01 -2.887114838088e+03 7.939281235318e-01 
9.050000000000e+01 -2.897230209109e+03 7.933618209874e-01 
9.100000000000e+01 -2.907311982458e+03 7.927974052660e-01 
9.150000000000e+01 -2.917361430263e+03 7.922348061484e-01 
9.200000000000e+01 -2.927380010491e+03 7.916739431557e-01 
9.250000000000e+01 -2.937369378415e+03 7.911147249216e-01 
9.300000000000e+01 -2.947331511227e+03 7.905570423715e-01 
9.350000000000e+01 -2.957268853869e+03 7.900007607140e-01 
9.400000000000e+01 -2.967184500319e+03 7.894457095117e-01 
9.450000000000e+01 -2.977082781555e+03 7.888916504934e-01 
9.500000000000e+01 -2.986970483195e+03 7.883382109242e-01 
9.550000000000e+01 -2.996861113816e+03 7.877846502547e-01 
9.600000000000e+01 -3.006742294122e+03 7.872526637717e-01 
9.650000000000e+01 -3.016554343654e+03 7.867348148762e-01 
9.700000000000e+01 -3.026319446345e+03 7.862194166255e-01 
9.750000000000e+01 -3.036045059444e+03 7.857060862237e-01 
9.800000000000e+01 -3.045734585657e+03 7.851946496150e-01 
9.850000000000e+01 -3.055389934301e+03 7.846850093699e-01 
9.900000000000e+01 -3.065012362647e+03 7.841771013671e-01 
9.950000000000e+01 -3.074602810632e+03 7.836708776147e-01 
1.000000000000e+02 -3.084162055063e+03 7.831662983574e-01 
1.005000000000e+02 -3.093690788989e+03 7.826633280235e-01 
1.010000000000e+02 -3.103189671872e+03 7.821619326627e-01 
1.015000000000e+02 -3.112659356268e+03 7.816620785867e-01 
1.020000000000e+02 -3.122100497386e+03 7.811637318903e-01 
1.025000000000e+02 -3.131513768170e+03 7.806668576855e-01 
1.030000000000e+02 -3.140899882862e+03 7.801714188899e-01 
1.035000000000e+02 -3.150259622655e+03 7.796773749012e-01 
1.040000000000e+02 -3.159593812823e+03 7.791846827796e-01 
1.045000000000e+02 -3.168903375858e+03 7.786932945102e-01 
1.050000000000e+02 -3.178189334588e+03 7.782031568319e-01 
1.055000000000e+02 -3.187452873589e+03 7.777142080635e-01 
1.060000000000e+02 -3.196695339134e+03 7.772263780955e-01 
1.065000000000e+02 -3.205918351923e+03 7.767395825625e-01 
1.070000000000e+02 -3.215123989485e+03 7.762537133861e-01 
1.075000000000e+02 -3.224314930421e+03 7.757686312853e-01 
1.080000000000e+02 -3.233494958233e+03 7.752841397115e-01 
1.085000000000e+02 -3.242670323966e+03 7.747999143452e-01 
1.090000000000e+02 -3.251852038723e+03 7.743198890637e-01 
1.095000000000e+02 -3.260993635957e+03 7.738629726428e-01 
1.100000000000e+02 -3.270083557363e+03 7.734086483561e-01 
1.105000000000e+02 -3.279133246014e+03 7.729563246558e-01 
1.110000000000e+02 -3.288148424207e+03 7.725057174029e-01 
1.115000000000e+02 -3.297132194374e+03 7.720566737963e-01 
1.120000000000e+02 -3.306086475291e+03 7.716090996308e-01 
1.125000000000e+02 -3.315012596683e+03 7.711629297002e-01 
1.130000000000e+02 -3.323911570999e+03 7.707181143625e-01 
1.135000000000e+02 -3.332784230665e+03 7.702746127807e-01 
1.140000000000e+02 -3.341631304038e+03 7.698323891912e-01 
1.145000000000e+02 -3.350453460856e+03 7.693914106733e-01 
1.150000000000e+02 -3.359251339736e+03 7.689516458014e-01 
1.155000000000e+02 -3.368025566379e+03 7.685130637537e-01 
1.160000000000e+02 -3.376776765006e+03 7.680756337526e-01 
1.165000000000e+02 -3.385505567559e+03 7.676393246155e-01 
1.170000000000e+02 -3.394212621428e+03 7.672041043773e-01 
1.175000000000e+02 -3.402898615466e+03 7.667699390161e-01 
1.180000000000e+02 -3.411564280375e+03 7.663367924288e-01 
1.185000000000e+02 -3.420210430989e+03 7.659046243590e-01 
1.190000000000e+02 -3.428837921872e+03 7.654733925614e-01 
1.195000000000e+02 -3.437447731188e+03 7.650430487031e-01 
1.200000000000e+02 -3.446040953067e+03 7.646135387193e-01 
1.205000000000e+02 -3.454618890005e+03 7.641847982848e-01 
1.210000000000e+02 -3.463183061429e+03 7.637567523692e-01 
1.215000000000e+02 -3.471735383136e+03 7.633293064411e-01 
1.220000000000e+02 -3.480278424189e+03 7.629023338381e-01 
1.225000000000e+02 -3.488815725198e+03 7.624756601122e-01 
1.230000000000e+02 -3.497353152811e+03 7.620489966203e-01 
1.235000000000e+02 -3.505888023031e+03 7.616357777332e-01 
1.240000000000e+02 -3.514385942688e+03 7.612314125363e-01 
1.245000000000e+02 -3.522845537610e+03 7.608288776829e-01 
1.250000000000e+02 -3.531273244814e+03 7.604278564283e-01 
1.255000000000e+02 -3.539673379488e+03 7.600281425377e-01 
1.260000000000e+02 -3.548048578290e+03 7.596296113333e-01 
1.265000000000e+02 -3.556400556658e+03 7.592321820952e-01 
1.270000000000e+02 -3.564730523575e+03 7.588357980786e-01 
1.275000000000e+02 -3.573039392750e+03 7.584404164514e-01 
1.280000000000e+02 -3.581327900303e+03 7.580460027231e-01 
1.285000000000e+02 -3.589596681561e+03 7.576525271281e-01 
1.290000000000e+02 -3.597846306826e+03 7.572599629370e-01 
1.295000000000e+02 -3.606077303621e+03 7.568682854112e-01 
1.300000000000e+02 -3.614290176016e+03 7.564774708976e-01 
1.305000000000e+02 -3.622485419540e+03 7.560874961303e-01 
1.310000000000e+02 -3.630663533379e+03 7.556983376596e-01 
1.315000000000e+02 -3.638825028792e+03 7.553099714569e-01 
1.320000000000e+02 -3.646970435615e+03 7.549223726090e-01 
1.325000000000e+02 -3.655100307794e+03 7.545355150596e-01 
1.330000000000e+02 -3.663215226117e+03 7.541493714804e-01 
1.335000000000e+02 -3.671315838946e+03 7.537639113721e-01 
1.340000000000e+02 -3.679402837763e+03 7.533791021921e-01 
1.345000000000e+02 -3.687476968017e+03 7.529949088534e-01 
1.350000000000e+02 -3.695539093467e+03 7.526112907237e-01 
1.355000000000e+02 -3.703590215074e+03 7.522282007259e-01 
1.360000000000e+02 -3.711631485903e+03 7.518455846318e-01 
1.365000000000e+02 -3.719664325191e+03 7.514633757375e-01 
1.370000000000e+02 -3.727690475013e+03 7.510814921886e-01 
1.375000000000e+02 -3.735712276496e+03 7.506998240814e-01 
1.380000000000e+02 -3.743733052188e+03 7.503182155587e-01 
1.385000000000e+02 -3.751757063678e+03 7.499407022633e-01 
1.390000000000e+02 -3.759764441758e+03 7.495816111146e-01 
1.395000000000e+02 -3.767743838855e+03 7.492242462715e-01 
1.400000000000e+02 -3.775692163775e+03 7.488682813278e-01 
1.405000000000e+02 -3.783612585349e+03 7.485135668185e-01 
1.410000000000e+02 -3.791508381476e+03 7.481599534483e-01 
1.415000000000e+02 -3.799381991239e+03 7.478073315666e-01 
1.420000000000e+02 -3.807235149910e+03 7.474556236984e-01 
1.425000000000e+02 -3.815069125942e+03 7.471047734335e-01 
1.430000000000e+02 -3.822884882146e+03 7.467547380488e-01 
1.435000000000e+02 -3.830683196605e+03 7.464054830693e-01 
1.440000000000e+02 -3.838464719980e+03 7.460569796854e-01 
1.445000000000e+02 -3.846230027031e+03 7.457092024602e-01 
1.450000000000e+02 -3.853979634972e+03 7.453621285029e-01 
1.455000000000e+02 -3.861714017628e+03 7.450157368384e-01 
1.460000000000e+02 -3.869433625457e+03 7.446700075240e-01 
1.465000000000e+02 -3.877138909540e+03 7.443249205915e-01 
1.470000000000e+02 -3.884830316292e+03 7.439804562713e-01 
1.475000000000e+02 -3.892508292380e+03 7.436365947756e-01 
1.480000000000e+02 -3.900173293740e+03 7.432933159027e-01 
1.485000000000e+02 -3.907825794830e+03 7.429505986282e-01 
1.490000000000e+02 -3.915466294296e+03 7.426084208541e-01 
1.495000000000e+02 -3.923095320395e+03 7.422667591680e-01 
1.500000000000e+02 -3.930713433949e+03 7.419255887112e-01 
1.505000000000e+02 -3.938321283755e+03 7.415848807481e-01 
1.510000000000e+02 -3.945919555029e+03 7.412446049094e-01 
1.515000000000e+02 -3.953508981958e+03 7.409047286506e-01 
1.520000000000e+02 -3.961090454531e+03 7.405652125684e-01 
1.525000000000e+02 -3.968665082719e+03 7.402260075565e-01 
1.530000000000e+02 -3.976234014953e+03 7.398870627314e-01 
1.535000000000e+02 -3.983798883308e+03 7.395483059560e-01 
1.540000000000e+02 -3.991361738559e+03 7.392096465778e-01 
1.545000000000e+02 -3.998925362999e+03 7.388713358784e-01 
1.550000000000e+02 -4.006483683567e+03 7.385444548517e-01 
1.555000000000e+02 -4.014021885849e+03 7.382219157001e-01 
1.560000000000e+02 -4.021539226715e+03 7.379002722039e-01 
1.565000000000e+02 -4.029033814622e+03 7.375796075084e-01 
1.570000000000e+02 -4.036505756995e+03 7.372599151562e-01 
1.575000000000e+02 -4.043956704564e+03 7.369411219493e-01 
1.580000000000e+02 -4.051388463726e+03 7.366231493648e-01 
1.585000000000e+02 -4.058802539830e+03 7.363059326455e-01 
1.590000000000e+02 -4.066200112403e+03 7.359894213508e-01 
1.595000000000e+02 -4.073582113119e+03 7.356735757833e-01 
1.600000000000e+02 -4.080949299168e+03 7.353583637541e-01 
1.605000000000e+02 -4.088302313850e+03 7.350437579591e-01 
1.610000000000e+02 -4.095641704498e+03 7.347297351810e-01 
1.615000000000e+02 -4.102967970906e+03 7.344162742388e-01 
1.620000000000e+02 -4.110281568191e+03 7.341033558473e-01 
1.625000000000e+02 -4.117582934149e+03 7.337909614633e-01 
1.630000000000e+02 -4.124872478337e+03 7.334790737331e-01 
1.635000000000e+02 -4.132150590009e+03 7.331676761597e-01 
1.640000000000e+02 -4.139417680040e+03 7.328567513458e-01 
1.645000000000e+02 -4.146674154764e+03 7.325462820770e-01 
1.650000000000e+02 -4.153920419831e+03 7.322362511628e-01 
1.655000000000e+02 -4.161156907701e+03 7.319266402856e-01 
1.660000000000e+02 -4.168384072597e+03 7.316174302049e-01 
1.665000000000e+02 -4.175602384638e+03 7.313086010007e-01 
1.670000000000e+02 -4.182812341847e+03 7.310001315723e-01 
1.675000000000e+02 -4.190013040259e+03 7.306920629986e-01 
1.680000000000e+02 -4.197194825732e+03 7.303848228160e-01 
1.685000000000e+02 -4.204320666986e+03 7.300800431811e-01 
1.690000000000e+02 -4.211294525426e+03 7.297819436132e-01 
1.695000000000e+02 -4.217920450857e+03 7.294991108226e-01 
1.700000000000e+02 -4.223858262437e+03 7.292464162034e-01 
1.705000000000e+02 -4.228582995803e+03 7.290467598241e-01 
1.710000000000e+02 -4.231352545601e+03 7.289324489864e-01 
1.715000000000e+02 -4.231187337566e+03 7.289460461230e-01 
1.720000000000e+02 -4.226868216137e+03 7.291404210518e-01 
1.725000000000e+02 -4.216954353784e+03 7.295779243985e-01 
1.730000000000e+02 -4.199827342155e+03 7.303284200262e-01 
1.735000000000e+02 -4.173762472178e+03 7.314661380120e-01 
1.740000000000e+02 -4.137029447390e+03 7.330652732221e-01 
1.745000000000e+02 -4.088013465563e+03 7.351947433127e-01 
1.750000000000e+02 -4.025337981521e+03 7.379129364129e-01 
1.755000000000e+02 -3.948165081770e+03 7.413664204356e-01 
1.760000000000e+02 -3.856690433853e+03 7.455037249891e-01 
1.765000000000e+02 -3.751144606735e+03 7.503071201830e-01 
1.770000000000e+02 -3.633048712862e+03 7.559421911304e-01 
1.775000000000e+02 -3.504342383054e+03 7.621339171927e-01 
1.780000000000e+02 -3.367458744241e+03 7.689754276083e-01 
1.785000000000e+02 -3.224926415453e+03 7.762171886001e-01 
1.790000000000e+02 -3.079930741304e+03 7.838769058296e-01 
1.795000000000e+02 -2.934577399001e+03 7.917836923678e-01 
1.800000000000e+02 -2.792273867437e+03 7.997504979683e-01 
1.805000000000e+02 -2.653933058937e+03 8.078134252714e-01 
1.810000000000e+02 -2.521073232174e+03 8.156974548700e-01 
1.815000000000e+02 -2.394069299693e+03 8.236151523426e-01 
1.820000000000e+02 -2.273832959187e+03 8.312131357830e-01 
1.825000000000e+02 -2.160174268458e+03 8.386579013479e-01 
1.830000000000e+02 -2.053901250562e+03 8.456928605569e-01 
1.835000000000e+02 -1.953804456006e+03 8.525021223580e-01 
1.840000000000e+02 -1.860188379745e+03 8.590748588419e-01 
1.845000000000e+02 -1.772762347307e+03 8.653212720829e-01 
1.850000000000e+02 -1.691387148860e+03 8.712517498010e-01 
1.855000000000e+02 -1.615637461076e+03 8.768397802212e-01 
1.860000000000e+02 -1.545006103257e+03 8.821551722372e-01 
1.865000000000e+02 -1.479115557440e+03 8.871653694554e-01 
1.870000000000e+02 -1.417732960347e+03 8.918749246825e-01 
1.875000000000e+02 -1.360464787892e+03 8.963471044374e-01 
1.880000000000e+02 -1.307149242451e+03 9.005457832295e-01 
1.885000000000e+02 -1.257356511790e+03 9.045027767478e-01 
1.890000000000e+02 -1.210836524403e+03 9.082115332186e-01 
1.895000000000e+02 -1.167259550690e+03 9.117143920465e-01 
1.900000000000e+02 -1.126538304243e+03 9.149994052400e-01 
1.905000000000e+02 -1.088297019327e+03 9.181119877325e-01 
1.910000000000e+02 -1.052520603015e+03 9.210679900933e-01 
1.915000000000e+02 -1.025784498471e+03 9.232713503423e-01 
1.920000000000e+02 -1.015226455785e+03 9.241265686672e-01 
1.925000000000e+02 -1.020201817146e+03 9.236911111870e-01 
1.930000000000e+02 -1.036292411364e+03 9.223351215678e-01 
1.935000000000e+02 -1.059275225654e+03 9.204103759257e-01 
1.940000000000e+02 -1.086104474338e+03 9.181698180276e-01 
1.945000000000e+02 -1.115034884786e+03 9.157852525311e-01 
1.950000000000e+02 -1.144719895519e+03 9.133709683593e-01 
1.955000000000e+02 -1.174602832092e+03 9.109424987835e-01 
1.960000000000e+02 -1.204360984175e+03 9.085295992360e-01 
1.965000000000e+02 -1.233709820260e+03 9.061752171103e-01 
1.970000000000e+02 -1.262418811402e+03 9.038732703553e-01 
1.975000000000e+02 -1.290479031431e+03 9.016241764395e-01 
1.980000000000e+02 -1.317999448773e+03 8.994359930856e-01 
1.985000000000e+02 -1.344825267862e+03 8.973131161310e-01 
1.990000000000e+02 -1.370999195281e+03 8.952423126777e-01 
1.995000000000e+02 -1.396694847415e+03 8.932097838011e-01 
2.000000000000e+02 -1.421911879774e+03 8.912576700078e-01 
2.005000000000e+02 -1.446409894494e+03 8.893689134683e-01 
2.010000000000e+02 -1.470329438844e+03 8.875249914927e-01 
2.015000000000e+02 -1.493802756265e+03 8.857157202474e-01 
2.020000000000e+02 -1.516867716804e+03 8.839542892398e-01 
2.025000000000e+02 -1.539315347397e+03 8.822464967277e-01 
2.030000000000e+02 -1.561264919456e+03 8.805767119953e-01 
2.035000000000e+02 -1.582806244448e+03 8.789381178447e-01 
2.040000000000e+02 -1.604023240701e+03 8.773316433849e-01 
2.045000000000e+02 -1.624801820426e+03 8.757926422613e-01 
2.050000000000e+02 -1.645144648448e+03 8.742860231123e-01 
2.055000000000e+02 -1.665125447277e+03 8.728062881821e-01 
2.060000000000e+02 -1.684798496497e+03 8.713494435271e-01 
2.065000000000e+02 -1.704221599527e+03 8.699151478482e-01 
2.070000000000e+02 -1.723291226989e+03 8.685220796759e-01 
2.075000000000e+02 -1.742032941356e+03 8.671530268747e-01 
2.080000000000e+02 -1.760497107863e+03 8.658043047128e-01 
2.085000000000e+02 -1.778723259671e+03 8.644730508716e-01 
2.090000000000e+02 -1.796759653664e+03 8.631557850448e-01 
2.095000000000e+02 -1.814567230265e+03 8.618838086347e-01 
2.100000000000e+02 -1.832062570009e+03 8.606409744835e-01 
2.105000000000e+02 -1.849311618784e+03 8.594156428588e-01 
2.110000000000e+02 -1.866349330884e+03 8.582053557244e-01 
2.115000000000e+02 -1.883206423278e+03 8.570079547162e-01 
2.120000000000e+02 -1.899928102036e+03 8.558205223400e-01 
2.125000000000e+02 -1.916494398770e+03 8.546598501190e-01 
2.130000000000e+02 -1.932894364809e+03 8.535113438495e-01 
2.135000000000e+02 -1.949148736116e+03 8.523730478199e-01 
2.140000000000e+02 -1.965267005955e+03 8.512443188164e-01 
2.145000000000e+02 -1.981258144215e+03 8.501245507903e-01 
2.150000000000e+02 -1.997139211500e+03 8.490125882507e-01 
2.155000000000e+02 -2.012822310967e+03 8.479599864068e-01 
2.160000000000e+02 -2.028243549762e+03 8.469356429128e-01 
2.165000000000e+02 -2.043451995780e+03 8.459254126240e-01 
2.170000000000e+02 -2.058469666491e+03 8.449278492416e-01 
2.175000000000e+02 -2.073310595751e+03 8.439420294590e-01 
2.180000000000e+02 -2.087985436507e+03 8.429672512904e-01 
2.185000000000e+02 -2.102503081087e+03 8.420029280709e-01 
2.190000000000e+02 -2.116871409320e+03 8.410485395645e-01 
2.195000000000e+02 -2.131097694434e+03 8.401036054255e-01 
2.200000000000e+02 -2.145188816448e+03 8.391676712601e-01 
2.205000000000e+02 -2.159151506398e+03 8.382402926862e-01 
2.210000000000e+02 -2.172992558499e+03 8.373210214993e-01 
2.215000000000e+02 -2.186719038515e+03 8.364093921061e-01 
2.220000000000e+02 -2.200338752035e+03 8.355048910796e-01 
2.225000000000e+02 -2.213860841970e+03 8.346069183490e-01 
2.230000000000e+02 -2.227297499152e+03 8.337146763475e-01 
2.235000000000e+02 -2.240668639642e+03 8.328268672207e-01 
2.240000000000e+02 -2.254004667712e+03 8.319539510233e-01 
2.245000000000e+02 -2.267196868851e+03 8.311201916211e-01 
2.250000000000e+02 -2.280278507580e+03 8.302933634448e-01 
2.255000000000e+02 -2.293262167138e+03 8.294727016616e-01 
2.260000000000e+02 -2.306154051635e+03 8.286578280544e-01 
2.265000000000e+02 -2.318958097311e+03 8.278485015568e-01 
2.270000000000e+02 -2.331677307511e+03 8.270445372580e-01 
2.275000000000e+02 -2.344314258609e+03 8.262457757778e-01 
2.280000000000e+02 -2.356871306409e+03 8.254520708361e-01 
2.285000000000e+02 -2.369350729251e+03 8.246632805860e-01 
2.290000000000e+02 -2.381754784902e+03 8.238792642050e-01 
2.295000000000e+02 -2.394085779296e+03 8.230998777141e-01 
2.300000000000e+02 -2.406346107250e+03 8.223249715084e-01 
2.305000000000e+02 -2.418538314579e+03 8.215543865579e-01 
2.310000000000e+02 -2.430665204833e+03 8.207879478281e-01 
2.315000000000e+02 -2.442729923907e+03 8.200254590917e-01 
2.320000000000e+02 -2.454736236585e+03 8.192666858560e-01 
2.325000000000e+02 -2.466688897057e+03 8.185113325443e-01 
2.330000000000e+02 -2.478594611688e+03 8.177589832559e-01 
2.335000000000e+02 -2.490464910793e+03 8.170089251932e-01 
2.340000000000e+02 -2.502324590620e+03 8.162685090147e-01 
2.345000000000e+02 -2.514088658971e+03 8.155721871759e-01 
2.350000000000e+02 -2.525779263623e+03 8.148801696761e-01 
2.355000000000e+02 -2.537404848215e+03 8.141919787994e-01 
2.360000000000e+02 -2.548969334698e+03 8.135073925199e-01 
2.365000000000e+02 -2.560475020016e+03 8.128262804897e-01 
2.370000000000e+02 -2.571923531493e+03 8.121485499403e-01 
2.375000000000e+02 -2.583316189325e+03 8.114741252048e-01 
2.380000000000e+02 -2.594654180437e+03 8.108029379005e-01 
2.385000000000e+02 -2.605938643501e+03 8.101349221393e-01 
2.390000000000e+02 -2.617170698386e+03 8.094700129058e-01 
2.395000000000e+02 -2.628351492517e+03 8.088081434274e-01 
2.400000000000e+02 -2.639482228406e+03 8.081492436094e-01 
2.405000000000e+02 -2.650564186870e+03 8.074932387140e-01 
2.410000000000e+02 -2.661598740972e+03 8.068400485716e-01 
2.415000000000e+02 -2.672587397752e+03 8.061895851800e-01 
2.420000000000e+02 -2.683531856401e+03 8.055417493431e-01 
2.425000000000e+02 -2.694434100670e+03 8.048964253265e-01 
2.430000000000e+02 -2.705296498975e+03 8.042534750614e-01 
2.435000000000e+02 -2.716122073400e+03 8.036127226162e-01 
2.440000000000e+02 -2.726914979740e+03 8.029739264732e-01 
2.445000000000e+02 -2.737681848539e+03 8.023367021175e-01 
2.450000000000e+02 -2.748437310595e+03 8.017002035597e-01 
2.455000000000e+02 -2.759150352565e+03 8.010950448704e-01 
2.460000000000e+02 -2.769793304384e+03 8.004991760393e-01 
2.465000000000e+02 -2.780382530008e+03 7.999062944568e-01 
2.470000000000e+02 -2.790923537507e+03 7.993161012615e-01 
2.475000000000e+02 -2.801419053534e+03 7.987284487391e-01 
2.480000000000e+02 -2.811870809407e+03 7.981432429696e-01 
2.485000000000e+02 -2.822280115306e+03 7.975604126613e-01 
2.490000000000e+02 -2.832648087817e+03 7.969798968390e-01 
2.495000000000e+02 -2.842975748436e+03 7.964016395363e-01 
2.500000000000e+02 -2.853264073072e+03 7.958255871380e-01 
2.505000000000e+02 -2.863514047205e+03 7.952516853910e-01 
2.510000000000e+02 -2.873726684537e+03 7.946798783976e-01 
2.515000000000e+02 -2.883903047824e+03 7.941101074884e-01 
2.520000000000e+02 -2.894044260026e+03 7.935423106211e-01 
2.525000000000e+02 -2.904151549191e+03 7.929764199226e-01 