 TITLE = "Time curves in points"
 VARIABLES = "TIME "  "PRESSURE1"  "SATURATION1" 
 ZONE T="POINT=POINT4"
0.000000000000e+00 -3.915350413701e+03 7.427535298940e-01 
5.000000000000e-01 -3.918496995076e+03 7.426123687168e-01 
1.000000000000e+00 -3.921706710567e+03 7.424684301277e-01 
1.500000000000e+00 -3.924966671833e+03 7.423222524499e-01 
2.000000000000e+00 -3.928269319658e+03 7.421741779070e-01 
2.500000000000e+00 -3.931596518831e+03 7.420250323572e-01 
3.000000000000e+00 -3.934916461007e+03 7.418762675033e-01 
3.500000000000e+00 -3.938174025681e+03 7.417304005885e-01 
4.000000000000e+00 -3.941278065942e+03 7.415915802503e-01 
4.500000000000e+00 -3.944093918245e+03 7.414659314792e-01 
5.000000000000e+00 -3.946433854637e+03 7.413619838385e-01 
5.500000000000e+00 -3.948047731525e+03 7.412910888563e-01 
6.000000000000e+00 -3.948616699794e+03 7.412677004748e-01 
6.500000000000e+00 -3.947746611574e+03 7.413096649874e-01 
7.000000000000e+00 -3.944965998980e+03 7.414383105214e-01 
7.500000000000e+00 -3.939726371311e+03 7.416784226616e-01 
8.000000000000e+00 -3.931403522789e+03 7.420581754261e-01 
8.500000000000e+00 -3.919311031851e+03 7.426085166601e-01 
9.000000000000e+00 -3.902709465951e+03 7.433627404605e-01 
9.500000000000e+00 -3.880824515554e+03 7.443556547436e-01 
1.000000000000e+01 -3.852877689941e+03 7.456221959241e-01 
1.050000000000e+01 -3.818109263909e+03 7.471963891382e-01 
1.100000000000e+01 -3.775815836005e+03 7.491119531886e-01 
1.150000000000e+01 -3.725427290543e+03 7.514721326953e-01 
1.200000000000e+01 -3.666806994173e+03 7.542811396004e-01 
1.250000000000e+01 -3.599806885554e+03 7.574915188672e-01 
1.300000000000e+01 -3.524377125653e+03 7.611139696895e-01 
1.350000000000e+01 -3.440889068222e+03 7.652534538901e-01 
1.400000000000e+01 -3.350380738050e+03 7.697966155920e-01 
1.450000000000e+01 -3.253360046468e+03 7.747049299261e-01 
1.500000000000e+01 -3.151173876148e+03 7.800792231481e-01 
1.550000000000e+01 -3.045246766829e+03 7.856818157220e-01 
1.600000000000e+01 -2.936507290990e+03 7.916489422278e-01 
1.650000000000e+01 -2.827273750951e+03 7.977655606359e-01 
1.700000000000e+01 -2.717967219400e+03 8.040106315546e-01 
1.750000000000e+01 -2.610160022512e+03 8.103813445445e-01 
1.800000000000e+01 -2.504151535968e+03 8.167054608146e-01 
1.850000000000e+01 -2.400877672291e+03 8.231703572426e-01 
1.900000000000e+01 -2.301147892005e+03 8.294610369080e-01 
1.950000000000e+01 -2.204711609377e+03 8.356989749322e-01 
2.000000000000e+01 -2.112875179226e+03 8.417787903091e-01 
2.050000000000e+01 -2.025165832893e+03 8.475983613774e-01 
2.100000000000e+01 -1.941346076563e+03 8.533643967208e-01 
2.150000000000e+01 -1.861851575755e+03 8.589516712028e-01 
2.200000000000e+01 -1.786574391612e+03 8.643163513121e-01 
2.250000000000e+01 -1.715559251661e+03 8.694810706071e-01 
2.300000000000e+01 -1.648612919666e+03 8.743992921128e-01 
2.350000000000e+01 -1.585508040591e+03 8.790906104674e-01 
2.400000000000e+01 -1.526061902397e+03 8.835886575089e-01 
2.450000000000e+01 -1.471316170822e+03 8.877614785145e-01 
2.500000000000e+01 -1.424199290742e+03 8.913702565295e-01 
2.550000000000e+01 -1.387014183588e+03 8.942450715236e-01 
2.600000000000e+01 -1.360590928900e+03 8.963081408480e-01 
2.650000000000e+01 -1.344052945654e+03 8.975934642672e-01 
2.700000000000e+01 -1.335789425174e+03 8.982268974155e-01 
2.750000000000e+01 -1.334105494739e+03 8.983425753012e-01 
2.800000000000e+01 -1.337461858454e+03 8.980621262735e-01 
2.850000000000e+01 -1.344625784327e+03 8.974827986900e-01 
2.900000000000e+01 -1.354640280058e+03 8.966800164199e-01 
2.950000000000e+01 -1.366786263047e+03 8.957103839525e-01 
3.000000000000e+01 -1.380539316686e+03 8.946151397938e-01 
3.050000000000e+01 -1.395502376942e+03 8.934270874628e-01 
3.100000000000e+01 -1.411366302379e+03 8.921848955231e-01 
3.150000000000e+01 -1.427855707074e+03 8.909088216934e-01 
3.200000000000e+01 -1.444799536349e+03 8.895985248762e-01 
3.250000000000e+01 -1.462062451689e+03 8.882643555948e-01 
3.300000000000e+01 -1.479559435708e+03 8.869127886877e-01 
3.350000000000e+01 -1.497238632154e+03 8.855485635062e-01 
3.400000000000e+01 -1.515025562948e+03 8.841883734471e-01 
3.450000000000e+01 -1.532822679166e+03 8.828322890725e-01 
3.500000000000e+01 -1.550609774691e+03 8.814773671762e-01 
3.550000000000e+01 -1.568379295952e+03 8.801241512584e-01 
3.600000000000e+01 -1.586124200404e+03 8.787731671328e-01 
3.650000000000e+01 -1.603837020828e+03 8.774327572249e-01 
3.700000000000e+01 -1.621467249751e+03 8.761230950755e-01 
3.750000000000e+01 -1.638998340928e+03 8.748238458735e-01 
3.800000000000e+01 -1.656442161554e+03 8.735313077505e-01 
3.850000000000e+01 -1.673803273284e+03 8.722451430177e-01 
3.900000000000e+01 -1.691094877530e+03 8.709643692802e-01 
3.950000000000e+01 -1.708329564657e+03 8.696951249822e-01 
4.000000000000e+01 -1.725471146057e+03 8.684425961441e-01 
4.050000000000e+01 -1.742525983037e+03 8.671965891764e-01 
4.100000000000e+01 -1.759506458674e+03 8.659562021204e-01 
4.150000000000e+01 -1.776427140935e+03 8.647203715407e-01 
4.200000000000e+01 -1.793308184835e+03 8.634876865355e-01 
4.250000000000e+01 -1.810157202823e+03 8.622751339763e-01 
4.300000000000e+01 -1.826915372426e+03 8.610846326822e-01 
4.350000000000e+01 -1.843586851210e+03 8.599004225605e-01 
4.400000000000e+01 -1.860179491921e+03 8.587219502346e-01 
4.450000000000e+01 -1.876706693407e+03 8.575482634184e-01 
4.500000000000e+01 -1.893184890178e+03 8.563781940995e-01 
4.550000000000e+01 -1.909622475264e+03 8.552195329521e-01 
4.600000000000e+01 -1.925984163982e+03 8.540739864213e-01 
4.650000000000e+01 -1.942271421384e+03 8.529337489237e-01 
4.700000000000e+01 -1.958490048731e+03 8.517984196763e-01 
4.750000000000e+01 -1.974648397315e+03 8.506674109239e-01 
4.800000000000e+01 -1.990762546114e+03 8.495395963743e-01 
4.850000000000e+01 -2.006839430409e+03 8.484345636332e-01 
4.900000000000e+01 -2.022810396424e+03 8.473738229532e-01 
4.950000000000e+01 -2.038665908765e+03 8.463208108755e-01 
5.000000000000e+01 -2.054411426011e+03 8.452751622025e-01 
5.050000000000e+01 -2.070053683827e+03 8.442364284417e-01 
5.100000000000e+01 -2.085600318725e+03 8.432041011665e-01 
5.150000000000e+01 -2.101058792688e+03 8.421776848825e-01 
5.200000000000e+01 -2.116435424672e+03 8.411567619076e-01 
5.250000000000e+01 -2.131734779879e+03 8.401410327731e-01 
5.300000000000e+01 -2.146959011127e+03 8.391303627089e-01 
5.350000000000e+01 -2.162108773378e+03 8.381247142386e-01 
5.400000000000e+01 -2.177189268589e+03 8.371237422329e-01 
5.450000000000e+01 -2.192209936688e+03 8.361268183492e-01 
5.500000000000e+01 -2.207183902736e+03 8.351330720033e-01 
5.550000000000e+01 -2.222124476829e+03 8.341416206010e-01 
5.600000000000e+01 -2.237048081364e+03 8.331513795854e-01 
5.650000000000e+01 -2.251969901922e+03 8.321697206480e-01 
5.700000000000e+01 -2.266828147072e+03 8.312248566561e-01 
5.750000000000e+01 -2.281584399484e+03 8.302923922607e-01 
5.800000000000e+01 -2.296243000732e+03 8.293661291335e-01 
5.850000000000e+01 -2.310808955668e+03 8.284457513544e-01 
5.900000000000e+01 -2.325287118714e+03 8.275309531020e-01 
5.950000000000e+01 -2.339681704521e+03 8.266214695379e-01 
6.000000000000e+01 -2.353997061472e+03 8.257170273212e-01 
6.050000000000e+01 -2.368237410957e+03 8.248173614929e-01 
6.100000000000e+01 -2.382406408215e+03 8.239222430741e-01 
6.150000000000e+01 -2.396507495001e+03 8.230314571497e-01 
6.200000000000e+01 -2.410542872937e+03 8.221448684329e-01 
6.250000000000e+01 -2.424514614400e+03 8.212623508906e-01 
6.300000000000e+01 -2.438426728673e+03 8.203836514727e-01 
6.350000000000e+01 -2.452286831667e+03 8.195082883010e-01 
6.400000000000e+01 -2.466103917581e+03 8.186356920601e-01 
6.450000000000e+01 -2.479888305421e+03 8.177652115059e-01 
6.500000000000e+01 -2.493651512300e+03 8.168967284081e-01 
6.550000000000e+01 -2.507392544363e+03 8.160524329220e-01 
6.600000000000e+01 -2.521055002342e+03 8.152437450750e-01 
6.650000000000e+01 -2.534635978690e+03 8.144400058902e-01 
6.700000000000e+01 -2.548138991678e+03 8.136408984266e-01 
6.750000000000e+01 -2.561568947680e+03 8.128461311762e-01 
6.800000000000e+01 -2.574928852902e+03 8.120555287796e-01 
6.850000000000e+01 -2.588222970645e+03 8.112688395985e-01 
6.900000000000e+01 -2.601454697927e+03 8.104858636690e-01 
6.950000000000e+01 -2.614627296954e+03 8.097064091305e-01 
7.000000000000e+01 -2.627744157223e+03 8.089302767611e-01 
7.050000000000e+01 -2.640808387827e+03 8.081572840359e-01 
7.100000000000e+01 -2.653823154181e+03 8.073872453595e-01 
7.150000000000e+01 -2.666791456973e+03 8.066199850231e-01 
7.200000000000e+01 -2.679716031051e+03 8.058553435107e-01 
7.250000000000e+01 -2.692598774653e+03 8.050932117938e-01 
7.300000000000e+01 -2.705441998501e+03 8.043334551508e-01 
7.350000000000e+01 -2.718249343770e+03 8.035758587264e-01 
7.400000000000e+01 -2.731026090043e+03 8.028201105161e-01 
7.450000000000e+01 -2.743779418849e+03 8.020665769863e-01 
7.500000000000e+01 -2.756506912210e+03 8.013309193234e-01 
7.550000000000e+01 -2.769173654174e+03 8.006198349599e-01 
7.600000000000e+01 -2.781776068528e+03 7.999144135269e-01 
7.650000000000e+01 -2.794317491321e+03 7.992124207942e-01 
7.700000000000e+01 -2.806802122963e+03 7.985136210834e-01 
7.750000000000e+01 -2.819232653654e+03 7.978178657396e-01 
7.800000000000e+01 -2.831612882359e+03 7.971249421982e-01 
7.850000000000e+01 -2.843945484426e+03 7.964347017816e-01 
7.900000000000e+01 -2.856233331829e+03 7.957469836720e-01 
7.950000000000e+01 -2.868480056462e+03 7.950615867794e-01 
8.000000000000e+01 -2.880688300599e+03 7.943783635717e-01 
8.050000000000e+01 -2.892861214129e+03 7.936971391284e-01 
8.100000000000e+01 -2.905001816523e+03 7.930177455839e-01 
8.150000000000e+01 -2.917112797563e+03 7.923400333516e-01 
8.200000000000e+01 -2.929196949435e+03 7.916638474077e-01 
8.250000000000e+01 -2.941257325318e+03 7.909890185209e-01 
8.300000000000e+01 -2.953297406022e+03 7.903153541177e-01 
8.350000000000e+01 -2.965320113291e+03 7.896426927088e-01 
8.400000000000e+01 -2.977327975421e+03 7.889708948683e-01 
8.450000000000e+01 -2.989324101033e+03 7.882997885968e-01 
8.500000000000e+01 -3.001312355886e+03 7.876379108662e-01 
8.550000000000e+01 -3.013262083388e+03 7.869974619558e-01 
8.600000000000e+01 -3.025153303391e+03 7.863698773604e-01 
8.650000000000e+01 -3.036988046792e+03 7.857452855638e-01 
8.700000000000e+01 -3.048769310488e+03 7.851235272972e-01 
8.750000000000e+01 -3.060499300958e+03 7.845044859234e-01 
8.800000000000e+01 -3.072180587251e+03 7.838880265538e-01 
8.850000000000e+01 -3.083815081700e+03 7.832740490296e-01 
8.900000000000e+01 -3.095405158678e+03 7.826624275487e-01 
8.950000000000e+01 -3.106953169882e+03 7.820530383036e-01 
9.000000000000e+01 -3.118461207581e+03 7.814457716430e-01 
9.050000000000e+01 -3.129931766665e+03 7.808404968162e-01 
9.100000000000e+01 -3.141366333642e+03 7.802371348645e-01 
9.150000000000e+01 -3.152767648043e+03 7.796355428189e-01 
9.200000000000e+01 -3.164137375148e+03 7.790356329764e-01 
9.250000000000e+01 -3.175478081686e+03 7.784372710031e-01 
9.300000000000e+01 -3.186791105183e+03 7.778403862207e-01 
9.350000000000e+01 -3.198078966551e+03 7.772448470650e-01 
9.400000000000e+01 -3.209343919678e+03 7.766505355347e-01 
9.450000000000e+01 -3.220587744886e+03 7.760573582145e-01 
9.500000000000e+01 -3.231813307998e+03 7.754651657583e-01 
9.550000000000e+01 -3.243021898884e+03 7.748748883418e-01 
9.600000000000e+01 -3.254212353195e+03 7.742962978133e-01 
9.650000000000e+01 -3.265361470469e+03 7.737330065708e-01 
9.700000000000e+01 -3.276461291128e+03 7.731782674293e-01 
9.750000000000e+01 -3.287513107933e+03 7.726259378782e-01 
9.800000000000e+01 -3.298518139607e+03 7.720759571349e-01 
9.850000000000e+01 -3.309477518087e+03 7.715282682388e-01 
9.900000000000e+01 -3.320392952505e+03 7.709827856813e-01 
9.950000000000e+01 -3.331265843245e+03 7.704394389055e-01 
1.000000000000e+02 -3.342098410125e+03 7.698981173193e-01 
1.005000000000e+02 -3.352892641201e+03 7.693587215589e-01 
1.010000000000e+02 -3.363649867189e+03 7.688211848720e-01 
1.015000000000e+02 -3.374372097722e+03 7.682854071101e-01 
1.020000000000e+02 -3.385061446595e+03 7.677512829123e-01 
1.025000000000e+02 -3.395719362856e+03 7.672187397848e-01 
1.030000000000e+02 -3.406347767267e+03 7.666876824336e-01 
1.035000000000e+02 -3.416948356875e+03 7.661580263672e-01 
1.040000000000e+02 -3.427522790463e+03 7.656296888410e-01 
1.045000000000e+02 -3.438072847845e+03 7.651025815320e-01 
1.050000000000e+02 -3.448600678646e+03 7.645765978719e-01 
1.055000000000e+02 -3.459107026182e+03 7.640517001474e-01 
1.060000000000e+02 -3.469594533305e+03 7.635277579662e-01 
1.065000000000e+02 -3.480065108126e+03 7.630046765359e-01 
1.070000000000e+02 -3.490519436040e+03 7.624828320123e-01 
1.075000000000e+02 -3.500959912914e+03 7.619678467703e-01 
1.080000000000e+02 -3.511373761676e+03 7.614629722730e-01 
1.085000000000e+02 -3.521750635778e+03 7.609692722019e-01 
1.090000000000e+02 -3.532092578227e+03 7.604772399883e-01 
1.095000000000e+02 -3.542400076396e+03 7.599868535303e-01 
1.100000000000e+02 -3.552672823945e+03 7.594981295743e-01 
1.105000000000e+02 -3.562911959046e+03 7.590110122932e-01 
1.110000000000e+02 -3.573117948549e+03 7.585254807934e-01 
1.115000000000e+02 -3.583291301574e+03 7.580415105090e-01 
1.120000000000e+02 -3.593433290877e+03 7.575590408542e-01 
1.125000000000e+02 -3.603544581631e+03 7.570780399176e-01 
1.130000000000e+02 -3.613626720295e+03 7.565984347041e-01 
1.135000000000e+02 -3.623680476624e+03 7.561201881396e-01 
1.140000000000e+02 -3.633707364855e+03 7.556432285871e-01 
1.145000000000e+02 -3.643708843951e+03 7.551674868512e-01 
1.150000000000e+02 -3.653685688529e+03 7.546929256115e-01 
1.155000000000e+02 -3.663639660231e+03 7.542194617705e-01 
1.160000000000e+02 -3.673571370211e+03 7.537470656671e-01 
1.165000000000e+02 -3.683482945007e+03 7.532756373022e-01 
1.170000000000e+02 -3.693375702577e+03 7.528051140409e-01 
1.175000000000e+02 -3.703250499116e+03 7.523354549780e-01 
1.180000000000e+02 -3.713109116753e+03 7.518665762020e-01 
1.185000000000e+02 -3.722951769202e+03 7.513984667400e-01 
1.190000000000e+02 -3.732781417023e+03 7.509309879491e-01 
1.195000000000e+02 -3.742599114839e+03 7.504654829601e-01 
1.200000000000e+02 -3.752404637582e+03 7.500084713014e-01 
1.205000000000e+02 -3.762186183185e+03 7.495603747856e-01 
1.210000000000e+02 -3.771938023753e+03 7.491237112789e-01 
1.215000000000e+02 -3.781662688443e+03 7.486882675016e-01 
1.220000000000e+02 -3.791359288387e+03 7.482540876201e-01 
1.225000000000e+02 -3.801028578088e+03 7.478211361430e-01 
1.230000000000e+02 -3.810672209041e+03 7.473893387388e-01 
1.235000000000e+02 -3.820290129557e+03 7.469586989039e-01 
1.240000000000e+02 -3.829883343500e+03 7.465291715942e-01 
1.245000000000e+02 -3.839451780911e+03 7.461007607101e-01 
1.250000000000e+02 -3.848996820530e+03 7.456734038505e-01 
1.255000000000e+02 -3.858518491680e+03 7.452471004857e-01 
1.260000000000e+02 -3.868017697891e+03 7.448218103328e-01 
1.265000000000e+02 -3.877494620006e+03 7.443975252261e-01 
1.270000000000e+02 -3.886950579253e+03 7.439741864435e-01 
1.275000000000e+02 -3.896385953617e+03 7.435517764273e-01 
1.280000000000e+02 -3.905802066528e+03 7.431302366055e-01 
1.285000000000e+02 -3.915199235618e+03 7.427095524049e-01 
1.290000000000e+02 -3.924578983201e+03 7.422896562917e-01 
1.295000000000e+02 -3.933941640192e+03 7.418705328169e-01 
1.300000000000e+02 -3.943288892445e+03 7.414521074367e-01 
1.305000000000e+02 -3.952620753264e+03 7.410343786677e-01 
1.310000000000e+02 -3.961939427911e+03 7.406172493095e-01 
1.315000000000e+02 -3.971244841789e+03 7.402007216376e-01 
1.320000000000e+02 -3.980538859379e+03 7.397847133794e-01 
1.325000000000e+02 -3.989822692998e+03 7.393697550464e-01 
1.330000000000e+02 -3.999096120722e+03 7.389587852028e-01 
1.335000000000e+02 -4.008354387682e+03 7.385548368491e-01 
1.340000000000e+02 -4.017590075709e+03 7.381565944369e-01 
1.345000000000e+02 -4.026802539590e+03 7.377625103396e-01 
1.350000000000e+02 -4.035992519785e+03 7.373693923325e-01 
1.355000000000e+02 -4.045161040378e+03 7.369771965969e-01 
1.360000000000e+02 -4.054307890057e+03 7.365859331510e-01 
1.365000000000e+02 -4.063434708776e+03 7.361955305184e-01 
1.370000000000e+02 -4.072541714020e+03 7.358059812925e-01 
1.375000000000e+02 -4.081628708391e+03 7.354172936842e-01 
1.380000000000e+02 -4.090697330553e+03 7.350293965979e-01 
1.385000000000e+02 -4.099747427735e+03 7.346422973420e-01 
1.390000000000e+02 -4.108779588264e+03 7.342559715105e-01 
1.395000000000e+02 -4.117794336360e+03 7.338703956343e-01 
1.400000000000e+02 -4.126792412690e+03 7.334855390773e-01 
1.405000000000e+02 -4.135773736268e+03 7.331014054914e-01 
1.410000000000e+02 -4.144739330939e+03 7.327179509026e-01 
1.415000000000e+02 -4.153689686702e+03 7.323351551380e-01 
1.420000000000e+02 -4.162624775008e+03 7.319530188629e-01 
1.425000000000e+02 -4.171545824532e+03 7.315714904286e-01 
1.430000000000e+02 -4.180452582203e+03 7.311905796020e-01 
1.435000000000e+02 -4.189346707474e+03 7.308102168899e-01 
1.440000000000e+02 -4.198227671223e+03 7.304304235754e-01 
1.445000000000e+02 -4.207097288818e+03 7.300511234861e-01 
1.450000000000e+02 -4.215955222376e+03 7.296723299032e-01 
1.455000000000e+02 -4.224803559264e+03 7.292939550225e-01 
1.460000000000e+02 -4.233641505937e+03 7.289160312164e-01 
1.465000000000e+02 -4.242471629420e+03 7.285400961572e-01 
1.470000000000e+02 -4.251292786326e+03 7.281700218579e-01 
1.475000000000e+02 -4.260098015465e+03 7.278058142858e-01 
1.480000000000e+02 -4.268883356833e+03 7.274480302855e-01 
1.485000000000e+02 -4.277647974299e+03 7.270941260755e-01 
1.490000000000e+02 -4.286393848148e+03 7.267409813818e-01 
1.495000000000e+02 -4.295120153539e+03 7.263886314611e-01 
1.500000000000e+02 -4.303827929580e+03 7.260370330808e-01 
1.505000000000e+02 -4.312517734718e+03 7.256861640756e-01 
1.510000000000e+02 -4.321189348140e+03 7.253360343737e-01 
1.515000000000e+02 -4.329844360095e+03 7.249865782888e-01 
1.520000000000e+02 -4.338482241002e+03 7.246378184795e-01 
1.525000000000e+02 -4.347104139943e+03 7.242897076576e-01 
1.530000000000e+02 -4.355710159197e+03 7.239422427302e-01 
1.535000000000e+02 -4.364300862225e+03 7.235954003691e-01 
1.540000000000e+02 -4.372876908425e+03 7.232491547027e-01 
1.545000000000e+02 -4.381438003045e+03 7.229035173016e-01 
1.550000000000e+02 -4.389985294993e+03 7.225584417298e-01 
1.555000000000e+02 -4.398518844984e+03 7.222139257884e-01 
1.560000000000e+02 -4.407039180787e+03 7.218699483841e-01 
1.565000000000e+02 -4.415547300213e+03 7.215264697805e-01 
1.570000000000e+02 -4.424042686224e+03 7.211835101724e-01 
1.575000000000e+02 -4.432526476473e+03 7.208410243745e-01 
1.580000000000e+02 -4.440998151326e+03 7.204990327490e-01 
1.585000000000e+02 -4.449459047038e+03 7.201574825404e-01 
1.590000000000e+02 -4.457908922966e+03 7.198163827441e-01 
1.595000000000e+02 -4.466348365362e+03 7.194757100281e-01 
1.600000000000e+02 -4.474779001700e+03 7.191353998392e-01 
1.605000000000e+02 -4.483199365777e+03 7.187955095010e-01 
1.610000000000e+02 -4.491611673223e+03 7.184570653130e-01 
1.615000000000e+02 -4.500014801668e+03 7.181219116583e-01 
1.620000000000e+02 -4.508404969973e+03 7.177908320227e-01 
1.625000000000e+02 -4.516778338426e+03 7.174625267244e-01 
1.630000000000e+02 -4.525133723568e+03 7.171385131600e-01 
1.635000000000e+02 -4.533472924050e+03 7.168151287750e-01 
1.640000000000e+02 -4.541794968670e+03 7.164924145831e-01 
1.645000000000e+02 -4.550101472778e+03 7.161703050373e-01 
1.650000000000e+02 -4.558391612673e+03 7.158488346327e-01 
1.655000000000e+02 -4.566666956806e+03 7.155279404820e-01 
1.660000000000e+02 -4.574926752754e+03 7.152076535566e-01 
1.665000000000e+02 -4.583172269958e+03 7.148879230736e-01 
1.670000000000e+02 -4.591403454638e+03 7.145687528698e-01 
1.675000000000e+02 -4.599620790804e+03 7.142501224623e-01 
1.680000000000e+02 -4.607824362674e+03 7.139320300366e-01 
1.685000000000e+02 -4.616015295871e+03 7.136144315610e-01 
1.690000000000e+02 -4.624192673391e+03 7.132973632352e-01 
1.695000000000e+02 -4.632356320533e+03 7.129808326764e-01 
1.700000000000e+02 -4.640503998927e+03 7.126649300980e-01 
1.705000000000e+02 -4.648630670048e+03 7.123498555889e-01 
1.710000000000e+02 -4.656726700883e+03 7.120359929793e-01 
1.715000000000e+02 -4.664773937185e+03 7.117240607929e-01 
1.720000000000e+02 -4.672744326529e+03 7.114151715607e-01 
1.725000000000e+02 -4.680594797483e+03 7.111110302154e-01 
1.730000000000e+02 -4.688259608679e+03 7.108142318486e-01 
1.735000000000e+02 -4.695649532451e+03 7.105282996689e-01 
1.740000000000e+02 -4.702642707293e+03 7.102580394147e-01 
1.745000000000e+02 -4.709077717712e+03 7.100098096934e-01 
1.750000000000e+02 -4.714748257441e+03 7.097917322128e-01 
1.755000000000e+02 -4.719395369461e+03 7.096139938734e-01 
1.760000000000e+02 -4.722697271635e+03 7.094892400896e-01 
1.765000000000e+02 -4.724266352875e+03 7.094326947862e-01 
1.770000000000e+02 -4.723640632697e+03 7.094624870806e-01 
1.775000000000e+02 -4.720278442413e+03 7.095998537610e-01 
1.780000000000e+02 -4.713556348450e+03 7.098692145118e-01 
1.785000000000e+02 -4.702767537383e+03 7.102982203338e-01 
1.790000000000e+02 -4.687134424747e+03 7.109172594499e-01 
1.795000000000e+02 -4.665810056865e+03 7.117593743430e-01 
1.800000000000e+02 -4.637906984161e+03 7.128591297776e-01 
1.805000000000e+02 -4.602507995216e+03 7.142521806076e-01 
1.810000000000e+02 -4.558711357405e+03 7.159734968095e-01 
1.815000000000e+02 -4.505669469034e+03 7.180727383519e-01 
1.820000000000e+02 -4.442779926222e+03 7.206223956394e-01 
1.825000000000e+02 -4.369744907063e+03 7.235996893882e-01 
1.830000000000e+02 -4.286243190017e+03 7.270061456276e-01 
1.835000000000e+02 -4.192311741493e+03 7.309790565552e-01 
1.840000000000e+02 -4.088864990791e+03 7.354317724918e-01 
1.845000000000e+02 -3.976373474961e+03 7.403396333094e-01 
1.850000000000e+02 -3.856319201048e+03 7.457308619575e-01 
1.855000000000e+02 -3.729775017276e+03 7.515095556353e-01 
1.860000000000e+02 -3.598622368489e+03 7.577521099808e-01 
1.865000000000e+02 -3.464151322702e+03 7.642723081654e-01 
1.870000000000e+02 -3.328345591541e+03 7.710588802959e-01 
1.875000000000e+02 -3.192208897721e+03 7.780471131574e-01 
1.880000000000e+02 -3.057850975097e+03 7.851349183730e-01 
1.885000000000e+02 -2.925915108595e+03 7.923470380779e-01 
1.890000000000e+02 -2.798487356613e+03 7.994703101642e-01 
1.895000000000e+02 -2.675434677515e+03 8.066013254644e-01 
1.900000000000e+02 -2.557755025049e+03 8.135498185485e-01 
1.905000000000e+02 -2.444913076638e+03 8.204547858696e-01 
1.910000000000e+02 -2.337961652607e+03 8.271919430146e-01 
1.915000000000e+02 -2.236841574009e+03 8.336304455972e-01 
1.920000000000e+02 -2.144454959569e+03 8.397240707459e-01 
1.925000000000e+02 -2.063382772477e+03 8.450799538210e-01 
1.930000000000e+02 -1.994903427396e+03 8.496549130913e-01 
1.935000000000e+02 -1.939563261476e+03 8.534777887090e-01 
1.940000000000e+02 -1.896511012094e+03 8.564737626605e-01 
1.945000000000e+02 -1.864137385017e+03 8.587384052489e-01 
1.950000000000e+02 -1.840658452048e+03 8.603801123129e-01 
1.955000000000e+02 -1.824405845997e+03 8.615114917285e-01 
1.960000000000e+02 -1.813959978950e+03 8.622390823175e-01 
1.965000000000e+02 -1.808175481989e+03 8.626351871037e-01 
1.970000000000e+02 -1.806121011365e+03 8.627658277375e-01 
1.975000000000e+02 -1.807049852607e+03 8.626842733142e-01 
1.980000000000e+02 -1.810375804742e+03 8.624323359622e-01 
1.985000000000e+02 -1.815637529448e+03 8.620428991624e-01 
1.990000000000e+02 -1.822464710405e+03 8.615465766466e-01 
1.995000000000e+02 -1.830565226663e+03 8.609621136554e-01 
2.000000000000e+02 -1.839709776391e+03 8.603044115290e-01 
2.005000000000e+02 -1.849703290975e+03 8.595872251060e-01 
2.010000000000e+02 -1.860390707779e+03 8.588214795703e-01 
2.015000000000e+02 -1.871651168482e+03 8.580156824590e-01 
2.020000000000e+02 -1.883385003439e+03 8.571768481181e-01 
2.025000000000e+02 -1.895513143813e+03 8.563116888316e-01 
2.030000000000e+02 -1.907961690168e+03 8.554296927524e-01 
2.035000000000e+02 -1.920662101763e+03 8.545342128990e-01 
2.040000000000e+02 -1.933565538759e+03 8.536266983839e-01 
2.045000000000e+02 -1.946637378843e+03 8.527077463172e-01 
2.050000000000e+02 -1.959849533957e+03 8.517792961001e-01 
2.055000000000e+02 -1.973176246638e+03 8.508431246969e-01 
2.060000000000e+02 -1.986603332069e+03 8.499002059849e-01 
2.065000000000e+02 -2.000118835892e+03 8.489607964531e-01 
2.070000000000e+02 -2.013680662050e+03 8.480411197369e-01 
2.075000000000e+02 -2.027247398778e+03 8.471374392825e-01 
2.080000000000e+02 -2.040810609286e+03 8.462341873821e-01 
2.085000000000e+02 -2.054362157641e+03 8.453318912501e-01 
2.090000000000e+02 -2.067898511093e+03 8.444307756785e-01 
2.095000000000e+02 -2.081413693497e+03 8.435312303020e-01 
2.100000000000e+02 -2.094904166642e+03 8.426334857406e-01 
2.105000000000e+02 -2.108368449549e+03 8.417376318083e-01 
2.110000000000e+02 -2.121806012389e+03 8.408436944373e-01 
2.115000000000e+02 -2.135221691798e+03 8.399513486886e-01 
2.120000000000e+02 -2.148618470020e+03 8.390603891876e-01 
2.125000000000e+02 -2.162001201894e+03 8.381704919558e-01 
2.130000000000e+02 -2.175373358817e+03 8.372814218436e-01 
2.135000000000e+02 -2.188740853081e+03 8.363927840610e-01 
2.140000000000e+02 -2.202110299049e+03 8.355041382605e-01 
2.145000000000e+02 -2.215488818238e+03 8.346150125822e-01 
2.150000000000e+02 -2.228882096200e+03 8.337250314144e-01 
2.155000000000e+02 -2.242293960408e+03 8.328345720864e-01 
2.160000000000e+02 -2.255718387462e+03 8.319592816352e-01 
2.165000000000e+02 -2.269096547596e+03 8.311087858761e-01 
2.170000000000e+02 -2.282413531088e+03 8.302662229952e-01 
2.175000000000e+02 -2.295673236072e+03 8.294273594978e-01 
2.180000000000e+02 -2.308879700258e+03 8.285919361433e-01 
2.185000000000e+02 -2.322036613795e+03 8.277597165700e-01 
2.190000000000e+02 -2.335148261482e+03 8.269304276332e-01 
2.195000000000e+02 -2.348218556716e+03 8.261038202663e-01 
2.200000000000e+02 -2.361252493601e+03 8.252795772900e-01 
2.205000000000e+02 -2.374253421732e+03 8.244574860645e-01 
2.210000000000e+02 -2.387224479484e+03 8.236373472958e-01 
2.215000000000e+02 -2.400170055762e+03 8.228188842980e-01 
2.220000000000e+02 -2.413093433585e+03 8.220018896211e-01 
2.225000000000e+02 -2.425997877761e+03 8.211861572728e-01 
2.230000000000e+02 -2.438886543141e+03 8.203714888823e-01 
2.235000000000e+02 -2.451762579875e+03 8.195576870946e-01 
2.240000000000e+02 -2.464628388083e+03 8.187446032704e-01 
2.245000000000e+02 -2.477485776028e+03 8.179321259437e-01 
2.250000000000e+02 -2.490338072279e+03 8.171200458434e-01 
2.255000000000e+02 -2.503189583502e+03 8.163227216921e-01 
2.260000000000e+02 -2.515997344164e+03 8.155560683301e-01 
2.265000000000e+02 -2.528747560514e+03 8.148010568337e-01 
2.270000000000e+02 -2.541442265941e+03 8.140493680525e-01 
2.275000000000e+02 -2.554086040386e+03 8.133007277506e-01 
2.280000000000e+02 -2.566682922410e+03 8.125548955617e-01 
2.285000000000e+02 -2.579236060744e+03 8.118116863705e-01 
2.290000000000e+02 -2.591748688698e+03 8.110709068461e-01 
2.295000000000e+02 -2.604224010058e+03 8.103323684250e-01 
2.300000000000e+02 -2.616664901545e+03 8.095959005914e-01 
2.305000000000e+02 -2.629074339682e+03 8.088613278512e-01 
2.310000000000e+02 -2.641454862568e+03 8.081285005008e-01 
2.315000000000e+02 -2.653808938845e+03 8.073972729146e-01 
2.320000000000e+02 -2.666139044307e+03 8.066674995533e-01 
2.325000000000e+02 -2.678447864204e+03 8.059390227732e-01 
2.330000000000e+02 -2.690738222631e+03 8.052116770700e-01 
2.335000000000e+02 -2.703012031292e+03 8.044853502818e-01 
2.340000000000e+02 -2.715271315067e+03 8.037599248461e-01 
2.345000000000e+02 -2.727517821179e+03 8.030353000935e-01 
2.350000000000e+02 -2.739753789822e+03 8.023113451275e-01 
2.355000000000e+02 -2.751982728576e+03 8.015974486944e-01 
2.360000000000e+02 -2.764175224913e+03 8.009063389112e-01 
2.365000000000e+02 -2.776317282704e+03 8.002264883192e-01 
2.370000000000e+02 -2.788412119511e+03 7.995493031600e-01 
2.375000000000e+02 -2.800462179271e+03 7.988746460099e-01 
2.380000000000e+02 -2.812469989783e+03 7.982023761938e-01 
2.385000000000e+02 -2.824438635718e+03 7.975323200409e-01 
2.390000000000e+02 -2.836371331010e+03 7.968642975841e-01 
2.395000000000e+02 -2.848269954405e+03 7.961982043501e-01 
2.400000000000e+02 -2.860137669616e+03 7.955338637954e-01 
2.405000000000e+02 -2.871977105448e+03 7.948711294376e-01 
2.410000000000e+02 -2.883790782922e+03 7.942098605023e-01 
2.415000000000e+02 -2.895580541249e+03 7.935499541989e-01 
2.420000000000e+02 -2.907350072159e+03 7.928912062336e-01 
2.425000000000e+02 -2.919101190483e+03 7.922335149652e-01 
2.430000000000e+02 -2.930837138956e+03 7.915767007299e-01 
2.435000000000e+02 -2.942560373166e+03 7.909206269254e-01 
2.440000000000e+02 -2.954273075297e+03 7.902651722311e-01 
2.445000000000e+02 -2.965977972882e+03 7.896101856632e-01 
2.450000000000e+02 -2.977677905999e+03 7.889555102051e-01 
2.455000000000e+02 -2.989376442885e+03 7.883009494453e-01 
2.460000000000e+02 -3.001075645987e+03 7.876550020693e-01 
2.465000000000e+02 -3.012746179730e+03 7.870283910215e-01 
2.470000000000e+02 -3.024368047043e+03 7.864149258909e-01 
2.475000000000e+02 -3.035942303410e+03 7.858039886771e-01 
2.480000000000e+02 -3.047470803996e+03 7.851954811827e-01 
2.485000000000e+02 -3.058955452138e+03 7.845893032352e-01 
2.490000000000e+02 -3.070397853159e+03 7.839853690824e-01 
2.495000000000e+02 -3.081800372011e+03 7.833835536789e-01 
2.500000000000e+02 -3.093165466751e+03 7.827837276804e-01 
2.505000000000e+02 -3.104494242478e+03 7.821858331884e-01 
2.510000000000e+02 -3.115788906746e+03 7.815897535077e-01 
2.515000000000e+02 -3.127051954591e+03 7.809953579216e-01 
2.520000000000e+02 -3.138284354006e+03 7.804025946093e-01 
2.525000000000e+02 -3.149488804013e+03 7.798113227947e-01 