 TITLE = "Time curves in points"
 VARIABLES = "TIME "  "PRESSURE1"  "SATURATION1" 
 ZONE T="POINT=POINT0"
0.000000000000e+00 -3.160000000000e+04 4.172918974040e-01 
5.000000000000e-01 -3.180000000000e+04 4.181118249543e-01 
1.000000000000e+00 -3.180000000000e+04 4.184097922245e-01 
1.500000000000e+00 -3.180000000000e+04 4.185010267019e-01 
2.000000000000e+00 -3.180000000000e+04 4.185284949750e-01 
2.500000000000e+00 -3.180000000000e+04 4.185318443614e-01 
3.000000000000e+00 -3.180000000000e+04 4.185244782051e-01 
3.500000000000e+00 -3.180000000000e+04 4.185117606052e-01 
4.000000000000e+00 -3.180000000000e+04 4.184961416578e-01 
4.500000000000e+00 -3.180000000000e+04 4.184788592577e-01 
5.000000000000e+00 -3.180000000000e+04 4.184605876294e-01 
5.500000000000e+00 -3.180000000000e+04 4.184417144569e-01 
6.000000000000e+00 -3.180000000000e+04 4.184224713821e-01 
6.500000000000e+00 -3.180000000000e+04 4.184030005751e-01 
7.000000000000e+00 -3.180000000000e+04 4.183834155661e-01 
7.500000000000e+00 -3.180000000000e+04 4.183638365340e-01 
8.000000000000e+00 -3.180000000000e+04 4.183443273226e-01 
8.500000000000e+00 -3.180000000000e+04 4.183249034390e-01 
9.000000000000e+00 -3.180000000000e+04 4.183055589337e-01 
9.500000000000e+00 -3.180000000000e+04 4.182862847598e-01 
1.000000000000e+01 -3.180000000000e+04 4.182670770711e-01 
1.050000000000e+01 -3.180000000000e+04 4.182479403337e-01 
1.100000000000e+01 -3.180000000000e+04 4.182288889005e-01 
1.150000000000e+01 -3.180000000000e+04 4.182099487694e-01 
1.200000000000e+01 -3.180000000000e+04 4.181911597746e-01 
1.250000000000e+01 -3.180000000000e+04 4.181725796223e-01 
1.300000000000e+01 -3.180000000000e+04 4.181542872842e-01 
1.350000000000e+01 -3.180000000000e+04 4.181363869055e-01 
1.400000000000e+01 -3.180000000000e+04 4.181190123887e-01 
1.450000000000e+01 -3.180000000000e+04 4.181023335175e-01 
1.500000000000e+01 -3.180000000000e+04 4.180865633598e-01 
1.550000000000e+01 -3.180000000000e+04 4.180719667211e-01 
1.600000000000e+01 -3.180000000000e+04 4.180588697268e-01 
1.650000000000e+01 -3.180000000000e+04 4.180476706289e-01 
1.700000000000e+01 -3.180000000000e+04 4.180388518636e-01 
1.750000000000e+01 -3.180000000000e+04 4.180329936998e-01 
1.800000000000e+01 -3.180000000000e+04 4.180307889371e-01 
1.850000000000e+01 -3.180000000000e+04 4.180330623272e-01 
1.900000000000e+01 -3.180000000000e+04 4.180407896494e-01 
1.950000000000e+01 -3.180000000000e+04 4.180551149110e-01 
2.000000000000e+01 -3.180000000000e+04 4.180773719508e-01 
2.050000000000e+01 -3.180000000000e+04 4.181091380048e-01 
2.100000000000e+01 -3.180000000000e+04 4.181522645290e-01 
2.150000000000e+01 -3.180000000000e+04 4.182090524528e-01 
2.200000000000e+01 -3.180000000000e+04 4.182822325064e-01 
2.250000000000e+01 -3.180000000000e+04 4.183748075305e-01 
2.300000000000e+01 -3.180000000000e+04 4.184900649039e-01 
2.350000000000e+01 -3.180000000000e+04 4.186314846926e-01 
2.400000000000e+01 -3.180000000000e+04 4.188039785515e-01 
2.450000000000e+01 -3.180000000000e+04 4.190149125013e-01 
2.500000000000e+01 -3.180000000000e+04 4.192696983632e-01 
2.550000000000e+01 -3.180000000000e+04 4.195726669763e-01 
2.600000000000e+01 -3.180000000000e+04 4.199292075347e-01 
2.650000000000e+01 -3.180000000000e+04 4.203578939792e-01 
2.700000000000e+01 -3.180000000000e+04 4.208815869486e-01 
2.750000000000e+01 -3.180000000000e+04 4.214931123711e-01 
2.800000000000e+01 -3.180000000000e+04 4.221875045891e-01 
2.850000000000e+01 -3.180000000000e+04 4.229828691065e-01 
2.900000000000e+01 -3.180000000000e+04 4.239058921156e-01 
2.950000000000e+01 -3.180000000000e+04 4.250056375271e-01 
3.000000000000e+01 -3.180000000000e+04 4.262870094762e-01 
3.050000000000e+01 -3.180000000000e+04 4.275934573349e-01 
3.100000000000e+01 -3.180000000000e+04 4.289868861040e-01 
3.150000000000e+01 -3.180000000000e+04 4.304171089903e-01 
3.200000000000e+01 -3.180000000000e+04 4.318496218622e-01 
3.250000000000e+01 -3.180000000000e+04 4.332934518665e-01 
3.300000000000e+01 -3.180000000000e+04 4.348409517893e-01 
3.350000000000e+01 -3.180000000000e+04 4.363068887666e-01 
3.400000000000e+01 -3.180000000000e+04 4.376317119167e-01 
3.450000000000e+01 -3.180000000000e+04 4.389098858002e-01 
3.500000000000e+01 -3.180000000000e+04 4.400687319419e-01 
3.550000000000e+01 -3.180000000000e+04 4.411033246070e-01 
3.600000000000e+01 -3.180000000000e+04 4.420143970441e-01 
3.650000000000e+01 -3.180000000000e+04 4.428072264741e-01 
3.700000000000e+01 -3.180000000000e+04 4.435352213358e-01 
3.750000000000e+01 -3.180000000000e+04 4.441703849158e-01 
3.800000000000e+01 -3.180000000000e+04 4.447544898143e-01 
3.850000000000e+01 -3.180000000000e+04 4.452678888102e-01 
3.900000000000e+01 -3.180000000000e+04 4.456800813696e-01 
3.950000000000e+01 -3.180000000000e+04 4.460078129040e-01 
4.000000000000e+01 -3.180000000000e+04 4.462659909803e-01 
4.050000000000e+01 -3.180000000000e+04 4.464639077214e-01 
4.100000000000e+01 -3.180000000000e+04 4.466088734155e-01 
4.150000000000e+01 -3.180000000000e+04 4.467072169693e-01 
4.200000000000e+01 -3.180000000000e+04 4.467644256969e-01 
4.250000000000e+01 -3.180000000000e+04 4.467852045401e-01 
4.300000000000e+01 -3.180000000000e+04 4.467736032776e-01 
4.350000000000e+01 -3.180000000000e+04 4.467331685463e-01 
4.400000000000e+01 -3.180000000000e+04 4.466669589840e-01 
4.450000000000e+01 -3.180000000000e+04 4.465776474762e-01 
4.500000000000e+01 -3.180000000000e+04 4.464675864486e-01 
4.550000000000e+01 -3.180000000000e+04 4.463397017722e-01 
4.600000000000e+01 -3.180000000000e+04 4.461962006274e-01 
4.650000000000e+01 -3.180000000000e+04 4.460389508816e-01 
4.700000000000e+01 -3.180000000000e+04 4.458691966331e-01 
4.750000000000e+01 -3.180000000000e+04 4.456878424374e-01 
4.800000000000e+01 -3.180000000000e+04 4.454959587998e-01 
4.850000000000e+01 -3.180000000000e+04 4.452948110904e-01 
4.900000000000e+01 -3.180000000000e+04 4.450861607773e-01 
4.950000000000e+01 -3.180000000000e+04 4.448703420113e-01 
5.000000000000e+01 -3.180000000000e+04 4.446483447455e-01 
5.050000000000e+01 -3.180000000000e+04 4.444312012307e-01 
5.100000000000e+01 -3.180000000000e+04 4.442278982043e-01 
5.150000000000e+01 -3.180000000000e+04 4.440195423020e-01 
5.200000000000e+01 -3.180000000000e+04 4.438042071188e-01 
5.250000000000e+01 -3.180000000000e+04 4.435830988161e-01 
5.300000000000e+01 -3.180000000000e+04 4.433567485100e-01 
5.350000000000e+01 -3.180000000000e+04 4.431258108884e-01 
5.400000000000e+01 -3.180000000000e+04 4.429051187861e-01 
5.450000000000e+01 -3.180000000000e+04 4.426850890844e-01 
5.500000000000e+01 -3.180000000000e+04 4.424625825156e-01 
5.550000000000e+01 -3.180000000000e+04 4.422380922607e-01 
5.600000000000e+01 -3.180000000000e+04 4.420119835756e-01 
5.650000000000e+01 -3.180000000000e+04 4.417837367891e-01 
5.700000000000e+01 -3.180000000000e+04 4.415531330041e-01 
5.750000000000e+01 -3.180000000000e+04 4.413212861114e-01 
5.800000000000e+01 -3.180000000000e+04 4.410894532703e-01 
5.850000000000e+01 -3.180000000000e+04 4.408600493474e-01 
5.900000000000e+01 -3.180000000000e+04 4.406328176088e-01 
5.950000000000e+01 -3.180000000000e+04 4.404058617614e-01 
6.000000000000e+01 -3.180000000000e+04 4.401783851705e-01 
6.050000000000e+01 -3.180000000000e+04 4.399505815919e-01 
6.100000000000e+01 -3.180000000000e+04 4.397240929477e-01 
6.150000000000e+01 -3.180000000000e+04 4.394984615864e-01 
6.200000000000e+01 -3.180000000000e+04 4.392737635792e-01 
6.250000000000e+01 -3.180000000000e+04 4.390548764731e-01 
6.300000000000e+01 -3.180000000000e+04 4.388407021029e-01 
6.350000000000e+01 -3.180000000000e+04 4.386278611946e-01 
6.400000000000e+01 -3.180000000000e+04 4.384163355856e-01 
6.450000000000e+01 -3.180000000000e+04 4.382056195845e-01 
6.500000000000e+01 -3.180000000000e+04 4.379995720649e-01 
6.550000000000e+01 -3.180000000000e+04 4.377982121506e-01 
6.600000000000e+01 -3.180000000000e+04 4.375972548734e-01 
6.650000000000e+01 -3.180000000000e+04 4.373996686245e-01 
6.700000000000e+01 -3.180000000000e+04 4.372012043307e-01 
6.750000000000e+01 -3.180000000000e+04 4.369996991915e-01 
6.800000000000e+01 -3.180000000000e+04 4.367970643432e-01 
6.850000000000e+01 -3.180000000000e+04 4.365940168717e-01 
6.900000000000e+01 -3.180000000000e+04 4.363909788066e-01 
6.950000000000e+01 -3.180000000000e+04 4.361887735361e-01 
7.000000000000e+01 -3.180000000000e+04 4.359876758810e-01 
7.050000000000e+01 -3.180000000000e+04 4.357888434726e-01 
7.100000000000e+01 -3.180000000000e+04 4.355920560490e-01 
7.150000000000e+01 -3.180000000000e+04 4.353967761372e-01 
7.200000000000e+01 -3.180000000000e+04 4.352027975146e-01 
7.250000000000e+01 -3.180000000000e+04 4.350096368585e-01 
7.300000000000e+01 -3.180000000000e+04 4.348174266044e-01 
7.350000000000e+01 -3.180000000000e+04 4.346292628944e-01 
7.400000000000e+01 -3.180000000000e+04 4.344475788692e-01 
7.450000000000e+01 -3.180000000000e+04 4.342681952536e-01 
7.500000000000e+01 -3.180000000000e+04 4.340893372868e-01 
7.550000000000e+01 -3.180000000000e+04 4.339114582821e-01 
7.600000000000e+01 -3.180000000000e+04 4.337377123899e-01 
7.650000000000e+01 -3.180000000000e+04 4.335672857178e-01 
7.700000000000e+01 -3.180000000000e+04 4.334073492754e-01 
7.750000000000e+01 -3.180000000000e+04 4.332454877252e-01 
7.800000000000e+01 -3.180000000000e+04 4.330819390312e-01 
7.850000000000e+01 -3.180000000000e+04 4.329175613986e-01 
7.900000000000e+01 -3.180000000000e+04 4.327529066997e-01 
7.950000000000e+01 -3.180000000000e+04 4.325881442892e-01 
8.000000000000e+01 -3.180000000000e+04 4.324234131426e-01 
8.050000000000e+01 -3.180000000000e+04 4.322588897337e-01 
8.100000000000e+01 -3.180000000000e+04 4.320949518873e-01 
8.150000000000e+01 -3.180000000000e+04 4.319372995783e-01 
8.200000000000e+01 -3.180000000000e+04 4.317884367720e-01 
8.250000000000e+01 -3.180000000000e+04 4.316419826821e-01 
8.300000000000e+01 -3.180000000000e+04 4.314958850153e-01 
8.350000000000e+01 -3.180000000000e+04 4.313495338798e-01 
8.400000000000e+01 -3.180000000000e+04 4.312027635110e-01 
8.450000000000e+01 -3.180000000000e+04 4.310556771205e-01 
8.500000000000e+01 -3.180000000000e+04 4.309086203682e-01 
8.550000000000e+01 -3.180000000000e+04 4.307616241036e-01 
8.600000000000e+01 -3.180000000000e+04 4.306148844272e-01 
8.650000000000e+01 -3.180000000000e+04 4.304688313221e-01 
8.700000000000e+01 -3.180000000000e+04 4.303236793724e-01 
8.750000000000e+01 -3.180000000000e+04 4.301792597265e-01 
8.800000000000e+01 -3.180000000000e+04 4.300353178593e-01 
8.850000000000e+01 -3.180000000000e+04 4.298916973223e-01 
8.900000000000e+01 -3.180000000000e+04 4.297485418837e-01 
8.950000000000e+01 -3.180000000000e+04 4.296060818443e-01 
9.000000000000e+01 -3.180000000000e+04 4.294645149760e-01 
9.050000000000e+01 -3.180000000000e+04 4.293239017117e-01 
9.100000000000e+01 -3.180000000000e+04 4.291841104356e-01 
9.150000000000e+01 -3.180000000000e+04 4.290451605582e-01 
9.200000000000e+01 -3.180000000000e+04 4.289101441421e-01 
9.250000000000e+01 -3.180000000000e+04 4.287773830392e-01 
9.300000000000e+01 -3.180000000000e+04 4.286464687415e-01 
9.350000000000e+01 -3.180000000000e+04 4.285193475334e-01 
9.400000000000e+01 -3.180000000000e+04 4.283938780875e-01 
9.450000000000e+01 -3.180000000000e+04 4.282704090072e-01 
9.500000000000e+01 -3.180000000000e+04 4.281498684142e-01 
9.550000000000e+01 -3.180000000000e+04 4.280298122513e-01 
9.600000000000e+01 -3.180000000000e+04 4.279095912107e-01 
9.650000000000e+01 -3.180000000000e+04 4.277890627376e-01 
9.700000000000e+01 -3.180000000000e+04 4.276682505719e-01 
9.750000000000e+01 -3.180000000000e+04 4.275474543695e-01 
9.800000000000e+01 -3.180000000000e+04 4.274269377194e-01 
9.850000000000e+01 -3.180000000000e+04 4.273067621833e-01 
9.900000000000e+01 -3.180000000000e+04 4.271871976051e-01 
9.950000000000e+01 -3.180000000000e+04 4.270697460934e-01 
1.000000000000e+02 -3.180000000000e+04 4.269539243450e-01 
1.005000000000e+02 -3.180000000000e+04 4.268390523059e-01 
1.010000000000e+02 -3.180000000000e+04 4.267247211949e-01 
1.015000000000e+02 -3.180000000000e+04 4.266107573246e-01 
1.020000000000e+02 -3.180000000000e+04 4.264971247027e-01 
1.025000000000e+02 -3.180000000000e+04 4.263838164907e-01 
1.030000000000e+02 -3.180000000000e+04 4.262708237951e-01 
1.035000000000e+02 -3.180000000000e+04 4.261582135440e-01 
1.040000000000e+02 -3.180000000000e+04 4.260463428877e-01 
1.045000000000e+02 -3.180000000000e+04 4.259353110899e-01 
1.050000000000e+02 -3.180000000000e+04 4.258250421603e-01 
1.055000000000e+02 -3.180000000000e+04 4.257154124955e-01 
1.060000000000e+02 -3.180000000000e+04 4.256062976874e-01 
1.065000000000e+02 -3.180000000000e+04 4.254975960013e-01 
1.070000000000e+02 -3.180000000000e+04 4.253892459263e-01 
1.075000000000e+02 -3.180000000000e+04 4.252812319298e-01 
1.080000000000e+02 -3.180000000000e+04 4.251735342381e-01 
1.085000000000e+02 -3.180000000000e+04 4.250663005562e-01 
1.090000000000e+02 -3.180000000000e+04 4.249596928725e-01 
1.095000000000e+02 -3.180000000000e+04 4.248613484448e-01 
1.100000000000e+02 -3.180000000000e+04 4.247657973870e-01 
1.105000000000e+02 -3.180000000000e+04 4.246710118773e-01 
1.110000000000e+02 -3.180000000000e+04 4.245765360429e-01 
1.115000000000e+02 -3.180000000000e+04 4.244819062151e-01 
1.120000000000e+02 -3.180000000000e+04 4.243916720285e-01 
1.125000000000e+02 -3.180000000000e+04 4.243011273827e-01 
1.130000000000e+02 -3.180000000000e+04 4.242099757213e-01 
1.135000000000e+02 -3.180000000000e+04 4.241205431510e-01 
1.140000000000e+02 -3.180000000000e+04 4.240305275463e-01 
1.145000000000e+02 -3.180000000000e+04 4.239399885541e-01 
1.150000000000e+02 -3.180000000000e+04 4.238492473008e-01 
1.155000000000e+02 -3.180000000000e+04 4.237584950028e-01 
1.160000000000e+02 -3.180000000000e+04 4.236678007307e-01 
1.165000000000e+02 -3.180000000000e+04 4.235771798698e-01 
1.170000000000e+02 -3.180000000000e+04 4.234867682110e-01 
1.175000000000e+02 -3.180000000000e+04 4.233971694837e-01 
1.180000000000e+02 -3.180000000000e+04 4.233083383515e-01 
1.185000000000e+02 -3.180000000000e+04 4.232208255753e-01 
1.190000000000e+02 -3.180000000000e+04 4.231362086532e-01 
1.195000000000e+02 -3.180000000000e+04 4.230522745461e-01 
1.200000000000e+02 -3.180000000000e+04 4.229684228694e-01 
1.205000000000e+02 -3.180000000000e+04 4.228845480991e-01 
1.210000000000e+02 -3.180000000000e+04 4.228017655985e-01 
1.215000000000e+02 -3.180000000000e+04 4.227198132721e-01 
1.220000000000e+02 -3.180000000000e+04 4.226382322817e-01 
1.225000000000e+02 -3.180000000000e+04 4.225567753443e-01 
1.230000000000e+02 -3.180000000000e+04 4.224753422188e-01 
1.235000000000e+02 -3.180000000000e+04 4.223938990906e-01 
1.240000000000e+02 -3.180000000000e+04 4.223124609148e-01 
1.245000000000e+02 -3.180000000000e+04 4.222310549609e-01 
1.250000000000e+02 -3.180000000000e+04 4.221497163172e-01 
1.255000000000e+02 -3.180000000000e+04 4.220685519527e-01 
1.260000000000e+02 -3.180000000000e+04 4.219876501721e-01 
1.265000000000e+02 -3.180000000000e+04 4.219070358376e-01 
1.270000000000e+02 -3.180000000000e+04 4.218268089640e-01 
1.275000000000e+02 -3.180000000000e+04 4.217475449739e-01 
1.280000000000e+02 -3.180000000000e+04 4.216691948831e-01 
1.285000000000e+02 -3.180000000000e+04 4.215914944460e-01 
1.290000000000e+02 -3.180000000000e+04 4.215142171849e-01 
1.295000000000e+02 -3.180000000000e+04 4.214372160754e-01 
1.300000000000e+02 -3.180000000000e+04 4.213604726751e-01 
1.305000000000e+02 -3.180000000000e+04 4.212839951702e-01 
1.310000000000e+02 -3.180000000000e+04 4.212077743702e-01 
1.315000000000e+02 -3.180000000000e+04 4.211317852044e-01 
1.320000000000e+02 -3.180000000000e+04 4.210559967577e-01 
1.325000000000e+02 -3.180000000000e+04 4.209803882071e-01 
1.330000000000e+02 -3.180000000000e+04 4.209049583214e-01 
1.335000000000e+02 -3.180000000000e+04 4.208297280268e-01 
1.340000000000e+02 -3.180000000000e+04 4.207547218944e-01 
1.345000000000e+02 -3.180000000000e+04 4.206802144163e-01 
1.350000000000e+02 -3.180000000000e+04 4.206064112312e-01 
1.355000000000e+02 -3.180000000000e+04 4.205343703551e-01 
1.360000000000e+02 -3.180000000000e+04 4.204637442569e-01 
1.365000000000e+02 -3.180000000000e+04 4.203948258138e-01 
1.370000000000e+02 -3.180000000000e+04 4.203278901810e-01 
1.375000000000e+02 -3.180000000000e+04 4.202623021617e-01 
1.380000000000e+02 -3.180000000000e+04 4.201969849198e-01 
1.385000000000e+02 -3.180000000000e+04 4.201315983814e-01 
1.390000000000e+02 -3.180000000000e+04 4.200660609099e-01 
1.395000000000e+02 -3.180000000000e+04 4.200003642972e-01 
1.400000000000e+02 -3.180000000000e+04 4.199345358609e-01 
1.405000000000e+02 -3.180000000000e+04 4.198686428079e-01 
1.410000000000e+02 -3.180000000000e+04 4.198027525897e-01 
1.415000000000e+02 -3.180000000000e+04 4.197369067805e-01 
1.420000000000e+02 -3.180000000000e+04 4.196711240357e-01 
1.425000000000e+02 -3.180000000000e+04 4.196054090447e-01 
1.430000000000e+02 -3.180000000000e+04 4.195397683919e-01 
1.435000000000e+02 -3.180000000000e+04 4.194742142440e-01 
1.440000000000e+02 -3.180000000000e+04 4.194087615889e-01 
1.445000000000e+02 -3.180000000000e+04 4.193436601559e-01 
1.450000000000e+02 -3.180000000000e+04 4.192791195801e-01 
1.455000000000e+02 -3.180000000000e+04 4.192151212897e-01 
1.460000000000e+02 -3.180000000000e+04 4.191515456440e-01 
1.465000000000e+02 -3.180000000000e+04 4.190882974726e-01 
1.470000000000e+02 -3.180000000000e+04 4.190254295497e-01 
1.475000000000e+02 -3.180000000000e+04 4.189633591652e-01 
1.480000000000e+02 -3.180000000000e+04 4.189019637748e-01 
1.485000000000e+02 -3.180000000000e+04 4.188410084078e-01 
1.490000000000e+02 -3.180000000000e+04 4.187803199469e-01 
1.495000000000e+02 -3.180000000000e+04 4.187197947992e-01 
1.500000000000e+02 -3.180000000000e+04 4.186593782065e-01 
1.505000000000e+02 -3.180000000000e+04 4.185990465031e-01 
1.510000000000e+02 -3.180000000000e+04 4.185388100209e-01 
1.515000000000e+02 -3.180000000000e+04 4.184787567992e-01 
1.520000000000e+02 -3.180000000000e+04 4.184190726951e-01 
1.525000000000e+02 -3.180000000000e+04 4.183598232345e-01 
1.530000000000e+02 -3.180000000000e+04 4.183009682671e-01 
1.535000000000e+02 -3.180000000000e+04 4.182424306385e-01 
1.540000000000e+02 -3.180000000000e+04 4.181841433400e-01 
1.545000000000e+02 -3.180000000000e+04 4.181260587900e-01 
1.550000000000e+02 -3.180000000000e+04 4.180681474850e-01 
1.555000000000e+02 -3.180000000000e+04 4.180103926008e-01 
1.560000000000e+02 -3.180000000000e+04 4.179527847025e-01 
1.565000000000e+02 -3.180000000000e+04 4.178953184195e-01 
1.570000000000e+02 -3.180000000000e+04 4.178380031366e-01 
1.575000000000e+02 -3.180000000000e+04 4.177808512529e-01 
1.580000000000e+02 -3.180000000000e+04 4.177238683497e-01 
1.585000000000e+02 -3.180000000000e+04 4.176679418444e-01 
1.590000000000e+02 -3.180000000000e+04 4.176128254320e-01 
1.595000000000e+02 -3.180000000000e+04 4.175580533410e-01 
1.600000000000e+02 -3.180000000000e+04 4.175034060718e-01 
1.605000000000e+02 -3.180000000000e+04 4.174488053653e-01 
1.610000000000e+02 -3.180000000000e+04 4.173942309998e-01 
1.615000000000e+02 -3.180000000000e+04 4.173397424953e-01 
1.620000000000e+02 -3.180000000000e+04 4.172855299645e-01 
1.625000000000e+02 -3.180000000000e+04 4.172317480431e-01 
1.630000000000e+02 -3.180000000000e+04 4.171788319113e-01 
1.635000000000e+02 -3.180000000000e+04 4.171266593858e-01 
1.640000000000e+02 -3.180000000000e+04 4.170749791679e-01 
1.645000000000e+02 -3.180000000000e+04 4.170240574592e-01 
1.650000000000e+02 -3.180000000000e+04 4.169746331244e-01 
1.655000000000e+02 -3.180000000000e+04 4.169251576558e-01 
1.660000000000e+02 -3.180000000000e+04 4.168755104810e-01 
1.665000000000e+02 -3.180000000000e+04 4.168257314675e-01 
1.670000000000e+02 -3.180000000000e+04 4.167758666838e-01 
1.675000000000e+02 -3.180000000000e+04 4.167259578982e-01 
1.680000000000e+02 -3.180000000000e+04 4.166760386183e-01 
1.685000000000e+02 -3.180000000000e+04 4.166261312250e-01 
1.690000000000e+02 -3.180000000000e+04 4.165763405713e-01 
1.695000000000e+02 -3.180000000000e+04 4.165267538896e-01 
1.700000000000e+02 -3.180000000000e+04 4.164773947412e-01 
1.705000000000e+02 -3.180000000000e+04 4.164282429817e-01 
1.710000000000e+02 -3.180000000000e+04 4.163792639681e-01 
1.715000000000e+02 -3.180000000000e+04 4.163307226422e-01 
1.720000000000e+02 -3.180000000000e+04 4.162834946704e-01 
1.725000000000e+02 -3.180000000000e+04 4.162366142713e-01 
1.730000000000e+02 -3.180000000000e+04 4.161897669573e-01 
1.735000000000e+02 -3.180000000000e+04 4.161428878403e-01 
1.740000000000e+02 -3.180000000000e+04 4.160961494567e-01 
1.745000000000e+02 -3.180000000000e+04 4.160496684563e-01 
1.750000000000e+02 -3.180000000000e+04 4.160034200033e-01 
1.755000000000e+02 -3.180000000000e+04 4.159577148095e-01 
1.760000000000e+02 -3.180000000000e+04 4.159129288403e-01 
1.765000000000e+02 -3.180000000000e+04 4.158688781760e-01 
1.770000000000e+02 -3.180000000000e+04 4.158248461284e-01 
1.775000000000e+02 -3.180000000000e+04 4.157807336826e-01 
1.780000000000e+02 -3.180000000000e+04 4.157365415223e-01 
1.785000000000e+02 -3.180000000000e+04 4.156923017189e-01 
1.790000000000e+02 -3.180000000000e+04 4.156481254151e-01 
1.795000000000e+02 -3.180000000000e+04 4.156040950150e-01 
1.800000000000e+02 -3.180000000000e+04 4.155602369586e-01 
1.805000000000e+02 -3.180000000000e+04 4.155165452450e-01 
1.810000000000e+02 -3.180000000000e+04 4.154730051123e-01 
1.815000000000e+02 -3.180000000000e+04 4.154296065110e-01 
1.820000000000e+02 -3.180000000000e+04 4.153863513883e-01 
1.825000000000e+02 -3.180000000000e+04 4.153432541700e-01 
1.830000000000e+02 -3.180000000000e+04 4.153003401922e-01 
1.835000000000e+02 -3.180000000000e+04 4.152576455529e-01 
1.840000000000e+02 -3.180000000000e+04 4.152152186334e-01 
1.845000000000e+02 -3.180000000000e+04 4.151731223682e-01 
1.850000000000e+02 -3.180000000000e+04 4.151314365312e-01 
1.855000000000e+02 -3.180000000000e+04 4.150902601984e-01 
1.860000000000e+02 -3.180000000000e+04 4.150497482399e-01 
1.865000000000e+02 -3.180000000000e+04 4.150100936527e-01 
1.870000000000e+02 -3.180000000000e+04 4.149714988150e-01 
1.875000000000e+02 -3.180000000000e+04 4.149341774427e-01 
1.880000000000e+02 -3.180000000000e+04 4.148983728945e-01 
1.885000000000e+02 -3.180000000000e+04 4.148643772120e-01 
1.890000000000e+02 -3.180000000000e+04 4.148325467319e-01 
1.895000000000e+02 -3.180000000000e+04 4.148033154389e-01 
1.900000000000e+02 -3.180000000000e+04 4.147772079590e-01 
1.905000000000e+02 -3.180000000000e+04 4.147549090898e-01 
1.910000000000e+02 -3.180000000000e+04 4.147371609244e-01 
1.915000000000e+02 -3.180000000000e+04 4.147247897769e-01 
1.920000000000e+02 -3.180000000000e+04 4.147187722705e-01 
1.925000000000e+02 -3.180000000000e+04 4.147203669185e-01 
1.930000000000e+02 -3.180000000000e+04 4.147310778646e-01 
1.935000000000e+02 -3.180000000000e+04 4.147526179171e-01 
1.940000000000e+02 -3.180000000000e+04 4.147870804779e-01 
1.945000000000e+02 -3.180000000000e+04 4.148368753250e-01 
1.950000000000e+02 -3.180000000000e+04 4.149046868362e-01 
1.955000000000e+02 -3.180000000000e+04 4.149934202544e-01 
1.960000000000e+02 -3.180000000000e+04 4.151064806753e-01 
1.965000000000e+02 -3.180000000000e+04 4.152476575437e-01 
1.970000000000e+02 -3.180000000000e+04 4.154205674375e-01 
1.975000000000e+02 -3.180000000000e+04 4.156286238498e-01 
1.980000000000e+02 -3.180000000000e+04 4.158790733020e-01 
1.985000000000e+02 -3.180000000000e+04 4.161821596810e-01 
1.990000000000e+02 -3.180000000000e+04 4.165467943903e-01 
1.995000000000e+02 -3.180000000000e+04 4.169685537105e-01 
2.000000000000e+02 -3.180000000000e+04 4.174642709594e-01 
2.005000000000e+02 -3.180000000000e+04 4.180192130782e-01 
2.010000000000e+02 -3.180000000000e+04 4.186268066620e-01 
2.015000000000e+02 -3.180000000000e+04 4.192784542536e-01 
2.020000000000e+02 -3.180000000000e+04 4.199713124778e-01 
2.025000000000e+02 -3.180000000000e+04 4.207273268167e-01 
2.030000000000e+02 -3.180000000000e+04 4.215239516757e-01 
2.035000000000e+02 -3.180000000000e+04 4.223357742707e-01 
2.040000000000e+02 -3.180000000000e+04 4.231670997672e-01 
2.045000000000e+02 -3.180000000000e+04 4.240190613564e-01 
2.050000000000e+02 -3.180000000000e+04 4.249297116101e-01 
2.055000000000e+02 -3.180000000000e+04 4.258862758094e-01 
2.060000000000e+02 -3.180000000000e+04 4.267756201523e-01 
2.065000000000e+02 -3.180000000000e+04 4.276074577501e-01 
2.070000000000e+02 -3.180000000000e+04 4.283978492282e-01 
2.075000000000e+02 -3.180000000000e+04 4.291765537416e-01 
2.080000000000e+02 -3.180000000000e+04 4.299083098123e-01 
2.085000000000e+02 -3.180000000000e+04 4.305817265844e-01 
2.090000000000e+02 -3.180000000000e+04 4.311993386926e-01 
2.095000000000e+02 -3.180000000000e+04 4.317694299668e-01 
2.100000000000e+02 -3.180000000000e+04 4.323252450645e-01 
2.105000000000e+02 -3.180000000000e+04 4.328355288392e-01 
2.110000000000e+02 -3.180000000000e+04 4.332937981797e-01 
2.115000000000e+02 -3.180000000000e+04 4.337198778045e-01 
2.120000000000e+02 -3.180000000000e+04 4.341244326351e-01 
2.125000000000e+02 -3.180000000000e+04 4.344859484463e-01 
2.130000000000e+02 -3.180000000000e+04 4.348121756416e-01 
2.135000000000e+02 -3.180000000000e+04 4.350995984956e-01 
2.140000000000e+02 -3.180000000000e+04 4.353497410721e-01 
2.145000000000e+02 -3.180000000000e+04 4.355660595438e-01 
2.150000000000e+02 -3.180000000000e+04 4.357529897672e-01 
2.155000000000e+02 -3.180000000000e+04 4.359130619159e-01 
2.160000000000e+02 -3.180000000000e+04 4.360482299807e-01 
2.165000000000e+02 -3.180000000000e+04 4.361602341055e-01 
2.170000000000e+02 -3.180000000000e+04 4.362507984710e-01 
2.175000000000e+02 -3.180000000000e+04 4.363216184694e-01 
2.180000000000e+02 -3.180000000000e+04 4.363743008915e-01 
2.185000000000e+02 -3.180000000000e+04 4.364103269746e-01 
2.190000000000e+02 -3.180000000000e+04 4.364310437737e-01 
2.195000000000e+02 -3.180000000000e+04 4.364376573123e-01 
2.200000000000e+02 -3.180000000000e+04 4.364312533417e-01 
2.205000000000e+02 -3.180000000000e+04 4.364128316642e-01 
2.210000000000e+02 -3.180000000000e+04 4.363833054631e-01 
2.215000000000e+02 -3.180000000000e+04 4.363435035143e-01 
2.220000000000e+02 -3.180000000000e+04 4.362941917927e-01 
2.225000000000e+02 -3.180000000000e+04 4.362360713100e-01 
2.230000000000e+02 -3.180000000000e+04 4.361698902667e-01 
2.235000000000e+02 -3.180000000000e+04 4.360964919754e-01 
2.240000000000e+02 -3.180000000000e+04 4.360164217641e-01 
2.245000000000e+02 -3.180000000000e+04 4.359301694134e-01 
2.250000000000e+02 -3.180000000000e+04 4.358382138185e-01 
2.255000000000e+02 -3.180000000000e+04 4.357418588541e-01 
2.260000000000e+02 -3.180000000000e+04 4.356410161399e-01 
2.265000000000e+02 -3.180000000000e+04 4.355357179587e-01 
2.270000000000e+02 -3.180000000000e+04 4.354261214708e-01 
2.275000000000e+02 -3.180000000000e+04 4.353126131489e-01 
2.280000000000e+02 -3.180000000000e+04 4.351956900288e-01 
2.285000000000e+02 -3.180000000000e+04 4.350755859607e-01 
2.290000000000e+02 -3.180000000000e+04 4.349523614860e-01 
2.295000000000e+02 -3.180000000000e+04 4.348260998811e-01 
2.300000000000e+02 -3.180000000000e+04 4.346974272838e-01 
2.305000000000e+02 -3.180000000000e+04 4.345706642284e-01 
2.310000000000e+02 -3.180000000000e+04 4.344441701863e-01 
2.315000000000e+02 -3.180000000000e+04 4.343159850917e-01 
2.320000000000e+02 -3.180000000000e+04 4.341858433115e-01 
2.325000000000e+02 -3.180000000000e+04 4.340536355711e-01 
2.330000000000e+02 -3.180000000000e+04 4.339200676264e-01 
2.335000000000e+02 -3.180000000000e+04 4.337867072634e-01 
2.340000000000e+02 -3.180000000000e+04 4.336552585490e-01 
2.345000000000e+02 -3.180000000000e+04 4.335246631306e-01 
2.350000000000e+02 -3.180000000000e+04 4.333977494204e-01 
2.355000000000e+02 -3.180000000000e+04 4.332680345946e-01 
2.360000000000e+02 -3.180000000000e+04 4.331358213885e-01 
2.365000000000e+02 -3.180000000000e+04 4.330018197736e-01 
2.370000000000e+02 -3.180000000000e+04 4.328664438344e-01 
2.375000000000e+02 -3.180000000000e+04 4.327299785085e-01 
2.380000000000e+02 -3.180000000000e+04 4.325925361569e-01 
2.385000000000e+02 -3.180000000000e+04 4.324541512528e-01 
2.390000000000e+02 -3.180000000000e+04 4.323150014276e-01 
2.395000000000e+02 -3.180000000000e+04 4.321753138837e-01 
2.400000000000e+02 -3.180000000000e+04 4.320353556821e-01 
2.405000000000e+02 -3.180000000000e+04 4.319026432775e-01 
2.410000000000e+02 -3.180000000000e+04 4.317747155746e-01 
2.415000000000e+02 -3.180000000000e+04 4.316475069096e-01 
2.420000000000e+02 -3.180000000000e+04 4.315197914928e-01 
2.425000000000e+02 -3.180000000000e+04 4.313912074910e-01 
2.430000000000e+02 -3.180000000000e+04 4.312616726426e-01 
2.435000000000e+02 -3.180000000000e+04 4.311312164894e-01 
2.440000000000e+02 -3.180000000000e+04 4.310000849761e-01 
2.445000000000e+02 -3.180000000000e+04 4.308685615292e-01 
2.450000000000e+02 -3.180000000000e+04 4.307366585196e-01 
2.455000000000e+02 -3.180000000000e+04 4.306045391638e-01 
2.460000000000e+02 -3.180000000000e+04 4.304725348668e-01 
2.465000000000e+02 -3.180000000000e+04 4.303409633894e-01 
2.470000000000e+02 -3.180000000000e+04 4.302097130958e-01 
2.475000000000e+02 -3.180000000000e+04 4.300785679845e-01 
2.480000000000e+02 -3.180000000000e+04 4.299473544781e-01 
2.485000000000e+02 -3.180000000000e+04 4.298160835275e-01 
2.490000000000e+02 -3.180000000000e+04 4.296849164439e-01 
2.495000000000e+02 -3.180000000000e+04 4.295540847942e-01 
2.500000000000e+02 -3.180000000000e+04 4.294237611108e-01 
2.505000000000e+02 -3.180000000000e+04 4.292939800320e-01 
2.510000000000e+02 -3.180000000000e+04 4.291646241128e-01 
2.515000000000e+02 -3.180000000000e+04 4.290357382225e-01 
2.520000000000e+02 -3.180000000000e+04 4.289101908078e-01 
2.525000000000e+02 -3.180000000000e+04 4.287864576308e-01 