 TITLE = "Time curves in points"
 VARIABLES = "TIME "  "PRESSURE1"  "SATURATION1" 
 ZONE T="POINT=POINT2"
0.000000000000e+00 -5.547004031523e+03 6.808518724371e-01 
5.000000000000e-01 -5.550430705098e+03 6.807401987773e-01 
1.000000000000e+00 -5.553882437718e+03 6.806275243059e-01 
1.500000000000e+00 -5.557366111466e+03 6.805140087916e-01 
2.000000000000e+00 -5.560880427639e+03 6.804002752990e-01 
2.500000000000e+00 -5.564429309628e+03 6.802854138398e-01 
3.000000000000e+00 -5.568012899711e+03 6.801694225105e-01 
3.500000000000e+00 -5.571630043765e+03 6.800523400274e-01 
4.000000000000e+00 -5.575278856700e+03 6.799342309676e-01 
4.500000000000e+00 -5.578958412226e+03 6.798151245861e-01 
5.000000000000e+00 -5.582666037115e+03 6.796951111207e-01 
5.500000000000e+00 -5.586393495465e+03 6.795744613100e-01 
6.000000000000e+00 -5.590125052234e+03 6.794536956000e-01 
6.500000000000e+00 -5.593845601926e+03 6.793333081471e-01 
7.000000000000e+00 -5.597530860131e+03 6.792141013817e-01 
7.500000000000e+00 -5.601145210592e+03 6.790972506406e-01 
8.000000000000e+00 -5.604643162680e+03 6.789842522024e-01 
8.500000000000e+00 -5.607963676023e+03 6.788771147317e-01 
9.000000000000e+00 -5.611028960912e+03 6.787783963114e-01 
9.500000000000e+00 -5.613740374299e+03 6.786913379217e-01 
1.000000000000e+01 -5.615972840721e+03 6.786200434598e-01 
1.050000000000e+01 -5.617571293512e+03 6.785695960362e-01 
1.100000000000e+01 -5.618349587033e+03 6.785460965725e-01 
1.150000000000e+01 -5.618084426579e+03 6.785568604130e-01 
1.200000000000e+01 -5.616513341555e+03 6.786104790767e-01 
1.250000000000e+01 -5.613329795471e+03 6.787169812446e-01 
1.300000000000e+01 -5.608173577311e+03 6.788881500572e-01 
1.350000000000e+01 -5.600642069827e+03 6.791371442165e-01 
1.400000000000e+01 -5.590260086573e+03 6.794794891125e-01 
1.450000000000e+01 -5.576501044582e+03 6.799323733443e-01 
1.500000000000e+01 -5.558788441892e+03 6.805158241425e-01 
1.550000000000e+01 -5.536473697116e+03 6.812552273555e-01 
1.600000000000e+01 -5.508877742215e+03 6.821691940954e-01 
1.650000000000e+01 -5.475278104718e+03 6.832843768095e-01 
1.700000000000e+01 -5.434994608569e+03 6.846312542703e-01 
1.750000000000e+01 -5.387287736272e+03 6.862294341749e-01 
1.800000000000e+01 -5.331490173794e+03 6.880983196171e-01 
1.850000000000e+01 -5.266906619486e+03 6.903049347601e-01 
1.900000000000e+01 -5.193029039573e+03 6.928756043841e-01 
1.950000000000e+01 -5.109697690985e+03 6.958220811618e-01 
2.000000000000e+01 -5.016628991465e+03 6.991560806418e-01 
2.050000000000e+01 -4.913904119112e+03 7.029064186609e-01 
2.100000000000e+01 -4.802168995670e+03 7.070593685474e-01 
2.150000000000e+01 -4.681769854818e+03 7.116465345435e-01 
2.200000000000e+01 -4.553925695922e+03 7.166327966459e-01 
2.250000000000e+01 -4.419401825709e+03 7.219894468870e-01 
2.300000000000e+01 -4.279863185767e+03 7.276810230138e-01 
2.350000000000e+01 -4.136485228457e+03 7.337235472186e-01 
2.400000000000e+01 -3.990935144456e+03 7.400235801137e-01 
2.450000000000e+01 -3.844781569358e+03 7.465294781842e-01 
2.500000000000e+01 -3.699357766223e+03 7.532194972904e-01 
2.550000000000e+01 -3.557140787806e+03 7.599811214188e-01 
2.600000000000e+01 -3.420097623367e+03 7.666787858181e-01 
2.650000000000e+01 -3.291115127811e+03 7.731379486832e-01 
2.700000000000e+01 -3.171841669011e+03 7.792821758701e-01 
2.750000000000e+01 -3.064252115167e+03 7.849371351205e-01 
2.800000000000e+01 -2.968320728198e+03 7.901045815938e-01 
2.850000000000e+01 -2.884706723157e+03 7.947367893270e-01 
2.900000000000e+01 -2.812502848348e+03 7.987489574329e-01 
2.950000000000e+01 -2.750443415160e+03 8.022609884925e-01 
3.000000000000e+01 -2.697645436054e+03 8.053121778107e-01 
3.050000000000e+01 -2.653129904532e+03 8.079195205135e-01 
3.100000000000e+01 -2.615782787107e+03 8.101061474747e-01 
3.150000000000e+01 -2.584620092547e+03 8.119291458136e-01 
3.200000000000e+01 -2.558851450986e+03 8.134349346935e-01 
3.250000000000e+01 -2.537772421318e+03 8.146708499157e-01 
3.300000000000e+01 -2.520794240541e+03 8.156824056137e-01 
3.350000000000e+01 -2.507435566929e+03 8.164771244811e-01 
3.400000000000e+01 -2.497247951269e+03 8.170832125954e-01 
3.450000000000e+01 -2.489879551331e+03 8.175188880981e-01 
3.500000000000e+01 -2.485039910537e+03 8.178097488637e-01 
3.550000000000e+01 -2.482432743862e+03 8.179622544556e-01 
3.600000000000e+01 -2.481830284603e+03 8.179902372846e-01 
3.650000000000e+01 -2.483027888825e+03 8.179063972173e-01 
3.700000000000e+01 -2.485843370253e+03 8.177220656311e-01 
3.750000000000e+01 -2.490121270850e+03 8.174469070218e-01 
3.800000000000e+01 -2.495743620431e+03 8.170959629489e-01 
3.850000000000e+01 -2.502577977071e+03 8.166730441933e-01 
3.900000000000e+01 -2.510505350464e+03 8.161847657139e-01 
3.950000000000e+01 -2.519425415434e+03 8.156387107098e-01 
4.000000000000e+01 -2.529258461631e+03 8.150377942521e-01 
4.050000000000e+01 -2.539900416515e+03 8.144023021739e-01 
4.100000000000e+01 -2.551290131198e+03 8.137250312231e-01 
4.150000000000e+01 -2.563357725503e+03 8.130080082403e-01 
4.200000000000e+01 -2.576034247328e+03 8.122553010230e-01 
4.250000000000e+01 -2.589268476528e+03 8.114699166039e-01 
4.300000000000e+01 -2.603017797020e+03 8.106543512646e-01 
4.350000000000e+01 -2.617209049138e+03 8.098129098165e-01 
4.400000000000e+01 -2.631827768947e+03 8.089464493150e-01 
4.450000000000e+01 -2.646831344378e+03 8.080574776101e-01 
4.500000000000e+01 -2.662176445573e+03 8.071485347911e-01 
4.550000000000e+01 -2.677840759234e+03 8.062209341144e-01 
4.600000000000e+01 -2.693802811732e+03 8.052759515835e-01 
4.650000000000e+01 -2.710030493968e+03 8.043154680193e-01 
4.700000000000e+01 -2.726510185464e+03 8.033430848398e-01 
4.750000000000e+01 -2.743211847011e+03 8.023633007957e-01 
4.800000000000e+01 -2.760136580595e+03 8.013913603056e-01 
4.850000000000e+01 -2.777196269587e+03 8.004157518940e-01 
4.900000000000e+01 -2.794382617952e+03 7.994504808747e-01 
4.950000000000e+01 -2.811681395781e+03 7.984819784304e-01 
5.000000000000e+01 -2.829076842872e+03 7.975081869069e-01 
5.050000000000e+01 -2.846562715528e+03 7.965294751103e-01 
5.100000000000e+01 -2.864122890392e+03 7.955467198689e-01 
5.150000000000e+01 -2.881756782070e+03 7.945599775936e-01 
5.200000000000e+01 -2.899477867903e+03 7.935684977228e-01 
5.250000000000e+01 -2.917255498700e+03 7.925739726427e-01 
5.300000000000e+01 -2.935101827999e+03 7.915757404115e-01 
5.350000000000e+01 -2.953012077531e+03 7.905740646338e-01 
5.400000000000e+01 -2.970986195882e+03 7.895701906245e-01 
5.450000000000e+01 -2.989026617059e+03 7.885685686427e-01 
5.500000000000e+01 -3.007128370517e+03 7.875844500565e-01 
5.550000000000e+01 -3.025217892441e+03 7.866083833175e-01 
5.600000000000e+01 -3.043293896379e+03 7.856475717433e-01 
5.650000000000e+01 -3.061336757323e+03 7.846955468160e-01 
5.700000000000e+01 -3.079365206576e+03 7.837443595150e-01 
5.750000000000e+01 -3.097368769690e+03 7.827945820914e-01 
5.800000000000e+01 -3.115349980087e+03 7.818460524309e-01 
5.850000000000e+01 -3.133308921115e+03 7.808987959872e-01 
5.900000000000e+01 -3.151243417094e+03 7.799529007836e-01 
5.950000000000e+01 -3.169155432366e+03 7.790082839159e-01 
6.000000000000e+01 -3.187063560145e+03 7.780639668713e-01 
6.050000000000e+01 -3.204941955185e+03 7.771212981926e-01 
6.100000000000e+01 -3.222811181812e+03 7.761814429854e-01 
6.150000000000e+01 -3.240666983305e+03 7.752461402238e-01 
6.200000000000e+01 -3.258516716128e+03 7.743314235373e-01 
6.250000000000e+01 -3.276299153153e+03 7.734245243523e-01 
6.300000000000e+01 -3.294027051734e+03 7.725320098169e-01 
6.350000000000e+01 -3.311685407171e+03 7.716498462620e-01 
6.400000000000e+01 -3.329288073744e+03 7.707705165498e-01 
6.450000000000e+01 -3.346825517583e+03 7.698945117932e-01 
6.500000000000e+01 -3.364310032403e+03 7.690212075422e-01 
6.550000000000e+01 -3.381737290536e+03 7.681508331421e-01 
6.600000000000e+01 -3.399108923115e+03 7.672832951663e-01 
6.650000000000e+01 -3.416440084011e+03 7.664178488048e-01 
6.700000000000e+01 -3.433723921149e+03 7.655548341542e-01 
6.750000000000e+01 -3.450963787915e+03 7.646940745906e-01 
6.800000000000e+01 -3.468172189138e+03 7.638360855640e-01 
6.850000000000e+01 -3.485345537156e+03 7.629837040659e-01 
6.900000000000e+01 -3.502486334115e+03 7.621448792401e-01 
6.950000000000e+01 -3.519571585285e+03 7.613158078042e-01 
7.000000000000e+01 -3.536591867064e+03 7.604929265502e-01 
7.050000000000e+01 -3.553542579955e+03 7.596868545714e-01 
7.100000000000e+01 -3.570426018657e+03 7.588840304147e-01 
7.150000000000e+01 -3.587255583972e+03 7.580838057589e-01 
7.200000000000e+01 -3.604019885915e+03 7.572867349030e-01 
7.250000000000e+01 -3.620737447083e+03 7.564919297570e-01 
7.300000000000e+01 -3.637395683561e+03 7.557000000532e-01 
7.350000000000e+01 -3.654001666919e+03 7.549106047281e-01 
7.400000000000e+01 -3.670559697794e+03 7.541235339453e-01 
7.450000000000e+01 -3.687072421823e+03 7.533386745664e-01 
7.500000000000e+01 -3.703546850550e+03 7.525556875432e-01 
7.550000000000e+01 -3.719977310242e+03 7.517773700991e-01 
7.600000000000e+01 -3.736366547087e+03 7.510039045825e-01 
7.650000000000e+01 -3.752727497559e+03 7.502464844322e-01 
7.700000000000e+01 -3.769032081236e+03 7.494979211694e-01 
7.750000000000e+01 -3.785275248792e+03 7.487539341552e-01 
7.800000000000e+01 -3.801444944066e+03 7.480287629466e-01 
7.850000000000e+01 -3.817561981985e+03 7.473074999870e-01 
7.900000000000e+01 -3.833619183626e+03 7.465889359101e-01 
7.950000000000e+01 -3.849618582633e+03 7.458730129352e-01 
8.000000000000e+01 -3.865562364462e+03 7.451596150402e-01 
8.050000000000e+01 -3.881462334802e+03 7.444482116639e-01 
8.100000000000e+01 -3.897309147824e+03 7.437392265658e-01 
8.150000000000e+01 -3.913111340376e+03 7.430322845524e-01 
8.200000000000e+01 -3.928874527886e+03 7.423271244139e-01 
8.250000000000e+01 -3.944594753150e+03 7.416239305698e-01 
8.300000000000e+01 -3.960274269982e+03 7.409226160346e-01 
8.350000000000e+01 -3.975933760211e+03 7.402259663989e-01 
8.400000000000e+01 -3.991551257390e+03 7.395330952437e-01 
8.450000000000e+01 -4.007145334486e+03 7.388521661201e-01 
8.500000000000e+01 -4.022676901628e+03 7.381760819981e-01 
8.550000000000e+01 -4.038163063093e+03 7.375025363089e-01 
8.600000000000e+01 -4.053595642605e+03 7.368423255274e-01 
8.650000000000e+01 -4.068972721908e+03 7.361849457019e-01 
8.700000000000e+01 -4.084306135469e+03 7.355294573454e-01 
8.750000000000e+01 -4.099586393402e+03 7.348762815885e-01 
8.800000000000e+01 -4.114830069228e+03 7.342247119207e-01 
8.850000000000e+01 -4.130024589159e+03 7.335752612480e-01 
8.900000000000e+01 -4.145180962612e+03 7.329274852239e-01 
8.950000000000e+01 -4.160295305347e+03 7.322815379445e-01 
9.000000000000e+01 -4.175378087111e+03 7.316369778703e-01 
9.050000000000e+01 -4.190416293421e+03 7.309943516626e-01 
9.100000000000e+01 -4.205423251465e+03 7.303531007630e-01 
9.150000000000e+01 -4.220402634740e+03 7.297165483440e-01 
9.200000000000e+01 -4.235347106082e+03 7.290822470653e-01 
9.250000000000e+01 -4.250264740963e+03 7.284604095651e-01 
9.300000000000e+01 -4.265141337439e+03 7.278444500719e-01 
9.350000000000e+01 -4.279962083173e+03 7.272330435477e-01 
9.400000000000e+01 -4.294738006504e+03 7.266269623985e-01 
9.450000000000e+01 -4.309456024019e+03 7.260330107541e-01 
9.500000000000e+01 -4.324121600120e+03 7.254412011941e-01 
9.550000000000e+01 -4.338747467537e+03 7.248510112183e-01 
9.600000000000e+01 -4.353332692677e+03 7.242625003175e-01 
9.650000000000e+01 -4.367870390264e+03 7.236759256415e-01 
9.700000000000e+01 -4.382365009130e+03 7.230911166209e-01 
9.750000000000e+01 -4.396823159335e+03 7.225077991319e-01 
9.800000000000e+01 -4.411251403520e+03 7.219257292351e-01 
9.850000000000e+01 -4.425635209934e+03 7.213454794339e-01 
9.900000000000e+01 -4.439990372239e+03 7.207664024789e-01 
9.950000000000e+01 -4.454305424575e+03 7.201889791421e-01 
1.000000000000e+02 -4.468601108856e+03 7.196148053948e-01 
1.005000000000e+02 -4.482859735985e+03 7.190424473688e-01 
1.010000000000e+02 -4.497091370688e+03 7.184770758845e-01 
1.015000000000e+02 -4.511295361858e+03 7.179162647761e-01 
1.020000000000e+02 -4.525440515529e+03 7.173596605632e-01 
1.025000000000e+02 -4.539556313344e+03 7.168042456793e-01 
1.030000000000e+02 -4.553619893902e+03 7.162572029610e-01 
1.035000000000e+02 -4.567645833420e+03 7.157136365711e-01 
1.040000000000e+02 -4.581626820139e+03 7.151718350134e-01 
1.045000000000e+02 -4.595575089368e+03 7.146313133489e-01 
1.050000000000e+02 -4.609475249013e+03 7.140926884050e-01 
1.055000000000e+02 -4.623337697969e+03 7.135555359557e-01 
1.060000000000e+02 -4.637165796477e+03 7.130197450335e-01 
1.065000000000e+02 -4.650965058071e+03 7.124850894902e-01 
1.070000000000e+02 -4.664726031834e+03 7.119519445982e-01 
1.075000000000e+02 -4.678448357792e+03 7.114203132334e-01 
1.080000000000e+02 -4.692143908773e+03 7.108897459854e-01 
1.085000000000e+02 -4.705809287017e+03 7.103608460187e-01 
1.090000000000e+02 -4.719452537336e+03 7.098355283031e-01 
1.095000000000e+02 -4.733054665396e+03 7.093118152588e-01 
1.100000000000e+02 -4.746637326001e+03 7.087962536257e-01 
1.105000000000e+02 -4.760189381464e+03 7.082854980303e-01 
1.110000000000e+02 -4.773700820008e+03 7.077783809068e-01 
1.115000000000e+02 -4.787172172688e+03 7.072730969185e-01 
1.120000000000e+02 -4.800607267003e+03 7.067733509299e-01 
1.125000000000e+02 -4.814002709725e+03 7.062809832747e-01 
1.130000000000e+02 -4.827352719531e+03 7.057902972381e-01 
1.135000000000e+02 -4.840676594701e+03 7.053005926512e-01 
1.140000000000e+02 -4.853966458705e+03 7.048121474910e-01 
1.145000000000e+02 -4.867218849801e+03 7.043251076674e-01 
1.150000000000e+02 -4.880443036577e+03 7.038391245322e-01 
1.155000000000e+02 -4.893634227687e+03 7.033543683541e-01 
1.160000000000e+02 -4.906800360519e+03 7.028705483967e-01 
1.165000000000e+02 -4.919929579305e+03 7.023881107747e-01 
1.170000000000e+02 -4.933034030292e+03 7.019065997249e-01 
1.175000000000e+02 -4.946114110390e+03 7.014260088658e-01 
1.180000000000e+02 -4.959175935719e+03 7.009475415041e-01 
1.185000000000e+02 -4.972207434515e+03 7.004712493711e-01 
1.190000000000e+02 -4.985211306861e+03 6.999959826612e-01 
1.195000000000e+02 -4.998197199797e+03 6.995287325336e-01 
1.200000000000e+02 -5.011163433737e+03 6.990633408362e-01 
1.205000000000e+02 -5.024086230599e+03 6.986010978966e-01 
1.210000000000e+02 -5.036978295659e+03 6.981401449807e-01 
1.215000000000e+02 -5.049840402778e+03 6.976818682656e-01 
1.220000000000e+02 -5.062664341954e+03 6.972309861307e-01 
1.225000000000e+02 -5.075464068852e+03 6.967809672415e-01 
1.230000000000e+02 -5.088230369186e+03 6.963321441677e-01 
1.235000000000e+02 -5.100969343328e+03 6.958842864348e-01 
1.240000000000e+02 -5.113681405591e+03 6.954373943879e-01 
1.245000000000e+02 -5.126362855507e+03 6.949915931678e-01 
1.250000000000e+02 -5.139013420778e+03 6.945468929628e-01 
1.255000000000e+02 -5.151643875422e+03 6.941029190978e-01 
1.260000000000e+02 -5.164249126898e+03 6.936598334624e-01 
1.265000000000e+02 -5.176826671492e+03 6.932177517541e-01 
1.270000000000e+02 -5.189386205760e+03 6.927763156773e-01 
1.275000000000e+02 -5.201914905015e+03 6.923365354614e-01 
1.280000000000e+02 -5.214428178268e+03 6.918996182309e-01 
1.285000000000e+02 -5.226915803896e+03 6.914636175793e-01 
1.290000000000e+02 -5.239379421152e+03 6.910308895667e-01 
1.295000000000e+02 -5.251831691073e+03 6.906062078479e-01 
1.300000000000e+02 -5.264259559783e+03 6.901825856057e-01 
1.305000000000e+02 -5.276649730214e+03 6.897623194196e-01 
1.310000000000e+02 -5.289013640857e+03 6.893429557186e-01 
1.315000000000e+02 -5.301352050270e+03 6.889260769189e-01 
1.320000000000e+02 -5.313653389985e+03 6.885181514955e-01 
1.325000000000e+02 -5.325936748148e+03 6.881108233417e-01 
1.330000000000e+02 -5.338186633689e+03 6.877046296469e-01 
1.335000000000e+02 -5.350409190294e+03 6.872993399561e-01 
1.340000000000e+02 -5.362609905743e+03 6.868947905641e-01 
1.345000000000e+02 -5.374779173180e+03 6.864913016822e-01 
1.350000000000e+02 -5.386931864580e+03 6.860883707792e-01 
1.355000000000e+02 -5.399056056220e+03 6.856864045278e-01 
1.360000000000e+02 -5.411156571596e+03 6.852852278985e-01 
1.365000000000e+02 -5.423236176554e+03 6.848847568218e-01 
1.370000000000e+02 -5.435292195764e+03 6.844850854201e-01 
1.375000000000e+02 -5.447320493124e+03 6.840863376218e-01 
1.380000000000e+02 -5.459338745742e+03 6.836891420332e-01 
1.385000000000e+02 -5.471333408298e+03 6.832927403880e-01 
1.390000000000e+02 -5.483305865461e+03 6.828970826133e-01 
1.395000000000e+02 -5.495267746217e+03 6.825049286306e-01 
1.400000000000e+02 -5.507210649193e+03 6.821142380786e-01 
1.405000000000e+02 -5.519119552540e+03 6.817249993323e-01 
1.410000000000e+02 -5.531001554297e+03 6.813370255327e-01 
1.415000000000e+02 -5.542864450800e+03 6.809496848540e-01 
1.420000000000e+02 -5.554702417628e+03 6.805641584694e-01 
1.425000000000e+02 -5.566515893138e+03 6.801818575403e-01 
1.430000000000e+02 -5.578308988991e+03 6.798002166625e-01 
1.435000000000e+02 -5.590071492930e+03 6.794195813199e-01 
1.440000000000e+02 -5.601814211745e+03 6.790395914330e-01 
1.445000000000e+02 -5.613539143986e+03 6.786601857614e-01 
1.450000000000e+02 -5.625234651811e+03 6.782817512445e-01 
1.455000000000e+02 -5.636916246408e+03 6.779037769299e-01 
1.460000000000e+02 -5.648576824894e+03 6.775264928674e-01 
1.465000000000e+02 -5.660212045057e+03 6.771500405208e-01 
1.470000000000e+02 -5.671829231072e+03 6.767741767827e-01 
1.475000000000e+02 -5.683425888561e+03 6.763989930527e-01 
1.480000000000e+02 -5.695002135184e+03 6.760244821665e-01 
1.485000000000e+02 -5.706570426953e+03 6.756523142136e-01 
1.490000000000e+02 -5.718114451174e+03 6.752809935561e-01 
1.495000000000e+02 -5.729644017162e+03 6.749101488073e-01 
1.500000000000e+02 -5.741159779043e+03 6.745435772064e-01 
1.505000000000e+02 -5.752655893362e+03 6.741812565422e-01 
1.510000000000e+02 -5.764131482425e+03 6.738195910751e-01 
1.515000000000e+02 -5.775580117404e+03 6.734604607971e-01 
1.520000000000e+02 -5.787008564653e+03 6.731019729813e-01 
1.525000000000e+02 -5.798421014930e+03 6.727439947984e-01 
1.530000000000e+02 -5.809814562215e+03 6.723905378487e-01 
1.535000000000e+02 -5.821185086828e+03 6.720407598846e-01 
1.540000000000e+02 -5.832532880787e+03 6.716916823984e-01 
1.545000000000e+02 -5.843852337893e+03 6.713434926934e-01 
1.550000000000e+02 -5.855159080797e+03 6.709956965452e-01 
1.555000000000e+02 -5.866448328210e+03 6.706484457872e-01 
1.560000000000e+02 -5.877718991336e+03 6.703017848909e-01 
1.565000000000e+02 -5.888973408332e+03 6.699556339958e-01 
1.570000000000e+02 -5.900207821314e+03 6.696101034166e-01 
1.575000000000e+02 -5.911418881462e+03 6.692652998448e-01 
1.580000000000e+02 -5.922618657691e+03 6.689208531758e-01 
1.585000000000e+02 -5.933803359954e+03 6.685768770444e-01 
1.590000000000e+02 -5.944966152082e+03 6.682338507459e-01 
1.595000000000e+02 -5.956120689531e+03 6.678924136349e-01 
1.600000000000e+02 -5.967259862343e+03 6.675514574698e-01 
1.605000000000e+02 -5.978378940214e+03 6.672111269329e-01 
1.610000000000e+02 -5.989483101317e+03 6.668736138828e-01 
1.615000000000e+02 -6.000576553804e+03 6.665395055759e-01 
1.620000000000e+02 -6.011650771025e+03 6.662059949077e-01 
1.625000000000e+02 -6.022699829227e+03 6.658740592813e-01 
1.630000000000e+02 -6.033724559300e+03 6.655431743208e-01 
1.635000000000e+02 -6.044734010508e+03 6.652127558449e-01 
1.640000000000e+02 -6.055729164217e+03 6.648828998636e-01 
1.645000000000e+02 -6.066692112864e+03 6.645587717546e-01 
1.650000000000e+02 -6.077632832560e+03 6.642352949006e-01 
1.655000000000e+02 -6.088558369355e+03 6.639122776078e-01 
1.660000000000e+02 -6.099463099100e+03 6.635898931464e-01 
1.665000000000e+02 -6.110349403356e+03 6.632680509719e-01 
1.670000000000e+02 -6.121224345869e+03 6.629465497821e-01 
1.675000000000e+02 -6.132079837919e+03 6.626256421966e-01 
1.680000000000e+02 -6.142915607676e+03 6.623053218727e-01 
1.685000000000e+02 -6.153733069298e+03 6.619855439903e-01 
1.690000000000e+02 -6.164527662049e+03 6.616664583503e-01 
1.695000000000e+02 -6.175309925499e+03 6.613477410548e-01 
1.700000000000e+02 -6.186078745532e+03 6.610294245638e-01 
1.705000000000e+02 -6.196833765703e+03 6.607125742586e-01 
1.710000000000e+02 -6.207575601501e+03 6.603970383771e-01 
1.715000000000e+02 -6.218299607585e+03 6.600820300098e-01 
1.720000000000e+02 -6.229001833051e+03 6.597676716932e-01 
1.725000000000e+02 -6.239693386454e+03 6.594572225649e-01 
1.730000000000e+02 -6.250374515525e+03 6.591503816184e-01 
1.735000000000e+02 -6.261038241443e+03 6.588440522707e-01 
1.740000000000e+02 -6.271672972894e+03 6.585395231600e-01 
1.745000000000e+02 -6.282280309712e+03 6.582364166280e-01 
1.750000000000e+02 -6.292860861272e+03 6.579340909513e-01 
1.755000000000e+02 -6.303403990593e+03 6.576328544134e-01 
1.760000000000e+02 -6.313893502165e+03 6.573370907075e-01 
1.765000000000e+02 -6.324322662075e+03 6.570454817557e-01 
1.770000000000e+02 -6.334674806644e+03 6.567560719604e-01 
1.775000000000e+02 -6.344921619849e+03 6.564696668651e-01 
1.780000000000e+02 -6.355032704341e+03 6.561871266777e-01 
1.785000000000e+02 -6.364972073476e+03 6.559094815571e-01 
1.790000000000e+02 -6.374687823954e+03 6.556382054870e-01 
1.795000000000e+02 -6.384107947151e+03 6.553753430715e-01 
1.800000000000e+02 -6.393149918824e+03 6.551232384337e-01 
1.805000000000e+02 -6.401717881096e+03 6.548846146833e-01 
1.810000000000e+02 -6.409699536081e+03 6.546626681593e-01 
1.815000000000e+02 -6.416942352151e+03 6.544617263545e-01 
1.820000000000e+02 -6.423267060571e+03 6.542868657535e-01 
1.825000000000e+02 -6.428463415864e+03 6.541440480526e-01 
1.830000000000e+02 -6.432282958662e+03 6.540403189776e-01 
1.835000000000e+02 -6.434430532036e+03 6.539840409503e-01 
1.840000000000e+02 -6.434557797895e+03 6.539850749692e-01 
1.845000000000e+02 -6.432262598097e+03 6.540548004620e-01 
1.850000000000e+02 -6.427077417579e+03 6.542064441373e-01 
1.855000000000e+02 -6.418465158164e+03 6.544551887873e-01 
1.860000000000e+02 -6.405824294844e+03 6.548180167519e-01 
1.865000000000e+02 -6.388473754256e+03 6.553141696372e-01 
1.870000000000e+02 -6.365671853661e+03 6.559645525976e-01 
1.875000000000e+02 -6.336583075550e+03 6.567926941650e-01 
1.880000000000e+02 -6.300318788097e+03 6.578383164558e-01 
1.885000000000e+02 -6.255955391370e+03 6.591285366975e-01 
1.890000000000e+02 -6.202577141752e+03 6.607008744565e-01 
1.895000000000e+02 -6.139357479924e+03 6.625868953243e-01 
1.900000000000e+02 -6.065411870099e+03 6.648078561390e-01 
1.905000000000e+02 -5.979948133971e+03 6.674049117064e-01 
1.910000000000e+02 -5.882659862465e+03 6.704123230203e-01 
1.915000000000e+02 -5.773249154408e+03 6.738509112204e-01 
1.920000000000e+02 -5.651765153953e+03 6.777545760276e-01 
1.925000000000e+02 -5.518935366619e+03 6.821030731176e-01 
1.930000000000e+02 -5.375951237306e+03 6.868375059147e-01 
1.935000000000e+02 -5.224971583066e+03 6.919711573205e-01 
1.940000000000e+02 -5.068977534316e+03 6.974686798492e-01 
1.945000000000e+02 -4.911169827523e+03 7.031717151569e-01 
1.950000000000e+02 -4.755177749701e+03 7.089801544197e-01 
1.955000000000e+02 -4.604144543990e+03 7.147711229079e-01 
1.960000000000e+02 -4.460407113264e+03 7.204271527525e-01 
1.965000000000e+02 -4.326003662214e+03 7.258403128525e-01 
1.970000000000e+02 -4.201617280463e+03 7.309843247605e-01 
1.975000000000e+02 -4.088074202571e+03 7.358034177863e-01 
1.980000000000e+02 -3.984898970807e+03 7.402696175903e-01 
1.985000000000e+02 -3.891937301866e+03 7.443788753043e-01 
1.990000000000e+02 -3.808510477845e+03 7.481104025806e-01 
1.995000000000e+02 -3.733663154408e+03 7.515200563047e-01 
2.000000000000e+02 -3.666896329056e+03 7.546440080002e-01 
2.005000000000e+02 -3.607445033004e+03 7.574495886851e-01 
2.010000000000e+02 -3.554455139214e+03 7.599601455841e-01 
2.015000000000e+02 -3.507255174535e+03 7.622266711791e-01 
2.020000000000e+02 -3.465306628979e+03 7.642634689800e-01 
2.025000000000e+02 -3.428138578599e+03 7.660928985243e-01 
2.030000000000e+02 -3.395275733843e+03 7.677178965250e-01 
2.035000000000e+02 -3.366210358574e+03 7.691545100464e-01 
2.040000000000e+02 -3.340569587218e+03 7.704212026490e-01 
2.045000000000e+02 -3.318036872161e+03 7.715336550876e-01 
2.050000000000e+02 -3.298259823656e+03 7.725127280119e-01 
2.055000000000e+02 -3.281003817239e+03 7.733795031422e-01 
2.060000000000e+02 -3.266068721382e+03 7.741289197859e-01 
2.065000000000e+02 -3.253213675331e+03 7.747751399381e-01 
2.070000000000e+02 -3.242284924998e+03 7.753241627145e-01 
2.075000000000e+02 -3.233149540377e+03 7.757867179539e-01 
2.080000000000e+02 -3.225653951623e+03 7.761703206641e-01 
2.085000000000e+02 -3.219660303383e+03 7.764758731771e-01 
2.090000000000e+02 -3.215049518310e+03 7.767095551925e-01 
2.095000000000e+02 -3.211727149276e+03 7.768762755538e-01 
2.100000000000e+02 -3.209596202212e+03 7.769810710630e-01 
2.105000000000e+02 -3.208580764332e+03 7.770278910968e-01 
2.110000000000e+02 -3.208606686976e+03 7.770205839493e-01 
2.115000000000e+02 -3.209600594014e+03 7.769629622952e-01 
2.120000000000e+02 -3.211499505549e+03 7.768582966758e-01 
2.125000000000e+02 -3.214246003215e+03 7.767095733371e-01 
2.130000000000e+02 -3.217788582728e+03 7.765194677168e-01 
2.135000000000e+02 -3.222073602345e+03 7.762907790304e-01 
2.140000000000e+02 -3.227056723433e+03 7.760258073060e-01 
2.145000000000e+02 -3.232696595112e+03 7.757267012041e-01 
2.150000000000e+02 -3.238950681909e+03 7.753956797358e-01 
2.155000000000e+02 -3.245804052251e+03 7.750407936610e-01 
2.160000000000e+02 -3.253205225903e+03 7.746585632251e-01 
2.165000000000e+02 -3.261115192692e+03 7.742507381172e-01 
2.170000000000e+02 -3.269487144326e+03 7.738210913451e-01 
2.175000000000e+02 -3.278307575017e+03 7.733687526246e-01 
2.180000000000e+02 -3.287554564876e+03 7.728955995010e-01 
2.185000000000e+02 -3.297178763126e+03 7.724127278343e-01 
2.190000000000e+02 -3.307166392648e+03 7.719118351148e-01 
2.195000000000e+02 -3.317495835949e+03 7.713940231802e-01 
2.200000000000e+02 -3.328146604621e+03 7.708602764819e-01 
2.205000000000e+02 -3.339080439701e+03 7.703125254820e-01 
2.210000000000e+02 -3.350299109445e+03 7.697506659680e-01 
2.215000000000e+02 -3.361773490087e+03 7.691761602873e-01 
2.220000000000e+02 -3.373504702441e+03 7.685889316156e-01 
2.225000000000e+02 -3.385451259303e+03 7.679910587854e-01 
2.230000000000e+02 -3.397611096545e+03 7.673826372047e-01 
2.235000000000e+02 -3.409974035378e+03 7.667641648503e-01 
2.240000000000e+02 -3.422528093445e+03 7.661362572085e-01 
2.245000000000e+02 -3.435257738820e+03 7.654996737274e-01 
2.250000000000e+02 -3.448156362700e+03 7.648547453998e-01 
2.255000000000e+02 -3.461209005003e+03 7.642022181110e-01 
2.260000000000e+02 -3.474412443160e+03 7.635457089347e-01 
2.265000000000e+02 -3.487748683479e+03 7.628830081099e-01 
2.270000000000e+02 -3.501222082009e+03 7.622246894630e-01 
2.275000000000e+02 -3.514806979359e+03 7.615641477010e-01 
2.280000000000e+02 -3.528479256805e+03 7.609011168913e-01 
2.285000000000e+02 -3.542238467635e+03 7.602392386503e-01 
2.290000000000e+02 -3.556067847753e+03 7.595810203918e-01 
2.295000000000e+02 -3.569972509407e+03 7.589192967742e-01 
2.300000000000e+02 -3.583942928627e+03 7.582544855815e-01 
2.305000000000e+02 -3.597974271901e+03 7.575868461434e-01 
2.310000000000e+02 -3.612059196184e+03 7.569167219517e-01 
2.315000000000e+02 -3.626204514934e+03 7.562437763781e-01 
2.320000000000e+02 -3.640394240547e+03 7.555687805981e-01 
2.325000000000e+02 -3.654632210260e+03 7.548915538415e-01 
2.330000000000e+02 -3.668925423292e+03 7.542117530897e-01 
2.335000000000e+02 -3.683257994207e+03 7.535301412667e-01 
2.340000000000e+02 -3.697630462332e+03 7.528466920868e-01 
2.345000000000e+02 -3.712043092691e+03 7.521616397380e-01 
2.350000000000e+02 -3.726504060478e+03 7.514788296163e-01 
2.355000000000e+02 -3.740992875724e+03 7.507963760322e-01 
2.360000000000e+02 -3.755532515304e+03 7.501264842470e-01 
2.365000000000e+02 -3.770072373085e+03 7.494590984779e-01 
2.370000000000e+02 -3.784623561928e+03 7.487923301506e-01 
2.375000000000e+02 -3.799170786532e+03 7.481379685867e-01 
2.380000000000e+02 -3.813727168928e+03 7.474863036863e-01 
2.385000000000e+02 -3.828281128465e+03 7.468347758545e-01 
2.390000000000e+02 -3.842838166870e+03 7.461831577852e-01 
2.395000000000e+02 -3.857391620934e+03 7.455317403413e-01 
2.400000000000e+02 -3.871951731858e+03 7.448800748293e-01 
2.405000000000e+02 -3.886502945595e+03 7.442288354889e-01 
2.410000000000e+02 -3.901059041456e+03 7.435774277441e-01 
2.415000000000e+02 -3.915614601928e+03 7.429260898112e-01 
2.420000000000e+02 -3.930171680419e+03 7.422747213452e-01 
2.425000000000e+02 -3.944728613344e+03 7.416234050228e-01 
2.430000000000e+02 -3.959281175821e+03 7.409723262217e-01 
2.435000000000e+02 -3.973852986775e+03 7.403238367195e-01 
2.440000000000e+02 -3.988416735311e+03 7.396758246105e-01 
2.445000000000e+02 -4.002991531166e+03 7.390386922713e-01 
2.450000000000e+02 -4.017547682173e+03 7.384041702641e-01 
2.455000000000e+02 -4.032087747040e+03 7.377716337599e-01 
2.460000000000e+02 -4.046613051728e+03 7.371452114543e-01 
2.465000000000e+02 -4.061117817983e+03 7.365249918523e-01 
2.470000000000e+02 -4.075593080669e+03 7.359060679253e-01 
2.475000000000e+02 -4.090059514673e+03 7.352875409138e-01 
2.480000000000e+02 -4.104507568357e+03 7.346698510704e-01 
2.485000000000e+02 -4.118936073659e+03 7.340530292662e-01 
2.490000000000e+02 -4.133346254105e+03 7.334370082597e-01 
2.495000000000e+02 -4.147738844223e+03 7.328217849845e-01 
2.500000000000e+02 -4.162119387691e+03 7.322071148845e-01 
2.505000000000e+02 -4.176483923753e+03 7.315931588754e-01 
2.510000000000e+02 -4.190828930183e+03 7.309800691101e-01 
2.515000000000e+02 -4.205163275894e+03 7.303674744638e-01 
2.520000000000e+02 -4.219486947571e+03 7.297587052386e-01 
2.525000000000e+02 -4.233797116472e+03 7.291512447432e-01 