 TITLE = "Time curves in points"
 VARIABLES = "TIME "  "PRESSURE1"  "SATURATION1" 
 ZONE T="POINT=POINT8"
0.000000000000e+00 -3.107139637107e+03 7.819628839884e-01 
5.000000000000e-01 -3.109262047045e+03 7.818553604223e-01 
1.000000000000e+00 -3.097940659127e+03 7.824736777481e-01 
1.500000000000e+00 -3.060970642006e+03 7.844693149558e-01 
2.000000000000e+00 -2.989771440931e+03 7.883335803907e-01 
2.500000000000e+00 -2.884159745428e+03 7.943183797496e-01 
3.000000000000e+00 -2.750399971686e+03 8.019052088061e-01 
3.500000000000e+00 -2.598728077851e+03 8.109154519443e-01 
4.000000000000e+00 -2.439070308788e+03 8.206620522124e-01 
4.500000000000e+00 -2.280732086079e+03 8.306838458483e-01 
5.000000000000e+00 -2.128895972102e+03 8.406754097609e-01 
5.500000000000e+00 -1.987358678102e+03 8.501340916870e-01 
6.000000000000e+00 -1.856866174399e+03 8.592879925371e-01 
6.500000000000e+00 -1.738012594954e+03 8.678345414303e-01 
7.000000000000e+00 -1.630555833618e+03 8.757259849856e-01 
7.500000000000e+00 -1.533442933223e+03 8.830278327399e-01 
8.000000000000e+00 -1.445650515285e+03 8.897311351579e-01 
8.500000000000e+00 -1.366315697124e+03 8.958885591331e-01 
9.000000000000e+00 -1.294665015750e+03 9.015355656419e-01 
9.500000000000e+00 -1.229747462934e+03 9.067059859208e-01 
1.000000000000e+01 -1.170645039824e+03 9.114449853852e-01 
1.050000000000e+01 -1.116882606465e+03 9.157822519645e-01 
1.100000000000e+01 -1.067712743768e+03 9.198160856529e-01 
1.150000000000e+01 -1.022835668028e+03 9.235256497841e-01 
1.200000000000e+01 -9.815854747341e+02 9.269331914472e-01 
1.250000000000e+01 -9.437996582703e+02 9.300561327510e-01 
1.300000000000e+01 -9.089715782479e+02 9.329359952720e-01 
1.350000000000e+01 -8.767865477831e+02 9.356186870977e-01 
1.400000000000e+01 -8.471866153915e+02 9.380944991833e-01 
1.450000000000e+01 -8.197910177673e+02 9.403865713871e-01 
1.500000000000e+01 -7.943005907177e+02 9.425184073539e-01 
1.550000000000e+01 -7.706489546758e+02 9.444967106293e-01 
1.600000000000e+01 -7.486664785854e+02 9.463359090985e-01 
1.650000000000e+01 -7.281445229730e+02 9.480532556276e-01 
1.700000000000e+01 -7.089105868020e+02 9.496630965776e-01 
1.750000000000e+01 -6.908559307007e+02 9.511726156352e-01 
1.800000000000e+01 -6.740379323728e+02 9.525793959208e-01 
1.850000000000e+01 -6.583354655418e+02 9.538931045082e-01 
1.900000000000e+01 -6.436229806746e+02 9.551241888238e-01 
1.950000000000e+01 -6.297961743209e+02 9.562813320186e-01 
2.000000000000e+01 -6.167668032559e+02 9.573718803624e-01 
2.050000000000e+01 -6.044605959297e+02 9.584020212033e-01 
2.100000000000e+01 -5.928463294278e+02 9.593567877786e-01 
2.150000000000e+01 -5.819873061941e+02 9.602433898085e-01 
2.200000000000e+01 -5.718185204300e+02 9.610737503745e-01 
2.250000000000e+01 -5.622736165959e+02 9.618532625872e-01 
2.300000000000e+01 -5.532955627149e+02 9.625865632447e-01 
2.350000000000e+01 -5.448345992739e+02 9.632776993033e-01 
2.400000000000e+01 -5.368472847757e+02 9.639302051218e-01 
2.450000000000e+01 -5.631390042445e+02 9.617551044120e-01 
2.500000000000e+01 -6.247518618567e+02 9.566257473487e-01 
2.550000000000e+01 -6.928238198313e+02 9.508875093018e-01 
2.600000000000e+01 -7.582862568666e+02 9.453752844544e-01 
2.650000000000e+01 -8.186874187127e+02 9.402925755467e-01 
2.700000000000e+01 -8.745132564260e+02 9.355970047438e-01 
2.750000000000e+01 -9.257253539539e+02 9.313165823155e-01 
2.800000000000e+01 -9.736429695956e+02 9.273358433727e-01 
2.850000000000e+01 -1.018297794247e+03 9.236264067522e-01 
2.900000000000e+01 -1.060480135155e+03 9.201227341971e-01 
2.950000000000e+01 -1.100344208392e+03 9.168151887130e-01 
3.000000000000e+01 -1.138180635386e+03 9.137474100273e-01 
3.050000000000e+01 -1.174357308167e+03 9.108156318310e-01 
3.100000000000e+01 -1.208894610664e+03 9.080264530161e-01 
3.150000000000e+01 -1.242039626801e+03 9.053735287699e-01 
3.200000000000e+01 -1.273944964528e+03 9.028200436239e-01 
3.250000000000e+01 -1.304670407471e+03 9.003665330380e-01 
3.300000000000e+01 -1.334352213747e+03 8.980206983461e-01 
3.350000000000e+01 -1.363077812338e+03 8.957505891280e-01 
3.400000000000e+01 -1.390878457105e+03 8.935537464046e-01 
3.450000000000e+01 -1.417805476148e+03 8.914630019156e-01 
3.500000000000e+01 -1.444002663297e+03 8.894451236381e-01 
3.550000000000e+01 -1.469495593349e+03 8.874815982383e-01 
3.600000000000e+01 -1.494304736390e+03 8.855708582176e-01 
3.650000000000e+01 -1.518482382953e+03 8.837278781535e-01 
3.700000000000e+01 -1.542122287637e+03 8.819307152081e-01 
3.750000000000e+01 -1.565236176109e+03 8.801736181181e-01 
3.800000000000e+01 -1.587832711685e+03 8.784559265742e-01 
3.850000000000e+01 -1.609932573526e+03 8.767975681114e-01 
3.900000000000e+01 -1.631604386587e+03 8.751934434057e-01 
3.950000000000e+01 -1.652868513234e+03 8.736195491666e-01 
4.000000000000e+01 -1.673731736973e+03 8.720753789599e-01 
4.050000000000e+01 -1.694199105841e+03 8.705605590848e-01 
4.100000000000e+01 -1.714291038364e+03 8.690885998841e-01 
4.150000000000e+01 -1.734053901747e+03 8.676456074596e-01 
4.200000000000e+01 -1.753495226339e+03 8.662261340877e-01 
4.250000000000e+01 -1.772617404503e+03 8.648300041751e-01 
4.300000000000e+01 -1.791421084848e+03 8.634571716615e-01 
4.350000000000e+01 -1.809915492922e+03 8.621284728102e-01 
4.400000000000e+01 -1.828152305605e+03 8.608333663137e-01 
4.450000000000e+01 -1.846144262333e+03 8.595556798831e-01 
4.500000000000e+01 -1.863895823733e+03 8.582950956744e-01 
4.550000000000e+01 -1.881410181850e+03 8.570513859254e-01 
4.600000000000e+01 -1.898690102943e+03 8.558255762417e-01 
4.650000000000e+01 -1.915753642795e+03 8.546292770000e-01 
4.700000000000e+01 -1.932624152843e+03 8.534481631666e-01 
4.750000000000e+01 -1.949302688675e+03 8.522805416354e-01 
4.800000000000e+01 -1.965787080329e+03 8.511265634199e-01 
4.850000000000e+01 -1.982072876125e+03 8.499865401813e-01 
4.900000000000e+01 -1.998154094387e+03 8.488646459101e-01 
4.950000000000e+01 -2.014045194384e+03 8.478023716299e-01 
5.000000000000e+01 -2.029779842197e+03 8.467574761359e-01 
5.050000000000e+01 -2.045363951933e+03 8.457225974776e-01 
5.100000000000e+01 -2.060801455095e+03 8.446974731975e-01 
5.150000000000e+01 -2.076094755138e+03 8.436819416801e-01 
5.200000000000e+01 -2.091245786002e+03 8.426758729383e-01 
5.250000000000e+01 -2.106256475306e+03 8.416791381639e-01 
5.300000000000e+01 -2.121129815468e+03 8.406915393789e-01 
5.350000000000e+01 -2.135869186104e+03 8.397128531131e-01 
5.400000000000e+01 -2.150476101453e+03 8.387429778822e-01 
5.450000000000e+01 -2.164950091427e+03 8.377819430927e-01 
5.500000000000e+01 -2.179289631710e+03 8.368298481973e-01 
5.550000000000e+01 -2.193492713479e+03 8.358868255243e-01 
5.600000000000e+01 -2.207557101086e+03 8.349530232623e-01 
5.650000000000e+01 -2.221480331522e+03 8.340286054991e-01 
5.700000000000e+01 -2.235259457281e+03 8.331137694540e-01 
5.750000000000e+01 -2.248891468704e+03 8.322129975170e-01 
5.800000000000e+01 -2.262393535894e+03 8.313547483688e-01 
5.850000000000e+01 -2.275794198522e+03 8.305077366245e-01 
5.900000000000e+01 -2.289094977112e+03 8.296670452526e-01 
5.950000000000e+01 -2.302297470763e+03 8.288325733968e-01 
6.000000000000e+01 -2.315403582110e+03 8.280042013661e-01 
6.050000000000e+01 -2.328415515844e+03 8.271817905739e-01 
6.100000000000e+01 -2.341335650940e+03 8.263651915096e-01 
6.150000000000e+01 -2.354166879842e+03 8.255542226666e-01 
6.200000000000e+01 -2.366913312313e+03 8.247486265774e-01 
6.250000000000e+01 -2.379580264056e+03 8.239480703525e-01 
6.300000000000e+01 -2.392171548728e+03 8.231523137825e-01 
6.350000000000e+01 -2.404688635466e+03 8.223612629176e-01 
6.400000000000e+01 -2.417131213156e+03 8.215749355966e-01 
6.450000000000e+01 -2.429498013179e+03 8.207934101383e-01 
6.500000000000e+01 -2.441787146613e+03 8.200168046764e-01 
6.550000000000e+01 -2.453996395039e+03 8.192452586995e-01 
6.600000000000e+01 -2.466123461039e+03 8.184789169966e-01 
6.650000000000e+01 -2.478165824053e+03 8.177179390777e-01 
6.700000000000e+01 -2.490120604355e+03 8.169625077767e-01 
6.750000000000e+01 -2.501985009176e+03 8.162255519248e-01 
6.800000000000e+01 -2.513777036019e+03 8.155263966527e-01 
6.850000000000e+01 -2.525507277966e+03 8.148319419348e-01 
6.900000000000e+01 -2.537176283549e+03 8.141411173698e-01 
6.950000000000e+01 -2.548784483017e+03 8.134538974707e-01 
7.000000000000e+01 -2.560332561148e+03 8.127702419619e-01 
7.050000000000e+01 -2.571821324246e+03 8.120901034333e-01 
7.100000000000e+01 -2.583251839245e+03 8.114134192470e-01 
7.150000000000e+01 -2.594625430636e+03 8.107401116757e-01 
7.200000000000e+01 -2.605943975374e+03 8.100700706900e-01 
7.250000000000e+01 -2.617210623681e+03 8.094031119486e-01 
7.300000000000e+01 -2.628428082499e+03 8.087390763673e-01 
7.350000000000e+01 -2.639597693796e+03 8.080778841722e-01 
7.400000000000e+01 -2.650719474503e+03 8.074195332704e-01 
7.450000000000e+01 -2.661792559163e+03 8.067640736504e-01 
7.500000000000e+01 -2.672815650789e+03 8.061115809425e-01 
7.550000000000e+01 -2.683787178795e+03 8.054621473656e-01 
7.600000000000e+01 -2.694705541934e+03 8.048158671200e-01 
7.650000000000e+01 -2.705569001755e+03 8.041728429905e-01 
7.700000000000e+01 -2.716375769321e+03 8.035331809457e-01 
7.750000000000e+01 -2.727124079473e+03 8.028969856328e-01 
7.800000000000e+01 -2.737811856948e+03 8.022643806623e-01 
7.850000000000e+01 -2.748436847860e+03 8.016391097818e-01 
7.900000000000e+01 -2.759004615377e+03 8.010417312246e-01 
7.950000000000e+01 -2.769527733291e+03 8.004524515441e-01 
8.000000000000e+01 -2.780006504009e+03 7.998656576676e-01 
8.050000000000e+01 -2.790441145403e+03 7.992813375641e-01 
8.100000000000e+01 -2.800831952410e+03 7.986994749047e-01 
8.150000000000e+01 -2.811179310539e+03 7.981200483436e-01 
8.200000000000e+01 -2.821483734311e+03 7.975430294034e-01 
8.250000000000e+01 -2.831745898082e+03 7.969683807626e-01 
8.300000000000e+01 -2.841966736864e+03 7.963960506814e-01 
8.350000000000e+01 -2.852147777416e+03 7.958259547467e-01 
8.400000000000e+01 -2.862291026270e+03 7.952579819362e-01 
8.450000000000e+01 -2.872397862848e+03 7.946920554115e-01 
8.500000000000e+01 -2.882468688035e+03 7.941281522522e-01 
8.550000000000e+01 -2.892503104621e+03 7.935662939180e-01 
8.600000000000e+01 -2.902500269459e+03 7.930065268088e-01 
8.650000000000e+01 -2.912459080899e+03 7.924489120169e-01 
8.700000000000e+01 -2.922378393940e+03 7.918935131602e-01 
8.750000000000e+01 -2.932256989172e+03 7.913403983195e-01 
8.800000000000e+01 -2.942093575022e+03 7.907896398492e-01 
8.850000000000e+01 -2.951886947508e+03 7.902413051436e-01 
8.900000000000e+01 -2.961635735024e+03 7.896954714105e-01 
8.950000000000e+01 -2.971338621478e+03 7.891522126097e-01 
9.000000000000e+01 -2.980993974763e+03 7.886116209667e-01 
9.050000000000e+01 -2.990600126528e+03 7.880737905608e-01 
9.100000000000e+01 -3.000154977525e+03 7.875448607597e-01 
9.150000000000e+01 -3.009668058533e+03 7.870399565644e-01 
9.200000000000e+01 -3.019149722117e+03 7.865393348342e-01 
9.250000000000e+01 -3.028600165442e+03 7.860403636679e-01 
9.300000000000e+01 -3.038019803168e+03 7.855430214286e-01 
9.350000000000e+01 -3.047409040084e+03 7.850472869294e-01 
9.400000000000e+01 -3.056768430646e+03 7.845531312033e-01 
9.450000000000e+01 -3.066098668088e+03 7.840605180291e-01 
9.500000000000e+01 -3.075400624361e+03 7.835694018498e-01 
9.550000000000e+01 -3.084675462097e+03 7.830797219514e-01 
9.600000000000e+01 -3.093925192343e+03 7.825913735106e-01 
9.650000000000e+01 -3.103151995730e+03 7.821042425537e-01 
9.700000000000e+01 -3.112357212639e+03 7.816182584322e-01 
9.750000000000e+01 -3.121541157311e+03 7.811334038646e-01 
9.800000000000e+01 -3.130703392781e+03 7.806497009487e-01 
9.850000000000e+01 -3.139843070398e+03 7.801671935437e-01 
9.900000000000e+01 -3.148959160143e+03 7.796859352493e-01 
9.950000000000e+01 -3.158050580471e+03 7.792059825766e-01 
1.000000000000e+02 -3.167116237217e+03 7.787273929140e-01 
1.005000000000e+02 -3.176155081675e+03 7.782502213620e-01 
1.010000000000e+02 -3.185166068894e+03 7.777745230053e-01 
1.015000000000e+02 -3.194148236270e+03 7.773003485778e-01 
1.020000000000e+02 -3.203100585407e+03 7.768277509174e-01 
1.025000000000e+02 -3.212022096930e+03 7.763567840464e-01 
1.030000000000e+02 -3.220911789398e+03 7.758874999565e-01 
1.035000000000e+02 -3.229768479841e+03 7.754199616565e-01 
1.040000000000e+02 -3.238590985741e+03 7.749542319845e-01 
1.045000000000e+02 -3.247377787443e+03 7.744921035709e-01 
1.050000000000e+02 -3.256131113932e+03 7.740479151702e-01 
1.055000000000e+02 -3.264860794095e+03 7.736114595653e-01 
1.060000000000e+02 -3.273567486315e+03 7.731761542247e-01 
1.065000000000e+02 -3.282251436682e+03 7.727419871743e-01 
1.070000000000e+02 -3.290912889422e+03 7.723089463457e-01 
1.075000000000e+02 -3.299552200618e+03 7.718770141589e-01 
1.080000000000e+02 -3.308169789472e+03 7.714461698878e-01 
1.085000000000e+02 -3.316766214187e+03 7.710163859455e-01 
1.090000000000e+02 -3.325342266901e+03 7.705876232098e-01 
1.095000000000e+02 -3.333899347536e+03 7.701598126426e-01 
1.100000000000e+02 -3.342438888914e+03 7.697328833325e-01 
1.105000000000e+02 -3.350961676610e+03 7.693067959785e-01 
1.110000000000e+02 -3.359467784822e+03 7.688815463181e-01 
1.115000000000e+02 -3.367956808368e+03 7.684571538958e-01 
1.120000000000e+02 -3.376428096030e+03 7.680336506131e-01 
1.125000000000e+02 -3.384880903149e+03 7.676110731743e-01 
1.130000000000e+02 -3.393314474407e+03 7.671894589532e-01 
1.135000000000e+02 -3.401728082249e+03 7.667688440522e-01 
1.140000000000e+02 -3.410121041184e+03 7.663492625649e-01 
1.145000000000e+02 -3.418492704567e+03 7.659307467250e-01 
1.150000000000e+02 -3.426842451827e+03 7.655133275388e-01 
1.155000000000e+02 -3.435169706702e+03 7.650970338162e-01 
1.160000000000e+02 -3.443473880722e+03 7.646818950837e-01 
1.165000000000e+02 -3.451754423505e+03 7.642679389354e-01 
1.170000000000e+02 -3.460010775445e+03 7.638551935013e-01 
1.175000000000e+02 -3.468242324088e+03 7.634436896525e-01 
1.180000000000e+02 -3.476448375433e+03 7.630334624327e-01 
1.185000000000e+02 -3.484628262013e+03 7.626245454499e-01 
1.190000000000e+02 -3.492781049398e+03 7.622169860937e-01 
1.195000000000e+02 -3.500905867563e+03 7.618159491966e-01 
1.200000000000e+02 -3.509008629873e+03 7.614293841033e-01 
1.205000000000e+02 -3.517093659745e+03 7.610445627356e-01 
1.210000000000e+02 -3.525161081878e+03 7.606605804672e-01 
1.215000000000e+02 -3.533211128983e+03 7.602774263846e-01 
1.220000000000e+02 -3.541244080421e+03 7.598950873603e-01 
1.225000000000e+02 -3.549260298583e+03 7.595135463618e-01 
1.230000000000e+02 -3.557260212688e+03 7.591327831954e-01 
1.235000000000e+02 -3.565244423014e+03 7.587527696421e-01 
1.240000000000e+02 -3.573213955121e+03 7.583734575683e-01 
1.245000000000e+02 -3.581170036174e+03 7.579947892605e-01 
1.250000000000e+02 -3.589113389285e+03 7.576167303668e-01 
1.255000000000e+02 -3.597044119984e+03 7.572392754399e-01 
1.260000000000e+02 -3.604961915355e+03 7.568624387890e-01 
1.265000000000e+02 -3.612866251835e+03 7.564862447862e-01 
1.270000000000e+02 -3.620756527951e+03 7.561107216178e-01 
1.275000000000e+02 -3.628632133719e+03 7.557358979877e-01 
1.280000000000e+02 -3.636492482077e+03 7.553618016056e-01 
1.285000000000e+02 -3.644337020329e+03 7.549884586219e-01 
1.290000000000e+02 -3.652165231692e+03 7.546158935380e-01 
1.295000000000e+02 -3.659976632220e+03 7.542441293396e-01 
1.300000000000e+02 -3.667770765703e+03 7.538731877303e-01 
1.305000000000e+02 -3.675547197925e+03 7.535030893984e-01 
1.310000000000e+02 -3.683305511142e+03 7.531338542750e-01 
1.315000000000e+02 -3.691045297887e+03 7.527655018267e-01 
1.320000000000e+02 -3.698766123606e+03 7.523980528812e-01 
1.325000000000e+02 -3.706467561584e+03 7.520315278727e-01 
1.330000000000e+02 -3.714149126890e+03 7.516659501121e-01 
1.335000000000e+02 -3.721810348631e+03 7.513013421760e-01 
1.340000000000e+02 -3.729450657436e+03 7.509377314938e-01 
1.345000000000e+02 -3.737069361896e+03 7.505751514082e-01 
1.350000000000e+02 -3.744665759776e+03 7.502136356719e-01 
1.355000000000e+02 -3.752239303100e+03 7.498622308710e-01 
1.360000000000e+02 -3.759796316953e+03 7.495232564356e-01 
1.365000000000e+02 -3.767339384428e+03 7.491853526860e-01 
1.370000000000e+02 -3.774868648547e+03 7.488480682679e-01 
1.375000000000e+02 -3.782384367612e+03 7.485113917651e-01 
1.380000000000e+02 -3.789886806556e+03 7.481753114373e-01 
1.385000000000e+02 -3.797376337499e+03 7.478398108214e-01 
1.390000000000e+02 -3.804853440773e+03 7.475048686634e-01 
1.395000000000e+02 -3.812318832619e+03 7.471704533042e-01 
1.400000000000e+02 -3.819773704099e+03 7.468365121488e-01 
1.405000000000e+02 -3.827218847224e+03 7.465030099103e-01 
1.410000000000e+02 -3.834654442643e+03 7.461699381578e-01 
1.415000000000e+02 -3.842080243168e+03 7.458373074261e-01 
1.420000000000e+02 -3.849495783654e+03 7.455051380368e-01 
1.425000000000e+02 -3.856900521855e+03 7.451734538609e-01 
1.430000000000e+02 -3.864293912104e+03 7.448422790262e-01 
1.435000000000e+02 -3.871675436521e+03 7.445116365063e-01 
1.440000000000e+02 -3.879044612226e+03 7.441815477827e-01 
1.445000000000e+02 -3.886400997248e+03 7.438520325531e-01 
1.450000000000e+02 -3.893744188115e+03 7.435231088287e-01 
1.455000000000e+02 -3.901073813861e+03 7.431947931968e-01 
1.460000000000e+02 -3.908389529628e+03 7.428671011014e-01 
1.465000000000e+02 -3.915691010678e+03 7.425400471078e-01 
1.470000000000e+02 -3.922977946904e+03 7.422136451450e-01 
1.475000000000e+02 -3.930250037756e+03 7.418879087314e-01 
1.480000000000e+02 -3.937506987473e+03 7.415628511872e-01 
1.485000000000e+02 -3.944748500541e+03 7.412384858377e-01 
1.490000000000e+02 -3.951974277301e+03 7.409148262099e-01 
1.495000000000e+02 -3.959183975742e+03 7.405918877970e-01 
1.500000000000e+02 -3.966377247555e+03 7.402696863504e-01 
1.505000000000e+02 -3.973553741573e+03 7.399482377470e-01 
1.510000000000e+02 -3.980712962810e+03 7.396275645278e-01 
1.515000000000e+02 -3.987854354163e+03 7.393076919819e-01 
1.520000000000e+02 -3.994977356010e+03 7.389886454399e-01 
1.525000000000e+02 -4.002081489294e+03 7.386764961359e-01 
1.530000000000e+02 -4.009172089652e+03 7.383727282811e-01 
1.535000000000e+02 -4.016251359919e+03 7.380697615210e-01 
1.540000000000e+02 -4.023319485231e+03 7.377672726421e-01 
1.545000000000e+02 -4.030376673525e+03 7.374652528401e-01 
1.550000000000e+02 -4.037423214896e+03 7.371636898574e-01 
1.555000000000e+02 -4.044459469866e+03 7.368625684549e-01 
1.560000000000e+02 -4.051485948314e+03 7.365618670980e-01 
1.565000000000e+02 -4.058503588699e+03 7.362615462345e-01 
1.570000000000e+02 -4.065513228493e+03 7.359615703831e-01 
1.575000000000e+02 -4.072515189666e+03 7.356619256044e-01 
1.580000000000e+02 -4.079509345605e+03 7.353626168770e-01 
1.585000000000e+02 -4.086495323894e+03 7.350636596651e-01 
1.590000000000e+02 -4.093472656365e+03 7.347650736095e-01 
1.595000000000e+02 -4.100440863299e+03 7.344668789405e-01 
1.600000000000e+02 -4.107399489648e+03 7.341690949186e-01 
1.605000000000e+02 -4.114348116168e+03 7.338717393402e-01 
1.610000000000e+02 -4.121286363227e+03 7.335748283542e-01 
1.615000000000e+02 -4.128213885371e+03 7.332783766866e-01 
1.620000000000e+02 -4.135130370479e+03 7.329823976601e-01 
1.625000000000e+02 -4.142035535604e+03 7.326869033680e-01 
1.630000000000e+02 -4.148929120564e+03 7.323919049470e-01 
1.635000000000e+02 -4.155810876984e+03 7.320974130530e-01 
1.640000000000e+02 -4.162680571849e+03 7.318034376888e-01 
1.645000000000e+02 -4.169537983527e+03 7.315099883796e-01 
1.650000000000e+02 -4.176382896028e+03 7.312170744223e-01 
1.655000000000e+02 -4.183215094095e+03 7.309247050959e-01 
1.660000000000e+02 -4.190034359034e+03 7.306328898398e-01 
1.665000000000e+02 -4.196840464868e+03 7.303416384193e-01 
1.670000000000e+02 -4.203633174575e+03 7.300509610865e-01 
1.675000000000e+02 -4.209184715056e+03 7.298153085327e-01 
1.680000000000e+02 -4.208898712298e+03 7.298373472369e-01 
1.685000000000e+02 -4.194438165018e+03 7.304819997735e-01 
1.690000000000e+02 -4.155535886249e+03 7.321946857893e-01 
1.695000000000e+02 -4.082817110414e+03 7.353769891388e-01 
1.700000000000e+02 -3.970421311162e+03 7.403408366010e-01 
1.705000000000e+02 -3.819127658715e+03 7.472097048248e-01 
1.710000000000e+02 -3.634894644387e+03 7.558862243375e-01 
1.715000000000e+02 -3.428503297344e+03 7.659637135639e-01 
1.720000000000e+02 -3.211665978025e+03 7.769779767712e-01 
1.725000000000e+02 -2.995100799665e+03 7.884944287334e-01 
1.730000000000e+02 -2.787473926734e+03 8.000990313928e-01 
1.735000000000e+02 -2.593465965035e+03 8.114545709113e-01 
1.740000000000e+02 -2.414595355455e+03 8.223849608783e-01 
1.745000000000e+02 -2.251677409995e+03 8.326993967018e-01 
1.750000000000e+02 -2.104155681961e+03 8.424189009299e-01 
1.755000000000e+02 -1.970696640494e+03 8.513761925189e-01 
1.760000000000e+02 -1.849949621258e+03 8.598430119667e-01 
1.765000000000e+02 -1.740858846086e+03 8.676797606236e-01 
1.770000000000e+02 -1.642400229160e+03 8.748945716060e-01 
1.775000000000e+02 -1.553195890434e+03 8.815666648956e-01 
1.780000000000e+02 -1.472121087275e+03 8.877292283584e-01 
1.785000000000e+02 -1.398354310168e+03 8.934015654860e-01 
1.790000000000e+02 -1.331151919046e+03 8.986755436055e-01 
1.795000000000e+02 -1.269731370584e+03 9.035368084883e-01 
1.800000000000e+02 -1.213478481276e+03 9.080182849529e-01 
1.805000000000e+02 -1.161706334590e+03 9.121781503579e-01 
1.810000000000e+02 -1.114097152073e+03 9.160184725328e-01 
1.815000000000e+02 -1.070094618564e+03 9.196283027423e-01 
1.820000000000e+02 -1.029522155984e+03 9.229807038042e-01 
1.825000000000e+02 -9.918658558579e+02 9.260906740104e-01 
1.830000000000e+02 -9.570020870403e+02 9.289707156199e-01 
1.835000000000e+02 -9.246393204460e+02 9.316452573749e-01 
1.840000000000e+02 -8.944210910367e+02 9.341493762116e-01 
1.845000000000e+02 -8.663318687316e+02 9.364970358312e-01 
1.850000000000e+02 -8.401983276070e+02 9.386826484648e-01 
1.855000000000e+02 -8.157609269161e+02 9.407269357377e-01 
1.860000000000e+02 -7.928219803911e+02 9.426447879218e-01 
1.865000000000e+02 -7.713625227714e+02 9.444394777772e-01 
1.870000000000e+02 -7.512563636300e+02 9.461214075165e-01 
1.875000000000e+02 -7.323486462999e+02 9.477033949648e-01 
1.880000000000e+02 -7.145109563208e+02 9.491961128010e-01 
1.885000000000e+02 -6.976375736797e+02 9.506072082308e-01 
1.890000000000e+02 -6.817662399028e+02 9.519343333431e-01 
1.895000000000e+02 -6.668635257197e+02 9.531808816144e-01 
1.900000000000e+02 -6.528279862568e+02 9.543550899170e-01 
1.905000000000e+02 -6.395740617362e+02 9.554640741638e-01 
1.910000000000e+02 -6.270285551410e+02 9.565139250678e-01 
1.915000000000e+02 -6.480781623906e+02 9.547236751748e-01 
1.920000000000e+02 -7.060300624361e+02 9.498245273636e-01 
1.925000000000e+02 -7.729793402719e+02 9.441771707696e-01 
1.930000000000e+02 -8.385204608910e+02 9.386563830234e-01 
1.935000000000e+02 -8.995774735139e+02 9.335176718602e-01 
1.940000000000e+02 -9.562686451408e+02 9.288043946252e-01 
1.945000000000e+02 -1.008657128644e+03 9.244505885639e-01 
1.950000000000e+02 -1.057785097251e+03 9.203685241435e-01 
1.955000000000e+02 -1.103666728529e+03 9.165650947249e-01 
1.960000000000e+02 -1.147094606993e+03 9.130444148825e-01 
1.965000000000e+02 -1.188193822835e+03 9.097130545681e-01 
1.970000000000e+02 -1.227103979813e+03 9.065866847689e-01 
1.975000000000e+02 -1.264350351288e+03 9.036051133610e-01 
1.980000000000e+02 -1.299891451508e+03 9.007613431626e-01 
1.985000000000e+02 -1.333948355200e+03 8.980685677273e-01 
1.990000000000e+02 -1.366765312331e+03 8.954747362851e-01 
1.995000000000e+02 -1.398297876640e+03 8.929836240512e-01 
2.000000000000e+02 -1.428675676723e+03 8.906401051757e-01 
2.005000000000e+02 -1.458149949647e+03 8.883695696349e-01 
2.010000000000e+02 -1.486703925722e+03 8.861700965393e-01 
2.015000000000e+02 -1.514337749538e+03 8.840563831197e-01 
2.020000000000e+02 -1.541218816004e+03 8.820125311262e-01 
2.025000000000e+02 -1.567414902894e+03 8.800208981867e-01 
2.030000000000e+02 -1.592918005305e+03 8.780820659349e-01 
2.035000000000e+02 -1.617745695073e+03 8.762313796951e-01 
2.040000000000e+02 -1.641995846480e+03 8.744362044346e-01 
2.045000000000e+02 -1.665700721412e+03 8.726814767729e-01 
2.050000000000e+02 -1.688869340704e+03 8.709665240294e-01 
2.055000000000e+02 -1.711507075814e+03 8.693030401042e-01 
2.060000000000e+02 -1.733681867490e+03 8.676837339650e-01 
2.065000000000e+02 -1.755412873134e+03 8.660968852263e-01 
2.070000000000e+02 -1.776715890351e+03 8.645413542953e-01 
2.075000000000e+02 -1.797589547349e+03 8.630182289056e-01 
2.080000000000e+02 -1.818064457365e+03 8.615597169242e-01 
2.085000000000e+02 -1.838202332223e+03 8.601294415646e-01 
2.090000000000e+02 -1.858012226191e+03 8.587224987424e-01 
2.095000000000e+02 -1.877509835619e+03 8.573377829250e-01 
2.100000000000e+02 -1.896703456865e+03 8.559749116928e-01 
2.105000000000e+02 -1.915610381172e+03 8.546483089753e-01 
2.110000000000e+02 -1.934259446224e+03 8.533425270789e-01 
2.115000000000e+02 -1.952645723307e+03 8.520552064437e-01 
2.120000000000e+02 -1.970764833697e+03 8.507866575257e-01 
2.125000000000e+02 -1.988614934647e+03 8.495370202182e-01 
2.130000000000e+02 -2.006189688698e+03 8.483319111712e-01 
2.135000000000e+02 -2.023535788473e+03 8.471798684606e-01 
2.140000000000e+02 -2.040670203635e+03 8.460419033576e-01 
2.145000000000e+02 -2.057596110883e+03 8.449178035811e-01 
2.150000000000e+02 -2.074318317105e+03 8.438072497917e-01 
2.155000000000e+02 -2.090845498496e+03 8.427096695372e-01 
2.160000000000e+02 -2.107181935195e+03 8.416247766687e-01 
2.165000000000e+02 -2.123327934525e+03 8.405525463326e-01 
2.170000000000e+02 -2.139282358921e+03 8.394930503852e-01 
2.175000000000e+02 -2.155044058576e+03 8.384463631294e-01 
2.180000000000e+02 -2.170612222388e+03 8.374125378516e-01 
2.185000000000e+02 -2.185986410411e+03 8.363916041074e-01 
2.190000000000e+02 -2.201166109268e+03 8.353835973628e-01 
2.195000000000e+02 -2.216150820001e+03 8.343885523959e-01 
2.200000000000e+02 -2.230939054079e+03 8.334065712288e-01 
2.205000000000e+02 -2.245528590928e+03 8.324378047930e-01 
2.210000000000e+02 -2.259931543339e+03 8.315157727550e-01 
2.215000000000e+02 -2.274195723312e+03 8.306140442519e-01 
2.220000000000e+02 -2.288327614368e+03 8.297206900434e-01 
2.225000000000e+02 -2.302331257422e+03 8.288354558179e-01 
2.230000000000e+02 -2.316211233023e+03 8.279580533256e-01 
2.235000000000e+02 -2.329972718696e+03 8.270881569729e-01 
2.240000000000e+02 -2.343623229348e+03 8.262252955787e-01 
2.245000000000e+02 -2.357170752133e+03 8.253689675796e-01 
2.250000000000e+02 -2.370619473860e+03 8.245189072846e-01 
2.255000000000e+02 -2.383970176858e+03 8.236750619955e-01 
2.260000000000e+02 -2.397221898139e+03 8.228374892208e-01 
2.265000000000e+02 -2.410372937610e+03 8.220062939501e-01 
2.270000000000e+02 -2.423421455729e+03 8.211815907947e-01 
2.275000000000e+02 -2.436365621647e+03 8.203634945944e-01 
2.280000000000e+02 -2.449203674565e+03 8.195521163091e-01 
2.285000000000e+02 -2.461933784035e+03 8.187475718983e-01 
2.290000000000e+02 -2.474553922862e+03 8.179499902868e-01 
2.295000000000e+02 -2.487061752201e+03 8.171595205772e-01 
2.300000000000e+02 -2.499454284459e+03 8.163823686743e-01 
2.305000000000e+02 -2.511746409396e+03 8.156499402737e-01 
2.310000000000e+02 -2.523959200684e+03 8.149268350040e-01 
2.315000000000e+02 -2.536094011082e+03 8.142083540262e-01 
2.320000000000e+02 -2.548152232179e+03 8.134944151064e-01 
2.325000000000e+02 -2.560135580474e+03 8.127849171117e-01 
2.330000000000e+02 -2.572046021323e+03 8.120797443364e-01 
2.335000000000e+02 -2.583885933979e+03 8.113787568395e-01 
2.340000000000e+02 -2.595658751134e+03 8.106817532087e-01 
2.345000000000e+02 -2.607368881459e+03 8.099884747868e-01 
2.350000000000e+02 -2.619019098059e+03 8.092987575229e-01 
2.355000000000e+02 -2.630610149614e+03 8.086125556334e-01 
2.360000000000e+02 -2.642141477378e+03 8.079299003371e-01 
2.365000000000e+02 -2.653611906329e+03 8.072508595519e-01 
2.370000000000e+02 -2.665020001932e+03 8.065755170316e-01 
2.375000000000e+02 -2.676364321526e+03 8.059039573466e-01 
2.380000000000e+02 -2.687643407068e+03 8.052362664092e-01 
2.385000000000e+02 -2.698855806280e+03 8.045725300843e-01 
2.390000000000e+02 -2.710000161126e+03 8.039128287466e-01 
2.395000000000e+02 -2.721074848990e+03 8.032572590641e-01 
2.400000000000e+02 -2.732078276082e+03 8.026059158561e-01 
2.405000000000e+02 -2.743008396137e+03 8.019589214759e-01 
2.410000000000e+02 -2.753864469593e+03 8.013316316623e-01 
2.415000000000e+02 -2.764662683997e+03 8.007267991073e-01 
2.420000000000e+02 -2.775408133277e+03 8.001250250455e-01 
2.425000000000e+02 -2.786101401043e+03 7.995261771083e-01 
2.430000000000e+02 -2.796743101287e+03 7.989302210736e-01 
2.435000000000e+02 -2.807334083788e+03 7.983371097323e-01 
2.440000000000e+02 -2.817875276261e+03 7.977467915020e-01 
2.445000000000e+02 -2.828367805800e+03 7.971592037804e-01 
2.450000000000e+02 -2.838813194132e+03 7.965742621894e-01 
2.455000000000e+02 -2.849213977975e+03 7.959918263309e-01 
2.460000000000e+02 -2.859572252382e+03 7.954117796510e-01 
2.465000000000e+02 -2.869888943079e+03 7.948340699425e-01 
2.470000000000e+02 -2.880163982702e+03 7.942587000158e-01 
2.475000000000e+02 -2.890396674741e+03 7.936857078890e-01 
2.480000000000e+02 -2.900586069408e+03 7.931151458647e-01 
2.485000000000e+02 -2.910731077351e+03 7.925470743759e-01 
2.490000000000e+02 -2.920830576324e+03 7.919815559206e-01 
2.495000000000e+02 -2.930883500229e+03 7.914186499669e-01 
2.500000000000e+02 -2.940888721818e+03 7.908584197190e-01 
2.505000000000e+02 -2.950845105066e+03 7.903009289682e-01 
2.510000000000e+02 -2.960751485497e+03 7.897462432225e-01 
2.515000000000e+02 -2.970606570392e+03 7.891944354046e-01 
2.520000000000e+02 -2.980408852100e+03 7.886455907315e-01 
2.525000000000e+02 -2.990156858355e+03 7.880997922131e-01 