VARIABLES = "Time","AdvectiveMassFlux","DispersiveMassFlux","DiffusiveMassFlux","TotalMassFlux","TotalMass_sum"
ZONE T=BC_up
0.000000000000e+00 0.000000000000e+00 0.000000000000e+00 0.000000000000e+00 0.000000000000e+00 0.000000000000e+00
3.155760000000e+07 0.000000000000e+00 0.000000000000e+00 0.000000000000e+00 0.000000000000e+00 0.000000000000e+00
3.540762720000e+07 0.000000000000e+00 0.000000000000e+00 0.000000000000e+00 0.000000000000e+00 0.000000000000e+00
3.972786264000e+07 0.000000000000e+00 0.000000000000e+00 0.000000000000e+00 0.000000000000e+00 0.000000000000e+00
4.457511000000e+07 0.000000000000e+00 0.000000000000e+00 0.000000000000e+00 0.000000000000e+00 0.000000000000e+00
5.001564024000e+07 0.000000000000e+00 0.000000000000e+00 0.000000000000e+00 0.000000000000e+00 0.000000000000e+00
5.611888008000e+07 0.000000000000e+00 0.000000000000e+00 0.000000000000e+00 0.000000000000e+00 0.000000000000e+00
6.296687928000e+07 0.000000000000e+00 0.000000000000e+00 0.000000000000e+00 0.000000000000e+00 0.000000000000e+00
7.064799912000e+07 0.000000000000e+00 0.000000000000e+00 0.000000000000e+00 0.000000000000e+00 0.000000000000e+00
7.926953544000e+07 0.000000000000e+00 0.000000000000e+00 0.000000000000e+00 0.000000000000e+00 0.000000000000e+00
8.894193984000e+07 0.000000000000e+00 0.000000000000e+00 0.000000000000e+00 0.000000000000e+00 0.000000000000e+00
9.979459848000e+07 0.000000000000e+00 0.000000000000e+00 0.000000000000e+00 0.000000000000e+00 0.000000000000e+00
1.119695205600e+08 0.000000000000e+00 0.000000000000e+00 0.000000000000e+00 0.000000000000e+00 0.000000000000e+00
1.256339613600e+08 0.000000000000e+00 0.000000000000e+00 0.000000000000e+00 0.000000000000e+00 0.000000000000e+00
1.409614876800e+08 0.000000000000e+00 0.000000000000e+00 0.000000000000e+00 0.000000000000e+00 0.000000000000e+00
1.581635354400e+08 0.000000000000e+00 0.000000000000e+00 0.000000000000e+00 0.000000000000e+00 0.000000000000e+00
1.774610078400e+08 0.000000000000e+00 0.000000000000e+00 0.000000000000e+00 0.000000000000e+00 0.000000000000e+00
1.991158329600e+08 0.000000000000e+00 0.000000000000e+00 0.000000000000e+00 0.000000000000e+00 0.000000000000e+00
2.234120292000e+08 0.000000000000e+00 0.000000000000e+00 0.000000000000e+00 0.000000000000e+00 0.000000000000e+00
2.506714840800e+08 0.000000000000e+00 0.000000000000e+00 0.000000000000e+00 0.000000000000e+00 0.000000000000e+00
2.812571100000e+08 0.000000000000e+00 0.000000000000e+00 0.000000000000e+00 0.000000000000e+00 0.000000000000e+00
3.155760000000e+08 0.000000000000e+00 0.000000000000e+00 0.000000000000e+00 0.000000000000e+00 0.000000000000e+00
3.540762720000e+08 0.000000000000e+00 0.000000000000e+00 0.000000000000e+00 0.000000000000e+00 0.000000000000e+00
3.972786264000e+08 0.000000000000e+00 0.000000000000e+00 0.000000000000e+00 0.000000000000e+00 0.000000000000e+00
4.457511000000e+08 0.000000000000e+00 0.000000000000e+00 0.000000000000e+00 0.000000000000e+00 0.000000000000e+00
5.001564024000e+08 0.000000000000e+00 0.000000000000e+00 0.000000000000e+00 0.000000000000e+00 0.000000000000e+00
5.611888008000e+08 0.000000000000e+00 0.000000000000e+00 0.000000000000e+00 0.000000000000e+00 0.000000000000e+00
6.296687928000e+08 0.000000000000e+00 0.000000000000e+00 0.000000000000e+00 0.000000000000e+00 0.000000000000e+00
7.064799912000e+08 0.000000000000e+00 0.000000000000e+00 0.000000000000e+00 0.000000000000e+00 0.000000000000e+00
7.926953544000e+08 0.000000000000e+00 0.000000000000e+00 0.000000000000e+00 0.000000000000e+00 0.000000000000e+00
8.894193984000e+08 0.000000000000e+00 0.000000000000e+00 0.000000000000e+00 0.000000000000e+00 0.000000000000e+00
9.979459848000e+08 0.000000000000e+00 0.000000000000e+00 0.000000000000e+00 0.000000000000e+00 0.000000000000e+00
1.119695205600e+09 0.000000000000e+00 0.000000000000e+00 0.000000000000e+00 0.000000000000e+00 0.000000000000e+00
1.256339613600e+09 0.000000000000e+00 0.000000000000e+00 0.000000000000e+00 0.000000000000e+00 0.000000000000e+00
1.409614876800e+09 0.000000000000e+00 0.000000000000e+00 0.000000000000e+00 0.000000000000e+00 0.000000000000e+00
1.581635354400e+09 0.000000000000e+00 0.000000000000e+00 0.000000000000e+00 0.000000000000e+00 0.000000000000e+00
1.774610078400e+09 0.000000000000e+00 0.000000000000e+00 0.000000000000e+00 0.000000000000e+00 0.000000000000e+00
1.991158329600e+09 0.000000000000e+00 0.000000000000e+00 0.000000000000e+00 0.000000000000e+00 0.000000000000e+00
2.234120292000e+09 0.000000000000e+00 0.000000000000e+00 0.000000000000e+00 0.000000000000e+00 0.000000000000e+00
2.506714840800e+09 0.000000000000e+00 0.000000000000e+00 0.000000000000e+00 0.000000000000e+00 0.000000000000e+00
2.812571100000e+09 0.000000000000e+00 0.000000000000e+00 0.000000000000e+00 0.000000000000e+00 0.000000000000e+00
3.155760000000e+09 0.000000000000e+00 0.000000000000e+00 0.000000000000e+00 0.000000000000e+00 0.000000000000e+00
3.540762720000e+09 0.000000000000e+00 0.000000000000e+00 0.000000000000e+00 0.000000000000e+00 0.000000000000e+00
3.972786264000e+09 0.000000000000e+00 0.000000000000e+00 0.000000000000e+00 0.000000000000e+00 0.000000000000e+00
4.457511000000e+09 0.000000000000e+00 0.000000000000e+00 0.000000000000e+00 0.000000000000e+00 0.000000000000e+00
5.001564024000e+09 0.000000000000e+00 0.000000000000e+00 0.000000000000e+00 0.000000000000e+00 0.000000000000e+00
5.611888008000e+09 0.000000000000e+00 0.000000000000e+00 0.000000000000e+00 0.000000000000e+00 0.000000000000e+00
6.296687928000e+09 0.000000000000e+00 0.000000000000e+00 0.000000000000e+00 0.000000000000e+00 0.000000000000e+00
7.064799912000e+09 0.000000000000e+00 0.000000000000e+00 0.000000000000e+00 0.000000000000e+00 0.000000000000e+00
7.926953544000e+09 0.000000000000e+00 0.000000000000e+00 0.000000000000e+00 0.000000000000e+00 0.000000000000e+00
8.894193984000e+09 0.000000000000e+00 0.000000000000e+00 0.000000000000e+00 0.000000000000e+00 0.000000000000e+00
9.979459848000e+09 0.000000000000e+00 0.000000000000e+00 0.000000000000e+00 0.000000000000e+00 0.000000000000e+00
1.119695205600e+10 0.000000000000e+00 0.000000000000e+00 0.000000000000e+00 0.000000000000e+00 0.000000000000e+00
1.256339613600e+10 0.000000000000e+00 0.000000000000e+00 0.000000000000e+00 0.000000000000e+00 0.000000000000e+00
1.409614876800e+10 0.000000000000e+00 0.000000000000e+00 0.000000000000e+00 0.000000000000e+00 0.000000000000e+00
1.581635354400e+10 0.000000000000e+00 0.000000000000e+00 0.000000000000e+00 0.000000000000e+00 0.000000000000e+00
1.774610078400e+10 0.000000000000e+00 0.000000000000e+00 0.000000000000e+00 0.000000000000e+00 0.000000000000e+00
1.991158329600e+10 0.000000000000e+00 0.000000000000e+00 0.000000000000e+00 0.000000000000e+00 0.000000000000e+00
2.234120292000e+10 0.000000000000e+00 0.000000000000e+00 0.000000000000e+00 0.000000000000e+00 0.000000000000e+00
2.506714840800e+10 0.000000000000e+00 0.000000000000e+00 0.000000000000e+00 0.000000000000e+00 0.000000000000e+00
2.812571100000e+10 0.000000000000e+00 0.000000000000e+00 0.000000000000e+00 0.000000000000e+00 0.000000000000e+00
3.155760000000e+10 0.000000000000e+00 0.000000000000e+00 0.000000000000e+00 0.000000000000e+00 0.000000000000e+00
3.540762720000e+10 0.000000000000e+00 0.000000000000e+00 0.000000000000e+00 0.000000000000e+00 0.000000000000e+00
3.972786264000e+10 0.000000000000e+00 0.000000000000e+00 0.000000000000e+00 0.000000000000e+00 0.000000000000e+00
4.457511000000e+10 0.000000000000e+00 0.000000000000e+00 0.000000000000e+00 0.000000000000e+00 0.000000000000e+00
5.001564024000e+10 0.000000000000e+00 0.000000000000e+00 0.000000000000e+00 0.000000000000e+00 0.000000000000e+00
5.611888008000e+10 0.000000000000e+00 0.000000000000e+00 0.000000000000e+00 0.000000000000e+00 0.000000000000e+00
6.296687928000e+10 0.000000000000e+00 0.000000000000e+00 0.000000000000e+00 0.000000000000e+00 0.000000000000e+00
7.064799912000e+10 0.000000000000e+00 0.000000000000e+00 0.000000000000e+00 0.000000000000e+00 0.000000000000e+00
7.926953544000e+10 0.000000000000e+00 0.000000000000e+00 0.000000000000e+00 0.000000000000e+00 0.000000000000e+00
8.894193984000e+10 0.000000000000e+00 0.000000000000e+00 0.000000000000e+00 0.000000000000e+00 0.000000000000e+00
9.979459848000e+10 0.000000000000e+00 0.000000000000e+00 0.000000000000e+00 0.000000000000e+00 0.000000000000e+00
1.119695205600e+11 0.000000000000e+00 0.000000000000e+00 0.000000000000e+00 0.000000000000e+00 0.000000000000e+00
1.256339613600e+11 0.000000000000e+00 0.000000000000e+00 0.000000000000e+00 0.000000000000e+00 0.000000000000e+00
1.409614876800e+11 0.000000000000e+00 0.000000000000e+00 0.000000000000e+00 0.000000000000e+00 0.000000000000e+00
1.581635354400e+11 0.000000000000e+00 0.000000000000e+00 0.000000000000e+00 0.000000000000e+00 0.000000000000e+00
1.774610078400e+11 0.000000000000e+00 0.000000000000e+00 0.000000000000e+00 0.000000000000e+00 0.000000000000e+00
1.991158329600e+11 0.000000000000e+00 0.000000000000e+00 0.000000000000e+00 0.000000000000e+00 0.000000000000e+00
2.234120292000e+11 0.000000000000e+00 0.000000000000e+00 0.000000000000e+00 0.000000000000e+00 0.000000000000e+00
2.506714840800e+11 0.000000000000e+00 0.000000000000e+00 0.000000000000e+00 0.000000000000e+00 0.000000000000e+00
2.812571100000e+11 0.000000000000e+00 0.000000000000e+00 0.000000000000e+00 0.000000000000e+00 0.000000000000e+00
3.155760000000e+11 0.000000000000e+00 0.000000000000e+00 0.000000000000e+00 0.000000000000e+00 0.000000000000e+00
3.156075576000e+11 0.000000000000e+00 0.000000000000e+00 0.000000000000e+00 0.000000000000e+00 0.000000000000e+00
3.156706728000e+11 9.728604070645e-32 9.331384919069e-34 1.735921711575e-29 1.745743629495e-29 1.101829583243e-21
3.157653456000e+11 6.315236646912e-31 6.220572185709e-33 1.156908654711e-28 1.163286097080e-28 1.211498478441e-20
3.158915760000e+11 2.552451423078e-30 2.475903533450e-32 4.603467044783e-28 4.629239149367e-28 7.055005573643e-20
3.165227280000e+11 1.261981702196e-29 1.425641042769e-31 2.646516326510e-27 2.659278707636e-27 1.748959130618e-18
3.174694560000e+11 9.552885587722e-29 1.066171353974e-30 1.975665026068e-26 1.985324528791e-26 2.054458233555e-17
3.187317600000e+11 7.831400867779e-29 8.738542607185e-31 1.614858810980e-26 1.622777597274e-26 4.102896885704e-17
3.250432800000e+11 7.929044288381e-29 8.827981594503e-31 1.608756129153e-26 1.616773453257e-26 1.430719487141e-16
3.345105600000e+11 8.068335673768e-29 8.957755670659e-31 1.599968855120e-26 1.608126768350e-26 2.953178126287e-16
3.471336000000e+11 8.258309802138e-29 9.145545262325e-31 1.589059625002e-26 1.597409390256e-26 4.969594389245e-16
3.540762720000e+11 8.357372210649e-29 9.242503760961e-31 1.583389001369e-26 1.591838798617e-26 6.074755854812e-16
3.972786264000e+11 8.940061671459e-29 9.832292744329e-31 1.554070468586e-26 1.563108853184e-26 1.282775411892e-15
4.457511000000e+11 9.613701962757e-29 1.052809955699e-30 1.530784915589e-26 1.540503898547e-26 2.029495757422e-15
5.001564024000e+11 1.033226272471e-28 1.126806525693e-30 1.513488979188e-26 1.523933922566e-26 2.858596616370e-15
5.611888008000e+11 1.107766234511e-28 1.203150285526e-30 1.501440410097e-26 1.512638387471e-26 3.781796103363e-15
6.296687928000e+11 1.186747576043e-28 1.283731872863e-30 1.494600688701e-26 1.506596537649e-26 4.813513291817e-15
7.064799912000e+11 1.264869385847e-28 1.362897789001e-30 1.492550997298e-26 1.505335980936e-26 5.969779898720e-15
7.926953544000e+11 1.342672699558e-28 1.438051113958e-30 1.493819178666e-26 1.507389710773e-26 7.269381412703e-15
8.894193984000e+11 2.463590031942e-28 2.361789960185e-30 2.347336443325e-26 2.372208522641e-26 9.563877427914e-15
9.979459848000e+11 1.621811388918e-26 1.465959781854e-28 1.404378326475e-24 1.420743036342e-24 1.637522693137e-13
1.119695205600e+12 7.574963254178e-25 6.820394801590e-27 6.341324079056e-23 6.417755751078e-23 7.977319889098e-12
1.256339613600e+12 1.990781351037e-23 1.799909614094e-25 1.634552605491e-21 1.654640409963e-21 2.340746791614e-10
1.409614876800e+12 3.347444210554e-22 3.045757409489e-24 2.709645542560e-20 2.743424560406e-20 4.439065894817e-09
1.581635354400e+12 3.875381701460e-21 3.552218603526e-23 3.118464685683e-19 3.157573724558e-19 5.875579991039e-08
1.774610078400e+12 3.276522267387e-20 3.027192567270e-22 2.622864737388e-18 2.655932679318e-18 5.712836756644e-07
1.991158329600e+12 2.100781514617e-19 1.957145235786e-21 1.682226268726e-17 1.703429798395e-17 4.260031114509e-06
2.234120292000e+12 1.068043827699e-18 1.003655467762e-20 8.518765771695e-17 8.626573809933e-17 2.521932413101e-05
2.506714840800e+12 4.381422141030e-18 4.153828894255e-20 3.507751802925e-16 3.551981407225e-16 1.220444010358e-04
2.812571100000e+12 1.494892265404e-17 1.429967574073e-19 1.204956346010e-15 1.220048265422e-15 4.952037995412e-04
3.155760000000e+12 4.338631506304e-17 4.187556644938e-19 3.525944578706e-15 3.569749649434e-15 1.720302255006e-03
3.540762720000e+12 1.088789633864e-16 1.060302654173e-18 8.927568325562e-15 9.037507591603e-15 5.199767259793e-03
3.972786264000e+12 2.391277788533e-16 2.349441170452e-18 1.978876532133e-14 2.003024254136e-14 1.385330362969e-02
4.457511000000e+12 4.638352214684e-16 4.597075716784e-18 3.873970208512e-14 3.920813438231e-14 3.285845621721e-02
5.001564024000e+12 8.019330059709e-16 8.014940020637e-18 6.757929456165e-14 6.838924250765e-14 7.006583041256e-02
5.611888008000e+12 1.248101489928e-15 1.257203396658e-17 1.060592976272e-13 1.073199711511e-13 1.355657827682e-01
6.296687928000e+12 1.768539693872e-15 1.793915024099e-17 1.514102188678e-13 1.531966977119e-13 2.404748691056e-01
7.064799912000e+12 2.306952689888e-15 2.354037769862e-17 1.987713018777e-13 2.011017949453e-13 3.949435678070e-01
7.926953544000e+12 2.798945564799e-15 2.869981686512e-17 2.424290038890e-13 2.452566492707e-13 6.063924787478e-01
8.894193984000e+12 3.185626914496e-15 3.278827513604e-17 2.770567688085e-13 2.802751839981e-13 8.774859710392e-01
9.979459848000e+12 3.429410239395e-15 3.539560892618e-17 2.989040114185e-13 3.023688172669e-13 1.205636526757e+00
1.119695205600e+13 3.506568302724e-15 3.626217993958e-17 3.061701113655e-13 3.097129418482e-13 1.582709620174e+00
1.256339613600e+13 3.421762678681e-15 3.542992521224e-17 2.991736377610e-13 3.026308303649e-13 1.996237726751e+00
1.409614876800e+13 3.197983742423e-15 3.313840381834e-17 2.798710130046e-13 2.831021351508e-13 2.430163269529e+00
1.581635354400e+13 2.870104536746e-15 2.975368353551e-17 2.513277717769e-13 2.542276299972e-13 2.867486852841e+00
1.774610078400e+13 2.477666088418e-15 2.569111100638e-17 2.170446864912e-13 2.195480436906e-13 3.291159084200e+00
1.991158329600e+13 2.059301889570e-15 2.135527440218e-17 1.804391500443e-13 1.825198072082e-13 3.686402534803e+00
2.234120292000e+13 1.648244105774e-15 1.709329523814e-17 1.444454967376e-13 1.461108341386e-13 4.041396284706e+00
2.506714840800e+13 1.269743923664e-15 1.316823044978e-17 1.112890065177e-13 1.125719186719e-13 4.348261198485e+00
2.812571100000e+13 9.401196400775e-16 9.749836961181e-18 8.240690726853e-14 8.335677674557e-14 4.603213117628e+00
3.155760000000e+13 6.674336428625e-16 6.921853050291e-18 5.850936759858e-14 5.918372309449e-14 4.806325085895e+00
3.540762720000e+13 4.528153287376e-16 4.696091953599e-18 3.969833100877e-14 4.015584242946e-14 4.960926171488e+00
3.972786264000e+13 2.922073010700e-16 3.030431521420e-18 2.561941239063e-14 2.591465012322e-14 5.072883561365e+00
4.457511000000e+13 1.783130320526e-16 1.849260245049e-18 1.563466454489e-14 1.581482683719e-14 5.149541939001e+00
5.001564024000e+13 1.021563335451e-16 1.059433787528e-18 8.957509047911e-15 9.060724815243e-15 5.198837086354e+00
5.611888008000e+13 5.450103184100e-17 5.652230535621e-19 4.779184432951e-15 4.834250687846e-15 5.228341677749e+00
6.296687928000e+13 2.680004585957e-17 2.779267625754e-19 2.350077658381e-15 2.377155631003e-15 5.244620437608e+00
7.064799912000e+13 1.200384150593e-17 1.244938969656e-19 1.052728720176e-15 1.064857055579e-15 5.252799732265e+00
7.926953544000e+13 4.830178012911e-18 5.008314023878e-20 4.235193956216e-16 4.283996567748e-16 5.256493195465e+00
8.894193984000e+13 1.716059537272e-18 1.780332574684e-20 1.505561280558e-16 1.522899909188e-16 5.257966205843e+00
9.979459848000e+13 5.306614678223e-19 5.495128601586e-21 4.647057995996e-17 4.700673655639e-17 5.258476353909e+00
1.119695205600e+14 1.385160036690e-19 1.443881310611e-21 1.221158967462e-17 1.235154955960e-17 5.258626733062e+00
1.256339613600e+14 3.369627328528e-20 3.425431259323e-22 2.896675605985e-18 2.930714422396e-18 5.258666779636e+00
1.409614876800e+14 1.604885460574e-20 1.507725433129e-22 1.276780398930e-18 1.292980026079e-18 5.258686597822e+00
1.581635354400e+14 1.384041718126e-20 1.287844527641e-22 1.090539837366e-18 1.104509039000e-18 5.258705597639e+00
1.774610078400e+14 1.310958302608e-20 1.206929518222e-22 1.022213610560e-18 1.035443886538e-18 5.258725579089e+00
1.991158329600e+14 1.316222134236e-20 1.214969120531e-22 1.029008003314e-18 1.042291721569e-18 5.258748149734e+00
2.234120292000e+14 1.308892846817e-20 1.208074246768e-22 1.023188040318e-18 1.036397776211e-18 5.258773330257e+00
2.506714840800e+14 1.304917891762e-20 1.204786762281e-22 1.020413888460e-18 1.033583546053e-18 5.258801505181e+00
2.812571100000e+14 1.301032729138e-20 1.201464824492e-22 1.017610271198e-18 1.030740744972e-18 5.258833031032e+00
3.155760000000e+14 1.297684607643e-20 1.198614532506e-22 1.015204609308e-18 1.028301316837e-18 5.258868321192e+00
3.540762720000e+14 1.294789560352e-20 1.196167587560e-22 1.013139225593e-18 1.026206737955e-18 5.258907830431e+00
3.972786264000e+14 1.292198514116e-20 1.193969692759e-22 1.011284034440e-18 1.024325416550e-18 5.258952083700e+00
4.457511000000e+14 1.289889903838e-20 1.192008808534e-22 1.009628861083e-18 1.022646961002e-18 5.259001653928e+00
5.001564024000e+14 1.287837126356e-20 1.190264549068e-22 1.008156532480e-18 1.021153930198e-18 5.259057210116e+00
5.611888008000e+14 1.286011948950e-20 1.188713688761e-22 1.006847409185e-18 1.019826400043e-18 5.259119452568e+00
6.296687928000e+14 1.279770944996e-20 1.181715094258e-22 1.000932846286e-18 1.013848727246e-18 5.259188880920e+00
7.064799912000e+14 1.277639935013e-20 1.179660844175e-22 9.991970105258e-19 1.012091375960e-18 5.259266620872e+00
7.926953544000e+14 1.276905640247e-20 1.179247756200e-22 9.988484323512e-19 1.011735413529e-18 5.259353848008e+00
8.894193984000e+14 1.276576186740e-20 1.179273620973e-22 9.988709658658e-19 1.011754655095e-18 5.259451709010e+00
9.979459848000e+14 1.276289254999e-20 1.179303192211e-22 9.988966897604e-19 1.011777512630e-18 5.259561513769e+00
1.119695205600e+15 1.275923229090e-20 1.179194056162e-22 9.988051682635e-19 1.011682319960e-18 5.259684685303e+00
1.256339613600e+15 1.275441615733e-20 1.178906653244e-22 9.985629348133e-19 1.011435241636e-18 5.259822892273e+00
1.409614876800e+15 1.274844258354e-20 1.178445357826e-22 9.981736435410e-19 1.011039930660e-18 5.259977859685e+00
1.581635354400e+15 1.274133935776e-20 1.177817270102e-22 9.976433011356e-19 1.010502422220e-18 5.260151686794e+00
1.774610078400e+15 1.273318272811e-20 1.177035135030e-22 9.969826599070e-19 1.009833546149e-18 5.260346559144e+00
1.991158329600e+15 1.272398595854e-20 1.176103437435e-22 9.961955205816e-19 1.009037116884e-18 5.260565064367e+00
2.234120292000e+15 1.271376564647e-20 1.175026817878e-22 9.952858024080e-19 1.008117070736e-18 5.260809998469e+00
2.506714840800e+15 1.270250312971e-20 1.173805283704e-22 9.942535165261e-19 1.007073400184e-18 5.261084521188e+00
2.812571100000e+15 1.269015588956e-20 1.172435661533e-22 9.930959855244e-19 1.005903384980e-18 5.261392183034e+00
3.155760000000e+15 1.267667348838e-20 1.170913566948e-22 9.918095106527e-19 1.004603275498e-18 5.261736951727e+00
