VARIABLES  = "X","Y","Z", "HEAD", "VELOCITY_X1", "VELOCITY_Y1", "VELOCITY_Z1", "Cl-36"
ZONE T="0.000000000000e+00s", N=1545, E=2956, F=FEPOINT, ET=QUADRILATERAL
STRANDID=1, SOLUTIONTIME=0.000000000000e+00
0.000000000000e+00 6.153846153834e+00 0.000000000000e+00 2.769513846000e+01 0.000000000000e+00 0.000000000000e+00 0.000000000000e+00 0.000000000000e+00 
0.000000000000e+00 4.102564102556e+00 0.000000000000e+00 2.644739180000e+01 0.000000000000e+00 0.000000000000e+00 0.000000000000e+00 0.000000000000e+00 
2.309971060216e+00 5.364641900477e+00 0.000000000000e+00 2.456514041000e+01 0.000000000000e+00 0.000000000000e+00 0.000000000000e+00 0.000000000000e+00 
1.856007944272e+00 7.428599509521e+01 0.000000000000e+00 3.167373588000e+01 0.000000000000e+00 0.000000000000e+00 0.000000000000e+00 0.000000000000e+00 
0.000000000000e+00 7.589743589743e+01 0.000000000000e+00 3.692266777000e+01 0.000000000000e+00 0.000000000000e+00 0.000000000000e+00 0.000000000000e+00 
0.000000000000e+00 7.384615384615e+01 0.000000000000e+00 3.383182729000e+01 0.000000000000e+00 0.000000000000e+00 0.000000000000e+00 0.000000000000e+00 
4.000000000000e+01 7.384615384615e+01 0.000000000000e+00 3.378645648000e+01 0.000000000000e+00 0.000000000000e+00 0.000000000000e+00 0.000000000000e+00 
4.000000000000e+01 7.589743589743e+01 0.000000000000e+00 3.490884840000e+01 0.000000000000e+00 0.000000000000e+00 0.000000000000e+00 0.000000000000e+00 
3.833246925952e+01 7.444535291594e+01 0.000000000000e+00 3.229664321000e+01 0.000000000000e+00 0.000000000000e+00 0.000000000000e+00 0.000000000000e+00 
3.812035937752e+01 1.940127725063e+01 0.000000000000e+00 9.934404491000e+00 0.000000000000e+00 0.000000000000e+00 0.000000000000e+00 0.000000000000e+00 
4.000000000000e+01 1.846153846150e+01 0.000000000000e+00 4.872459753000e+00 0.000000000000e+00 0.000000000000e+00 0.000000000000e+00 0.000000000000e+00 
4.000000000000e+01 2.051282051278e+01 0.000000000000e+00 4.751583429000e+00 0.000000000000e+00 0.000000000000e+00 0.000000000000e+00 0.000000000000e+00 
0.000000000000e+00 2.051282051278e+01 0.000000000000e+00 6.980281376000e+01 0.000000000000e+00 0.000000000000e+00 0.000000000000e+00 0.000000000000e+00 
0.000000000000e+00 1.846153846150e+01 0.000000000000e+00 7.499983969000e+01 0.000000000000e+00 0.000000000000e+00 0.000000000000e+00 0.000000000000e+00 
1.854172863965e+00 1.986054283602e+01 0.000000000000e+00 7.513091616000e+01 0.000000000000e+00 0.000000000000e+00 0.000000000000e+00 0.000000000000e+00 
3.820478253724e+01 7.676105124860e+01 0.000000000000e+00 4.279798009000e+01 0.000000000000e+00 0.000000000000e+00 0.000000000000e+00 0.000000000000e+00 
4.000000000000e+01 7.794871794872e+01 0.000000000000e+00 4.500251042000e+01 0.000000000000e+00 0.000000000000e+00 0.000000000000e+00 0.000000000000e+00 
0.000000000000e+00 6.769230769229e+01 0.000000000000e+00 4.340809440000e+01 0.000000000000e+00 0.000000000000e+00 0.000000000000e+00 0.000000000000e+00 
0.000000000000e+00 6.564102564101e+01 0.000000000000e+00 3.692978759000e+01 0.000000000000e+00 0.000000000000e+00 0.000000000000e+00 0.000000000000e+00 
1.847966085525e+00 6.736057600965e+01 0.000000000000e+00 3.613211463000e+01 0.000000000000e+00 0.000000000000e+00 0.000000000000e+00 0.000000000000e+00 
3.496999066417e+01 7.824086246041e+01 0.000000000000e+00 5.230381677000e+00 0.000000000000e+00 0.000000000000e+00 0.000000000000e+00 0.000000000000e+00 
3.578947368421e+01 8.000000000000e+01 0.000000000000e+00 0.000000000000e+00 0.000000000000e+00 0.000000000000e+00 0.000000000000e+00 0.000000000000e+00 
3.368421052632e+01 8.000000000000e+01 0.000000000000e+00 0.000000000000e+00 0.000000000000e+00 0.000000000000e+00 0.000000000000e+00 0.000000000000e+00 
5.219125890132e+00 1.935041463163e+00 0.000000000000e+00 7.535082626000e+01 0.000000000000e+00 0.000000000000e+00 0.000000000000e+00 0.000000000000e+00 
4.210526315781e+00 0.000000000000e+00 0.000000000000e+00 8.000000000000e+01 0.000000000000e+00 0.000000000000e+00 0.000000000000e+00 0.000000000000e+00 
6.315789473672e+00 0.000000000000e+00 0.000000000000e+00 8.000000000000e+01 0.000000000000e+00 0.000000000000e+00 0.000000000000e+00 0.000000000000e+00 
6.315789473689e+00 8.000000000000e+01 0.000000000000e+00 0.000000000000e+00 0.000000000000e+00 0.000000000000e+00 0.000000000000e+00 0.000000000000e+00 
4.210526315793e+00 8.000000000000e+01 0.000000000000e+00 0.000000000000e+00 0.000000000000e+00 0.000000000000e+00 0.000000000000e+00 0.000000000000e+00 
4.200540163429e+00 7.825029669677e+01 0.000000000000e+00 8.000000000000e+01 0.000000000000e+00 0.000000000000e+00 0.000000000000e+00 0.000000000000e+00 
3.823081691148e+01 2.118418911832e+01 0.000000000000e+00 8.000000000000e+01 0.000000000000e+00 0.000000000000e+00 0.000000000000e+00 0.000000000000e+00 
4.000000000000e+01 2.256410256406e+01 0.000000000000e+00 3.703331942000e+01 0.000000000000e+00 0.000000000000e+00 0.000000000000e+00 0.000000000000e+00 
1.694574498660e+00 6.093982245482e+01 0.000000000000e+00 3.672873826000e+01 0.000000000000e+00 0.000000000000e+00 0.000000000000e+00 0.000000000000e+00 
0.000000000000e+00 6.153846153844e+01 0.000000000000e+00 5.233757569000e+01 0.000000000000e+00 0.000000000000e+00 0.000000000000e+00 0.000000000000e+00 
0.000000000000e+00 5.948717948715e+01 0.000000000000e+00 4.916617776000e+01 0.000000000000e+00 0.000000000000e+00 0.000000000000e+00 0.000000000000e+00 
0.000000000000e+00 5.743589743587e+01 0.000000000000e+00 5.317661842000e+01 0.000000000000e+00 0.000000000000e+00 0.000000000000e+00 0.000000000000e+00 
0.000000000000e+00 5.538461538458e+01 0.000000000000e+00 1.581068523000e+01 0.000000000000e+00 0.000000000000e+00 0.000000000000e+00 0.000000000000e+00 
1.693906764267e+00 5.699320184005e+01 0.000000000000e+00 2.109936472000e+01 0.000000000000e+00 0.000000000000e+00 0.000000000000e+00 0.000000000000e+00 
1.732596683907e+00 3.795152936032e+01 0.000000000000e+00 1.695612866000e+01 0.000000000000e+00 0.000000000000e+00 0.000000000000e+00 0.000000000000e+00 
0.000000000000e+00 3.897435897430e+01 0.000000000000e+00 4.465714783000e+01 0.000000000000e+00 0.000000000000e+00 0.000000000000e+00 0.000000000000e+00 
0.000000000000e+00 3.692307692302e+01 0.000000000000e+00 4.225296278000e+01 0.000000000000e+00 0.000000000000e+00 0.000000000000e+00 0.000000000000e+00 
3.827201419727e+01 4.204872094107e+01 0.000000000000e+00 4.755341686000e+01 0.000000000000e+00 0.000000000000e+00 0.000000000000e+00 0.000000000000e+00 
4.000000000000e+01 4.102564102559e+01 0.000000000000e+00 0.000000000000e+00 0.000000000000e+00 0.000000000000e+00 0.000000000000e+00 0.000000000000e+00 
4.000000000000e+01 4.307692307687e+01 0.000000000000e+00 5.289147263000e+00 0.000000000000e+00 0.000000000000e+00 0.000000000000e+00 0.000000000000e+00 
1.687095465554e+01 7.559378256230e+01 0.000000000000e+00 8.000000000000e+01 0.000000000000e+00 0.000000000000e+00 0.000000000000e+00 0.000000000000e+00 
1.554003980942e+01 7.361119716004e+01 0.000000000000e+00 7.456873626000e+01 0.000000000000e+00 0.000000000000e+00 0.000000000000e+00 0.000000000000e+00 
1.740022642903e+01 7.359818767460e+01 0.000000000000e+00 5.995427604000e+01 0.000000000000e+00 0.000000000000e+00 0.000000000000e+00 0.000000000000e+00 
2.449721805844e+01 9.725789572039e+00 0.000000000000e+00 5.594475023000e+01 0.000000000000e+00 0.000000000000e+00 0.000000000000e+00 0.000000000000e+00 
2.563129487691e+01 8.123390803476e+00 0.000000000000e+00 5.619892737000e+01 0.000000000000e+00 0.000000000000e+00 0.000000000000e+00 0.000000000000e+00 
2.639757520370e+01 1.026222375775e+01 0.000000000000e+00 5.560827437000e+01 0.000000000000e+00 0.000000000000e+00 0.000000000000e+00 0.000000000000e+00 
3.329349557877e+01 5.838178392506e+01 0.000000000000e+00 5.287270858000e+01 0.000000000000e+00 0.000000000000e+00 0.000000000000e+00 0.000000000000e+00 
3.499869387727e+01 5.964160691577e+01 0.000000000000e+00 3.940235436000e+01 0.000000000000e+00 0.000000000000e+00 0.000000000000e+00 0.000000000000e+00 
3.318051918955e+01 6.057858826863e+01 0.000000000000e+00 3.819046677000e+01 0.000000000000e+00 0.000000000000e+00 0.000000000000e+00 0.000000000000e+00 
3.677970843056e+01 4.710295575817e+01 0.000000000000e+00 3.940521460000e+01 0.000000000000e+00 0.000000000000e+00 0.000000000000e+00 0.000000000000e+00 
3.623771492037e+01 4.927785401048e+01 0.000000000000e+00 4.139760785000e+01 0.000000000000e+00 0.000000000000e+00 0.000000000000e+00 0.000000000000e+00 
3.499202582174e+01 4.782243161141e+01 0.000000000000e+00 4.264061960000e+01 0.000000000000e+00 0.000000000000e+00 0.000000000000e+00 0.000000000000e+00 
1.102372992465e+01 7.376876195061e+01 0.000000000000e+00 4.158127053000e+01 0.000000000000e+00 0.000000000000e+00 0.000000000000e+00 0.000000000000e+00 
1.318323621189e+01 7.412985151872e+01 0.000000000000e+00 3.491836346000e+01 0.000000000000e+00 0.000000000000e+00 0.000000000000e+00 0.000000000000e+00 
1.196374122056e+01 7.588720043012e+01 0.000000000000e+00 3.323077781000e+01 0.000000000000e+00 0.000000000000e+00 0.000000000000e+00 0.000000000000e+00 
3.639562660820e+01 2.472551831978e+01 0.000000000000e+00 3.386438229000e+01 0.000000000000e+00 0.000000000000e+00 0.000000000000e+00 0.000000000000e+00 
3.451092716526e+01 2.480079520795e+01 0.000000000000e+00 1.581713691000e+01 0.000000000000e+00 0.000000000000e+00 0.000000000000e+00 0.000000000000e+00 
3.505850874413e+01 2.332392326086e+01 0.000000000000e+00 1.521543356000e+01 0.000000000000e+00 0.000000000000e+00 0.000000000000e+00 0.000000000000e+00 
3.002173853215e+01 3.018807546924e+01 0.000000000000e+00 1.074507340000e+01 0.000000000000e+00 0.000000000000e+00 0.000000000000e+00 0.000000000000e+00 
3.056989262420e+01 2.837825621521e+01 0.000000000000e+00 1.519124838000e+01 0.000000000000e+00 0.000000000000e+00 0.000000000000e+00 0.000000000000e+00 
3.183654382455e+01 2.992376164208e+01 0.000000000000e+00 1.937460874000e+01 0.000000000000e+00 0.000000000000e+00 0.000000000000e+00 0.000000000000e+00 
8.227275849508e+00 2.999415636782e+01 0.000000000000e+00 6.462206776000e+01 0.000000000000e+00 0.000000000000e+00 0.000000000000e+00 0.000000000000e+00 
9.069052629354e+00 2.846107458587e+01 0.000000000000e+00 6.474702973000e+01 0.000000000000e+00 0.000000000000e+00 0.000000000000e+00 0.000000000000e+00 
9.978208073906e+00 3.002068751997e+01 0.000000000000e+00 5.679058595000e+01 0.000000000000e+00 0.000000000000e+00 0.000000000000e+00 0.000000000000e+00 
5.935053491323e+00 5.456008131300e+01 0.000000000000e+00 5.682199328000e+01 0.000000000000e+00 0.000000000000e+00 0.000000000000e+00 0.000000000000e+00 
7.577497148645e+00 5.330570484208e+01 0.000000000000e+00 6.053898021000e+01 0.000000000000e+00 0.000000000000e+00 0.000000000000e+00 0.000000000000e+00 
8.214134976440e+00 5.500311397585e+01 0.000000000000e+00 1.053291040000e+01 0.000000000000e+00 0.000000000000e+00 0.000000000000e+00 0.000000000000e+00 
2.692986603744e+01 3.128147478458e+01 0.000000000000e+00 6.982143117000e+01 0.000000000000e+00 0.000000000000e+00 0.000000000000e+00 0.000000000000e+00 
2.749453968898e+01 3.032633093236e+01 0.000000000000e+00 6.952979964000e+01 0.000000000000e+00 0.000000000000e+00 0.000000000000e+00 0.000000000000e+00 
2.840679266624e+01 3.122827939562e+01 0.000000000000e+00 2.810202199000e+01 0.000000000000e+00 0.000000000000e+00 0.000000000000e+00 0.000000000000e+00 
2.807054819514e+01 7.555631643555e+01 0.000000000000e+00 2.403977216000e+01 0.000000000000e+00 0.000000000000e+00 0.000000000000e+00 0.000000000000e+00 
2.645676331579e+01 7.407242550236e+01 0.000000000000e+00 3.138265317000e+01 0.000000000000e+00 0.000000000000e+00 0.000000000000e+00 0.000000000000e+00 
2.890700070928e+01 7.394216787491e+01 0.000000000000e+00 2.964349989000e+01 0.000000000000e+00 0.000000000000e+00 0.000000000000e+00 0.000000000000e+00 
1.389179936259e+01 4.050930930837e+01 0.000000000000e+00 4.050261337000e+01 0.000000000000e+00 0.000000000000e+00 0.000000000000e+00 0.000000000000e+00 
1.389743831201e+01 4.152996328334e+01 0.000000000000e+00 4.126034697000e+01 0.000000000000e+00 0.000000000000e+00 0.000000000000e+00 0.000000000000e+00 
1.292136177131e+01 4.117304497249e+01 0.000000000000e+00 5.267098305000e+01 0.000000000000e+00 0.000000000000e+00 0.000000000000e+00 0.000000000000e+00 
1.307376194044e+01 3.981861263847e+01 0.000000000000e+00 6.849592617000e+01 0.000000000000e+00 0.000000000000e+00 0.000000000000e+00 0.000000000000e+00 
3.097398760178e+01 7.396152217992e+01 0.000000000000e+00 6.507721091000e+01 0.000000000000e+00 0.000000000000e+00 0.000000000000e+00 0.000000000000e+00 
3.012194333439e+01 7.207925333445e+01 0.000000000000e+00 1.123037929000e+01 0.000000000000e+00 0.000000000000e+00 0.000000000000e+00 0.000000000000e+00 
3.296086663926e+00 9.891840976810e+00 0.000000000000e+00 1.534948883000e+01 0.000000000000e+00 0.000000000000e+00 0.000000000000e+00 0.000000000000e+00 
4.939201168349e+00 1.165290828097e+01 0.000000000000e+00 3.264605032000e+01 0.000000000000e+00 0.000000000000e+00 0.000000000000e+00 0.000000000000e+00 
2.912866622865e+00 1.209862212787e+01 0.000000000000e+00 3.007442855000e+01 0.000000000000e+00 0.000000000000e+00 0.000000000000e+00 0.000000000000e+00 
2.007791712554e+01 7.581546510246e+01 0.000000000000e+00 1.945700483000e+01 0.000000000000e+00 0.000000000000e+00 0.000000000000e+00 0.000000000000e+00 
2.094983164928e+01 7.404193449822e+01 0.000000000000e+00 6.503926407000e+01 0.000000000000e+00 0.000000000000e+00 0.000000000000e+00 0.000000000000e+00 
2.233433005614e+01 7.508478376727e+01 0.000000000000e+00 6.062968944000e+01 0.000000000000e+00 0.000000000000e+00 0.000000000000e+00 0.000000000000e+00 
2.774794606504e+01 7.192559612412e+01 0.000000000000e+00 4.112074021000e+01 0.000000000000e+00 0.000000000000e+00 0.000000000000e+00 0.000000000000e+00 
2.943718725206e+01 7.023770694816e+01 0.000000000000e+00 4.210380993000e+01 0.000000000000e+00 0.000000000000e+00 0.000000000000e+00 0.000000000000e+00 
1.437473449592e+01 7.603710579232e+01 0.000000000000e+00 4.210640698000e+01 0.000000000000e+00 0.000000000000e+00 0.000000000000e+00 0.000000000000e+00 
8.093445215919e+00 6.768903285430e+01 0.000000000000e+00 5.727591873000e+01 0.000000000000e+00 0.000000000000e+00 0.000000000000e+00 0.000000000000e+00 
9.551216965438e+00 6.889341173416e+01 0.000000000000e+00 5.675420387000e+01 0.000000000000e+00 0.000000000000e+00 0.000000000000e+00 0.000000000000e+00 
6.981584621167e+00 6.924974063438e+01 0.000000000000e+00 5.387317062000e+01 0.000000000000e+00 0.000000000000e+00 0.000000000000e+00 0.000000000000e+00 
3.452029608612e+01 5.791393528909e+01 0.000000000000e+00 2.331712626000e+01 0.000000000000e+00 0.000000000000e+00 0.000000000000e+00 0.000000000000e+00 
3.000599477365e+01 7.596936762675e+01 0.000000000000e+00 2.283308212000e+01 0.000000000000e+00 0.000000000000e+00 0.000000000000e+00 0.000000000000e+00 
6.914114963486e+00 5.672393880948e+01 0.000000000000e+00 2.660040639000e+01 0.000000000000e+00 0.000000000000e+00 0.000000000000e+00 0.000000000000e+00 
3.557939099244e+01 1.169532141706e+01 0.000000000000e+00 6.071343626000e+01 0.000000000000e+00 0.000000000000e+00 0.000000000000e+00 0.000000000000e+00 
3.368116278655e+01 1.307629210509e+01 0.000000000000e+00 3.949680652000e+01 0.000000000000e+00 0.000000000000e+00 0.000000000000e+00 0.000000000000e+00 
3.352856221221e+01 1.087495676090e+01 0.000000000000e+00 3.818552314000e+01 0.000000000000e+00 0.000000000000e+00 0.000000000000e+00 0.000000000000e+00 
3.696894297144e+01 1.010931728019e+01 0.000000000000e+00 3.838263008000e+01 0.000000000000e+00 0.000000000000e+00 0.000000000000e+00 0.000000000000e+00 
3.743016343575e+01 1.270523000971e+01 0.000000000000e+00 5.990207365000e+01 0.000000000000e+00 0.000000000000e+00 0.000000000000e+00 0.000000000000e+00 
2.844173358813e+01 4.154266011376e+01 0.000000000000e+00 3.468582868000e+01 0.000000000000e+00 0.000000000000e+00 0.000000000000e+00 0.000000000000e+00 
2.906013581083e+01 4.027066811801e+01 0.000000000000e+00 3.236802416000e+01 0.000000000000e+00 0.000000000000e+00 0.000000000000e+00 0.000000000000e+00 
2.965422088401e+01 4.156250508616e+01 0.000000000000e+00 3.127380814000e+01 0.000000000000e+00 0.000000000000e+00 0.000000000000e+00 0.000000000000e+00 
3.429533816510e+01 4.981696272210e+01 0.000000000000e+00 4.856208709000e+01 0.000000000000e+00 0.000000000000e+00 0.000000000000e+00 0.000000000000e+00 
1.264648908746e+01 4.064159844953e+00 0.000000000000e+00 2.913333388000e+01 0.000000000000e+00 0.000000000000e+00 0.000000000000e+00 0.000000000000e+00 
1.108533531202e+01 6.335210291676e+00 0.000000000000e+00 1.999480754000e+01 0.000000000000e+00 0.000000000000e+00 0.000000000000e+00 0.000000000000e+00 
1.022667421857e+01 4.088608477998e+00 0.000000000000e+00 2.314943660000e+01 0.000000000000e+00 0.000000000000e+00 0.000000000000e+00 0.000000000000e+00 
1.182402452760e+01 3.834157029785e+01 0.000000000000e+00 4.065704053000e+01 0.000000000000e+00 0.000000000000e+00 0.000000000000e+00 0.000000000000e+00 
1.099137109139e+01 3.964042644185e+01 0.000000000000e+00 3.975874377000e+01 0.000000000000e+00 0.000000000000e+00 0.000000000000e+00 0.000000000000e+00 
1.029375247911e+01 3.834580770879e+01 0.000000000000e+00 4.869540115000e+01 0.000000000000e+00 0.000000000000e+00 0.000000000000e+00 0.000000000000e+00 
1.114693770687e+01 3.722711889808e+01 0.000000000000e+00 5.111901013000e+01 0.000000000000e+00 0.000000000000e+00 0.000000000000e+00 0.000000000000e+00 
3.321831210482e+01 6.957332837451e+01 0.000000000000e+00 4.856713530000e+01 0.000000000000e+00 0.000000000000e+00 0.000000000000e+00 0.000000000000e+00 
3.480804967465e+01 6.852471460601e+01 0.000000000000e+00 5.344282074000e+01 0.000000000000e+00 0.000000000000e+00 0.000000000000e+00 0.000000000000e+00 
3.500139000426e+01 7.093596154956e+01 0.000000000000e+00 5.576997995000e+00 0.000000000000e+00 0.000000000000e+00 0.000000000000e+00 0.000000000000e+00 
2.775806401878e+00 2.200220728964e+01 0.000000000000e+00 5.353876564000e+00 0.000000000000e+00 0.000000000000e+00 0.000000000000e+00 0.000000000000e+00 
4.389955887766e+00 2.254521379388e+01 0.000000000000e+00 3.915362947000e+01 0.000000000000e+00 0.000000000000e+00 0.000000000000e+00 0.000000000000e+00 
2.950232151845e+00 2.392632341088e+01 0.000000000000e+00 4.234558762000e+01 0.000000000000e+00 0.000000000000e+00 0.000000000000e+00 0.000000000000e+00 
1.415814295608e+01 3.949101359904e+01 0.000000000000e+00 2.008089288000e+01 0.000000000000e+00 0.000000000000e+00 0.000000000000e+00 0.000000000000e+00 
1.322540821772e+01 3.854652891850e+01 0.000000000000e+00 1.874947668000e+01 0.000000000000e+00 0.000000000000e+00 0.000000000000e+00 0.000000000000e+00 
1.235832209114e+01 8.488082678711e+00 0.000000000000e+00 1.451724057000e+01 0.000000000000e+00 0.000000000000e+00 0.000000000000e+00 0.000000000000e+00 
1.069153512270e+01 1.055706671164e+01 0.000000000000e+00 4.580820796000e+01 0.000000000000e+00 0.000000000000e+00 0.000000000000e+00 0.000000000000e+00 
9.915768396715e+00 8.059275685823e+00 0.000000000000e+00 7.516444628000e+01 0.000000000000e+00 0.000000000000e+00 0.000000000000e+00 0.000000000000e+00 
1.444551548707e+01 1.205503021960e+01 0.000000000000e+00 7.489822699000e+01 0.000000000000e+00 0.000000000000e+00 0.000000000000e+00 0.000000000000e+00 
1.638620752102e+01 1.250873753401e+01 0.000000000000e+00 5.091937037000e+01 0.000000000000e+00 0.000000000000e+00 0.000000000000e+00 0.000000000000e+00 
1.497030947669e+01 1.348252465056e+01 0.000000000000e+00 2.738567520000e+01 0.000000000000e+00 0.000000000000e+00 0.000000000000e+00 0.000000000000e+00 
1.620103439687e+01 1.453851982667e+01 0.000000000000e+00 2.965873749000e+01 0.000000000000e+00 0.000000000000e+00 0.000000000000e+00 0.000000000000e+00 
8.940429368344e+00 6.380125450964e+00 0.000000000000e+00 2.640714396000e+01 0.000000000000e+00 0.000000000000e+00 0.000000000000e+00 0.000000000000e+00 
9.816489480414e+00 7.573120713029e+01 0.000000000000e+00 2.505157871000e+01 0.000000000000e+00 0.000000000000e+00 0.000000000000e+00 0.000000000000e+00 
6.903388888445e+00 1.045468450299e+01 0.000000000000e+00 9.793792765000e+00 0.000000000000e+00 0.000000000000e+00 0.000000000000e+00 0.000000000000e+00 
5.166126763544e+00 9.265975775984e+00 0.000000000000e+00 1.358873772000e+01 0.000000000000e+00 0.000000000000e+00 0.000000000000e+00 0.000000000000e+00 
2.899345802672e+01 4.243430344788e+01 0.000000000000e+00 6.607557458000e+01 0.000000000000e+00 0.000000000000e+00 0.000000000000e+00 0.000000000000e+00 
2.524762066262e+01 6.624215115773e+01 0.000000000000e+00 6.158758407000e+01 0.000000000000e+00 0.000000000000e+00 0.000000000000e+00 0.000000000000e+00 
2.387173027275e+01 6.761183480376e+01 0.000000000000e+00 1.822797550000e+01 0.000000000000e+00 0.000000000000e+00 0.000000000000e+00 0.000000000000e+00 
2.376808702390e+01 6.545787046489e+01 0.000000000000e+00 6.995948783000e+01 0.000000000000e+00 0.000000000000e+00 0.000000000000e+00 0.000000000000e+00 
2.813655038568e+01 4.571468869091e+01 0.000000000000e+00 1.056225894000e+01 0.000000000000e+00 0.000000000000e+00 0.000000000000e+00 0.000000000000e+00 
2.754724227770e+01 4.705682412918e+01 0.000000000000e+00 4.719590866000e+01 0.000000000000e+00 0.000000000000e+00 0.000000000000e+00 0.000000000000e+00 
2.715030103517e+01 4.557128733798e+01 0.000000000000e+00 3.372700258000e+01 0.000000000000e+00 0.000000000000e+00 0.000000000000e+00 0.000000000000e+00 
1.149987484652e+01 4.288025096931e+01 0.000000000000e+00 3.686417238000e+01 0.000000000000e+00 0.000000000000e+00 0.000000000000e+00 0.000000000000e+00 
1.098957944120e+01 4.368294928758e+01 0.000000000000e+00 3.847637484000e+01 0.000000000000e+00 0.000000000000e+00 0.000000000000e+00 0.000000000000e+00 
1.021113766548e+01 4.255439844098e+01 0.000000000000e+00 3.967436369000e+01 0.000000000000e+00 0.000000000000e+00 0.000000000000e+00 0.000000000000e+00 
9.571595535598e+00 7.207737243603e+01 0.000000000000e+00 6.077101386000e+01 0.000000000000e+00 0.000000000000e+00 0.000000000000e+00 0.000000000000e+00 
8.670391791972e+00 7.367794787126e+01 0.000000000000e+00 6.370940907000e+01 0.000000000000e+00 0.000000000000e+00 0.000000000000e+00 0.000000000000e+00 
5.485279289247e+00 4.929560266416e+01 0.000000000000e+00 5.833054396000e+01 0.000000000000e+00 0.000000000000e+00 0.000000000000e+00 0.000000000000e+00 
3.890124541374e+00 4.953633644736e+01 0.000000000000e+00 5.643391775000e+01 0.000000000000e+00 0.000000000000e+00 0.000000000000e+00 0.000000000000e+00 
4.793209637089e+00 4.779839923926e+01 0.000000000000e+00 5.290578735000e+01 0.000000000000e+00 0.000000000000e+00 0.000000000000e+00 0.000000000000e+00 
3.687754661530e+01 7.887857599229e+00 0.000000000000e+00 5.154726919000e+01 0.000000000000e+00 0.000000000000e+00 0.000000000000e+00 0.000000000000e+00 
3.525626724812e+01 9.358025558314e+00 0.000000000000e+00 5.296761353000e+01 0.000000000000e+00 0.000000000000e+00 0.000000000000e+00 0.000000000000e+00 
3.619050817497e+00 5.356669837734e+01 0.000000000000e+00 4.764633780000e+01 0.000000000000e+00 0.000000000000e+00 0.000000000000e+00 0.000000000000e+00 
3.649652334313e+00 5.151280455777e+01 0.000000000000e+00 6.475532102000e+01 0.000000000000e+00 0.000000000000e+00 0.000000000000e+00 0.000000000000e+00 
5.756886573655e+00 5.221975506025e+01 0.000000000000e+00 3.804145655000e+01 0.000000000000e+00 0.000000000000e+00 0.000000000000e+00 0.000000000000e+00 
5.958664082999e+00 2.140277743674e+01 0.000000000000e+00 3.755920109000e+01 0.000000000000e+00 0.000000000000e+00 0.000000000000e+00 0.000000000000e+00 
6.534575606346e+00 1.937065602919e+01 0.000000000000e+00 3.713166027000e+01 0.000000000000e+00 0.000000000000e+00 0.000000000000e+00 0.000000000000e+00 
7.762102714904e+00 2.093626883201e+01 0.000000000000e+00 5.884321463000e+00 0.000000000000e+00 0.000000000000e+00 0.000000000000e+00 0.000000000000e+00 
3.646852712108e+01 1.805303277177e+01 0.000000000000e+00 7.397396265000e+01 0.000000000000e+00 0.000000000000e+00 0.000000000000e+00 0.000000000000e+00 
3.454391944545e+01 1.767096825401e+01 0.000000000000e+00 4.772398593000e+01 0.000000000000e+00 0.000000000000e+00 0.000000000000e+00 0.000000000000e+00 
3.573929886123e+01 1.598518544784e+01 0.000000000000e+00 4.854735139000e+01 0.000000000000e+00 0.000000000000e+00 0.000000000000e+00 0.000000000000e+00 
1.171566186402e+01 3.096528923906e+01 0.000000000000e+00 3.085891832000e+01 0.000000000000e+00 0.000000000000e+00 0.000000000000e+00 0.000000000000e+00 
1.030189887712e+01 3.191256360136e+01 0.000000000000e+00 4.088708657000e+01 0.000000000000e+00 0.000000000000e+00 0.000000000000e+00 0.000000000000e+00 
2.972851005622e+01 3.196340184151e+01 0.000000000000e+00 2.139296543000e+01 0.000000000000e+00 0.000000000000e+00 0.000000000000e+00 0.000000000000e+00 
4.226222652827e+00 2.032620146811e+01 0.000000000000e+00 2.245985574000e+01 0.000000000000e+00 0.000000000000e+00 0.000000000000e+00 0.000000000000e+00 
1.223499023199e+01 3.935394713304e+01 0.000000000000e+00 4.010777619000e+01 0.000000000000e+00 0.000000000000e+00 0.000000000000e+00 0.000000000000e+00 
2.801773850740e+01 4.075491704789e+01 0.000000000000e+00 4.342306326000e+01 0.000000000000e+00 0.000000000000e+00 0.000000000000e+00 0.000000000000e+00 
7.024902071163e+00 3.065645262361e+01 0.000000000000e+00 3.791250867000e+01 0.000000000000e+00 0.000000000000e+00 0.000000000000e+00 0.000000000000e+00 
7.856904397543e+00 3.160069248325e+01 0.000000000000e+00 3.870777078000e+01 0.000000000000e+00 0.000000000000e+00 0.000000000000e+00 0.000000000000e+00 
5.323035123025e+00 3.064439198476e+01 0.000000000000e+00 4.056923228000e+01 0.000000000000e+00 0.000000000000e+00 0.000000000000e+00 0.000000000000e+00 
6.584986414391e+00 2.942213966686e+01 0.000000000000e+00 4.038620583000e+01 0.000000000000e+00 0.000000000000e+00 0.000000000000e+00 0.000000000000e+00 
3.212500343334e+01 3.160131764482e+01 0.000000000000e+00 3.953340443000e+01 0.000000000000e+00 0.000000000000e+00 0.000000000000e+00 0.000000000000e+00 
3.293108362893e+01 3.068949447814e+01 0.000000000000e+00 3.822968122000e+01 0.000000000000e+00 0.000000000000e+00 0.000000000000e+00 0.000000000000e+00 
3.349316549825e+01 2.932884406236e+01 0.000000000000e+00 3.960786848000e+01 0.000000000000e+00 0.000000000000e+00 0.000000000000e+00 0.000000000000e+00 
3.409322409822e+01 3.083126223392e+01 0.000000000000e+00 4.045147339000e+01 0.000000000000e+00 0.000000000000e+00 0.000000000000e+00 0.000000000000e+00 
1.455650575716e+01 1.539093762058e+01 0.000000000000e+00 4.036642183000e+01 0.000000000000e+00 0.000000000000e+00 0.000000000000e+00 0.000000000000e+00 
1.605137878494e+01 1.649078529407e+01 0.000000000000e+00 7.056036374000e+01 0.000000000000e+00 0.000000000000e+00 0.000000000000e+00 0.000000000000e+00 
1.416788720266e+01 1.728222653008e+01 0.000000000000e+00 8.000000000000e+01 0.000000000000e+00 0.000000000000e+00 0.000000000000e+00 0.000000000000e+00 
1.258106982196e+01 1.591707987401e+01 0.000000000000e+00 8.000000000000e+01 0.000000000000e+00 0.000000000000e+00 0.000000000000e+00 0.000000000000e+00 
2.544286581355e+01 6.450505020801e+01 0.000000000000e+00 0.000000000000e+00 0.000000000000e+00 0.000000000000e+00 0.000000000000e+00 0.000000000000e+00 
2.390239922729e+01 6.349647972340e+01 0.000000000000e+00 0.000000000000e+00 0.000000000000e+00 0.000000000000e+00 0.000000000000e+00 0.000000000000e+00 
2.566078074644e+01 6.268527275816e+01 0.000000000000e+00 2.826305151000e+01 0.000000000000e+00 0.000000000000e+00 0.000000000000e+00 0.000000000000e+00 
2.718573099014e+01 6.395362329898e+01 0.000000000000e+00 2.643769864000e+01 0.000000000000e+00 0.000000000000e+00 0.000000000000e+00 0.000000000000e+00 
2.717024921742e+01 3.868082151705e+01 0.000000000000e+00 2.112397340000e+01 0.000000000000e+00 0.000000000000e+00 0.000000000000e+00 0.000000000000e+00 
2.864836968468e+01 3.836200897813e+01 0.000000000000e+00 3.548794139000e+01 0.000000000000e+00 0.000000000000e+00 0.000000000000e+00 0.000000000000e+00 
2.817524332207e+01 3.967594917502e+01 0.000000000000e+00 3.767060565000e+01 0.000000000000e+00 0.000000000000e+00 0.000000000000e+00 0.000000000000e+00 
1.149907207062e+01 4.149475063478e+01 0.000000000000e+00 3.703186425000e+01 0.000000000000e+00 0.000000000000e+00 0.000000000000e+00 0.000000000000e+00 
1.198324062848e+01 4.034551900572e+01 0.000000000000e+00 6.909224186000e+01 0.000000000000e+00 0.000000000000e+00 0.000000000000e+00 0.000000000000e+00 
3.502443939432e+01 4.440077970001e+01 0.000000000000e+00 4.779412537000e+01 0.000000000000e+00 0.000000000000e+00 0.000000000000e+00 0.000000000000e+00 
3.349713182581e+01 4.547040152347e+01 0.000000000000e+00 3.877032710000e+01 0.000000000000e+00 0.000000000000e+00 0.000000000000e+00 0.000000000000e+00 
3.392335039863e+01 4.389093278049e+01 0.000000000000e+00 3.807866761000e+01 0.000000000000e+00 0.000000000000e+00 0.000000000000e+00 0.000000000000e+00 
4.994403326296e+00 3.576234894469e+01 0.000000000000e+00 3.733810620000e+01 0.000000000000e+00 0.000000000000e+00 0.000000000000e+00 0.000000000000e+00 
6.616906507069e+00 3.490243289236e+01 0.000000000000e+00 4.116724287000e+01 0.000000000000e+00 0.000000000000e+00 0.000000000000e+00 0.000000000000e+00 
6.154012445760e+00 3.635502087123e+01 0.000000000000e+00 4.777401377000e+01 0.000000000000e+00 0.000000000000e+00 0.000000000000e+00 0.000000000000e+00 
3.166553842509e+01 5.953584592360e+01 0.000000000000e+00 4.823819867000e+01 0.000000000000e+00 0.000000000000e+00 0.000000000000e+00 0.000000000000e+00 
3.157283410914e+01 5.783675427084e+01 0.000000000000e+00 4.997852098000e+01 0.000000000000e+00 0.000000000000e+00 0.000000000000e+00 0.000000000000e+00 
0.000000000000e+00 2.256410256406e+01 0.000000000000e+00 3.097846976000e+01 0.000000000000e+00 0.000000000000e+00 0.000000000000e+00 0.000000000000e+00 