VARIABLES = "Time","AdvectiveMassFlux","DispersiveMassFlux","DiffusiveMassFlux","TotalMassFlux","TotalMass_sum"
ZONE T=PLY_Source
0.000000000000e+00 0.000000000000e+00 0.000000000000e+00 0.000000000000e+00 0.000000000000e+00 0.000000000000e+00
3.155760000000e+07 0.000000000000e+00 0.000000000000e+00 0.000000000000e+00 0.000000000000e+00 0.000000000000e+00
3.540762720000e+07 0.000000000000e+00 0.000000000000e+00 0.000000000000e+00 0.000000000000e+00 0.000000000000e+00
3.972786264000e+07 0.000000000000e+00 0.000000000000e+00 0.000000000000e+00 0.000000000000e+00 0.000000000000e+00
4.457511000000e+07 0.000000000000e+00 0.000000000000e+00 0.000000000000e+00 0.000000000000e+00 0.000000000000e+00
5.001564024000e+07 0.000000000000e+00 0.000000000000e+00 0.000000000000e+00 0.000000000000e+00 0.000000000000e+00
5.611888008000e+07 0.000000000000e+00 0.000000000000e+00 0.000000000000e+00 0.000000000000e+00 0.000000000000e+00
6.296687928000e+07 0.000000000000e+00 0.000000000000e+00 0.000000000000e+00 0.000000000000e+00 0.000000000000e+00
7.064799912000e+07 0.000000000000e+00 0.000000000000e+00 0.000000000000e+00 0.000000000000e+00 0.000000000000e+00
7.926953544000e+07 0.000000000000e+00 0.000000000000e+00 0.000000000000e+00 0.000000000000e+00 0.000000000000e+00
8.894193984000e+07 0.000000000000e+00 0.000000000000e+00 0.000000000000e+00 0.000000000000e+00 0.000000000000e+00
9.979459848000e+07 0.000000000000e+00 0.000000000000e+00 0.000000000000e+00 0.000000000000e+00 0.000000000000e+00
1.119695205600e+08 0.000000000000e+00 0.000000000000e+00 0.000000000000e+00 0.000000000000e+00 0.000000000000e+00
1.256339613600e+08 0.000000000000e+00 0.000000000000e+00 0.000000000000e+00 0.000000000000e+00 0.000000000000e+00
1.409614876800e+08 0.000000000000e+00 0.000000000000e+00 0.000000000000e+00 0.000000000000e+00 0.000000000000e+00
1.581635354400e+08 0.000000000000e+00 0.000000000000e+00 0.000000000000e+00 0.000000000000e+00 0.000000000000e+00
1.774610078400e+08 0.000000000000e+00 0.000000000000e+00 0.000000000000e+00 0.000000000000e+00 0.000000000000e+00
1.991158329600e+08 0.000000000000e+00 0.000000000000e+00 0.000000000000e+00 0.000000000000e+00 0.000000000000e+00
2.234120292000e+08 0.000000000000e+00 0.000000000000e+00 0.000000000000e+00 0.000000000000e+00 0.000000000000e+00
2.506714840800e+08 0.000000000000e+00 0.000000000000e+00 0.000000000000e+00 0.000000000000e+00 0.000000000000e+00
2.812571100000e+08 0.000000000000e+00 0.000000000000e+00 0.000000000000e+00 0.000000000000e+00 0.000000000000e+00
3.155760000000e+08 0.000000000000e+00 0.000000000000e+00 0.000000000000e+00 0.000000000000e+00 0.000000000000e+00
3.540762720000e+08 0.000000000000e+00 0.000000000000e+00 0.000000000000e+00 0.000000000000e+00 0.000000000000e+00
3.972786264000e+08 0.000000000000e+00 0.000000000000e+00 0.000000000000e+00 0.000000000000e+00 0.000000000000e+00
4.457511000000e+08 0.000000000000e+00 0.000000000000e+00 0.000000000000e+00 0.000000000000e+00 0.000000000000e+00
5.001564024000e+08 0.000000000000e+00 0.000000000000e+00 0.000000000000e+00 0.000000000000e+00 0.000000000000e+00
5.611888008000e+08 0.000000000000e+00 0.000000000000e+00 0.000000000000e+00 0.000000000000e+00 0.000000000000e+00
6.296687928000e+08 0.000000000000e+00 0.000000000000e+00 0.000000000000e+00 0.000000000000e+00 0.000000000000e+00
7.064799912000e+08 0.000000000000e+00 0.000000000000e+00 0.000000000000e+00 0.000000000000e+00 0.000000000000e+00
7.926953544000e+08 0.000000000000e+00 0.000000000000e+00 0.000000000000e+00 0.000000000000e+00 0.000000000000e+00
8.894193984000e+08 0.000000000000e+00 0.000000000000e+00 0.000000000000e+00 0.000000000000e+00 0.000000000000e+00
9.979459848000e+08 0.000000000000e+00 0.000000000000e+00 0.000000000000e+00 0.000000000000e+00 0.000000000000e+00
1.119695205600e+09 0.000000000000e+00 0.000000000000e+00 0.000000000000e+00 0.000000000000e+00 0.000000000000e+00
1.256339613600e+09 0.000000000000e+00 0.000000000000e+00 0.000000000000e+00 0.000000000000e+00 0.000000000000e+00
1.409614876800e+09 0.000000000000e+00 0.000000000000e+00 0.000000000000e+00 0.000000000000e+00 0.000000000000e+00
1.581635354400e+09 0.000000000000e+00 0.000000000000e+00 0.000000000000e+00 0.000000000000e+00 0.000000000000e+00
1.774610078400e+09 0.000000000000e+00 0.000000000000e+00 0.000000000000e+00 0.000000000000e+00 0.000000000000e+00
1.991158329600e+09 0.000000000000e+00 0.000000000000e+00 0.000000000000e+00 0.000000000000e+00 0.000000000000e+00
2.234120292000e+09 0.000000000000e+00 0.000000000000e+00 0.000000000000e+00 0.000000000000e+00 0.000000000000e+00
2.506714840800e+09 0.000000000000e+00 0.000000000000e+00 0.000000000000e+00 0.000000000000e+00 0.000000000000e+00
2.812571100000e+09 0.000000000000e+00 0.000000000000e+00 0.000000000000e+00 0.000000000000e+00 0.000000000000e+00
3.155760000000e+09 0.000000000000e+00 0.000000000000e+00 0.000000000000e+00 0.000000000000e+00 0.000000000000e+00
3.540762720000e+09 0.000000000000e+00 0.000000000000e+00 0.000000000000e+00 0.000000000000e+00 0.000000000000e+00
3.972786264000e+09 0.000000000000e+00 0.000000000000e+00 0.000000000000e+00 0.000000000000e+00 0.000000000000e+00
4.457511000000e+09 0.000000000000e+00 0.000000000000e+00 0.000000000000e+00 0.000000000000e+00 0.000000000000e+00
5.001564024000e+09 0.000000000000e+00 0.000000000000e+00 0.000000000000e+00 0.000000000000e+00 0.000000000000e+00
5.611888008000e+09 0.000000000000e+00 0.000000000000e+00 0.000000000000e+00 0.000000000000e+00 0.000000000000e+00
6.296687928000e+09 0.000000000000e+00 0.000000000000e+00 0.000000000000e+00 0.000000000000e+00 0.000000000000e+00
7.064799912000e+09 0.000000000000e+00 0.000000000000e+00 0.000000000000e+00 0.000000000000e+00 0.000000000000e+00
7.926953544000e+09 0.000000000000e+00 0.000000000000e+00 0.000000000000e+00 0.000000000000e+00 0.000000000000e+00
8.894193984000e+09 0.000000000000e+00 0.000000000000e+00 0.000000000000e+00 0.000000000000e+00 0.000000000000e+00
9.979459848000e+09 0.000000000000e+00 0.000000000000e+00 0.000000000000e+00 0.000000000000e+00 0.000000000000e+00
1.119695205600e+10 0.000000000000e+00 0.000000000000e+00 0.000000000000e+00 0.000000000000e+00 0.000000000000e+00
1.256339613600e+10 0.000000000000e+00 0.000000000000e+00 0.000000000000e+00 0.000000000000e+00 0.000000000000e+00
1.409614876800e+10 0.000000000000e+00 0.000000000000e+00 0.000000000000e+00 0.000000000000e+00 0.000000000000e+00
1.581635354400e+10 0.000000000000e+00 0.000000000000e+00 0.000000000000e+00 0.000000000000e+00 0.000000000000e+00
1.774610078400e+10 0.000000000000e+00 0.000000000000e+00 0.000000000000e+00 0.000000000000e+00 0.000000000000e+00
1.991158329600e+10 0.000000000000e+00 0.000000000000e+00 0.000000000000e+00 0.000000000000e+00 0.000000000000e+00
2.234120292000e+10 0.000000000000e+00 0.000000000000e+00 0.000000000000e+00 0.000000000000e+00 0.000000000000e+00
2.506714840800e+10 0.000000000000e+00 0.000000000000e+00 0.000000000000e+00 0.000000000000e+00 0.000000000000e+00
2.812571100000e+10 0.000000000000e+00 0.000000000000e+00 0.000000000000e+00 0.000000000000e+00 0.000000000000e+00
3.155760000000e+10 0.000000000000e+00 0.000000000000e+00 0.000000000000e+00 0.000000000000e+00 0.000000000000e+00
3.540762720000e+10 0.000000000000e+00 0.000000000000e+00 0.000000000000e+00 0.000000000000e+00 0.000000000000e+00
3.972786264000e+10 0.000000000000e+00 0.000000000000e+00 0.000000000000e+00 0.000000000000e+00 0.000000000000e+00
4.457511000000e+10 0.000000000000e+00 0.000000000000e+00 0.000000000000e+00 0.000000000000e+00 0.000000000000e+00
5.001564024000e+10 0.000000000000e+00 0.000000000000e+00 0.000000000000e+00 0.000000000000e+00 0.000000000000e+00
5.611888008000e+10 0.000000000000e+00 0.000000000000e+00 0.000000000000e+00 0.000000000000e+00 0.000000000000e+00
6.296687928000e+10 0.000000000000e+00 0.000000000000e+00 0.000000000000e+00 0.000000000000e+00 0.000000000000e+00
7.064799912000e+10 0.000000000000e+00 0.000000000000e+00 0.000000000000e+00 0.000000000000e+00 0.000000000000e+00
7.926953544000e+10 0.000000000000e+00 0.000000000000e+00 0.000000000000e+00 0.000000000000e+00 0.000000000000e+00
8.894193984000e+10 0.000000000000e+00 0.000000000000e+00 0.000000000000e+00 0.000000000000e+00 0.000000000000e+00
9.979459848000e+10 0.000000000000e+00 0.000000000000e+00 0.000000000000e+00 0.000000000000e+00 0.000000000000e+00
1.119695205600e+11 0.000000000000e+00 0.000000000000e+00 0.000000000000e+00 0.000000000000e+00 0.000000000000e+00
1.256339613600e+11 0.000000000000e+00 0.000000000000e+00 0.000000000000e+00 0.000000000000e+00 0.000000000000e+00
1.409614876800e+11 0.000000000000e+00 0.000000000000e+00 0.000000000000e+00 0.000000000000e+00 0.000000000000e+00
1.581635354400e+11 0.000000000000e+00 0.000000000000e+00 0.000000000000e+00 0.000000000000e+00 0.000000000000e+00
1.774610078400e+11 0.000000000000e+00 0.000000000000e+00 0.000000000000e+00 0.000000000000e+00 0.000000000000e+00
1.991158329600e+11 0.000000000000e+00 0.000000000000e+00 0.000000000000e+00 0.000000000000e+00 0.000000000000e+00
2.234120292000e+11 0.000000000000e+00 0.000000000000e+00 0.000000000000e+00 0.000000000000e+00 0.000000000000e+00
2.506714840800e+11 0.000000000000e+00 0.000000000000e+00 0.000000000000e+00 0.000000000000e+00 0.000000000000e+00
2.812571100000e+11 0.000000000000e+00 0.000000000000e+00 0.000000000000e+00 0.000000000000e+00 0.000000000000e+00
3.155760000000e+11 0.000000000000e+00 0.000000000000e+00 0.000000000000e+00 0.000000000000e+00 0.000000000000e+00
3.156075576000e+11 0.000000000000e+00 0.000000000000e+00 0.000000000000e+00 0.000000000000e+00 0.000000000000e+00
3.156706728000e+11 2.930602700870e-13 2.383169946958e-13 1.177615246595e-09 1.178146623859e-09 7.435895979421e-02
3.157653456000e+11 4.889785888462e-13 6.596894632436e-14 3.468620873227e-10 3.474170348579e-10 1.072499032519e-01
3.158915760000e+11 5.407116236526e-13 7.872945680586e-14 4.073516422199e-10 4.079710833003e-10 1.587482562853e-01
3.165227280000e+11 7.060576148882e-13 6.113941004613e-14 3.167252525887e-10 3.174924496136e-10 3.591342508439e-01
3.174694560000e+11 6.037377311614e-13 5.275059062915e-14 2.749846948422e-10 2.756411831640e-10 6.200914768983e-01
3.187317600000e+11 5.468826325497e-13 5.474471845718e-14 2.832267252989e-10 2.838283526499e-10 9.783691417617e-01
3.250432800000e+11 4.178516174916e-13 5.343352366160e-14 2.755604137801e-10 2.760316989212e-10 2.720548730137e+00
3.345105600000e+11 3.427681209346e-13 5.429537911154e-14 2.773315227327e-10 2.777285862328e-10 5.349883020007e+00
3.471336000000e+11 2.806729893969e-13 5.379871335340e-14 2.752323735517e-10 2.755668452545e-10 8.828374330328e+00
3.540762720000e+11 2.676137253745e-13 5.410187472561e-14 2.748486496026e-10 2.751703652027e-10 1.073879192005e+01
3.972786264000e+11 2.395841729047e-13 5.418962799428e-14 2.744172734582e-10 2.747110472591e-10 2.260695594133e+01
4.457511000000e+11 2.405320501131e-13 5.496531913073e-14 2.743383170094e-10 2.746338143787e-10 3.591913625847e+01
5.001564024000e+11 2.523129315577e-13 5.546764514426e-14 2.741929507228e-10 2.745007312995e-10 5.085343155384e+01
5.611888008000e+11 2.625298480298e-13 5.637010097195e-14 2.740851590224e-10 2.744040589714e-10 6.760096940356e+01
6.296687928000e+11 2.735801166511e-13 5.654128263068e-14 2.739566956591e-10 2.742868170584e-10 8.638412844142e+01
7.064799912000e+11 2.864846059094e-13 5.662426481105e-14 2.738813385703e-10 2.742244474410e-10 1.074476368799e+02
7.926953544000e+11 2.958571770703e-13 5.663369648147e-14 2.737573300036e-10 2.741098208772e-10 1.310801146436e+02
8.894193984000e+11 3.088186242115e-13 5.665324270714e-14 2.737152370005e-10 2.740807088674e-10 1.575903091876e+02
9.979459848000e+11 3.165661930485e-13 5.662685322969e-14 2.735939131854e-10 2.739671062317e-10 1.873230240128e+02
1.119695205600e+12 3.290989357526e-13 5.663231915894e-14 2.735805465816e-10 2.739662778365e-10 2.206782048649e+02
1.256339613600e+12 3.353652732554e-13 5.659468517284e-14 2.734617781384e-10 2.738537380968e-10 2.580987867857e+02
1.409614876800e+12 3.470515375957e-13 5.659430298521e-14 2.734722115122e-10 2.738758573527e-10 3.000771809056e+02
1.581635354400e+12 1.012349708591e-13 5.647192115249e-14 2.729689691811e-10 2.731266760731e-10 3.470605621690e+02
1.774610078400e+12 1.807452999439e-13 5.634093666420e-14 2.728446446008e-10 2.730817308375e-10 3.997584338068e+02
1.991158329600e+12 4.835888703506e-14 5.623942286036e-14 2.726113623162e-10 2.727159606261e-10 4.588145981547e+02
2.234120292000e+12 1.261775730536e-13 5.607904975019e-14 2.725077790035e-10 2.726900356263e-10 5.250679043374e+02
2.506714840800e+12 2.162948834578e-14 5.598804302413e-14 2.723555680849e-10 2.724331856163e-10 5.993317056486e+02
2.812571100000e+12 9.613356919279e-14 5.594581032832e-14 2.722737203638e-10 2.724257997433e-10 6.826548416676e+02
3.155760000000e+12 5.162536728407e-15 5.590794371054e-14 2.721660090649e-10 2.722270795453e-10 7.760801536470e+02
3.540762720000e+12 7.698781630891e-14 5.588192729485e-14 2.721015883231e-10 2.722344580667e-10 8.808911604804e+02
3.972786264000e+12 5.901190142923e-15 5.585438435581e-14 2.720224791526e-10 2.720842347271e-10 9.984379558338e+02
4.457511000000e+12 6.393007367587e-14 5.583376392171e-14 2.719716536425e-10 2.720914174801e-10 1.130327396340e+03
5.001564024000e+12 1.357602049480e-14 5.581253539710e-14 2.719123585259e-10 2.719817470818e-10 1.278299888312e+03
5.611888008000e+12 5.479210788717e-14 5.579615115062e-14 2.718721330054e-10 2.719827212645e-10 1.444297466334e+03
6.296687928000e+12 1.890550044075e-14 5.577976727748e-14 2.718270738336e-10 2.719017591013e-10 1.630495769214e+03
7.064799912000e+12 4.836891072231e-14 5.576679521759e-14 2.717951581226e-10 2.718992938285e-10 1.839344875245e+03
7.926953544000e+12 2.259662103319e-14 5.575407178144e-14 2.717605752430e-10 2.718389259358e-10 2.073711792559e+03
8.894193984000e+12 4.380126580994e-14 5.574379919416e-14 2.717352515599e-10 2.718347966249e-10 2.336641400854e+03
9.979459848000e+12 2.523310276119e-14 5.580699265376e-14 2.717084978371e-10 2.717895379325e-10 2.631605308565e+03
1.119695205600e+13 4.051824592180e-14 5.580786085164e-14 2.716883873769e-10 2.717847134837e-10 2.962501079485e+03
1.256339613600e+13 2.716397103104e-14 5.580087475963e-14 2.716675839827e-10 2.717505488284e-10 3.333833008168e+03
1.409614876800e+13 3.797220370732e-14 5.579454041937e-14 2.716515934117e-10 2.717453601559e-10 3.750351424181e+03
1.581635354400e+13 2.865670258701e-14 5.578848281782e-14 2.716353691878e-10 2.717198143732e-10 4.217765146599e+03
1.774610078400e+13 3.598751142780e-14 5.578340515589e-14 2.716226220820e-10 2.717143929986e-10 4.742105246557e+03
1.991158329600e+13 2.982379649272e-14 5.577863928502e-14 2.716099574972e-10 2.716955599329e-10 5.330457230179e+03
2.234120292000e+13 3.445634944586e-14 5.577459925151e-14 2.715997660733e-10 2.716899970220e-10 5.990560578589e+03
2.506714840800e+13 3.069424608192e-14 5.577085309764e-14 2.715898790267e-10 2.716763441258e-10 6.731135483055e+03
2.812571100000e+13 3.333124236711e-14 5.576763521075e-14 2.715817118069e-10 2.716708106845e-10 7.562057661953e+03
3.155760000000e+13 3.127553997959e-14 5.576468630013e-14 2.715739884487e-10 2.716610286749e-10 8.494368157991e+03
3.540762720000e+13 3.257250176439e-14 5.576212367730e-14 2.715674415950e-10 2.716557762204e-10 9.540250285477e+03
3.972786264000e+13 3.159505050885e-14 5.575979921403e-14 2.715613945173e-10 2.716487493671e-10 1.071383683972e+04
4.457511000000e+13 3.211505465170e-14 5.575775760029e-14 2.715561568589e-10 2.716440296712e-10 1.203056264541e+04
5.001564024000e+13 3.171762455140e-14 5.575592105960e-14 2.715514065986e-10 2.716388801442e-10 1.350842218719e+04
5.611888008000e+13 3.186650676322e-14 5.575429843961e-14 2.715472290316e-10 2.716348498368e-10 1.516627482465e+04
6.296687928000e+13 3.172417141174e-14 5.575284695298e-14 2.715434807710e-10 2.716309577894e-10 1.702640340628e+04
7.064799912000e+13 3.173741824131e-14 5.575155819388e-14 2.715401565162e-10 2.716276454926e-10 1.911280790317e+04
7.926953544000e+13 3.168367161001e-14 5.575040625107e-14 2.715371902782e-10 2.716246243560e-10 2.145462946746e+04
8.894193984000e+13 3.166393996205e-14 5.574938252397e-14 2.715345510479e-10 2.716219643704e-10 2.408186695078e+04
9.979459848000e+13 3.163553078085e-14 5.574846992254e-14 2.715321991213e-10 2.716195831220e-10 2.702966156634e+04
1.119695205600e+14 3.161402363456e-14 5.574765739225e-14 2.715301041543e-10 2.716174658353e-10 3.033658304845e+04
1.256339613600e+14 3.159372766325e-14 5.574693237353e-14 2.715282383236e-10 2.716155789836e-10 3.404805804783e+04
1.409614876800e+14 3.157598601340e-14 5.574628770263e-14 2.715265756861e-10 2.716138979599e-10 3.821122721769e+04
1.581635354400e+14 3.156011643740e-14 5.574571224681e-14 2.715250947815e-10 2.716124006102e-10 4.288351670519e+04
1.774610078400e+14 3.154600727615e-14 5.574520029813e-14 2.715237751302e-10 2.716110663378e-10 4.812492376138e+04
1.991158329600e+14 3.153344282718e-14 5.574474362599e-14 2.715225994905e-10 2.716098776769e-10 5.400658816334e+04
2.234120292000e+14 3.152225621800e-14 5.574433695059e-14 2.715215519421e-10 2.716088185353e-10 6.060564931899e+04
2.506714840800e+14 3.151229402633e-14 5.574397456829e-14 2.715206184914e-10 2.716078747600e-10 6.800953192606e+04
2.812571100000e+14 3.150342199759e-14 5.574365158479e-14 2.715197867300e-10 2.716070338036e-10 7.631680305921e+04
3.155760000000e+14 3.149552043947e-14 5.574336373670e-14 2.715190455895e-10 2.716062844737e-10 8.563802925938e+04
3.540762720000e+14 3.148848142228e-14 5.574310738770e-14 2.715183850533e-10 2.716056166421e-10 9.609491937682e+04
3.972786264000e+14 3.148221178730e-14 5.574287872688e-14 2.715177964975e-10 2.716050215880e-10 1.078288957763e+05
4.457511000000e+14 3.147662655911e-14 5.574267505385e-14 2.715172720022e-10 2.716044913038e-10 1.209942373107e+05
5.001564024000e+14 3.147165238903e-14 5.574249334086e-14 2.715168047582e-10 2.716040189040e-10 1.357709360922e+05
5.611888008000e+14 3.146722020493e-14 5.574233171271e-14 2.715163882934e-10 2.716035978454e-10 1.523475550828e+05
6.296687928000e+14 3.146327230257e-14 5.574218756183e-14 2.715160171568e-10 2.716032226167e-10 1.709469415947e+05
7.064799912000e+14 3.145975359295e-14 5.574205922460e-14 2.715156863029e-10 2.716028881157e-10 1.918090849198e+05
7.926953544000e+14 3.145661931528e-14 5.574194457361e-14 2.715153915599e-10 2.716025901238e-10 2.152254008734e+05
8.894193984000e+14 3.145382632984e-14 5.574184258400e-14 2.715151288572e-10 2.716023245261e-10 2.414958760613e+05
9.979459848000e+14 3.145133761495e-14 5.574175164712e-14 2.715148947381e-10 2.716020878274e-10 2.709719235124e+05
1.119695205600e+15 3.144911966895e-14 5.574167064292e-14 2.715146860567e-10 2.716018768470e-10 3.040392403863e+05
1.256339613600e+15 3.144714380120e-14 5.574159834019e-14 2.715145001318e-10 2.716016888740e-10 3.411520923743e+05
1.409614876800e+15 3.144538271097e-14 5.574153403183e-14 2.715143343875e-10 2.716015213042e-10 3.827818870377e+05
1.581635354400e+15 3.144381372709e-14 5.574147661106e-14 2.715141867099e-10 2.716013720003e-10 4.295028847660e+05
1.774610078400e+15 3.144241538156e-14 5.574142551672e-14 2.715140550725e-10 2.716012389134e-10 4.819150588834e+05
1.991158329600e+15 3.144116942209e-14 5.574137992845e-14 2.715139377686e-10 2.716011203180e-10 5.407298065122e+05
2.234120292000e+15 3.144005909817e-14 5.574133932377e-14 2.715138332203e-10 2.716010146187e-10 6.067185220138e+05
2.506714840800e+15 3.143906962161e-14 5.574130313528e-14 2.715137400392e-10 2.716009204119e-10 6.807554523671e+05
2.812571100000e+15 3.143818787956e-14 5.574127087626e-14 2.715136569932e-10 2.716008364520e-10 7.638262681999e+05
3.155760000000e+15 3.143740217435e-14 5.574124212291e-14 2.715135829826e-10 2.716007616269e-10 8.570366348218e+05
