VARIABLES  = "X","Y","Z", "PRESSURE1", "TEMPERATURE1"
ZONE T="0.000000000000e+00s", N=27, E=26, F=FEPOINT, ET=QUADRILATERAL
STRANDID=1, SOLUTIONTIME=0.000000000000e+00
0.000000000000e+00 0.000000000000e+00 0.000000000000e+00 1.000000000000e+05 3.000000000000e+02 
2.000000000000e-01 0.000000000000e+00 0.000000000000e+00 1.000000000000e+05 3.000000000000e+02 
4.000000000000e-01 0.000000000000e+00 0.000000000000e+00 1.000000000000e+05 3.000000000000e+02 
6.000000000000e-01 0.000000000000e+00 0.000000000000e+00 1.000000000000e+05 3.000000000000e+02 
8.000000000000e-01 0.000000000000e+00 0.000000000000e+00 1.000000000000e+05 3.000000000000e+02 
1.000000000000e+00 0.000000000000e+00 0.000000000000e+00 1.000000000000e+05 3.000000000000e+02 
1.200000000000e+00 0.000000000000e+00 0.000000000000e+00 1.000000000000e+05 3.000000000000e+02 
1.400000000000e+00 0.000000000000e+00 0.000000000000e+00 1.000000000000e+05 3.000000000000e+02 
1.600000000000e+00 0.000000000000e+00 0.000000000000e+00 1.000000000000e+05 3.000000000000e+02 
1.800000000000e+00 0.000000000000e+00 0.000000000000e+00 1.000000000000e+05 3.000000000000e+02 
2.000000000000e+00 0.000000000000e+00 0.000000000000e+00 1.000000000000e+05 3.000000000000e+02 
2.200000000000e+00 0.000000000000e+00 0.000000000000e+00 1.000000000000e+05 3.000000000000e+02 
2.400000000000e+00 0.000000000000e+00 0.000000000000e+00 1.000000000000e+05 3.000000000000e+02 
2.600000000000e+00 0.000000000000e+00 0.000000000000e+00 1.000000000000e+05 3.000000000000e+02 
2.800000000000e+00 0.000000000000e+00 0.000000000000e+00 1.000000000000e+05 3.000000000000e+02 
3.000000000000e+00 0.000000000000e+00 0.000000000000e+00 1.000000000000e+05 3.000000000000e+02 
3.200000000000e+00 0.000000000000e+00 0.000000000000e+00 1.000000000000e+05 3.000000000000e+02 
3.400000000000e+00 0.000000000000e+00 0.000000000000e+00 1.000000000000e+05 3.000000000000e+02 
3.600000000000e+00 0.000000000000e+00 0.000000000000e+00 1.000000000000e+05 3.000000000000e+02 
3.800000000000e+00 0.000000000000e+00 0.000000000000e+00 1.000000000000e+05 3.000000000000e+02 
4.000000000000e+00 0.000000000000e+00 0.000000000000e+00 1.000000000000e+05 3.000000000000e+02 
4.200000000000e+00 0.000000000000e+00 0.000000000000e+00 1.000000000000e+05 3.000000000000e+02 
4.400000000000e+00 0.000000000000e+00 0.000000000000e+00 1.000000000000e+05 3.000000000000e+02 
4.600000000000e+00 0.000000000000e+00 0.000000000000e+00 1.000000000000e+05 3.000000000000e+02 
4.800000000000e+00 0.000000000000e+00 0.000000000000e+00 1.000000000000e+05 3.000000000000e+02 
5.000000000000e+00 0.000000000000e+00 0.000000000000e+00 1.000000000000e+05 3.000000000000e+02 
5.200000000000e+00 0.000000000000e+00 0.000000000000e+00 1.000000000000e+05 3.000000000000e+02 
1  2  2  1
2  3  3  2
3  4  4  3
4  5  5  4
5  6  6  5
6  7  7  6
7  8  8  7
8  9  9  8
9  10  10  9
10  11  11  10
11  12  12  11
12  13  13  12
13  14  14  13
14  15  15  14
15  16  16  15
16  17  17  16
17  18  18  17
18  19  19  18
19  20  20  19
20  21  21  20
21  22  22  21
22  23  23  22
23  24  24  23
24  25  25  24
25  26  26  25
26  27  27  26
VARIABLES  = "X","Y","Z", "PRESSURE1", "TEMPERATURE1"
ZONE T="1.000000000000e+05s", N=27, E=26, F=FEPOINT, ET=QUADRILATERAL
STRANDID=1, SOLUTIONTIME=1.000000000000e+05
0.000000000000e+00 0.000000000000e+00 0.000000000000e+00 1.010000000000e+05 4.000000000000e+02 
2.000000000000e-01 0.000000000000e+00 0.000000000000e+00 1.009615384615e+05 3.659329069510e+02 
4.000000000000e-01 0.000000000000e+00 0.000000000000e+00 1.009230769231e+05 3.436136015886e+02 
6.000000000000e-01 0.000000000000e+00 0.000000000000e+00 1.008846153846e+05 3.289112350706e+02 
8.000000000000e-01 0.000000000000e+00 0.000000000000e+00 1.008461538462e+05 3.191919461906e+02 
1.000000000000e+00 0.000000000000e+00 0.000000000000e+00 1.008076923077e+05 3.127518265863e+02 
1.200000000000e+00 0.000000000000e+00 0.000000000000e+00 1.007692307692e+05 3.084779564150e+02 
1.400000000000e+00 0.000000000000e+00 0.000000000000e+00 1.007307692308e+05 3.056387904011e+02 
1.600000000000e+00 0.000000000000e+00 0.000000000000e+00 1.006923076923e+05 3.037514362899e+02 
1.800000000000e+00 0.000000000000e+00 0.000000000000e+00 1.006538461538e+05 3.024962429399e+02 
2.000000000000e+00 0.000000000000e+00 0.000000000000e+00 1.006153846154e+05 3.016612223062e+02 
2.200000000000e+00 0.000000000000e+00 0.000000000000e+00 1.005769230769e+05 3.011056126535e+02 
2.400000000000e+00 0.000000000000e+00 0.000000000000e+00 1.005384615385e+05 3.007358699964e+02 
2.600000000000e+00 0.000000000000e+00 0.000000000000e+00 1.005000000000e+05 3.004897950569e+02 
2.800000000000e+00 0.000000000000e+00 0.000000000000e+00 1.004615384615e+05 3.003260151851e+02 
3.000000000000e+00 0.000000000000e+00 0.000000000000e+00 1.004230769231e+05 3.002170041488e+02 
3.200000000000e+00 0.000000000000e+00 0.000000000000e+00 1.003846153846e+05 3.001444451252e+02 
3.400000000000e+00 0.000000000000e+00 0.000000000000e+00 1.003461538462e+05 3.000961482419e+02 
3.600000000000e+00 0.000000000000e+00 0.000000000000e+00 1.003076923077e+05 3.000640006185e+02 
3.800000000000e+00 0.000000000000e+00 0.000000000000e+00 1.002692307692e+05 3.000426027288e+02 
4.000000000000e+00 0.000000000000e+00 0.000000000000e+00 1.002307692308e+05 3.000283613146e+02 
4.200000000000e+00 0.000000000000e+00 0.000000000000e+00 1.001923076923e+05 3.000188863921e+02 
4.400000000000e+00 0.000000000000e+00 0.000000000000e+00 1.001538461538e+05 3.000125915908e+02 
4.600000000000e+00 0.000000000000e+00 0.000000000000e+00 1.001153846154e+05 3.000084323467e+02 
4.800000000000e+00 0.000000000000e+00 0.000000000000e+00 1.000769230769e+05 3.000057423299e+02 
5.000000000000e+00 0.000000000000e+00 0.000000000000e+00 1.000384615385e+05 3.000041517710e+02 
5.200000000000e+00 0.000000000000e+00 0.000000000000e+00 1.000000000000e+05 3.000036023630e+02 
1  2  2  1
2  3  3  2
3  4  4  3
4  5  5  4
5  6  6  5
6  7  7  6
7  8  8  7
8  9  9  8
9  10  10  9
10  11  11  10
11  12  12  11
12  13  13  12
13  14  14  13
14  15  15  14
15  16  16  15
16  17  17  16
17  18  18  17
18  19  19  18
19  20  20  19
20  21  21  20
21  22  22  21
22  23  23  22
23  24  24  23
24  25  25  24
25  26  26  25
26  27  27  26
VARIABLES  = "X","Y","Z", "PRESSURE1", "TEMPERATURE1"
ZONE T="2.000000000000e+05s", N=27, E=26, F=FEPOINT, ET=QUADRILATERAL
STRANDID=1, SOLUTIONTIME=2.000000000000e+05
0.000000000000e+00 0.000000000000e+00 0.000000000000e+00 1.010000000000e+05 4.000000000000e+02 
2.000000000000e-01 0.000000000000e+00 0.000000000000e+00 1.009615384615e+05 3.846728544159e+02 
4.000000000000e-01 0.000000000000e+00 0.000000000000e+00 1.009230769231e+05 3.682902759397e+02 
6.000000000000e-01 0.000000000000e+00 0.000000000000e+00 1.008846153846e+05 3.533614343446e+02 
8.000000000000e-01 0.000000000000e+00 0.000000000000e+00 1.008461538462e+05 3.407780226800e+02 
1.000000000000e+00 0.000000000000e+00 0.000000000000e+00 1.008076923077e+05 3.306495564204e+02 
1.200000000000e+00 0.000000000000e+00 0.000000000000e+00 1.007692307692e+05 3.227418482634e+02 
1.400000000000e+00 0.000000000000e+00 0.000000000000e+00 1.007307692308e+05 3.167006218932e+02 
1.600000000000e+00 0.000000000000e+00 0.000000000000e+00 1.006923076923e+05 3.121600936089e+02 
1.800000000000e+00 0.000000000000e+00 0.000000000000e+00 1.006538461538e+05 3.087908303072e+02 
2.000000000000e+00 0.000000000000e+00 0.000000000000e+00 1.006153846154e+05 3.063163620391e+02 
2.200000000000e+00 0.000000000000e+00 0.000000000000e+00 1.005769230769e+05 3.045144845554e+02 
2.400000000000e+00 0.000000000000e+00 0.000000000000e+00 1.005384615385e+05 3.032117654071e+02 
2.600000000000e+00 0.000000000000e+00 0.000000000000e+00 1.005000000000e+05 3.022756864462e+02 
2.800000000000e+00 0.000000000000e+00 0.000000000000e+00 1.004615384615e+05 3.016066178690e+02 
3.000000000000e+00 0.000000000000e+00 0.000000000000e+00 1.004230769231e+05 3.011306070988e+02 
3.200000000000e+00 0.000000000000e+00 0.000000000000e+00 1.003846153846e+05 3.007933272288e+02 
3.400000000000e+00 0.000000000000e+00 0.000000000000e+00 1.003461538462e+05 3.005552102803e+02 
3.600000000000e+00 0.000000000000e+00 0.000000000000e+00 1.003076923077e+05 3.003876461704e+02 
3.800000000000e+00 0.000000000000e+00 0.000000000000e+00 1.002692307692e+05 3.002700773105e+02 
4.000000000000e+00 0.000000000000e+00 0.000000000000e+00 1.002307692308e+05 3.001878152289e+02 
4.200000000000e+00 0.000000000000e+00 0.000000000000e+00 1.001923076923e+05 3.001304244689e+02 
4.400000000000e+00 0.000000000000e+00 0.000000000000e+00 1.001538461538e+05 3.000905478220e+02 
4.600000000000e+00 0.000000000000e+00 0.000000000000e+00 1.001153846154e+05 3.000630819131e+02 
4.800000000000e+00 0.000000000000e+00 0.000000000000e+00 1.000769230769e+05 3.000446578382e+02 
5.000000000000e+00 0.000000000000e+00 0.000000000000e+00 1.000384615385e+05 3.000334556444e+02 
5.200000000000e+00 0.000000000000e+00 0.000000000000e+00 1.000000000000e+05 3.000295293469e+02 
1  2  2  1
2  3  3  2
3  4  4  3
4  5  5  4
5  6  6  5
6  7  7  6
7  8  8  7
8  9  9  8
9  10  10  9
10  11  11  10
11  12  12  11
12  13  13  12
13  14  14  13
14  15  15  14
15  16  16  15
16  17  17  16
17  18  18  17
18  19  19  18
19  20  20  19
20  21  21  20
21  22  22  21
22  23  23  22
23  24  24  23
24  25  25  24
25  26  26  25
26  27  27  26
VARIABLES  = "X","Y","Z", "PRESSURE1", "TEMPERATURE1"
ZONE T="3.000000000000e+05s", N=27, E=26, F=FEPOINT, ET=QUADRILATERAL
STRANDID=1, SOLUTIONTIME=3.000000000000e+05
0.000000000000e+00 0.000000000000e+00 0.000000000000e+00 1.010000000000e+05 4.000000000000e+02 
2.000000000000e-01 0.000000000000e+00 0.000000000000e+00 1.009615384615e+05 3.912037183060e+02 
4.000000000000e-01 0.000000000000e+00 0.000000000000e+00 1.009230769231e+05 3.803755023076e+02 
6.000000000000e-01 0.000000000000e+00 0.000000000000e+00 1.008846153846e+05 3.687634735346e+02 
8.000000000000e-01 0.000000000000e+00 0.000000000000e+00 1.008461538462e+05 3.573854216877e+02 
1.000000000000e+00 0.000000000000e+00 0.000000000000e+00 1.008076923077e+05 3.469064833293e+02 
1.200000000000e+00 0.000000000000e+00 0.000000000000e+00 1.007692307692e+05 3.376776986065e+02 
1.400000000000e+00 0.000000000000e+00 0.000000000000e+00 1.007307692308e+05 3.298190939221e+02 
1.600000000000e+00 0.000000000000e+00 0.000000000000e+00 1.006923076923e+05 3.233007521460e+02 
1.800000000000e+00 0.000000000000e+00 0.000000000000e+00 1.006538461538e+05 3.180069541947e+02 
2.000000000000e+00 0.000000000000e+00 0.000000000000e+00 1.006153846154e+05 3.137815936061e+02 
2.200000000000e+00 0.000000000000e+00 0.000000000000e+00 1.005769230769e+05 3.104577352970e+02 
2.400000000000e+00 0.000000000000e+00 0.000000000000e+00 1.005384615385e+05 3.078752517391e+02 
2.600000000000e+00 0.000000000000e+00 0.000000000000e+00 1.005000000000e+05 3.058901453634e+02 
2.800000000000e+00 0.000000000000e+00 0.000000000000e+00 1.004615384615e+05 3.043784252660e+02 
3.000000000000e+00 0.000000000000e+00 0.000000000000e+00 1.004230769231e+05 3.032366440285e+02 
3.200000000000e+00 0.000000000000e+00 0.000000000000e+00 1.003846153846e+05 3.023805558113e+02 
3.400000000000e+00 0.000000000000e+00 0.000000000000e+00 1.003461538462e+05 3.017428603191e+02 
3.600000000000e+00 0.000000000000e+00 0.000000000000e+00 1.003076923077e+05 3.012706369117e+02 
3.800000000000e+00 0.000000000000e+00 0.000000000000e+00 1.002692307692e+05 3.009228239765e+02 
4.000000000000e+00 0.000000000000e+00 0.000000000000e+00 1.002307692308e+05 3.006679349374e+02 
4.200000000000e+00 0.000000000000e+00 0.000000000000e+00 1.001923076923e+05 3.004821028518e+02 
4.400000000000e+00 0.000000000000e+00 0.000000000000e+00 1.001538461538e+05 3.003474968323e+02 
4.600000000000e+00 0.000000000000e+00 0.000000000000e+00 1.001153846154e+05 3.002511530059e+02 
4.800000000000e+00 0.000000000000e+00 0.000000000000e+00 1.000769230769e+05 3.001843267524e+02 
5.000000000000e+00 0.000000000000e+00 0.000000000000e+00 1.000384615385e+05 3.001426555609e+02 
5.200000000000e+00 0.000000000000e+00 0.000000000000e+00 1.000000000000e+05 3.001278583310e+02 
1  2  2  1
2  3  3  2
3  4  4  3
4  5  5  4
5  6  6  5
6  7  7  6
7  8  8  7
8  9  9  8
9  10  10  9
10  11  11  10
11  12  12  11
12  13  13  12
13  14  14  13
14  15  15  14
15  16  16  15
16  17  17  16
17  18  18  17
18  19  19  18
19  20  20  19
20  21  21  20
21  22  22  21
22  23  23  22
23  24  24  23
24  25  25  24
25  26  26  25
26  27  27  26
VARIABLES  = "X","Y","Z", "PRESSURE1", "TEMPERATURE1"
ZONE T="4.000000000000e+05s", N=27, E=26, F=FEPOINT, ET=QUADRILATERAL
STRANDID=1, SOLUTIONTIME=4.000000000000e+05
0.000000000000e+00 0.000000000000e+00 0.000000000000e+00 1.010000000000e+05 4.000000000000e+02 
2.000000000000e-01 0.000000000000e+00 0.000000000000e+00 1.009615384615e+05 3.943218240082e+02 
4.000000000000e-01 0.000000000000e+00 0.000000000000e+00 1.009230769231e+05 3.869093321818e+02 
6.000000000000e-01 0.000000000000e+00 0.000000000000e+00 1.008846153846e+05 3.782698752756e+02 
8.000000000000e-01 0.000000000000e+00 0.000000000000e+00 1.008461538462e+05 3.690019398111e+02 
1.000000000000e+00 0.000000000000e+00 0.000000000000e+00 1.008076923077e+05 3.596622345069e+02 
1.200000000000e+00 0.000000000000e+00 0.000000000000e+00 1.007692307692e+05 3.506942072040e+02 
1.400000000000e+00 0.000000000000e+00 0.000000000000e+00 1.007307692308e+05 3.424062922336e+02 
1.600000000000e+00 0.000000000000e+00 0.000000000000e+00 1.006923076923e+05 3.349804013408e+02 
1.800000000000e+00 0.000000000000e+00 0.000000000000e+00 1.006538461538e+05 3.284947101371e+02 
2.000000000000e+00 0.000000000000e+00 0.000000000000e+00 1.006153846154e+05 3.229504125195e+02 
2.200000000000e+00 0.000000000000e+00 0.000000000000e+00 1.005769230769e+05 3.182967750930e+02 
2.400000000000e+00 0.000000000000e+00 0.000000000000e+00 1.005384615385e+05 3.144519609746e+02 
2.600000000000e+00 0.000000000000e+00 0.000000000000e+00 1.005000000000e+05 3.113189524789e+02 
2.800000000000e+00 0.000000000000e+00 0.000000000000e+00 1.004615384615e+05 3.087968795463e+02 
3.000000000000e+00 0.000000000000e+00 0.000000000000e+00 1.004230769231e+05 3.067884894550e+02 
3.200000000000e+00 0.000000000000e+00 0.000000000000e+00 1.003846153846e+05 3.052046083728e+02 
3.400000000000e+00 0.000000000000e+00 0.000000000000e+00 1.003461538462e+05 3.039663975413e+02 
3.600000000000e+00 0.000000000000e+00 0.000000000000e+00 1.003076923077e+05 3.030060876318e+02 
3.800000000000e+00 0.000000000000e+00 0.000000000000e+00 1.002692307692e+05 3.022667367864e+02 
4.000000000000e+00 0.000000000000e+00 0.000000000000e+00 1.002307692308e+05 3.017014307198e+02 
4.200000000000e+00 0.000000000000e+00 0.000000000000e+00 1.001923076923e+05 3.012722450798e+02 
4.400000000000e+00 0.000000000000e+00 0.000000000000e+00 1.001538461538e+05 3.009492376666e+02 
4.600000000000e+00 0.000000000000e+00 0.000000000000e+00 1.001153846154e+05 3.007097586916e+02 
4.800000000000e+00 0.000000000000e+00 0.000000000000e+00 1.000769230769e+05 3.005385207835e+02 
5.000000000000e+00 0.000000000000e+00 0.000000000000e+00 1.000384615385e+05 3.004292910467e+02 
5.200000000000e+00 0.000000000000e+00 0.000000000000e+00 1.000000000000e+05 3.003900522775e+02 
1  2  2  1
2  3  3  2
3  4  4  3
4  5  5  4
5  6  6  5
6  7  7  6
7  8  8  7
8  9  9  8
9  10  10  9
10  11  11  10
11  12  12  11
12  13  13  12
13  14  14  13
14  15  15  14
15  16  16  15
16  17  17  16
17  18  18  17
18  19  19  18
19  20  20  19
20  21  21  20
21  22  22  21
22  23  23  22
23  24  24  23
24  25  25  24
25  26  26  25
26  27  27  26
VARIABLES  = "X","Y","Z", "PRESSURE1", "TEMPERATURE1"
ZONE T="5.000000000000e+05s", N=27, E=26, F=FEPOINT, ET=QUADRILATERAL
STRANDID=1, SOLUTIONTIME=5.000000000000e+05
0.000000000000e+00 0.000000000000e+00 0.000000000000e+00 1.010000000000e+05 4.000000000000e+02 
2.000000000000e-01 0.000000000000e+00 0.000000000000e+00 1.009615384615e+05 3.960844428732e+02 
4.000000000000e-01 0.000000000000e+00 0.000000000000e+00 1.009230769231e+05 3.908127350725e+02 
6.000000000000e-01 0.000000000000e+00 0.000000000000e+00 1.008846153846e+05 3.843671073158e+02 
8.000000000000e-01 0.000000000000e+00 0.000000000000e+00 1.008461538462e+05 3.770473020437e+02 
1.000000000000e+00 0.000000000000e+00 0.000000000000e+00 1.008076923077e+05 3.692071074548e+02 
1.200000000000e+00 0.000000000000e+00 0.000000000000e+00 1.007692307692e+05 3.611975222328e+02 
1.400000000000e+00 0.000000000000e+00 0.000000000000e+00 1.007307692308e+05 3.533269806859e+02 
1.600000000000e+00 0.000000000000e+00 0.000000000000e+00 1.006923076923e+05 3.458399406213e+02 
1.800000000000e+00 0.000000000000e+00 0.000000000000e+00 1.006538461538e+05 3.389104469858e+02 
2.000000000000e+00 0.000000000000e+00 0.000000000000e+00 1.006153846154e+05 3.326458924785e+02 
2.200000000000e+00 0.000000000000e+00 0.000000000000e+00 1.005769230769e+05 3.270965653550e+02 
2.400000000000e+00 0.000000000000e+00 0.000000000000e+00 1.005384615385e+05 3.222676125979e+02 
2.600000000000e+00 0.000000000000e+00 0.000000000000e+00 1.005000000000e+05 3.181311589009e+02 
2.800000000000e+00 0.000000000000e+00 0.000000000000e+00 1.004615384615e+05 3.146372549270e+02 
3.000000000000e+00 0.000000000000e+00 0.000000000000e+00 1.004230769231e+05 3.117230154714e+02 
3.200000000000e+00 0.000000000000e+00 0.000000000000e+00 1.003846153846e+05 3.093197678073e+02 
3.400000000000e+00 0.000000000000e+00 0.000000000000e+00 1.003461538462e+05 3.073583101810e+02 
3.600000000000e+00 0.000000000000e+00 0.000000000000e+00 1.003076923077e+05 3.057725312235e+02 
3.800000000000e+00 0.000000000000e+00 0.000000000000e+00 1.002692307692e+05 3.045017081980e+02 
4.000000000000e+00 0.000000000000e+00 0.000000000000e+00 1.002307692308e+05 3.034918239599e+02 
4.200000000000e+00 0.000000000000e+00 0.000000000000e+00 1.001923076923e+05 3.026962550417e+02 
4.400000000000e+00 0.000000000000e+00 0.000000000000e+00 1.001538461538e+05 3.020762282913e+02 
4.600000000000e+00 0.000000000000e+00 0.000000000000e+00 1.001153846154e+05 3.016015862820e+02 
4.800000000000e+00 0.000000000000e+00 0.000000000000e+00 1.000769230769e+05 3.012527646726e+02 
5.000000000000e+00 0.000000000000e+00 0.000000000000e+00 1.000384615385e+05 3.010257152303e+02 
5.200000000000e+00 0.000000000000e+00 0.000000000000e+00 1.000000000000e+05 3.009433149946e+02 
1  2  2  1
2  3  3  2
3  4  4  3
4  5  5  4
5  6  6  5
6  7  7  6
7  8  8  7
8  9  9  8
9  10  10  9
10  11  11  10
11  12  12  11
12  13  13  12
13  14  14  13
14  15  15  14
15  16  16  15
16  17  17  16
17  18  18  17
18  19  19  18
19  20  20  19
20  21  21  20
21  22  22  21
22  23  23  22
23  24  24  23
24  25  25  24
25  26  26  25
26  27  27  26
VARIABLES  = "X","Y","Z", "PRESSURE1", "TEMPERATURE1"
ZONE T="6.000000000000e+05s", N=27, E=26, F=FEPOINT, ET=QUADRILATERAL
STRANDID=1, SOLUTIONTIME=6.000000000000e+05
0.000000000000e+00 0.000000000000e+00 0.000000000000e+00 1.010000000000e+05 4.000000000000e+02 
2.000000000000e-01 0.000000000000e+00 0.000000000000e+00 1.009615384615e+05 3.971840202542e+02 
4.000000000000e-01 0.000000000000e+00 0.000000000000e+00 1.009230769231e+05 3.933205152418e+02 
6.000000000000e-01 0.000000000000e+00 0.000000000000e+00 1.008846153846e+05 3.884504263912e+02 
8.000000000000e-01 0.000000000000e+00 0.000000000000e+00 1.008461538462e+05 3.827050976782e+02 
1.000000000000e+00 0.000000000000e+00 0.000000000000e+00 1.008076923077e+05 3.762826213531e+02 
1.200000000000e+00 0.000000000000e+00 0.000000000000e+00 1.007692307692e+05 3.694174442558e+02 
1.400000000000e+00 0.000000000000e+00 0.000000000000e+00 1.007307692308e+05 3.623509765276e+02 
1.600000000000e+00 0.000000000000e+00 0.000000000000e+00 1.006923076923e+05 3.553080344430e+02 
1.800000000000e+00 0.000000000000e+00 0.000000000000e+00 1.006538461538e+05 3.484810134694e+02 
2.000000000000e+00 0.000000000000e+00 0.000000000000e+00 1.006153846154e+05 3.420215877616e+02 
2.200000000000e+00 0.000000000000e+00 0.000000000000e+00 1.005769230769e+05 3.360385908979e+02 
2.400000000000e+00 0.000000000000e+00 0.000000000000e+00 1.005384615385e+05 3.306003355144e+02 
2.600000000000e+00 0.000000000000e+00 0.000000000000e+00 1.005000000000e+05 3.257396921144e+02 
2.800000000000e+00 0.000000000000e+00 0.000000000000e+00 1.004615384615e+05 3.214605352483e+02 
3.000000000000e+00 0.000000000000e+00 0.000000000000e+00 1.004230769231e+05 3.177445234172e+02 
3.200000000000e+00 0.000000000000e+00 0.000000000000e+00 1.003846153846e+05 3.145575212648e+02 
3.400000000000e+00 0.000000000000e+00 0.000000000000e+00 1.003461538462e+05 3.118552604957e+02 
3.600000000000e+00 0.000000000000e+00 0.000000000000e+00 1.003076923077e+05 3.095880604942e+02 
3.800000000000e+00 0.000000000000e+00 0.000000000000e+00 1.002692307692e+05 3.077045989936e+02 
4.000000000000e+00 0.000000000000e+00 0.000000000000e+00 1.002307692308e+05 3.061548571935e+02 
4.200000000000e+00 0.000000000000e+00 0.000000000000e+00 1.001923076923e+05 3.048924949454e+02 
4.400000000000e+00 0.000000000000e+00 0.000000000000e+00 1.001538461538e+05 3.038770943022e+02 
4.600000000000e+00 0.000000000000e+00 0.000000000000e+00 1.001153846154e+05 3.030770421226e+02 
4.800000000000e+00 0.000000000000e+00 0.000000000000e+00 1.000769230769e+05 3.024744925382e+02 
5.000000000000e+00 0.000000000000e+00 0.000000000000e+00 1.000384615385e+05 3.020752261581e+02 
5.200000000000e+00 0.000000000000e+00 0.000000000000e+00 1.000000000000e+05 3.019290262708e+02 
1  2  2  1
2  3  3  2
3  4  4  3
4  5  5  4
5  6  6  5
6  7  7  6
7  8  8  7
8  9  9  8
9  10  10  9
10  11  11  10
11  12  12  11
12  13  13  12
13  14  14  13
14  15  15  14
15  16  16  15
16  17  17  16
17  18  18  17
18  19  19  18
19  20  20  19
20  21  21  20
21  22  22  21
22  23  23  22
23  24  24  23
24  25  25  24
25  26  26  25
26  27  27  26
VARIABLES  = "X","Y","Z", "PRESSURE1", "TEMPERATURE1"
ZONE T="7.000000000000e+05s", N=27, E=26, F=FEPOINT, ET=QUADRILATERAL
STRANDID=1, SOLUTIONTIME=7.000000000000e+05
0.000000000000e+00 0.000000000000e+00 0.000000000000e+00 1.010000000000e+05 4.000000000000e+02 
2.000000000000e-01 0.000000000000e+00 0.000000000000e+00 1.009615384615e+05 3.979148717685e+02 
4.000000000000e-01 0.000000000000e+00 0.000000000000e+00 1.009230769231e+05 3.950174239535e+02 
6.000000000000e-01 0.000000000000e+00 0.000000000000e+00 1.008846153846e+05 3.912875734493e+02 
8.000000000000e-01 0.000000000000e+00 0.000000000000e+00 1.008461538462e+05 3.867671456090e+02 
1.000000000000e+00 0.000000000000e+00 0.000000000000e+00 1.008076923077e+05 3.815540381890e+02 
1.200000000000e+00 0.000000000000e+00 0.000000000000e+00 1.007692307692e+05 3.757891071485e+02 
1.400000000000e+00 0.000000000000e+00 0.000000000000e+00 1.007307692308e+05 3.696393763498e+02 
1.600000000000e+00 0.000000000000e+00 0.000000000000e+00 1.006923076923e+05 3.632809749579e+02 
1.800000000000e+00 0.000000000000e+00 0.000000000000e+00 1.006538461538e+05 3.568842816090e+02 
2.000000000000e+00 0.000000000000e+00 0.000000000000e+00 1.006153846154e+05 3.506026377003e+02 
2.200000000000e+00 0.000000000000e+00 0.000000000000e+00 1.005769230769e+05 3.445650268953e+02 
2.400000000000e+00 0.000000000000e+00 0.000000000000e+00 1.005384615385e+05 3.388724455703e+02 
2.600000000000e+00 0.000000000000e+00 0.000000000000e+00 1.005000000000e+05 3.335973136483e+02 
2.800000000000e+00 0.000000000000e+00 0.000000000000e+00 1.004615384615e+05 3.287851352383e+02 
3.000000000000e+00 0.000000000000e+00 0.000000000000e+00 1.004230769231e+05 3.244576358477e+02 
3.200000000000e+00 0.000000000000e+00 0.000000000000e+00 1.003846153846e+05 3.206167096855e+02 
3.400000000000e+00 0.000000000000e+00 0.000000000000e+00 1.003461538462e+05 3.172486579961e+02 
3.600000000000e+00 0.000000000000e+00 0.000000000000e+00 1.003076923077e+05 3.143283586148e+02 
3.800000000000e+00 0.000000000000e+00 0.000000000000e+00 1.002692307692e+05 3.118231672450e+02 
4.000000000000e+00 0.000000000000e+00 0.000000000000e+00 1.002307692308e+05 3.096965193343e+02 
4.200000000000e+00 0.000000000000e+00 0.000000000000e+00 1.001923076923e+05 3.079114069873e+02 
4.400000000000e+00 0.000000000000e+00 0.000000000000e+00 1.001538461538e+05 3.064342124134e+02 
4.600000000000e+00 0.000000000000e+00 0.000000000000e+00 1.001153846154e+05 3.052399159361e+02 
4.800000000000e+00 0.000000000000e+00 0.000000000000e+00 1.000769230769e+05 3.043207104499e+02 
5.000000000000e+00 0.000000000000e+00 0.000000000000e+00 1.000384615385e+05 3.037020186793e+02 
5.200000000000e+00 0.000000000000e+00 0.000000000000e+00 1.000000000000e+05 3.034737120638e+02 
1  2  2  1
2  3  3  2
3  4  4  3
4  5  5  4
5  6  6  5
6  7  7  6
7  8  8  7
8  9  9  8
9  10  10  9
10  11  11  10
11  12  12  11
12  13  13  12
13  14  14  13
14  15  15  14
15  16  16  15
16  17  17  16
17  18  18  17
18  19  19  18
19  20  20  19
20  21  21  20
21  22  22  21
22  23  23  22
23  24  24  23
24  25  25  24
25  26  26  25
26  27  27  26
VARIABLES  = "X","Y","Z", "PRESSURE1", "TEMPERATURE1"
ZONE T="8.000000000000e+05s", N=27, E=26, F=FEPOINT, ET=QUADRILATERAL
STRANDID=1, SOLUTIONTIME=8.000000000000e+05
0.000000000000e+00 0.000000000000e+00 0.000000000000e+00 1.010000000000e+05 4.000000000000e+02 
2.000000000000e-01 0.000000000000e+00 0.000000000000e+00 1.009615384615e+05 3.984224854610e+02 
4.000000000000e-01 0.000000000000e+00 0.000000000000e+00 1.009230769231e+05 3.962101486724e+02 
6.000000000000e-01 0.000000000000e+00 0.000000000000e+00 1.008846153846e+05 3.933182237924e+02 
8.000000000000e-01 0.000000000000e+00 0.000000000000e+00 1.008461538462e+05 3.897425013709e+02 
1.000000000000e+00 0.000000000000e+00 0.000000000000e+00 1.008076923077e+05 3.855205970672e+02 
1.200000000000e+00 0.000000000000e+00 0.000000000000e+00 1.007692307692e+05 3.807279847159e+02 
1.400000000000e+00 0.000000000000e+00 0.000000000000e+00 1.007307692308e+05 3.754700505389e+02 
1.600000000000e+00 0.000000000000e+00 0.000000000000e+00 1.006923076923e+05 3.698718999476e+02 
1.800000000000e+00 0.000000000000e+00 0.000000000000e+00 1.006538461538e+05 3.640676353504e+02 
2.000000000000e+00 0.000000000000e+00 0.000000000000e+00 1.006153846154e+05 3.581904851292e+02 
2.200000000000e+00 0.000000000000e+00 0.000000000000e+00 1.005769230769e+05 3.523646871166e+02 
2.400000000000e+00 0.000000000000e+00 0.000000000000e+00 1.005384615385e+05 3.466995597647e+02 
2.600000000000e+00 0.000000000000e+00 0.000000000000e+00 1.005000000000e+05 3.412858141838e+02 
2.800000000000e+00 0.000000000000e+00 0.000000000000e+00 1.004615384615e+05 3.361939001194e+02 
3.000000000000e+00 0.000000000000e+00 0.000000000000e+00 1.004230769231e+05 3.314740336749e+02 
3.200000000000e+00 0.000000000000e+00 0.000000000000e+00 1.003846153846e+05 3.271575027061e+02 
3.400000000000e+00 0.000000000000e+00 0.000000000000e+00 1.003461538462e+05 3.232588628333e+02 
3.600000000000e+00 0.000000000000e+00 0.000000000000e+00 1.003076923077e+05 3.197787037960e+02 
3.800000000000e+00 0.000000000000e+00 0.000000000000e+00 1.002692307692e+05 3.167067742364e+02 
4.000000000000e+00 0.000000000000e+00 0.000000000000e+00 1.002307692308e+05 3.140254112589e+02 
4.200000000000e+00 0.000000000000e+00 0.000000000000e+00 1.001923076923e+05 3.117134634687e+02 
4.400000000000e+00 0.000000000000e+00 0.000000000000e+00 1.001538461538e+05 3.097513005617e+02 
4.600000000000e+00 0.000000000000e+00 0.000000000000e+00 1.001153846154e+05 3.081282247106e+02 
4.800000000000e+00 0.000000000000e+00 0.000000000000e+00 1.000769230769e+05 3.068549352251e+02 
5.000000000000e+00 0.000000000000e+00 0.000000000000e+00 1.000384615385e+05 3.059861946885e+02 
5.200000000000e+00 0.000000000000e+00 0.000000000000e+00 1.000000000000e+05 3.056634786897e+02 
1  2  2  1
2  3  3  2
3  4  4  3
4  5  5  4
5  6  6  5
6  7  7  6
7  8  8  7
8  9  9  8
9  10  10  9
10  11  11  10
11  12  12  11
12  13  13  12
13  14  14  13
14  15  15  14
15  16  16  15
16  17  17  16
17  18  18  17
18  19  19  18
19  20  20  19
20  21  21  20
21  22  22  21
22  23  23  22
23  24  24  23
24  25  25  24
25  26  26  25
26  27  27  26
VARIABLES  = "X","Y","Z", "PRESSURE1", "TEMPERATURE1"
ZONE T="9.000000000000e+05s", N=27, E=26, F=FEPOINT, ET=QUADRILATERAL
STRANDID=1, SOLUTIONTIME=9.000000000000e+05
0.000000000000e+00 0.000000000000e+00 0.000000000000e+00 1.010000000000e+05 4.000000000000e+02 
2.000000000000e-01 0.000000000000e+00 0.000000000000e+00 1.009615384615e+05 3.987866014796e+02 
4.000000000000e-01 0.000000000000e+00 0.000000000000e+00 1.009230769231e+05 3.970729962655e+02 
6.000000000000e-01 0.000000000000e+00 0.000000000000e+00 1.008846153846e+05 3.948066363666e+02 
8.000000000000e-01 0.000000000000e+00 0.000000000000e+00 1.008461538462e+05 3.919608542430e+02 
1.000000000000e+00 0.000000000000e+00 0.000000000000e+00 1.008076923077e+05 3.885385029871e+02 
1.200000000000e+00 0.000000000000e+00 0.000000000000e+00 1.007692307692e+05 3.845723042258e+02 
1.400000000000e+00 0.000000000000e+00 0.000000000000e+00 1.007307692308e+05 3.801221117559e+02 
1.600000000000e+00 0.000000000000e+00 0.000000000000e+00 1.006923076923e+05 3.752697710446e+02 
1.800000000000e+00 0.000000000000e+00 0.000000000000e+00 1.006538461538e+05 3.701125016311e+02 
2.000000000000e+00 0.000000000000e+00 0.000000000000e+00 1.006153846154e+05 3.647557569482e+02 
2.200000000000e+00 0.000000000000e+00 0.000000000000e+00 1.005769230769e+05 3.593063819114e+02 
2.400000000000e+00 0.000000000000e+00 0.000000000000e+00 1.005384615385e+05 3.538666675705e+02 
2.600000000000e+00 0.000000000000e+00 0.000000000000e+00 1.005000000000e+05 3.485296605368e+02 
2.800000000000e+00 0.000000000000e+00 0.000000000000e+00 1.004615384615e+05 3.433758687652e+02 
3.000000000000e+00 0.000000000000e+00 0.000000000000e+00 1.004230769231e+05 3.384713392195e+02 
3.200000000000e+00 0.000000000000e+00 0.000000000000e+00 1.003846153846e+05 3.338669753403e+02 
3.400000000000e+00 0.000000000000e+00 0.000000000000e+00 1.003461538462e+05 3.295989124815e+02 