VARIABLES  = "X","Y","Z", "TEMPERATURE1"
ZONE T="0.000000000000e+00s", N=41, E=40, F=FEPOINT, ET=QUADRILATERAL
STRANDID=1, SOLUTIONTIME=0.000000000000e+00
1.000000000000e+00 0.000000000000e+00 0.000000000000e+00 2.500000000000e+01 
1.100000000000e+00 0.000000000000e+00 0.000000000000e+00 2.500000000000e+01 
1.200000000000e+00 0.000000000000e+00 0.000000000000e+00 2.500000000000e+01 
1.300000000000e+00 0.000000000000e+00 0.000000000000e+00 2.500000000000e+01 
1.400000000000e+00 0.000000000000e+00 0.000000000000e+00 2.500000000000e+01 
1.500000000000e+00 0.000000000000e+00 0.000000000000e+00 2.500000000000e+01 
1.600000000000e+00 0.000000000000e+00 0.000000000000e+00 2.500000000000e+01 
1.700000000000e+00 0.000000000000e+00 0.000000000000e+00 2.500000000000e+01 
1.800000000000e+00 0.000000000000e+00 0.000000000000e+00 2.500000000000e+01 
1.900000000000e+00 0.000000000000e+00 0.000000000000e+00 2.500000000000e+01 
2.000000000000e+00 0.000000000000e+00 0.000000000000e+00 2.500000000000e+01 
2.100000000000e+00 0.000000000000e+00 0.000000000000e+00 2.500000000000e+01 
2.200000000000e+00 0.000000000000e+00 0.000000000000e+00 2.500000000000e+01 
2.300000000000e+00 0.000000000000e+00 0.000000000000e+00 2.500000000000e+01 
2.400000000000e+00 0.000000000000e+00 0.000000000000e+00 2.500000000000e+01 
2.500000000000e+00 0.000000000000e+00 0.000000000000e+00 2.500000000000e+01 
2.600000000000e+00 0.000000000000e+00 0.000000000000e+00 2.500000000000e+01 
2.700000000000e+00 0.000000000000e+00 0.000000000000e+00 2.500000000000e+01 
2.800000000000e+00 0.000000000000e+00 0.000000000000e+00 2.500000000000e+01 
2.900000000000e+00 0.000000000000e+00 0.000000000000e+00 2.500000000000e+01 
3.000000000000e+00 0.000000000000e+00 0.000000000000e+00 2.500000000000e+01 
3.100000000000e+00 0.000000000000e+00 0.000000000000e+00 2.500000000000e+01 
3.200000000000e+00 0.000000000000e+00 0.000000000000e+00 2.500000000000e+01 
3.300000000000e+00 0.000000000000e+00 0.000000000000e+00 2.500000000000e+01 
3.400000000000e+00 0.000000000000e+00 0.000000000000e+00 2.500000000000e+01 
3.500000000000e+00 0.000000000000e+00 0.000000000000e+00 2.500000000000e+01 
3.600000000000e+00 0.000000000000e+00 0.000000000000e+00 2.500000000000e+01 
3.700000000000e+00 0.000000000000e+00 0.000000000000e+00 2.500000000000e+01 
3.800000000000e+00 0.000000000000e+00 0.000000000000e+00 2.500000000000e+01 
3.900000000000e+00 0.000000000000e+00 0.000000000000e+00 2.500000000000e+01 
4.000000000000e+00 0.000000000000e+00 0.000000000000e+00 2.500000000000e+01 
4.100000000000e+00 0.000000000000e+00 0.000000000000e+00 2.500000000000e+01 
4.200000000000e+00 0.000000000000e+00 0.000000000000e+00 2.500000000000e+01 
4.300000000000e+00 0.000000000000e+00 0.000000000000e+00 2.500000000000e+01 
4.400000000000e+00 0.000000000000e+00 0.000000000000e+00 2.500000000000e+01 
4.500000000000e+00 0.000000000000e+00 0.000000000000e+00 2.500000000000e+01 
4.600000000000e+00 0.000000000000e+00 0.000000000000e+00 2.500000000000e+01 
4.700000000000e+00 0.000000000000e+00 0.000000000000e+00 2.500000000000e+01 
4.800000000000e+00 0.000000000000e+00 0.000000000000e+00 2.500000000000e+01 
4.900000000000e+00 0.000000000000e+00 0.000000000000e+00 2.500000000000e+01 
5.000000000000e+00 0.000000000000e+00 0.000000000000e+00 2.500000000000e+01 
1  2  2  1
2  3  3  2
3  4  4  3
4  5  5  4
5  6  6  5
6  7  7  6
7  8  8  7
8  9  9  8
9  10  10  9
10  11  11  10
11  12  12  11
12  13  13  12
13  14  14  13
14  15  15  14
15  16  16  15
16  17  17  16
17  18  18  17
18  19  19  18
19  20  20  19
20  21  21  20
21  22  22  21
22  23  23  22
23  24  24  23
24  25  25  24
25  26  26  25
26  27  27  26
27  28  28  27
28  29  29  28
29  30  30  29
30  31  31  30
31  32  32  31
32  33  33  32
33  34  34  33
34  35  35  34
35  36  36  35
36  37  37  36
37  38  38  37
38  39  39  38
39  40  40  39
40  41  41  40
VARIABLES  = "X","Y","Z", "TEMPERATURE1"
ZONE T="1.000000000000e+03s", N=41, E=40, F=FEPOINT, ET=QUADRILATERAL
STRANDID=1, SOLUTIONTIME=1.000000000000e+03
1.000000000000e+00 0.000000000000e+00 0.000000000000e+00 2.533208176431e+01 
1.100000000000e+00 0.000000000000e+00 0.000000000000e+00 2.499547068602e+01 
1.200000000000e+00 0.000000000000e+00 0.000000000000e+00 2.500006202115e+01 
1.300000000000e+00 0.000000000000e+00 0.000000000000e+00 2.499999914789e+01 
1.400000000000e+00 0.000000000000e+00 0.000000000000e+00 2.500000001174e+01 
1.500000000000e+00 0.000000000000e+00 0.000000000000e+00 2.499999999984e+01 
1.600000000000e+00 0.000000000000e+00 0.000000000000e+00 2.500000000000e+01 
1.700000000000e+00 0.000000000000e+00 0.000000000000e+00 2.500000000000e+01 
1.800000000000e+00 0.000000000000e+00 0.000000000000e+00 2.500000000000e+01 
1.900000000000e+00 0.000000000000e+00 0.000000000000e+00 2.500000000000e+01 
2.000000000000e+00 0.000000000000e+00 0.000000000000e+00 2.500000000000e+01 
2.100000000000e+00 0.000000000000e+00 0.000000000000e+00 2.500000000000e+01 
2.200000000000e+00 0.000000000000e+00 0.000000000000e+00 2.500000000000e+01 
2.300000000000e+00 0.000000000000e+00 0.000000000000e+00 2.500000000000e+01 
2.400000000000e+00 0.000000000000e+00 0.000000000000e+00 2.500000000000e+01 
2.500000000000e+00 0.000000000000e+00 0.000000000000e+00 2.500000000000e+01 
2.600000000000e+00 0.000000000000e+00 0.000000000000e+00 2.500000000000e+01 
2.700000000000e+00 0.000000000000e+00 0.000000000000e+00 2.500000000000e+01 
2.800000000000e+00 0.000000000000e+00 0.000000000000e+00 2.500000000000e+01 
2.900000000000e+00 0.000000000000e+00 0.000000000000e+00 2.500000000000e+01 
3.000000000000e+00 0.000000000000e+00 0.000000000000e+00 2.500000000000e+01 
3.100000000000e+00 0.000000000000e+00 0.000000000000e+00 2.500000000000e+01 
3.200000000000e+00 0.000000000000e+00 0.000000000000e+00 2.500000000000e+01 
3.300000000000e+00 0.000000000000e+00 0.000000000000e+00 2.500000000000e+01 
3.400000000000e+00 0.000000000000e+00 0.000000000000e+00 2.500000000000e+01 
3.500000000000e+00 0.000000000000e+00 0.000000000000e+00 2.500000000000e+01 
3.600000000000e+00 0.000000000000e+00 0.000000000000e+00 2.500000000000e+01 
3.700000000000e+00 0.000000000000e+00 0.000000000000e+00 2.500000000000e+01 
3.800000000000e+00 0.000000000000e+00 0.000000000000e+00 2.500000000000e+01 
3.900000000000e+00 0.000000000000e+00 0.000000000000e+00 2.500000000000e+01 
4.000000000000e+00 0.000000000000e+00 0.000000000000e+00 2.500000000000e+01 
4.100000000000e+00 0.000000000000e+00 0.000000000000e+00 2.500000000000e+01 
4.200000000000e+00 0.000000000000e+00 0.000000000000e+00 2.500000000000e+01 
4.300000000000e+00 0.000000000000e+00 0.000000000000e+00 2.500000000000e+01 
4.400000000000e+00 0.000000000000e+00 0.000000000000e+00 2.500000000000e+01 
4.500000000000e+00 0.000000000000e+00 0.000000000000e+00 2.500000000000e+01 
4.600000000000e+00 0.000000000000e+00 0.000000000000e+00 2.500000000000e+01 
4.700000000000e+00 0.000000000000e+00 0.000000000000e+00 2.500000000000e+01 
4.800000000000e+00 0.000000000000e+00 0.000000000000e+00 2.500000000000e+01 
4.900000000000e+00 0.000000000000e+00 0.000000000000e+00 2.500000000000e+01 
5.000000000000e+00 0.000000000000e+00 0.000000000000e+00 2.500000000000e+01 
1  2  2  1
2  3  3  2
3  4  4  3
4  5  5  4
5  6  6  5
6  7  7  6
7  8  8  7
8  9  9  8
9  10  10  9
10  11  11  10
11  12  12  11
12  13  13  12
13  14  14  13
14  15  15  14
15  16  16  15
16  17  17  16
17  18  18  17
18  19  19  18
19  20  20  19
20  21  21  20
21  22  22  21
22  23  23  22
23  24  24  23
24  25  25  24
25  26  26  25
26  27  27  26
27  28  28  27
28  29  29  28
29  30  30  29
30  31  31  30
31  32  32  31
32  33  33  32
33  34  34  33
34  35  35  34
35  36  36  35
36  37  37  36
37  38  38  37
38  39  39  38
39  40  40  39
40  41  41  40
VARIABLES  = "X","Y","Z", "TEMPERATURE1"
ZONE T="2.000000000000e+03s", N=41, E=40, F=FEPOINT, ET=QUADRILATERAL
STRANDID=1, SOLUTIONTIME=2.000000000000e+03
1.000000000000e+00 0.000000000000e+00 0.000000000000e+00 2.544600306543e+01 
1.100000000000e+00 0.000000000000e+00 0.000000000000e+00 2.509645073937e+01 
1.200000000000e+00 0.000000000000e+00 0.000000000000e+00 2.499727524940e+01 
1.300000000000e+00 0.000000000000e+00 0.000000000000e+00 2.500005672553e+01 
1.400000000000e+00 0.000000000000e+00 0.000000000000e+00 2.499999895263e+01 
1.500000000000e+00 0.000000000000e+00 0.000000000000e+00 2.500000001814e+01 
1.600000000000e+00 0.000000000000e+00 0.000000000000e+00 2.499999999970e+01 
1.700000000000e+00 0.000000000000e+00 0.000000000000e+00 2.500000000000e+01 
1.800000000000e+00 0.000000000000e+00 0.000000000000e+00 2.500000000000e+01 
1.900000000000e+00 0.000000000000e+00 0.000000000000e+00 2.500000000000e+01 
2.000000000000e+00 0.000000000000e+00 0.000000000000e+00 2.500000000000e+01 
2.100000000000e+00 0.000000000000e+00 0.000000000000e+00 2.500000000000e+01 
2.200000000000e+00 0.000000000000e+00 0.000000000000e+00 2.500000000000e+01 
2.300000000000e+00 0.000000000000e+00 0.000000000000e+00 2.500000000000e+01 
2.400000000000e+00 0.000000000000e+00 0.000000000000e+00 2.500000000000e+01 
2.500000000000e+00 0.000000000000e+00 0.000000000000e+00 2.500000000000e+01 
2.600000000000e+00 0.000000000000e+00 0.000000000000e+00 2.500000000000e+01 
2.700000000000e+00 0.000000000000e+00 0.000000000000e+00 2.500000000000e+01 
2.800000000000e+00 0.000000000000e+00 0.000000000000e+00 2.500000000000e+01 
2.900000000000e+00 0.000000000000e+00 0.000000000000e+00 2.500000000000e+01 
3.000000000000e+00 0.000000000000e+00 0.000000000000e+00 2.500000000000e+01 
3.100000000000e+00 0.000000000000e+00 0.000000000000e+00 2.500000000000e+01 
3.200000000000e+00 0.000000000000e+00 0.000000000000e+00 2.500000000000e+01 
3.300000000000e+00 0.000000000000e+00 0.000000000000e+00 2.500000000000e+01 
3.400000000000e+00 0.000000000000e+00 0.000000000000e+00 2.500000000000e+01 
3.500000000000e+00 0.000000000000e+00 0.000000000000e+00 2.500000000000e+01 
3.600000000000e+00 0.000000000000e+00 0.000000000000e+00 2.500000000000e+01 
3.700000000000e+00 0.000000000000e+00 0.000000000000e+00 2.500000000000e+01 
3.800000000000e+00 0.000000000000e+00 0.000000000000e+00 2.500000000000e+01 
3.900000000000e+00 0.000000000000e+00 0.000000000000e+00 2.500000000000e+01 
4.000000000000e+00 0.000000000000e+00 0.000000000000e+00 2.500000000000e+01 
4.100000000000e+00 0.000000000000e+00 0.000000000000e+00 2.500000000000e+01 
4.200000000000e+00 0.000000000000e+00 0.000000000000e+00 2.500000000000e+01 
4.300000000000e+00 0.000000000000e+00 0.000000000000e+00 2.500000000000e+01 
4.400000000000e+00 0.000000000000e+00 0.000000000000e+00 2.500000000000e+01 
4.500000000000e+00 0.000000000000e+00 0.000000000000e+00 2.500000000000e+01 
4.600000000000e+00 0.000000000000e+00 0.000000000000e+00 2.500000000000e+01 
4.700000000000e+00 0.000000000000e+00 0.000000000000e+00 2.500000000000e+01 
4.800000000000e+00 0.000000000000e+00 0.000000000000e+00 2.500000000000e+01 
4.900000000000e+00 0.000000000000e+00 0.000000000000e+00 2.500000000000e+01 
5.000000000000e+00 0.000000000000e+00 0.000000000000e+00 2.500000000000e+01 
1  2  2  1
2  3  3  2
3  4  4  3
4  5  5  4
5  6  6  5
6  7  7  6
7  8  8  7
8  9  9  8
9  10  10  9
10  11  11  10
11  12  12  11
12  13  13  12
13  14  14  13
14  15  15  14
15  16  16  15
16  17  17  16
17  18  18  17
18  19  19  18
19  20  20  19
20  21  21  20
21  22  22  21
22  23  23  22
23  24  24  23
24  25  25  24
25  26  26  25
26  27  27  26
27  28  28  27
28  29  29  28
29  30  30  29
30  31  31  30
31  32  32  31
32  33  33  32
33  34  34  33
34  35  35  34
35  36  36  35
36  37  37  36
37  38  38  37
38  39  39  38
39  40  40  39
40  41  41  40
VARIABLES  = "X","Y","Z", "TEMPERATURE1"
ZONE T="3.000000000000e+03s", N=41, E=40, F=FEPOINT, ET=QUADRILATERAL
STRANDID=1, SOLUTIONTIME=3.000000000000e+03
1.000000000000e+00 0.000000000000e+00 0.000000000000e+00 2.555254362392e+01 
1.100000000000e+00 0.000000000000e+00 0.000000000000e+00 2.516683176650e+01 
1.200000000000e+00 0.000000000000e+00 0.000000000000e+00 2.502711191052e+01 
1.300000000000e+00 0.000000000000e+00 0.000000000000e+00 2.499878694520e+01 
1.400000000000e+00 0.000000000000e+00 0.000000000000e+00 2.500003431217e+01 
1.500000000000e+00 0.000000000000e+00 0.000000000000e+00 2.499999919989e+01 
1.600000000000e+00 0.000000000000e+00 0.000000000000e+00 2.500000001674e+01 
1.700000000000e+00 0.000000000000e+00 0.000000000000e+00 2.499999999967e+01 
1.800000000000e+00 0.000000000000e+00 0.000000000000e+00 2.500000000001e+01 
1.900000000000e+00 0.000000000000e+00 0.000000000000e+00 2.500000000000e+01 
2.000000000000e+00 0.000000000000e+00 0.000000000000e+00 2.500000000000e+01 
2.100000000000e+00 0.000000000000e+00 0.000000000000e+00 2.500000000000e+01 
2.200000000000e+00 0.000000000000e+00 0.000000000000e+00 2.500000000000e+01 
2.300000000000e+00 0.000000000000e+00 0.000000000000e+00 2.500000000000e+01 
2.400000000000e+00 0.000000000000e+00 0.000000000000e+00 2.500000000000e+01 
2.500000000000e+00 0.000000000000e+00 0.000000000000e+00 2.500000000000e+01 
2.600000000000e+00 0.000000000000e+00 0.000000000000e+00 2.500000000000e+01 
2.700000000000e+00 0.000000000000e+00 0.000000000000e+00 2.500000000000e+01 
2.800000000000e+00 0.000000000000e+00 0.000000000000e+00 2.500000000000e+01 
2.900000000000e+00 0.000000000000e+00 0.000000000000e+00 2.500000000000e+01 
3.000000000000e+00 0.000000000000e+00 0.000000000000e+00 2.500000000000e+01 
3.100000000000e+00 0.000000000000e+00 0.000000000000e+00 2.500000000000e+01 
3.200000000000e+00 0.000000000000e+00 0.000000000000e+00 2.500000000000e+01 
3.300000000000e+00 0.000000000000e+00 0.000000000000e+00 2.500000000000e+01 
3.400000000000e+00 0.000000000000e+00 0.000000000000e+00 2.500000000000e+01 
3.500000000000e+00 0.000000000000e+00 0.000000000000e+00 2.500000000000e+01 
3.600000000000e+00 0.000000000000e+00 0.000000000000e+00 2.500000000000e+01 
3.700000000000e+00 0.000000000000e+00 0.000000000000e+00 2.500000000000e+01 
3.800000000000e+00 0.000000000000e+00 0.000000000000e+00 2.500000000000e+01 
3.900000000000e+00 0.000000000000e+00 0.000000000000e+00 2.500000000000e+01 
4.000000000000e+00 0.000000000000e+00 0.000000000000e+00 2.500000000000e+01 
4.100000000000e+00 0.000000000000e+00 0.000000000000e+00 2.500000000000e+01 
4.200000000000e+00 0.000000000000e+00 0.000000000000e+00 2.500000000000e+01 
4.300000000000e+00 0.000000000000e+00 0.000000000000e+00 2.500000000000e+01 
4.400000000000e+00 0.000000000000e+00 0.000000000000e+00 2.500000000000e+01 
4.500000000000e+00 0.000000000000e+00 0.000000000000e+00 2.500000000000e+01 
4.600000000000e+00 0.000000000000e+00 0.000000000000e+00 2.500000000000e+01 
4.700000000000e+00 0.000000000000e+00 0.000000000000e+00 2.500000000000e+01 
4.800000000000e+00 0.000000000000e+00 0.000000000000e+00 2.500000000000e+01 
4.900000000000e+00 0.000000000000e+00 0.000000000000e+00 2.500000000000e+01 
5.000000000000e+00 0.000000000000e+00 0.000000000000e+00 2.500000000000e+01 
1  2  2  1
2  3  3  2
3  4  4  3
4  5  5  4
5  6  6  5
6  7  7  6
7  8  8  7
8  9  9  8
9  10  10  9
10  11  11  10
11  12  12  11
12  13  13  12
13  14  14  13
14  15  15  14
15  16  16  15
16  17  17  16
17  18  18  17
18  19  19  18
19  20  20  19
20  21  21  20
21  22  22  21
22  23  23  22
23  24  24  23
24  25  25  24
25  26  26  25
26  27  27  26
27  28  28  27
28  29  29  28
29  30  30  29
30  31  31  30
31  32  32  31
32  33  33  32
33  34  34  33
34  35  35  34
35  36  36  35
36  37  37  36
37  38  38  37
38  39  39  38
39  40  40  39
40  41  41  40
VARIABLES  = "X","Y","Z", "TEMPERATURE1"
ZONE T="4.000000000000e+03s", N=41, E=40, F=FEPOINT, ET=QUADRILATERAL
STRANDID=1, SOLUTIONTIME=4.000000000000e+03
1.000000000000e+00 0.000000000000e+00 0.000000000000e+00 2.563604164949e+01 
1.100000000000e+00 0.000000000000e+00 0.000000000000e+00 2.523502459442e+01 
1.200000000000e+00 0.000000000000e+00 0.000000000000e+00 2.505886049648e+01 
1.300000000000e+00 0.000000000000e+00 0.000000000000e+00 2.500732521471e+01 
1.400000000000e+00 0.000000000000e+00 0.000000000000e+00 2.499952696965e+01 
1.500000000000e+00 0.000000000000e+00 0.000000000000e+00 2.500001714620e+01 
1.600000000000e+00 0.000000000000e+00 0.000000000000e+00 2.499999951396e+01 
1.700000000000e+00 0.000000000000e+00 0.000000000000e+00 2.500000001196e+01 
1.800000000000e+00 0.000000000000e+00 0.000000000000e+00 2.499999999973e+01 
1.900000000000e+00 0.000000000000e+00 0.000000000000e+00 2.500000000001e+01 
2.000000000000e+00 0.000000000000e+00 0.000000000000e+00 2.500000000000e+01 
2.100000000000e+00 0.000000000000e+00 0.000000000000e+00 2.500000000000e+01 
2.200000000000e+00 0.000000000000e+00 0.000000000000e+00 2.500000000000e+01 
2.300000000000e+00 0.000000000000e+00 0.000000000000e+00 2.500000000000e+01 
2.400000000000e+00 0.000000000000e+00 0.000000000000e+00 2.500000000000e+01 
2.500000000000e+00 0.000000000000e+00 0.000000000000e+00 2.500000000000e+01 
2.600000000000e+00 0.000000000000e+00 0.000000000000e+00 2.500000000000e+01 
2.700000000000e+00 0.000000000000e+00 0.000000000000e+00 2.500000000000e+01 
2.800000000000e+00 0.000000000000e+00 0.000000000000e+00 2.500000000000e+01 
2.900000000000e+00 0.000000000000e+00 0.000000000000e+00 2.500000000000e+01 
3.000000000000e+00 0.000000000000e+00 0.000000000000e+00 2.500000000000e+01 
3.100000000000e+00 0.000000000000e+00 0.000000000000e+00 2.500000000000e+01 
3.200000000000e+00 0.000000000000e+00 0.000000000000e+00 2.500000000000e+01 
3.300000000000e+00 0.000000000000e+00 0.000000000000e+00 2.500000000000e+01 
3.400000000000e+00 0.000000000000e+00 0.000000000000e+00 2.500000000000e+01 
3.500000000000e+00 0.000000000000e+00 0.000000000000e+00 2.500000000000e+01 
3.600000000000e+00 0.000000000000e+00 0.000000000000e+00 2.500000000000e+01 
3.700000000000e+00 0.000000000000e+00 0.000000000000e+00 2.500000000000e+01 
3.800000000000e+00 0.000000000000e+00 0.000000000000e+00 2.500000000000e+01 
3.900000000000e+00 0.000000000000e+00 0.000000000000e+00 2.500000000000e+01 
4.000000000000e+00 0.000000000000e+00 0.000000000000e+00 2.500000000000e+01 
4.100000000000e+00 0.000000000000e+00 0.000000000000e+00 2.500000000000e+01 
4.200000000000e+00 0.000000000000e+00 0.000000000000e+00 2.500000000000e+01 
4.300000000000e+00 0.000000000000e+00 0.000000000000e+00 2.500000000000e+01 
4.400000000000e+00 0.000000000000e+00 0.000000000000e+00 2.500000000000e+01 
4.500000000000e+00 0.000000000000e+00 0.000000000000e+00 2.500000000000e+01 
4.600000000000e+00 0.000000000000e+00 0.000000000000e+00 2.500000000000e+01 
4.700000000000e+00 0.000000000000e+00 0.000000000000e+00 2.500000000000e+01 
4.800000000000e+00 0.000000000000e+00 0.000000000000e+00 2.500000000000e+01 
4.900000000000e+00 0.000000000000e+00 0.000000000000e+00 2.500000000000e+01 
5.000000000000e+00 0.000000000000e+00 0.000000000000e+00 2.500000000000e+01 
1  2  2  1
2  3  3  2
3  4  4  3
4  5  5  4
5  6  6  5
6  7  7  6
7  8  8  7
8  9  9  8
9  10  10  9
10  11  11  10
11  12  12  11
12  13  13  12
13  14  14  13
14  15  15  14
15  16  16  15
16  17  17  16
17  18  18  17
18  19  19  18
19  20  20  19
20  21  21  20
21  22  22  21
22  23  23  22
23  24  24  23
24  25  25  24
25  26  26  25
26  27  27  26
27  28  28  27
28  29  29  28
29  30  30  29
30  31  31  30
31  32  32  31
32  33  33  32
33  34  34  33
34  35  35  34
35  36  36  35
36  37  37  36
37  38  38  37
38  39  39  38
39  40  40  39
40  41  41  40
VARIABLES  = "X","Y","Z", "TEMPERATURE1"
ZONE T="5.000000000000e+03s", N=41, E=40, F=FEPOINT, ET=QUADRILATERAL
STRANDID=1, SOLUTIONTIME=5.000000000000e+03
1.000000000000e+00 0.000000000000e+00 0.000000000000e+00 2.570997172705e+01 
1.100000000000e+00 0.000000000000e+00 0.000000000000e+00 2.529591385523e+01 
1.200000000000e+00 0.000000000000e+00 0.000000000000e+00 2.509402800092e+01 
1.300000000000e+00 0.000000000000e+00 0.000000000000e+00 2.501983593989e+01 
1.400000000000e+00 0.000000000000e+00 0.000000000000e+00 2.500188030195e+01 
1.500000000000e+00 0.000000000000e+00 0.000000000000e+00 2.499982988127e+01 
1.600000000000e+00 0.000000000000e+00 0.000000000000e+00 2.500000763932e+01 
1.700000000000e+00 0.000000000000e+00 0.000000000000e+00 2.499999974332e+01 
1.800000000000e+00 0.000000000000e+00 0.000000000000e+00 2.500000000729e+01 
1.900000000000e+00 0.000000000000e+00 0.000000000000e+00 2.499999999981e+01 
2.000000000000e+00 0.000000000000e+00 0.000000000000e+00 2.500000000000e+01 
2.100000000000e+00 0.000000000000e+00 0.000000000000e+00 2.500000000000e+01 
2.200000000000e+00 0.000000000000e+00 0.000000000000e+00 2.500000000000e+01 
2.300000000000e+00 0.000000000000e+00 0.000000000000e+00 2.500000000000e+01 
2.400000000000e+00 0.000000000000e+00 0.000000000000e+00 2.500000000000e+01 
2.500000000000e+00 0.000000000000e+00 0.000000000000e+00 2.500000000000e+01 
2.600000000000e+00 0.000000000000e+00 0.000000000000e+00 2.500000000000e+01 
2.700000000000e+00 0.000000000000e+00 0.000000000000e+00 2.500000000000e+01 
2.800000000000e+00 0.000000000000e+00 0.000000000000e+00 2.500000000000e+01 
2.900000000000e+00 0.000000000000e+00 0.000000000000e+00 2.500000000000e+01 
3.000000000000e+00 0.000000000000e+00 0.000000000000e+00 2.500000000000e+01 
3.100000000000e+00 0.000000000000e+00 0.000000000000e+00 2.500000000000e+01 
3.200000000000e+00 0.000000000000e+00 0.000000000000e+00 2.500000000000e+01 
3.300000000000e+00 0.000000000000e+00 0.000000000000e+00 2.500000000000e+01 
3.400000000000e+00 0.000000000000e+00 0.000000000000e+00 2.500000000000e+01 
3.500000000000e+00 0.000000000000e+00 0.000000000000e+00 2.500000000000e+01 
3.600000000000e+00 0.000000000000e+00 0.000000000000e+00 2.500000000000e+01 
3.700000000000e+00 0.000000000000e+00 0.000000000000e+00 2.500000000000e+01 
3.800000000000e+00 0.000000000000e+00 0.000000000000e+00 2.500000000000e+01 
3.900000000000e+00 0.000000000000e+00 0.000000000000e+00 2.500000000000e+01 
4.000000000000e+00 0.000000000000e+00 0.000000000000e+00 2.500000000000e+01 
4.100000000000e+00 0.000000000000e+00 0.000000000000e+00 2.500000000000e+01 
4.200000000000e+00 0.000000000000e+00 0.000000000000e+00 2.500000000000e+01 
4.300000000000e+00 0.000000000000e+00 0.000000000000e+00 2.500000000000e+01 
4.400000000000e+00 0.000000000000e+00 0.000000000000e+00 2.500000000000e+01 
4.500000000000e+00 0.000000000000e+00 0.000000000000e+00 2.500000000000e+01 
4.600000000000e+00 0.000000000000e+00 0.000000000000e+00 2.500000000000e+01 
4.700000000000e+00 0.000000000000e+00 0.000000000000e+00 2.500000000000e+01 
4.800000000000e+00 0.000000000000e+00 0.000000000000e+00 2.500000000000e+01 
4.900000000000e+00 0.000000000000e+00 0.000000000000e+00 2.500000000000e+01 
5.000000000000e+00 0.000000000000e+00 0.000000000000e+00 2.500000000000e+01 
1  2  2  1
2  3  3  2
3  4  4  3
4  5  5  4
5  6  6  5
6  7  7  6
7  8  8  7
8  9  9  8
9  10  10  9
10  11  11  10
11  12  12  11
12  13  13  12
13  14  14  13
14  15  15  14
15  16  16  15
16  17  17  16
17  18  18  17
18  19  19  18
19  20  20  19
20  21  21  20
21  22  22  21
22  23  23  22
23  24  24  23
24  25  25  24
25  26  26  25
26  27  27  26
27  28  28  27
28  29  29  28
29  30  30  29
30  31  31  30
31  32  32  31
32  33  33  32
33  34  34  33
34  35  35  34
35  36  36  35
36  37  37  36
37  38  38  37
38  39  39  38
39  40  40  39
40  41  41  40
VARIABLES  = "X","Y","Z", "TEMPERATURE1"
ZONE T="6.000000000000e+03s", N=41, E=40, F=FEPOINT, ET=QUADRILATERAL
STRANDID=1, SOLUTIONTIME=6.000000000000e+03
1.000000000000e+00 0.000000000000e+00 0.000000000000e+00 2.577569740951e+01 
1.100000000000e+00 0.000000000000e+00 0.000000000000e+00 2.535237075049e+01 
1.200000000000e+00 0.000000000000e+00 0.000000000000e+00 2.512953393414e+01 
1.300000000000e+00 0.000000000000e+00 0.000000000000e+00 2.503584123244e+01 
1.400000000000e+00 0.000000000000e+00 0.000000000000e+00 2.500642488887e+01 
1.500000000000e+00 0.000000000000e+00 0.000000000000e+00 2.500044875294e+01 
1.600000000000e+00 0.000000000000e+00 0.000000000000e+00 2.499994234434e+01 
1.700000000000e+00 0.000000000000e+00 0.000000000000e+00 2.500000314460e+01 
1.800000000000e+00 0.000000000000e+00 0.000000000000e+00 2.499999987692e+01 
1.900000000000e+00 0.000000000000e+00 0.000000000000e+00 2.500000000398e+01 
2.000000000000e+00 0.000000000000e+00 0.000000000000e+00 2.499999999989e+01 
2.100000000000e+00 0.000000000000e+00 0.000000000000e+00 2.500000000000e+01 
2.200000000000e+00 0.000000000000e+00 0.000000000000e+00 2.500000000000e+01 
2.300000000000e+00 0.000000000000e+00 0.000000000000e+00 2.500000000000e+01 
2.400000000000e+00 0.000000000000e+00 0.000000000000e+00 2.500000000000e+01 
2.500000000000e+00 0.000000000000e+00 0.000000000000e+00 2.500000000000e+01 
2.600000000000e+00 0.000000000000e+00 0.000000000000e+00 2.500000000000e+01 
2.700000000000e+00 0.000000000000e+00 0.000000000000e+00 2.500000000000e+01 
2.800000000000e+00 0.000000000000e+00 0.000000000000e+00 2.500000000000e+01 
2.900000000000e+00 0.000000000000e+00 0.000000000000e+00 2.500000000000e+01 
3.000000000000e+00 0.000000000000e+00 0.000000000000e+00 2.500000000000e+01 
3.100000000000e+00 0.000000000000e+00 0.000000000000e+00 2.500000000000e+01 
3.200000000000e+00 0.000000000000e+00 0.000000000000e+00 2.500000000000e+01 
3.300000000000e+00 0.000000000000e+00 0.000000000000e+00 2.500000000000e+01 
3.400000000000e+00 0.000000000000e+00 0.000000000000e+00 2.500000000000e+01 
3.500000000000e+00 0.000000000000e+00 0.000000000000e+00 2.500000000000e+01 
3.600000000000e+00 0.000000000000e+00 0.000000000000e+00 2.500000000000e+01 
3.700000000000e+00 0.000000000000e+00 0.000000000000e+00 2.500000000000e+01 
3.800000000000e+00 0.000000000000e+00 0.000000000000e+00 2.500000000000e+01 
3.900000000000e+00 0.000000000000e+00 0.000000000000e+00 2.500000000000e+01 
4.000000000000e+00 0.000000000000e+00 0.000000000000e+00 2.500000000000e+01 
4.100000000000e+00 0.000000000000e+00 0.000000000000e+00 2.500000000000e+01 
4.200000000000e+00 0.000000000000e+00 0.000000000000e+00 2.500000000000e+01 
4.300000000000e+00 0.000000000000e+00 0.000000000000e+00 2.500000000000e+01 
4.400000000000e+00 0.000000000000e+00 0.000000000000e+00 2.500000000000e+01 
4.500000000000e+00 0.000000000000e+00 0.000000000000e+00 2.500000000000e+01 
4.600000000000e+00 0.000000000000e+00 0.000000000000e+00 2.500000000000e+01 
4.700000000000e+00 0.000000000000e+00 0.000000000000e+00 2.500000000000e+01 
4.800000000000e+00 0.000000000000e+00 0.000000000000e+00 2.500000000000e+01 
4.900000000000e+00 0.000000000000e+00 0.000000000000e+00 2.500000000000e+01 
5.000000000000e+00 0.000000000000e+00 0.000000000000e+00 2.500000000000e+01 
1  2  2  1
2  3  3  2
3  4  4  3
4  5  5  4
5  6  6  5
6  7  7  6
7  8  8  7
8  9  9  8
9  10  10  9
10  11  11  10
11  12  12  11
12  13  13  12
13  14  14  13
14  15  15  14
15  16  16  15
16  17  17  16
17  18  18  17
18  19  19  18
19  20  20  19
20  21  21  20
21  22  22  21
22  23  23  22
23  24  24  23
24  25  25  24
25  26  26  25
26  27  27  26
27  28  28  27
28  29  29  28
29  30  30  29
30  31  31  30
31  32  32  31
32  33  33  32
33  34  34  33
34  35  35  34
35  36  36  35
36  37  37  36
37  38  38  37
38  39  39  38
39  40  40  39
40  41  41  40
VARIABLES  = "X","Y","Z", "TEMPERATURE1"
ZONE T="7.000000000000e+03s", N=41, E=40, F=FEPOINT, ET=QUADRILATERAL
STRANDID=1, SOLUTIONTIME=7.000000000000e+03
1.000000000000e+00 0.000000000000e+00 0.000000000000e+00 2.583561715861e+01 
1.100000000000e+00 0.000000000000e+00 0.000000000000e+00 2.540480431885e+01 
1.200000000000e+00 0.000000000000e+00 0.000000000000e+00 2.516498947297e+01 
1.300000000000e+00 0.000000000000e+00 0.000000000000e+00 2.505396786559e+01 
1.400000000000e+00 0.000000000000e+00 0.000000000000e+00 2.501312181662e+01 
1.500000000000e+00 0.000000000000e+00 0.000000000000e+00 2.500200516265e+01 
1.600000000000e+00 0.000000000000e+00 0.000000000000e+00 2.500009501416e+01 
1.700000000000e+00 0.000000000000e+00 0.000000000000e+00 2.499998140419e+01 
1.800000000000e+00 0.000000000000e+00 0.000000000000e+00 2.500000121924e+01 
1.900000000000e+00 0.000000000000e+00 0.000000000000e+00 2.499999994507e+01 
2.000000000000e+00 0.000000000000e+00 0.000000000000e+00 2.500000000200e+01 
2.100000000000e+00 0.000000000000e+00 0.000000000000e+00 2.499999999994e+01 
2.200000000000e+00 0.000000000000e+00 0.000000000000e+00 2.500000000000e+01 
2.300000000000e+00 0.000000000000e+00 0.000000000000e+00 2.500000000000e+01 
2.400000000000e+00 0.000000000000e+00 0.000000000000e+00 2.500000000000e+01 
2.500000000000e+00 0.000000000000e+00 0.000000000000e+00 2.500000000000e+01 
2.600000000000e+00 0.000000000000e+00 0.000000000000e+00 2.500000000000e+01 
2.700000000000e+00 0.000000000000e+00 0.000000000000e+00 2.500000000000e+01 
2.800000000000e+00 0.000000000000e+00 0.000000000000e+00 2.500000000000e+01 
2.900000000000e+00 0.000000000000e+00 0.000000000000e+00 2.500000000000e+01 
3.000000000000e+00 0.000000000000e+00 0.000000000000e+00 2.500000000000e+01 
3.100000000000e+00 0.000000000000e+00 0.000000000000e+00 2.500000000000e+01 
3.200000000000e+00 0.000000000000e+00 0.000000000000e+00 2.500000000000e+01 
3.300000000000e+00 0.000000000000e+00 0.000000000000e+00 2.500000000000e+01 
3.400000000000e+00 0.000000000000e+00 0.000000000000e+00 2.500000000000e+01 
3.500000000000e+00 0.000000000000e+00 0.000000000000e+00 2.500000000000e+01 
3.600000000000e+00 0.000000000000e+00 0.000000000000e+00 2.500000000000e+01 
3.700000000000e+00 0.000000000000e+00 0.000000000000e+00 2.500000000000e+01 
3.800000000000e+00 0.000000000000e+00 0.000000000000e+00 2.500000000000e+01 
3.900000000000e+00 0.000000000000e+00 0.000000000000e+00 2.500000000000e+01 
4.000000000000e+00 0.000000000000e+00 0.000000000000e+00 2.500000000000e+01 
4.100000000000e+00 0.000000000000e+00 0.000000000000e+00 2.500000000000e+01 
4.200000000000e+00 0.000000000000e+00 0.000000000000e+00 2.500000000000e+01 
4.300000000000e+00 0.000000000000e+00 0.000000000000e+00 2.500000000000e+01 
4.400000000000e+00 0.000000000000e+00 0.000000000000e+00 2.500000000000e+01 