 TITLE = "Profiles along polylines"
 VARIABLES = "DIST" "TEMPERATURE1" 
 ZONE T="TIME=0.000000000000e+00"
0.000000000000e+00 0.000000000000e+00 
1.020408163265e-01 0.000000000000e+00 
2.040816326531e-01 0.000000000000e+00 
3.061224489796e-01 0.000000000000e+00 
4.081632653062e-01 0.000000000000e+00 
5.102040816327e-01 0.000000000000e+00 
6.122448979592e-01 0.000000000000e+00 
7.142857142858e-01 0.000000000000e+00 
8.163265306123e-01 0.000000000000e+00 
9.183673469388e-01 0.000000000000e+00 
1.020408163265e+00 0.000000000000e+00 
1.122448979592e+00 0.000000000000e+00 
1.224489795918e+00 0.000000000000e+00 
1.326530612245e+00 0.000000000000e+00 
1.428571428572e+00 0.000000000000e+00 
1.530612244898e+00 0.000000000000e+00 
1.632653061225e+00 0.000000000000e+00 
1.734693877551e+00 0.000000000000e+00 
1.836734693878e+00 0.000000000000e+00 
1.938775510204e+00 0.000000000000e+00 
2.040816326531e+00 0.000000000000e+00 
2.142857142857e+00 0.000000000000e+00 
2.244897959184e+00 0.000000000000e+00 
2.346938775510e+00 0.000000000000e+00 
2.448979591837e+00 0.000000000000e+00 
2.551020408163e+00 0.000000000000e+00 
2.653061224490e+00 0.000000000000e+00 
2.755102040816e+00 0.000000000000e+00 
2.857142857143e+00 0.000000000000e+00 
2.959183673469e+00 0.000000000000e+00 
3.061224489796e+00 0.000000000000e+00 
3.163265306123e+00 0.000000000000e+00 
3.265306122449e+00 0.000000000000e+00 
3.367346938776e+00 0.000000000000e+00 
3.469387755102e+00 0.000000000000e+00 
3.571428571429e+00 0.000000000000e+00 
3.673469387755e+00 0.000000000000e+00 
3.775510204082e+00 0.000000000000e+00 
3.877551020408e+00 0.000000000000e+00 
3.979591836735e+00 0.000000000000e+00 
4.081632653061e+00 0.000000000000e+00 
4.183673469388e+00 0.000000000000e+00 
4.285714285714e+00 0.000000000000e+00 
4.387755102041e+00 0.000000000000e+00 
4.489795918367e+00 0.000000000000e+00 
4.591836734694e+00 0.000000000000e+00 
4.693877551020e+00 0.000000000000e+00 
4.795918367347e+00 0.000000000000e+00 
4.897959183673e+00 0.000000000000e+00 
5.000000000000e+00 0.000000000000e+00 
 TITLE = "Profiles along polylines"
 VARIABLES = "DIST" "TEMPERATURE1" 
 ZONE T="TIME=5.000000000000e-03"
0.000000000000e+00 7.906270487690e-02 
1.020408163265e-01 1.023813242830e-02 
2.040816326531e-01 9.040318416092e-04 
3.061224489796e-01 8.700502324152e-05 
4.081632653062e-01 6.985831933290e-06 
5.102040816327e-01 7.182209377908e-07 
6.122448979592e-01 4.833786443061e-08 
7.142857142858e-01 3.677535531448e-09 
8.163265306123e-01 3.507723923998e-10 
9.183673469388e-01 2.218318668634e-11 
1.020408163265e+00 2.159169090899e-12 
1.122448979592e+00 1.066001695268e-13 
1.224489795918e+00 7.787107614612e-15 
1.326530612245e+00 7.160336605555e-16 
1.428571428572e+00 4.653326654933e-17 
1.530612244898e+00 3.757548645712e-18 
1.632653061225e+00 3.473937307019e-19 
1.734693877551e+00 3.252208052473e-20 
1.836734693878e+00 2.454160883512e-21 
1.938775510204e+00 2.276596423184e-22 
2.040816326531e+00 1.109993439968e-23 
2.142857142857e+00 7.455063131644e-25 
2.244897959184e+00 4.082968321782e-26 
2.346938775510e+00 4.225807278365e-27 
2.448979591837e+00 2.289980327515e-28 
2.551020408163e+00 1.816358405721e-29 
2.653061224490e+00 1.619037958963e-30 
2.755102040816e+00 7.346386317818e-32 
2.857142857143e+00 5.882907598581e-33 
2.959183673469e+00 3.022232768979e-34 
3.061224489796e+00 3.993827219694e-35 
3.163265306123e+00 2.905765297846e-36 
3.265306122449e+00 1.706695512385e-37 
3.367346938776e+00 1.557895876667e-38 
3.469387755102e+00 5.091030490810e-40 
3.571428571429e+00 4.079534390978e-41 
3.673469387755e+00 2.180025239489e-42 
3.775510204082e+00 2.069966657336e-43 
3.877551020408e+00 1.246508487789e-44 
3.979591836735e+00 6.549636975239e-46 
4.081632653061e+00 3.737307499380e-47 
4.183673469388e+00 2.411117471233e-48 
4.285714285714e+00 2.265280997058e-49 
4.387755102041e+00 1.375395919107e-50 
4.489795918367e+00 7.587227488010e-52 
4.591836734694e+00 8.132000925624e-53 
4.693877551020e+00 5.782594435208e-54 
4.795918367347e+00 4.880827723113e-55 
4.897959183673e+00 3.138977398347e-56 
5.000000000000e+00 4.957291431939e-57 
 TITLE = "Profiles along polylines"
 VARIABLES = "DIST" "TEMPERATURE1" 
 ZONE T="TIME=5.000000000000e-01"
0.000000000000e+00 7.971388177100e-01 
1.020408163265e-01 6.998980651309e-01 
2.040816326531e-01 6.102556723127e-01 
3.061224489796e-01 5.287724731855e-01 
4.081632653062e-01 4.551141588652e-01 
5.102040816327e-01 3.891663676151e-01 
6.122448979592e-01 3.304739521220e-01 
7.142857142858e-01 2.786251953785e-01 
8.163265306123e-01 2.332610732216e-01 
9.183673469388e-01 1.939134924619e-01 
1.020408163265e+00 1.599344208846e-01 
1.122448979592e+00 1.308700750750e-01 
1.224489795918e+00 1.062970852713e-01 
1.326530612245e+00 8.573149241881e-02 
1.428571428572e+00 6.854398643396e-02 
1.530612244898e+00 5.433857617308e-02 
1.632653061225e+00 4.277472700332e-02 
1.734693877551e+00 3.337722196461e-02 
1.836734693878e+00 2.577277880589e-02 
1.938775510204e+00 1.978154998934e-02 
2.040816326531e+00 1.498987862527e-02 
2.142857142857e+00 1.128653234456e-02 
2.244897959184e+00 8.468876419753e-03 
2.346938775510e+00 6.259378223641e-03 
2.448979591837e+00 4.586039311124e-03 
2.551020408163e+00 3.331326880903e-03 
2.653061224490e+00 2.400995111848e-03 
2.755102040816e+00 1.712649152676e-03 
2.857142857143e+00 1.209503985353e-03 
2.959183673469e+00 8.430459140657e-04 
3.061224489796e+00 5.899637126214e-04 
3.163265306123e+00 4.034360439416e-04 
3.265306122449e+00 2.733251402826e-04 
3.367346938776e+00 1.841279320777e-04 
3.469387755102e+00 1.225169787019e-04 
3.571428571429e+00 8.102646021450e-05 
3.673469387755e+00 5.268915839735e-05 
3.775510204082e+00 3.410452729217e-05 
3.877551020408e+00 2.184096259830e-05 
3.979591836735e+00 1.380568679661e-05 
4.081632653061e+00 8.688175425774e-06 
4.183673469388e+00 5.394682514660e-06 
4.285714285714e+00 3.316177970815e-06 
4.387755102041e+00 2.021638370599e-06 
4.489795918367e+00 1.217827723351e-06 
4.591836734694e+00 7.304308977824e-07 
4.693877551020e+00 4.406411900096e-07 
4.795918367347e+00 2.737733761240e-07 
4.897959183673e+00 1.892154811553e-07 
5.000000000000e+00 1.594682674351e-07 
 ZONE T="TIME=1.000000000000e+00"
0.000000000000e+00 1.127851883680e+00 
1.020408163265e-01 1.029207408187e+00 
2.040816326531e-01 9.359550206553e-01 
3.061224489796e-01 8.485367721558e-01 
4.081632653062e-01 7.667860338551e-01 
5.102040816327e-01 6.907231007584e-01 
6.122448979592e-01 6.201355094907e-01 
7.142857142858e-01 5.548611251019e-01 
8.163265306123e-01 4.947904761979e-01 
9.183673469388e-01 4.397463628661e-01 
1.020408163265e+00 3.893826305421e-01 
1.122448979592e+00 3.435230854761e-01 
1.224489795918e+00 3.020090953937e-01 
1.326530612245e+00 2.646112228973e-01 
1.428571428572e+00 2.309186143419e-01 
1.530612244898e+00 2.007329442027e-01 
1.632653061225e+00 1.738959198619e-01 
1.734693877551e+00 1.500396537312e-01 
1.836734693878e+00 1.288681421462e-01 
1.938775510204e+00 1.103398303328e-01 
2.040816326531e+00 9.397190438534e-02 
2.142857142857e+00 7.977625625995e-02 
2.244897959184e+00 6.756413022960e-02 
2.346938775510e+00 5.687177445723e-02 
2.448979591837e+00 4.768184263243e-02 
2.551020408163e+00 3.981554129997e-02 
2.653061224490e+00 3.312109520424e-02 
2.755102040816e+00 2.742561717202e-02 
2.857142857143e+00 2.260806853313e-02 
2.959183673469e+00 1.853548747935e-02 
3.061224489796e+00 1.519299869261e-02 
3.163265306123e+00 1.235063213415e-02 
3.265306122449e+00 9.997019731224e-03 
3.367346938776e+00 8.065235220446e-03 
3.469387755102e+00 6.473567179226e-03 
3.571428571429e+00 5.178274435954e-03 
3.673469387755e+00 4.116153492228e-03 
3.775510204082e+00 3.262387976164e-03 
3.877551020408e+00 2.574305027559e-03 
3.979591836735e+00 2.021225320260e-03 
4.081632653061e+00 1.583799460149e-03 
4.183673469388e+00 1.236637417474e-03 
4.285714285714e+00 9.641574838999e-04 
4.387755102041e+00 7.528199044585e-04 
4.489795918367e+00 5.904077890493e-04 
4.591836734694e+00 4.689469983747e-04 
4.693877551020e+00 3.812183888370e-04 
4.795918367347e+00 3.218324797216e-04 
4.897959183673e+00 2.877276423596e-04 
5.000000000000e+00 2.748724324662e-04 
