 TITLE = "Profiles along polylines"
 VARIABLES = "DIST" "PRESSURE1" "SATURATION1" "SATURATION2" 
 ZONE T="TIME=0.000000000000e+00"
0.000000000000e+00 9.806700000000e+04 1.000000000000e+00 0.000000000000e+00 
3.333333333333e-01 9.806700000000e+04 1.000000000000e+00 0.000000000000e+00 
6.666666666667e-01 9.806700000000e+04 1.000000000000e+00 0.000000000000e+00 
1.000000000000e+00 9.806700000000e+04 1.000000000000e+00 0.000000000000e+00 
1.333333333333e+00 9.806700000000e+04 1.000000000000e+00 0.000000000000e+00 
1.666666666667e+00 9.806700000000e+04 1.000000000000e+00 0.000000000000e+00 
2.000000000000e+00 9.806700000000e+04 1.000000000000e+00 0.000000000000e+00 
2.333333333333e+00 9.806700000000e+04 1.000000000000e+00 0.000000000000e+00 
2.666666666667e+00 9.806700000000e+04 1.000000000000e+00 0.000000000000e+00 
3.000000000000e+00 9.806700000000e+04 1.000000000000e+00 0.000000000000e+00 
3.333333333333e+00 9.806700000000e+04 1.000000000000e+00 0.000000000000e+00 
3.666666666667e+00 9.806700000000e+04 1.000000000000e+00 0.000000000000e+00 
4.000000000000e+00 9.806700000000e+04 1.000000000000e+00 0.000000000000e+00 
4.333333333333e+00 9.806700000000e+04 1.000000000000e+00 0.000000000000e+00 
4.666666666667e+00 9.806700000000e+04 1.000000000000e+00 0.000000000000e+00 
5.000000000000e+00 9.806700000000e+04 8.999977480000e-01 1.000022520000e-01 
5.333333333333e+00 9.806700000000e+04 8.999977480000e-01 1.000022520000e-01 
5.666666666667e+00 9.806700000000e+04 8.999977480000e-01 1.000022520000e-01 
6.000000000000e+00 9.806700000000e+04 8.999977480000e-01 1.000022520000e-01 
6.333333333333e+00 9.806700000000e+04 8.999977480000e-01 1.000022520000e-01 
6.666666666667e+00 9.806700000000e+04 8.999977480000e-01 1.000022520000e-01 
7.000000000000e+00 9.806700000000e+04 8.999977480000e-01 1.000022520000e-01 
7.333333333333e+00 9.806700000000e+04 8.999977480000e-01 1.000022520000e-01 
7.666666666667e+00 9.806700000000e+04 8.999977480000e-01 1.000022520000e-01 
8.000000000000e+00 9.806700000000e+04 8.999977480000e-01 1.000022520000e-01 
8.333333333333e+00 9.806700000000e+04 8.999977480000e-01 1.000022520000e-01 
8.666666666667e+00 9.806700000000e+04 8.999977480000e-01 1.000022520000e-01 
9.000000000000e+00 9.806700000000e+04 8.999977480000e-01 1.000022520000e-01 
9.333333333333e+00 9.806700000000e+04 8.999977480000e-01 1.000022520000e-01 
9.666666666667e+00 9.806700000000e+04 8.999977480000e-01 1.000022520000e-01 
1.000000000000e+01 9.806700000000e+04 8.999977480000e-01 1.000022520000e-01 
1.033333333333e+01 9.806700000000e+04 8.999977480000e-01 1.000022520000e-01 
1.066666666667e+01 9.806700000000e+04 1.000000000000e+00 0.000000000000e+00 
1.100000000000e+01 9.806700000000e+04 1.000000000000e+00 0.000000000000e+00 
1.133333333333e+01 9.806700000000e+04 1.000000000000e+00 0.000000000000e+00 
1.166666666667e+01 9.806700000000e+04 1.000000000000e+00 0.000000000000e+00 
1.200000000000e+01 9.806700000000e+04 1.000000000000e+00 0.000000000000e+00 
1.233333333333e+01 9.806700000000e+04 1.000000000000e+00 0.000000000000e+00 
1.266666666667e+01 9.806700000000e+04 1.000000000000e+00 0.000000000000e+00 
1.300000000000e+01 9.806700000000e+04 1.000000000000e+00 0.000000000000e+00 
1.333333333333e+01 9.806700000000e+04 1.000000000000e+00 0.000000000000e+00 
1.366666666667e+01 9.806700000000e+04 1.000000000000e+00 0.000000000000e+00 
1.400000000000e+01 9.806700000000e+04 1.000000000000e+00 0.000000000000e+00 
1.433333333333e+01 9.806700000000e+04 1.000000000000e+00 0.000000000000e+00 
1.466666666667e+01 9.806700000000e+04 1.000000000000e+00 0.000000000000e+00 
1.500000000000e+01 9.806700000000e+04 1.000000000000e+00 0.000000000000e+00 
1.533333333333e+01 9.806700000000e+04 1.000000000000e+00 0.000000000000e+00 
1.566666666667e+01 9.806700000000e+04 1.000000000000e+00 0.000000000000e+00 
1.600000000000e+01 9.806700000000e+04 1.000000000000e+00 0.000000000000e+00 
1.633333333333e+01 9.806700000000e+04 1.000000000000e+00 0.000000000000e+00 
1.666666666667e+01 9.806700000000e+04 1.000000000000e+00 0.000000000000e+00 
1.700000000000e+01 9.806700000000e+04 1.000000000000e+00 0.000000000000e+00 
1.733333333333e+01 9.806700000000e+04 1.000000000000e+00 0.000000000000e+00 
1.766666666667e+01 9.806700000000e+04 1.000000000000e+00 0.000000000000e+00 
1.800000000000e+01 9.806700000000e+04 1.000000000000e+00 0.000000000000e+00 
1.833333333333e+01 9.806700000000e+04 1.000000000000e+00 0.000000000000e+00 
1.866666666667e+01 9.806700000000e+04 1.000000000000e+00 0.000000000000e+00 
1.900000000000e+01 9.806700000000e+04 1.000000000000e+00 0.000000000000e+00 
1.933333333333e+01 9.806700000000e+04 1.000000000000e+00 0.000000000000e+00 
1.966666666667e+01 9.806700000000e+04 1.000000000000e+00 0.000000000000e+00 
2.000000000000e+01 9.806700000000e+04 1.000000000000e+00 0.000000000000e+00 
2.033333333333e+01 9.806700000000e+04 1.000000000000e+00 0.000000000000e+00 
2.066666666667e+01 9.806700000000e+04 1.000000000000e+00 0.000000000000e+00 
2.100000000000e+01 9.806700000000e+04 1.000000000000e+00 0.000000000000e+00 
2.133333333333e+01 9.806700000000e+04 1.000000000000e+00 0.000000000000e+00 
2.166666666667e+01 9.806700000000e+04 1.000000000000e+00 0.000000000000e+00 
2.200000000000e+01 9.806700000000e+04 1.000000000000e+00 0.000000000000e+00 
2.233333333333e+01 9.806700000000e+04 1.000000000000e+00 0.000000000000e+00 
2.266666666667e+01 9.806700000000e+04 1.000000000000e+00 0.000000000000e+00 
2.300000000000e+01 9.806700000000e+04 1.000000000000e+00 0.000000000000e+00 
2.333333333333e+01 9.806700000000e+04 1.000000000000e+00 0.000000000000e+00 
2.366666666667e+01 9.806700000000e+04 1.000000000000e+00 0.000000000000e+00 
2.400000000000e+01 9.806700000000e+04 1.000000000000e+00 0.000000000000e+00 
2.433333333333e+01 9.806700000000e+04 1.000000000000e+00 0.000000000000e+00 
2.466666666667e+01 9.806700000000e+04 1.000000000000e+00 0.000000000000e+00 
2.500000000000e+01 9.806700000000e+04 1.000000000000e+00 0.000000000000e+00 
2.533333333333e+01 9.806700000000e+04 1.000000000000e+00 0.000000000000e+00 
2.566666666667e+01 9.806700000000e+04 1.000000000000e+00 0.000000000000e+00 
2.600000000000e+01 9.806700000000e+04 1.000000000000e+00 0.000000000000e+00 
2.633333333333e+01 9.806700000000e+04 1.000000000000e+00 0.000000000000e+00 
2.666666666667e+01 9.806700000000e+04 1.000000000000e+00 0.000000000000e+00 
2.700000000000e+01 9.806700000000e+04 1.000000000000e+00 0.000000000000e+00 
2.733333333333e+01 9.806700000000e+04 1.000000000000e+00 0.000000000000e+00 
2.766666666667e+01 9.806700000000e+04 1.000000000000e+00 0.000000000000e+00 
2.800000000000e+01 9.806700000000e+04 1.000000000000e+00 0.000000000000e+00 
2.833333333333e+01 9.806700000000e+04 1.000000000000e+00 0.000000000000e+00 
2.866666666667e+01 9.806700000000e+04 1.000000000000e+00 0.000000000000e+00 
2.900000000000e+01 9.806700000000e+04 1.000000000000e+00 0.000000000000e+00 
2.933333333333e+01 9.806700000000e+04 1.000000000000e+00 0.000000000000e+00 
2.966666666667e+01 9.806700000000e+04 1.000000000000e+00 0.000000000000e+00 
3.000000000000e+01 9.806700000000e+04 1.000000000000e+00 0.000000000000e+00 
3.033333333333e+01 9.806700000000e+04 1.000000000000e+00 0.000000000000e+00 
3.066666666667e+01 9.806700000000e+04 1.000000000000e+00 0.000000000000e+00 
3.100000000000e+01 9.806700000000e+04 1.000000000000e+00 0.000000000000e+00 
3.133333333333e+01 9.806700000000e+04 1.000000000000e+00 0.000000000000e+00 
3.166666666667e+01 9.806700000000e+04 1.000000000000e+00 0.000000000000e+00 
3.200000000000e+01 9.806700000000e+04 1.000000000000e+00 0.000000000000e+00 
3.233333333333e+01 9.806700000000e+04 1.000000000000e+00 0.000000000000e+00 
3.266666666667e+01 9.806700000000e+04 1.000000000000e+00 0.000000000000e+00 
3.300000000000e+01 9.806700000000e+04 1.000000000000e+00 0.000000000000e+00 
3.333333333333e+01 9.806700000000e+04 1.000000000000e+00 0.000000000000e+00 
3.366666666667e+01 9.806700000000e+04 1.000000000000e+00 0.000000000000e+00 
3.400000000000e+01 9.806700000000e+04 1.000000000000e+00 0.000000000000e+00 
3.433333333333e+01 9.806700000000e+04 1.000000000000e+00 0.000000000000e+00 
3.466666666667e+01 9.806700000000e+04 1.000000000000e+00 0.000000000000e+00 
3.500000000000e+01 9.806700000000e+04 1.000000000000e+00 0.000000000000e+00 
3.533333333333e+01 9.806700000000e+04 1.000000000000e+00 0.000000000000e+00 
3.566666666667e+01 9.806700000000e+04 1.000000000000e+00 0.000000000000e+00 
3.600000000000e+01 9.806700000000e+04 1.000000000000e+00 0.000000000000e+00 
3.633333333333e+01 9.806700000000e+04 1.000000000000e+00 0.000000000000e+00 
3.666666666667e+01 9.806700000000e+04 1.000000000000e+00 0.000000000000e+00 
3.700000000000e+01 9.806700000000e+04 1.000000000000e+00 0.000000000000e+00 
3.733333333333e+01 9.806700000000e+04 1.000000000000e+00 0.000000000000e+00 
3.766666666667e+01 9.806700000000e+04 1.000000000000e+00 0.000000000000e+00 
3.800000000000e+01 9.806700000000e+04 1.000000000000e+00 0.000000000000e+00 
3.833333333333e+01 9.806700000000e+04 1.000000000000e+00 0.000000000000e+00 
3.866666666667e+01 9.806700000000e+04 1.000000000000e+00 0.000000000000e+00 
3.900000000000e+01 9.806700000000e+04 1.000000000000e+00 0.000000000000e+00 
3.933333333333e+01 9.806700000000e+04 1.000000000000e+00 0.000000000000e+00 
3.966666666667e+01 9.806700000000e+04 1.000000000000e+00 0.000000000000e+00 
4.000000000000e+01 9.806700000000e+04 1.000000000000e+00 0.000000000000e+00 
4.033333333333e+01 9.806700000000e+04 1.000000000000e+00 0.000000000000e+00 
4.066666666667e+01 9.806700000000e+04 1.000000000000e+00 0.000000000000e+00 
4.100000000000e+01 9.806700000000e+04 1.000000000000e+00 0.000000000000e+00 
4.133333333333e+01 9.806700000000e+04 1.000000000000e+00 0.000000000000e+00 
4.166666666667e+01 9.806700000000e+04 1.000000000000e+00 0.000000000000e+00 
4.200000000000e+01 9.806700000000e+04 1.000000000000e+00 0.000000000000e+00 
4.233333333333e+01 9.806700000000e+04 1.000000000000e+00 0.000000000000e+00 
4.266666666667e+01 9.806700000000e+04 1.000000000000e+00 0.000000000000e+00 
4.300000000000e+01 9.806700000000e+04 1.000000000000e+00 0.000000000000e+00 
4.333333333333e+01 9.806700000000e+04 1.000000000000e+00 0.000000000000e+00 
4.366666666667e+01 9.806700000000e+04 1.000000000000e+00 0.000000000000e+00 
4.400000000000e+01 9.806700000000e+04 1.000000000000e+00 0.000000000000e+00 
4.433333333333e+01 9.806700000000e+04 1.000000000000e+00 0.000000000000e+00 
4.466666666667e+01 9.806700000000e+04 1.000000000000e+00 0.000000000000e+00 
4.500000000000e+01 9.806700000000e+04 1.000000000000e+00 0.000000000000e+00 
4.533333333333e+01 9.806700000000e+04 1.000000000000e+00 0.000000000000e+00 
4.566666666667e+01 9.806700000000e+04 1.000000000000e+00 0.000000000000e+00 
4.600000000000e+01 9.806700000000e+04 1.000000000000e+00 0.000000000000e+00 
4.633333333333e+01 9.806700000000e+04 1.000000000000e+00 0.000000000000e+00 
4.666666666667e+01 9.806700000000e+04 1.000000000000e+00 0.000000000000e+00 
4.700000000000e+01 9.806700000000e+04 1.000000000000e+00 0.000000000000e+00 
4.733333333333e+01 9.806700000000e+04 1.000000000000e+00 0.000000000000e+00 
4.766666666667e+01 9.806700000000e+04 1.000000000000e+00 0.000000000000e+00 
4.800000000000e+01 9.806700000000e+04 1.000000000000e+00 0.000000000000e+00 
4.833333333333e+01 9.806700000000e+04 1.000000000000e+00 0.000000000000e+00 
4.866666666667e+01 9.806700000000e+04 1.000000000000e+00 0.000000000000e+00 
4.900000000000e+01 9.806700000000e+04 1.000000000000e+00 0.000000000000e+00 
4.933333333333e+01 9.806700000000e+04 1.000000000000e+00 0.000000000000e+00 
4.966666666667e+01 9.806700000000e+04 1.000000000000e+00 0.000000000000e+00 
5.000000000000e+01 9.806700000000e+04 1.000000000000e+00 0.000000000000e+00 
 TITLE = "Profiles along polylines"
 VARIABLES = "DIST" "PRESSURE1" "SATURATION1" "SATURATION2" 
 ZONE T="TIME=2.160000000000e+04"
0.000000000000e+00 9.810000000000e+04 1.000000000000e+00 0.000000000000e+00 
3.333333333333e-01 9.806936273259e+04 1.000000000000e+00 0.000000000000e+00 
6.666666666667e-01 9.803872551919e+04 1.000000000000e+00 0.000000000000e+00 
1.000000000000e+00 9.800808843782e+04 1.000000000000e+00 0.000000000000e+00 
1.333333333333e+00 9.797745162518e+04 1.000000000000e+00 0.000000000000e+00 
1.666666666667e+00 9.794681533740e+04 1.000000000000e+00 0.000000000000e+00 
2.000000000000e+00 9.791618006388e+04 1.000000000000e+00 0.000000000000e+00 
2.333333333333e+00 9.788554674480e+04 1.000000000000e+00 0.000000000000e+00 
2.666666666667e+00 9.785491718899e+04 1.000000000000e+00 0.000000000000e+00 
3.000000000000e+00 9.782429487784e+04 1.000000000000e+00 0.000000000000e+00 
3.333333333333e+00 9.779368651259e+04 1.000000000000e+00 0.000000000000e+00 
3.666666666667e+00 9.776310499265e+04 1.000000000000e+00 0.000000000000e+00 
4.000000000000e+00 9.773257514869e+04 1.000000000000e+00 0.000000000000e+00 
4.333333333333e+00 9.770214477847e+04 1.000000000000e+00 0.000000000000e+00 
4.666666666667e+00 9.767190589032e+04 1.000000000000e+00 0.000000000000e+00 
5.000000000000e+00 9.763149066965e+04 8.999977480000e-01 1.000022520000e-01 
5.333333333333e+00 9.758307186397e+04 8.999977480000e-01 1.000022520000e-01 
5.666666666667e+00 9.753436918782e+04 8.999977480000e-01 1.000022520000e-01 
6.000000000000e+00 9.748551900113e+04 8.999977480000e-01 1.000022520000e-01 
6.333333333333e+00 9.743659210355e+04 8.999977480000e-01 1.000022520000e-01 
6.666666666667e+00 9.738762520101e+04 8.999977480000e-01 1.000022520000e-01 
7.000000000000e+00 9.733863721948e+04 8.999977480000e-01 1.000022520000e-01 
7.333333333333e+00 9.728963771645e+04 8.999977480000e-01 1.000022520000e-01 
7.666666666667e+00 9.724063112879e+04 8.999977480000e-01 1.000022520000e-01 
8.000000000000e+00 9.719161874460e+04 8.999977480000e-01 1.000022520000e-01 
8.333333333333e+00 9.714259927577e+04 8.999977480000e-01 1.000022520000e-01 
8.666666666667e+00 9.709356828546e+04 8.999977480000e-01 1.000022520000e-01 
9.000000000000e+00 9.704451621615e+04 8.999977480000e-01 1.000022520000e-01 
9.333333333333e+00 9.699542414188e+04 8.999977480000e-01 1.000022520000e-01 
9.666666666667e+00 9.694625535674e+04 8.999977480000e-01 1.000022520000e-01 
1.000000000000e+01 9.689693906104e+04 8.999977480000e-01 1.000022520000e-01 
1.033333333333e+01 9.684733889490e+04 8.999977480000e-01 1.000022520000e-01 
1.066666666667e+01 9.681104112270e+04 1.000000000000e+00 0.000000000000e+00 
1.100000000000e+01 9.678000523303e+04 1.000000000000e+00 0.000000000000e+00 
1.133333333333e+01 9.674916082544e+04 1.000000000000e+00 0.000000000000e+00 
1.166666666667e+01 9.671841589161e+04 1.000000000000e+00 0.000000000000e+00 
1.200000000000e+01 9.668772263380e+04 1.000000000000e+00 0.000000000000e+00 
1.233333333333e+01 9.665705622136e+04 1.000000000000e+00 0.000000000000e+00 
1.266666666667e+01 9.662640375493e+04 1.000000000000e+00 0.000000000000e+00 
1.300000000000e+01 9.659575853337e+04 1.000000000000e+00 0.000000000000e+00 
1.333333333333e+01 9.656511707548e+04 1.000000000000e+00 0.000000000000e+00 
1.366666666667e+01 9.653447757280e+04 1.000000000000e+00 0.000000000000e+00 
1.400000000000e+01 9.650383908584e+04 1.000000000000e+00 0.000000000000e+00 
1.433333333333e+01 9.647320112654e+04 1.000000000000e+00 0.000000000000e+00 
1.466666666667e+01 9.644256344137e+04 1.000000000000e+00 0.000000000000e+00 
1.500000000000e+01 9.641192589861e+04 1.000000000000e+00 0.000000000000e+00 
1.533333333333e+01 9.638128842984e+04 1.000000000000e+00 0.000000000000e+00 
1.566666666667e+01 9.635065099950e+04 1.000000000000e+00 0.000000000000e+00 
1.600000000000e+01 9.632001358914e+04 1.000000000000e+00 0.000000000000e+00 
1.633333333333e+01 9.628937618916e+04 1.000000000000e+00 0.000000000000e+00 
1.666666666667e+01 9.625873879458e+04 1.000000000000e+00 0.000000000000e+00 
1.700000000000e+01 9.622810140281e+04 1.000000000000e+00 0.000000000000e+00 
1.733333333333e+01 9.619746401251e+04 1.000000000000e+00 0.000000000000e+00 
1.766666666667e+01 9.616682662297e+04 1.000000000000e+00 0.000000000000e+00 
1.800000000000e+01 9.613618923384e+04 1.000000000000e+00 0.000000000000e+00 
1.833333333333e+01 9.610555184492e+04 1.000000000000e+00 0.000000000000e+00 
1.866666666667e+01 9.607491445612e+04 1.000000000000e+00 0.000000000000e+00 
1.900000000000e+01 9.604427706739e+04 1.000000000000e+00 0.000000000000e+00 
1.933333333333e+01 9.601363967870e+04 1.000000000000e+00 0.000000000000e+00 
1.966666666667e+01 9.598300229004e+04 1.000000000000e+00 0.000000000000e+00 
2.000000000000e+01 9.595236490140e+04 1.000000000000e+00 0.000000000000e+00 
2.033333333333e+01 9.592172751277e+04 1.000000000000e+00 0.000000000000e+00 
2.066666666667e+01 9.589109012417e+04 1.000000000000e+00 0.000000000000e+00 
2.100000000000e+01 9.586045273558e+04 1.000000000000e+00 0.000000000000e+00 
2.133333333333e+01 9.582981534700e+04 1.000000000000e+00 0.000000000000e+00 
2.166666666667e+01 9.579917795844e+04 1.000000000000e+00 0.000000000000e+00 
2.200000000000e+01 9.576854056990e+04 1.000000000000e+00 0.000000000000e+00 
2.233333333333e+01 9.573790318137e+04 1.000000000000e+00 0.000000000000e+00 
2.266666666667e+01 9.570726579286e+04 1.000000000000e+00 0.000000000000e+00 
2.300000000000e+01 9.567662840437e+04 1.000000000000e+00 0.000000000000e+00 
2.333333333333e+01 9.564599101589e+04 1.000000000000e+00 0.000000000000e+00 
2.366666666667e+01 9.561535362743e+04 1.000000000000e+00 0.000000000000e+00 
2.400000000000e+01 9.558471623899e+04 1.000000000000e+00 0.000000000000e+00 
2.433333333333e+01 9.555407885056e+04 1.000000000000e+00 0.000000000000e+00 
2.466666666667e+01 9.552344146215e+04 1.000000000000e+00 0.000000000000e+00 
2.500000000000e+01 9.549280407376e+04 1.000000000000e+00 0.000000000000e+00 
2.533333333333e+01 9.546216668539e+04 1.000000000000e+00 0.000000000000e+00 
2.566666666667e+01 9.543152929704e+04 1.000000000000e+00 0.000000000000e+00 
2.600000000000e+01 9.540089190871e+04 1.000000000000e+00 0.000000000000e+00 
2.633333333333e+01 9.537025452040e+04 1.000000000000e+00 0.000000000000e+00 
2.666666666667e+01 9.533961713210e+04 1.000000000000e+00 0.000000000000e+00 
2.700000000000e+01 9.530897974383e+04 1.000000000000e+00 0.000000000000e+00 
2.733333333333e+01 9.527834235558e+04 1.000000000000e+00 0.000000000000e+00 
2.766666666667e+01 9.524770496734e+04 1.000000000000e+00 0.000000000000e+00 
2.800000000000e+01 9.521706757913e+04 1.000000000000e+00 0.000000000000e+00 
2.833333333333e+01 9.518643019093e+04 1.000000000000e+00 0.000000000000e+00 
2.866666666667e+01 9.515579280276e+04 1.000000000000e+00 0.000000000000e+00 
2.900000000000e+01 9.512515541461e+04 1.000000000000e+00 0.000000000000e+00 
2.933333333333e+01 9.509451802648e+04 1.000000000000e+00 0.000000000000e+00 
2.966666666667e+01 9.506388063837e+04 1.000000000000e+00 0.000000000000e+00 
3.000000000000e+01 9.503324325029e+04 1.000000000000e+00 0.000000000000e+00 
3.033333333333e+01 9.500260586223e+04 1.000000000000e+00 0.000000000000e+00 
3.066666666667e+01 9.497196847419e+04 1.000000000000e+00 0.000000000000e+00 
3.100000000000e+01 9.494133108617e+04 1.000000000000e+00 0.000000000000e+00 
3.133333333333e+01 9.491069369817e+04 1.000000000000e+00 0.000000000000e+00 
3.166666666667e+01 9.488005631020e+04 1.000000000000e+00 0.000000000000e+00 
3.200000000000e+01 9.484941892225e+04 1.000000000000e+00 0.000000000000e+00 
3.233333333333e+01 9.481878153432e+04 1.000000000000e+00 0.000000000000e+00 
3.266666666667e+01 9.478814414641e+04 1.000000000000e+00 0.000000000000e+00 
3.300000000000e+01 9.475750675853e+04 1.000000000000e+00 0.000000000000e+00 
3.333333333333e+01 9.472686937067e+04 1.000000000000e+00 0.000000000000e+00 
3.366666666667e+01 9.469623198283e+04 1.000000000000e+00 0.000000000000e+00 
3.400000000000e+01 9.466559459501e+04 1.000000000000e+00 0.000000000000e+00 
3.433333333333e+01 9.463495720722e+04 1.000000000000e+00 0.000000000000e+00 
3.466666666667e+01 9.460431981945e+04 1.000000000000e+00 0.000000000000e+00 
3.500000000000e+01 9.457368243171e+04 1.000000000000e+00 0.000000000000e+00 
3.533333333333e+01 9.454304504398e+04 1.000000000000e+00 0.000000000000e+00 
3.566666666667e+01 9.451240765628e+04 1.000000000000e+00 0.000000000000e+00 
3.600000000000e+01 9.448177026859e+04 1.000000000000e+00 0.000000000000e+00 
3.633333333333e+01 9.445113288093e+04 1.000000000000e+00 0.000000000000e+00 
3.666666666667e+01 9.442049549329e+04 1.000000000000e+00 0.000000000000e+00 
3.700000000000e+01 9.438985810567e+04 1.000000000000e+00 0.000000000000e+00 
3.733333333333e+01 9.435922071807e+04 1.000000000000e+00 0.000000000000e+00 
3.766666666667e+01 9.432858333050e+04 1.000000000000e+00 0.000000000000e+00 
3.800000000000e+01 9.429794594294e+04 1.000000000000e+00 0.000000000000e+00 
3.833333333333e+01 9.426730855541e+04 1.000000000000e+00 0.000000000000e+00 
3.866666666667e+01 9.423667116789e+04 1.000000000000e+00 0.000000000000e+00 
3.900000000000e+01 9.420603378039e+04 1.000000000000e+00 0.000000000000e+00 
3.933333333333e+01 9.417539639291e+04 1.000000000000e+00 0.000000000000e+00 
3.966666666667e+01 9.414475900544e+04 1.000000000000e+00 0.000000000000e+00 
4.000000000000e+01 9.411412161800e+04 1.000000000000e+00 0.000000000000e+00 
4.033333333333e+01 9.408348423057e+04 1.000000000000e+00 0.000000000000e+00 
4.066666666667e+01 9.405284684315e+04 1.000000000000e+00 0.000000000000e+00 
4.100000000000e+01 9.402220945575e+04 1.000000000000e+00 0.000000000000e+00 
4.133333333333e+01 9.399157206837e+04 1.000000000000e+00 0.000000000000e+00 
4.166666666667e+01 9.396093468101e+04 1.000000000000e+00 0.000000000000e+00 
4.200000000000e+01 9.393029729366e+04 1.000000000000e+00 0.000000000000e+00 
4.233333333333e+01 9.389965990632e+04 1.000000000000e+00 0.000000000000e+00 
4.266666666667e+01 9.386902251900e+04 1.000000000000e+00 0.000000000000e+00 
4.300000000000e+01 9.383838513169e+04 1.000000000000e+00 0.000000000000e+00 
4.333333333333e+01 9.380774774439e+04 1.000000000000e+00 0.000000000000e+00 
4.366666666667e+01 9.377711035710e+04 1.000000000000e+00 0.000000000000e+00 
4.400000000000e+01 9.374647296982e+04 1.000000000000e+00 0.000000000000e+00 
4.433333333333e+01 9.371583558255e+04 1.000000000000e+00 0.000000000000e+00 
4.466666666667e+01 9.368519819529e+04 1.000000000000e+00 0.000000000000e+00 
4.500000000000e+01 9.365456080804e+04 1.000000000000e+00 0.000000000000e+00 
4.533333333333e+01 9.362392342081e+04 1.000000000000e+00 0.000000000000e+00 
4.566666666667e+01 9.359328603357e+04 1.000000000000e+00 0.000000000000e+00 
4.600000000000e+01 9.356264864635e+04 1.000000000000e+00 0.000000000000e+00 
4.633333333333e+01 9.353201125913e+04 1.000000000000e+00 0.000000000000e+00 
4.666666666667e+01 9.350137387192e+04 1.000000000000e+00 0.000000000000e+00 
4.700000000000e+01 9.347073648472e+04 1.000000000000e+00 0.000000000000e+00 
4.733333333333e+01 9.344009909751e+04 1.000000000000e+00 0.000000000000e+00 
4.766666666667e+01 9.340946171031e+04 1.000000000000e+00 0.000000000000e+00 
4.800000000000e+01 9.337882432312e+04 1.000000000000e+00 0.000000000000e+00 
4.833333333333e+01 9.334818693593e+04 1.000000000000e+00 0.000000000000e+00 
4.866666666667e+01 9.331754954874e+04 1.000000000000e+00 0.000000000000e+00 
4.900000000000e+01 9.328691216155e+04 1.000000000000e+00 0.000000000000e+00 
4.933333333333e+01 9.325627477436e+04 1.000000000000e+00 0.000000000000e+00 
4.966666666667e+01 9.322563738718e+04 1.000000000000e+00 0.000000000000e+00 
5.000000000000e+01 9.319500000000e+04 1.000000000000e+00 0.000000000000e+00 
 TITLE = "Profiles along polylines"
 VARIABLES = "DIST" "PRESSURE1" "SATURATION1" "SATURATION2" 
 ZONE T="TIME=4.320000000000e+04"
0.000000000000e+00 9.810000000000e+04 1.000000000000e+00 0.000000000000e+00 
3.333333333333e-01 9.806936273259e+04 1.000000000000e+00 0.000000000000e+00 
6.666666666667e-01 9.803872551919e+04 1.000000000000e+00 0.000000000000e+00 
1.000000000000e+00 9.800808843782e+04 1.000000000000e+00 0.000000000000e+00 
1.333333333333e+00 9.797745162518e+04 1.000000000000e+00 0.000000000000e+00 
1.666666666667e+00 9.794681533740e+04 1.000000000000e+00 0.000000000000e+00 
2.000000000000e+00 9.791618006388e+04 1.000000000000e+00 0.000000000000e+00 
2.333333333333e+00 9.788554674480e+04 1.000000000000e+00 0.000000000000e+00 
2.666666666667e+00 9.785491718899e+04 1.000000000000e+00 0.000000000000e+00 
3.000000000000e+00 9.782429487784e+04 1.000000000000e+00 0.000000000000e+00 
3.333333333333e+00 9.779368651259e+04 1.000000000000e+00 0.000000000000e+00 
3.666666666667e+00 9.776310499265e+04 1.000000000000e+00 0.000000000000e+00 
4.000000000000e+00 9.773257514869e+04 1.000000000000e+00 0.000000000000e+00 
4.333333333333e+00 9.770214477847e+04 1.000000000000e+00 0.000000000000e+00 
4.666666666667e+00 9.767190589032e+04 1.000000000000e+00 0.000000000000e+00 
5.000000000000e+00 9.763149066965e+04 8.999977480000e-01 1.000022520000e-01 
5.333333333333e+00 9.758307186397e+04 8.999977480000e-01 1.000022520000e-01 
5.666666666667e+00 9.753436918782e+04 8.999977480000e-01 1.000022520000e-01 
6.000000000000e+00 9.748551900113e+04 8.999977480000e-01 1.000022520000e-01 
6.333333333333e+00 9.743659210355e+04 8.999977480000e-01 1.000022520000e-01 
6.666666666667e+00 9.738762520101e+04 8.999977480000e-01 1.000022520000e-01 
7.000000000000e+00 9.733863721948e+04 8.999977480000e-01 1.000022520000e-01 
7.333333333333e+00 9.728963771645e+04 8.999977480000e-01 1.000022520000e-01 
7.666666666667e+00 9.724063112879e+04 8.999977480000e-01 1.000022520000e-01 
8.000000000000e+00 9.719161874460e+04 8.999977480000e-01 1.000022520000e-01 
8.333333333333e+00 9.714259927577e+04 8.999977480000e-01 1.000022520000e-01 
8.666666666667e+00 9.709356828546e+04 8.999977480000e-01 1.000022520000e-01 
9.000000000000e+00 9.704451621615e+04 8.999977480000e-01 1.000022520000e-01 
9.333333333333e+00 9.699542414188e+04 8.999977480000e-01 1.000022520000e-01 
9.666666666667e+00 9.694625535674e+04 8.999977480000e-01 1.000022520000e-01 
1.000000000000e+01 9.689693906104e+04 8.999977480000e-01 1.000022520000e-01 
1.033333333333e+01 9.684733889490e+04 8.999977480000e-01 1.000022520000e-01 
1.066666666667e+01 9.681104112270e+04 1.000000000000e+00 0.000000000000e+00 
1.100000000000e+01 9.678000523303e+04 1.000000000000e+00 0.000000000000e+00 
1.133333333333e+01 9.674916082544e+04 1.000000000000e+00 0.000000000000e+00 
1.166666666667e+01 9.671841589161e+04 1.000000000000e+00 0.000000000000e+00 
1.200000000000e+01 9.668772263380e+04 1.000000000000e+00 0.000000000000e+00 
1.233333333333e+01 9.665705622136e+04 1.000000000000e+00 0.000000000000e+00 
1.266666666667e+01 9.662640375493e+04 1.000000000000e+00 0.000000000000e+00 
1.300000000000e+01 9.659575853337e+04 1.000000000000e+00 0.000000000000e+00 
1.333333333333e+01 9.656511707548e+04 1.000000000000e+00 0.000000000000e+00 
1.366666666667e+01 9.653447757280e+04 1.000000000000e+00 0.000000000000e+00 
1.400000000000e+01 9.650383908584e+04 1.000000000000e+00 0.000000000000e+00 
1.433333333333e+01 9.647320112654e+04 1.000000000000e+00 0.000000000000e+00 
1.466666666667e+01 9.644256344137e+04 1.000000000000e+00 0.000000000000e+00 
1.500000000000e+01 9.641192589861e+04 1.000000000000e+00 0.000000000000e+00 
1.533333333333e+01 9.638128842984e+04 1.000000000000e+00 0.000000000000e+00 
1.566666666667e+01 9.635065099950e+04 1.000000000000e+00 0.000000000000e+00 
1.600000000000e+01 9.632001358914e+04 1.000000000000e+00 0.000000000000e+00 
1.633333333333e+01 9.628937618916e+04 1.000000000000e+00 0.000000000000e+00 
1.666666666667e+01 9.625873879458e+04 1.000000000000e+00 0.000000000000e+00 
1.700000000000e+01 9.622810140281e+04 1.000000000000e+00 0.000000000000e+00 
1.733333333333e+01 9.619746401251e+04 1.000000000000e+00 0.000000000000e+00 
1.766666666667e+01 9.616682662297e+04 1.000000000000e+00 0.000000000000e+00 
1.800000000000e+01 9.613618923384e+04 1.000000000000e+00 0.000000000000e+00 
1.833333333333e+01 9.610555184492e+04 1.000000000000e+00 0.000000000000e+00 
1.866666666667e+01 9.607491445612e+04 1.000000000000e+00 0.000000000000e+00 
1.900000000000e+01 9.604427706739e+04 1.000000000000e+00 0.000000000000e+00 
1.933333333333e+01 9.601363967870e+04 1.000000000000e+00 0.000000000000e+00 
1.966666666667e+01 9.598300229004e+04 1.000000000000e+00 0.000000000000e+00 
2.000000000000e+01 9.595236490140e+04 1.000000000000e+00 0.000000000000e+00 
2.033333333333e+01 9.592172751277e+04 1.000000000000e+00 0.000000000000e+00 
2.066666666667e+01 9.589109012417e+04 1.000000000000e+00 0.000000000000e+00 
2.100000000000e+01 9.586045273558e+04 1.000000000000e+00 0.000000000000e+00 
2.133333333333e+01 9.582981534700e+04 1.000000000000e+00 0.000000000000e+00 
2.166666666667e+01 9.579917795844e+04 1.000000000000e+00 0.000000000000e+00 
2.200000000000e+01 9.576854056990e+04 1.000000000000e+00 0.000000000000e+00 
2.233333333333e+01 9.573790318137e+04 1.000000000000e+00 0.000000000000e+00 
2.266666666667e+01 9.570726579286e+04 1.000000000000e+00 0.000000000000e+00 
2.300000000000e+01 9.567662840437e+04 1.000000000000e+00 0.000000000000e+00 
2.333333333333e+01 9.564599101589e+04 1.000000000000e+00 0.000000000000e+00 
2.366666666667e+01 9.561535362743e+04 1.000000000000e+00 0.000000000000e+00 
2.400000000000e+01 9.558471623899e+04 1.000000000000e+00 0.000000000000e+00 
2.433333333333e+01 9.555407885056e+04 1.000000000000e+00 0.000000000000e+00 
2.466666666667e+01 9.552344146215e+04 1.000000000000e+00 0.000000000000e+00 
2.500000000000e+01 9.549280407376e+04 1.000000000000e+00 0.000000000000e+00 
2.533333333333e+01 9.546216668539e+04 1.000000000000e+00 0.000000000000e+00 
2.566666666667e+01 9.543152929704e+04 1.000000000000e+00 0.000000000000e+00 
2.600000000000e+01 9.540089190871e+04 1.000000000000e+00 0.000000000000e+00 
2.633333333333e+01 9.537025452040e+04 1.000000000000e+00 0.000000000000e+00 
2.666666666667e+01 9.533961713210e+04 1.000000000000e+00 0.000000000000e+00 
2.700000000000e+01 9.530897974383e+04 1.000000000000e+00 0.000000000000e+00 