 TITLE = "Profiles along polylines"
 VARIABLES = "DIST" "PRESSURE1" "SATURATION1" "SATURATION2" 
 ZONE T="TIME=0.000000000000e+00"
0.000000000000e+00 9.806700000000e+04 1.000000000000e+00 0.000000000000e+00 
3.333333333333e-01 9.806700000000e+04 1.000000000000e+00 0.000000000000e+00 
6.666666666667e-01 9.806700000000e+04 1.000000000000e+00 0.000000000000e+00 
1.000000000000e+00 9.806700000000e+04 1.000000000000e+00 0.000000000000e+00 
1.333333333333e+00 9.806700000000e+04 1.000000000000e+00 0.000000000000e+00 
1.666666666667e+00 9.806700000000e+04 1.000000000000e+00 0.000000000000e+00 
2.000000000000e+00 9.806700000000e+04 1.000000000000e+00 0.000000000000e+00 
2.333333333333e+00 9.806700000000e+04 1.000000000000e+00 0.000000000000e+00 
2.666666666667e+00 9.806700000000e+04 1.000000000000e+00 0.000000000000e+00 
3.000000000000e+00 9.806700000000e+04 1.000000000000e+00 0.000000000000e+00 
3.333333333333e+00 9.806700000000e+04 1.000000000000e+00 0.000000000000e+00 
3.666666666667e+00 9.806700000000e+04 1.000000000000e+00 0.000000000000e+00 
4.000000000000e+00 9.806700000000e+04 1.000000000000e+00 0.000000000000e+00 
4.333333333333e+00 9.806700000000e+04 1.000000000000e+00 0.000000000000e+00 
4.666666666667e+00 9.806700000000e+04 1.000000000000e+00 0.000000000000e+00 
5.000000000000e+00 9.806700000000e+04 8.999977480000e-01 1.000022520000e-01 
5.333333333333e+00 9.806700000000e+04 8.999977480000e-01 1.000022520000e-01 
5.666666666667e+00 9.806700000000e+04 8.999977480000e-01 1.000022520000e-01 
6.000000000000e+00 9.806700000000e+04 8.999977480000e-01 1.000022520000e-01 
6.333333333333e+00 9.806700000000e+04 8.999977480000e-01 1.000022520000e-01 
6.666666666667e+00 9.806700000000e+04 8.999977480000e-01 1.000022520000e-01 
7.000000000000e+00 9.806700000000e+04 8.999977480000e-01 1.000022520000e-01 
7.333333333333e+00 9.806700000000e+04 8.999977480000e-01 1.000022520000e-01 
7.666666666667e+00 9.806700000000e+04 8.999977480000e-01 1.000022520000e-01 
8.000000000000e+00 9.806700000000e+04 8.999977480000e-01 1.000022520000e-01 
8.333333333333e+00 9.806700000000e+04 8.999977480000e-01 1.000022520000e-01 
8.666666666667e+00 9.806700000000e+04 8.999977480000e-01 1.000022520000e-01 
9.000000000000e+00 9.806700000000e+04 8.999977480000e-01 1.000022520000e-01 
9.333333333333e+00 9.806700000000e+04 8.999977480000e-01 1.000022520000e-01 
9.666666666667e+00 9.806700000000e+04 8.999977480000e-01 1.000022520000e-01 
1.000000000000e+01 9.806700000000e+04 8.999977480000e-01 1.000022520000e-01 
1.033333333333e+01 9.806700000000e+04 8.999977480000e-01 1.000022520000e-01 
1.066666666667e+01 9.806700000000e+04 1.000000000000e+00 0.000000000000e+00 
1.100000000000e+01 9.806700000000e+04 1.000000000000e+00 0.000000000000e+00 
1.133333333333e+01 9.806700000000e+04 1.000000000000e+00 0.000000000000e+00 
1.166666666667e+01 9.806700000000e+04 1.000000000000e+00 0.000000000000e+00 
1.200000000000e+01 9.806700000000e+04 1.000000000000e+00 0.000000000000e+00 
1.233333333333e+01 9.806700000000e+04 1.000000000000e+00 0.000000000000e+00 
1.266666666667e+01 9.806700000000e+04 1.000000000000e+00 0.000000000000e+00 
1.300000000000e+01 9.806700000000e+04 1.000000000000e+00 0.000000000000e+00 
1.333333333333e+01 9.806700000000e+04 1.000000000000e+00 0.000000000000e+00 
1.366666666667e+01 9.806700000000e+04 1.000000000000e+00 0.000000000000e+00 
1.400000000000e+01 9.806700000000e+04 1.000000000000e+00 0.000000000000e+00 
1.433333333333e+01 9.806700000000e+04 1.000000000000e+00 0.000000000000e+00 
1.466666666667e+01 9.806700000000e+04 1.000000000000e+00 0.000000000000e+00 
1.500000000000e+01 9.806700000000e+04 1.000000000000e+00 0.000000000000e+00 
1.533333333333e+01 9.806700000000e+04 1.000000000000e+00 0.000000000000e+00 
1.566666666667e+01 9.806700000000e+04 1.000000000000e+00 0.000000000000e+00 
1.600000000000e+01 9.806700000000e+04 1.000000000000e+00 0.000000000000e+00 
1.633333333333e+01 9.806700000000e+04 1.000000000000e+00 0.000000000000e+00 
1.666666666667e+01 9.806700000000e+04 1.000000000000e+00 0.000000000000e+00 
1.700000000000e+01 9.806700000000e+04 1.000000000000e+00 0.000000000000e+00 
1.733333333333e+01 9.806700000000e+04 1.000000000000e+00 0.000000000000e+00 
1.766666666667e+01 9.806700000000e+04 1.000000000000e+00 0.000000000000e+00 
1.800000000000e+01 9.806700000000e+04 1.000000000000e+00 0.000000000000e+00 
1.833333333333e+01 9.806700000000e+04 1.000000000000e+00 0.000000000000e+00 
1.866666666667e+01 9.806700000000e+04 1.000000000000e+00 0.000000000000e+00 
1.900000000000e+01 9.806700000000e+04 1.000000000000e+00 0.000000000000e+00 
1.933333333333e+01 9.806700000000e+04 1.000000000000e+00 0.000000000000e+00 
1.966666666667e+01 9.806700000000e+04 1.000000000000e+00 0.000000000000e+00 
2.000000000000e+01 9.806700000000e+04 1.000000000000e+00 0.000000000000e+00 
2.033333333333e+01 9.806700000000e+04 1.000000000000e+00 0.000000000000e+00 
2.066666666667e+01 9.806700000000e+04 1.000000000000e+00 0.000000000000e+00 
2.100000000000e+01 9.806700000000e+04 1.000000000000e+00 0.000000000000e+00 
2.133333333333e+01 9.806700000000e+04 1.000000000000e+00 0.000000000000e+00 
2.166666666667e+01 9.806700000000e+04 1.000000000000e+00 0.000000000000e+00 
2.200000000000e+01 9.806700000000e+04 1.000000000000e+00 0.000000000000e+00 
2.233333333333e+01 9.806700000000e+04 1.000000000000e+00 0.000000000000e+00 
2.266666666667e+01 9.806700000000e+04 1.000000000000e+00 0.000000000000e+00 
2.300000000000e+01 9.806700000000e+04 1.000000000000e+00 0.000000000000e+00 
2.333333333333e+01 9.806700000000e+04 1.000000000000e+00 0.000000000000e+00 
2.366666666667e+01 9.806700000000e+04 1.000000000000e+00 0.000000000000e+00 
2.400000000000e+01 9.806700000000e+04 1.000000000000e+00 0.000000000000e+00 
2.433333333333e+01 9.806700000000e+04 1.000000000000e+00 0.000000000000e+00 
2.466666666667e+01 9.806700000000e+04 1.000000000000e+00 0.000000000000e+00 
2.500000000000e+01 9.806700000000e+04 1.000000000000e+00 0.000000000000e+00 
2.533333333333e+01 9.806700000000e+04 1.000000000000e+00 0.000000000000e+00 
2.566666666667e+01 9.806700000000e+04 1.000000000000e+00 0.000000000000e+00 
2.600000000000e+01 9.806700000000e+04 1.000000000000e+00 0.000000000000e+00 
2.633333333333e+01 9.806700000000e+04 1.000000000000e+00 0.000000000000e+00 
2.666666666667e+01 9.806700000000e+04 1.000000000000e+00 0.000000000000e+00 
2.700000000000e+01 9.806700000000e+04 1.000000000000e+00 0.000000000000e+00 
2.733333333333e+01 9.806700000000e+04 1.000000000000e+00 0.000000000000e+00 
2.766666666667e+01 9.806700000000e+04 1.000000000000e+00 0.000000000000e+00 
2.800000000000e+01 9.806700000000e+04 1.000000000000e+00 0.000000000000e+00 
2.833333333333e+01 9.806700000000e+04 1.000000000000e+00 0.000000000000e+00 
2.866666666667e+01 9.806700000000e+04 1.000000000000e+00 0.000000000000e+00 
2.900000000000e+01 9.806700000000e+04 1.000000000000e+00 0.000000000000e+00 
2.933333333333e+01 9.806700000000e+04 1.000000000000e+00 0.000000000000e+00 
2.966666666667e+01 9.806700000000e+04 1.000000000000e+00 0.000000000000e+00 
3.000000000000e+01 9.806700000000e+04 1.000000000000e+00 0.000000000000e+00 
3.033333333333e+01 9.806700000000e+04 1.000000000000e+00 0.000000000000e+00 
3.066666666667e+01 9.806700000000e+04 1.000000000000e+00 0.000000000000e+00 
3.100000000000e+01 9.806700000000e+04 1.000000000000e+00 0.000000000000e+00 
3.133333333333e+01 9.806700000000e+04 1.000000000000e+00 0.000000000000e+00 
3.166666666667e+01 9.806700000000e+04 1.000000000000e+00 0.000000000000e+00 
3.200000000000e+01 9.806700000000e+04 1.000000000000e+00 0.000000000000e+00 
3.233333333333e+01 9.806700000000e+04 1.000000000000e+00 0.000000000000e+00 
3.266666666667e+01 9.806700000000e+04 1.000000000000e+00 0.000000000000e+00 
3.300000000000e+01 9.806700000000e+04 1.000000000000e+00 0.000000000000e+00 
3.333333333333e+01 9.806700000000e+04 1.000000000000e+00 0.000000000000e+00 
3.366666666667e+01 9.806700000000e+04 1.000000000000e+00 0.000000000000e+00 
3.400000000000e+01 9.806700000000e+04 1.000000000000e+00 0.000000000000e+00 
3.433333333333e+01 9.806700000000e+04 1.000000000000e+00 0.000000000000e+00 
3.466666666667e+01 9.806700000000e+04 1.000000000000e+00 0.000000000000e+00 
3.500000000000e+01 9.806700000000e+04 1.000000000000e+00 0.000000000000e+00 
3.533333333333e+01 9.806700000000e+04 1.000000000000e+00 0.000000000000e+00 
3.566666666667e+01 9.806700000000e+04 1.000000000000e+00 0.000000000000e+00 
3.600000000000e+01 9.806700000000e+04 1.000000000000e+00 0.000000000000e+00 
3.633333333333e+01 9.806700000000e+04 1.000000000000e+00 0.000000000000e+00 
3.666666666667e+01 9.806700000000e+04 1.000000000000e+00 0.000000000000e+00 
3.700000000000e+01 9.806700000000e+04 1.000000000000e+00 0.000000000000e+00 
3.733333333333e+01 9.806700000000e+04 1.000000000000e+00 0.000000000000e+00 
3.766666666667e+01 9.806700000000e+04 1.000000000000e+00 0.000000000000e+00 
3.800000000000e+01 9.806700000000e+04 1.000000000000e+00 0.000000000000e+00 
3.833333333333e+01 9.806700000000e+04 1.000000000000e+00 0.000000000000e+00 
3.866666666667e+01 9.806700000000e+04 1.000000000000e+00 0.000000000000e+00 
3.900000000000e+01 9.806700000000e+04 1.000000000000e+00 0.000000000000e+00 
3.933333333333e+01 9.806700000000e+04 1.000000000000e+00 0.000000000000e+00 
3.966666666667e+01 9.806700000000e+04 1.000000000000e+00 0.000000000000e+00 
4.000000000000e+01 9.806700000000e+04 1.000000000000e+00 0.000000000000e+00 
4.033333333333e+01 9.806700000000e+04 1.000000000000e+00 0.000000000000e+00 
4.066666666667e+01 9.806700000000e+04 1.000000000000e+00 0.000000000000e+00 
4.100000000000e+01 9.806700000000e+04 1.000000000000e+00 0.000000000000e+00 
4.133333333333e+01 9.806700000000e+04 1.000000000000e+00 0.000000000000e+00 
4.166666666667e+01 9.806700000000e+04 1.000000000000e+00 0.000000000000e+00 
4.200000000000e+01 9.806700000000e+04 1.000000000000e+00 0.000000000000e+00 
4.233333333333e+01 9.806700000000e+04 1.000000000000e+00 0.000000000000e+00 
4.266666666667e+01 9.806700000000e+04 1.000000000000e+00 0.000000000000e+00 
4.300000000000e+01 9.806700000000e+04 1.000000000000e+00 0.000000000000e+00 
4.333333333333e+01 9.806700000000e+04 1.000000000000e+00 0.000000000000e+00 
4.366666666667e+01 9.806700000000e+04 1.000000000000e+00 0.000000000000e+00 
4.400000000000e+01 9.806700000000e+04 1.000000000000e+00 0.000000000000e+00 
4.433333333333e+01 9.806700000000e+04 1.000000000000e+00 0.000000000000e+00 
4.466666666667e+01 9.806700000000e+04 1.000000000000e+00 0.000000000000e+00 
4.500000000000e+01 9.806700000000e+04 1.000000000000e+00 0.000000000000e+00 
4.533333333333e+01 9.806700000000e+04 1.000000000000e+00 0.000000000000e+00 
4.566666666667e+01 9.806700000000e+04 1.000000000000e+00 0.000000000000e+00 
4.600000000000e+01 9.806700000000e+04 1.000000000000e+00 0.000000000000e+00 
4.633333333333e+01 9.806700000000e+04 1.000000000000e+00 0.000000000000e+00 
4.666666666667e+01 9.806700000000e+04 1.000000000000e+00 0.000000000000e+00 
4.700000000000e+01 9.806700000000e+04 1.000000000000e+00 0.000000000000e+00 
4.733333333333e+01 9.806700000000e+04 1.000000000000e+00 0.000000000000e+00 
4.766666666667e+01 9.806700000000e+04 1.000000000000e+00 0.000000000000e+00 
4.800000000000e+01 9.806700000000e+04 1.000000000000e+00 0.000000000000e+00 
4.833333333333e+01 9.806700000000e+04 1.000000000000e+00 0.000000000000e+00 
4.866666666667e+01 9.806700000000e+04 1.000000000000e+00 0.000000000000e+00 
4.900000000000e+01 9.806700000000e+04 1.000000000000e+00 0.000000000000e+00 
4.933333333333e+01 9.806700000000e+04 1.000000000000e+00 0.000000000000e+00 
4.966666666667e+01 9.806700000000e+04 1.000000000000e+00 0.000000000000e+00 
5.000000000000e+01 9.806700000000e+04 1.000000000000e+00 0.000000000000e+00 
 TITLE = "Profiles along polylines"
 VARIABLES = "DIST" "PRESSURE1" "SATURATION1" "SATURATION2" 
 ZONE T="TIME=2.160000000000e+04"
0.000000000000e+00 9.810000000000e+04 1.000000000000e+00 0.000000000000e+00 
3.333333333333e-01 9.806936273267e+04 1.000000000000e+00 0.000000000000e+00 
6.666666666667e-01 9.803872551934e+04 1.000000000000e+00 0.000000000000e+00 
1.000000000000e+00 9.800808843805e+04 1.000000000000e+00 0.000000000000e+00 
1.333333333333e+00 9.797745162549e+04 1.000000000000e+00 0.000000000000e+00 
1.666666666667e+00 9.794681533779e+04 1.000000000000e+00 0.000000000000e+00 
2.000000000000e+00 9.791618006434e+04 1.000000000000e+00 0.000000000000e+00 
2.333333333333e+00 9.788554674534e+04 1.000000000000e+00 0.000000000000e+00 
2.666666666667e+00 9.785491718961e+04 1.000000000000e+00 0.000000000000e+00 
3.000000000000e+00 9.782429487853e+04 1.000000000000e+00 0.000000000000e+00 
3.333333333333e+00 9.779368651336e+04 1.000000000000e+00 0.000000000000e+00 
3.666666666667e+00 9.776310499349e+04 1.000000000000e+00 0.000000000000e+00 
4.000000000000e+00 9.773257514960e+04 1.000000000000e+00 0.000000000000e+00 
4.333333333333e+00 9.770214477946e+04 1.000000000000e+00 0.000000000000e+00 
4.666666666667e+00 9.767190589138e+04 1.000000000000e+00 0.000000000000e+00 
5.000000000000e+00 9.763149067082e+04 8.999977480000e-01 1.000022520000e-01 
5.333333333333e+00 9.758307186525e+04 8.999977480000e-01 1.000022520000e-01 
5.666666666667e+00 9.753436918923e+04 8.999977480000e-01 1.000022520000e-01 
6.000000000000e+00 9.748551900265e+04 8.999977480000e-01 1.000022520000e-01 
6.333333333333e+00 9.743659210518e+04 8.999977480000e-01 1.000022520000e-01 
6.666666666667e+00 9.738762520276e+04 8.999977480000e-01 1.000022520000e-01 
7.000000000000e+00 9.733863722134e+04 8.999977480000e-01 1.000022520000e-01 
7.333333333333e+00 9.728963771842e+04 8.999977480000e-01 1.000022520000e-01 
7.666666666667e+00 9.724063113087e+04 8.999977480000e-01 1.000022520000e-01 
8.000000000000e+00 9.719161874679e+04 8.999977480000e-01 1.000022520000e-01 
8.333333333333e+00 9.714259927807e+04 8.999977480000e-01 1.000022520000e-01 
8.666666666667e+00 9.709356828786e+04 8.999977480000e-01 1.000022520000e-01 
9.000000000000e+00 9.704451621865e+04 8.999977480000e-01 1.000022520000e-01 
9.333333333333e+00 9.699542414448e+04 8.999977480000e-01 1.000022520000e-01 
9.666666666667e+00 9.694625535943e+04 8.999977480000e-01 1.000022520000e-01 
1.000000000000e+01 9.689693906383e+04 8.999977480000e-01 1.000022520000e-01 
1.033333333333e+01 9.684733889777e+04 8.999977480000e-01 1.000022520000e-01 
1.066666666667e+01 9.681104112563e+04 1.000000000000e+00 0.000000000000e+00 
1.100000000000e+01 9.678000523601e+04 1.000000000000e+00 0.000000000000e+00 
1.133333333333e+01 9.674916082846e+04 1.000000000000e+00 0.000000000000e+00 
1.166666666667e+01 9.671841589467e+04 1.000000000000e+00 0.000000000000e+00 
1.200000000000e+01 9.668772263689e+04 1.000000000000e+00 0.000000000000e+00 
1.233333333333e+01 9.665705622448e+04 1.000000000000e+00 0.000000000000e+00 
1.266666666667e+01 9.662640375808e+04 1.000000000000e+00 0.000000000000e+00 
1.300000000000e+01 9.659575853654e+04 1.000000000000e+00 0.000000000000e+00 
1.333333333333e+01 9.656511707867e+04 1.000000000000e+00 0.000000000000e+00 
1.366666666667e+01 9.653447757600e+04 1.000000000000e+00 0.000000000000e+00 
1.400000000000e+01 9.650383908905e+04 1.000000000000e+00 0.000000000000e+00 
1.433333333333e+01 9.647320112976e+04 1.000000000000e+00 0.000000000000e+00 
1.466666666667e+01 9.644256344459e+04 1.000000000000e+00 0.000000000000e+00 
1.500000000000e+01 9.641192590183e+04 1.000000000000e+00 0.000000000000e+00 
1.533333333333e+01 9.638128843304e+04 1.000000000000e+00 0.000000000000e+00 
1.566666666667e+01 9.635065100269e+04 1.000000000000e+00 0.000000000000e+00 
1.600000000000e+01 9.632001359232e+04 1.000000000000e+00 0.000000000000e+00 
1.633333333333e+01 9.628937619231e+04 1.000000000000e+00 0.000000000000e+00 
1.666666666667e+01 9.625873879771e+04 1.000000000000e+00 0.000000000000e+00 
1.700000000000e+01 9.622810140591e+04 1.000000000000e+00 0.000000000000e+00 
1.733333333333e+01 9.619746401557e+04 1.000000000000e+00 0.000000000000e+00 
1.766666666667e+01 9.616682662599e+04 1.000000000000e+00 0.000000000000e+00 
1.800000000000e+01 9.613618923682e+04 1.000000000000e+00 0.000000000000e+00 
1.833333333333e+01 9.610555184785e+04 1.000000000000e+00 0.000000000000e+00 
1.866666666667e+01 9.607491445901e+04 1.000000000000e+00 0.000000000000e+00 
1.900000000000e+01 9.604427707023e+04 1.000000000000e+00 0.000000000000e+00 
1.933333333333e+01 9.601363968148e+04 1.000000000000e+00 0.000000000000e+00 
1.966666666667e+01 9.598300229277e+04 1.000000000000e+00 0.000000000000e+00 
2.000000000000e+01 9.595236490407e+04 1.000000000000e+00 0.000000000000e+00 
2.033333333333e+01 9.592172751539e+04 1.000000000000e+00 0.000000000000e+00 
2.066666666667e+01 9.589109012672e+04 1.000000000000e+00 0.000000000000e+00 
2.100000000000e+01 9.586045273807e+04 1.000000000000e+00 0.000000000000e+00 
2.133333333333e+01 9.582981534943e+04 1.000000000000e+00 0.000000000000e+00 
2.166666666667e+01 9.579917796081e+04 1.000000000000e+00 0.000000000000e+00 
2.200000000000e+01 9.576854057220e+04 1.000000000000e+00 0.000000000000e+00 
2.233333333333e+01 9.573790318361e+04 1.000000000000e+00 0.000000000000e+00 
2.266666666667e+01 9.570726579503e+04 1.000000000000e+00 0.000000000000e+00 
2.300000000000e+01 9.567662840647e+04 1.000000000000e+00 0.000000000000e+00 
2.333333333333e+01 9.564599101793e+04 1.000000000000e+00 0.000000000000e+00 
2.366666666667e+01 9.561535362940e+04 1.000000000000e+00 0.000000000000e+00 
2.400000000000e+01 9.558471624089e+04 1.000000000000e+00 0.000000000000e+00 
2.433333333333e+01 9.555407885241e+04 1.000000000000e+00 0.000000000000e+00 
2.466666666667e+01 9.552344146394e+04 1.000000000000e+00 0.000000000000e+00 
2.500000000000e+01 9.549280407549e+04 1.000000000000e+00 0.000000000000e+00 
2.533333333333e+01 9.546216668706e+04 1.000000000000e+00 0.000000000000e+00 
2.566666666667e+01 9.543152929865e+04 1.000000000000e+00 0.000000000000e+00 
2.600000000000e+01 9.540089191027e+04 1.000000000000e+00 0.000000000000e+00 
2.633333333333e+01 9.537025452190e+04 1.000000000000e+00 0.000000000000e+00 
2.666666666667e+01 9.533961713356e+04 1.000000000000e+00 0.000000000000e+00 
2.700000000000e+01 9.530897974524e+04 1.000000000000e+00 0.000000000000e+00 
2.733333333333e+01 9.527834235694e+04 1.000000000000e+00 0.000000000000e+00 
2.766666666667e+01 9.524770496867e+04 1.000000000000e+00 0.000000000000e+00 
2.800000000000e+01 9.521706758042e+04 1.000000000000e+00 0.000000000000e+00 
2.833333333333e+01 9.518643019219e+04 1.000000000000e+00 0.000000000000e+00 
2.866666666667e+01 9.515579280399e+04 1.000000000000e+00 0.000000000000e+00 
2.900000000000e+01 9.512515541581e+04 1.000000000000e+00 0.000000000000e+00 
2.933333333333e+01 9.509451802765e+04 1.000000000000e+00 0.000000000000e+00 
2.966666666667e+01 9.506388063952e+04 1.000000000000e+00 0.000000000000e+00 
3.000000000000e+01 9.503324325142e+04 1.000000000000e+00 0.000000000000e+00 
3.033333333333e+01 9.500260586334e+04 1.000000000000e+00 0.000000000000e+00 
3.066666666667e+01 9.497196847528e+04 1.000000000000e+00 0.000000000000e+00 
3.100000000000e+01 9.494133108725e+04 1.000000000000e+00 0.000000000000e+00 
3.133333333333e+01 9.491069369925e+04 1.000000000000e+00 0.000000000000e+00 
3.166666666667e+01 9.488005631127e+04 1.000000000000e+00 0.000000000000e+00 
3.200000000000e+01 9.484941892331e+04 1.000000000000e+00 0.000000000000e+00 
3.233333333333e+01 9.481878153538e+04 1.000000000000e+00 0.000000000000e+00 
3.266666666667e+01 9.478814414748e+04 1.000000000000e+00 0.000000000000e+00 
3.300000000000e+01 9.475750675960e+04 1.000000000000e+00 0.000000000000e+00 
3.333333333333e+01 9.472686937174e+04 1.000000000000e+00 0.000000000000e+00 
3.366666666667e+01 9.469623198391e+04 1.000000000000e+00 0.000000000000e+00 
3.400000000000e+01 9.466559459610e+04 1.000000000000e+00 0.000000000000e+00 
3.433333333333e+01 9.463495720831e+04 1.000000000000e+00 0.000000000000e+00 
3.466666666667e+01 9.460431982055e+04 1.000000000000e+00 0.000000000000e+00 
3.500000000000e+01 9.457368243281e+04 1.000000000000e+00 0.000000000000e+00 
3.533333333333e+01 9.454304504510e+04 1.000000000000e+00 0.000000000000e+00 
3.566666666667e+01 9.451240765740e+04 1.000000000000e+00 0.000000000000e+00 
3.600000000000e+01 9.448177026973e+04 1.000000000000e+00 0.000000000000e+00 
3.633333333333e+01 9.445113288208e+04 1.000000000000e+00 0.000000000000e+00 
3.666666666667e+01 9.442049549445e+04 1.000000000000e+00 0.000000000000e+00 
3.700000000000e+01 9.438985810684e+04 1.000000000000e+00 0.000000000000e+00 
3.733333333333e+01 9.435922071925e+04 1.000000000000e+00 0.000000000000e+00 
3.766666666667e+01 9.432858333168e+04 1.000000000000e+00 0.000000000000e+00 
3.800000000000e+01 9.429794594413e+04 1.000000000000e+00 0.000000000000e+00 
3.833333333333e+01 9.426730855659e+04 1.000000000000e+00 0.000000000000e+00 
3.866666666667e+01 9.423667116907e+04 1.000000000000e+00 0.000000000000e+00 
3.900000000000e+01 9.420603378157e+04 1.000000000000e+00 0.000000000000e+00 
3.933333333333e+01 9.417539639409e+04 1.000000000000e+00 0.000000000000e+00 
3.966666666667e+01 9.414475900662e+04 1.000000000000e+00 0.000000000000e+00 
4.000000000000e+01 9.411412161917e+04 1.000000000000e+00 0.000000000000e+00 
4.033333333333e+01 9.408348423173e+04 1.000000000000e+00 0.000000000000e+00 
4.066666666667e+01 9.405284684431e+04 1.000000000000e+00 0.000000000000e+00 
4.100000000000e+01 9.402220945690e+04 1.000000000000e+00 0.000000000000e+00 
4.133333333333e+01 9.399157206950e+04 1.000000000000e+00 0.000000000000e+00 
4.166666666667e+01 9.396093468212e+04 1.000000000000e+00 0.000000000000e+00 
4.200000000000e+01 9.393029729475e+04 1.000000000000e+00 0.000000000000e+00 
4.233333333333e+01 9.389965990739e+04 1.000000000000e+00 0.000000000000e+00 
4.266666666667e+01 9.386902252004e+04 1.000000000000e+00 0.000000000000e+00 
4.300000000000e+01 9.383838513270e+04 1.000000000000e+00 0.000000000000e+00 
4.333333333333e+01 9.380774774536e+04 1.000000000000e+00 0.000000000000e+00 
4.366666666667e+01 9.377711035804e+04 1.000000000000e+00 0.000000000000e+00 
4.400000000000e+01 9.374647297073e+04 1.000000000000e+00 0.000000000000e+00 
4.433333333333e+01 9.371583558342e+04 1.000000000000e+00 0.000000000000e+00 
4.466666666667e+01 9.368519819613e+04 1.000000000000e+00 0.000000000000e+00 
4.500000000000e+01 9.365456080884e+04 1.000000000000e+00 0.000000000000e+00 
4.533333333333e+01 9.362392342155e+04 1.000000000000e+00 0.000000000000e+00 
4.566666666667e+01 9.359328603428e+04 1.000000000000e+00 0.000000000000e+00 
4.600000000000e+01 9.356264864700e+04 1.000000000000e+00 0.000000000000e+00 
4.633333333333e+01 9.353201125974e+04 1.000000000000e+00 0.000000000000e+00 
4.666666666667e+01 9.350137387247e+04 1.000000000000e+00 0.000000000000e+00 
4.700000000000e+01 9.347073648521e+04 1.000000000000e+00 0.000000000000e+00 
4.733333333333e+01 9.344009909796e+04 1.000000000000e+00 0.000000000000e+00 
4.766666666667e+01 9.340946171070e+04 1.000000000000e+00 0.000000000000e+00 
4.800000000000e+01 9.337882432345e+04 1.000000000000e+00 0.000000000000e+00 
4.833333333333e+01 9.334818693621e+04 1.000000000000e+00 0.000000000000e+00 
4.866666666667e+01 9.331754954896e+04 1.000000000000e+00 0.000000000000e+00 
4.900000000000e+01 9.328691216172e+04 1.000000000000e+00 0.000000000000e+00 
4.933333333333e+01 9.325627477448e+04 1.000000000000e+00 0.000000000000e+00 
4.966666666667e+01 9.322563738724e+04 1.000000000000e+00 0.000000000000e+00 
5.000000000000e+01 9.319500000000e+04 1.000000000000e+00 0.000000000000e+00 
 TITLE = "Profiles along polylines"
 VARIABLES = "DIST" "PRESSURE1" "SATURATION1" "SATURATION2" 
 ZONE T="TIME=4.320000000000e+04"
0.000000000000e+00 9.810000000000e+04 1.000000000000e+00 0.000000000000e+00 
3.333333333333e-01 9.806936273267e+04 1.000000000000e+00 0.000000000000e+00 
6.666666666667e-01 9.803872551934e+04 1.000000000000e+00 0.000000000000e+00 
1.000000000000e+00 9.800808843805e+04 1.000000000000e+00 0.000000000000e+00 
1.333333333333e+00 9.797745162549e+04 1.000000000000e+00 0.000000000000e+00 
1.666666666667e+00 9.794681533779e+04 1.000000000000e+00 0.000000000000e+00 
2.000000000000e+00 9.791618006434e+04 1.000000000000e+00 0.000000000000e+00 
2.333333333333e+00 9.788554674534e+04 1.000000000000e+00 0.000000000000e+00 
2.666666666667e+00 9.785491718961e+04 1.000000000000e+00 0.000000000000e+00 
3.000000000000e+00 9.782429487853e+04 1.000000000000e+00 0.000000000000e+00 
3.333333333333e+00 9.779368651336e+04 1.000000000000e+00 0.000000000000e+00 
3.666666666667e+00 9.776310499349e+04 1.000000000000e+00 0.000000000000e+00 
4.000000000000e+00 9.773257514960e+04 1.000000000000e+00 0.000000000000e+00 
4.333333333333e+00 9.770214477946e+04 1.000000000000e+00 0.000000000000e+00 
4.666666666667e+00 9.767190589138e+04 1.000000000000e+00 0.000000000000e+00 
5.000000000000e+00 9.763149067082e+04 8.999977480000e-01 1.000022520000e-01 
5.333333333333e+00 9.758307186525e+04 8.999977480000e-01 1.000022520000e-01 
5.666666666667e+00 9.753436918923e+04 8.999977480000e-01 1.000022520000e-01 
6.000000000000e+00 9.748551900265e+04 8.999977480000e-01 1.000022520000e-01 
6.333333333333e+00 9.743659210518e+04 8.999977480000e-01 1.000022520000e-01 
6.666666666667e+00 9.738762520276e+04 8.999977480000e-01 1.000022520000e-01 
7.000000000000e+00 9.733863722134e+04 8.999977480000e-01 1.000022520000e-01 
7.333333333333e+00 9.728963771842e+04 8.999977480000e-01 1.000022520000e-01 
7.666666666667e+00 9.724063113087e+04 8.999977480000e-01 1.000022520000e-01 
8.000000000000e+00 9.719161874679e+04 8.999977480000e-01 1.000022520000e-01 
8.333333333333e+00 9.714259927807e+04 8.999977480000e-01 1.000022520000e-01 
8.666666666667e+00 9.709356828786e+04 8.999977480000e-01 1.000022520000e-01 
9.000000000000e+00 9.704451621865e+04 8.999977480000e-01 1.000022520000e-01 
9.333333333333e+00 9.699542414448e+04 8.999977480000e-01 1.000022520000e-01 
9.666666666667e+00 9.694625535943e+04 8.999977480000e-01 1.000022520000e-01 
1.000000000000e+01 9.689693906383e+04 8.999977480000e-01 1.000022520000e-01 
1.033333333333e+01 9.684733889777e+04 8.999977480000e-01 1.000022520000e-01 
1.066666666667e+01 9.681104112563e+04 1.000000000000e+00 0.000000000000e+00 
1.100000000000e+01 9.678000523601e+04 1.000000000000e+00 0.000000000000e+00 
1.133333333333e+01 9.674916082846e+04 1.000000000000e+00 0.000000000000e+00 
1.166666666667e+01 9.671841589467e+04 1.000000000000e+00 0.000000000000e+00 
1.200000000000e+01 9.668772263689e+04 1.000000000000e+00 0.000000000000e+00 
1.233333333333e+01 9.665705622448e+04 1.000000000000e+00 0.000000000000e+00 
1.266666666667e+01 9.662640375808e+04 1.000000000000e+00 0.000000000000e+00 
1.300000000000e+01 9.659575853654e+04 1.000000000000e+00 0.000000000000e+00 
1.333333333333e+01 9.656511707867e+04 1.000000000000e+00 0.000000000000e+00 
1.366666666667e+01 9.653447757600e+04 1.000000000000e+00 0.000000000000e+00 
1.400000000000e+01 9.650383908905e+04 1.000000000000e+00 0.000000000000e+00 
1.433333333333e+01 9.647320112976e+04 1.000000000000e+00 0.000000000000e+00 
1.466666666667e+01 9.644256344459e+04 1.000000000000e+00 0.000000000000e+00 
1.500000000000e+01 9.641192590183e+04 1.000000000000e+00 0.000000000000e+00 
1.533333333333e+01 9.638128843304e+04 1.000000000000e+00 0.000000000000e+00 
1.566666666667e+01 9.635065100269e+04 1.000000000000e+00 0.000000000000e+00 
1.600000000000e+01 9.632001359232e+04 1.000000000000e+00 0.000000000000e+00 
1.633333333333e+01 9.628937619231e+04 1.000000000000e+00 0.000000000000e+00 
1.666666666667e+01 9.625873879771e+04 1.000000000000e+00 0.000000000000e+00 
1.700000000000e+01 9.622810140591e+04 1.000000000000e+00 0.000000000000e+00 
1.733333333333e+01 9.619746401557e+04 1.000000000000e+00 0.000000000000e+00 
1.766666666667e+01 9.616682662599e+04 1.000000000000e+00 0.000000000000e+00 
1.800000000000e+01 9.613618923682e+04 1.000000000000e+00 0.000000000000e+00 
1.833333333333e+01 9.610555184785e+04 1.000000000000e+00 0.000000000000e+00 
1.866666666667e+01 9.607491445901e+04 1.000000000000e+00 0.000000000000e+00 
1.900000000000e+01 9.604427707023e+04 1.000000000000e+00 0.000000000000e+00 
1.933333333333e+01 9.601363968148e+04 1.000000000000e+00 0.000000000000e+00 
1.966666666667e+01 9.598300229277e+04 1.000000000000e+00 0.000000000000e+00 
2.000000000000e+01 9.595236490407e+04 1.000000000000e+00 0.000000000000e+00 
2.033333333333e+01 9.592172751539e+04 1.000000000000e+00 0.000000000000e+00 
2.066666666667e+01 9.589109012672e+04 1.000000000000e+00 0.000000000000e+00 
2.100000000000e+01 9.586045273807e+04 1.000000000000e+00 0.000000000000e+00 
2.133333333333e+01 9.582981534943e+04 1.000000000000e+00 0.000000000000e+00 
2.166666666667e+01 9.579917796081e+04 1.000000000000e+00 0.000000000000e+00 
2.200000000000e+01 9.576854057220e+04 1.000000000000e+00 0.000000000000e+00 
2.233333333333e+01 9.573790318361e+04 1.000000000000e+00 0.000000000000e+00 
2.266666666667e+01 9.570726579503e+04 1.000000000000e+00 0.000000000000e+00 
2.300000000000e+01 9.567662840647e+04 1.000000000000e+00 0.000000000000e+00 
2.333333333333e+01 9.564599101793e+04 1.000000000000e+00 0.000000000000e+00 
2.366666666667e+01 9.561535362940e+04 1.000000000000e+00 0.000000000000e+00 
2.400000000000e+01 9.558471624089e+04 1.000000000000e+00 0.000000000000e+00 
2.433333333333e+01 9.555407885241e+04 1.000000000000e+00 0.000000000000e+00 
2.466666666667e+01 9.552344146394e+04 1.000000000000e+00 0.000000000000e+00 
2.500000000000e+01 9.549280407549e+04 1.000000000000e+00 0.000000000000e+00 
2.533333333333e+01 9.546216668706e+04 1.000000000000e+00 0.000000000000e+00 
2.566666666667e+01 9.543152929865e+04 1.000000000000e+00 0.000000000000e+00 
2.600000000000e+01 9.540089191027e+04 1.000000000000e+00 0.000000000000e+00 
2.633333333333e+01 9.537025452190e+04 1.000000000000e+00 0.000000000000e+00 
2.666666666667e+01 9.533961713356e+04 1.000000000000e+00 0.000000000000e+00 
2.700000000000e+01 9.530897974524e+04 1.000000000000e+00 0.000000000000e+00 