 TITLE = "Time curves in points"
 VARIABLES = "TIME "  "Tracer" 
 ZONE T="POINT=POINT8"
0.000000000000e+00 0.000000000000e+00 
2.160000000000e+04 7.673775388619e-17 
4.320000000000e+04 3.278242896906e-15 
6.480000000000e+04 3.803330305807e-14 
8.640000000000e+04 2.736838607060e-13 
1.080000000000e+05 1.491934132247e-12 
1.296000000000e+05 6.635384325323e-12 
1.512000000000e+05 2.514218254262e-11 
1.728000000000e+05 8.356485771721e-11 
1.944000000000e+05 2.487029741442e-10 
2.160000000000e+05 6.734145270695e-10 
2.376000000000e+05 1.679713665502e-09 
2.592000000000e+05 3.898514578288e-09 
2.808000000000e+05 8.489063230822e-09 
3.024000000000e+05 1.746281064010e-08 
3.240000000000e+05 3.413515783654e-08 
3.456000000000e+05 6.372327863341e-08 
3.672000000000e+05 1.140994246764e-07 
3.888000000000e+05 1.966967664649e-07 
4.104000000000e+05 3.275505712947e-07 
4.320000000000e+05 5.284425323133e-07 
4.536000000000e+05 8.281022457590e-07 
4.752000000000e+05 1.263408997515e-06 
4.968000000000e+05 1.880530033912e-06 
5.184000000000e+05 2.735929869329e-06 
5.400000000000e+05 3.897188522450e-06 
5.616000000000e+05 5.443575384464e-06 
5.832000000000e+05 7.466338495254e-06 
6.048000000000e+05 1.006868560568e-05 
6.264000000000e+05 1.336545262342e-05 
6.480000000000e+05 1.748247510856e-05 
6.696000000000e+05 2.255569888647e-05 
6.912000000000e+05 2.873008529522e-05 
7.128000000000e+05 3.615838428886e-05 
7.344000000000e+05 4.499986409023e-05 
7.560000000000e+05 5.541909894902e-05 
7.776000000000e+05 6.758492651773e-05 
7.992000000000e+05 8.166969317881e-05 
8.208000000000e+05 9.784890963731e-05 
8.424000000000e+05 1.163014398948e-04 
8.640000000000e+05 1.372103445773e-04 
8.856000000000e+05 1.607644944816e-04 
9.072000000000e+05 1.871610621562e-04 
9.288000000000e+05 2.166089884477e-04 
9.504000000000e+05 2.493335071261e-04 
9.720000000000e+05 2.855817943476e-04 
9.936000000000e+05 3.256297905211e-04 
1.015200000000e+06 3.697902207198e-04 
1.036800000000e+06 4.184218161804e-04 
1.058400000000e+06 4.719397140465e-04 
1.080000000000e+06 5.308269858553e-04 
1.101600000000e+06 5.956472177573e-04 
1.123200000000e+06 6.670580378375e-04 
1.144800000000e+06 7.458254585880e-04 
1.166400000000e+06 8.328388765203e-04 
1.188000000000e+06 9.291265465578e-04 
1.209600000000e+06 1.035871326944e-03 
1.231200000000e+06 1.154426471671e-03 
1.252800000000e+06 1.286331232175e-03 
1.274400000000e+06 1.433326019088e-03 
1.296000000000e+06 1.597366868097e-03 
1.317600000000e+06 1.780638952198e-03 
1.339200000000e+06 1.985568885435e-03 
1.360800000000e+06 2.214835571126e-03 
1.382400000000e+06 2.471379359973e-03 
1.404000000000e+06 2.758409300476e-03 
1.425600000000e+06 3.079408285178e-03 
1.447200000000e+06 3.438135921040e-03 
1.468800000000e+06 3.838628980293e-03 
1.490400000000e+06 4.285199318574e-03 
1.512000000000e+06 4.782429179840e-03 
1.533600000000e+06 5.335163841320e-03 
1.555200000000e+06 5.948501586378e-03 
1.576800000000e+06 6.627781027715e-03 
1.598400000000e+06 7.378565837340e-03 
1.620000000000e+06 8.206626972536e-03 
1.641600000000e+06 9.117922518154e-03 
1.663200000000e+06 1.011857529452e-02 
1.684800000000e+06 1.121484840652e-02 
1.706400000000e+06 1.241311893286e-02 
1.728000000000e+06 1.371984997475e-02 
1.749600000000e+06 1.514156129987e-02 
1.771200000000e+06 1.668479883113e-02 
1.792800000000e+06 1.835610323915e-02 
1.814400000000e+06 2.016197790371e-02 
1.836000000000e+06 2.210885651212e-02 
1.857600000000e+06 2.420307056188e-02 
1.879200000000e+06 2.645081703099e-02 
1.900800000000e+06 2.885812647274e-02 
1.922400000000e+06 3.143083178209e-02 
1.944000000000e+06 3.417453786882e-02 
1.965600000000e+06 3.709459245874e-02 
1.987200000000e+06 4.019605822785e-02 
2.008800000000e+06 4.348368645730e-02 
2.030400000000e+06 4.696189237791e-02 
2.052000000000e+06 5.063473235336e-02 
2.073600000000e+06 5.450588303093e-02 
2.095200000000e+06 5.857862256804e-02 
2.116800000000e+06 6.285581402164e-02 
2.138400000000e+06 6.733989096748e-02 
2.160000000000e+06 7.203284539540e-02 
2.181600000000e+06 7.693621790762e-02 
2.203200000000e+06 8.205109022768e-02 
2.224800000000e+06 8.737808000989e-02 
2.246400000000e+06 9.291733792213e-02 
2.268000000000e+06 9.866854695899e-02 
2.289600000000e+06 1.046309239276e-01 
2.311200000000e+06 1.108032230356e-01 
2.332800000000e+06 1.171837414976e-01 
2.354400000000e+06 1.237703270685e-01 
2.376000000000e+06 1.305603873985e-01 
2.397600000000e+06 1.375509011026e-01 
2.419200000000e+06 1.447384304251e-01 
2.440800000000e+06 1.521191353783e-01 
2.462400000000e+06 1.596887892296e-01 
2.484000000000e+06 1.674427952084e-01 
2.505600000000e+06 1.753762043022e-01 
2.527200000000e+06 1.834837340115e-01 
2.548800000000e+06 1.917597879342e-01 
2.570400000000e+06 2.001984760495e-01 
2.592000000000e+06 2.087936355764e-01 
2.613600000000e+06 2.175388522827e-01 
2.635200000000e+06 2.264274821247e-01 
2.656800000000e+06 2.354526731030e-01 
2.678400000000e+06 2.446073872241e-01 
2.700000000000e+06 2.538844224612e-01 
2.721600000000e+06 2.632764346170e-01 
2.743200000000e+06 2.727759589921e-01 
2.764800000000e+06 2.823754317741e-01 
2.786400000000e+06 2.920672110644e-01 
2.808000000000e+06 3.018435974687e-01 
2.829600000000e+06 3.116968541826e-01 
2.851200000000e+06 3.216192265103e-01 
2.872800000000e+06 3.316029607616e-01 
2.894400000000e+06 3.416403224760e-01 
2.916000000000e+06 3.517236139340e-01 
2.937600000000e+06 3.618451909150e-01 
2.959200000000e+06 3.719974786729e-01 
2.980800000000e+06 3.821729871035e-01 
3.002400000000e+06 3.923643250818e-01 
3.024000000000e+06 4.025642139562e-01 
3.045600000000e+06 4.127655001871e-01 
3.067200000000e+06 4.229611671263e-01 
3.088800000000e+06 4.331443459333e-01 
3.110400000000e+06 4.433083256334e-01 
3.132000000000e+06 4.534465623211e-01 
3.153600000000e+06 4.635526875215e-01 
3.175200000000e+06 4.736205157192e-01 
3.196800000000e+06 4.836440510730e-01 
3.218400000000e+06 4.936174933323e-01 
3.240000000000e+06 5.035352429775e-01 
3.261600000000e+06 5.133919056051e-01 
3.283200000000e+06 5.231822955828e-01 
3.304800000000e+06 5.329014390001e-01 
3.326400000000e+06 5.425445759413e-01 
3.348000000000e+06 5.521071621085e-01 
3.369600000000e+06 5.615848698246e-01 
3.391200000000e+06 5.709735884452e-01 
3.412800000000e+06 5.802694242088e-01 
3.434400000000e+06 5.894686995578e-01 
3.456000000000e+06 5.985679519586e-01 
3.477600000000e+06 6.075639322521e-01 
3.499200000000e+06 6.164536025658e-01 
3.520800000000e+06 6.252341338166e-01 
3.542400000000e+06 6.339029028337e-01 
3.564000000000e+06 6.424574891328e-01 
3.585600000000e+06 6.508956713678e-01 
3.607200000000e+06 6.592154234897e-01 
3.628800000000e+06 6.674149106396e-01 
3.650400000000e+06 6.754924848016e-01 
3.672000000000e+06 6.834466802426e-01 
3.693600000000e+06 6.912762087625e-01 
3.715200000000e+06 6.989799547787e-01 
3.736800000000e+06 7.065569702692e-01 
3.758400000000e+06 7.140064695947e-01 
3.780000000000e+06 7.213278242204e-01 
3.801600000000e+06 7.285205573591e-01 
3.823200000000e+06 7.355843385532e-01 
3.844800000000e+06 7.425189782131e-01 
3.866400000000e+06 7.493244221298e-01 
3.888000000000e+06 7.560007459780e-01 
3.909600000000e+06 7.625481498220e-01 
3.931200000000e+06 7.689669526420e-01 
3.952800000000e+06 7.752575868902e-01 
3.974400000000e+06 7.814205930916e-01 
3.996000000000e+06 7.874566144982e-01 
4.017600000000e+06 7.933663918086e-01 
4.039200000000e+06 7.991507579613e-01 
4.060800000000e+06 8.048106330112e-01 
4.082400000000e+06 8.103470190953e-01 
4.104000000000e+06 8.157609954969e-01 
4.125600000000e+06 8.210537138123e-01 
4.147200000000e+06 8.262263932273e-01 
4.168800000000e+06 8.312803159069e-01 
4.190400000000e+06 8.362168225035e-01 
4.212000000000e+06 8.410373077868e-01 
4.233600000000e+06 8.457432163979e-01 
4.255200000000e+06 8.503360387311e-01 
4.276800000000e+06 8.548173069442e-01 
4.298400000000e+06 8.591885911003e-01 
4.320000000000e+06 8.634514954403e-01 
4.341600000000e+06 8.676076547880e-01 
4.363200000000e+06 8.716587310879e-01 
4.384800000000e+06 8.756064100743e-01 
4.406400000000e+06 8.794523980735e-01 
4.428000000000e+06 8.831984189360e-01 
4.449600000000e+06 8.868462110986e-01 
4.471200000000e+06 8.903975247751e-01 
4.492800000000e+06 8.938541192743e-01 
4.514400000000e+06 8.972177604421e-01 
4.536000000000e+06 9.004902182273e-01 
4.557600000000e+06 9.036732643679e-01 
4.579200000000e+06 9.067686701961e-01 
4.600800000000e+06 9.097782045584e-01 
4.622400000000e+06 9.127036318504e-01 
4.644000000000e+06 9.155467101606e-01 
4.665600000000e+06 9.183091895232e-01 
4.687200000000e+06 9.209928102747e-01 
4.708800000000e+06 9.235993015134e-01 
4.730400000000e+06 9.261303796568e-01 
4.752000000000e+06 9.285877470955e-01 
4.773600000000e+06 9.309730909395e-01 
4.795200000000e+06 9.332880818542e-01 
4.816800000000e+06 9.355343729831e-01 
4.838400000000e+06 9.377135989539e-01 
4.860000000000e+06 9.398273749647e-01 
4.881600000000e+06 9.418772959480e-01 
4.903200000000e+06 9.438649358087e-01 
4.924800000000e+06 9.457918467333e-01 
4.946400000000e+06 9.476595585675e-01 
4.968000000000e+06 9.494695782596e-01 
4.989600000000e+06 9.512233893655e-01 
5.011200000000e+06 9.529224516141e-01 
5.032800000000e+06 9.545682005293e-01 
5.054400000000e+06 9.561620471064e-01 
5.076000000000e+06 9.577053775398e-01 
5.097600000000e+06 9.591995529996e-01 
5.119200000000e+06 9.606459094551e-01 
5.140800000000e+06 9.620457575415e-01 
5.162400000000e+06 9.634003824688e-01 
5.184000000000e+06 9.647110439697e-01 
5.205600000000e+06 9.659789762843e-01 
5.227200000000e+06 9.672053881803e-01 
5.248800000000e+06 9.683914630048e-01 
5.270400000000e+06 9.695383587680e-01 
5.292000000000e+06 9.706472082545e-01 
5.313600000000e+06 9.717191191622e-01 
5.335200000000e+06 9.727551742659e-01 
5.356800000000e+06 9.737564316039e-01 
5.378400000000e+06 9.747239246865e-01 
5.400000000000e+06 9.756586627241e-01 
5.421600000000e+06 9.765616308740e-01 
5.443200000000e+06 9.774337905035e-01 
5.464800000000e+06 9.782760794695e-01 
5.486400000000e+06 9.790894124106e-01 
5.508000000000e+06 9.798746810534e-01 
5.529600000000e+06 9.806327545299e-01 
5.551200000000e+06 9.813644797047e-01 
5.572800000000e+06 9.820706815125e-01 
5.594400000000e+06 9.827521633026e-01 
5.616000000000e+06 9.834097071915e-01 
5.637600000000e+06 9.840440744211e-01 
5.659200000000e+06 9.846560057226e-01 
5.680800000000e+06 9.852462216844e-01 
5.702400000000e+06 9.858154231240e-01 
5.724000000000e+06 9.863642914626e-01 
5.745600000000e+06 9.868934891015e-01 
5.767200000000e+06 9.874036598006e-01 
5.788800000000e+06 9.878954290572e-01 
5.810400000000e+06 9.883694044849e-01 
5.832000000000e+06 9.888261761927e-01 
5.853600000000e+06 9.892663171627e-01 
5.875200000000e+06 9.896903836268e-01 
5.896800000000e+06 9.900989154412e-01 
5.918400000000e+06 9.904924364590e-01 
5.940000000000e+06 9.908714548999e-01 
5.961600000000e+06 9.912364637174e-01 
5.983200000000e+06 9.915879409617e-01 
6.004800000000e+06 9.919263501402e-01 
6.026400000000e+06 9.922521405730e-01 
6.048000000000e+06 9.925657477451e-01 
6.069600000000e+06 9.928675936532e-01 
6.091200000000e+06 9.931580871494e-01 
6.112800000000e+06 9.934376242783e-01 
6.134400000000e+06 9.937065886105e-01 
6.156000000000e+06 9.939653515707e-01 
6.177600000000e+06 9.942142727597e-01 
6.199200000000e+06 9.944537002725e-01 
6.220800000000e+06 9.946839710095e-01 
6.242400000000e+06 9.949054109832e-01 
6.264000000000e+06 9.951183356188e-01 
6.285600000000e+06 9.953230500492e-01 
6.307200000000e+06 9.955198494043e-01 
6.328800000000e+06 9.957090190944e-01 
6.350400000000e+06 9.958908350885e-01 
6.372000000000e+06 9.960655641858e-01 
6.393600000000e+06 9.962334642821e-01 
6.415200000000e+06 9.963947846303e-01 
6.436800000000e+06 9.965497660954e-01 
6.458400000000e+06 9.966986414027e-01 
6.480000000000e+06 9.968416353819e-01 
6.501600000000e+06 9.969789652044e-01 
6.523200000000e+06 9.971108406151e-01 
6.544800000000e+06 9.972374641590e-01 
6.566400000000e+06 9.973590314024e-01 
6.588000000000e+06 9.974757311478e-01 
6.609600000000e+06 9.975877456442e-01 
6.631200000000e+06 9.976952507920e-01 
6.652800000000e+06 9.977984163422e-01 
6.674400000000e+06 9.978974060909e-01 
6.696000000000e+06 9.979923780682e-01 
6.717600000000e+06 9.980834847229e-01 
6.739200000000e+06 9.981708731009e-01 
6.760800000000e+06 9.982546850204e-01 
6.782400000000e+06 9.983350572407e-01 
6.804000000000e+06 9.984121216277e-01 
6.825600000000e+06 9.984860053138e-01 
6.847200000000e+06 9.985568308537e-01 
6.868800000000e+06 9.986247163758e-01 
6.890400000000e+06 9.986897757292e-01 
6.912000000000e+06 9.987521186263e-01 
6.933600000000e+06 9.988118507815e-01 
6.955200000000e+06 9.988690740457e-01 
6.976800000000e+06 9.989238865366e-01 
6.998400000000e+06 9.989763827656e-01 
7.020000000000e+06 9.990266537606e-01 
7.041600000000e+06 9.990747871850e-01 
7.063200000000e+06 9.991208674532e-01 
7.084800000000e+06 9.991649758426e-01 
7.106400000000e+06 9.992071906021e-01 
7.128000000000e+06 9.992475870571e-01 
7.149600000000e+06 9.992862377117e-01 
7.171200000000e+06 9.993232123469e-01 
7.192800000000e+06 9.993585781165e-01 
7.214400000000e+06 9.993923996392e-01 
7.236000000000e+06 9.994247390888e-01 
7.257600000000e+06 9.994556562801e-01 
7.279200000000e+06 9.994852087534e-01 
7.300800000000e+06 9.995134518553e-01 
7.322400000000e+06 9.995404388172e-01 
7.344000000000e+06 9.995662208315e-01 
7.365600000000e+06 9.995908471249e-01 
7.387200000000e+06 9.996143650291e-01 
7.408800000000e+06 9.996368200501e-01 
7.430400000000e+06 9.996582559338e-01 
7.452000000000e+06 9.996787147308e-01 
7.473600000000e+06 9.996982368579e-01 
7.495200000000e+06 9.997168611582e-01 
7.516800000000e+06 9.997346249587e-01 
7.538400000000e+06 9.997515641267e-01 
7.560000000000e+06 9.997677131229e-01 
7.581600000000e+06 9.997831050545e-01 
7.603200000000e+06 9.997977717247e-01 
7.624800000000e+06 9.998117436815e-01 
7.646400000000e+06 9.998250502648e-01 
7.668000000000e+06 9.998377196513e-01 
7.689600000000e+06 9.998497788984e-01 
7.711200000000e+06 9.998612539863e-01 
7.732800000000e+06 9.998721698583e-01 
7.754400000000e+06 9.998825504605e-01 
7.776000000000e+06 9.998924187791e-01 
7.797600000000e+06 9.999017968775e-01 
7.819200000000e+06 9.999107059306e-01 
7.840800000000e+06 9.999191662596e-01 
7.862400000000e+06 9.999271973638e-01 
7.884000000000e+06 9.999348179529e-01 
7.905600000000e+06 9.999420459768e-01 
7.927200000000e+06 9.999488986552e-01 
7.948800000000e+06 9.999553925054e-01 
7.970400000000e+06 9.999615433699e-01 
7.992000000000e+06 9.999673664424e-01 
8.013600000000e+06 9.999728762929e-01 
8.035200000000e+06 9.999780868921e-01 
8.056800000000e+06 9.999830116347e-01 
8.078400000000e+06 9.999876633621e-01 
8.100000000000e+06 9.999920543838e-01 
8.121600000000e+06 9.999961964987e-01 
8.143200000000e+06 1.000000101015e+00 
8.164800000000e+06 1.000003778769e+00 
8.186400000000e+06 1.000007240144e+00 
8.208000000000e+06 1.000010495090e+00 
8.229600000000e+06 1.000013553137e+00 
8.251200000000e+06 1.000016423417e+00 
8.272800000000e+06 1.000019114675e+00 
8.294400000000e+06 1.000021635286e+00 
8.316000000000e+06 1.000023993271e+00 
8.337600000000e+06 1.000026196310e+00 
8.359200000000e+06 1.000028251757e+00 
8.380800000000e+06 1.000030166650e+00 
8.402400000000e+06 1.000031947729e+00 
8.424000000000e+06 1.000033601441e+00 
8.445600000000e+06 1.000035133960e+00 
8.467200000000e+06 1.000036551190e+00 
8.488800000000e+06 1.000037858782e+00 
8.510400000000e+06 1.000039062142e+00 
8.532000000000e+06 1.000040166440e+00 
8.553600000000e+06 1.000041176621e+00 
8.575200000000e+06 1.000042097416e+00 
8.596800000000e+06 1.000042933346e+00 
8.618400000000e+06 1.000043688735e+00 
8.640000000000e+06 1.000044367715e+00 
8.661600000000e+06 1.000044974236e+00 
8.683200000000e+06 1.000045512075e+00 
8.704800000000e+06 1.000045984837e+00 
8.726400000000e+06 1.000046395969e+00 
8.748000000000e+06 1.000046748765e+00 
8.769600000000e+06 1.000047046367e+00 
8.791200000000e+06 1.000047291778e+00 
8.812800000000e+06 1.000047487867e+00 
8.834400000000e+06 1.000047637370e+00 
8.856000000000e+06 1.000047742899e+00 
8.877600000000e+06 1.000047806948e+00 
8.899200000000e+06 1.000047831895e+00 
8.920800000000e+06 1.000047820012e+00 
8.942400000000e+06 1.000047773461e+00 
8.964000000000e+06 1.000047694308e+00 
8.985600000000e+06 1.000047584522e+00 
9.007200000000e+06 1.000047445977e+00 
9.028800000000e+06 1.000047280464e+00 
9.050400000000e+06 1.000047089685e+00 
9.072000000000e+06 1.000046875264e+00 
9.093600000000e+06 1.000046638748e+00 
9.115200000000e+06 1.000046381608e+00 
9.136800000000e+06 1.000046105246e+00 
9.158400000000e+06 1.000045810996e+00 
9.180000000000e+06 1.000045500128e+00 
9.201600000000e+06 1.000045173848e+00 
9.223200000000e+06 1.000044833304e+00 
9.244800000000e+06 1.000044479590e+00 
9.266400000000e+06 1.000044113741e+00 
9.288000000000e+06 1.000043736743e+00 
9.309600000000e+06 1.000043349534e+00 
9.331200000000e+06 1.000042953001e+00 
9.352800000000e+06 1.000042547989e+00 
9.374400000000e+06 1.000042135298e+00 
9.396000000000e+06 1.000041715688e+00 
9.417600000000e+06 1.000041289878e+00 
9.439200000000e+06 1.000040858551e+00 
9.460800000000e+06 1.000040422354e+00 
9.482400000000e+06 1.000039981897e+00 
9.504000000000e+06 1.000039537761e+00 
9.525600000000e+06 1.000039090492e+00 
9.547200000000e+06 1.000038640610e+00 
9.568800000000e+06 1.000038188604e+00 
9.590400000000e+06 1.000037734935e+00 
9.612000000000e+06 1.000037280041e+00 
9.633600000000e+06 1.000036824332e+00 
9.655200000000e+06 1.000036368197e+00 
9.676800000000e+06 1.000035912000e+00 
9.698400000000e+06 1.000035456087e+00 
9.720000000000e+06 1.000035000779e+00 
9.741600000000e+06 1.000034546381e+00 
9.763200000000e+06 1.000034093178e+00 
9.784800000000e+06 1.000033641438e+00 
9.806400000000e+06 1.000033191411e+00 
9.828000000000e+06 1.000032743332e+00 
9.849600000000e+06 1.000032297420e+00 
9.871200000000e+06 1.000031853880e+00 
9.892800000000e+06 1.000031412902e+00 
9.914400000000e+06 1.000030974664e+00 
9.936000000000e+06 1.000030539332e+00 
9.957600000000e+06 1.000030107058e+00 
9.979200000000e+06 1.000029677984e+00 
1.000080000000e+07 1.000029252241e+00 
1.002240000000e+07 1.000028829949e+00 
1.004400000000e+07 1.000028411221e+00 
1.006560000000e+07 1.000027996157e+00 
1.008720000000e+07 1.000027584851e+00 
1.010880000000e+07 1.000027177387e+00 
1.013040000000e+07 1.000026773842e+00 
1.015200000000e+07 1.000026374285e+00 
1.017360000000e+07 1.000025978779e+00 
1.019520000000e+07 1.000025587379e+00 
1.021680000000e+07 1.000025200134e+00 
1.023840000000e+07 1.000024817087e+00 
1.026000000000e+07 1.000024438276e+00 
1.028160000000e+07 1.000024063732e+00 
1.030320000000e+07 1.000023693482e+00 
1.032480000000e+07 1.000023327549e+00 
1.034640000000e+07 1.000022965950e+00 
1.036800000000e+07 1.000022608697e+00 
1.038960000000e+07 1.000022255801e+00 
1.041120000000e+07 1.000021907267e+00 
1.043280000000e+07 1.000021563095e+00 
1.045440000000e+07 1.000021223286e+00 
1.047600000000e+07 1.000020887833e+00 
1.049760000000e+07 1.000020556729e+00 
1.051920000000e+07 1.000020229964e+00 
1.054080000000e+07 1.000019907524e+00 
1.056240000000e+07 1.000019589394e+00 
1.058400000000e+07 1.000019275555e+00 
1.060560000000e+07 1.000018965987e+00 
1.062720000000e+07 1.000018660668e+00 
1.064880000000e+07 1.000018359575e+00 
1.067040000000e+07 1.000018062681e+00 
1.069200000000e+07 1.000017769959e+00 
1.071360000000e+07 1.000017481379e+00 
1.073520000000e+07 1.000017196913e+00 
1.075680000000e+07 1.000016916527e+00 
1.077840000000e+07 1.000016640189e+00 
1.080000000000e+07 1.000016367866e+00 
