 TITLE = "Time curves in points"
 VARIABLES = "TIME "  "Tracer" 
 ZONE T="POINT=POINT8"
0.000000000000e+00 0.000000000000e+00 
2.160000000000e+04 7.673771797414e-17 
4.320000000000e+04 3.278242801134e-15 
6.480000000000e+04 3.803330664730e-14 
8.640000000000e+04 2.736838610245e-13 
1.080000000000e+05 1.491934168104e-12 
1.296000000000e+05 6.635384263323e-12 
1.512000000000e+05 2.514218207149e-11 
1.728000000000e+05 8.356485565770e-11 
1.944000000000e+05 2.487029683698e-10 
2.160000000000e+05 6.734145117600e-10 
2.376000000000e+05 1.679713627075e-09 
2.592000000000e+05 3.898514485696e-09 
2.808000000000e+05 8.489063026640e-09 
3.024000000000e+05 1.746281022262e-08 
3.240000000000e+05 3.413515703285e-08 
3.456000000000e+05 6.372327716395e-08 
3.672000000000e+05 1.140994221098e-07 
3.888000000000e+05 1.966967621486e-07 
4.104000000000e+05 3.275505642834e-07 
4.320000000000e+05 5.284425212855e-07 
4.536000000000e+05 8.281022289230e-07 
4.752000000000e+05 1.263408972477e-06 
4.968000000000e+05 1.880529997601e-06 
5.184000000000e+05 2.735929817820e-06 
5.400000000000e+05 3.897188450911e-06 
5.616000000000e+05 5.443575287023e-06 
5.832000000000e+05 7.466338364912e-06 
6.048000000000e+05 1.006868543423e-05 
6.264000000000e+05 1.336545240136e-05 
6.480000000000e+05 1.748247482510e-05 
6.696000000000e+05 2.255569852945e-05 
6.912000000000e+05 2.873008485112e-05 
7.128000000000e+05 3.615838374283e-05 
7.344000000000e+05 4.499986342607e-05 
7.560000000000e+05 5.541909814917e-05 
7.776000000000e+05 6.758492556331e-05 
7.992000000000e+05 8.166969204956e-05 
8.208000000000e+05 9.784890831155e-05 
8.424000000000e+05 1.163014383493e-04 
8.640000000000e+05 1.372103427872e-04 
8.856000000000e+05 1.607644924198e-04 
9.072000000000e+05 1.871610597935e-04 
9.288000000000e+05 2.166089857521e-04 
9.504000000000e+05 2.493335040621e-04 
9.720000000000e+05 2.855817908756e-04 
9.936000000000e+05 3.256297865964e-04 
1.015200000000e+06 3.697902162916e-04 
1.036800000000e+06 4.184218111902e-04 
1.058400000000e+06 4.719397084272e-04 
1.080000000000e+06 5.308269795291e-04 
1.101600000000e+06 5.956472106340e-04 
1.123200000000e+06 6.670580298121e-04 
1.144800000000e+06 7.458254495389e-04 
1.166400000000e+06 8.328388663066e-04 
1.188000000000e+06 9.291265350168e-04 
1.209600000000e+06 1.035871313888e-03 
1.231200000000e+06 1.154426456885e-03 
1.252800000000e+06 1.286331215414e-03 
1.274400000000e+06 1.433326000072e-03 
1.296000000000e+06 1.597366846511e-03 
1.317600000000e+06 1.780638927687e-03 
1.339200000000e+06 1.985568857601e-03 
1.360800000000e+06 2.214835539526e-03 
1.382400000000e+06 2.471379324113e-03 
1.404000000000e+06 2.758409259815e-03 
1.425600000000e+06 3.079408239120e-03 
1.447200000000e+06 3.438135868935e-03 
1.468800000000e+06 3.838628921432e-03 
1.490400000000e+06 4.285199252191e-03 
1.512000000000e+06 4.782429105109e-03 
1.533600000000e+06 5.335163757357e-03 
1.555200000000e+06 5.948501492236e-03 
1.576800000000e+06 6.627780922390e-03 
1.598400000000e+06 7.378565719767e-03 
1.620000000000e+06 8.206626841595e-03 
1.641600000000e+06 9.117922372667e-03 
1.663200000000e+06 1.011857513325e-02 
1.684800000000e+06 1.121484822820e-02 
1.706400000000e+06 1.241311873616e-02 
1.728000000000e+06 1.371984975829e-02 
1.749600000000e+06 1.514156106224e-02 
1.771200000000e+06 1.668479857088e-02 
1.792800000000e+06 1.835610295482e-02 
1.814400000000e+06 2.016197759379e-02 
1.836000000000e+06 2.210885617510e-02 
1.857600000000e+06 2.420307019621e-02 
1.879200000000e+06 2.645081663514e-02 
1.900800000000e+06 2.885812604519e-02 
1.922400000000e+06 3.143083132129e-02 
1.944000000000e+06 3.417453737326e-02 
1.965600000000e+06 3.709459192691e-02 
1.987200000000e+06 4.019605765828e-02 
2.008800000000e+06 4.348368584855e-02 
2.030400000000e+06 4.696189172858e-02 
2.052000000000e+06 5.063473166208e-02 
2.073600000000e+06 5.450588229641e-02 
2.095200000000e+06 5.857862178902e-02 
2.116800000000e+06 6.285581319694e-02 
2.138400000000e+06 6.733989009598e-02 
2.160000000000e+06 7.203284447606e-02 
2.181600000000e+06 7.693621693947e-02 
2.203200000000e+06 8.205108920984e-02 
2.224800000000e+06 8.737807894155e-02 
2.246400000000e+06 9.291733680259e-02 
2.268000000000e+06 9.866854578763e-02 
2.289600000000e+06 1.046309227039e-01 
2.311200000000e+06 1.108032217591e-01 
2.332800000000e+06 1.171837401681e-01 
2.354400000000e+06 1.237703256856e-01 
2.376000000000e+06 1.305603859622e-01 
2.397600000000e+06 1.375508996129e-01 
2.419200000000e+06 1.447384288821e-01 
2.440800000000e+06 1.521191337821e-01 
2.462400000000e+06 1.596887875805e-01 
2.484000000000e+06 1.674427935069e-01 
2.505600000000e+06 1.753762025487e-01 
2.527200000000e+06 1.834837322066e-01 
2.548800000000e+06 1.917597860785e-01 
2.570400000000e+06 2.001984741439e-01 
2.592000000000e+06 2.087936336217e-01 
2.613600000000e+06 2.175388502799e-01 
2.635200000000e+06 2.264274800748e-01 
2.656800000000e+06 2.354526710071e-01 
2.678400000000e+06 2.446073850834e-01 
2.700000000000e+06 2.538844202770e-01 
2.721600000000e+06 2.632764323906e-01 
2.743200000000e+06 2.727759567249e-01 
2.764800000000e+06 2.823754294675e-01 
2.786400000000e+06 2.920672087200e-01 
2.808000000000e+06 3.018435950880e-01 
2.829600000000e+06 3.116968517672e-01 
2.851200000000e+06 3.216192240620e-01 
2.872800000000e+06 3.316029582819e-01 
2.894400000000e+06 3.416403199667e-01 
2.916000000000e+06 3.517236113969e-01 
2.937600000000e+06 3.618451883517e-01 
2.959200000000e+06 3.719974760854e-01 
2.980800000000e+06 3.821729844935e-01 
3.002400000000e+06 3.923643224512e-01 
3.024000000000e+06 4.025642113066e-01 
3.045600000000e+06 4.127654975206e-01 
3.067200000000e+06 4.229611644446e-01 
3.088800000000e+06 4.331443432383e-01 
3.110400000000e+06 4.433083229268e-01 
3.132000000000e+06 4.534465596048e-01 
3.153600000000e+06 4.635526847972e-01 
3.175200000000e+06 4.736205129888e-01 
3.196800000000e+06 4.836440483382e-01 
3.218400000000e+06 4.936174905948e-01 
3.240000000000e+06 5.035352402391e-01 
3.261600000000e+06 5.133919028673e-01 
3.283200000000e+06 5.231822928473e-01 
3.304800000000e+06 5.329014362686e-01 
3.326400000000e+06 5.425445732153e-01 
3.348000000000e+06 5.521071593895e-01 
3.369600000000e+06 5.615848671143e-01 
3.391200000000e+06 5.709735857448e-01 
3.412800000000e+06 5.802694215198e-01 
3.434400000000e+06 5.894686968816e-01 
3.456000000000e+06 5.985679492965e-01 
3.477600000000e+06 6.075639296054e-01 
3.499200000000e+06 6.164535999358e-01 
3.520800000000e+06 6.252341312043e-01 
3.542400000000e+06 6.339029002404e-01 
3.564000000000e+06 6.424574865596e-01 
3.585600000000e+06 6.508956688156e-01 
3.607200000000e+06 6.592154209596e-01 
3.628800000000e+06 6.674149081325e-01 
3.650400000000e+06 6.754924823184e-01 
3.672000000000e+06 6.834466777842e-01 
3.693600000000e+06 6.912762063296e-01 
3.715200000000e+06 6.989799523722e-01 
3.736800000000e+06 7.065569678898e-01 
3.758400000000e+06 7.140064672430e-01 
3.780000000000e+06 7.213278218969e-01 
3.801600000000e+06 7.285205550646e-01 
3.823200000000e+06 7.355843362881e-01 
3.844800000000e+06 7.425189759779e-01 
3.866400000000e+06 7.493244199250e-01 
3.888000000000e+06 7.560007438039e-01 
3.909600000000e+06 7.625481476790e-01 
3.931200000000e+06 7.689669505304e-01 
3.952800000000e+06 7.752575848104e-01 
3.974400000000e+06 7.814205910438e-01 
3.996000000000e+06 7.874566124825e-01 
4.017600000000e+06 7.933663898252e-01 
4.039200000000e+06 7.991507560104e-01 
4.060800000000e+06 8.048106310929e-01 
4.082400000000e+06 8.103470172096e-01 
4.104000000000e+06 8.157609936439e-01 
4.125600000000e+06 8.210537119920e-01 
4.147200000000e+06 8.262263914396e-01 
4.168800000000e+06 8.312803141518e-01 
4.190400000000e+06 8.362168207810e-01 
4.212000000000e+06 8.410373060967e-01 
4.233600000000e+06 8.457432147402e-01 
4.255200000000e+06 8.503360371055e-01 
4.276800000000e+06 8.548173053506e-01 
4.298400000000e+06 8.591885895385e-01 
4.320000000000e+06 8.634514939101e-01 
4.341600000000e+06 8.676076532892e-01 
4.363200000000e+06 8.716587296202e-01 
4.384800000000e+06 8.756064086374e-01 
4.406400000000e+06 8.794523966673e-01 
4.428000000000e+06 8.831984175600e-01 
4.449600000000e+06 8.868462097526e-01 
4.471200000000e+06 8.903975234587e-01 
4.492800000000e+06 8.938541179873e-01 
4.514400000000e+06 8.972177591840e-01 
4.536000000000e+06 9.004902169978e-01 
4.557600000000e+06 9.036732631667e-01 
4.579200000000e+06 9.067686690227e-01 
4.600800000000e+06 9.097782034125e-01 
4.622400000000e+06 9.127036307316e-01 
4.644000000000e+06 9.155467090685e-01 
4.665600000000e+06 9.183091884574e-01 
4.687200000000e+06 9.209928092348e-01 
4.708800000000e+06 9.235993004990e-01 
4.730400000000e+06 9.261303786674e-01 
4.752000000000e+06 9.285877461308e-01 
4.773600000000e+06 9.309730899990e-01 
4.795200000000e+06 9.332880809376e-01 
4.816800000000e+06 9.355343720899e-01 
4.838400000000e+06 9.377135980836e-01 
4.860000000000e+06 9.398273741170e-01 
4.881600000000e+06 9.418772951224e-01 
4.903200000000e+06 9.438649350048e-01 
4.924800000000e+06 9.457918459506e-01 
4.946400000000e+06 9.476595578058e-01 
4.968000000000e+06 9.494695775183e-01 
4.989600000000e+06 9.512233886442e-01 
5.011200000000e+06 9.529224509124e-01 
5.032800000000e+06 9.545681998468e-01 
5.054400000000e+06 9.561620464427e-01 
5.076000000000e+06 9.577053768945e-01 
5.097600000000e+06 9.591995523723e-01 
5.119200000000e+06 9.606459088454e-01 
5.140800000000e+06 9.620457569490e-01 
5.162400000000e+06 9.634003818931e-01 
5.184000000000e+06 9.647110434104e-01 
5.205600000000e+06 9.659789757411e-01 
5.227200000000e+06 9.672053876527e-01 
5.248800000000e+06 9.683914624925e-01 
5.270400000000e+06 9.695383582706e-01 
5.292000000000e+06 9.706472077717e-01 
5.313600000000e+06 9.717191186936e-01 
5.335200000000e+06 9.727551738112e-01 
5.356800000000e+06 9.737564311627e-01 
5.378400000000e+06 9.747239242585e-01 
5.400000000000e+06 9.756586623089e-01 
5.421600000000e+06 9.765616304713e-01 
5.443200000000e+06 9.774337901131e-01 
5.464800000000e+06 9.782760790909e-01 
5.486400000000e+06 9.790894120436e-01 
5.508000000000e+06 9.798746806977e-01 
5.529600000000e+06 9.806327541851e-01 
5.551200000000e+06 9.813644793707e-01 
5.572800000000e+06 9.820706811889e-01 
5.594400000000e+06 9.827521629891e-01 
5.616000000000e+06 9.834097068878e-01 
5.637600000000e+06 9.840440741270e-01 
5.659200000000e+06 9.846560054377e-01 
5.680800000000e+06 9.852462214086e-01 
5.702400000000e+06 9.858154228570e-01 
5.724000000000e+06 9.863642912041e-01 
5.745600000000e+06 9.868934888513e-01 
5.767200000000e+06 9.874036595585e-01 
5.788800000000e+06 9.878954288229e-01 
5.810400000000e+06 9.883694042582e-01 
5.832000000000e+06 9.888261759734e-01 
5.853600000000e+06 9.892663169506e-01 
5.875200000000e+06 9.896903834216e-01 
5.896800000000e+06 9.900989152428e-01 
5.918400000000e+06 9.904924362671e-01 
5.940000000000e+06 9.908714547144e-01 
5.961600000000e+06 9.912364635381e-01 
5.983200000000e+06 9.915879407884e-01 
6.004800000000e+06 9.919263499727e-01 
6.026400000000e+06 9.922521404111e-01 
6.048000000000e+06 9.925657475886e-01 
6.069600000000e+06 9.928675935020e-01 
6.091200000000e+06 9.931580870033e-01 
6.112800000000e+06 9.934376241371e-01 
6.134400000000e+06 9.937065884742e-01 
6.156000000000e+06 9.939653514390e-01 
6.177600000000e+06 9.942142726326e-01 
6.199200000000e+06 9.944537001498e-01 
6.220800000000e+06 9.946839708910e-01 
6.242400000000e+06 9.949054108688e-01 
6.264000000000e+06 9.951183355084e-01 
6.285600000000e+06 9.953230499426e-01 
6.307200000000e+06 9.955198493014e-01 
6.328800000000e+06 9.957090189951e-01 
6.350400000000e+06 9.958908349927e-01 
6.372000000000e+06 9.960655640933e-01 
6.393600000000e+06 9.962334641929e-01 
6.415200000000e+06 9.963947845443e-01 
6.436800000000e+06 9.965497660124e-01 
6.458400000000e+06 9.966986413226e-01 
6.480000000000e+06 9.968416353047e-01 
6.501600000000e+06 9.969789651300e-01 
6.523200000000e+06 9.971108405433e-01 
6.544800000000e+06 9.972374640899e-01 
6.566400000000e+06 9.973590313357e-01 
6.588000000000e+06 9.974757310835e-01 
6.609600000000e+06 9.975877455822e-01 
6.631200000000e+06 9.976952507323e-01 
6.652800000000e+06 9.977984162846e-01 
6.674400000000e+06 9.978974060354e-01 
6.696000000000e+06 9.979923780148e-01 
6.717600000000e+06 9.980834846714e-01 
6.739200000000e+06 9.981708730513e-01 
6.760800000000e+06 9.982546849726e-01 
6.782400000000e+06 9.983350571947e-01 
6.804000000000e+06 9.984121215834e-01 
6.825600000000e+06 9.984860052711e-01 
6.847200000000e+06 9.985568308126e-01 
6.868800000000e+06 9.986247163363e-01 
6.890400000000e+06 9.986897756911e-01 
6.912000000000e+06 9.987521185897e-01 
6.933600000000e+06 9.988118507463e-01 
6.955200000000e+06 9.988690740117e-01 
6.976800000000e+06 9.989238865039e-01 
6.998400000000e+06 9.989763827342e-01 
7.020000000000e+06 9.990266537304e-01 
7.041600000000e+06 9.990747871559e-01 
7.063200000000e+06 9.991208674252e-01 
7.084800000000e+06 9.991649758157e-01 
7.106400000000e+06 9.992071905762e-01 
7.128000000000e+06 9.992475870322e-01 
7.149600000000e+06 9.992862376878e-01 
7.171200000000e+06 9.993232123239e-01 
7.192800000000e+06 9.993585780943e-01 
7.214400000000e+06 9.993923996179e-01 
7.236000000000e+06 9.994247390683e-01 
7.257600000000e+06 9.994556562604e-01 
7.279200000000e+06 9.994852087345e-01 
7.300800000000e+06 9.995134518371e-01 
7.322400000000e+06 9.995404387997e-01 
7.344000000000e+06 9.995662208147e-01 
7.365600000000e+06 9.995908471087e-01 
7.387200000000e+06 9.996143650136e-01 
7.408800000000e+06 9.996368200352e-01 
7.430400000000e+06 9.996582559195e-01 
7.452000000000e+06 9.996787147171e-01 
7.473600000000e+06 9.996982368447e-01 
7.495200000000e+06 9.997168611455e-01 
7.516800000000e+06 9.997346249466e-01 
7.538400000000e+06 9.997515641150e-01 
7.560000000000e+06 9.997677131117e-01 
7.581600000000e+06 9.997831050438e-01 
7.603200000000e+06 9.997977717143e-01 
7.624800000000e+06 9.998117436716e-01 
7.646400000000e+06 9.998250502553e-01 
7.668000000000e+06 9.998377196422e-01 
7.689600000000e+06 9.998497788897e-01 
7.711200000000e+06 9.998612539779e-01 
7.732800000000e+06 9.998721698502e-01 
7.754400000000e+06 9.998825504527e-01 
7.776000000000e+06 9.998924187717e-01 
7.797600000000e+06 9.999017968704e-01 
7.819200000000e+06 9.999107059238e-01 
7.840800000000e+06 9.999191662530e-01 
7.862400000000e+06 9.999271973575e-01 
7.884000000000e+06 9.999348179469e-01 
7.905600000000e+06 9.999420459711e-01 
7.927200000000e+06 9.999488986497e-01 
7.948800000000e+06 9.999553925001e-01 
7.970400000000e+06 9.999615433649e-01 
7.992000000000e+06 9.999673664376e-01 
8.013600000000e+06 9.999728762883e-01 
8.035200000000e+06 9.999780868877e-01 
8.056800000000e+06 9.999830116305e-01 
8.078400000000e+06 9.999876633580e-01 
8.100000000000e+06 9.999920543800e-01 
8.121600000000e+06 9.999961964950e-01 
8.143200000000e+06 1.000000101011e+00 
8.164800000000e+06 1.000003778765e+00 
8.186400000000e+06 1.000007240141e+00 
8.208000000000e+06 1.000010495087e+00 
8.229600000000e+06 1.000013553134e+00 
8.251200000000e+06 1.000016423414e+00 
8.272800000000e+06 1.000019114672e+00 
8.294400000000e+06 1.000021635283e+00 
8.316000000000e+06 1.000023993268e+00 
8.337600000000e+06 1.000026196308e+00 
8.359200000000e+06 1.000028251755e+00 
8.380800000000e+06 1.000030166648e+00 
8.402400000000e+06 1.000031947727e+00 
8.424000000000e+06 1.000033601439e+00 
8.445600000000e+06 1.000035133958e+00 
8.467200000000e+06 1.000036551188e+00 
8.488800000000e+06 1.000037858780e+00 
8.510400000000e+06 1.000039062140e+00 
8.532000000000e+06 1.000040166438e+00 
8.553600000000e+06 1.000041176620e+00 
8.575200000000e+06 1.000042097415e+00 
8.596800000000e+06 1.000042933345e+00 
8.618400000000e+06 1.000043688734e+00 
8.640000000000e+06 1.000044367714e+00 
8.661600000000e+06 1.000044974235e+00 
8.683200000000e+06 1.000045512074e+00 
8.704800000000e+06 1.000045984836e+00 
8.726400000000e+06 1.000046395968e+00 
8.748000000000e+06 1.000046748764e+00 
8.769600000000e+06 1.000047046366e+00 
8.791200000000e+06 1.000047291778e+00 
8.812800000000e+06 1.000047487866e+00 
8.834400000000e+06 1.000047637369e+00 
8.856000000000e+06 1.000047742898e+00 
8.877600000000e+06 1.000047806947e+00 
8.899200000000e+06 1.000047831895e+00 
8.920800000000e+06 1.000047820011e+00 
8.942400000000e+06 1.000047773461e+00 
8.964000000000e+06 1.000047694308e+00 
8.985600000000e+06 1.000047584521e+00 
9.007200000000e+06 1.000047445977e+00 
9.028800000000e+06 1.000047280463e+00 
9.050400000000e+06 1.000047089684e+00 
9.072000000000e+06 1.000046875264e+00 
9.093600000000e+06 1.000046638747e+00 
9.115200000000e+06 1.000046381607e+00 
9.136800000000e+06 1.000046105246e+00 
9.158400000000e+06 1.000045810996e+00 
9.180000000000e+06 1.000045500127e+00 
9.201600000000e+06 1.000045173847e+00 
9.223200000000e+06 1.000044833304e+00 
9.244800000000e+06 1.000044479589e+00 
9.266400000000e+06 1.000044113741e+00 
9.288000000000e+06 1.000043736743e+00 
9.309600000000e+06 1.000043349534e+00 
9.331200000000e+06 1.000042953001e+00 
9.352800000000e+06 1.000042547989e+00 
9.374400000000e+06 1.000042135298e+00 
9.396000000000e+06 1.000041715688e+00 
9.417600000000e+06 1.000041289878e+00 
9.439200000000e+06 1.000040858551e+00 
9.460800000000e+06 1.000040422354e+00 
9.482400000000e+06 1.000039981897e+00 
9.504000000000e+06 1.000039537761e+00 
9.525600000000e+06 1.000039090492e+00 
9.547200000000e+06 1.000038640610e+00 
9.568800000000e+06 1.000038188604e+00 
9.590400000000e+06 1.000037734935e+00 
9.612000000000e+06 1.000037280041e+00 
9.633600000000e+06 1.000036824332e+00 
9.655200000000e+06 1.000036368197e+00 
9.676800000000e+06 1.000035912000e+00 
9.698400000000e+06 1.000035456087e+00 
9.720000000000e+06 1.000035000779e+00 
9.741600000000e+06 1.000034546381e+00 
9.763200000000e+06 1.000034093178e+00 
9.784800000000e+06 1.000033641438e+00 
9.806400000000e+06 1.000033191411e+00 
9.828000000000e+06 1.000032743332e+00 
9.849600000000e+06 1.000032297420e+00 
9.871200000000e+06 1.000031853880e+00 
9.892800000000e+06 1.000031412902e+00 
9.914400000000e+06 1.000030974664e+00 
9.936000000000e+06 1.000030539332e+00 
9.957600000000e+06 1.000030107058e+00 
9.979200000000e+06 1.000029677984e+00 
1.000080000000e+07 1.000029252241e+00 
1.002240000000e+07 1.000028829949e+00 
1.004400000000e+07 1.000028411221e+00 
1.006560000000e+07 1.000027996157e+00 
1.008720000000e+07 1.000027584851e+00 
1.010880000000e+07 1.000027177387e+00 
1.013040000000e+07 1.000026773842e+00 
1.015200000000e+07 1.000026374286e+00 
1.017360000000e+07 1.000025978779e+00 
1.019520000000e+07 1.000025587379e+00 
1.021680000000e+07 1.000025200134e+00 
1.023840000000e+07 1.000024817087e+00 
1.026000000000e+07 1.000024438276e+00 
1.028160000000e+07 1.000024063732e+00 
1.030320000000e+07 1.000023693482e+00 
1.032480000000e+07 1.000023327549e+00 
1.034640000000e+07 1.000022965950e+00 
1.036800000000e+07 1.000022608697e+00 
1.038960000000e+07 1.000022255801e+00 
1.041120000000e+07 1.000021907267e+00 
1.043280000000e+07 1.000021563095e+00 
1.045440000000e+07 1.000021223286e+00 
1.047600000000e+07 1.000020887833e+00 
1.049760000000e+07 1.000020556729e+00 
1.051920000000e+07 1.000020229964e+00 
1.054080000000e+07 1.000019907524e+00 
1.056240000000e+07 1.000019589394e+00 
1.058400000000e+07 1.000019275555e+00 
1.060560000000e+07 1.000018965987e+00 
1.062720000000e+07 1.000018660669e+00 
1.064880000000e+07 1.000018359575e+00 
1.067040000000e+07 1.000018062681e+00 
1.069200000000e+07 1.000017769959e+00 
1.071360000000e+07 1.000017481379e+00 
1.073520000000e+07 1.000017196913e+00 
1.075680000000e+07 1.000016916527e+00 
1.077840000000e+07 1.000016640189e+00 
1.080000000000e+07 1.000016367866e+00 
