 TITLE = "Profiles along polylines"
 VARIABLES = "DIST" "PRESSURE1" "PRESSURE2" "PRESSURE_W" "SATURATION1" SATURATION2 "VELOCITY_X1" "VELOCITY_Y1" "VELOCITY_X2" "VELOCITY_Y2" 
 ZONE T="TIME=0.000000000000e+00"
0.000000000000e+00 0.000000000000e+00 1.013250000000e+05 1.013250000000e+05 1.000000000000e+00 1.110223024625e-16 0.000000000000e+00 0.000000000000e+00 0.000000000000e+00 0.000000000000e+00 
3.333333333333e-02 0.000000000000e+00 1.013250000000e+05 1.013250000000e+05 1.000000000000e+00 2.220446049250e-16 0.000000000000e+00 0.000000000000e+00 0.000000000000e+00 0.000000000000e+00 
6.666666666667e-02 0.000000000000e+00 1.013250000000e+05 1.013250000000e+05 1.000000000000e+00 2.220446049250e-16 0.000000000000e+00 0.000000000000e+00 0.000000000000e+00 0.000000000000e+00 
1.000000000000e-01 0.000000000000e+00 1.013250000000e+05 1.013250000000e+05 1.000000000000e+00 2.220446049250e-16 0.000000000000e+00 0.000000000000e+00 0.000000000000e+00 0.000000000000e+00 
1.333333333333e-01 0.000000000000e+00 1.013250000000e+05 1.013250000000e+05 1.000000000000e+00 2.220446049250e-16 0.000000000000e+00 0.000000000000e+00 0.000000000000e+00 0.000000000000e+00 
1.666666666667e-01 0.000000000000e+00 1.013250000000e+05 1.013250000000e+05 1.000000000000e+00 2.220446049250e-16 0.000000000000e+00 0.000000000000e+00 0.000000000000e+00 0.000000000000e+00 
2.000000000000e-01 0.000000000000e+00 1.013250000000e+05 1.013250000000e+05 1.000000000000e+00 2.220446049250e-16 0.000000000000e+00 0.000000000000e+00 0.000000000000e+00 0.000000000000e+00 
2.333333333333e-01 0.000000000000e+00 1.013250000000e+05 1.013250000000e+05 1.000000000000e+00 2.220446049250e-16 0.000000000000e+00 0.000000000000e+00 0.000000000000e+00 0.000000000000e+00 
2.666666666667e-01 0.000000000000e+00 1.013250000000e+05 1.013250000000e+05 1.000000000000e+00 2.220446049250e-16 0.000000000000e+00 0.000000000000e+00 0.000000000000e+00 0.000000000000e+00 
3.000000000000e-01 0.000000000000e+00 1.013250000000e+05 1.013250000000e+05 1.000000000000e+00 2.220446049250e-16 0.000000000000e+00 0.000000000000e+00 0.000000000000e+00 0.000000000000e+00 
3.333333333333e-01 0.000000000000e+00 1.013250000000e+05 1.013250000000e+05 1.000000000000e+00 2.220446049250e-16 0.000000000000e+00 0.000000000000e+00 0.000000000000e+00 0.000000000000e+00 
3.666666666667e-01 0.000000000000e+00 1.013250000000e+05 1.013250000000e+05 1.000000000000e+00 2.220446049250e-16 0.000000000000e+00 0.000000000000e+00 0.000000000000e+00 0.000000000000e+00 
4.000000000000e-01 0.000000000000e+00 1.013250000000e+05 1.013250000000e+05 1.000000000000e+00 2.220446049250e-16 0.000000000000e+00 0.000000000000e+00 0.000000000000e+00 0.000000000000e+00 
4.333333333333e-01 0.000000000000e+00 1.013250000000e+05 1.013250000000e+05 1.000000000000e+00 2.220446049250e-16 0.000000000000e+00 0.000000000000e+00 0.000000000000e+00 0.000000000000e+00 
4.666666666667e-01 0.000000000000e+00 1.013250000000e+05 1.013250000000e+05 1.000000000000e+00 2.220446049250e-16 0.000000000000e+00 0.000000000000e+00 0.000000000000e+00 0.000000000000e+00 
5.000000000000e-01 0.000000000000e+00 1.013250000000e+05 1.013250000000e+05 1.000000000000e+00 2.220446049250e-16 0.000000000000e+00 0.000000000000e+00 0.000000000000e+00 0.000000000000e+00 
5.333333333333e-01 0.000000000000e+00 1.013250000000e+05 1.013250000000e+05 1.000000000000e+00 2.220446049250e-16 0.000000000000e+00 0.000000000000e+00 0.000000000000e+00 0.000000000000e+00 
5.666666666667e-01 0.000000000000e+00 1.013250000000e+05 1.013250000000e+05 1.000000000000e+00 2.220446049250e-16 0.000000000000e+00 0.000000000000e+00 0.000000000000e+00 0.000000000000e+00 
6.000000000000e-01 0.000000000000e+00 1.013250000000e+05 1.013250000000e+05 1.000000000000e+00 2.220446049250e-16 0.000000000000e+00 0.000000000000e+00 0.000000000000e+00 0.000000000000e+00 
6.333333333333e-01 0.000000000000e+00 1.013250000000e+05 1.013250000000e+05 1.000000000000e+00 2.220446049250e-16 0.000000000000e+00 0.000000000000e+00 0.000000000000e+00 0.000000000000e+00 
6.666666666667e-01 0.000000000000e+00 1.013250000000e+05 1.013250000000e+05 1.000000000000e+00 2.220446049250e-16 0.000000000000e+00 0.000000000000e+00 0.000000000000e+00 0.000000000000e+00 
7.000000000000e-01 0.000000000000e+00 1.013250000000e+05 1.013250000000e+05 1.000000000000e+00 2.220446049250e-16 0.000000000000e+00 0.000000000000e+00 0.000000000000e+00 0.000000000000e+00 
7.333333333333e-01 0.000000000000e+00 1.013250000000e+05 1.013250000000e+05 1.000000000000e+00 2.220446049250e-16 0.000000000000e+00 0.000000000000e+00 0.000000000000e+00 0.000000000000e+00 
7.666666666667e-01 0.000000000000e+00 1.013250000000e+05 1.013250000000e+05 1.000000000000e+00 2.220446049250e-16 0.000000000000e+00 0.000000000000e+00 0.000000000000e+00 0.000000000000e+00 
8.000000000000e-01 0.000000000000e+00 1.013250000000e+05 1.013250000000e+05 1.000000000000e+00 2.220446049250e-16 0.000000000000e+00 0.000000000000e+00 0.000000000000e+00 0.000000000000e+00 
8.333333333333e-01 0.000000000000e+00 1.013250000000e+05 1.013250000000e+05 1.000000000000e+00 2.220446049250e-16 0.000000000000e+00 0.000000000000e+00 0.000000000000e+00 0.000000000000e+00 
8.666666666667e-01 0.000000000000e+00 1.013250000000e+05 1.013250000000e+05 1.000000000000e+00 2.220446049250e-16 0.000000000000e+00 0.000000000000e+00 0.000000000000e+00 0.000000000000e+00 
9.000000000000e-01 0.000000000000e+00 1.013250000000e+05 1.013250000000e+05 1.000000000000e+00 2.220446049250e-16 0.000000000000e+00 0.000000000000e+00 0.000000000000e+00 0.000000000000e+00 
9.333333333333e-01 0.000000000000e+00 1.013250000000e+05 1.013250000000e+05 1.000000000000e+00 2.220446049250e-16 0.000000000000e+00 0.000000000000e+00 0.000000000000e+00 0.000000000000e+00 
9.666666666667e-01 0.000000000000e+00 1.013250000000e+05 1.013250000000e+05 1.000000000000e+00 2.220446049250e-16 0.000000000000e+00 0.000000000000e+00 0.000000000000e+00 0.000000000000e+00 
1.000000000000e+00 0.000000000000e+00 1.013250000000e+05 1.013250000000e+05 1.000000000000e+00 2.220446049250e-16 0.000000000000e+00 0.000000000000e+00 0.000000000000e+00 0.000000000000e+00 
 TITLE = "Profiles along polylines"
 VARIABLES = "DIST" "PRESSURE1" "PRESSURE2" "PRESSURE_W" "SATURATION1" SATURATION2 "VELOCITY_X1" "VELOCITY_Y1" "VELOCITY_X2" "VELOCITY_Y2" 
 ZONE T="TIME=1.000000000000e-03"
0.000000000000e+00 0.000000000000e+00 1.013250000000e+05 1.013250000000e+05 1.000000000000e+00 0.000000000000e+00 8.770228663641e-18 1.333745789090e-17 3.858680968006e-23 8.749420231550e-23 
3.333333333333e-02 2.019367675955e-07 1.013204137585e+05 1.013204137583e+05 9.999999999999e-01 7.638334409421e-14 3.154165465867e-15 3.202211384276e-15 2.352682204098e-20 2.442449127474e-20 
6.666666666667e-02 2.014936748894e-07 1.013158275159e+05 1.013158275157e+05 9.999999999999e-01 7.605027718682e-14 3.533498641815e-15 3.883089299933e-15 2.530054446444e-20 2.963216585954e-20 
1.000000000000e-01 2.006195079287e-07 1.013112412724e+05 1.013112412722e+05 9.999999999999e-01 7.593925488436e-14 3.792328041653e-15 4.501981735330e-15 2.571734434619e-20 3.321809189694e-20 
1.333333333333e-01 1.990391470006e-07 1.013066550279e+05 1.013066550277e+05 9.999999999999e-01 7.549516567451e-14 5.169717985079e-15 5.896793668148e-15 3.529011316366e-20 4.314555484214e-20 
1.666666666667e-01 1.969417688605e-07 1.013020687826e+05 1.013020687824e+05 9.999999999999e-01 7.449596495235e-14 7.401535369134e-15 7.921002266505e-15 5.219138037895e-20 5.865676858763e-20 
2.000000000000e-01 1.960186305943e-07 1.012974825363e+05 1.012974825362e+05 9.999999999999e-01 7.427392034742e-14 8.257020898319e-15 8.905835517236e-15 5.838330347393e-20 6.618669435107e-20 
2.333333333333e-01 1.969298957598e-07 1.012928962892e+05 1.012928962890e+05 9.999999999999e-01 7.460698725481e-14 6.583293324492e-15 7.824688364374e-15 4.459213141989e-20 5.723717405119e-20 
2.666666666667e-01 1.977533525760e-07 1.012883100412e+05 1.012883100410e+05 9.999999999999e-01 7.494005416220e-14 4.997899939678e-15 6.590117130637e-15 3.104658570559e-20 4.689782288249e-20 
3.000000000000e-01 1.964971244449e-07 1.012837237923e+05 1.012837237921e+05 9.999999999999e-01 7.438494264989e-14 6.403016415167e-15 7.539043273773e-15 4.204247379248e-20 5.389201423744e-20 
3.333333333333e-01 1.947114347456e-07 1.012791375425e+05 1.012791375423e+05 9.999999999999e-01 7.371880883511e-14 9.047447031636e-15 9.464511814073e-15 6.366074459632e-20 6.940993482840e-20 
3.666666666667e-01 1.958315128929e-07 1.012745512918e+05 1.012745512916e+05 9.999999999999e-01 7.394085344004e-14 8.117012440019e-15 8.652904918308e-15 5.730039980512e-20 6.375709700426e-20 
4.000000000000e-01 1.993622539958e-07 1.012699650403e+05 1.012699650401e+05 9.999999999999e-01 7.549516567451e-14 3.808240180555e-15 5.123257927029e-15 2.345752627663e-20 3.645104778336e-20 
4.333333333333e-01 2.006785193465e-07 1.012653787878e+05 1.012653787876e+05 9.999999999999e-01 7.593925488436e-14 1.957775999115e-15 3.470434286850e-15 8.685418077357e-21 2.318514088338e-20 
4.666666666667e-01 1.985032054765e-07 1.012607925344e+05 1.012607925342e+05 9.999999999999e-01 7.527312106959e-14 4.852157477257e-15 5.422849052716e-15 3.239326258044e-20 3.845738022350e-20 
5.000000000000e-01 1.976449879329e-07 1.012562062801e+05 1.012562062799e+05 9.999999999999e-01 7.505107646466e-14 6.689988742164e-15 6.545709580651e-15 4.823214638375e-20 4.820777671445e-20 
5.333333333333e-01 2.009569170015e-07 1.012516200250e+05 1.012516200248e+05 9.999999999999e-01 7.593925488436e-14 3.394824865884e-15 3.692185359852e-15 2.351002714470e-20 2.695376211580e-20 
5.666666666667e-01 2.041744398106e-07 1.012470337689e+05 1.012470337687e+05 9.999999999999e-01 7.727152251391e-14 -2.714025889017e-16 6.469713458909e-16 -5.232489767414e-21 3.502960425517e-21 
6.000000000000e-01 2.033361196171e-07 1.012424475118e+05 1.012424475116e+05 9.999999999999e-01 7.704947790899e-14 6.319104370069e-16 1.229185299372e-15 2.141312742994e-21 7.796305651872e-21 
6.333333333333e-01 2.014671271023e-07 1.012378612538e+05 1.012378612536e+05 9.999999999999e-01 7.638334409421e-14 3.010930920635e-15 2.932507654310e-15 2.155719488185e-20 2.116632393287e-20 
6.666666666667e-01 2.026403747926e-07 1.012332749949e+05 1.012332749947e+05 9.999999999999e-01 7.682743330406e-14 2.251475697160e-15 2.109406367914e-15 1.637734386015e-20 1.534665770522e-20 
7.000000000000e-01 2.050980194131e-07 1.012286887351e+05 1.012286887349e+05 9.999999999999e-01 7.771561172376e-14 -1.225954010859e-16 8.676313815710e-17 -1.812580511357e-21 3.477866252813e-22 
7.333333333333e-01 2.054174258067e-07 1.012241024743e+05 1.012241024741e+05 9.999999999999e-01 7.793765632869e-14 -4.434249913696e-16 -1.205339874568e-16 -3.993527147704e-21 -1.524446143007e-21 
7.666666666667e-01 2.043777331264e-07 1.012195162126e+05 1.012195162124e+05 9.999999999999e-01 7.738254481637e-14 1.161595287472e-15 1.143127288739e-15 7.820686187606e-21 7.968572650396e-21 
8.000000000000e-01 2.043702528798e-07 1.012149299499e+05 1.012149299497e+05 9.999999999999e-01 7.749356711884e-14 4.314716881943e-15 4.247245967628e-15 2.921685251577e-20 2.868686018232e-20 
8.333333333333e-01 2.051946428678e-07 1.012103436863e+05 1.012103436861e+05 9.999999999999e-01 7.760458942130e-14 2.322488795044e-14 2.321998064368e-14 1.551452223165e-19 1.550923083940e-19 
8.666666666667e-01 2.061951374617e-07 1.012057574219e+05 1.012057574217e+05 9.999999999999e-01 7.815970093361e-14 1.509825265190e-13 1.510118152594e-13 1.008857736590e-18 1.009160632198e-18 
9.000000000000e-01 6.763333855141e-07 1.012011711584e+05 1.012011711578e+05 9.999999999997e-01 2.562394740835e-13 9.952711466026e-13 9.953063101078e-13 6.650954555655e-18 6.651105738344e-18 
9.333333333333e-01 3.158509760345e-04 1.011965852154e+05 1.011965848995e+05 9.999999998803e-01 1.197107968309e-10 6.583962026056e-12 6.584022362282e-12 4.403044186058e-17 4.403099664562e-17 
9.666666666667e-01 2.099348235218e-01 1.011922071960e+05 1.011919972612e+05 9.999999204326e-01 7.956739733750e-08 4.366927851675e-11 4.366935444152e-11 3.938631389336e-16 3.938634639317e-16 
1.000000000000e+00 1.385467019237e+02 1.013250000000e+05 1.011864532981e+05 9.999474894145e-01 5.251058549605e-05 3.414377563535e-12 3.414394533370e-12 8.594286903463e-20 8.621345798685e-20 
 TITLE = "Profiles along polylines"
 VARIABLES = "DIST" "PRESSURE1" "PRESSURE2" "PRESSURE_W" "SATURATION1" SATURATION2 "VELOCITY_X1" "VELOCITY_Y1" "VELOCITY_X2" "VELOCITY_Y2" 
 ZONE T="TIME=5.000000000000e+00"
0.000000000000e+00 0.000000000000e+00 1.013250000000e+05 1.013250000000e+05 1.000000000000e+00 3.330669073875e-16 2.331244102825e-18 1.207119707450e-17 -2.211068528122e-23 1.247266194881e-22 
3.333333333333e-02 1.527198556430e+00 1.010442299947e+05 1.010427027962e+05 9.999994211765e-01 5.788235246662e-07 7.462100487003e-17 1.613694461236e-16 -3.715238525421e-20 -6.987979787066e-21 
6.666666666667e-02 2.500708880101e+00 1.007629050976e+05 1.007604043887e+05 9.999990522063e-01 9.477936725455e-07 -3.556391056411e-18 1.241496430017e-16 -2.220185719509e-19 -1.059736175639e-19 
1.000000000000e-01 3.099741146690e+00 1.004812034848e+05 1.004781037437e+05 9.999988251671e-01 1.174832892081e-06 3.119013916423e-18 2.704329386993e-16 -2.988509065475e-19 -6.802639739341e-21 
1.333333333333e-01 3.457983543984e+00 1.001992580723e+05 1.001958000888e+05 9.999986893897e-01 1.310610343030e-06 8.826916462547e-17 4.743888004174e-16 -1.267028111590e-19 1.462047862370e-19 
1.666666666667e-01 3.668119732830e+00 9.991716100505e+04 9.991349288531e+04 9.999986097459e-01 1.390254059874e-06 -2.821038040342e-16 3.204132672008e-16 -8.716795202697e-20 2.052423574483e-20 
2.000000000000e-01 3.790653351766e+00 9.963497243084e+04 9.963118177749e+04 9.999985633045e-01 1.436695526880e-06 -3.294331162314e-16 9.671450337553e-17 -1.917482988060e-19 -2.511130023255e-19 
2.333333333333e-01 3.863235212642e+00 9.935272977413e+04 9.934886653892e+04 9.999985357952e-01 1.464204777757e-06 -1.338063439247e-16 6.007014018424e-16 -1.439983562494e-19 -1.368757698127e-19 
2.666666666667e-01 3.908538446532e+00 9.907045556637e+04 9.906654702792e+04 9.999985186248e-01 1.481375156542e-06 -4.815738444061e-16 1.119581512698e-15 -7.796376713339e-19 -1.778301288770e-19 
3.000000000000e-01 3.940182923621e+00 9.878816333689e+04 9.878422315397e+04 9.999985066313e-01 1.493368729788e-06 -5.838868946137e-16 1.037428119830e-15 -1.682949961413e-18 -1.463953752420e-18 
3.333333333333e-01 3.967030777767e+00 9.850586188427e+04 9.850189485349e+04 9.999984964557e-01 1.503544335146e-06 2.346646100558e-16 1.022477143400e-15 -1.341463819130e-18 -5.731863424866e-19 
3.666666666667e-01 3.996554047313e+00 9.822355862513e+04 9.821956207108e+04 9.999984852661e-01 1.514733949493e-06 7.546856071467e-16 8.793320638785e-16 3.812043108338e-19 5.563340067307e-19 
4.000000000000e-01 4.038237115193e+00 9.794126297774e+04 9.793722474063e+04 9.999984694678e-01 1.530532248939e-06 -3.785052499836e-16 -2.100991551267e-16 6.199996182389e-20 -8.225203071096e-19 
4.333333333333e-01 4.108348630373e+00 9.765899110795e+04 9.765488275932e+04 9.999984428948e-01 1.557105214545e-06 -5.833914056909e-16 -1.779644348523e-17 -2.389309533836e-18 -9.793978286942e-19 
4.666666666667e-01 4.238220956109e+00 9.737677416343e+04 9.737253594248e+04 9.999983936719e-01 1.606328124404e-06 1.112133897544e-15 1.304122648284e-15 -9.273882998967e-19 1.524445495140e-18 
5.000000000000e-01 4.489776803507e+00 9.709467371599e+04 9.709018393919e+04 9.999982983297e-01 1.701670305998e-06 1.866635885592e-15 1.742048988624e-15 1.181706763288e-18 3.300500705648e-18 
5.333333333333e-01 4.985020556360e+00 9.681281109266e+04 9.680782607211e+04 9.999981106274e-01 1.889372641228e-06 2.719729256386e-15 1.464403989336e-15 1.240468127666e-18 2.675536063900e-19 
5.666666666667e-01 5.961365429492e+00 9.653142240250e+04 9.652546103707e+04 9.999977405829e-01 2.259417111405e-06 2.936515012324e-15 -8.830068904554e-16 -2.056805282671e-18 -7.550158492203e-18 
6.000000000000e-01 7.873187277280e+00 9.625095953915e+04 9.624308635187e+04 9.999970159833e-01 2.984016710172e-06 2.854647543661e-15 -8.452494567174e-16 -1.148398381374e-18 -1.002327868065e-17 
6.333333333333e-01 1.157291633222e+01 9.597227029007e+04 9.596069737374e+04 9.999956137490e-01 4.386251018840e-06 -1.274200664263e-15 -1.869762802537e-15 -2.560349911437e-18 -1.080378491812e-17 
6.666666666667e-01 1.862227591701e+01 9.569690788776e+04 9.567828561184e+04 9.999929419712e-01 7.058028795415e-06 -4.897567378517e-15 -4.160436305903e-15 -5.386695722191e-18 -8.082156658499e-18 
7.000000000000e-01 3.180190716761e+01 9.542763787339e+04 9.539583596622e+04 9.999879467592e-01 1.205324083564e-05 -2.245681709490e-15 -1.188223175530e-15 1.779409023676e-19 8.835479230971e-19 
7.333333333333e-01 5.589181929874e+01 9.516921432360e+04 9.511332250430e+04 9.999788164416e-01 2.118355843228e-05 -2.966990031497e-17 -4.889342194047e-15 -1.964116798303e-18 1.250667793679e-17 
7.666666666667e-01 9.875073260358e+01 9.492945336325e+04 9.483070263065e+04 9.999625724848e-01 3.742751516400e-05 1.214646260838e-14 8.291241575129e-15 -2.223742042221e-17 1.347918437085e-17 
8.000000000000e-01 1.725551695892e+02 9.472046558899e+04 9.454791041940e+04 9.999345998652e-01 6.540013482592e-05 3.694517961086e-14 6.946793815738e-14 -9.366439113307e-17 -2.332191451234e-17 
8.333333333333e-01 2.946282168257e+02 9.455948043797e+04 9.426485222114e+04 9.998883329595e-01 1.116670404591e-04 2.069872735242e-13 2.193315313381e-13 -9.064761916052e-17 -7.405932657096e-17 
8.666666666667e-01 4.863500331307e+02 9.446776277749e+04 9.398141274436e+04 9.998156684739e-01 1.843315260570e-04 8.378782522471e-13 7.096632185534e-13 -1.692498694769e-16 -2.719970240826e-16 
9.000000000000e-01 7.667548821355e+02 9.446424491570e+04 9.369749003356e+04 9.997576264800e-01 2.423735200261e-04 2.537851804674e-12 2.119759194240e-12 -4.662628869565e-16 -9.451932832096e-16 
9.333333333333e-01 1.296814112490e+03 9.470902391354e+04 9.341220980105e+04 9.991523294809e-01 8.476705191350e-04 6.199970702604e-12 5.434265792315e-12 -2.110999574198e-15 -3.468295545969e-15 
9.666666666667e-01 2.557204059707e+03 9.568020534510e+04 9.312300128539e+04 1.000000000000e+00 0.000000000000e+00 6.922448874971e-12 6.427970449203e-12 -5.905256629244e-15 -1.119383955470e-14 
1.000000000000e+00 8.516634354313e+03 1.013250000000e+05 9.280836564569e+04 9.397166839988e-01 6.028331600119e-02 8.036088196670e-12 5.494526789153e-12 -5.781197577648e-17 -1.095908196311e-16 
 TITLE = "Profiles along polylines"
 VARIABLES = "DIST" "PRESSURE1" "PRESSURE2" "PRESSURE_W" "SATURATION1" SATURATION2 "VELOCITY_X1" "VELOCITY_Y1" "VELOCITY_X2" "VELOCITY_Y2" 
 ZONE T="TIME=1.000000000000e+01"
0.000000000000e+00 0.000000000000e+00 1.013250000000e+05 1.013250000000e+05 1.000000000000e+00 0.000000000000e+00 6.337705891771e-18 9.462015351116e-18 7.601363555742e-23 9.140504897669e-23 
3.333333333333e-02 2.631776134180e+00 1.010325988724e+05 1.010299670963e+05 9.999990025305e-01 9.974694729076e-07 -7.652108304868e-16 -7.921479295845e-16 1.511159363159e-20 3.299031969205e-20 
6.666666666667e-02 4.582632705190e+00 1.007395159717e+05 1.007349333390e+05 9.999982631364e-01 1.736863621371e-06 -9.143302510857e-16 -1.072190179904e-15 9.188421378049e-20 3.619777830551e-20 
1.000000000000e-01 5.998152141345e+00 1.004458960268e+05 1.004398978747e+05 9.999977266404e-01 2.273359642757e-06 -1.275776516021e-15 -1.540331969164e-15 7.389182956213e-20 -6.836299017549e-20 
1.333333333333e-01 7.006228651213e+00 1.001518661838e+05 1.001448599552e+05 9.999973445693e-01 2.655430721199e-06 -1.767476953434e-15 -2.022644900830e-15 7.764207345378e-20 -1.680986954361e-19 
1.666666666667e-01 7.714878880873e+00 9.985753382748e+04 9.984981894860e+04 9.999970759838e-01 2.924016244465e-06 -2.062419849703e-15 -2.233415476150e-15 2.288623658179e-19 -1.783829335411e-19 
2.000000000000e-01 8.212814533721e+00 9.956298714976e+04 9.955477433523e+04 9.999968872612e-01 3.112738836242e-06 -2.014462033102e-15 -2.204266882313e-15 4.964286216620e-19 -3.649896426107e-20 
2.333333333333e-01 8.572451750165e+00 9.926829814157e+04 9.925972568982e+04 9.999967509551e-01 3.249044937759e-06 -1.778449814352e-15 -1.965672924762e-15 3.300946310009e-19 -2.005595456276e-19 
2.666666666667e-01 8.855071768294e+00 9.897352772415e+04 9.896467265238e+04 9.999966438392e-01 3.356160750645e-06 -1.941530463347e-15 -2.010620517804e-15 -5.867159941982e-19 -4.647467447164e-19 
3.000000000000e-01 9.118188608098e+00 9.867873307568e+04 9.866961488707e+04 9.999965441153e-01 3.455884664216e-06 -2.134051592871e-15 -2.531683812980e-15 -9.922265960636e-19 -8.765599249062e-19 
3.333333333333e-01 9.425781893960e+00 9.838397780763e+04 9.837455202574e+04 9.999964275344e-01 3.572465595125e-06 -1.918439423199e-15 -2.646188589481e-15 -1.366019666343e-18 -1.561759065779e-18 
3.666666666667e-01 9.862901704787e+00 9.808934648971e+04 9.807948358800e+04 9.999962618616e-01 3.738138375065e-06 -1.341646467419e-15 -2.236802779867e-15 -1.207852950841e-18 -1.241916974082e-18 
4.000000000000e-01 1.055724222705e+01 9.779496610614e+04 9.778440886391e+04 9.999959986996e-01 4.001300376588e-06 -8.605819580383e-16 -2.156072881204e-15 4.818087966462e-19 -3.612661080433e-19 
4.333333333333e-01 1.171164039326e+01 9.750103837810e+04 9.748932673771e+04 9.999955611712e-01 4.438828825282e-06 -1.195182459123e-15 -2.275672310805e-15 1.279173511362e-18 -1.217418267177e-18 
4.666666666667e-01 1.365304707291e+01 9.720788847007e+04 9.719423542300e+04 9.999948253586e-01 5.174641370842e-06 -1.860999408551e-15 -2.599266206561e-15 9.506132778966e-19 -1.951845408333e-18 
5.000000000000e-01 1.690514328772e+01 9.691603721388e+04 9.689913207059e+04 9.999935927816e-01 6.407218357429e-06 -2.114975601616e-15 -4.079088671477e-15 5.242016016402e-19 -3.137862946437e-18 
5.333333333333e-01 2.229298711458e+01 9.662630519155e+04 9.660401220443e+04 9.999915507350e-01 8.449265046173e-06 -2.637036687551e-15 -4.611250244301e-15 -9.225525125970e-19 -3.670121014667e-18 
5.666666666667e-01 3.108785244138e+01 9.633995679476e+04 9.630886894232e+04 9.999882173930e-01 1.178260695367e-05 -4.844621767707e-15 -1.869888060017e-15 -7.755755839132e-18 -1.467796264032e-18 
6.000000000000e-01 4.519711704432e+01 9.605888909379e+04 9.601369197675e+04 9.999828698407e-01 1.713015933069e-05 -6.953635280536e-15 -4.725359131809e-16 -1.652675163304e-17 1.538723600857e-18 
6.333333333333e-01 6.739511973223e+01 9.578586146012e+04 9.571846634039e+04 9.999744565757e-01 2.554342432948e-05 -4.109638378503e-15 -2.548941356070e-16 -1.838845005194e-17 7.573427288373e-18 
6.666666666667e-01 1.015729453601e+02 9.552474402379e+04 9.542317107843e+04 9.999615028380e-01 3.849716202087e-05 2.675882526693e-15 2.190215337778e-15 -1.827354087611e-17 3.558566360720e-18 
7.000000000000e-01 1.529545037756e+02 9.528073261997e+04 9.512777811619e+04 9.999420287135e-01 5.797128647589e-05 6.743478138795e-15 2.694308352788e-15 -1.015872172618e-17 -1.589588175116e-18 
7.333333333333e-01 2.281803990348e+02 9.506043225662e+04 9.483225185758e+04 9.999135173470e-01 8.648265303801e-05 2.940894183281e-15 2.536944395278e-15 7.761302986503e-18 -2.960075544597e-18 
7.666666666667e-01 3.351031646825e+02 9.487165352494e+04 9.453655036025e+04 9.998729925496e-01 1.270074504462e-04 -2.672146167163e-14 4.491032520291e-15 5.530151332527e-18 -1.884752455779e-17 
8.000000000000e-01 4.820882206210e+02 9.472271741234e+04 9.424062919172e+04 9.998172837435e-01 1.827162564978e-04 -1.497744815518e-13 4.347369892633e-15 -1.227785544702e-16 -1.058673671946e-16 
8.333333333333e-01 6.766571762167e+02 9.462110600295e+04 9.394444882673e+04 9.997435401636e-01 2.564598363577e-04 -4.038068314492e-13 1.382585339325e-13 -2.015268716944e-16 -1.161150519222e-16 
8.666666666667e-01 9.237322073933e+02 9.457171632996e+04 9.364798412257e+04 9.997042819736e-01 2.957180264236e-04 -1.066064297769e-12 6.424624758448e-13 -5.227581210980e-17 5.704614264948e-17 
9.000000000000e-01 1.328121271327e+03 9.467879146005e+04 9.335067018873e+04 9.990286694741e-01 9.713305259426e-04 -3.413400791700e-12 2.431007428017e-12 -5.009209899790e-18 -1.139346479848e-16 
9.333333333333e-01 2.097885373146e+03 9.514928472550e+04 9.305139935235e+04 9.978229997060e-01 2.177000294002e-03 -1.225884460063e-11 7.958845640750e-12 -9.301331244835e-16 -1.711451948675e-15 
9.666666666667e-01 3.755841034409e+03 9.650322992457e+04 9.274738889016e+04 9.938578575722e-01 6.142142427833e-03 -1.396268066506e-11 4.367839174850e-11 2.129046991514e-15 1.192898839992e-14 
1.000000000000e+00 8.900894588958e+03 1.013250000000e+05 9.242410541104e+04 9.300302483489e-01 6.996975165108e-02 -9.314840960096e-12 1.416098350807e-11 1.768567351193e-17 9.905852048561e-17 
 TITLE = "Profiles along polylines"
 VARIABLES = "DIST" "PRESSURE1" "PRESSURE2" "PRESSURE_W" "SATURATION1" SATURATION2 "VELOCITY_X1" "VELOCITY_Y1" "VELOCITY_X2" "VELOCITY_Y2" 
 ZONE T="TIME=2.000000000000e+01"
0.000000000000e+00 0.000000000000e+00 1.013250000000e+05 1.013250000000e+05 1.000000000000e+00 2.220446049250e-16 2.248787642425e-18 1.062186095828e-17 3.647663803336e-23 9.415305977882e-23 
3.333333333333e-02 4.341331471885e+00 1.010265660116e+05 1.010222246801e+05 9.999983545920e-01 1.645408041040e-06 -1.563328931652e-15 -1.564163254140e-15 9.661401376393e-22 -8.222344440792e-21 
6.666666666667e-02 7.943378587851e+00 1.007273920299e+05 1.007194486513e+05 9.999969893801e-01 3.010619918586e-06 -1.759610753475e-15 -1.861699739275e-15 5.981419911535e-21 -1.217911921763e-20 
1.000000000000e-01 1.094230983033e+01 1.004276134214e+05 1.004166711116e+05 9.999958527552e-01 4.147244848873e-06 -2.161965814547e-15 -2.339346865431e-15 -5.490019099863e-20 -5.492183448790e-20 
1.333333333333e-01 1.347877968854e+01 1.001273700207e+05 1.001138912410e+05 9.999948914077e-01 5.108592289638e-06 -3.084105713306e-15 -3.248428026147e-15 -1.365103560407e-19 -4.828088126446e-20 
1.666666666667e-01 1.570295974334e+01 9.982681113407e+04 9.981110817432e+04 9.999940484212e-01 5.951578772145e-06 -4.077436533018e-15 -4.184496733050e-15 -2.366523202356e-19 -1.014357701902e-19 
2.000000000000e-01 1.778222117521e+01 9.952610318054e+04 9.950832095937e+04 9.999932603604e-01 6.739639647257e-06 -4.100900625515e-15 -4.408785371307e-15 -3.647521226343e-19 -2.192253968037e-19 
2.333333333333e-01 1.991233094009e+01 9.922544082733e+04 9.920552849639e+04 9.999924530275e-01 7.546972549566e-06 -3.404730107377e-15 -3.937835138169e-15 -1.756873176780e-20 2.926843693017e-19 
2.666666666667e-01 2.233302709582e+01 9.892506248109e+04 9.890272945400e+04 9.999915355594e-01 8.464440599543e-06 -3.327371875834e-15 -3.973825105160e-15 8.377685263165e-20 3.753363807168e-19 
3.000000000000e-01 2.534879378622e+01 9.862527095114e+04 9.859992215735e+04 9.999903925537e-01 9.607446332605e-06 -4.373215547019e-15 -4.911183534829e-15 -5.248345398957e-19 -6.526733238165e-19 
3.333333333333e-01 2.935549309926e+01 9.832645993826e+04 9.829710444516e+04 9.999888739746e-01 1.112602543962e-05 -4.875168058057e-15 -5.235184141692e-15 -5.560913608137e-19 -8.081522209388e-19 
3.666666666667e-01 3.487317132571e+01 9.802914666547e+04 9.799427349414e+04 9.999867827193e-01 1.321728066372e-05 -3.690795555135e-15 -4.433024838508e-15 -3.454396768099e-19 -1.989035821710e-19 
4.000000000000e-01 4.258474999052e+01 9.773401036285e+04 9.769142561286e+04 9.999838599539e-01 1.614004609385e-05 -2.251807354122e-15 -3.385825083535e-15 -2.255472882686e-19 -4.230465688021e-20 
4.333333333333e-01 5.337934573981e+01 9.744193535776e+04 9.738855601202e+04 9.999797686942e-01 2.023130582862e-05 -2.457468622800e-15 -3.170998319709e-15 -3.689608700942e-19 -1.596989118762e-19 
4.666666666667e-01 6.839760507857e+01 9.715405617096e+04 9.708565856588e+04 9.999740766237e-01 2.592337630059e-05 -3.369485023583e-15 -3.610015845554e-15 -1.401965311103e-19 1.031075013543e-19 
5.000000000000e-01 8.907467662787e+01 9.687180026531e+04 9.678272558868e+04 9.999662398068e-01 3.376019318857e-05 -3.308966825047e-15 -3.381672658927e-15 -8.480832913748e-20 1.225335032292e-18 
5.333333333333e-01 1.171743600676e+02 9.659692202154e+04 9.647974766147e+04 9.999555897458e-01 4.441025420920e-05 -1.619402742360e-15 -2.383302394518e-15 4.999653807155e-19 1.868972967631e-18 
5.666666666667e-01 1.548056410114e+02 9.633151919766e+04 9.617671355665e+04 9.999413271140e-01 5.867288599948e-05 -3.679891628665e-15 -3.031963495695e-15 -3.415733860875e-18 -3.615015672574e-19 
6.000000000000e-01 2.044102264468e+02 9.607802054807e+04 9.587361032163e+04 9.999225264801e-01 7.747351992538e-05 -1.338538902216e-14 -8.819211204233e-15 -1.379156484942e-17 -9.309246998610e-18 
6.333333333333e-01 2.687062618370e+02 9.583912986263e+04 9.557042360079e+04 9.998981576397e-01 1.018423602986e-04 -1.682335603380e-14 -9.938368600858e-15 -2.157447583020e-17 -2.582619899026e-17 
6.666666666667e-01 3.505678833746e+02 9.561770618778e+04 9.526713830441e+04 9.998671312665e-01 1.328687334781e-04 1.677073852140e-15 1.481148171587e-14 1.375719209000e-17 2.129471305385e-18 
7.000000000000e-01 4.528106588107e+02 9.541655044319e+04 9.496373978438e+04 9.998283802322e-01 1.716197677959e-04 3.839041113704e-14 6.094937158619e-14 6.093488644678e-17 4.394895980347e-17 
7.333333333333e-01 5.778418033422e+02 9.523805754004e+04 9.466021573670e+04 9.997809921781e-01 2.190078218847e-04 5.594751014269e-14 8.730034523305e-14 4.501928602235e-17 3.910429657053e-17 
7.666666666667e-01 7.271462228675e+02 9.508370520364e+04 9.435655898077e+04 9.997244043101e-01 2.755956899287e-04 -1.322382139610e-14 5.347315965005e-14 -5.589068344487e-17 -2.947707333985e-17 
8.000000000000e-01 9.007294440515e+02 9.495349988847e+04 9.405277044442e+04 9.996821092222e-01 3.178907778054e-04 -9.484321621847e-14 1.202539762186e-13 -1.959093117278e-16 -9.024600161457e-17 
8.333333333333e-01 1.140733884754e+03 9.488935546766e+04 9.374862158290e+04 9.993796113049e-01 6.203886951333e-04 -1.663060959296e-13 5.377650892521e-13 -4.383193163341e-16 -3.379735563422e-16 