 TITLE = "Time curves in points"
 VARIABLES = "TIME "  "PRESSURE1"  "PRESSURE2"  "PRESSURE_W"  "SATURATION1" SATURATION2  "VELOCITY_X1"  "VELOCITY_Y1"  "VELOCITY_X2"  "VELOCITY_Y2" 
 ZONE T="POINT=POINT0"
0.000000000000e+00 0.000000000000e+00 1.013250000000e+05 1.013250000000e+05 1.000000000000e+00 1.110223024625e-16 0.000000000000e+00 0.000000000000e+00 0.000000000000e+00 0.000000000000e+00 
1.000000000000e-03 0.000000000000e+00 1.013250000000e+05 1.013250000000e+05 1.000000000000e+00 4.440892098501e-16 4.807721060130e-18 1.147017897404e-17 6.811495389176e-23 1.015575194692e-22 
2.000000000000e-03 0.000000000000e+00 1.013250000000e+05 1.013250000000e+05 1.000000000000e+00 3.330669073875e-16 1.061931343992e-17 1.221396673947e-17 8.770870762585e-24 7.955352881615e-23 
3.000000000000e-03 0.000000000000e+00 1.013250000000e+05 1.013250000000e+05 1.000000000000e+00 2.220446049250e-16 9.302645599503e-20 1.093635782432e-17 5.884568173751e-23 6.157570936404e-23 
4.000000000000e-03 0.000000000000e+00 1.013250000000e+05 1.013250000000e+05 1.000000000000e+00 0.000000000000e+00 2.057563054599e-19 1.106079623089e-17 5.774461131082e-23 7.369576923257e-23 
5.000000000000e-03 0.000000000000e+00 1.013250000000e+05 1.013250000000e+05 1.000000000000e+00 1.110223024625e-16 7.213574121819e-18 1.300836803141e-17 -1.211544673617e-23 3.600789894021e-23 
6.000000000000e-03 0.000000000000e+00 1.013250000000e+05 1.013250000000e+05 1.000000000000e+00 1.110223024625e-16 3.582036285611e-18 7.064129518464e-18 7.081469988262e-23 4.882786189480e-23 
7.000000000000e-03 0.000000000000e+00 1.013250000000e+05 1.013250000000e+05 1.000000000000e+00 0.000000000000e+00 9.416033115435e-18 1.183742012845e-17 2.100196213298e-23 5.953939371496e-23 
8.000000000000e-03 0.000000000000e+00 1.013250000000e+05 1.013250000000e+05 1.000000000000e+00 0.000000000000e+00 5.419550794981e-18 1.075709558824e-17 1.758445316017e-23 7.262426613020e-23 
9.000000000000e-03 0.000000000000e+00 1.013250000000e+05 1.013250000000e+05 1.000000000000e+00 0.000000000000e+00 6.263778186917e-18 9.133101739217e-18 6.057868387850e-23 9.596024813879e-23 
1.000000000000e-02 0.000000000000e+00 1.013250000000e+05 1.013250000000e+05 1.000000000000e+00 0.000000000000e+00 1.194296916032e-17 1.391881561431e-17 3.006978155567e-23 8.483722231005e-23 
2.000000000000e-02 0.000000000000e+00 1.013250000000e+05 1.013250000000e+05 1.000000000000e+00 0.000000000000e+00 3.866668479966e-18 1.124754442768e-17 5.369575732047e-23 6.125514562861e-23 
3.000000000000e-02 0.000000000000e+00 1.013250000000e+05 1.013250000000e+05 1.000000000000e+00 0.000000000000e+00 4.156046536609e-18 7.476443924933e-18 1.369079419490e-23 6.371123856189e-23 
4.000000000000e-02 0.000000000000e+00 1.013250000000e+05 1.013250000000e+05 1.000000000000e+00 0.000000000000e+00 -1.280997666649e-18 9.788376943341e-18 2.473055554155e-23 9.588351139229e-23 
5.000000000000e-02 0.000000000000e+00 1.013250000000e+05 1.013250000000e+05 1.000000000000e+00 0.000000000000e+00 1.074593018355e-17 1.439147323228e-17 7.161157394918e-23 7.286776539008e-23 
6.000000000000e-02 0.000000000000e+00 1.013250000000e+05 1.013250000000e+05 1.000000000000e+00 0.000000000000e+00 3.472013140829e-18 1.412405627698e-17 7.250239407149e-23 7.371253955747e-23 
7.000000000000e-02 0.000000000000e+00 1.013250000000e+05 1.013250000000e+05 1.000000000000e+00 0.000000000000e+00 6.589043249551e-18 7.268185665775e-18 4.431380379415e-23 5.294339433108e-23 
8.000000000000e-02 0.000000000000e+00 1.013250000000e+05 1.013250000000e+05 1.000000000000e+00 1.110223024625e-16 6.987603540034e-18 1.416133273401e-17 3.564614466431e-23 2.724060796791e-23 
9.000000000000e-02 0.000000000000e+00 1.013250000000e+05 1.013250000000e+05 1.000000000000e+00 3.330669073875e-16 6.653192644707e-18 1.113957397088e-17 6.075677675007e-23 3.534420854542e-23 
1.000000000000e-01 0.000000000000e+00 1.013250000000e+05 1.013250000000e+05 1.000000000000e+00 3.330669073875e-16 8.563679477744e-18 8.119793704701e-18 3.913344177149e-23 6.874162109111e-23 
2.000000000000e-01 0.000000000000e+00 1.013250000000e+05 1.013250000000e+05 1.000000000000e+00 0.000000000000e+00 8.692870923380e-18 1.006526042589e-17 6.830131101071e-23 8.049376128748e-23 
3.000000000000e-01 0.000000000000e+00 1.013250000000e+05 1.013250000000e+05 1.000000000000e+00 0.000000000000e+00 3.086425021292e-18 1.245273190425e-17 2.969236180729e-23 5.954123170468e-23 
4.000000000000e-01 0.000000000000e+00 1.013250000000e+05 1.013250000000e+05 1.000000000000e+00 1.110223024625e-16 1.101636763067e-18 1.401650758194e-17 1.927500487067e-23 4.315150082203e-23 
5.000000000000e-01 0.000000000000e+00 1.013250000000e+05 1.013250000000e+05 1.000000000000e+00 4.440892098501e-16 1.087181448801e-17 9.497398570272e-18 7.088872569756e-23 7.254113224114e-23 
6.000000000000e-01 0.000000000000e+00 1.013250000000e+05 1.013250000000e+05 1.000000000000e+00 0.000000000000e+00 9.690164204236e-18 1.040443155146e-17 5.523340904719e-23 7.550635037367e-23 
7.000000000000e-01 0.000000000000e+00 1.013250000000e+05 1.013250000000e+05 1.000000000000e+00 0.000000000000e+00 7.631726298935e-18 1.626330647300e-17 2.692820453675e-23 3.925546823202e-23 
8.000000000000e-01 0.000000000000e+00 1.013250000000e+05 1.013250000000e+05 1.000000000000e+00 0.000000000000e+00 7.401799092766e-18 1.251744986243e-17 3.068031816716e-24 5.354106658107e-23 
9.000000000000e-01 0.000000000000e+00 1.013250000000e+05 1.013250000000e+05 1.000000000000e+00 0.000000000000e+00 2.548974096765e-18 8.145658157387e-18 1.752178396404e-23 6.313700594169e-23 
1.000000000000e+00 0.000000000000e+00 1.013250000000e+05 1.013250000000e+05 1.000000000000e+00 0.000000000000e+00 2.453541340251e-18 1.091706104978e-17 3.751909482162e-23 6.305491160990e-23 
2.000000000000e+00 0.000000000000e+00 1.013250000000e+05 1.013250000000e+05 1.000000000000e+00 3.330669073875e-16 9.401899570676e-18 1.189279806728e-17 -4.605170393455e-25 -2.333723750469e-23 
3.000000000000e+00 0.000000000000e+00 1.013250000000e+05 1.013250000000e+05 1.000000000000e+00 0.000000000000e+00 1.956075163211e-18 9.039644357401e-18 2.590652369487e-23 1.824643552675e-23 
4.000000000000e+00 0.000000000000e+00 1.013250000000e+05 1.013250000000e+05 1.000000000000e+00 0.000000000000e+00 3.844739630940e-18 1.020998413193e-17 5.607138883099e-23 8.512014454144e-23 
5.000000000000e+00 0.000000000000e+00 1.013250000000e+05 1.013250000000e+05 1.000000000000e+00 0.000000000000e+00 4.424331700380e-18 9.545142956519e-18 8.680472603920e-23 4.142120930141e-23 
6.000000000000e+00 0.000000000000e+00 1.013250000000e+05 1.013250000000e+05 1.000000000000e+00 0.000000000000e+00 4.831422221880e-18 1.693809115086e-17 5.529996413887e-23 7.955951518512e-23 
7.000000000000e+00 0.000000000000e+00 1.013250000000e+05 1.013250000000e+05 1.000000000000e+00 0.000000000000e+00 6.838623648156e-18 7.695978532633e-18 5.238180462291e-23 7.497224042352e-23 
8.000000000000e+00 0.000000000000e+00 1.013250000000e+05 1.013250000000e+05 1.000000000000e+00 1.110223024625e-16 8.511765494749e-18 7.390863492668e-18 4.504539471217e-23 9.724023594781e-23 
9.000000000000e+00 0.000000000000e+00 1.013250000000e+05 1.013250000000e+05 1.000000000000e+00 0.000000000000e+00 7.228083855660e-18 9.117268122020e-18 1.301457440298e-23 7.933199751324e-23 
1.000000000000e+01 0.000000000000e+00 1.013250000000e+05 1.013250000000e+05 1.000000000000e+00 0.000000000000e+00 2.003184933693e-18 1.378266867676e-17 5.316892340328e-23 1.129604981160e-22 
1.100000000000e+01 0.000000000000e+00 1.013250000000e+05 1.013250000000e+05 1.000000000000e+00 0.000000000000e+00 7.352598772077e-18 9.491900142053e-18 2.136637887894e-23 8.752164033064e-23 
1.200000000000e+01 0.000000000000e+00 1.013250000000e+05 1.013250000000e+05 1.000000000000e+00 1.110223024625e-16 7.306881845188e-18 1.197836374450e-17 1.523473339745e-23 1.029202620181e-22 
1.300000000000e+01 0.000000000000e+00 1.013250000000e+05 1.013250000000e+05 1.000000000000e+00 0.000000000000e+00 8.791756180901e-18 1.311367321839e-17 1.099727597947e-23 5.713787259040e-23 
1.400000000000e+01 0.000000000000e+00 1.013250000000e+05 1.013250000000e+05 1.000000000000e+00 0.000000000000e+00 3.393974210644e-18 1.386744123183e-17 5.158076782120e-23 7.421950459857e-23 
1.500000000000e+01 0.000000000000e+00 1.013250000000e+05 1.013250000000e+05 1.000000000000e+00 0.000000000000e+00 1.147888458899e-17 7.431529048496e-18 1.806226207627e-23 7.382435999494e-23 
1.600000000000e+01 0.000000000000e+00 1.013250000000e+05 1.013250000000e+05 1.000000000000e+00 0.000000000000e+00 8.818674355512e-18 1.556750328009e-17 4.392537456490e-23 5.094632466795e-23 
1.700000000000e+01 0.000000000000e+00 1.013250000000e+05 1.013250000000e+05 1.000000000000e+00 0.000000000000e+00 3.661531320992e-18 1.678693430562e-17 2.642875099033e-23 4.860859400830e-23 
1.800000000000e+01 0.000000000000e+00 1.013250000000e+05 1.013250000000e+05 1.000000000000e+00 1.110223024625e-16 4.675166383416e-18 6.991299105064e-18 -5.259635712481e-24 4.519393247644e-23 
1.900000000000e+01 0.000000000000e+00 1.013250000000e+05 1.013250000000e+05 1.000000000000e+00 0.000000000000e+00 8.347187749169e-18 9.031504039779e-18 2.052095636388e-23 7.841085494476e-23 
2.000000000000e+01 0.000000000000e+00 1.013250000000e+05 1.013250000000e+05 1.000000000000e+00 3.330669073875e-16 5.853021299330e-18 9.391203987425e-18 4.158728919972e-23 6.706686338790e-23 
2.100000000000e+01 0.000000000000e+00 1.013250000000e+05 1.013250000000e+05 1.000000000000e+00 0.000000000000e+00 6.332948064398e-18 9.468592203003e-18 7.432474319866e-23 9.493313507186e-23 
2.200000000000e+01 0.000000000000e+00 1.013250000000e+05 1.013250000000e+05 1.000000000000e+00 1.110223024625e-16 4.536232382760e-18 1.463883330557e-17 1.387503384246e-23 7.534092765423e-23 
2.300000000000e+01 0.000000000000e+00 1.013250000000e+05 1.013250000000e+05 1.000000000000e+00 0.000000000000e+00 -1.159295440021e-18 1.145104708545e-17 4.389080733871e-23 9.406874055453e-23 
2.400000000000e+01 0.000000000000e+00 1.013250000000e+05 1.013250000000e+05 1.000000000000e+00 0.000000000000e+00 2.821044604836e-18 1.168473864897e-17 6.093022270767e-23 8.661687241671e-23 
2.500000000000e+01 0.000000000000e+00 1.013250000000e+05 1.013250000000e+05 1.000000000000e+00 0.000000000000e+00 4.383027687426e-18 1.357012758711e-17 2.947868566821e-23 8.591713756324e-23 
2.600000000000e+01 0.000000000000e+00 1.013250000000e+05 1.013250000000e+05 1.000000000000e+00 0.000000000000e+00 2.800063710878e-18 1.651036059080e-17 1.873874840379e-23 8.678998120564e-23 
2.700000000000e+01 0.000000000000e+00 1.013250000000e+05 1.013250000000e+05 1.000000000000e+00 0.000000000000e+00 8.886136111844e-18 8.935016393279e-18 4.363968326867e-23 9.613300720634e-23 
2.800000000000e+01 0.000000000000e+00 1.013250000000e+05 1.013250000000e+05 1.000000000000e+00 0.000000000000e+00 4.789595774023e-18 1.891340106324e-17 5.253885080328e-23 9.565283376073e-23 
2.900000000000e+01 0.000000000000e+00 1.013250000000e+05 1.013250000000e+05 1.000000000000e+00 0.000000000000e+00 4.272720178741e-18 9.824692900935e-18 -1.281795946507e-23 7.656449044958e-23 
3.000000000000e+01 0.000000000000e+00 1.013250000000e+05 1.013250000000e+05 1.000000000000e+00 0.000000000000e+00 2.202512502054e-18 1.392899827573e-17 3.419257679108e-23 5.976703441902e-23 
3.100000000000e+01 0.000000000000e+00 1.013250000000e+05 1.013250000000e+05 1.000000000000e+00 0.000000000000e+00 6.561371806569e-18 5.471818312376e-18 2.677518254716e-23 4.115811897053e-23 
3.200000000000e+01 0.000000000000e+00 1.013250000000e+05 1.013250000000e+05 1.000000000000e+00 3.330669073875e-16 5.611009008282e-18 1.083191199826e-17 4.910911238522e-23 5.499302742743e-23 
3.300000000000e+01 0.000000000000e+00 1.013250000000e+05 1.013250000000e+05 1.000000000000e+00 1.110223024625e-16 5.620007692148e-18 1.347424719249e-17 2.108040763656e-23 9.031800426567e-23 
3.400000000000e+01 0.000000000000e+00 1.013250000000e+05 1.013250000000e+05 1.000000000000e+00 0.000000000000e+00 1.204051793893e-17 1.390385534642e-17 4.243328328195e-23 9.144978167784e-23 
3.500000000000e+01 0.000000000000e+00 1.013250000000e+05 1.013250000000e+05 1.000000000000e+00 0.000000000000e+00 6.813624306414e-18 8.343985272998e-18 3.806179732342e-23 6.674301942498e-23 
3.600000000000e+01 0.000000000000e+00 1.013250000000e+05 1.013250000000e+05 1.000000000000e+00 1.110223024625e-16 2.789796170865e-18 1.042212754250e-17 2.457628039285e-24 8.212770434163e-23 
3.700000000000e+01 0.000000000000e+00 1.013250000000e+05 1.013250000000e+05 1.000000000000e+00 0.000000000000e+00 1.094455186612e-17 1.028090514891e-17 4.957632033869e-23 6.133697291954e-23 
3.800000000000e+01 0.000000000000e+00 1.013250000000e+05 1.013250000000e+05 1.000000000000e+00 0.000000000000e+00 1.274525840330e-17 7.336910895845e-18 4.509111764750e-23 5.434666669689e-23 
3.900000000000e+01 0.000000000000e+00 1.013250000000e+05 1.013250000000e+05 1.000000000000e+00 0.000000000000e+00 6.501962124605e-18 1.184845674162e-17 7.666075262287e-24 9.369979286997e-23 
4.000000000000e+01 0.000000000000e+00 1.013250000000e+05 1.013250000000e+05 1.000000000000e+00 2.220446049250e-16 7.746179378728e-18 7.514997174901e-18 3.280865821561e-23 8.540252428544e-23 
4.100000000000e+01 0.000000000000e+00 1.013250000000e+05 1.013250000000e+05 1.000000000000e+00 0.000000000000e+00 8.215790405406e-18 7.879327932787e-18 5.536440909835e-23 6.175421059241e-23 
4.200000000000e+01 0.000000000000e+00 1.013250000000e+05 1.013250000000e+05 1.000000000000e+00 0.000000000000e+00 -6.861797147972e-19 1.629516278419e-17 3.163048485724e-23 9.888257164632e-23 
4.300000000000e+01 0.000000000000e+00 1.013250000000e+05 1.013250000000e+05 1.000000000000e+00 0.000000000000e+00 8.406432074962e-18 9.350187164241e-18 1.128973191813e-22 9.476385141154e-23 
4.400000000000e+01 0.000000000000e+00 1.013250000000e+05 1.013250000000e+05 1.000000000000e+00 1.110223024625e-16 5.131578480612e-18 1.440086902911e-17 3.549983980812e-23 4.927275748812e-23 
4.500000000000e+01 0.000000000000e+00 1.013250000000e+05 1.013250000000e+05 1.000000000000e+00 2.220446049250e-16 7.345140459140e-18 8.510816643036e-18 5.348553092142e-23 4.079060271774e-23 
4.600000000000e+01 0.000000000000e+00 1.013250000000e+05 1.013250000000e+05 1.000000000000e+00 1.110223024625e-16 5.211840491775e-18 1.337815309069e-17 2.091577071031e-23 4.262492227572e-23 
4.700000000000e+01 0.000000000000e+00 1.013250000000e+05 1.013250000000e+05 1.000000000000e+00 0.000000000000e+00 1.247192796042e-17 1.314321803266e-17 5.349833274207e-23 3.740649471182e-23 
4.800000000000e+01 0.000000000000e+00 1.013250000000e+05 1.013250000000e+05 1.000000000000e+00 1.110223024625e-16 6.590442221722e-18 1.266411844660e-17 4.728386900936e-23 7.463766429438e-23 
4.900000000000e+01 0.000000000000e+00 1.013250000000e+05 1.013250000000e+05 1.000000000000e+00 0.000000000000e+00 3.680778558412e-18 1.312177934655e-17 7.621457214619e-23 9.050745967319e-23 
5.000000000000e+01 0.000000000000e+00 1.013250000000e+05 1.013250000000e+05 1.000000000000e+00 0.000000000000e+00 6.799797250592e-18 8.685644881916e-18 4.762464975435e-23 7.277886486901e-23 
5.100000000000e+01 0.000000000000e+00 1.013250000000e+05 1.013250000000e+05 1.000000000000e+00 1.110223024625e-16 4.925945124674e-18 1.450964441957e-17 1.945369672080e-23 5.158812078167e-23 
5.200000000000e+01 0.000000000000e+00 1.013250000000e+05 1.013250000000e+05 1.000000000000e+00 4.440892098501e-16 6.468235491821e-18 8.885966470125e-18 1.032348495197e-23 8.863781566120e-23 
5.300000000000e+01 0.000000000000e+00 1.013250000000e+05 1.013250000000e+05 1.000000000000e+00 0.000000000000e+00 5.750882322351e-18 1.495716948029e-17 5.023629237353e-23 9.380066811789e-23 
5.400000000000e+01 0.000000000000e+00 1.013250000000e+05 1.013250000000e+05 1.000000000000e+00 0.000000000000e+00 9.882312451381e-18 1.580190603077e-17 3.477550739707e-23 9.051546505158e-23 
5.500000000000e+01 0.000000000000e+00 1.013250000000e+05 1.013250000000e+05 1.000000000000e+00 1.110223024625e-16 1.119146755754e-17 8.471680436682e-18 3.873378561611e-24 7.651300930352e-23 
5.600000000000e+01 0.000000000000e+00 1.013250000000e+05 1.013250000000e+05 1.000000000000e+00 0.000000000000e+00 6.854803976953e-18 1.118508367863e-17 6.566004466201e-23 3.023608783303e-23 
5.700000000000e+01 0.000000000000e+00 1.013250000000e+05 1.013250000000e+05 1.000000000000e+00 0.000000000000e+00 -1.258916435635e-18 1.334567663406e-17 6.981073605476e-23 -2.432975564271e-23 
5.800000000000e+01 0.000000000000e+00 1.013250000000e+05 1.013250000000e+05 1.000000000000e+00 0.000000000000e+00 5.890488872868e-18 1.092496746136e-17 1.056885470777e-22 4.461600561623e-23 
5.900000000000e+01 0.000000000000e+00 1.013250000000e+05 1.013250000000e+05 1.000000000000e+00 0.000000000000e+00 1.941389797517e-18 8.618543727043e-18 5.896819790494e-23 2.206452766063e-23 
6.000000000000e+01 0.000000000000e+00 1.013250000000e+05 1.013250000000e+05 1.000000000000e+00 2.220446049250e-16 3.666705359194e-18 1.047358184145e-17 7.814561942548e-23 8.159285308400e-23 
6.100000000000e+01 0.000000000000e+00 1.013250000000e+05 1.013250000000e+05 1.000000000000e+00 0.000000000000e+00 7.745058888602e-18 1.317173627815e-17 1.486831367240e-22 2.753405485359e-23 
6.200000000000e+01 0.000000000000e+00 1.013250000000e+05 1.013250000000e+05 1.000000000000e+00 0.000000000000e+00 3.917096888084e-18 9.776356207156e-18 1.751198431893e-22 1.776463747489e-23 
6.300000000000e+01 0.000000000000e+00 1.013250000000e+05 1.013250000000e+05 1.000000000000e+00 0.000000000000e+00 1.178341362231e-17 8.071164808077e-18 8.747519913108e-23 6.454270825144e-23 
6.400000000000e+01 0.000000000000e+00 1.013250000000e+05 1.013250000000e+05 1.000000000000e+00 0.000000000000e+00 2.895069260660e-18 5.145973996991e-18 4.836284637146e-23 -2.519474174257e-23 
6.500000000000e+01 0.000000000000e+00 1.013250000000e+05 1.013250000000e+05 1.000000000000e+00 0.000000000000e+00 8.634641925039e-18 1.108961207899e-17 4.716924051859e-23 8.432000685998e-23 
6.600000000000e+01 0.000000000000e+00 1.013250000000e+05 1.013250000000e+05 1.000000000000e+00 1.110223024625e-16 6.045801538541e-18 1.071512286419e-17 2.867555985447e-24 -4.017497879167e-23 
6.700000000000e+01 0.000000000000e+00 1.013250000000e+05 1.013250000000e+05 1.000000000000e+00 0.000000000000e+00 1.025342693336e-17 1.561899538774e-17 -4.941701098873e-23 -3.780352144234e-23 
6.800000000000e+01 0.000000000000e+00 1.013250000000e+05 1.013250000000e+05 1.000000000000e+00 0.000000000000e+00 4.361458467231e-18 8.189096705401e-18 -1.011928031297e-23 -7.060879823178e-23 
6.900000000000e+01 0.000000000000e+00 1.013250000000e+05 1.013250000000e+05 1.000000000000e+00 1.110223024625e-16 9.738115957622e-18 7.704766107431e-18 1.085332518465e-22 -1.343841504676e-23 
7.000000000000e+01 0.000000000000e+00 1.013250000000e+05 1.013250000000e+05 1.000000000000e+00 0.000000000000e+00 4.981085923998e-18 1.103334167844e-17 4.038547420033e-23 4.036438580448e-23 
7.100000000000e+01 0.000000000000e+00 1.013250000000e+05 1.013250000000e+05 1.000000000000e+00 0.000000000000e+00 3.973757364331e-18 1.287329843870e-17 -5.550443857599e-23 2.331960031534e-23 
7.200000000000e+01 0.000000000000e+00 1.013250000000e+05 1.013250000000e+05 1.000000000000e+00 0.000000000000e+00 1.025643484808e-17 9.034397075102e-18 -5.895621194614e-23 -4.333307300524e-23 
7.300000000000e+01 0.000000000000e+00 1.013250000000e+05 1.013250000000e+05 1.000000000000e+00 0.000000000000e+00 3.216692681086e-19 1.109091943547e-17 2.706090192849e-24 1.457981429436e-23 
7.400000000000e+01 0.000000000000e+00 1.013250000000e+05 1.013250000000e+05 1.000000000000e+00 0.000000000000e+00 7.472571543176e-18 1.273786358833e-17 3.652436393085e-23 9.894173492098e-23 
7.500000000000e+01 0.000000000000e+00 1.013250000000e+05 1.013250000000e+05 1.000000000000e+00 0.000000000000e+00 1.215927548354e-17 1.268954477344e-17 2.174420118090e-23 1.853580752839e-22 
7.600000000000e+01 0.000000000000e+00 1.013250000000e+05 1.013250000000e+05 1.000000000000e+00 0.000000000000e+00 1.368531018088e-17 7.664497819346e-18 1.085907182683e-24 1.509893755081e-22 
7.700000000000e+01 0.000000000000e+00 1.013250000000e+05 1.013250000000e+05 1.000000000000e+00 1.110223024625e-16 2.491233262796e-18 1.309056209842e-17 5.867237101537e-23 1.648904472355e-22 
7.800000000000e+01 0.000000000000e+00 1.013250000000e+05 1.013250000000e+05 1.000000000000e+00 1.110223024625e-16 8.411415404518e-18 1.215255522280e-17 -1.646075709339e-23 9.396772192280e-23 
7.900000000000e+01 0.000000000000e+00 1.013250000000e+05 1.013250000000e+05 1.000000000000e+00 2.220446049250e-16 6.598830528539e-18 1.359224464055e-17 9.214598585940e-23 2.485563315860e-23 
8.000000000000e+01 0.000000000000e+00 1.013250000000e+05 1.013250000000e+05 1.000000000000e+00 0.000000000000e+00 3.164432029811e-18 9.184060917423e-18 1.433792999388e-22 4.018727294560e-23 
8.100000000000e+01 0.000000000000e+00 1.013250000000e+05 1.013250000000e+05 1.000000000000e+00 0.000000000000e+00 3.203667465615e-18 8.949262172336e-18 1.195189574172e-22 4.818301169909e-23 
8.200000000000e+01 0.000000000000e+00 1.013250000000e+05 1.013250000000e+05 1.000000000000e+00 0.000000000000e+00 1.835940504556e-18 1.274430476761e-17 1.637811947166e-22 6.676260814822e-23 
8.300000000000e+01 0.000000000000e+00 1.013250000000e+05 1.013250000000e+05 1.000000000000e+00 0.000000000000e+00 2.682723768355e-18 1.492047426596e-17 1.179800527444e-22 1.107111575338e-22 
8.400000000000e+01 0.000000000000e+00 1.013250000000e+05 1.013250000000e+05 1.000000000000e+00 0.000000000000e+00 9.167545483897e-18 9.975391397032e-18 3.920271237468e-23 2.331094407994e-23 
8.500000000000e+01 0.000000000000e+00 1.013250000000e+05 1.013250000000e+05 1.000000000000e+00 0.000000000000e+00 4.789438629442e-18 1.035032153736e-17 -2.774642065872e-23 2.642318030850e-23 
8.600000000000e+01 0.000000000000e+00 1.013250000000e+05 1.013250000000e+05 1.000000000000e+00 0.000000000000e+00 7.423098544673e-18 7.324258637350e-18 -7.379802257897e-23 -5.412182349701e-23 
8.700000000000e+01 0.000000000000e+00 1.013250000000e+05 1.013250000000e+05 1.000000000000e+00 0.000000000000e+00 6.467143267018e-18 8.734635638479e-18 -4.548971212634e-23 5.192612186579e-23 
8.800000000000e+01 0.000000000000e+00 1.013250000000e+05 1.013250000000e+05 1.000000000000e+00 0.000000000000e+00 3.932837642702e-18 1.353189777649e-17 1.715692893411e-23 1.407828324032e-22 
8.900000000000e+01 0.000000000000e+00 1.013250000000e+05 1.013250000000e+05 1.000000000000e+00 0.000000000000e+00 7.459717950727e-18 7.736379675618e-18 1.561620174929e-22 1.176258063571e-22 
9.000000000000e+01 0.000000000000e+00 1.013250000000e+05 1.013250000000e+05 1.000000000000e+00 0.000000000000e+00 6.084446636574e-18 1.214458122516e-17 4.693640153029e-23 1.550457432911e-22 
9.100000000000e+01 0.000000000000e+00 1.013250000000e+05 1.013250000000e+05 1.000000000000e+00 0.000000000000e+00 7.536870581688e-18 1.172137822176e-17 5.664423595300e-23 1.739539403803e-22 
9.200000000000e+01 0.000000000000e+00 1.013250000000e+05 1.013250000000e+05 1.000000000000e+00 1.110223024625e-16 5.243841357735e-18 1.222993739556e-17 9.409132253000e-23 1.241986970922e-22 
9.300000000000e+01 0.000000000000e+00 1.013250000000e+05 1.013250000000e+05 1.000000000000e+00 2.220446049250e-16 1.966814349093e-18 1.096078109753e-17 9.352113055380e-23 2.231130975364e-22 
9.400000000000e+01 0.000000000000e+00 1.013250000000e+05 1.013250000000e+05 1.000000000000e+00 0.000000000000e+00 1.077639041211e-17 9.803914527368e-18 8.776563386467e-23 4.940139759916e-23 
9.500000000000e+01 0.000000000000e+00 1.013250000000e+05 1.013250000000e+05 1.000000000000e+00 1.110223024625e-16 4.579765441312e-18 1.408007607454e-17 3.266839123751e-23 8.119711448023e-23 
9.600000000000e+01 0.000000000000e+00 1.013250000000e+05 1.013250000000e+05 1.000000000000e+00 2.220446049250e-16 8.045623572629e-18 1.392783422224e-17 7.651285520167e-23 7.064084441563e-23 
9.700000000000e+01 0.000000000000e+00 1.013250000000e+05 1.013250000000e+05 1.000000000000e+00 0.000000000000e+00 1.032167852994e-17 1.169183803164e-17 7.627299535911e-23 1.379315934267e-22 
9.800000000000e+01 0.000000000000e+00 1.013250000000e+05 1.013250000000e+05 1.000000000000e+00 0.000000000000e+00 5.284649931030e-18 9.872336799232e-18 2.317540310397e-23 1.132848091512e-23 
9.900000000000e+01 0.000000000000e+00 1.013250000000e+05 1.013250000000e+05 1.000000000000e+00 0.000000000000e+00 3.518027428604e-18 1.078279196341e-17 1.219720744659e-22 6.581504848556e-23 
1.000000000000e+02 0.000000000000e+00 1.013250000000e+05 1.013250000000e+05 1.000000000000e+00 0.000000000000e+00 4.721538013300e-18 1.070486903885e-17 9.774211929094e-23 9.938489758695e-23 
1.010000000000e+02 0.000000000000e+00 1.013250000000e+05 1.013250000000e+05 1.000000000000e+00 0.000000000000e+00 3.176215186588e-18 8.189079376518e-18 1.980202291563e-22 1.065532605195e-22 
1.020000000000e+02 0.000000000000e+00 1.013250000000e+05 1.013250000000e+05 1.000000000000e+00 0.000000000000e+00 4.682528506165e-18 1.284119569773e-17 1.630178191519e-22 7.494453713078e-23 
1.030000000000e+02 0.000000000000e+00 1.013250000000e+05 1.013250000000e+05 1.000000000000e+00 0.000000000000e+00 8.011912144308e-18 9.941931242296e-18 2.361379252441e-22 1.774959091796e-22 
1.040000000000e+02 0.000000000000e+00 1.013250000000e+05 1.013250000000e+05 1.000000000000e+00 0.000000000000e+00 5.797829079139e-18 1.110831079789e-17 6.031881282712e-23 1.045468122842e-22 
1.050000000000e+02 0.000000000000e+00 1.013250000000e+05 1.013250000000e+05 1.000000000000e+00 0.000000000000e+00 4.748450510579e-18 9.859989651055e-18 1.315060344059e-23 2.830700969286e-22 
1.060000000000e+02 0.000000000000e+00 1.013250000000e+05 1.013250000000e+05 1.000000000000e+00 1.110223024625e-16 9.863079640707e-18 1.216700666088e-17 1.089406213118e-22 1.087933813689e-22 
1.070000000000e+02 0.000000000000e+00 1.013250000000e+05 1.013250000000e+05 1.000000000000e+00 0.000000000000e+00 -4.449488797157e-19 1.179804876518e-17 4.802410862266e-23 7.188030362417e-23 
1.080000000000e+02 0.000000000000e+00 1.013250000000e+05 1.013250000000e+05 1.000000000000e+00 0.000000000000e+00 7.660846210854e-18 1.016351159870e-17 7.200356210919e-23 1.201346598737e-22 
1.090000000000e+02 0.000000000000e+00 1.013250000000e+05 1.013250000000e+05 1.000000000000e+00 0.000000000000e+00 8.415535226025e-19 1.824720149731e-17 1.260121076161e-22 1.717447696850e-22 
1.100000000000e+02 0.000000000000e+00 1.013250000000e+05 1.013250000000e+05 1.000000000000e+00 0.000000000000e+00 4.891894694095e-18 1.021549643670e-17 9.580171400820e-23 1.156622782929e-22 
1.110000000000e+02 0.000000000000e+00 1.013250000000e+05 1.013250000000e+05 1.000000000000e+00 0.000000000000e+00 5.121966108357e-18 7.783767166705e-18 1.239272809622e-22 2.238327149584e-22 
1.120000000000e+02 0.000000000000e+00 1.013250000000e+05 1.013250000000e+05 1.000000000000e+00 0.000000000000e+00 3.692152204473e-18 9.027357522394e-18 7.720467625147e-23 2.004760357346e-22 
1.130000000000e+02 0.000000000000e+00 1.013250000000e+05 1.013250000000e+05 1.000000000000e+00 0.000000000000e+00 6.783307853622e-18 7.262420885135e-18 8.103827838341e-23 1.854735470011e-22 
1.140000000000e+02 0.000000000000e+00 1.013250000000e+05 1.013250000000e+05 1.000000000000e+00 0.000000000000e+00 1.360056143237e-19 1.013069228392e-17 -1.183934702107e-23 9.882493878705e-23 
1.150000000000e+02 0.000000000000e+00 1.013250000000e+05 1.013250000000e+05 1.000000000000e+00 1.110223024625e-16 1.087973411980e-17 7.197348188798e-18 9.647339195330e-24 3.433824273660e-23 
1.160000000000e+02 0.000000000000e+00 1.013250000000e+05 1.013250000000e+05 1.000000000000e+00 0.000000000000e+00 5.570475638978e-18 1.372752192225e-17 2.431386278411e-23 4.240582204590e-23 
1.170000000000e+02 0.000000000000e+00 1.013250000000e+05 1.013250000000e+05 1.000000000000e+00 0.000000000000e+00 7.456790547144e-18 8.032143973972e-18 1.072899101875e-22 1.914408955322e-22 
1.180000000000e+02 0.000000000000e+00 1.013250000000e+05 1.013250000000e+05 1.000000000000e+00 0.000000000000e+00 3.322178223561e-18 9.711295355524e-18 1.993199901343e-22 2.623535263677e-22 
1.190000000000e+02 0.000000000000e+00 1.013250000000e+05 1.013250000000e+05 1.000000000000e+00 3.330669073875e-16 9.573657151012e-18 1.009766176162e-17 7.531805934247e-23 1.632103753526e-22 
1.200000000000e+02 0.000000000000e+00 1.013250000000e+05 1.013250000000e+05 1.000000000000e+00 1.110223024625e-16 8.210945021117e-18 1.096143193171e-17 1.371890634610e-22 1.925425961630e-22 
