 TITLE = "Profiles along polylines"
 VARIABLES = "DIST" "PRESSURE1" "PRESSURE2" "PRESSURE_W" "SATURATION1" SATURATION2 "VELOCITY_X1" "VELOCITY_Y1" "VELOCITY_X2" "VELOCITY_Y2" 
 ZONE T="TIME=0.000000000000e+00"
0.000000000000e+00 0.000000000000e+00 1.013250000000e+05 1.013250000000e+05 1.000000000000e+00 1.110223024625e-16 0.000000000000e+00 0.000000000000e+00 0.000000000000e+00 0.000000000000e+00 
3.333333333333e-02 0.000000000000e+00 1.013250000000e+05 1.013250000000e+05 1.000000000000e+00 2.220446049250e-16 0.000000000000e+00 0.000000000000e+00 0.000000000000e+00 0.000000000000e+00 
6.666666666667e-02 0.000000000000e+00 1.013250000000e+05 1.013250000000e+05 1.000000000000e+00 2.220446049250e-16 0.000000000000e+00 0.000000000000e+00 0.000000000000e+00 0.000000000000e+00 
1.000000000000e-01 0.000000000000e+00 1.013250000000e+05 1.013250000000e+05 1.000000000000e+00 2.220446049250e-16 0.000000000000e+00 0.000000000000e+00 0.000000000000e+00 0.000000000000e+00 
1.333333333333e-01 0.000000000000e+00 1.013250000000e+05 1.013250000000e+05 1.000000000000e+00 2.220446049250e-16 0.000000000000e+00 0.000000000000e+00 0.000000000000e+00 0.000000000000e+00 
1.666666666667e-01 0.000000000000e+00 1.013250000000e+05 1.013250000000e+05 1.000000000000e+00 2.220446049250e-16 0.000000000000e+00 0.000000000000e+00 0.000000000000e+00 0.000000000000e+00 
2.000000000000e-01 0.000000000000e+00 1.013250000000e+05 1.013250000000e+05 1.000000000000e+00 2.220446049250e-16 0.000000000000e+00 0.000000000000e+00 0.000000000000e+00 0.000000000000e+00 
2.333333333333e-01 0.000000000000e+00 1.013250000000e+05 1.013250000000e+05 1.000000000000e+00 2.220446049250e-16 0.000000000000e+00 0.000000000000e+00 0.000000000000e+00 0.000000000000e+00 
2.666666666667e-01 0.000000000000e+00 1.013250000000e+05 1.013250000000e+05 1.000000000000e+00 2.220446049250e-16 0.000000000000e+00 0.000000000000e+00 0.000000000000e+00 0.000000000000e+00 
3.000000000000e-01 0.000000000000e+00 1.013250000000e+05 1.013250000000e+05 1.000000000000e+00 2.220446049250e-16 0.000000000000e+00 0.000000000000e+00 0.000000000000e+00 0.000000000000e+00 
3.333333333333e-01 0.000000000000e+00 1.013250000000e+05 1.013250000000e+05 1.000000000000e+00 2.220446049250e-16 0.000000000000e+00 0.000000000000e+00 0.000000000000e+00 0.000000000000e+00 
3.666666666667e-01 0.000000000000e+00 1.013250000000e+05 1.013250000000e+05 1.000000000000e+00 2.220446049250e-16 0.000000000000e+00 0.000000000000e+00 0.000000000000e+00 0.000000000000e+00 
4.000000000000e-01 0.000000000000e+00 1.013250000000e+05 1.013250000000e+05 1.000000000000e+00 2.220446049250e-16 0.000000000000e+00 0.000000000000e+00 0.000000000000e+00 0.000000000000e+00 
4.333333333333e-01 0.000000000000e+00 1.013250000000e+05 1.013250000000e+05 1.000000000000e+00 2.220446049250e-16 0.000000000000e+00 0.000000000000e+00 0.000000000000e+00 0.000000000000e+00 
4.666666666667e-01 0.000000000000e+00 1.013250000000e+05 1.013250000000e+05 1.000000000000e+00 2.220446049250e-16 0.000000000000e+00 0.000000000000e+00 0.000000000000e+00 0.000000000000e+00 
5.000000000000e-01 0.000000000000e+00 1.013250000000e+05 1.013250000000e+05 1.000000000000e+00 2.220446049250e-16 0.000000000000e+00 0.000000000000e+00 0.000000000000e+00 0.000000000000e+00 
5.333333333333e-01 0.000000000000e+00 1.013250000000e+05 1.013250000000e+05 1.000000000000e+00 2.220446049250e-16 0.000000000000e+00 0.000000000000e+00 0.000000000000e+00 0.000000000000e+00 
5.666666666667e-01 0.000000000000e+00 1.013250000000e+05 1.013250000000e+05 1.000000000000e+00 2.220446049250e-16 0.000000000000e+00 0.000000000000e+00 0.000000000000e+00 0.000000000000e+00 
6.000000000000e-01 0.000000000000e+00 1.013250000000e+05 1.013250000000e+05 1.000000000000e+00 2.220446049250e-16 0.000000000000e+00 0.000000000000e+00 0.000000000000e+00 0.000000000000e+00 
6.333333333333e-01 0.000000000000e+00 1.013250000000e+05 1.013250000000e+05 1.000000000000e+00 2.220446049250e-16 0.000000000000e+00 0.000000000000e+00 0.000000000000e+00 0.000000000000e+00 
6.666666666667e-01 0.000000000000e+00 1.013250000000e+05 1.013250000000e+05 1.000000000000e+00 2.220446049250e-16 0.000000000000e+00 0.000000000000e+00 0.000000000000e+00 0.000000000000e+00 
7.000000000000e-01 0.000000000000e+00 1.013250000000e+05 1.013250000000e+05 1.000000000000e+00 2.220446049250e-16 0.000000000000e+00 0.000000000000e+00 0.000000000000e+00 0.000000000000e+00 
7.333333333333e-01 0.000000000000e+00 1.013250000000e+05 1.013250000000e+05 1.000000000000e+00 2.220446049250e-16 0.000000000000e+00 0.000000000000e+00 0.000000000000e+00 0.000000000000e+00 
7.666666666667e-01 0.000000000000e+00 1.013250000000e+05 1.013250000000e+05 1.000000000000e+00 2.220446049250e-16 0.000000000000e+00 0.000000000000e+00 0.000000000000e+00 0.000000000000e+00 
8.000000000000e-01 0.000000000000e+00 1.013250000000e+05 1.013250000000e+05 1.000000000000e+00 2.220446049250e-16 0.000000000000e+00 0.000000000000e+00 0.000000000000e+00 0.000000000000e+00 
8.333333333333e-01 0.000000000000e+00 1.013250000000e+05 1.013250000000e+05 1.000000000000e+00 2.220446049250e-16 0.000000000000e+00 0.000000000000e+00 0.000000000000e+00 0.000000000000e+00 
8.666666666667e-01 0.000000000000e+00 1.013250000000e+05 1.013250000000e+05 1.000000000000e+00 2.220446049250e-16 0.000000000000e+00 0.000000000000e+00 0.000000000000e+00 0.000000000000e+00 
9.000000000000e-01 0.000000000000e+00 1.013250000000e+05 1.013250000000e+05 1.000000000000e+00 2.220446049250e-16 0.000000000000e+00 0.000000000000e+00 0.000000000000e+00 0.000000000000e+00 
9.333333333333e-01 0.000000000000e+00 1.013250000000e+05 1.013250000000e+05 1.000000000000e+00 2.220446049250e-16 0.000000000000e+00 0.000000000000e+00 0.000000000000e+00 0.000000000000e+00 
9.666666666667e-01 0.000000000000e+00 1.013250000000e+05 1.013250000000e+05 1.000000000000e+00 2.220446049250e-16 0.000000000000e+00 0.000000000000e+00 0.000000000000e+00 0.000000000000e+00 
1.000000000000e+00 0.000000000000e+00 1.013250000000e+05 1.013250000000e+05 1.000000000000e+00 2.220446049250e-16 0.000000000000e+00 0.000000000000e+00 0.000000000000e+00 0.000000000000e+00 
 TITLE = "Profiles along polylines"
 VARIABLES = "DIST" "PRESSURE1" "PRESSURE2" "PRESSURE_W" "SATURATION1" SATURATION2 "VELOCITY_X1" "VELOCITY_Y1" "VELOCITY_X2" "VELOCITY_Y2" 
 ZONE T="TIME=1.000000000000e-03"
0.000000000000e+00 0.000000000000e+00 1.013250000000e+05 1.013250000000e+05 1.000000000000e+00 4.440892098501e-16 4.807721060130e-18 1.147017897404e-17 6.811495389176e-23 1.015575194692e-22 
3.333333333333e-02 2.037957498259e-07 1.013204137438e+05 1.013204137436e+05 9.999999999999e-01 7.727152251391e-14 8.671064004116e-16 8.979386741708e-16 6.499956067870e-21 6.840859466479e-21 
6.666666666667e-02 2.039499584869e-07 1.013158274864e+05 1.013158274862e+05 9.999999999999e-01 7.749356711884e-14 8.470751311040e-16 9.604523962096e-16 5.819997863965e-21 7.330054496052e-21 
1.000000000000e-01 2.035966489635e-07 1.013112412281e+05 1.013112412279e+05 9.999999999999e-01 7.693845560652e-14 1.044639517085e-15 1.282800967796e-15 7.187239688116e-21 9.326175426630e-21 
1.333333333333e-01 2.029145796369e-07 1.013066549689e+05 1.013066549687e+05 9.999999999999e-01 7.704947790899e-14 1.813377776369e-15 1.959392017596e-15 1.276870662043e-20 1.462146200320e-20 
1.666666666667e-01 2.023786549237e-07 1.013020687087e+05 1.013020687085e+05 9.999999999999e-01 7.660538869914e-14 2.419629008621e-15 2.571800290757e-15 1.732962501091e-20 1.904140712169e-20 
2.000000000000e-01 2.024881958612e-07 1.012974824476e+05 1.012974824474e+05 9.999999999999e-01 7.682743330406e-14 2.140301840747e-15 2.428251825133e-15 1.485991813778e-20 1.804194940471e-20 
2.333333333333e-01 2.028418710633e-07 1.012928961856e+05 1.012928961854e+05 9.999999999999e-01 7.660538869914e-14 1.500781003195e-15 1.965742385368e-15 9.453363905379e-21 1.409854082396e-20 
2.666666666667e-01 2.025962318732e-07 1.012883099226e+05 1.012883099224e+05 9.999999999999e-01 7.660538869914e-14 1.663532978447e-15 2.109736576881e-15 1.058336010874e-20 1.500842489344e-20 
3.000000000000e-01 2.018560831629e-07 1.012837236587e+05 1.012837236585e+05 9.999999999999e-01 7.638334409421e-14 2.663976179292e-15 2.861768263182e-15 1.854977215349e-20 2.085492188875e-20 
3.333333333333e-01 2.017657216251e-07 1.012791373939e+05 1.012791373937e+05 9.999999999999e-01 7.616129948929e-14 2.924559581952e-15 3.046732511980e-15 2.089531148752e-20 2.252473351770e-20 
3.666666666667e-01 2.027279430237e-07 1.012745511281e+05 1.012745511279e+05 9.999999999999e-01 7.682743330406e-14 1.818649974403e-15 2.157391125874e-15 1.216637720571e-20 1.564869479466e-20 
4.000000000000e-01 2.035014802629e-07 1.012699648614e+05 1.012699648612e+05 9.999999999999e-01 7.682743330406e-14 7.556546892323e-16 1.273288688474e-15 3.695508416185e-21 8.726572209896e-21 
4.333333333333e-01 2.030707292666e-07 1.012653785938e+05 1.012653785936e+05 9.999999999999e-01 7.704947790899e-14 1.232670936916e-15 1.560804112845e-15 7.585801778191e-21 1.088698560969e-20 
4.666666666667e-01 2.024278808366e-07 1.012607923252e+05 1.012607923250e+05 9.999999999999e-01 7.649436639667e-14 2.243285564320e-15 2.273582087362e-15 1.594659037080e-20 1.677208294758e-20 
5.000000000000e-01 2.030122762596e-07 1.012562060557e+05 1.012562060555e+05 9.999999999999e-01 7.671641100160e-14 1.807417841623e-15 1.890010951200e-15 1.300799005357e-20 1.379695248827e-20 
5.333333333333e-01 2.042660518239e-07 1.012516197853e+05 1.012516197851e+05 9.999999999999e-01 7.738254481637e-14 4.444646764550e-16 7.089071658846e-16 2.240497943291e-21 4.916154422430e-21 
5.666666666667e-01 2.045770105364e-07 1.012470335139e+05 1.012470335137e+05 9.999999999999e-01 7.760458942130e-14 4.195968483190e-17 3.586337217311e-16 -7.628467701017e-22 2.195014334519e-21 
6.000000000000e-01 2.039684304901e-07 1.012424472415e+05 1.012424472413e+05 9.999999999999e-01 7.727152251391e-14 8.007211780805e-16 8.874437202531e-16 5.286663320611e-21 6.158242352244e-21 
6.333333333333e-01 2.038637654663e-07 1.012378609683e+05 1.012378609681e+05 9.999999999999e-01 7.749356711884e-14 1.114799361247e-15 1.080563025879e-15 8.116259542680e-21 7.840746183857e-21 
6.666666666667e-01 2.046187548234e-07 1.012332746940e+05 1.012332746938e+05 9.999999999999e-01 7.749356711884e-14 4.676424191150e-16 4.696132882794e-16 3.072744144483e-21 3.354015832918e-21 
7.000000000000e-01 2.051924773097e-07 1.012286884189e+05 1.012286884187e+05 9.999999999999e-01 7.782663402622e-14 -1.481503638514e-16 -6.003145922557e-17 -1.355507944787e-21 -4.694161920309e-22 
7.333333333333e-01 2.050570094617e-07 1.012241021428e+05 1.012241021426e+05 9.999999999999e-01 7.749356711884e-14 -1.110634027918e-17 6.501482194856e-17 -3.038987868236e-22 2.661869914471e-22 
7.666666666667e-01 2.048155445901e-07 1.012195158657e+05 1.012195158655e+05 9.999999999999e-01 7.749356711884e-14 4.173546437143e-16 2.222063961158e-16 2.851136042534e-21 1.523422203425e-21 
8.000000000000e-01 2.049648780240e-07 1.012149295877e+05 1.012149295875e+05 9.999999999999e-01 7.771561172376e-14 5.515735700416e-16 -9.849100470564e-17 3.796635304137e-21 -5.154495816164e-22 
8.333333333333e-01 2.052570024462e-07 1.012103433087e+05 1.012103433085e+05 9.999999999999e-01 7.760458942130e-14 1.151400969610e-15 -9.080237523182e-16 7.716261796104e-21 -6.110109768000e-21 
8.666666666667e-01 2.060209073832e-07 1.012057570288e+05 1.012057570286e+05 9.999999999999e-01 7.782663402622e-14 4.270772331513e-15 -2.728335754711e-15 2.842116421164e-20 -1.818014803194e-20 
9.000000000000e-01 6.717505487095e-07 1.012011707484e+05 1.012011707477e+05 9.999999999997e-01 2.546851618490e-13 1.755990078527e-14 -6.441618683409e-15 1.170697093173e-19 -4.313693763999e-20 
9.333333333333e-01 3.157662833973e-04 1.011965847796e+05 1.011965844638e+05 9.999999998803e-01 1.196782672963e-10 7.850582610792e-14 -3.781225857681e-15 6.739458582405e-19 -2.519488491294e-20 
9.666666666667e-01 2.098372995577e-01 1.011922065791e+05 1.011919967418e+05 9.999999204696e-01 7.953043501541e-08 7.854940963305e-14 -2.748655695425e-15 6.792647704144e-19 -1.828531786187e-20 
1.000000000000e+00 1.385468403130e+02 1.013250000000e+05 1.011864531597e+05 9.999474893621e-01 5.251063794698e-05 9.374365602381e-15 -3.459667175816e-15 6.717740497140e-23 2.323214612742e-23 
 TITLE = "Profiles along polylines"
 VARIABLES = "DIST" "PRESSURE1" "PRESSURE2" "PRESSURE_W" "SATURATION1" SATURATION2 "VELOCITY_X1" "VELOCITY_Y1" "VELOCITY_X2" "VELOCITY_Y2" 
 ZONE T="TIME=5.000000000000e+00"
0.000000000000e+00 0.000000000000e+00 1.013250000000e+05 1.013250000000e+05 1.000000000000e+00 0.000000000000e+00 4.424331700380e-18 9.545142956519e-18 8.680472603920e-23 4.142120930141e-23 
3.333333333333e-02 1.527200401427e+00 1.010442299421e+05 1.010427027417e+05 9.999994211758e-01 5.788242239957e-07 -2.696305623490e-15 -2.698919464698e-15 3.037290542082e-20 -3.505763630491e-20 
6.666666666667e-02 2.500712089932e+00 1.007629049918e+05 1.007604042797e+05 9.999990522051e-01 9.477948890169e-07 -3.213114372142e-15 -3.500280407181e-15 3.331437680704e-20 -1.942176698236e-20 
1.000000000000e-01 3.099745129410e+00 1.004812033253e+05 1.004781035802e+05 9.999988251656e-01 1.174834401207e-06 -3.884742497305e-15 -4.492101095463e-15 -6.874317953891e-20 -1.965374918051e-19 
1.333333333333e-01 3.457988058973e+00 1.001992578588e+05 1.001957998707e+05 9.999986893879e-01 1.310612054328e-06 -5.451446153587e-15 -5.975183557958e-15 1.138235268600e-19 5.847259645526e-20 
1.666666666667e-01 3.668124888234e+00 9.991716073758e+04 9.991349261269e+04 9.999986097440e-01 1.390256013867e-06 -6.762116321359e-15 -7.089742229762e-15 8.069759712005e-19 3.950284112985e-19 
2.000000000000e-01 3.790659220033e+00 9.963497210950e+04 9.963118145028e+04 9.999985633022e-01 1.436697750989e-06 -6.674674346397e-15 -7.474099463266e-15 1.186522110417e-18 1.352693515654e-19 
2.333333333333e-01 3.863241754312e+00 9.935272939885e+04 9.934886615710e+04 9.999985357927e-01 1.464207257329e-06 -5.401538785475e-15 -6.627478499072e-15 5.252551897599e-19 6.846057433944e-19 
2.666666666667e-01 3.908545425369e+00 9.907045513687e+04 9.906654659145e+04 9.999985186222e-01 1.481377801760e-06 -5.171170914258e-15 -6.733161074287e-15 -3.069928329568e-19 8.417303700704e-19 
3.000000000000e-01 3.940189861483e+00 9.878816285267e+04 9.878422266281e+04 9.999985066286e-01 1.493371359462e-06 -7.017032919831e-15 -8.835072937608e-15 -3.034321386774e-19 6.805524890450e-20 
3.333333333333e-01 3.967036466855e+00 9.850586134409e+04 9.850189430762e+04 9.999984964535e-01 1.503546490866e-06 -8.246586483806e-15 -9.306023179826e-15 -6.920995386646e-19 -4.229810966336e-19 
3.666666666667e-01 3.996558887403e+00 9.822355802934e+04 9.821956147045e+04 9.999984852642e-01 1.514735783914e-06 -6.995307125948e-15 -7.154787631226e-15 -1.503588537541e-18 8.727838452312e-19 
4.000000000000e-01 4.038242403591e+00 9.794126232762e+04 9.793722408521e+04 9.999984694657e-01 1.530534253225e-06 -4.492258046453e-15 -4.791724560881e-15 -7.457617814646e-19 7.461512106592e-19 
4.333333333333e-01 4.108353603387e+00 9.765899040269e+04 9.765488204909e+04 9.999984428929e-01 1.557107099370e-06 -3.406372031018e-15 -3.835394443833e-15 -1.740921276512e-18 -1.355199087298e-18 
4.666666666667e-01 4.238223996893e+00 9.737677340140e+04 9.737253517740e+04 9.999983936707e-01 1.606329277148e-06 -5.229381483067e-15 -6.083329081426e-15 -2.697063798281e-18 -1.089734704536e-18 
5.000000000000e-01 4.489779536364e+00 9.709467289878e+04 9.709018311924e+04 9.999982983287e-01 1.701671341836e-06 -5.715761799711e-15 -5.721355403075e-15 -8.446109009315e-19 2.349959061210e-18 
5.333333333333e-01 4.985024819825e+00 9.681281022209e+04 9.680782519727e+04 9.999981106257e-01 1.889374257047e-06 -2.675671061535e-15 -3.828561952044e-16 -6.808641363168e-19 6.997287726383e-18 
5.666666666667e-01 5.961371602520e+00 9.653142147892e+04 9.652546010732e+04 9.999977405805e-01 2.259419451089e-06 7.652506442433e-16 3.098430199976e-15 1.192121462157e-18 9.045950971136e-18 
6.000000000000e-01 7.873193920906e+00 9.625095856111e+04 9.624308536719e+04 9.999970159808e-01 2.984019227714e-06 3.426714609692e-16 3.210253439672e-15 3.595675922857e-18 1.231466959192e-17 
6.333333333333e-01 1.157292494232e+01 9.597226925906e+04 9.596069633412e+04 9.999956137457e-01 4.386254282229e-06 9.287866099539e-17 4.408611071052e-15 1.084256079289e-17 2.339816612388e-17 
6.666666666667e-01 1.862228445182e+01 9.569690680171e+04 9.567828451725e+04 9.999929419680e-01 7.058032030161e-06 1.172949888163e-15 6.692078850082e-15 2.007537589387e-17 2.005494262119e-17 
7.000000000000e-01 3.180189982407e+01 9.542763671646e+04 9.539583481664e+04 9.999879467619e-01 1.205323805220e-05 1.484437175626e-15 2.264446843813e-14 8.933600420689e-18 9.743704854185e-18 
7.333333333333e-01 5.589179361269e+01 9.516921309333e+04 9.511332129971e+04 9.999788164513e-01 2.118354869696e-05 -9.587573010216e-15 5.469525671724e-14 1.328719405170e-17 7.511187987278e-17 
7.666666666667e-01 9.875070456313e+01 9.492945207554e+04 9.483070137098e+04 9.999625724955e-01 3.742750453628e-05 -1.585443073267e-14 6.299853969644e-14 2.913120480491e-17 1.284081490048e-16 
8.000000000000e-01 1.725550969373e+02 9.472046420145e+04 9.454790910451e+04 9.999345998927e-01 6.540010729017e-05 8.322973375077e-15 5.632035385355e-14 7.991753869464e-17 9.754121983588e-17 
8.333333333333e-01 2.946279986912e+02 9.455947884882e+04 9.426485085013e+04 9.998883330422e-01 1.116669577838e-04 -6.618768782627e-14 -7.737971741547e-14 1.225735856212e-16 1.834081118694e-17 
8.666666666667e-01 4.863495479579e+02 9.446776086242e+04 9.398141131446e+04 9.998156686578e-01 1.843313421713e-04 -4.321798876279e-13 -4.629523856074e-13 -8.580447951431e-17 -1.326431577357e-16 
9.000000000000e-01 7.667539900939e+02 9.446424252823e+04 9.369748853814e+04 9.997576264781e-01 2.423735219164e-04 -1.107720042851e-12 -1.124959209622e-12 -4.337689469250e-16 -7.872722131971e-16 
9.333333333333e-01 1.296812699915e+03 9.470902092334e+04 9.341220822342e+04 9.991523313748e-01 8.476686252310e-04 -1.385075543489e-12 -1.503737655689e-12 -1.000045629359e-15 -2.782521780516e-15 
9.666666666667e-01 2.557200639647e+03 9.568020024641e+04 9.312299960676e+04 1.000000000000e+00 0.000000000000e+00 4.796530983830e-12 5.297800722941e-12 -7.629388185814e-16 -6.157041673250e-15 
1.000000000000e+00 8.516635851615e+03 1.013250000000e+05 9.280836414839e+04 9.397166693930e-01 6.028333060702e-02 -3.747474575596e-12 -3.749064112069e-12 -7.463162719869e-18 -6.027187460714e-17 
 TITLE = "Profiles along polylines"
 VARIABLES = "DIST" "PRESSURE1" "PRESSURE2" "PRESSURE_W" "SATURATION1" SATURATION2 "VELOCITY_X1" "VELOCITY_Y1" "VELOCITY_X2" "VELOCITY_Y2" 
 ZONE T="TIME=1.000000000000e+01"
0.000000000000e+00 0.000000000000e+00 1.013250000000e+05 1.013250000000e+05 1.000000000000e+00 0.000000000000e+00 2.003184933693e-18 1.378266867676e-17 5.316892340328e-23 1.129604981160e-22 
3.333333333333e-02 2.631779258347e+00 1.010325987857e+05 1.010299670064e+05 9.999990025293e-01 9.974706567384e-07 -2.431932276595e-15 -2.436489847795e-15 6.427515544920e-22 3.222564433086e-21 
6.666666666667e-02 4.582638132347e+00 1.007395157973e+05 1.007349331592e+05 9.999982631343e-01 1.736865678503e-06 -2.876344756991e-15 -3.101976039141e-15 -4.688955814976e-21 -3.817030131971e-20 
1.000000000000e-01 5.998159318835e+00 1.004458957643e+05 1.004398976050e+05 9.999977266376e-01 2.273362363137e-06 -3.369612465868e-15 -3.805462154891e-15 -1.080777531435e-19 -1.583301158630e-19 
1.333333333333e-01 7.006237154261e+00 1.001518658327e+05 1.001448595955e+05 9.999973445661e-01 2.655433943621e-06 -4.675475068371e-15 -5.019412707011e-15 -8.395376837640e-20 -1.051877740203e-19 
1.666666666667e-01 7.714888260766e+00 9.985753338729e+04 9.984981849903e+04 9.999970759802e-01 2.924019799622e-06 -6.361156851968e-15 -6.302379293723e-15 -4.053190636337e-19 6.556090590018e-20 
2.000000000000e-01 8.212824637153e+00 9.956298662034e+04 9.955477379571e+04 9.999968872573e-01 3.112742665734e-06 -6.860371480633e-15 -6.560484757000e-15 -5.785006911384e-19 6.342625273158e-19 
2.333333333333e-01 8.572462495492e+00 9.926829752281e+04 9.925972506031e+04 9.999967509510e-01 3.249049010057e-06 -6.032656610595e-15 -5.859334958815e-15 -2.036644886845e-19 7.849252408964e-19 
2.666666666667e-01 8.855083075514e+00 9.897352701595e+04 9.896467193288e+04 9.999966438350e-01 3.356165036328e-06 -5.493016201032e-15 -5.593347035706e-15 -2.789793187033e-19 3.175426437576e-19 
3.000000000000e-01 9.118200419396e+00 9.867873227797e+04 9.866961407755e+04 9.999965441109e-01 3.455889140747e-06 -6.442923563022e-15 -6.666768282059e-15 3.382762241215e-19 1.466421831097e-19 
3.333333333333e-01 9.425793341652e+00 9.838397691951e+04 9.837455112617e+04 9.999964275301e-01 3.572469934543e-06 -7.607430353281e-15 -7.730352024744e-15 -1.355045552679e-19 -9.890179232299e-19 
3.666666666667e-01 9.862912409466e+00 9.808934551077e+04 9.807948259836e+04 9.999962618576e-01 3.738142432153e-06 -6.695588115199e-15 -6.969384866392e-15 -7.425660120276e-19 -1.289702725702e-18 
4.000000000000e-01 1.055725186929e+01 9.779496503603e+04 9.778440778416e+04 9.999959986960e-01 4.001304030554e-06 -4.938072028525e-15 -5.833234922888e-15 -7.993977224680e-19 -1.080757919311e-18 
4.333333333333e-01 1.171164906624e+01 9.750103721690e+04 9.748932556784e+04 9.999955611679e-01 4.438832112652e-06 -5.154067378557e-15 -6.167114447105e-15 -5.310807372407e-19 -8.580205793610e-19 
4.666666666667e-01 1.365305378558e+01 9.720788721677e+04 9.719423416298e+04 9.999948253561e-01 5.174643915140e-06 -7.184317681501e-15 -7.763985046394e-15 -5.993543657670e-19 -2.094528916677e-18 
5.000000000000e-01 1.690514704336e+01 9.691603586747e+04 9.689913072043e+04 9.999935927802e-01 6.407219780735e-06 -7.093184485934e-15 -7.263575949778e-15 -2.255448882791e-18 -3.086193872761e-18 
5.333333333333e-01 2.229298732117e+01 9.662630375143e+04 9.660401076411e+04 9.999915507349e-01 8.449265124444e-06 -3.372005309681e-15 -5.392183901373e-15 -1.810692081029e-18 -2.873205909819e-18 
5.666666666667e-01 3.108784765604e+01 9.633995525948e+04 9.630886741182e+04 9.999882173949e-01 1.178260514001e-05 -7.015454685725e-16 -4.043751826866e-15 2.962616303772e-18 -1.443379741762e-18 
6.000000000000e-01 4.519710152605e+01 9.605888745761e+04 9.601369035608e+04 9.999828698466e-01 1.713015344906e-05 -2.323039575491e-15 -3.324894067119e-15 3.651490830521e-18 3.038378468380e-19 
6.333333333333e-01 6.739508125384e+01 9.578585971082e+04 9.571846462956e+04 9.999744565903e-01 2.554340974581e-05 -4.377974389172e-15 -3.245587814770e-15 -8.592955057078e-19 1.411980834863e-18 
6.666666666667e-01 1.015728780982e+02 9.552474215558e+04 9.542316927748e+04 9.999615028635e-01 3.849713652782e-05 -2.083691408837e-16 -2.435069221751e-15 8.038688452163e-18 8.429041468602e-18 
7.000000000000e-01 1.529543869618e+02 9.528073061218e+04 9.512777622522e+04 9.999420287578e-01 5.797124220230e-05 4.223409570439e-15 8.344831881373e-16 8.558032877100e-18 7.129931525040e-18 
7.333333333333e-01 2.281802068948e+02 9.506043008362e+04 9.483224987673e+04 9.999135174198e-01 8.648258021515e-05 1.366967292753e-14 6.405014704370e-15 1.979822322148e-17 1.516752792916e-18 
7.666666666667e-01 3.351028669254e+02 9.487165115670e+04 9.453654828978e+04 9.998729926624e-01 1.270073375931e-04 3.282018161062e-14 4.238736614847e-14 4.087712936421e-17 3.604556099512e-18 
8.000000000000e-01 4.820877802170e+02 9.472271481233e+04 9.424062703211e+04 9.998172839104e-01 1.827160895802e-04 4.315248253712e-14 1.500967543519e-13 -3.514749574856e-17 -5.684044023142e-17 
8.333333333333e-01 6.766565534741e+02 9.462110313250e+04 9.394444657903e+04 9.997435403997e-01 2.564596003320e-04 1.498119038052e-13 6.073750564222e-13 -3.501233104268e-17 -2.998567217471e-18 
8.666666666667e-01 9.237312218555e+02 9.457171301161e+04 9.364798178976e+04 9.997042830499e-01 2.957169501188e-04 6.883682438486e-13 2.323183912370e-12 -1.231154942438e-16 -2.936676169217e-17 
9.000000000000e-01 1.328119372508e+03 9.467878715362e+04 9.335066778111e+04 9.990286729018e-01 9.713270982186e-04 2.413526431757e-12 8.218755785783e-12 -8.092434994066e-16 -7.155607632120e-16 
9.333333333333e-01 2.097882335449e+03 9.514927924110e+04 9.305139690565e+04 9.978230054730e-01 2.176994526955e-03 8.181073506491e-12 2.961191646426e-11 -4.645669948459e-17 -1.500340014607e-15 
9.666666666667e-01 3.755829572783e+03 9.650321599945e+04 9.274738642667e+04 9.938579333103e-01 6.142066689684e-03 1.061046998985e-11 8.094403425783e-11 3.551576346107e-16 -2.404237965550e-15 
1.000000000000e+00 8.900897131418e+03 1.013250000000e+05 9.242410286858e+04 9.300302320371e-01 6.996976796287e-02 1.502939764640e-12 3.061316266232e-11 2.949009593543e-18 -1.994670389888e-17 
 TITLE = "Profiles along polylines"
 VARIABLES = "DIST" "PRESSURE1" "PRESSURE2" "PRESSURE_W" "SATURATION1" SATURATION2 "VELOCITY_X1" "VELOCITY_Y1" "VELOCITY_X2" "VELOCITY_Y2" 
 ZONE T="TIME=2.000000000000e+01"
0.000000000000e+00 0.000000000000e+00 1.013250000000e+05 1.013250000000e+05 1.000000000000e+00 3.330669073875e-16 5.853021299330e-18 9.391203987425e-18 4.158728919972e-23 6.706686338790e-23 
3.333333333333e-02 4.341335264816e+00 1.010265660950e+05 1.010222247597e+05 9.999983545905e-01 1.645409478668e-06 -1.398928249854e-15 -1.316760255797e-15 -4.542185370629e-21 3.460891744939e-21 
6.666666666667e-02 7.943385644261e+00 1.007273921961e+05 1.007194488105e+05 9.999969893774e-01 3.010622593003e-06 -2.272373664533e-15 -2.212618742061e-15 2.319370593168e-21 3.518334957217e-20 
1.000000000000e-01 1.094231959484e+01 1.004276136700e+05 1.004166713504e+05 9.999958527515e-01 4.147248549469e-06 -1.457266951366e-15 -1.845768511101e-15 -2.163274662410e-22 9.200452828475e-20 
1.333333333333e-01 1.347879160875e+01 1.001273703510e+05 1.001138915594e+05 9.999948914032e-01 5.108596807357e-06 -2.534932349579e-16 -1.022724769165e-15 5.347412015611e-20 1.222632454395e-19 
1.666666666667e-01 1.570297320436e+01 9.982681154554e+04 9.981110857234e+04 9.999940484161e-01 5.951583873953e-06 -1.486820899111e-15 -2.012427119608e-15 8.414645771441e-20 8.238435490988e-20 
2.000000000000e-01 1.778223547769e+01 9.952610367248e+04 9.950832143700e+04 9.999932603549e-01 6.739645068143e-06 -4.306500864960e-15 -4.289133055252e-15 -2.787024284259e-20 -1.597401361110e-19 
2.333333333333e-01 1.991234515950e+01 9.922544139880e+04 9.920552905364e+04 9.999924530221e-01 7.546977938810e-06 -4.790643516840e-15 -4.775950638600e-15 -2.195272004596e-19 -3.880354744488e-19 
2.666666666667e-01 2.233304074384e+01 9.892506313162e+04 9.890273009088e+04 9.999915355542e-01 8.464445772183e-06 -2.000826868243e-15 -2.641467730357e-15 -1.048409324501e-19 -3.149765404041e-19 
3.000000000000e-01 2.534880617985e+01 9.862527168006e+04 9.859992287388e+04 9.999903925490e-01 9.607451030180e-06 -2.223538715597e-16 -1.102110664709e-15 -2.235847382627e-20 1.516690420462e-20 
3.333333333333e-01 2.935550264341e+01 9.832646074398e+04 9.829710524134e+04 9.999888739709e-01 1.112602905651e-05 -2.597305250787e-15 -2.664388214466e-15 3.488110653397e-20 4.258379342844e-19 
3.666666666667e-01 3.487317617623e+01 9.802914754617e+04 9.799427436999e+04 9.999867827175e-01 1.321728250225e-05 -5.715571528081e-15 -5.063341558897e-15 8.365928842040e-19 7.334546817920e-19 
4.000000000000e-01 4.258474760268e+01 9.773401131599e+04 9.769142656839e+04 9.999838599548e-01 1.614004518879e-05 -4.477465541010e-15 -4.136300104889e-15 5.147839658646e-19 3.195938567312e-19 
4.333333333333e-01 5.337933357197e+01 9.744193638082e+04 9.738855704724e+04 9.999797686988e-01 2.023130121720e-05 -6.026046498684e-17 -9.416937629844e-16 2.385964555288e-19 -8.161950950977e-20 
4.666666666667e-01 6.839757960731e+01 9.715405726043e+04 9.708565968082e+04 9.999740766334e-01 2.592336664686e-05 1.095021233411e-15 -6.418123682867e-16 3.431748481776e-19 -6.243268653698e-19 
5.000000000000e-01 8.907463286417e+01 9.687180141625e+04 9.678272678338e+04 9.999662398234e-01 3.376017660162e-05 -2.135921784715e-15 -4.158026891793e-15 7.266756909326e-19 -1.791986975945e-18 
5.333333333333e-01 1.171742912120e+02 9.659692322718e+04 9.647974893597e+04 9.999555897719e-01 4.441022811197e-05 -3.777252852890e-15 -6.876582725262e-15 4.697789280239e-19 -5.337730334288e-18 
5.666666666667e-01 1.548055424894e+02 9.633152045349e+04 9.617671491100e+04 9.999413271513e-01 5.867284865868e-05 2.313452562221e-15 -2.395847674033e-15 2.861382339905e-18 -4.129153601293e-18 
6.000000000000e-01 2.044100878471e+02 9.607802184378e+04 9.587361175593e+04 9.999225265326e-01 7.747346739495e-05 9.788921171796e-15 6.923142754287e-15 3.731655128487e-18 1.270585639952e-18 
6.333333333333e-01 2.687060733195e+02 9.583913118847e+04 9.557042511515e+04 9.998981577112e-01 1.018422888486e-04 1.045423234649e-14 9.328209440122e-15 7.181486076649e-18 1.857150383817e-18 
6.666666666667e-01 3.505676158661e+02 9.561770751475e+04 9.526713989889e+04 9.998671313679e-01 1.328686320894e-04 4.395883329053e-15 -6.527428950345e-15 -1.876088890346e-17 -2.324577092342e-17 
7.000000000000e-01 4.528102935009e+02 9.541655175258e+04 9.496374145908e+04 9.998283803707e-01 1.716196293398e-04 -6.991533549595e-15 -3.559549025226e-14 -2.199371624300e-17 -4.625706265081e-17 
7.333333333333e-01 5.778413549065e+02 9.523805884676e+04 9.466021749186e+04 9.997809923481e-01 2.190076519230e-04 -1.616249745657e-14 -8.175406055475e-14 2.216411191242e-17 -9.830105193155e-17 
7.666666666667e-01 7.271457276540e+02 9.508370654443e+04 9.435656081678e+04 9.997244044978e-01 2.755955022378e-04 -2.878079686730e-14 -1.191047648904e-13 5.652625291240e-17 -8.927443610256e-17 
8.000000000000e-01 9.007288364916e+02 9.495350119744e+04 9.405277236095e+04 9.996821092666e-01 3.178907333528e-04 -1.495406625901e-13 -1.619030743550e-13 -3.059891255661e-17 -8.675452952574e-17 
8.333333333333e-01 1.140733144866e+03 9.488935672335e+04 9.374862357849e+04 9.993796128064e-01 6.203871936181e-04 -5.268329322963e-13 -3.294852023010e-13 -1.689824401895e-16 -4.842042845955e-16 