 TITLE = "Time curves in points"
 VARIABLES = "TIME "  "PRESSURE1"  "PRESSURE2"  "PRESSURE_W"  "SATURATION1" SATURATION2  "VELOCITY_X1"  "VELOCITY_Y1"  "VELOCITY_X2"  "VELOCITY_Y2" 
 ZONE T="POINT=POINT0"
0.000000000000e+00 0.000000000000e+00 1.013250000000e+05 1.013250000000e+05 1.000000000000e+00 1.110223024625e-16 0.000000000000e+00 0.000000000000e+00 0.000000000000e+00 0.000000000000e+00 
1.000000000000e-03 0.000000000000e+00 1.013250000000e+05 1.013250000000e+05 1.000000000000e+00 0.000000000000e+00 8.770228663641e-18 1.333745789090e-17 3.858680968006e-23 8.749420231550e-23 
2.000000000000e-03 0.000000000000e+00 1.013250000000e+05 1.013250000000e+05 1.000000000000e+00 0.000000000000e+00 -4.268498288479e-19 6.522219439831e-18 -3.475397065163e-24 3.438745323782e-23 
3.000000000000e-03 0.000000000000e+00 1.013250000000e+05 1.013250000000e+05 1.000000000000e+00 1.110223024625e-16 8.776364978827e-18 1.599757040609e-17 2.810836455685e-23 9.167863964073e-23 
4.000000000000e-03 0.000000000000e+00 1.013250000000e+05 1.013250000000e+05 1.000000000000e+00 2.220446049250e-16 9.311007281000e-18 1.462071365986e-17 5.864841368256e-23 4.027225465042e-23 
5.000000000000e-03 0.000000000000e+00 1.013250000000e+05 1.013250000000e+05 1.000000000000e+00 1.110223024625e-16 8.839990548642e-18 5.415698782688e-18 4.230313100944e-23 7.116134607773e-23 
6.000000000000e-03 0.000000000000e+00 1.013250000000e+05 1.013250000000e+05 1.000000000000e+00 0.000000000000e+00 6.558020853258e-18 1.308736265658e-17 4.548014589516e-23 9.339992698876e-23 
7.000000000000e-03 0.000000000000e+00 1.013250000000e+05 1.013250000000e+05 1.000000000000e+00 1.110223024625e-16 5.555731492946e-18 1.145202379948e-17 3.438728881450e-23 5.206656688453e-23 
8.000000000000e-03 0.000000000000e+00 1.013250000000e+05 1.013250000000e+05 1.000000000000e+00 1.110223024625e-16 7.628880283199e-18 1.273660252841e-17 3.318759183792e-23 8.513976328910e-23 
9.000000000000e-03 0.000000000000e+00 1.013250000000e+05 1.013250000000e+05 1.000000000000e+00 4.440892098501e-16 -1.161722238199e-19 1.436892290008e-17 6.426360179324e-23 1.011592328049e-22 
1.000000000000e-02 0.000000000000e+00 1.013250000000e+05 1.013250000000e+05 1.000000000000e+00 0.000000000000e+00 8.337886423051e-18 1.389114922748e-17 8.481360269107e-23 7.407039135934e-23 
2.000000000000e-02 0.000000000000e+00 1.013250000000e+05 1.013250000000e+05 1.000000000000e+00 3.330669073875e-16 7.554525143149e-18 1.247234246997e-17 7.179243717990e-23 8.153566731072e-23 
3.000000000000e-02 0.000000000000e+00 1.013250000000e+05 1.013250000000e+05 1.000000000000e+00 3.330669073875e-16 8.065796487461e-18 1.226077447685e-17 3.949738171754e-23 5.401572194443e-23 
4.000000000000e-02 0.000000000000e+00 1.013250000000e+05 1.013250000000e+05 1.000000000000e+00 2.220446049250e-16 1.221666055380e-17 1.116010429449e-17 8.359737915810e-23 6.568713266251e-23 
5.000000000000e-02 0.000000000000e+00 1.013250000000e+05 1.013250000000e+05 1.000000000000e+00 0.000000000000e+00 5.189430906094e-18 1.525073815262e-17 -9.274580378049e-25 7.898532564938e-23 
6.000000000000e-02 0.000000000000e+00 1.013250000000e+05 1.013250000000e+05 1.000000000000e+00 0.000000000000e+00 6.474306943789e-18 1.067029759721e-17 7.547927686477e-23 2.883535193643e-23 
7.000000000000e-02 0.000000000000e+00 1.013250000000e+05 1.013250000000e+05 1.000000000000e+00 2.220446049250e-16 9.079146755063e-18 5.315604801113e-18 1.900890911931e-24 6.987792401890e-23 
8.000000000000e-02 0.000000000000e+00 1.013250000000e+05 1.013250000000e+05 1.000000000000e+00 0.000000000000e+00 8.991805360816e-18 9.401207616511e-18 4.247379569906e-23 7.617697048503e-23 
9.000000000000e-02 0.000000000000e+00 1.013250000000e+05 1.013250000000e+05 1.000000000000e+00 1.110223024625e-16 6.032817174379e-18 1.239769647841e-17 4.696793553348e-23 6.948421507413e-23 
1.000000000000e-01 0.000000000000e+00 1.013250000000e+05 1.013250000000e+05 1.000000000000e+00 0.000000000000e+00 7.130032282090e-18 9.189493307777e-18 4.882158864922e-23 8.617319817480e-23 
2.000000000000e-01 0.000000000000e+00 1.013250000000e+05 1.013250000000e+05 1.000000000000e+00 0.000000000000e+00 2.205570497916e-18 1.475574922215e-17 1.976337566751e-23 1.011732111904e-22 
3.000000000000e-01 0.000000000000e+00 1.013250000000e+05 1.013250000000e+05 1.000000000000e+00 1.110223024625e-16 1.202868004969e-17 1.122259662284e-17 1.617794910409e-23 4.351206561641e-23 
4.000000000000e-01 0.000000000000e+00 1.013250000000e+05 1.013250000000e+05 1.000000000000e+00 3.330669073875e-16 3.525050484265e-18 7.114447643475e-18 5.597212608353e-23 1.060711323943e-22 
5.000000000000e-01 0.000000000000e+00 1.013250000000e+05 1.013250000000e+05 1.000000000000e+00 0.000000000000e+00 6.636332743351e-18 8.320503150233e-18 2.208775389035e-23 7.600067430076e-23 
6.000000000000e-01 0.000000000000e+00 1.013250000000e+05 1.013250000000e+05 1.000000000000e+00 0.000000000000e+00 1.282605961881e-17 8.856386298516e-18 2.324284951954e-23 7.740636814159e-23 
7.000000000000e-01 0.000000000000e+00 1.013250000000e+05 1.013250000000e+05 1.000000000000e+00 0.000000000000e+00 2.701451142485e-18 1.077732495784e-17 -9.914415027446e-24 1.527428113605e-23 
8.000000000000e-01 0.000000000000e+00 1.013250000000e+05 1.013250000000e+05 1.000000000000e+00 0.000000000000e+00 7.151973353314e-18 1.217949171758e-17 3.811065514358e-24 4.920439743260e-23 
9.000000000000e-01 0.000000000000e+00 1.013250000000e+05 1.013250000000e+05 1.000000000000e+00 1.110223024625e-16 1.126427090376e-17 1.231502117995e-17 -4.782897346556e-25 6.125253462405e-23 
1.000000000000e+00 0.000000000000e+00 1.013250000000e+05 1.013250000000e+05 1.000000000000e+00 0.000000000000e+00 5.260857923325e-18 1.363716772318e-17 -3.180136656250e-23 7.499315838891e-24 
2.000000000000e+00 0.000000000000e+00 1.013250000000e+05 1.013250000000e+05 1.000000000000e+00 0.000000000000e+00 3.568020797915e-18 1.103665197607e-17 2.380040388972e-23 2.390963795306e-23 
3.000000000000e+00 0.000000000000e+00 1.013250000000e+05 1.013250000000e+05 1.000000000000e+00 0.000000000000e+00 7.162067261898e-18 1.262314059178e-17 5.683758283896e-23 5.002004386176e-23 
4.000000000000e+00 0.000000000000e+00 1.013250000000e+05 1.013250000000e+05 1.000000000000e+00 0.000000000000e+00 1.055847926935e-17 5.967844255488e-18 3.590031467112e-23 4.897842241307e-23 
5.000000000000e+00 0.000000000000e+00 1.013250000000e+05 1.013250000000e+05 1.000000000000e+00 3.330669073875e-16 2.331244102825e-18 1.207119707450e-17 -2.211068528122e-23 1.247266194881e-22 
6.000000000000e+00 0.000000000000e+00 1.013250000000e+05 1.013250000000e+05 1.000000000000e+00 0.000000000000e+00 9.419649712015e-19 1.628577499379e-17 4.973259963864e-23 6.686251695521e-23 
7.000000000000e+00 0.000000000000e+00 1.013250000000e+05 1.013250000000e+05 1.000000000000e+00 0.000000000000e+00 9.258326748447e-18 1.140518188999e-17 3.633544681985e-23 3.086489755922e-23 
8.000000000000e+00 0.000000000000e+00 1.013250000000e+05 1.013250000000e+05 1.000000000000e+00 0.000000000000e+00 6.925671467854e-18 7.653320172920e-18 3.743995556245e-23 8.639814392824e-23 
9.000000000000e+00 0.000000000000e+00 1.013250000000e+05 1.013250000000e+05 1.000000000000e+00 0.000000000000e+00 1.034208764354e-18 1.550999100156e-17 6.375391830289e-23 7.796785450831e-23 
1.000000000000e+01 0.000000000000e+00 1.013250000000e+05 1.013250000000e+05 1.000000000000e+00 0.000000000000e+00 6.337705891771e-18 9.462015351116e-18 7.601363555742e-23 9.140504897669e-23 
1.100000000000e+01 0.000000000000e+00 1.013250000000e+05 1.013250000000e+05 1.000000000000e+00 0.000000000000e+00 -2.464671395062e-18 1.457667110894e-17 4.661908673724e-23 1.126117621594e-22 
1.200000000000e+01 0.000000000000e+00 1.013250000000e+05 1.013250000000e+05 1.000000000000e+00 0.000000000000e+00 4.166885842188e-18 1.733185052162e-17 4.656808905095e-23 5.347770082624e-23 
1.300000000000e+01 0.000000000000e+00 1.013250000000e+05 1.013250000000e+05 1.000000000000e+00 0.000000000000e+00 5.034426190929e-18 1.527430106020e-17 1.744558943332e-23 9.007336518250e-23 
1.400000000000e+01 0.000000000000e+00 1.013250000000e+05 1.013250000000e+05 1.000000000000e+00 0.000000000000e+00 9.527695067873e-18 1.045629579588e-17 2.426929759908e-23 6.493134631023e-23 
1.500000000000e+01 0.000000000000e+00 1.013250000000e+05 1.013250000000e+05 1.000000000000e+00 0.000000000000e+00 3.197804514045e-18 1.414675036184e-17 4.668755122737e-23 1.155717326023e-22 
1.600000000000e+01 0.000000000000e+00 1.013250000000e+05 1.013250000000e+05 1.000000000000e+00 2.220446049250e-16 4.581338924175e-18 8.167697109204e-18 3.144989669164e-23 8.345520910957e-23 
1.700000000000e+01 0.000000000000e+00 1.013250000000e+05 1.013250000000e+05 1.000000000000e+00 0.000000000000e+00 5.154506076436e-18 9.147515712393e-18 6.197573928577e-23 5.966807911172e-23 
1.800000000000e+01 0.000000000000e+00 1.013250000000e+05 1.013250000000e+05 1.000000000000e+00 0.000000000000e+00 6.123752131476e-18 1.025575685279e-17 4.012941235188e-23 8.875272521541e-23 
1.900000000000e+01 0.000000000000e+00 1.013250000000e+05 1.013250000000e+05 1.000000000000e+00 1.110223024625e-16 2.042692145847e-18 9.974009949779e-18 4.179649436051e-23 6.939199856327e-23 
2.000000000000e+01 0.000000000000e+00 1.013250000000e+05 1.013250000000e+05 1.000000000000e+00 2.220446049250e-16 2.248787642425e-18 1.062186095828e-17 3.647663803336e-23 9.415305977882e-23 
2.100000000000e+01 0.000000000000e+00 1.013250000000e+05 1.013250000000e+05 1.000000000000e+00 0.000000000000e+00 -3.322665759185e-18 1.242572323025e-17 5.511146445389e-23 9.042375279402e-23 
2.200000000000e+01 0.000000000000e+00 1.013250000000e+05 1.013250000000e+05 1.000000000000e+00 0.000000000000e+00 1.040537510747e-17 1.133775185831e-17 6.326025894440e-23 7.493176604491e-23 
2.300000000000e+01 0.000000000000e+00 1.013250000000e+05 1.013250000000e+05 1.000000000000e+00 0.000000000000e+00 6.452453043615e-18 1.214849522991e-17 2.462878892997e-23 6.382728243452e-23 
2.400000000000e+01 0.000000000000e+00 1.013250000000e+05 1.013250000000e+05 1.000000000000e+00 0.000000000000e+00 3.091842804906e-18 9.611871698053e-18 5.724730376566e-23 7.715295299735e-23 
2.500000000000e+01 0.000000000000e+00 1.013250000000e+05 1.013250000000e+05 1.000000000000e+00 0.000000000000e+00 4.236437271589e-18 5.094156407218e-18 3.255368063747e-23 8.935498552133e-23 
2.600000000000e+01 0.000000000000e+00 1.013250000000e+05 1.013250000000e+05 1.000000000000e+00 3.330669073875e-16 8.025233261157e-18 1.140685016011e-17 4.642914602413e-23 6.278893302730e-23 
2.700000000000e+01 0.000000000000e+00 1.013250000000e+05 1.013250000000e+05 1.000000000000e+00 1.110223024625e-16 2.769094647051e-19 1.023705823880e-17 1.554806086163e-23 9.886523959533e-23 
2.800000000000e+01 0.000000000000e+00 1.013250000000e+05 1.013250000000e+05 1.000000000000e+00 1.110223024625e-16 1.073722544655e-17 9.878164573476e-18 3.874819992976e-23 8.812378820768e-23 
2.900000000000e+01 0.000000000000e+00 1.013250000000e+05 1.013250000000e+05 1.000000000000e+00 0.000000000000e+00 8.408903297367e-18 1.110143443559e-17 6.195729647217e-23 6.281974691832e-23 
3.000000000000e+01 0.000000000000e+00 1.013250000000e+05 1.013250000000e+05 1.000000000000e+00 2.220446049250e-16 8.147797382736e-18 1.191100351538e-17 5.248516071741e-23 6.120522234985e-23 
3.100000000000e+01 0.000000000000e+00 1.013250000000e+05 1.013250000000e+05 1.000000000000e+00 1.110223024625e-16 1.549358190855e-18 1.438161704095e-17 3.834670709645e-23 4.612793678498e-23 
3.200000000000e+01 0.000000000000e+00 1.013250000000e+05 1.013250000000e+05 1.000000000000e+00 3.330669073875e-16 9.676213557135e-18 1.213893036856e-17 3.978295758001e-23 8.956546094748e-23 
3.300000000000e+01 0.000000000000e+00 1.013250000000e+05 1.013250000000e+05 1.000000000000e+00 2.220446049250e-16 9.211976839990e-18 1.127043372730e-17 -1.064862214396e-23 1.038144328495e-22 
3.400000000000e+01 0.000000000000e+00 1.013250000000e+05 1.013250000000e+05 1.000000000000e+00 0.000000000000e+00 8.338041741238e-18 1.087235353088e-17 3.247848515582e-24 2.837876740785e-23 
3.500000000000e+01 0.000000000000e+00 1.013250000000e+05 1.013250000000e+05 1.000000000000e+00 2.220446049250e-16 8.910486027457e-18 1.319284682548e-17 3.153820511705e-23 6.171778733327e-23 
3.600000000000e+01 0.000000000000e+00 1.013250000000e+05 1.013250000000e+05 1.000000000000e+00 0.000000000000e+00 9.087714725150e-18 1.193195200490e-17 5.119811865818e-23 8.629160594740e-23 
3.700000000000e+01 0.000000000000e+00 1.013250000000e+05 1.013250000000e+05 1.000000000000e+00 0.000000000000e+00 8.090129167020e-18 9.810703402729e-18 6.950701865889e-23 9.065378049549e-23 
3.800000000000e+01 0.000000000000e+00 1.013250000000e+05 1.013250000000e+05 1.000000000000e+00 0.000000000000e+00 9.092710569784e-18 1.251973230760e-17 3.235061319242e-23 7.666028734065e-23 
3.900000000000e+01 0.000000000000e+00 1.013250000000e+05 1.013250000000e+05 1.000000000000e+00 0.000000000000e+00 7.304211855296e-18 1.081590198673e-17 3.332256367310e-23 8.962231311609e-23 
4.000000000000e+01 0.000000000000e+00 1.013250000000e+05 1.013250000000e+05 1.000000000000e+00 0.000000000000e+00 8.098879178215e-18 1.024195901895e-17 3.076607875104e-23 6.354388211102e-23 
4.100000000000e+01 0.000000000000e+00 1.013250000000e+05 1.013250000000e+05 1.000000000000e+00 0.000000000000e+00 3.671223246032e-18 1.626635415301e-17 3.575774050711e-23 8.931147825006e-23 
4.200000000000e+01 0.000000000000e+00 1.013250000000e+05 1.013250000000e+05 1.000000000000e+00 0.000000000000e+00 6.775656389285e-18 1.383126964954e-17 8.012827664374e-23 5.381204937745e-23 
4.300000000000e+01 0.000000000000e+00 1.013250000000e+05 1.013250000000e+05 1.000000000000e+00 0.000000000000e+00 4.787736678456e-18 8.481508459390e-18 3.510866174210e-23 8.055261303948e-23 
4.400000000000e+01 0.000000000000e+00 1.013250000000e+05 1.013250000000e+05 1.000000000000e+00 0.000000000000e+00 7.982620044520e-18 7.274228989526e-18 3.942003087459e-23 9.059520388629e-23 
4.500000000000e+01 0.000000000000e+00 1.013250000000e+05 1.013250000000e+05 1.000000000000e+00 0.000000000000e+00 5.887579953984e-18 1.621375698026e-17 3.665403207327e-23 9.538766084232e-23 
4.600000000000e+01 0.000000000000e+00 1.013250000000e+05 1.013250000000e+05 1.000000000000e+00 0.000000000000e+00 1.197383546974e-17 8.601622751087e-18 7.772613016404e-23 8.274643860927e-23 
4.700000000000e+01 0.000000000000e+00 1.013250000000e+05 1.013250000000e+05 1.000000000000e+00 0.000000000000e+00 4.146263401682e-18 1.426234179176e-17 8.717579067759e-23 7.570276432685e-23 
4.800000000000e+01 0.000000000000e+00 1.013250000000e+05 1.013250000000e+05 1.000000000000e+00 0.000000000000e+00 8.294361661972e-18 1.325556536847e-17 1.812637670883e-23 1.264239238493e-22 
4.900000000000e+01 0.000000000000e+00 1.013250000000e+05 1.013250000000e+05 1.000000000000e+00 0.000000000000e+00 4.130663064963e-18 1.368757381486e-17 1.385387355159e-23 9.726284051944e-23 
5.000000000000e+01 0.000000000000e+00 1.013250000000e+05 1.013250000000e+05 1.000000000000e+00 0.000000000000e+00 3.962898981143e-18 1.325904307778e-17 -1.680073281993e-23 8.032796066287e-23 
5.100000000000e+01 0.000000000000e+00 1.013250000000e+05 1.013250000000e+05 1.000000000000e+00 0.000000000000e+00 4.749535047468e-19 1.505764597930e-17 2.335241065949e-23 5.353774894919e-23 
5.200000000000e+01 0.000000000000e+00 1.013250000000e+05 1.013250000000e+05 1.000000000000e+00 2.220446049250e-16 7.945234919410e-18 1.258679432418e-17 -1.371041517547e-24 7.731120295675e-23 
5.300000000000e+01 0.000000000000e+00 1.013250000000e+05 1.013250000000e+05 1.000000000000e+00 0.000000000000e+00 9.696105942052e-18 1.249309008833e-17 5.112804173006e-23 6.448418438455e-23 
5.400000000000e+01 0.000000000000e+00 1.013250000000e+05 1.013250000000e+05 1.000000000000e+00 0.000000000000e+00 1.041493540530e-17 9.768159127814e-18 9.280817708449e-23 6.939789186997e-23 
5.500000000000e+01 0.000000000000e+00 1.013250000000e+05 1.013250000000e+05 1.000000000000e+00 0.000000000000e+00 2.227925792359e-18 1.078795297007e-17 4.525177882958e-23 8.602336740892e-23 
5.600000000000e+01 0.000000000000e+00 1.013250000000e+05 1.013250000000e+05 1.000000000000e+00 1.110223024625e-16 3.480262047238e-18 1.482422456620e-17 4.465046117734e-23 3.582697481111e-23 
5.700000000000e+01 0.000000000000e+00 1.013250000000e+05 1.013250000000e+05 1.000000000000e+00 0.000000000000e+00 8.829611043200e-18 1.084169292165e-17 8.760820537511e-23 5.922204192588e-23 
5.800000000000e+01 0.000000000000e+00 1.013250000000e+05 1.013250000000e+05 1.000000000000e+00 0.000000000000e+00 1.245015335251e-18 1.575003723603e-17 7.109336386024e-23 1.026085525894e-22 
5.900000000000e+01 0.000000000000e+00 1.013250000000e+05 1.013250000000e+05 1.000000000000e+00 0.000000000000e+00 9.222119260533e-18 1.024516945071e-17 8.800653053897e-23 1.155480473582e-22 
6.000000000000e+01 0.000000000000e+00 1.013250000000e+05 1.013250000000e+05 1.000000000000e+00 0.000000000000e+00 5.229571836542e-18 1.290772924419e-17 1.092530435565e-23 6.788688872317e-23 
6.100000000000e+01 0.000000000000e+00 1.013250000000e+05 1.013250000000e+05 1.000000000000e+00 2.220446049250e-16 2.056630543142e-18 1.175714375576e-17 1.550456657262e-23 7.319923926251e-23 
6.200000000000e+01 0.000000000000e+00 1.013250000000e+05 1.013250000000e+05 1.000000000000e+00 3.330669073875e-16 8.036941025758e-18 9.816945929198e-18 -1.477885470287e-24 4.929477964412e-23 
6.300000000000e+01 0.000000000000e+00 1.013250000000e+05 1.013250000000e+05 1.000000000000e+00 0.000000000000e+00 1.393191593665e-17 9.397265412991e-18 -4.378653976267e-23 6.386851454575e-23 
6.400000000000e+01 0.000000000000e+00 1.013250000000e+05 1.013250000000e+05 1.000000000000e+00 0.000000000000e+00 2.472733258200e-18 1.269962165086e-17 -1.696836521272e-23 6.469451422181e-24 
6.500000000000e+01 0.000000000000e+00 1.013250000000e+05 1.013250000000e+05 1.000000000000e+00 1.110223024625e-16 -4.053835648128e-18 1.407686145493e-17 -3.112158440668e-23 6.467503653810e-24 
6.600000000000e+01 0.000000000000e+00 1.013250000000e+05 1.013250000000e+05 1.000000000000e+00 0.000000000000e+00 5.571641126990e-18 1.352887186718e-17 1.888142563915e-23 -5.319124817289e-23 
6.700000000000e+01 0.000000000000e+00 1.013250000000e+05 1.013250000000e+05 1.000000000000e+00 0.000000000000e+00 -1.924943035554e-19 1.510999519049e-17 3.001978603891e-23 2.195991279311e-23 
6.800000000000e+01 0.000000000000e+00 1.013250000000e+05 1.013250000000e+05 1.000000000000e+00 0.000000000000e+00 2.665712654415e-18 1.201835148975e-17 4.252846641944e-23 3.484626989731e-24 
6.900000000000e+01 0.000000000000e+00 1.013250000000e+05 1.013250000000e+05 1.000000000000e+00 2.220446049250e-16 3.344127908078e-18 9.044677731600e-18 1.264110900454e-23 4.178633842575e-23 
7.000000000000e+01 0.000000000000e+00 1.013250000000e+05 1.013250000000e+05 1.000000000000e+00 0.000000000000e+00 6.383909296123e-18 9.980351627691e-18 -1.021342043691e-23 2.030447912495e-23 
7.100000000000e+01 0.000000000000e+00 1.013250000000e+05 1.013250000000e+05 1.000000000000e+00 0.000000000000e+00 1.340997598059e-19 9.643100603054e-18 -6.786327537185e-24 5.967454314525e-23 
7.200000000000e+01 0.000000000000e+00 1.013250000000e+05 1.013250000000e+05 1.000000000000e+00 0.000000000000e+00 7.745728164968e-18 8.553775020477e-18 6.816161522661e-24 8.695529603465e-23 
7.300000000000e+01 0.000000000000e+00 1.013250000000e+05 1.013250000000e+05 1.000000000000e+00 0.000000000000e+00 4.270678372189e-18 1.284899610324e-17 1.373923868402e-23 7.571949067070e-23 
7.400000000000e+01 0.000000000000e+00 1.013250000000e+05 1.013250000000e+05 1.000000000000e+00 0.000000000000e+00 1.019495988445e-17 7.348748834602e-18 1.142039613091e-22 1.083639146198e-22 
7.500000000000e+01 0.000000000000e+00 1.013250000000e+05 1.013250000000e+05 1.000000000000e+00 0.000000000000e+00 1.237408939437e-17 1.357411520134e-17 1.144258391229e-22 1.305478253057e-23 
7.600000000000e+01 0.000000000000e+00 1.013250000000e+05 1.013250000000e+05 1.000000000000e+00 0.000000000000e+00 9.230855023798e-19 1.345474516707e-17 4.039649224375e-23 1.707169129296e-23 
7.700000000000e+01 0.000000000000e+00 1.013250000000e+05 1.013250000000e+05 1.000000000000e+00 0.000000000000e+00 3.987059435103e-18 1.386615611615e-17 1.646304257839e-22 2.512786556613e-23 
7.800000000000e+01 0.000000000000e+00 1.013250000000e+05 1.013250000000e+05 1.000000000000e+00 0.000000000000e+00 7.568409853759e-18 9.595718798997e-18 9.449769175752e-23 6.132445183250e-23 
7.900000000000e+01 0.000000000000e+00 1.013250000000e+05 1.013250000000e+05 1.000000000000e+00 0.000000000000e+00 7.583542040392e-18 7.778905454568e-18 -7.070210832461e-24 5.743261391190e-23 
8.000000000000e+01 0.000000000000e+00 1.013250000000e+05 1.013250000000e+05 1.000000000000e+00 1.110223024625e-16 8.554008078613e-19 1.355354368662e-17 3.725711016681e-24 3.263455517401e-23 
8.100000000000e+01 0.000000000000e+00 1.013250000000e+05 1.013250000000e+05 1.000000000000e+00 0.000000000000e+00 1.231595926032e-17 1.365029756528e-17 1.364156236952e-22 9.019917313788e-23 
8.200000000000e+01 0.000000000000e+00 1.013250000000e+05 1.013250000000e+05 1.000000000000e+00 0.000000000000e+00 1.045970891069e-17 1.027583096018e-17 1.006127309521e-22 -2.422897874081e-23 
8.300000000000e+01 0.000000000000e+00 1.013250000000e+05 1.013250000000e+05 1.000000000000e+00 2.220446049250e-16 1.012193142411e-17 1.047081771358e-17 1.019188217112e-22 1.036506516222e-22 
8.400000000000e+01 0.000000000000e+00 1.013250000000e+05 1.013250000000e+05 1.000000000000e+00 0.000000000000e+00 4.308369195625e-18 1.338824283617e-17 8.343375294070e-24 1.362318470350e-22 
8.500000000000e+01 0.000000000000e+00 1.013250000000e+05 1.013250000000e+05 1.000000000000e+00 0.000000000000e+00 5.422223760890e-18 1.437035264346e-17 2.426554955527e-24 1.136981870783e-22 
8.600000000000e+01 0.000000000000e+00 1.013250000000e+05 1.013250000000e+05 1.000000000000e+00 0.000000000000e+00 4.347528926558e-18 1.017839413201e-17 1.442289114760e-23 1.712273848062e-22 
8.700000000000e+01 0.000000000000e+00 1.013250000000e+05 1.013250000000e+05 1.000000000000e+00 1.110223024625e-16 6.722873034657e-18 9.408631123835e-18 1.569598459915e-22 2.348152464262e-22 
8.800000000000e+01 0.000000000000e+00 1.013250000000e+05 1.013250000000e+05 1.000000000000e+00 0.000000000000e+00 8.650637286983e-18 7.486401664280e-18 1.720439197889e-22 1.849113393543e-22 
8.900000000000e+01 0.000000000000e+00 1.013250000000e+05 1.013250000000e+05 1.000000000000e+00 3.330669073875e-16 1.572538751867e-17 8.497585324206e-18 1.406439251664e-22 2.213761406128e-22 
9.000000000000e+01 0.000000000000e+00 1.013250000000e+05 1.013250000000e+05 1.000000000000e+00 0.000000000000e+00 1.045170489982e-17 1.031710710932e-17 1.767741894727e-22 2.431804288913e-22 
9.100000000000e+01 0.000000000000e+00 1.013250000000e+05 1.013250000000e+05 1.000000000000e+00 0.000000000000e+00 5.433729498472e-18 1.009216708756e-17 8.533739440322e-23 1.559210456366e-22 
9.200000000000e+01 0.000000000000e+00 1.013250000000e+05 1.013250000000e+05 1.000000000000e+00 1.110223024625e-16 7.400040690733e-18 8.873084460758e-18 1.959705973830e-22 1.786941695434e-22 
9.300000000000e+01 0.000000000000e+00 1.013250000000e+05 1.013250000000e+05 1.000000000000e+00 0.000000000000e+00 3.971325714150e-18 7.961105272236e-18 5.831513437512e-23 -7.850292175688e-24 
9.400000000000e+01 0.000000000000e+00 1.013250000000e+05 1.013250000000e+05 1.000000000000e+00 0.000000000000e+00 1.161964898001e-17 9.024755449270e-18 -2.589235801879e-23 -6.197479098401e-23 
9.500000000000e+01 0.000000000000e+00 1.013250000000e+05 1.013250000000e+05 1.000000000000e+00 4.440892098501e-16 6.054697358178e-18 9.307121403391e-18 9.222597511632e-23 1.061418768430e-22 
9.600000000000e+01 0.000000000000e+00 1.013250000000e+05 1.013250000000e+05 1.000000000000e+00 0.000000000000e+00 2.629645966741e-18 8.926284728154e-18 1.259981951536e-24 1.179199885943e-23 
9.700000000000e+01 0.000000000000e+00 1.013250000000e+05 1.013250000000e+05 1.000000000000e+00 3.330669073875e-16 6.340851237268e-18 1.058077315194e-17 5.243376910307e-23 8.308105965483e-23 
9.800000000000e+01 0.000000000000e+00 1.013250000000e+05 1.013250000000e+05 1.000000000000e+00 1.110223024625e-16 1.235174485897e-17 1.386725738974e-17 3.128567585830e-23 -1.125866196171e-22 
9.900000000000e+01 0.000000000000e+00 1.013250000000e+05 1.013250000000e+05 1.000000000000e+00 0.000000000000e+00 5.854932106943e-19 8.393282699718e-18 1.504594395697e-22 8.942641861086e-23 
1.000000000000e+02 0.000000000000e+00 1.013250000000e+05 1.013250000000e+05 1.000000000000e+00 0.000000000000e+00 5.082765081043e-18 1.067579570860e-17 1.008397322022e-22 1.419456137666e-22 
1.010000000000e+02 0.000000000000e+00 1.013250000000e+05 1.013250000000e+05 1.000000000000e+00 0.000000000000e+00 7.472908258781e-18 1.046065905577e-17 1.182268924622e-22 9.762032924873e-23 
1.020000000000e+02 0.000000000000e+00 1.013250000000e+05 1.013250000000e+05 1.000000000000e+00 0.000000000000e+00 7.129167760195e-18 1.015167298973e-17 3.492143442400e-23 6.136781283363e-23 
1.030000000000e+02 0.000000000000e+00 1.013250000000e+05 1.013250000000e+05 1.000000000000e+00 0.000000000000e+00 9.224742435713e-18 4.950591203903e-18 -2.135138074856e-23 -8.047744314933e-23 
1.040000000000e+02 0.000000000000e+00 1.013250000000e+05 1.013250000000e+05 1.000000000000e+00 0.000000000000e+00 2.271106140610e-18 9.740316510751e-18 -5.102120027179e-23 -1.328314724184e-22 
1.050000000000e+02 0.000000000000e+00 1.013250000000e+05 1.013250000000e+05 1.000000000000e+00 0.000000000000e+00 5.266606524765e-18 1.712435226511e-17 7.842376138221e-23 -9.391519768641e-23 
1.060000000000e+02 0.000000000000e+00 1.013250000000e+05 1.013250000000e+05 1.000000000000e+00 5.551115123126e-16 4.174317025373e-18 1.263082469290e-17 -2.597652248621e-23 -3.764357628125e-23 
1.070000000000e+02 0.000000000000e+00 1.013250000000e+05 1.013250000000e+05 1.000000000000e+00 0.000000000000e+00 1.120453484136e-17 1.026201375271e-17 -7.822689455613e-23 2.266698906686e-22 
1.080000000000e+02 0.000000000000e+00 1.013250000000e+05 1.013250000000e+05 1.000000000000e+00 0.000000000000e+00 4.248509314212e-18 1.547076342234e-17 6.338530812942e-23 1.791063292144e-22 
1.090000000000e+02 0.000000000000e+00 1.013250000000e+05 1.013250000000e+05 1.000000000000e+00 1.110223024625e-16 1.937129325097e-18 1.137196725338e-17 1.086622184611e-23 4.723437983516e-23 
1.100000000000e+02 0.000000000000e+00 1.013250000000e+05 1.013250000000e+05 1.000000000000e+00 2.220446049250e-16 6.893658461347e-18 1.156750532338e-17 7.665468944455e-23 -3.974835120887e-23 
1.110000000000e+02 0.000000000000e+00 1.013250000000e+05 1.013250000000e+05 1.000000000000e+00 0.000000000000e+00 9.361054242510e-18 9.712967323556e-18 1.375888147998e-22 -5.045853887452e-23 
1.120000000000e+02 0.000000000000e+00 1.013250000000e+05 1.013250000000e+05 1.000000000000e+00 0.000000000000e+00 5.151747828510e-19 1.232399287765e-17 1.528747315894e-22 3.882478680966e-23 
1.130000000000e+02 0.000000000000e+00 1.013250000000e+05 1.013250000000e+05 1.000000000000e+00 0.000000000000e+00 6.575404673361e-18 1.062276140155e-17 2.047593933511e-22 1.006170432325e-22 
1.140000000000e+02 0.000000000000e+00 1.013250000000e+05 1.013250000000e+05 1.000000000000e+00 0.000000000000e+00 7.050212824806e-18 1.352149777758e-17 6.321474408868e-23 2.777016424954e-23 
1.150000000000e+02 0.000000000000e+00 1.013250000000e+05 1.013250000000e+05 1.000000000000e+00 0.000000000000e+00 4.760370219051e-18 1.101978003652e-17 1.428567400044e-24 -3.259495883517e-23 
1.160000000000e+02 0.000000000000e+00 1.013250000000e+05 1.013250000000e+05 1.000000000000e+00 0.000000000000e+00 1.453994343980e-17 1.166273200410e-17 -2.027759250258e-23 2.647024341696e-23 
1.170000000000e+02 0.000000000000e+00 1.013250000000e+05 1.013250000000e+05 1.000000000000e+00 0.000000000000e+00 1.117694585900e-17 1.044271937337e-17 2.475546622103e-25 1.230424677395e-22 
1.180000000000e+02 0.000000000000e+00 1.013250000000e+05 1.013250000000e+05 1.000000000000e+00 1.110223024625e-16 6.063524865795e-18 8.685413740906e-18 5.499738636497e-23 1.281093987793e-24 
1.190000000000e+02 0.000000000000e+00 1.013250000000e+05 1.013250000000e+05 1.000000000000e+00 0.000000000000e+00 3.313957446003e-18 1.095107382538e-17 -3.519481976375e-23 2.062943893396e-23 
1.200000000000e+02 0.000000000000e+00 1.013250000000e+05 1.013250000000e+05 1.000000000000e+00 0.000000000000e+00 9.233166407033e-18 1.626684146395e-17 1.633546864556e-23 6.700415380034e-23 
