VARIABLES  = "X","Y","Z", "PRESSURE1", "Decay"
ZONE T="0.000000000000e+00s", N=101, E=100, F=FEPOINT, ET=QUADRILATERAL
STRANDID=1, SOLUTIONTIME=0.000000000000e+00
0.000000000000e+00 0.000000000000e+00 0.000000000000e+00 0.000000000000e+00 0.000000000000e+00 
1.000000000000e+00 0.000000000000e+00 0.000000000000e+00 0.000000000000e+00 0.000000000000e+00 
2.000000000000e+00 0.000000000000e+00 0.000000000000e+00 0.000000000000e+00 0.000000000000e+00 
3.000000000000e+00 0.000000000000e+00 0.000000000000e+00 0.000000000000e+00 0.000000000000e+00 
4.000000000000e+00 0.000000000000e+00 0.000000000000e+00 0.000000000000e+00 0.000000000000e+00 
5.000000000000e+00 0.000000000000e+00 0.000000000000e+00 0.000000000000e+00 0.000000000000e+00 
6.000000000000e+00 0.000000000000e+00 0.000000000000e+00 0.000000000000e+00 0.000000000000e+00 
7.000000000000e+00 0.000000000000e+00 0.000000000000e+00 0.000000000000e+00 0.000000000000e+00 
8.000000000000e+00 0.000000000000e+00 0.000000000000e+00 0.000000000000e+00 0.000000000000e+00 
9.000000000000e+00 0.000000000000e+00 0.000000000000e+00 0.000000000000e+00 0.000000000000e+00 
1.000000000000e+01 0.000000000000e+00 0.000000000000e+00 0.000000000000e+00 0.000000000000e+00 
1.100000000000e+01 0.000000000000e+00 0.000000000000e+00 0.000000000000e+00 0.000000000000e+00 
1.200000000000e+01 0.000000000000e+00 0.000000000000e+00 0.000000000000e+00 0.000000000000e+00 
1.300000000000e+01 0.000000000000e+00 0.000000000000e+00 0.000000000000e+00 0.000000000000e+00 
1.400000000000e+01 0.000000000000e+00 0.000000000000e+00 0.000000000000e+00 0.000000000000e+00 
1.500000000000e+01 0.000000000000e+00 0.000000000000e+00 0.000000000000e+00 0.000000000000e+00 
1.600000000000e+01 0.000000000000e+00 0.000000000000e+00 0.000000000000e+00 0.000000000000e+00 
1.700000000000e+01 0.000000000000e+00 0.000000000000e+00 0.000000000000e+00 0.000000000000e+00 
1.800000000000e+01 0.000000000000e+00 0.000000000000e+00 0.000000000000e+00 0.000000000000e+00 
1.900000000000e+01 0.000000000000e+00 0.000000000000e+00 0.000000000000e+00 0.000000000000e+00 
2.000000000000e+01 0.000000000000e+00 0.000000000000e+00 0.000000000000e+00 0.000000000000e+00 
2.100000000000e+01 0.000000000000e+00 0.000000000000e+00 0.000000000000e+00 0.000000000000e+00 
2.200000000000e+01 0.000000000000e+00 0.000000000000e+00 0.000000000000e+00 0.000000000000e+00 
2.300000000000e+01 0.000000000000e+00 0.000000000000e+00 0.000000000000e+00 0.000000000000e+00 
2.400000000000e+01 0.000000000000e+00 0.000000000000e+00 0.000000000000e+00 0.000000000000e+00 
2.500000000000e+01 0.000000000000e+00 0.000000000000e+00 0.000000000000e+00 0.000000000000e+00 
2.600000000000e+01 0.000000000000e+00 0.000000000000e+00 0.000000000000e+00 0.000000000000e+00 
2.700000000000e+01 0.000000000000e+00 0.000000000000e+00 0.000000000000e+00 0.000000000000e+00 
2.800000000000e+01 0.000000000000e+00 0.000000000000e+00 0.000000000000e+00 0.000000000000e+00 
2.900000000000e+01 0.000000000000e+00 0.000000000000e+00 0.000000000000e+00 0.000000000000e+00 
3.000000000000e+01 0.000000000000e+00 0.000000000000e+00 0.000000000000e+00 0.000000000000e+00 
3.100000000000e+01 0.000000000000e+00 0.000000000000e+00 0.000000000000e+00 0.000000000000e+00 
3.200000000000e+01 0.000000000000e+00 0.000000000000e+00 0.000000000000e+00 0.000000000000e+00 
3.300000000000e+01 0.000000000000e+00 0.000000000000e+00 0.000000000000e+00 0.000000000000e+00 
3.400000000000e+01 0.000000000000e+00 0.000000000000e+00 0.000000000000e+00 0.000000000000e+00 
3.500000000000e+01 0.000000000000e+00 0.000000000000e+00 0.000000000000e+00 0.000000000000e+00 
3.600000000000e+01 0.000000000000e+00 0.000000000000e+00 0.000000000000e+00 0.000000000000e+00 
3.700000000000e+01 0.000000000000e+00 0.000000000000e+00 0.000000000000e+00 0.000000000000e+00 
3.800000000000e+01 0.000000000000e+00 0.000000000000e+00 0.000000000000e+00 0.000000000000e+00 
3.900000000000e+01 0.000000000000e+00 0.000000000000e+00 0.000000000000e+00 0.000000000000e+00 
4.000000000000e+01 0.000000000000e+00 0.000000000000e+00 0.000000000000e+00 0.000000000000e+00 
4.100000000000e+01 0.000000000000e+00 0.000000000000e+00 0.000000000000e+00 0.000000000000e+00 
4.200000000000e+01 0.000000000000e+00 0.000000000000e+00 0.000000000000e+00 0.000000000000e+00 
4.300000000000e+01 0.000000000000e+00 0.000000000000e+00 0.000000000000e+00 0.000000000000e+00 
4.400000000000e+01 0.000000000000e+00 0.000000000000e+00 0.000000000000e+00 0.000000000000e+00 
4.500000000000e+01 0.000000000000e+00 0.000000000000e+00 0.000000000000e+00 0.000000000000e+00 
4.600000000000e+01 0.000000000000e+00 0.000000000000e+00 0.000000000000e+00 0.000000000000e+00 
4.700000000000e+01 0.000000000000e+00 0.000000000000e+00 0.000000000000e+00 0.000000000000e+00 
4.800000000000e+01 0.000000000000e+00 0.000000000000e+00 0.000000000000e+00 0.000000000000e+00 
4.900000000000e+01 0.000000000000e+00 0.000000000000e+00 0.000000000000e+00 0.000000000000e+00 
5.000000000000e+01 0.000000000000e+00 0.000000000000e+00 0.000000000000e+00 0.000000000000e+00 
5.100000000000e+01 0.000000000000e+00 0.000000000000e+00 0.000000000000e+00 0.000000000000e+00 
5.200000000000e+01 0.000000000000e+00 0.000000000000e+00 0.000000000000e+00 0.000000000000e+00 
5.300000000000e+01 0.000000000000e+00 0.000000000000e+00 0.000000000000e+00 0.000000000000e+00 
5.400000000000e+01 0.000000000000e+00 0.000000000000e+00 0.000000000000e+00 0.000000000000e+00 
5.500000000000e+01 0.000000000000e+00 0.000000000000e+00 0.000000000000e+00 0.000000000000e+00 
5.600000000000e+01 0.000000000000e+00 0.000000000000e+00 0.000000000000e+00 0.000000000000e+00 
5.700000000000e+01 0.000000000000e+00 0.000000000000e+00 0.000000000000e+00 0.000000000000e+00 
5.800000000000e+01 0.000000000000e+00 0.000000000000e+00 0.000000000000e+00 0.000000000000e+00 
5.900000000000e+01 0.000000000000e+00 0.000000000000e+00 0.000000000000e+00 0.000000000000e+00 
6.000000000000e+01 0.000000000000e+00 0.000000000000e+00 0.000000000000e+00 0.000000000000e+00 
6.100000000000e+01 0.000000000000e+00 0.000000000000e+00 0.000000000000e+00 0.000000000000e+00 
6.200000000000e+01 0.000000000000e+00 0.000000000000e+00 0.000000000000e+00 0.000000000000e+00 
6.300000000000e+01 0.000000000000e+00 0.000000000000e+00 0.000000000000e+00 0.000000000000e+00 
6.400000000000e+01 0.000000000000e+00 0.000000000000e+00 0.000000000000e+00 0.000000000000e+00 
6.500000000000e+01 0.000000000000e+00 0.000000000000e+00 0.000000000000e+00 0.000000000000e+00 
6.600000000000e+01 0.000000000000e+00 0.000000000000e+00 0.000000000000e+00 0.000000000000e+00 
6.700000000000e+01 0.000000000000e+00 0.000000000000e+00 0.000000000000e+00 0.000000000000e+00 
6.800000000000e+01 0.000000000000e+00 0.000000000000e+00 0.000000000000e+00 0.000000000000e+00 
6.900000000000e+01 0.000000000000e+00 0.000000000000e+00 0.000000000000e+00 0.000000000000e+00 
7.000000000000e+01 0.000000000000e+00 0.000000000000e+00 0.000000000000e+00 0.000000000000e+00 
7.100000000000e+01 0.000000000000e+00 0.000000000000e+00 0.000000000000e+00 0.000000000000e+00 
7.200000000000e+01 0.000000000000e+00 0.000000000000e+00 0.000000000000e+00 0.000000000000e+00 
7.300000000000e+01 0.000000000000e+00 0.000000000000e+00 0.000000000000e+00 0.000000000000e+00 
7.400000000000e+01 0.000000000000e+00 0.000000000000e+00 0.000000000000e+00 0.000000000000e+00 
7.500000000000e+01 0.000000000000e+00 0.000000000000e+00 0.000000000000e+00 0.000000000000e+00 
7.600000000000e+01 0.000000000000e+00 0.000000000000e+00 0.000000000000e+00 0.000000000000e+00 
7.700000000000e+01 0.000000000000e+00 0.000000000000e+00 0.000000000000e+00 0.000000000000e+00 
7.800000000000e+01 0.000000000000e+00 0.000000000000e+00 0.000000000000e+00 0.000000000000e+00 
7.900000000000e+01 0.000000000000e+00 0.000000000000e+00 0.000000000000e+00 0.000000000000e+00 
8.000000000000e+01 0.000000000000e+00 0.000000000000e+00 0.000000000000e+00 0.000000000000e+00 
8.100000000000e+01 0.000000000000e+00 0.000000000000e+00 0.000000000000e+00 0.000000000000e+00 
8.200000000000e+01 0.000000000000e+00 0.000000000000e+00 0.000000000000e+00 0.000000000000e+00 
8.300000000000e+01 0.000000000000e+00 0.000000000000e+00 0.000000000000e+00 0.000000000000e+00 
8.400000000000e+01 0.000000000000e+00 0.000000000000e+00 0.000000000000e+00 0.000000000000e+00 
8.500000000000e+01 0.000000000000e+00 0.000000000000e+00 0.000000000000e+00 0.000000000000e+00 
8.600000000000e+01 0.000000000000e+00 0.000000000000e+00 0.000000000000e+00 0.000000000000e+00 
8.700000000000e+01 0.000000000000e+00 0.000000000000e+00 0.000000000000e+00 0.000000000000e+00 
8.800000000000e+01 0.000000000000e+00 0.000000000000e+00 0.000000000000e+00 0.000000000000e+00 
8.900000000000e+01 0.000000000000e+00 0.000000000000e+00 0.000000000000e+00 0.000000000000e+00 
9.000000000000e+01 0.000000000000e+00 0.000000000000e+00 0.000000000000e+00 0.000000000000e+00 
9.100000000000e+01 0.000000000000e+00 0.000000000000e+00 0.000000000000e+00 0.000000000000e+00 
9.200000000000e+01 0.000000000000e+00 0.000000000000e+00 0.000000000000e+00 0.000000000000e+00 
9.300000000000e+01 0.000000000000e+00 0.000000000000e+00 0.000000000000e+00 0.000000000000e+00 
9.400000000000e+01 0.000000000000e+00 0.000000000000e+00 0.000000000000e+00 0.000000000000e+00 
9.500000000000e+01 0.000000000000e+00 0.000000000000e+00 0.000000000000e+00 0.000000000000e+00 
9.600000000000e+01 0.000000000000e+00 0.000000000000e+00 0.000000000000e+00 0.000000000000e+00 
9.700000000000e+01 0.000000000000e+00 0.000000000000e+00 0.000000000000e+00 0.000000000000e+00 
9.800000000000e+01 0.000000000000e+00 0.000000000000e+00 0.000000000000e+00 0.000000000000e+00 
9.900000000000e+01 0.000000000000e+00 0.000000000000e+00 0.000000000000e+00 0.000000000000e+00 
1.000000000000e+02 0.000000000000e+00 0.000000000000e+00 0.000000000000e+00 0.000000000000e+00 
1  2  2  1
2  3  3  2
3  4  4  3
4  5  5  4
5  6  6  5
6  7  7  6
7  8  8  7
8  9  9  8
9  10  10  9
10  11  11  10
11  12  12  11
12  13  13  12
13  14  14  13
14  15  15  14
15  16  16  15
16  17  17  16
17  18  18  17
18  19  19  18
19  20  20  19
20  21  21  20
21  22  22  21
22  23  23  22
23  24  24  23
24  25  25  24
25  26  26  25
26  27  27  26
27  28  28  27
28  29  29  28
29  30  30  29
30  31  31  30
31  32  32  31
32  33  33  32
33  34  34  33
34  35  35  34
35  36  36  35
36  37  37  36
37  38  38  37
38  39  39  38
39  40  40  39
40  41  41  40
41  42  42  41
42  43  43  42
43  44  44  43
44  45  45  44
45  46  46  45
46  47  47  46
47  48  48  47
48  49  49  48
49  50  50  49
50  51  51  50
51  52  52  51
52  53  53  52
53  54  54  53
54  55  55  54
55  56  56  55
56  57  57  56
57  58  58  57
58  59  59  58
59  60  60  59
60  61  61  60
61  62  62  61
62  63  63  62
63  64  64  63
64  65  65  64
65  66  66  65
66  67  67  66
67  68  68  67
68  69  69  68
69  70  70  69
70  71  71  70
71  72  72  71
72  73  73  72
73  74  74  73
74  75  75  74
75  76  76  75
76  77  77  76
77  78  78  77
78  79  79  78
79  80  80  79
80  81  81  80
81  82  82  81
82  83  83  82
83  84  84  83
84  85  85  84
85  86  86  85
86  87  87  86
87  88  88  87
88  89  89  88
89  90  90  89
90  91  91  90
91  92  92  91
92  93  93  92
93  94  94  93
94  95  95  94
95  96  96  95
96  97  97  96
97  98  98  97
98  99  99  98
99  100  100  99
100  101  101  100
VARIABLES  = "X","Y","Z", "PRESSURE1", "Decay"
ZONE T="8.640000000000e+04s", N=101, E=100, F=FEPOINT, ET=QUADRILATERAL
STRANDID=1, SOLUTIONTIME=8.640000000000e+04
0.000000000000e+00 0.000000000000e+00 0.000000000000e+00 1.357406999999e+05 1.000000000000e+00 
1.000000000000e+00 0.000000000000e+00 0.000000000000e+00 1.345832929999e+05 4.384047147655e-01 
2.000000000000e+00 0.000000000000e+00 0.000000000000e+00 1.334258859999e+05 1.921986939286e-01 
3.000000000000e+00 0.000000000000e+00 0.000000000000e+00 1.322684789999e+05 8.426081359008e-02 
4.000000000000e+00 0.000000000000e+00 0.000000000000e+00 1.311110719999e+05 3.694033794787e-02 
5.000000000000e+00 0.000000000000e+00 0.000000000000e+00 1.299536649999e+05 1.619481832138e-02 
6.000000000000e+00 0.000000000000e+00 0.000000000000e+00 1.287962579999e+05 7.099884706862e-03 
7.000000000000e+00 0.000000000000e+00 0.000000000000e+00 1.276388509999e+05 3.112622929780e-03 
8.000000000000e+00 0.000000000000e+00 0.000000000000e+00 1.264814439999e+05 1.364588567703e-03 
9.000000000000e+00 0.000000000000e+00 0.000000000000e+00 1.253240369999e+05 5.982420617960e-04 
1.000000000000e+01 0.000000000000e+00 0.000000000000e+00 1.241666299999e+05 2.622721404624e-04 
1.100000000000e+01 0.000000000000e+00 0.000000000000e+00 1.230092229999e+05 1.149813429303e-04 
1.200000000000e+01 0.000000000000e+00 0.000000000000e+00 1.218518159999e+05 5.040836285071e-05 
1.300000000000e+01 0.000000000000e+00 0.000000000000e+00 1.206944089999e+05 2.209926393732e-05 
1.400000000000e+01 0.000000000000e+00 0.000000000000e+00 1.195370019999e+05 9.688421502872e-06 
1.500000000000e+01 0.000000000000e+00 0.000000000000e+00 1.183795949999e+05 4.247449665372e-06 
1.600000000000e+01 0.000000000000e+00 0.000000000000e+00 1.172221879999e+05 1.862101958752e-06 
1.700000000000e+01 0.000000000000e+00 0.000000000000e+00 1.160647809999e+05 8.163542777753e-07 
1.800000000000e+01 0.000000000000e+00 0.000000000000e+00 1.149073739999e+05 3.578935636215e-07 
1.900000000000e+01 0.000000000000e+00 0.000000000000e+00 1.137499669999e+05 1.569022249871e-07 
2.000000000000e+01 0.000000000000e+00 0.000000000000e+00 1.125925599999e+05 6.878667378801e-08 
2.100000000000e+01 0.000000000000e+00 0.000000000000e+00 1.114351529999e+05 3.015640081685e-08 
2.200000000000e+01 0.000000000000e+00 0.000000000000e+00 1.102777459999e+05 1.322070579721e-08 
2.300000000000e+01 0.000000000000e+00 0.000000000000e+00 1.091203389999e+05 5.796017697933e-09 
2.400000000000e+01 0.000000000000e+00 0.000000000000e+00 1.079629319999e+05 2.540997657912e-09 
2.500000000000e+01 0.000000000000e+00 0.000000000000e+00 1.068055249999e+05 1.113982526689e-09 
2.600000000000e+01 0.000000000000e+00 0.000000000000e+00 1.056481179999e+05 4.883701541963e-10 
2.700000000000e+01 0.000000000000e+00 0.000000000000e+00 1.044907109999e+05 2.141004397465e-10 
2.800000000000e+01 0.000000000000e+00 0.000000000000e+00 1.033333039999e+05 9.385694107202e-11 
2.900000000000e+01 0.000000000000e+00 0.000000000000e+00 1.021758969999e+05 4.114394479702e-11 
3.000000000000e+01 0.000000000000e+00 0.000000000000e+00 1.010184899999e+05 1.803216176394e-11 
3.100000000000e+01 0.000000000000e+00 0.000000000000e+00 9.986108299994e+04 7.902460188589e-12 
3.200000000000e+01 0.000000000000e+00 0.000000000000e+00 9.870367599994e+04 3.459876807589e-12 
3.300000000000e+01 0.000000000000e+00 0.000000000000e+00 9.754626899994e+04 1.514677979463e-12 
3.400000000000e+01 0.000000000000e+00 0.000000000000e+00 9.638886199994e+04 6.607959142619e-13 
3.500000000000e+01 0.000000000000e+00 0.000000000000e+00 9.523145499994e+04 2.883676887060e-13 
3.600000000000e+01 0.000000000000e+00 0.000000000000e+00 9.407404799994e+04 1.244917425215e-13 
3.700000000000e+01 0.000000000000e+00 0.000000000000e+00 9.291664099994e+04 5.389497972735e-14 
3.800000000000e+01 0.000000000000e+00 0.000000000000e+00 9.175923399994e+04 2.267318332557e-14 
3.900000000000e+01 0.000000000000e+00 0.000000000000e+00 9.060182699994e+04 9.653383499087e-15 
4.000000000000e+01 0.000000000000e+00 0.000000000000e+00 8.944441999994e+04 3.846174384119e-15 
4.100000000000e+01 0.000000000000e+00 0.000000000000e+00 8.828701299994e+04 1.590364630044e-15 
4.200000000000e+01 0.000000000000e+00 0.000000000000e+00 8.712960599994e+04 5.729310133973e-16 
4.300000000000e+01 0.000000000000e+00 0.000000000000e+00 8.597219899994e+04 2.266337959000e-16 
4.400000000000e+01 0.000000000000e+00 0.000000000000e+00 8.481479199994e+04 6.866578053155e-17 
4.500000000000e+01 0.000000000000e+00 0.000000000000e+00 8.365738499995e+04 2.557744747146e-17 
4.600000000000e+01 0.000000000000e+00 0.000000000000e+00 8.249997799995e+04 5.753768381022e-18 
4.700000000000e+01 0.000000000000e+00 0.000000000000e+00 8.134257099995e+04 1.987165260598e-18 
4.800000000000e+01 0.000000000000e+00 0.000000000000e+00 8.018516399995e+04 2.480361235933e-19 
4.900000000000e+01 0.000000000000e+00 0.000000000000e+00 7.902775699995e+04 7.822525497079e-20 
5.000000000000e+01 0.000000000000e+00 0.000000000000e+00 7.787034999995e+04 0.000000000000e+00 
5.100000000000e+01 0.000000000000e+00 0.000000000000e+00 7.671294299995e+04 0.000000000000e+00 
5.200000000000e+01 0.000000000000e+00 0.000000000000e+00 7.555553599995e+04 0.000000000000e+00 
5.300000000000e+01 0.000000000000e+00 0.000000000000e+00 7.439812899995e+04 0.000000000000e+00 
5.400000000000e+01 0.000000000000e+00 0.000000000000e+00 7.324072199995e+04 0.000000000000e+00 
5.500000000000e+01 0.000000000000e+00 0.000000000000e+00 7.208331499995e+04 0.000000000000e+00 
5.600000000000e+01 0.000000000000e+00 0.000000000000e+00 7.092590799995e+04 0.000000000000e+00 
5.700000000000e+01 0.000000000000e+00 0.000000000000e+00 6.976850099995e+04 0.000000000000e+00 
5.800000000000e+01 0.000000000000e+00 0.000000000000e+00 6.861109399995e+04 0.000000000000e+00 
5.900000000000e+01 0.000000000000e+00 0.000000000000e+00 6.745368699995e+04 0.000000000000e+00 
6.000000000000e+01 0.000000000000e+00 0.000000000000e+00 6.629627999995e+04 0.000000000000e+00 
6.100000000000e+01 0.000000000000e+00 0.000000000000e+00 6.513887299995e+04 0.000000000000e+00 
6.200000000000e+01 0.000000000000e+00 0.000000000000e+00 6.398146599996e+04 0.000000000000e+00 
6.300000000000e+01 0.000000000000e+00 0.000000000000e+00 6.282405899996e+04 0.000000000000e+00 
6.400000000000e+01 0.000000000000e+00 0.000000000000e+00 6.166665199996e+04 0.000000000000e+00 
6.500000000000e+01 0.000000000000e+00 0.000000000000e+00 6.050924499996e+04 0.000000000000e+00 
6.600000000000e+01 0.000000000000e+00 0.000000000000e+00 5.935183799996e+04 0.000000000000e+00 
6.700000000000e+01 0.000000000000e+00 0.000000000000e+00 5.819443099996e+04 0.000000000000e+00 
6.800000000000e+01 0.000000000000e+00 0.000000000000e+00 5.703702399996e+04 0.000000000000e+00 
6.900000000000e+01 0.000000000000e+00 0.000000000000e+00 5.587961699996e+04 0.000000000000e+00 
7.000000000000e+01 0.000000000000e+00 0.000000000000e+00 5.472220999996e+04 0.000000000000e+00 
7.100000000000e+01 0.000000000000e+00 0.000000000000e+00 5.356480299996e+04 0.000000000000e+00 
7.200000000000e+01 0.000000000000e+00 0.000000000000e+00 5.240739599996e+04 0.000000000000e+00 
7.300000000000e+01 0.000000000000e+00 0.000000000000e+00 5.124998899997e+04 0.000000000000e+00 
7.400000000000e+01 0.000000000000e+00 0.000000000000e+00 5.009258199997e+04 0.000000000000e+00 
7.500000000000e+01 0.000000000000e+00 0.000000000000e+00 4.893517499997e+04 0.000000000000e+00 
7.600000000000e+01 0.000000000000e+00 0.000000000000e+00 4.777776799997e+04 0.000000000000e+00 
7.700000000000e+01 0.000000000000e+00 0.000000000000e+00 4.662036099997e+04 0.000000000000e+00 
7.800000000000e+01 0.000000000000e+00 0.000000000000e+00 4.546295399997e+04 0.000000000000e+00 
7.900000000000e+01 0.000000000000e+00 0.000000000000e+00 4.430554699997e+04 0.000000000000e+00 
8.000000000000e+01 0.000000000000e+00 0.000000000000e+00 4.314813999997e+04 0.000000000000e+00 
8.100000000000e+01 0.000000000000e+00 0.000000000000e+00 4.199073299998e+04 0.000000000000e+00 
8.200000000000e+01 0.000000000000e+00 0.000000000000e+00 4.083332599998e+04 0.000000000000e+00 
8.300000000000e+01 0.000000000000e+00 0.000000000000e+00 3.967591899998e+04 0.000000000000e+00 
8.400000000000e+01 0.000000000000e+00 0.000000000000e+00 3.851851199998e+04 0.000000000000e+00 
8.500000000000e+01 0.000000000000e+00 0.000000000000e+00 3.736110499998e+04 0.000000000000e+00 
8.600000000000e+01 0.000000000000e+00 0.000000000000e+00 3.620369799998e+04 0.000000000000e+00 
8.700000000000e+01 0.000000000000e+00 0.000000000000e+00 3.504629099998e+04 0.000000000000e+00 
8.800000000000e+01 0.000000000000e+00 0.000000000000e+00 3.388888399998e+04 0.000000000000e+00 
8.900000000000e+01 0.000000000000e+00 0.000000000000e+00 3.273147699999e+04 0.000000000000e+00 
9.000000000000e+01 0.000000000000e+00 0.000000000000e+00 3.157406999999e+04 0.000000000000e+00 
9.100000000000e+01 0.000000000000e+00 0.000000000000e+00 3.041666299999e+04 0.000000000000e+00 
9.200000000000e+01 0.000000000000e+00 0.000000000000e+00 2.925925599999e+04 0.000000000000e+00 
9.300000000000e+01 0.000000000000e+00 0.000000000000e+00 2.810184899999e+04 0.000000000000e+00 
9.400000000000e+01 0.000000000000e+00 0.000000000000e+00 2.694444199999e+04 0.000000000000e+00 
9.500000000000e+01 0.000000000000e+00 0.000000000000e+00 2.578703499999e+04 0.000000000000e+00 
9.600000000000e+01 0.000000000000e+00 0.000000000000e+00 2.462962799999e+04 0.000000000000e+00 
9.700000000000e+01 0.000000000000e+00 0.000000000000e+00 2.347222100000e+04 0.000000000000e+00 
9.800000000000e+01 0.000000000000e+00 0.000000000000e+00 2.231481400000e+04 0.000000000000e+00 
9.900000000000e+01 0.000000000000e+00 0.000000000000e+00 2.115740700000e+04 0.000000000000e+00 
1.000000000000e+02 0.000000000000e+00 0.000000000000e+00 2.000000000000e+04 0.000000000000e+00 
1  2  2  1
2  3  3  2
3  4  4  3
4  5  5  4
5  6  6  5
6  7  7  6
7  8  8  7
8  9  9  8
9  10  10  9
10  11  11  10
11  12  12  11
12  13  13  12
13  14  14  13
14  15  15  14
15  16  16  15
16  17  17  16
17  18  18  17
18  19  19  18
19  20  20  19
20  21  21  20
21  22  22  21
22  23  23  22
23  24  24  23
24  25  25  24
25  26  26  25
26  27  27  26
27  28  28  27
28  29  29  28
29  30  30  29
30  31  31  30
31  32  32  31
32  33  33  32
33  34  34  33
34  35  35  34
35  36  36  35
36  37  37  36
37  38  38  37
38  39  39  38
39  40  40  39
40  41  41  40
41  42  42  41
42  43  43  42
43  44  44  43
44  45  45  44
45  46  46  45
46  47  47  46
47  48  48  47
48  49  49  48
49  50  50  49
50  51  51  50
51  52  52  51
52  53  53  52
53  54  54  53
54  55  55  54
55  56  56  55
56  57  57  56
57  58  58  57
58  59  59  58
59  60  60  59
60  61  61  60
61  62  62  61
62  63  63  62
63  64  64  63
64  65  65  64
65  66  66  65
66  67  67  66
67  68  68  67
68  69  69  68
69  70  70  69
70  71  71  70
71  72  72  71
72  73  73  72
73  74  74  73
74  75  75  74
75  76  76  75
76  77  77  76
77  78  78  77
78  79  79  78
79  80  80  79
80  81  81  80
81  82  82  81
82  83  83  82
83  84  84  83
84  85  85  84
85  86  86  85
86  87  87  86
87  88  88  87
88  89  89  88
89  90  90  89
90  91  91  90
91  92  92  91
92  93  93  92
93  94  94  93
94  95  95  94
95  96  96  95
96  97  97  96
97  98  98  97
98  99  99  98
99  100  100  99
100  101  101  100
VARIABLES  = "X","Y","Z", "PRESSURE1", "Decay"
ZONE T="1.728000000000e+05s", N=101, E=100, F=FEPOINT, ET=QUADRILATERAL
STRANDID=1, SOLUTIONTIME=1.728000000000e+05
0.000000000000e+00 0.000000000000e+00 0.000000000000e+00 1.357406999999e+05 1.000000000000e+00 
1.000000000000e+00 0.000000000000e+00 0.000000000000e+00 1.345832929999e+05 8.592214193579e-01 
2.000000000000e+00 0.000000000000e+00 0.000000000000e+00 1.334258859999e+05 5.611747486194e-01 
3.000000000000e+00 0.000000000000e+00 0.000000000000e+00 1.322684789999e+05 3.269020766081e-01 
4.000000000000e+00 0.000000000000e+00 0.000000000000e+00 1.311110719999e+05 1.787737695529e-01 
5.000000000000e+00 0.000000000000e+00 0.000000000000e+00 1.299536649999e+05 9.392037473013e-02 
6.000000000000e+00 0.000000000000e+00 0.000000000000e+00 1.287962579999e+05 4.799018517170e-02 
7.000000000000e+00 0.000000000000e+00 0.000000000000e+00 1.276388509999e+05 2.402687352707e-02 
8.000000000000e+00 0.000000000000e+00 0.000000000000e+00 1.264814439999e+05 1.184333835929e-02 
9.000000000000e+00 0.000000000000e+00 0.000000000000e+00 1.253240369999e+05 5.766417039462e-03 
1.000000000000e+01 0.000000000000e+00 0.000000000000e+00 1.241666299999e+05 2.779774670398e-03 
1.100000000000e+01 0.000000000000e+00 0.000000000000e+00 1.230092229999e+05 1.329034819344e-03 
1.200000000000e+01 0.000000000000e+00 0.000000000000e+00 1.218518159999e+05 6.310412007094e-04 
1.300000000000e+01 0.000000000000e+00 0.000000000000e+00 1.206944089999e+05 2.978641187409e-04 
1.400000000000e+01 0.000000000000e+00 0.000000000000e+00 1.195370019999e+05 1.398847734394e-04 
1.500000000000e+01 0.000000000000e+00 0.000000000000e+00 1.183795949999e+05 6.540319380909e-05 
1.600000000000e+01 0.000000000000e+00 0.000000000000e+00 1.172221879999e+05 3.046046629737e-05 
1.700000000000e+01 0.000000000000e+00 0.000000000000e+00 1.160647809999e+05 1.413761564818e-05 
1.800000000000e+01 0.000000000000e+00 0.000000000000e+00 1.149073739999e+05 6.541532871809e-06 
1.900000000000e+01 0.000000000000e+00 0.000000000000e+00 1.137499669999e+05 3.018446441876e-06 
2.000000000000e+01 0.000000000000e+00 0.000000000000e+00 1.125925599999e+05 1.389328226909e-06 
2.100000000000e+01 0.000000000000e+00 0.000000000000e+00 1.114351529999e+05 6.380346246014e-07 
2.200000000000e+01 0.000000000000e+00 0.000000000000e+00 1.102777459999e+05 2.924077017244e-07 
2.300000000000e+01 0.000000000000e+00 0.000000000000e+00 1.091203389999e+05 1.337564058999e-07 
2.400000000000e+01 0.000000000000e+00 0.000000000000e+00 1.079629319999e+05 6.107849524697e-08 
2.500000000000e+01 0.000000000000e+00 0.000000000000e+00 1.068055249999e+05 2.784639017340e-08 
2.600000000000e+01 0.000000000000e+00 0.000000000000e+00 1.056481179999e+05 1.267676474991e-08 
2.700000000000e+01 0.000000000000e+00 0.000000000000e+00 1.044907109999e+05 5.763062224011e-09 
2.800000000000e+01 0.000000000000e+00 0.000000000000e+00 1.033333039999e+05 2.616643180326e-09 
2.900000000000e+01 0.000000000000e+00 0.000000000000e+00 1.021758969999e+05 1.186639201223e-09 
3.000000000000e+01 0.000000000000e+00 0.000000000000e+00 1.010184899999e+05 5.375347089815e-10 
3.100000000000e+01 0.000000000000e+00 0.000000000000e+00 9.986108299994e+04 2.432402031941e-10 
3.200000000000e+01 0.000000000000e+00 0.000000000000e+00 9.870367599994e+04 1.099565585481e-10 
3.300000000000e+01 0.000000000000e+00 0.000000000000e+00 9.754626899994e+04 4.965669667456e-11 
3.400000000000e+01 0.000000000000e+00 0.000000000000e+00 9.638886199994e+04 2.240221881707e-11 
3.500000000000e+01 0.000000000000e+00 0.000000000000e+00 9.523145499994e+04 1.009595923551e-11 
3.600000000000e+01 0.000000000000e+00 0.000000000000e+00 9.407404799994e+04 4.544331894849e-12 
3.700000000000e+01 0.000000000000e+00 0.000000000000e+00 9.291664099994e+04 2.042623670946e-12 
3.800000000000e+01 0.000000000000e+00 0.000000000000e+00 9.175923399994e+04 9.164778368468e-13 
3.900000000000e+01 0.000000000000e+00 0.000000000000e+00 9.060182699994e+04 4.102960901189e-13 
4.000000000000e+01 0.000000000000e+00 0.000000000000e+00 8.944441999994e+04 1.831623336385e-13 
4.100000000000e+01 0.000000000000e+00 0.000000000000e+00 8.828701299994e+04 8.147284715430e-14 
4.200000000000e+01 0.000000000000e+00 0.000000000000e+00 8.712960599994e+04 3.609047546710e-14 
4.300000000000e+01 0.000000000000e+00 0.000000000000e+00 8.597219899994e+04 1.590311150591e-14 
4.400000000000e+01 0.000000000000e+00 0.000000000000e+00 8.481479199994e+04 6.972604005763e-15 
4.500000000000e+01 0.000000000000e+00 0.000000000000e+00 8.365738499995e+04 3.037612341049e-15 
4.600000000000e+01 0.000000000000e+00 0.000000000000e+00 8.249997799995e+04 1.317140495194e-15 
4.700000000000e+01 0.000000000000e+00 0.000000000000e+00 8.134257099995e+04 5.677378147517e-16 
4.800000000000e+01 0.000000000000e+00 0.000000000000e+00 8.018516399995e+04 2.439526344129e-16 
4.900000000000e+01 0.000000000000e+00 0.000000000000e+00 7.902775699995e+04 1.044183902353e-16 
5.000000000000e+01 0.000000000000e+00 0.000000000000e+00 7.787034999995e+04 4.463009750640e-17 
5.100000000000e+01 0.000000000000e+00 0.000000000000e+00 7.671294299995e+04 1.904382483716e-17 
5.200000000000e+01 0.000000000000e+00 0.000000000000e+00 7.555553599995e+04 8.119958741992e-18 
5.300000000000e+01 0.000000000000e+00 0.000000000000e+00 7.439812899995e+04 3.459458130173e-18 
5.400000000000e+01 0.000000000000e+00 0.000000000000e+00 7.324072199995e+04 1.472640045693e-18 
5.500000000000e+01 0.000000000000e+00 0.000000000000e+00 7.208331499995e+04 6.263213430013e-19 
5.600000000000e+01 0.000000000000e+00 0.000000000000e+00 7.092590799995e+04 2.661249670356e-19 
5.700000000000e+01 0.000000000000e+00 0.000000000000e+00 6.976850099995e+04 1.129627354875e-19 
5.800000000000e+01 0.000000000000e+00 0.000000000000e+00 6.861109399995e+04 4.789792144331e-20 
5.900000000000e+01 0.000000000000e+00 0.000000000000e+00 6.745368699995e+04 2.028605816364e-20 
6.000000000000e+01 0.000000000000e+00 0.000000000000e+00 6.629627999995e+04 8.581089863025e-21 
6.100000000000e+01 0.000000000000e+00 0.000000000000e+00 6.513887299995e+04 3.625026002635e-21 
6.200000000000e+01 0.000000000000e+00 0.000000000000e+00 6.398146599996e+04 1.529183277653e-21 
6.300000000000e+01 0.000000000000e+00 0.000000000000e+00 6.282405899996e+04 6.440765993626e-22 
6.400000000000e+01 0.000000000000e+00 0.000000000000e+00 6.166665199996e+04 2.708258141911e-22 
6.500000000000e+01 0.000000000000e+00 0.000000000000e+00 6.050924499996e+04 1.136716373226e-22 
6.600000000000e+01 0.000000000000e+00 0.000000000000e+00 5.935183799996e+04 4.761627127175e-23 
6.700000000000e+01 0.000000000000e+00 0.000000000000e+00 5.819443099996e+04 1.990266115331e-23 
6.800000000000e+01 0.000000000000e+00 0.000000000000e+00 5.703702399996e+04 8.299228790671e-24 
6.900000000000e+01 0.000000000000e+00 0.000000000000e+00 5.587961699996e+04 3.451464143883e-24 
7.000000000000e+01 0.000000000000e+00 0.000000000000e+00 5.472220999996e+04 1.431275703239e-24 
7.100000000000e+01 0.000000000000e+00 0.000000000000e+00 5.356480299996e+04 5.915294413567e-25 
7.200000000000e+01 0.000000000000e+00 0.000000000000e+00 5.240739599996e+04 2.436228302797e-25 
7.300000000000e+01 0.000000000000e+00 0.000000000000e+00 5.124998899997e+04 9.989067398091e-26 