# vtk DataFile Version 3.0
Unstructured Grid from OpenGeoSys
ASCII
DATASET UNSTRUCTURED_GRID
FIELD TimesAndCycles 2
TIME 1 1 double
6.801912812500e+01
CYLCE 1 1 long
6
POINTS 1849 double
0.000000000000e+00 1.400000000000e-01 0.000000000000e+00
0.000000000000e+00 1.366670000000e-01 0.000000000000e+00
3.333330000000e-03 1.366670000000e-01 0.000000000000e+00
3.333330000000e-03 1.400000000000e-01 0.000000000000e+00
0.000000000000e+00 1.333330000000e-01 0.000000000000e+00
3.333330000000e-03 1.333330000000e-01 0.000000000000e+00
0.000000000000e+00 1.300000000000e-01 0.000000000000e+00
3.333330000000e-03 1.300000000000e-01 0.000000000000e+00
0.000000000000e+00 1.266670000000e-01 0.000000000000e+00
3.333330000000e-03 1.266670000000e-01 0.000000000000e+00
0.000000000000e+00 1.233330000000e-01 0.000000000000e+00
3.333330000000e-03 1.233330000000e-01 0.000000000000e+00
0.000000000000e+00 1.200000000000e-01 0.000000000000e+00
3.333330000000e-03 1.200000000000e-01 0.000000000000e+00
0.000000000000e+00 1.166670000000e-01 0.000000000000e+00
3.333330000000e-03 1.166670000000e-01 0.000000000000e+00
0.000000000000e+00 1.133330000000e-01 0.000000000000e+00
3.333330000000e-03 1.133330000000e-01 0.000000000000e+00
0.000000000000e+00 1.100000000000e-01 0.000000000000e+00
3.333330000000e-03 1.100000000000e-01 0.000000000000e+00
0.000000000000e+00 1.066670000000e-01 0.000000000000e+00
3.333330000000e-03 1.066670000000e-01 0.000000000000e+00
0.000000000000e+00 1.033330000000e-01 0.000000000000e+00
3.333330000000e-03 1.033330000000e-01 0.000000000000e+00
0.000000000000e+00 1.000000000000e-01 0.000000000000e+00
3.333330000000e-03 1.000000000000e-01 0.000000000000e+00
0.000000000000e+00 9.666670000000e-02 0.000000000000e+00
3.333330000000e-03 9.666670000000e-02 0.000000000000e+00
0.000000000000e+00 9.333330000000e-02 0.000000000000e+00
3.333330000000e-03 9.333330000000e-02 0.000000000000e+00
0.000000000000e+00 9.000000000000e-02 0.000000000000e+00
3.333330000000e-03 9.000000000000e-02 0.000000000000e+00
0.000000000000e+00 8.666670000000e-02 0.000000000000e+00
3.333330000000e-03 8.666670000000e-02 0.000000000000e+00
0.000000000000e+00 8.333330000000e-02 0.000000000000e+00
3.333330000000e-03 8.333330000000e-02 0.000000000000e+00
0.000000000000e+00 8.000000000000e-02 0.000000000000e+00
3.333330000000e-03 8.000000000000e-02 0.000000000000e+00
0.000000000000e+00 7.666670000000e-02 0.000000000000e+00
3.333330000000e-03 7.666670000000e-02 0.000000000000e+00
0.000000000000e+00 7.333330000000e-02 0.000000000000e+00
3.333330000000e-03 7.333330000000e-02 0.000000000000e+00
0.000000000000e+00 7.000000000000e-02 0.000000000000e+00
3.333330000000e-03 7.000000000000e-02 0.000000000000e+00
0.000000000000e+00 6.666670000000e-02 0.000000000000e+00
3.333330000000e-03 6.666670000000e-02 0.000000000000e+00
0.000000000000e+00 6.333330000000e-02 0.000000000000e+00
3.333330000000e-03 6.333330000000e-02 0.000000000000e+00
0.000000000000e+00 6.000000000000e-02 0.000000000000e+00
3.333330000000e-03 6.000000000000e-02 0.000000000000e+00
0.000000000000e+00 5.666670000000e-02 0.000000000000e+00
3.333330000000e-03 5.666670000000e-02 0.000000000000e+00
0.000000000000e+00 5.333330000000e-02 0.000000000000e+00
3.333330000000e-03 5.333330000000e-02 0.000000000000e+00
0.000000000000e+00 5.000000000000e-02 0.000000000000e+00
3.333330000000e-03 5.000000000000e-02 0.000000000000e+00
0.000000000000e+00 4.666670000000e-02 0.000000000000e+00
3.333330000000e-03 4.666670000000e-02 0.000000000000e+00
0.000000000000e+00 4.333330000000e-02 0.000000000000e+00
3.333330000000e-03 4.333330000000e-02 0.000000000000e+00
0.000000000000e+00 4.000000000000e-02 0.000000000000e+00
3.333330000000e-03 4.000000000000e-02 0.000000000000e+00
0.000000000000e+00 3.666670000000e-02 0.000000000000e+00
3.333330000000e-03 3.666670000000e-02 0.000000000000e+00
0.000000000000e+00 3.333330000000e-02 0.000000000000e+00
3.333330000000e-03 3.333330000000e-02 0.000000000000e+00
0.000000000000e+00 3.000000000000e-02 0.000000000000e+00
3.333330000000e-03 3.000000000000e-02 0.000000000000e+00
0.000000000000e+00 2.666670000000e-02 0.000000000000e+00
3.333330000000e-03 2.666670000000e-02 0.000000000000e+00
0.000000000000e+00 2.333330000000e-02 0.000000000000e+00
3.333330000000e-03 2.333330000000e-02 0.000000000000e+00
0.000000000000e+00 2.000000000000e-02 0.000000000000e+00
3.333330000000e-03 2.000000000000e-02 0.000000000000e+00
0.000000000000e+00 1.666670000000e-02 0.000000000000e+00
3.333330000000e-03 1.666670000000e-02 0.000000000000e+00
0.000000000000e+00 1.333330000000e-02 0.000000000000e+00
3.333330000000e-03 1.333330000000e-02 0.000000000000e+00
0.000000000000e+00 1.000000000000e-02 0.000000000000e+00
3.333330000000e-03 1.000000000000e-02 0.000000000000e+00
0.000000000000e+00 6.666670000000e-03 0.000000000000e+00
3.333330000000e-03 6.666670000000e-03 0.000000000000e+00
0.000000000000e+00 3.333330000000e-03 0.000000000000e+00
3.333330000000e-03 3.333330000000e-03 0.000000000000e+00
0.000000000000e+00 7.771560000000e-18 0.000000000000e+00
3.333330000000e-03 7.771560000000e-18 0.000000000000e+00
6.666670000000e-03 1.366670000000e-01 0.000000000000e+00
6.666670000000e-03 1.400000000000e-01 0.000000000000e+00
6.666670000000e-03 1.333330000000e-01 0.000000000000e+00
6.666670000000e-03 1.300000000000e-01 0.000000000000e+00
6.666670000000e-03 1.266670000000e-01 0.000000000000e+00
6.666670000000e-03 1.233330000000e-01 0.000000000000e+00
6.666670000000e-03 1.200000000000e-01 0.000000000000e+00
6.666670000000e-03 1.166670000000e-01 0.000000000000e+00
6.666670000000e-03 1.133330000000e-01 0.000000000000e+00
6.666670000000e-03 1.100000000000e-01 0.000000000000e+00
6.666670000000e-03 1.066670000000e-01 0.000000000000e+00
6.666670000000e-03 1.033330000000e-01 0.000000000000e+00
6.666670000000e-03 1.000000000000e-01 0.000000000000e+00
6.666670000000e-03 9.666670000000e-02 0.000000000000e+00
6.666670000000e-03 9.333330000000e-02 0.000000000000e+00
6.666670000000e-03 9.000000000000e-02 0.000000000000e+00
6.666670000000e-03 8.666670000000e-02 0.000000000000e+00
6.666670000000e-03 8.333330000000e-02 0.000000000000e+00
6.666670000000e-03 8.000000000000e-02 0.000000000000e+00
6.666670000000e-03 7.666670000000e-02 0.000000000000e+00
6.666670000000e-03 7.333330000000e-02 0.000000000000e+00
6.666670000000e-03 7.000000000000e-02 0.000000000000e+00
6.666670000000e-03 6.666670000000e-02 0.000000000000e+00
6.666670000000e-03 6.333330000000e-02 0.000000000000e+00
6.666670000000e-03 6.000000000000e-02 0.000000000000e+00
6.666670000000e-03 5.666670000000e-02 0.000000000000e+00
6.666670000000e-03 5.333330000000e-02 0.000000000000e+00
6.666670000000e-03 5.000000000000e-02 0.000000000000e+00
6.666670000000e-03 4.666670000000e-02 0.000000000000e+00
6.666670000000e-03 4.333330000000e-02 0.000000000000e+00
6.666670000000e-03 4.000000000000e-02 0.000000000000e+00
6.666670000000e-03 3.666670000000e-02 0.000000000000e+00
6.666670000000e-03 3.333330000000e-02 0.000000000000e+00
6.666670000000e-03 3.000000000000e-02 0.000000000000e+00
6.666670000000e-03 2.666670000000e-02 0.000000000000e+00
6.666670000000e-03 2.333330000000e-02 0.000000000000e+00
6.666670000000e-03 2.000000000000e-02 0.000000000000e+00
6.666670000000e-03 1.666670000000e-02 0.000000000000e+00
6.666670000000e-03 1.333330000000e-02 0.000000000000e+00
6.666670000000e-03 1.000000000000e-02 0.000000000000e+00
6.666670000000e-03 6.666670000000e-03 0.000000000000e+00
6.666670000000e-03 3.333330000000e-03 0.000000000000e+00
6.666670000000e-03 7.771560000000e-18 0.000000000000e+00
1.000000000000e-02 1.366670000000e-01 0.000000000000e+00
1.000000000000e-02 1.400000000000e-01 0.000000000000e+00
1.000000000000e-02 1.333330000000e-01 0.000000000000e+00
1.000000000000e-02 1.300000000000e-01 0.000000000000e+00
1.000000000000e-02 1.266670000000e-01 0.000000000000e+00
1.000000000000e-02 1.233330000000e-01 0.000000000000e+00
1.000000000000e-02 1.200000000000e-01 0.000000000000e+00
1.000000000000e-02 1.166670000000e-01 0.000000000000e+00
1.000000000000e-02 1.133330000000e-01 0.000000000000e+00
1.000000000000e-02 1.100000000000e-01 0.000000000000e+00
1.000000000000e-02 1.066670000000e-01 0.000000000000e+00
1.000000000000e-02 1.033330000000e-01 0.000000000000e+00
1.000000000000e-02 1.000000000000e-01 0.000000000000e+00
1.000000000000e-02 9.666670000000e-02 0.000000000000e+00
1.000000000000e-02 9.333330000000e-02 0.000000000000e+00
1.000000000000e-02 9.000000000000e-02 0.000000000000e+00
1.000000000000e-02 8.666670000000e-02 0.000000000000e+00
1.000000000000e-02 8.333330000000e-02 0.000000000000e+00
1.000000000000e-02 8.000000000000e-02 0.000000000000e+00
1.000000000000e-02 7.666670000000e-02 0.000000000000e+00
1.000000000000e-02 7.333330000000e-02 0.000000000000e+00
1.000000000000e-02 7.000000000000e-02 0.000000000000e+00
1.000000000000e-02 6.666670000000e-02 0.000000000000e+00
1.000000000000e-02 6.333330000000e-02 0.000000000000e+00
1.000000000000e-02 6.000000000000e-02 0.000000000000e+00
1.000000000000e-02 5.666670000000e-02 0.000000000000e+00
1.000000000000e-02 5.333330000000e-02 0.000000000000e+00
1.000000000000e-02 5.000000000000e-02 0.000000000000e+00
1.000000000000e-02 4.666670000000e-02 0.000000000000e+00
1.000000000000e-02 4.333330000000e-02 0.000000000000e+00
1.000000000000e-02 4.000000000000e-02 0.000000000000e+00
1.000000000000e-02 3.666670000000e-02 0.000000000000e+00
1.000000000000e-02 3.333330000000e-02 0.000000000000e+00
1.000000000000e-02 3.000000000000e-02 0.000000000000e+00
1.000000000000e-02 2.666670000000e-02 0.000000000000e+00
1.000000000000e-02 2.333330000000e-02 0.000000000000e+00
1.000000000000e-02 2.000000000000e-02 0.000000000000e+00
1.000000000000e-02 1.666670000000e-02 0.000000000000e+00
1.000000000000e-02 1.333330000000e-02 0.000000000000e+00
1.000000000000e-02 1.000000000000e-02 0.000000000000e+00
1.000000000000e-02 6.666670000000e-03 0.000000000000e+00
1.000000000000e-02 3.333330000000e-03 0.000000000000e+00
1.000000000000e-02 7.771560000000e-18 0.000000000000e+00
[...]
POINT_DATA 1849
SCALARS HEAD double 1
LOOKUP_TABLE default
1.000243142211e+01
1.000243255126e+01
1.000243138911e+01
1.000243035831e+01
1.000243616138e+01
1.000243466731e+01
1.000244300114e+01
1.000244081099e+01
1.000245485755e+01
1.000245101541e+01
1.000247503828e+01
1.000246859251e+01
1.000253392335e+01
1.000248614086e+01
1.000254820846e+01
1.000249790011e+01
1.000254813883e+01
1.000249634258e+01
1.000253664541e+01
1.000248446637e+01
1.000251476860e+01
1.000246287602e+01
1.000248164745e+01
1.000243115130e+01
1.000243454993e+01
1.000238649891e+01
1.000234337475e+01
1.000233659587e+01
1.000229156423e+01
1.000228734441e+01
1.000224880781e+01
1.000224622764e+01
1.000221182204e+01
1.000220996590e+01
1.000217875434e+01
1.000217731202e+01
1.000214867804e+01
1.000214749086e+01
1.000212103354e+01
1.000212001523e+01
1.000209545902e+01
1.000209455836e+01
1.000207170800e+01
1.000207089281e+01
1.000204960141e+01
1.000204885053e+01
1.000202900556e+01
1.000202830455e+01
1.000200981907e+01
1.000200915778e+01
1.000199196002e+01
1.000199133108e+01
1.000197536196e+01
1.000197475990e+01
1.000195997123e+01
1.000195939188e+01
1.000194574129e+01
1.000194518140e+01
1.000193263244e+01
1.000193208937e+01
1.000192061147e+01
1.000192008308e+01
1.000190964841e+01
1.000190913287e+01
1.000189971709e+01
1.000189921283e+01
1.000189079543e+01
1.000189030105e+01
1.000188286328e+01
1.000188237751e+01
1.000187590314e+01
1.000187542481e+01
1.000186990049e+01
1.000186942851e+01
1.000186484239e+01
1.000186437570e+01
1.000186071810e+01
1.000186025570e+01
1.000185751925e+01
1.000185706017e+01
1.000185523905e+01
1.000185478232e+01
1.000185387281e+01
1.000185341749e+01
1.000185341771e+01
1.000185296286e+01
1.000242810843e+01
1.000242734548e+01
1.000243050114e+01
1.000243481153e+01
1.000244147003e+01
1.000244955562e+01
1.000245672489e+01
1.000245919057e+01
1.000245453174e+01
1.000244166168e+01
1.000242077136e+01
1.000239186854e+01
1.000235625993e+01
1.000231653418e+01
1.000227663620e+01
1.000223901872e+01
1.000220466139e+01
1.000217312011e+01
1.000214400632e+01
1.000211700704e+01
1.000209188626e+01
1.000206846712e+01
1.000204661157e+01
1.000202621123e+01
1.000200718095e+01
1.000198944953e+01
1.000197295776e+01
1.000195765702e+01
1.000194350427e+01
1.000193046229e+01
1.000191849970e+01
1.000190758781e+01
1.000189770143e+01
1.000188881915e+01
1.000188092134e+01
1.000187399090e+01
1.000186801358e+01
1.000186297663e+01
1.000185886948e+01
1.000185568387e+01
1.000185341307e+01
1.000185205246e+01
1.000185159923e+01
1.000242326727e+01
1.000242287500e+01
1.000242446571e+01
1.000242648638e+01
1.000242907385e+01
1.000243142135e+01
1.000243199905e+01
1.000242900216e+01
1.000242088018e+01
1.000240681609e+01
1.000238661430e+01
1.000236069212e+01
1.000233011150e+01
1.000229661845e+01
1.000226220470e+01
1.000222854930e+01
1.000219656008e+01
1.000216653450e+01
1.000213843257e+01
1.000211213804e+01
1.000208752639e+01
1.000206448723e+01
1.000204292362e+01
1.000202275351e+01
1.000200390905e+01
1.000198633072e+01
1.000196996737e+01
1.000195477595e+01
1.000194071742e+01
1.000192775743e+01
1.000191586663e+01
1.000190501785e+01
1.000189518699e+01
1.000188635348e+01
1.000187849826e+01
1.000187160468e+01
1.000186565883e+01
1.000186064819e+01
1.000185656237e+01
1.000185339323e+01
1.000185113414e+01
1.000184978053e+01
1.000184932963e+01
1.000241763024e+01
1.000241764228e+01
1.000241757099e+01
1.000241734865e+01
1.000241664891e+01
1.000241485084e+01
1.000241104614e+01
1.000240420352e+01
1.000239343511e+01
1.000237820930e+01
1.000235842942e+01
1.000233444399e+01
1.000230706250e+01
1.000227740514e+01
1.000224673087e+01
1.000221614824e+01
1.000218643439e+01
1.000215801148e+01
1.000213105258e+01
1.000210559058e+01
1.000208160043e+01
1.000205903676e+01
1.000203784571e+01
1.000201797408e+01
1.000199937369e+01
1.000198199863e+01
1.000196580731e+01
1.000195076346e+01
1.000193683291e+01
1.000192398484e+01
1.000191219247e+01
1.000190143051e+01
1.000189167627e+01
1.000188291019e+01
1.000187511398e+01
1.000186827156e+01
1.000186236942e+01
1.000185739538e+01
1.000185333924e+01
1.000185019304e+01
1.000184795027e+01
1.000184660641e+01
1.000184615877e+01
1.000241202063e+01
1.000241242642e+01
1.000241077302e+01
1.000240857547e+01
1.000240519425e+01
1.000240023802e+01
1.000239318569e+01
1.000238346866e+01
1.000237060007e+01
1.000235430909e+01
1.000233459066e+01
1.000231173661e+01
1.000228633472e+01
1.000225914856e+01
1.000223102539e+01
1.000220274846e+01
1.000217493144e+01
1.000214798799e+01
1.000212215983e+01
1.000209756468e+01
1.000207424717e+01
1.000205221398e+01
1.000203144880e+01
1.000201192523e+01
1.000199361417e+01
1.000197648342e+01
1.000196050124e+01
1.000194563852e+01
1.000193186630e+01
1.000191915761e+01
1.000190748848e+01
1.000189683572e+01
1.000188717819e+01
1.000187849748e+01
1.000187077616e+01
1.000186399879e+01
1.000185815232e+01
1.000185322492e+01
1.000184920667e+01
1.000184608977e+01
1.000184386784e+01
1.000184253646e+01
1.000184209297e+01
1.000240722996e+01
1.000240800830e+01
1.000240488331e+01
1.000240092675e+01
1.000239525927e+01
1.000238770285e+01
1.000237802218e+01
1.000236595640e+01
1.000235129079e+01
1.000233394175e+01
1.000231397971e+01
1.000229165733e+01
1.000226741742e+01
1.000224180152e+01
1.000221540995e+01
1.000218881429e+01
1.000216249422e+01
1.000213681100e+01
1.000211201222e+01
1.000208824880e+01
1.000206560439e+01
1.000204412041e+01
1.000202380863e+01
1.000200466430e+01
1.000198667466e+01
1.000196981972e+01
1.000195407687e+01
1.000193942377e+01
1.000192583652e+01
1.000191329192e+01
1.000190176881e+01
1.000189124612e+01
1.000188170427e+01
1.000187312602e+01
1.000186549485e+01
1.000185879595e+01
1.000185301677e+01
1.000184814583e+01
1.000184417348e+01
1.000184109211e+01
1.000183889548e+01
1.000183757924e+01
1.000183714079e+01
1.000240399805e+01
1.000240514348e+01
1.000240058438e+01
1.000239496043e+01
1.000238718475e+01
1.000237728490e+01
1.000236526068e+01
1.000235108152e+01
1.000233472858e+01
1.000231625357e+01
1.000229578290e+01
1.000227354581e+01
1.000224989099e+01
1.000222521740e+01
1.000219996520e+01
1.000217456107e+01
1.000214937853e+01
1.000212471863e+01
1.000210080742e+01
1.000207779930e+01
1.000205579329e+01
1.000203484948e+01
1.000201499743e+01
1.000199624761e+01
1.000197859957e+01
1.000196204312e+01
1.000194656322e+01
1.000193214333e+01
1.000191876403e+01
1.000190640550e+01
1.000189504915e+01
1.000188467585e+01
1.000187526750e+01
1.000186680797e+01
1.000185928156e+01
1.000185267408e+01
1.000184697345e+01
1.000184216854e+01
1.000183824992e+01
1.000183521019e+01
1.000183304321e+01
1.000183174474e+01
1.000183131220e+01
1.000240304863e+01
1.000240458750e+01
1.000239849596e+01
1.000239113503e+01
1.000238121481e+01
1.000236898476e+01
1.000235465825e+01
1.000233839475e+01
1.000232032487e+01
1.000230059862e+01
1.000227938102e+01
1.000225688407e+01
1.000223339162e+01
1.000220920501e+01
1.000218465366e+01
1.000216005950e+01
1.000213571179e+01
1.000211185416e+01
1.000208868068e+01
1.000206633337e+01
1.000204491116e+01
1.000202448035e+01
1.000200507914e+01
1.000198672686e+01
1.000196943104e+01
1.000195318832e+01
1.000193798928e+01
1.000192382186e+01
1.000191067018e+01
1.000189851719e+01
1.000188734644e+01
1.000187714045e+01
1.000186788236e+01
1.000185955699e+01
1.000185214935e+01
1.000184564581e+01
1.000184003467e+01
1.000183530509e+01
1.000183144787e+01
1.000182845575e+01
1.000182632272e+01
1.000182504458e+01
1.000182461882e+01
1.000240513988e+01
1.000240718516e+01
1.000239925075e+01
1.000238985507e+01
1.000237753587e+01
1.000236276742e+01
1.000234598332e+01
1.000232751064e+01
1.000230759518e+01
1.000228645379e+01
1.000226427118e+01
1.000224123953e+01
1.000221759124e+01
1.000219355411e+01
1.000216937497e+01
1.000214529552e+01
1.000212153647e+01
1.000209828942e+01
1.000207571352e+01
1.000205393055e+01
1.000203303002e+01
1.000201307572e+01
1.000199410733e+01
1.000197614749e+01
1.000195920765e+01
1.000194328835e+01
1.000192838365e+01
1.000191448444e+01
1.000190157733e+01
1.000188964726e+01
1.000187867934e+01
1.000186865732e+01
1.000185956532e+01
1.000185138884e+01
1.000184411347e+01
1.000183772598e+01
1.000183221497e+01
1.000182756982e+01
1.000182378152e+01
1.000182084289e+01
1.000181874801e+01
1.000181749275e+01
1.000181707462e+01
1.000241139972e+01
1.000241371950e+01
1.000240342740e+01
1.000239150991e+01
1.000237627226e+01
1.000235853447e+01
1.000233896900e+01
1.000231804803e+01
1.000229609380e+01
1.000227335478e+01
1.000225001131e+01
1.000222622554e+01
1.000220218086e+01
1.000217804267e+01
1.000215399053e+01
1.000213020077e+01
1.000210683632e+01
1.000208404208e+01
1.000206194239e+01
1.000204063540e+01
1.000202019590e+01
1.000200067953e+01
1.000198212224e+01
1.000196454563e+01
1.000194796160e+01
1.000193237188e+01
1.000191777201e+01
1.000190415433e+01
1.000189150679e+01
1.000187981546e+01
1.000186906639e+01
1.000185924410e+01
1.000185033329e+01
1.000184231992e+01
1.000183518991e+01
1.000182893029e+01
1.000182352984e+01
1.000181897808e+01
1.000181526609e+01
1.000181238675e+01
1.000181033420e+01
1.000180910432e+01
1.000180869464e+01
1.000242196947e+01
1.000242555657e+01
1.000241184599e+01
1.000239645671e+01
1.000237743751e+01
1.000235606547e+01
1.000233326072e+01
1.000230958202e+01
1.000228536901e+01
1.000226085568e+01
1.000223618735e+01
1.000221147985e+01
1.000218686295e+01
1.000216244297e+01
1.000213834000e+01
1.000211467382e+01
1.000209155694e+01
1.000206909201e+01
1.000204737010e+01
1.000202646458e+01
1.000200643288e+01
1.000198731905e+01
1.000196915180e+01
1.000195194851e+01
1.000193571878e+01
1.000192046329e+01
1.000190617727e+01
1.000189285310e+01
1.000188047897e+01
1.000186904128e+01
1.000185852635e+01
1.000184891896e+01
1.000184020402e+01
1.000183236763e+01
1.000182539584e+01
1.000181927575e+01
1.000181399617e+01
1.000180954666e+01
1.000180591831e+01
1.000180310402e+01
1.000180109792e+01
1.000179989592e+01
1.000179949553e+01
1.000243963822e+01
1.000244472214e+01
1.000242544504e+01
1.000240493086e+01
1.000238078590e+01
1.000235492539e+01
1.000232835799e+01
1.000230160419e+01
1.000227493225e+01
1.000224850392e+01
1.000222239398e+01
1.000219665251e+01
1.000217134765e+01
1.000214652605e+01
1.000212225210e+01
1.000209859451e+01
1.000207562059e+01
1.000205339461e+01
1.000203197630e+01
1.000201141458e+01
1.000199174844e+01
1.000197300853e+01
1.000195521416e+01
1.000193837629e+01
1.000192250021e+01
1.000190758380e+01
1.000189362050e+01
1.000188060153e+01
1.000186851433e+01
1.000185734486e+01
1.000184707908e+01
1.000183770154e+01
1.000182919699e+01
1.000182155136e+01
1.000181475056e+01
1.000180878159e+01
1.000180363315e+01
1.000179929473e+01
1.000179575735e+01
1.000179301386e+01
1.000179105836e+01
1.000178988672e+01
1.000178949646e+01
1.000246684185e+01
1.000247531680e+01
1.000244539211e+01
1.000241649631e+01
1.000238559084e+01
1.000235436047e+01
1.000232356740e+01
1.000229349806e+01
1.000226424181e+01
1.000223582707e+01
1.000220822377e+01
1.000218139821e+01
1.000215534918e+01
1.000213006232e+01
1.000210554879e+01
1.000208183031e+01
1.000205893328e+01
1.000203688706e+01
1.000201572244e+01
1.000199546491e+01
1.000197613511e+01
1.000195774959e+01
1.000194031711e+01
1.000192384086e+01
1.000190832043e+01
1.000189374966e+01
1.000188011904e+01
1.000186741763e+01
1.000185563135e+01
1.000184474499e+01
1.000183474359e+01
1.000182561106e+01
1.000181733157e+01
1.000180989060e+01
1.000180327368e+01
1.000179746753e+01
1.000179246060e+01
1.000178824217e+01
1.000178480314e+01
1.000178213623e+01
1.000178023548e+01
1.000177909671e+01
1.000177871741e+01
1.000251040204e+01
1.000252402127e+01
1.000246987074e+01
1.000242951447e+01
1.000239043781e+01
1.000235324879e+01
1.000231799732e+01
1.000228454589e+01
1.000225271001e+01
1.000222233797e+01
1.000219327082e+01
1.000216537980e+01
1.000213859028e+01
1.000211282761e+01
1.000208805286e+01
1.000206424496e+01
1.000204139358e+01
1.000201949682e+01
1.000199855914e+01
1.000197858434e+01
1.000195957551e+01
1.000194153517e+01
1.000192446114e+01
1.000190834819e+01
1.000189318939e+01
1.000187897366e+01
1.000186568773e+01
1.000185331778e+01
1.000184184751e+01
1.000183126001e+01
1.000182153894e+01
1.000181266710e+01
1.000180462780e+01
1.000179740576e+01
1.000179098593e+01
1.000178535455e+01
1.000178049968e+01
1.000177641030e+01
1.000177307710e+01
1.000177049264e+01
1.000176865085e+01
1.000176754748e+01
1.000176717997e+01
1.000255541132e+01
1.000265176046e+01
1.000249422603e+01
1.000244081499e+01
1.000239328105e+01
1.000235016653e+01
1.000231061906e+01
1.000227397202e+01
1.000223973289e+01
1.000220755351e+01
1.000217714397e+01
1.000214827794e+01
1.000212081025e+01
1.000209461065e+01
1.000206959550e+01
1.000204570618e+01
1.000202290040e+01
1.000200114895e+01
1.000198043302e+01
1.000196073689e+01
1.000194204740e+01
1.000192435376e+01
1.000190764305e+01
1.000189190138e+01
1.000187711498e+01
1.000186326733e+01
1.000185034088e+01
1.000183831842e+01
1.000182718095e+01
1.000181690938e+01
1.000180748563e+01
1.000179889104e+01
1.000179110775e+01
1.000178411949e+01
1.000177791043e+01
1.000177246614e+01
1.000176777415e+01
1.000176382310e+01
1.000176060336e+01
1.000175810731e+01
1.000175632874e+01
1.000175526333e+01
1.000175490848e+01
1.000259045293e+01
1.000269181821e+01
1.000251075720e+01
1.000244662996e+01
1.000239179163e+01
1.000234360687e+01
1.000230038745e+01
1.000226102561e+01
1.000222472645e+01
1.000219102179e+01
1.000215948284e+01
1.000212980051e+01
1.000210177045e+01
1.000207521670e+01
1.000205001898e+01
1.000202608795e+01
1.000200335489e+01
1.000198176770e+01
1.000196128778e+01
1.000194188236e+01
1.000192352379e+01
1.000190618903e+01
1.000188985498e+01
1.000187449936e+01
1.000186010145e+01
1.000184663914e+01
1.000183409032e+01
1.000182243403e+01
1.000181164826e+01
1.000180171145e+01
1.000179260342e+01
1.000178430382e+01
1.000177679336e+01
1.000177005455e+01
1.000176407056e+01
1.000175882618e+01
1.000175430832e+01
1.000175050513e+01
1.000174740668e+01
1.000174500512e+01
1.000174329412e+01
1.000174226928e+01
1.000174192796e+01
1.000260035279e+01
1.000270466879e+01
1.000251454424e+01
1.000244368999e+01
1.000238393083e+01
1.000233216752e+01
1.000228655214e+01
1.000224498600e+01
1.000220719280e+01
1.000217235766e+01
1.000213998070e+01
1.000210969739e+01
1.000208126465e+01
1.000205447531e+01
1.000202918319e+01
1.000200527632e+01
1.000198266584e+01
1.000196128163e+01
1.000194106894e+01
1.000192198071e+01
1.000190397677e+01
1.000188702319e+01
1.000187108751e+01
1.000185613952e+01
1.000184215179e+01
1.000182909660e+01
1.000181694721e+01
1.000180567876e+01
1.000179526606e+01
1.000178568487e+01
1.000177691269e+01
1.000176892726e+01
1.000176170763e+01
1.000175523491e+01
1.000174949112e+01
1.000174446011e+01
1.000174012806e+01
1.000173648261e+01
1.000173351349e+01
1.000173121264e+01
1.000172957362e+01
1.000172859198e+01
1.000172826507e+01
1.000259105924e+01
1.000269612101e+01
1.000250330673e+01
1.000243018592e+01
1.000236836617e+01
1.000231496054e+01
1.000226779614e+01
1.000222540729e+01
1.000218677186e+01
1.000215127923e+01
1.000211840559e+01
1.000208777415e+01
1.000205912842e+01
1.000203224753e+01
1.000200697156e+01
1.000198317477e+01
1.000196075474e+01
1.000193962829e+01
1.000191972830e+01
1.000190099626e+01
1.000188338151e+01
1.000186684066e+01
1.000185133294e+01
1.000183682080e+01
1.000182327044e+01
1.000181064874e+01
1.000179892436e+01
1.000178806858e+01
1.000177805296e+01
1.000176885047e+01
1.000176043618e+01
1.000175278571e+01
1.000174587630e+01
1.000173968746e+01
1.000173419992e+01
1.000172939646e+01
1.000172526241e+01
1.000172178489e+01
1.000171895330e+01
1.000171675946e+01
1.000171519688e+01
1.000171426111e+01
1.000171394948e+01
1.000256375515e+01
1.000266827646e+01
1.000247735572e+01
1.000240559118e+01
1.000234469541e+01
1.000229165919e+01
1.000224456195e+01
1.000220207124e+01
1.000216329097e+01
1.000212762358e+01
1.000209460845e+01
1.000206389501e+01
1.000203523958e+01
1.000200842503e+01
1.000198328966e+01
1.000195970248e+01
1.000193755391e+01
1.000191675243e+01
1.000189722218e+01
1.000187889582e+01
1.000186171424e+01
1.000184562607e+01
1.000183058320e+01
1.000181654146e+01
1.000180346108e+01
1.000179130380e+01
1.000178003385e+01
1.000176961878e+01
1.000176002700e+01
1.000175122875e+01
1.000174319648e+01
1.000173590362e+01
1.000172932536e+01
1.000172343952e+01
1.000171822536e+01
1.000171366448e+01
1.000170974118e+01
1.000170644206e+01
1.000170375636e+01
1.000170167583e+01
1.000170019414e+01
1.000169930689e+01
1.000169901143e+01
1.000251765808e+01
1.000261946155e+01
1.000243670612e+01
1.000237065822e+01
1.000231344436e+01
1.000226264496e+01
1.000221684706e+01
1.000217510253e+01
1.000213675296e+01
1.000210135034e+01
1.000206852440e+01
1.000203798409e+01
1.000200951948e+01
1.000198293162e+01
1.000195806689e+01
1.000193479647e+01
1.000191300883e+01
1.000189260854e+01
1.000187351390e+01
1.000185565131e+01
1.000183895494e+01
1.000182336675e+01
1.000180883232e+01
1.000179530150e+01
1.000178272898e+01
1.000177107146e+01
1.000176028905e+01
1.000175034577e+01
1.000174120738e+01
1.000173284135e+01
1.000172521774e+01
1.000171830706e+01
1.000171208252e+01
1.000170652025e+01
1.000170159802e+01
1.000169729568e+01
1.000169359654e+01
1.000169048647e+01
1.000168795475e+01
1.000168599376e+01
1.000168459735e+01
1.000168376125e+01
1.000168348286e+01
1.000244728187e+01
1.000254434716e+01
1.000238399638e+01
1.000232742895e+01
1.000227604387e+01
1.000222878830e+01
1.000218516592e+01
1.000214478146e+01
1.000210731489e+01
1.000207252348e+01
1.000204016310e+01
1.000201002002e+01
1.000198193074e+01
1.000195572296e+01
1.000193125784e+01
1.000190841317e+01
1.000188708064e+01
1.000186716331e+01
1.000184857699e+01
1.000183124297e+01
1.000181509033e+01
1.000180005574e+01
1.000178607923e+01
1.000177310536e+01
1.000176108347e+01
1.000174996538e+01
1.000173970686e+01
1.000173026916e+01
1.000172161585e+01
1.000171371329e+01
1.000170652714e+01
1.000170002561e+01
1.000169417912e+01
1.000168896239e+01
1.000168435203e+01
1.000168032607e+01
1.000167686469e+01
1.000167395387e+01
1.000167158414e+01
1.000166974847e+01
1.000166844167e+01
1.000166765943e+01
1.000166739890e+01
1.000236830225e+01
1.000238312049e+01
1.000232458641e+01
1.000227940579e+01
1.000223458473e+01
1.000219134973e+01
1.000215026456e+01
1.000211154368e+01
1.000207522348e+01
1.000204127377e+01
1.000200958293e+01
1.000198001804e+01
1.000195246391e+01
1.000192677704e+01
1.000190283355e+01
1.000188052253e+01
1.000185973909e+01
1.000184039106e+01
1.000182239002e+01
1.000180565501e+01
1.000179011069e+01
1.000177568887e+01
1.000176232566e+01
1.000174996039e+01
1.000173853688e+01
1.000172800220e+01
1.000171830747e+01
1.000170940938e+01
1.000170127532e+01
1.000169386863e+01
1.000168715622e+01
1.000168109248e+01
1.000167564661e+01
1.000167079894e+01
1.000166652458e+01
1.000166279442e+01
1.000165958597e+01
1.000165688251e+01
1.000165468003e+01
1.000165297509e+01
1.000165176267e+01
1.000165103660e+01
1.000165079524e+01
1.000229307556e+01
1.000230330999e+01
1.000226665579e+01
1.000223057400e+01
1.000219136575e+01
1.000215167490e+01
1.000211294231e+01
1.000207586325e+01
1.000204075417e+01
1.000200775601e+01
1.000197686241e+01
1.000194801103e+01
1.000192112668e+01
1.000189608597e+01
1.000187277838e+01
1.000185109776e+01
1.000183096091e+01
1.000181226693e+01
1.000179493472e+01
1.000177887309e+01
1.000176400307e+01
1.000175025714e+01
1.000173756616e+01
1.000172586529e+01
1.000171509515e+01
1.000170519300e+01
1.000169610606e+01
1.000168778773e+01
1.000168018759e+01
1.000167333096e+01
1.000166713017e+01
1.000166153994e+01
1.000165651582e+01
1.000165205194e+01
1.000164815011e+01
1.000164474888e+01
1.000164179681e+01
1.000163931050e+01
1.000163727330e+01
1.000163571073e+01
1.000163459757e+01
1.000163393037e+01
1.000163370552e+01
1.000223756603e+01
1.000224551401e+01
1.000221555509e+01
1.000218423417e+01
1.000214823260e+01
1.000211085541e+01
1.000207385983e+01
1.000203814546e+01
1.000200415509e+01
1.000197211497e+01
1.000194208107e+01
1.000191403870e+01
1.000188796286e+01
1.000186369965e+01
1.000184112320e+01
1.000182018891e+01
1.000180075151e+01