# vtk DataFile Version 3.0
Unstructured Grid from OpenGeoSys
ASCII
DATASET UNSTRUCTURED_GRID
FIELD TimesAndCycles 2
TIME 1 1 double
6.801912812500e+01
CYLCE 1 1 long
6
POINTS 1849 double
0.000000000000e+00 1.400000000000e-01 0.000000000000e+00
0.000000000000e+00 1.366670000000e-01 0.000000000000e+00
3.333330000000e-03 1.366670000000e-01 0.000000000000e+00
3.333330000000e-03 1.400000000000e-01 0.000000000000e+00
0.000000000000e+00 1.333330000000e-01 0.000000000000e+00
3.333330000000e-03 1.333330000000e-01 0.000000000000e+00
0.000000000000e+00 1.300000000000e-01 0.000000000000e+00
3.333330000000e-03 1.300000000000e-01 0.000000000000e+00
0.000000000000e+00 1.266670000000e-01 0.000000000000e+00
3.333330000000e-03 1.266670000000e-01 0.000000000000e+00
0.000000000000e+00 1.233330000000e-01 0.000000000000e+00
3.333330000000e-03 1.233330000000e-01 0.000000000000e+00
0.000000000000e+00 1.200000000000e-01 0.000000000000e+00
3.333330000000e-03 1.200000000000e-01 0.000000000000e+00
0.000000000000e+00 1.166670000000e-01 0.000000000000e+00
3.333330000000e-03 1.166670000000e-01 0.000000000000e+00
0.000000000000e+00 1.133330000000e-01 0.000000000000e+00
3.333330000000e-03 1.133330000000e-01 0.000000000000e+00
0.000000000000e+00 1.100000000000e-01 0.000000000000e+00
3.333330000000e-03 1.100000000000e-01 0.000000000000e+00
0.000000000000e+00 1.066670000000e-01 0.000000000000e+00
3.333330000000e-03 1.066670000000e-01 0.000000000000e+00
0.000000000000e+00 1.033330000000e-01 0.000000000000e+00
3.333330000000e-03 1.033330000000e-01 0.000000000000e+00
0.000000000000e+00 1.000000000000e-01 0.000000000000e+00
3.333330000000e-03 1.000000000000e-01 0.000000000000e+00
0.000000000000e+00 9.666670000000e-02 0.000000000000e+00
3.333330000000e-03 9.666670000000e-02 0.000000000000e+00
0.000000000000e+00 9.333330000000e-02 0.000000000000e+00
3.333330000000e-03 9.333330000000e-02 0.000000000000e+00
0.000000000000e+00 9.000000000000e-02 0.000000000000e+00
3.333330000000e-03 9.000000000000e-02 0.000000000000e+00
0.000000000000e+00 8.666670000000e-02 0.000000000000e+00
3.333330000000e-03 8.666670000000e-02 0.000000000000e+00
0.000000000000e+00 8.333330000000e-02 0.000000000000e+00
3.333330000000e-03 8.333330000000e-02 0.000000000000e+00
0.000000000000e+00 8.000000000000e-02 0.000000000000e+00
3.333330000000e-03 8.000000000000e-02 0.000000000000e+00
0.000000000000e+00 7.666670000000e-02 0.000000000000e+00
3.333330000000e-03 7.666670000000e-02 0.000000000000e+00
0.000000000000e+00 7.333330000000e-02 0.000000000000e+00
3.333330000000e-03 7.333330000000e-02 0.000000000000e+00
0.000000000000e+00 7.000000000000e-02 0.000000000000e+00
3.333330000000e-03 7.000000000000e-02 0.000000000000e+00
0.000000000000e+00 6.666670000000e-02 0.000000000000e+00
3.333330000000e-03 6.666670000000e-02 0.000000000000e+00
0.000000000000e+00 6.333330000000e-02 0.000000000000e+00
3.333330000000e-03 6.333330000000e-02 0.000000000000e+00
0.000000000000e+00 6.000000000000e-02 0.000000000000e+00
3.333330000000e-03 6.000000000000e-02 0.000000000000e+00
0.000000000000e+00 5.666670000000e-02 0.000000000000e+00
3.333330000000e-03 5.666670000000e-02 0.000000000000e+00
0.000000000000e+00 5.333330000000e-02 0.000000000000e+00
3.333330000000e-03 5.333330000000e-02 0.000000000000e+00
0.000000000000e+00 5.000000000000e-02 0.000000000000e+00
3.333330000000e-03 5.000000000000e-02 0.000000000000e+00
0.000000000000e+00 4.666670000000e-02 0.000000000000e+00
3.333330000000e-03 4.666670000000e-02 0.000000000000e+00
0.000000000000e+00 4.333330000000e-02 0.000000000000e+00
3.333330000000e-03 4.333330000000e-02 0.000000000000e+00
0.000000000000e+00 4.000000000000e-02 0.000000000000e+00
3.333330000000e-03 4.000000000000e-02 0.000000000000e+00
0.000000000000e+00 3.666670000000e-02 0.000000000000e+00
3.333330000000e-03 3.666670000000e-02 0.000000000000e+00
0.000000000000e+00 3.333330000000e-02 0.000000000000e+00
3.333330000000e-03 3.333330000000e-02 0.000000000000e+00
0.000000000000e+00 3.000000000000e-02 0.000000000000e+00
3.333330000000e-03 3.000000000000e-02 0.000000000000e+00
0.000000000000e+00 2.666670000000e-02 0.000000000000e+00
3.333330000000e-03 2.666670000000e-02 0.000000000000e+00
0.000000000000e+00 2.333330000000e-02 0.000000000000e+00
3.333330000000e-03 2.333330000000e-02 0.000000000000e+00
0.000000000000e+00 2.000000000000e-02 0.000000000000e+00
3.333330000000e-03 2.000000000000e-02 0.000000000000e+00
0.000000000000e+00 1.666670000000e-02 0.000000000000e+00
3.333330000000e-03 1.666670000000e-02 0.000000000000e+00
0.000000000000e+00 1.333330000000e-02 0.000000000000e+00
3.333330000000e-03 1.333330000000e-02 0.000000000000e+00
0.000000000000e+00 1.000000000000e-02 0.000000000000e+00
3.333330000000e-03 1.000000000000e-02 0.000000000000e+00
0.000000000000e+00 6.666670000000e-03 0.000000000000e+00
3.333330000000e-03 6.666670000000e-03 0.000000000000e+00
0.000000000000e+00 3.333330000000e-03 0.000000000000e+00
3.333330000000e-03 3.333330000000e-03 0.000000000000e+00
0.000000000000e+00 7.771560000000e-18 0.000000000000e+00
3.333330000000e-03 7.771560000000e-18 0.000000000000e+00
6.666670000000e-03 1.366670000000e-01 0.000000000000e+00
6.666670000000e-03 1.400000000000e-01 0.000000000000e+00
6.666670000000e-03 1.333330000000e-01 0.000000000000e+00
6.666670000000e-03 1.300000000000e-01 0.000000000000e+00
6.666670000000e-03 1.266670000000e-01 0.000000000000e+00
6.666670000000e-03 1.233330000000e-01 0.000000000000e+00
6.666670000000e-03 1.200000000000e-01 0.000000000000e+00
6.666670000000e-03 1.166670000000e-01 0.000000000000e+00
6.666670000000e-03 1.133330000000e-01 0.000000000000e+00
6.666670000000e-03 1.100000000000e-01 0.000000000000e+00
6.666670000000e-03 1.066670000000e-01 0.000000000000e+00
6.666670000000e-03 1.033330000000e-01 0.000000000000e+00
6.666670000000e-03 1.000000000000e-01 0.000000000000e+00
6.666670000000e-03 9.666670000000e-02 0.000000000000e+00
6.666670000000e-03 9.333330000000e-02 0.000000000000e+00
6.666670000000e-03 9.000000000000e-02 0.000000000000e+00
6.666670000000e-03 8.666670000000e-02 0.000000000000e+00
6.666670000000e-03 8.333330000000e-02 0.000000000000e+00
6.666670000000e-03 8.000000000000e-02 0.000000000000e+00
6.666670000000e-03 7.666670000000e-02 0.000000000000e+00
6.666670000000e-03 7.333330000000e-02 0.000000000000e+00
6.666670000000e-03 7.000000000000e-02 0.000000000000e+00
6.666670000000e-03 6.666670000000e-02 0.000000000000e+00
6.666670000000e-03 6.333330000000e-02 0.000000000000e+00
6.666670000000e-03 6.000000000000e-02 0.000000000000e+00
6.666670000000e-03 5.666670000000e-02 0.000000000000e+00
6.666670000000e-03 5.333330000000e-02 0.000000000000e+00
6.666670000000e-03 5.000000000000e-02 0.000000000000e+00
6.666670000000e-03 4.666670000000e-02 0.000000000000e+00
6.666670000000e-03 4.333330000000e-02 0.000000000000e+00
6.666670000000e-03 4.000000000000e-02 0.000000000000e+00
6.666670000000e-03 3.666670000000e-02 0.000000000000e+00
6.666670000000e-03 3.333330000000e-02 0.000000000000e+00
6.666670000000e-03 3.000000000000e-02 0.000000000000e+00
6.666670000000e-03 2.666670000000e-02 0.000000000000e+00
6.666670000000e-03 2.333330000000e-02 0.000000000000e+00
6.666670000000e-03 2.000000000000e-02 0.000000000000e+00
6.666670000000e-03 1.666670000000e-02 0.000000000000e+00
6.666670000000e-03 1.333330000000e-02 0.000000000000e+00
6.666670000000e-03 1.000000000000e-02 0.000000000000e+00
6.666670000000e-03 6.666670000000e-03 0.000000000000e+00
6.666670000000e-03 3.333330000000e-03 0.000000000000e+00
6.666670000000e-03 7.771560000000e-18 0.000000000000e+00
1.000000000000e-02 1.366670000000e-01 0.000000000000e+00
1.000000000000e-02 1.400000000000e-01 0.000000000000e+00
1.000000000000e-02 1.333330000000e-01 0.000000000000e+00
1.000000000000e-02 1.300000000000e-01 0.000000000000e+00
1.000000000000e-02 1.266670000000e-01 0.000000000000e+00
1.000000000000e-02 1.233330000000e-01 0.000000000000e+00
1.000000000000e-02 1.200000000000e-01 0.000000000000e+00
1.000000000000e-02 1.166670000000e-01 0.000000000000e+00
1.000000000000e-02 1.133330000000e-01 0.000000000000e+00
1.000000000000e-02 1.100000000000e-01 0.000000000000e+00
1.000000000000e-02 1.066670000000e-01 0.000000000000e+00
1.000000000000e-02 1.033330000000e-01 0.000000000000e+00
1.000000000000e-02 1.000000000000e-01 0.000000000000e+00
1.000000000000e-02 9.666670000000e-02 0.000000000000e+00
1.000000000000e-02 9.333330000000e-02 0.000000000000e+00
1.000000000000e-02 9.000000000000e-02 0.000000000000e+00
1.000000000000e-02 8.666670000000e-02 0.000000000000e+00
1.000000000000e-02 8.333330000000e-02 0.000000000000e+00
1.000000000000e-02 8.000000000000e-02 0.000000000000e+00
1.000000000000e-02 7.666670000000e-02 0.000000000000e+00
1.000000000000e-02 7.333330000000e-02 0.000000000000e+00
1.000000000000e-02 7.000000000000e-02 0.000000000000e+00
1.000000000000e-02 6.666670000000e-02 0.000000000000e+00
1.000000000000e-02 6.333330000000e-02 0.000000000000e+00
1.000000000000e-02 6.000000000000e-02 0.000000000000e+00
1.000000000000e-02 5.666670000000e-02 0.000000000000e+00
1.000000000000e-02 5.333330000000e-02 0.000000000000e+00
1.000000000000e-02 5.000000000000e-02 0.000000000000e+00
1.000000000000e-02 4.666670000000e-02 0.000000000000e+00
1.000000000000e-02 4.333330000000e-02 0.000000000000e+00
1.000000000000e-02 4.000000000000e-02 0.000000000000e+00
1.000000000000e-02 3.666670000000e-02 0.000000000000e+00
1.000000000000e-02 3.333330000000e-02 0.000000000000e+00
1.000000000000e-02 3.000000000000e-02 0.000000000000e+00
1.000000000000e-02 2.666670000000e-02 0.000000000000e+00
1.000000000000e-02 2.333330000000e-02 0.000000000000e+00
1.000000000000e-02 2.000000000000e-02 0.000000000000e+00
1.000000000000e-02 1.666670000000e-02 0.000000000000e+00
1.000000000000e-02 1.333330000000e-02 0.000000000000e+00
1.000000000000e-02 1.000000000000e-02 0.000000000000e+00
1.000000000000e-02 6.666670000000e-03 0.000000000000e+00
1.000000000000e-02 3.333330000000e-03 0.000000000000e+00
1.000000000000e-02 7.771560000000e-18 0.000000000000e+00
[...]
POINT_DATA 1849
SCALARS HEAD double 1
LOOKUP_TABLE default
1.000244049264e+01
1.000244162347e+01
1.000244045967e+01
1.000243942713e+01
1.000244523832e+01
1.000244374285e+01
1.000245208553e+01
1.000244989434e+01
1.000246395142e+01
1.000246010865e+01
1.000248414288e+01
1.000247769691e+01
1.000254303913e+01
1.000249525683e+01
1.000255733507e+01
1.000250702725e+01
1.000255727525e+01
1.000250547981e+01
1.000254579004e+01
1.000249361203e+01
1.000252391945e+01
1.000247202803e+01
1.000249080221e+01
1.000244030732e+01
1.000244370613e+01
1.000239565640e+01
1.000235252982e+01
1.000234575224e+01
1.000230071558e+01
1.000229649703e+01
1.000225795294e+01
1.000225537393e+01
1.000222095843e+01
1.000221910349e+01
1.000218787985e+01
1.000218643859e+01
1.000215779053e+01
1.000215660431e+01
1.000213013113e+01
1.000212911365e+01
1.000210454003e+01
1.000210364008e+01
1.000208077094e+01
1.000207995637e+01
1.000205864510e+01
1.000205789467e+01
1.000203802909e+01
1.000203732837e+01
1.000201882146e+01
1.000201816047e+01
1.000200094093e+01
1.000200031205e+01
1.000198432104e+01
1.000198371892e+01
1.000196890837e+01
1.000196832890e+01
1.000195465663e+01
1.000195409643e+01
1.000194152666e+01
1.000194098329e+01
1.000192948524e+01
1.000192895645e+01
1.000191850257e+01
1.000191798652e+01
1.000190855267e+01
1.000190804776e+01
1.000189961364e+01
1.000189911858e+01
1.000189166549e+01
1.000189117898e+01
1.000188469093e+01
1.000188421175e+01
1.000187867549e+01
1.000187820266e+01
1.000187360637e+01
1.000187313872e+01
1.000186947288e+01
1.000186900948e+01
1.000186626678e+01
1.000186580670e+01
1.000186398137e+01
1.000186352359e+01
1.000186261201e+01
1.000186215559e+01
1.000186215581e+01
1.000186169990e+01
1.000243717397e+01
1.000243640907e+01
1.000243957244e+01
1.000244389169e+01
1.000245056138e+01
1.000245865944e+01
1.000246584150e+01
1.000246831940e+01
1.000246367151e+01
1.000245081047e+01
1.000242992692e+01
1.000240102836e+01
1.000236542134e+01
1.000232569445e+01
1.000228579269e+01
1.000224816873e+01
1.000221380243e+01
1.000218224982e+01
1.000215312264e+01
1.000212610803e+01
1.000210097015e+01
1.000207753256e+01
1.000205565724e+01
1.000203523616e+01
1.000201618431e+01
1.000199843082e+01
1.000198191681e+01
1.000196659368e+01
1.000195241874e+01
1.000193935525e+01
1.000192737184e+01
1.000191643996e+01
1.000190653462e+01
1.000189763467e+01
1.000188972055e+01
1.000188277538e+01
1.000187678499e+01
1.000187173679e+01
1.000186762030e+01
1.000186442733e+01
1.000186215119e+01
1.000186078736e+01
1.000186033306e+01
1.000243232404e+01
1.000243192919e+01
1.000243352946e+01
1.000243556102e+01
1.000243816199e+01
1.000244052433e+01
1.000244111695e+01
1.000243813403e+01
1.000243002436e+01
1.000241597030e+01
1.000239577598e+01
1.000236985844e+01
1.000233927956e+01
1.000230578535e+01
1.000227136770e+01
1.000223770548e+01
1.000220570692e+01
1.000217566957e+01
1.000214755367e+01
1.000212124330e+01
1.000209661404e+01
1.000207355577e+01
1.000205197180e+01
1.000203178017e+01
1.000201291362e+01
1.000199531272e+01
1.000197892655e+01
1.000196371216e+01
1.000194963100e+01
1.000193664880e+01
1.000192473672e+01
1.000191386742e+01
1.000190401720e+01
1.000189516553e+01
1.000188729362e+01
1.000188038497e+01
1.000187442574e+01
1.000186940358e+01
1.000186530820e+01
1.000186213154e+01
1.000185986702e+01
1.000185851009e+01
1.000185805810e+01
1.000242667312e+01
1.000242668188e+01
1.000242662328e+01
1.000242641510e+01
1.000242573262e+01
1.000242395298e+01
1.000242016630e+01
1.000241334024e+01
1.000240258603e+01
1.000238737159e+01
1.000236760005e+01
1.000234361973e+01
1.000231624014e+01
1.000228658159e+01
1.000225590300e+01
1.000222531318e+01
1.000219558942e+01
1.000216715409e+01
1.000214018051e+01
1.000211470183e+01
1.000209069327e+01
1.000206810960e+01
1.000204689738e+01
1.000202700342e+01
1.000200838000e+01
1.000199098149e+01
1.000197476641e+01
1.000195969898e+01
1.000194574504e+01
1.000193287425e+01
1.000192105959e+01
1.000191027645e+01
1.000190050215e+01
1.000189171735e+01
1.000188390393e+01
1.000187704592e+01
1.000187112998e+01
1.000186614404e+01
1.000186207802e+01
1.000185892407e+01
1.000185667568e+01
1.000185532843e+01
1.000185487964e+01
1.000242104329e+01
1.000242144439e+01
1.000241980886e+01
1.000241763077e+01
1.000241427245e+01
1.000240933983e+01
1.000240230986e+01
1.000239261263e+01
1.000237976065e+01
1.000236348258e+01
1.000234377343e+01
1.000232092505e+01
1.000229552512e+01
1.000226833750e+01
1.000224020957e+01
1.000221192488e+01
1.000218409719e+01
1.000215714043e+01
1.000213129659e+01
1.000210668363e+01
1.000208334672e+01
1.000206129244e+01
1.000204050485e+01
1.000202095789e+01
1.000200262273e+01
1.000198546744e+01
1.000196946043e+01
1.000195457299e+01
1.000194077641e+01
1.000192804387e+01
1.000191635168e+01
1.000190567682e+01
1.000189599845e+01
1.000188729824e+01
1.000187955906e+01
1.000187276541e+01
1.000186690459e+01
1.000186196482e+01
1.000185793629e+01
1.000185481132e+01
1.000185258356e+01
1.000185124866e+01
1.000185080398e+01
1.000241622335e+01
1.000241699462e+01
1.000241389621e+01
1.000240996756e+01
1.000240433145e+01
1.000239680590e+01
1.000238715305e+01
1.000237511102e+01
1.000236046454e+01
1.000234313012e+01
1.000232317831e+01
1.000230086192e+01
1.000227662399e+01
1.000225100628e+01
1.000222460936e+01
1.000219800505e+01
1.000217167335e+01
1.000214597565e+01
1.000212115993e+01
1.000209737753e+01
1.000207471225e+01
1.000205320583e+01
1.000203287023e+01
1.000201370104e+01
1.000199568587e+01
1.000197880499e+01
1.000196303605e+01
1.000194835684e+01
1.000193474402e+01
1.000192217440e+01
1.000191062706e+01
1.000190008120e+01
1.000189051747e+01
1.000188191883e+01
1.000187426886e+01
1.000186755295e+01
1.000186175873e+01
1.000185687485e+01
1.000185289175e+01
1.000184980192e+01
1.000184759920e+01
1.000184627928e+01
1.000184583960e+01
1.000241294873e+01
1.000241408258e+01
1.000240956565e+01
1.000240398370e+01
1.000239625207e+01
1.000238639266e+01
1.000237440264e+01
1.000236025131e+01
1.000234392013e+01
1.000232546120e+01
1.000230500149e+01
1.000228277058e+01
1.000225911751e+01
1.000223444154e+01
1.000220918314e+01
1.000218376922e+01
1.000215857361e+01
1.000213389797e+01
1.000210996837e+01
1.000208693965e+01
1.000206491102e+01
1.000204394306e+01
1.000202406543e+01
1.000200528915e+01
1.000198761394e+01
1.000197102982e+01
1.000195552226e+01
1.000194107482e+01
1.000192766837e+01
1.000191528335e+01
1.000190390144e+01
1.000189350362e+01
1.000188407222e+01
1.000187559111e+01
1.000186804488e+01
1.000186141946e+01
1.000185570303e+01
1.000185088446e+01
1.000184695453e+01
1.000184390591e+01
1.000184173251e+01
1.000184043016e+01
1.000183999634e+01
1.000241193404e+01
1.000241345499e+01
1.000240743540e+01
1.000240013928e+01
1.000239028275e+01
1.000237810389e+01
1.000236381785e+01
1.000234758580e+01
1.000232953970e+01
1.000230983060e+01
1.000228862435e+01
1.000226613345e+01
1.000224264219e+01
1.000221845232e+01
1.000219389358e+01
1.000216928824e+01
1.000214492602e+01
1.000212105077e+01
1.000209785707e+01
1.000207548735e+01
1.000205404047e+01
1.000203358347e+01
1.000201415473e+01
1.000199577390e+01
1.000197844896e+01
1.000196217672e+01
1.000194694809e+01
1.000193275127e+01
1.000191957068e+01
1.000190738957e+01
1.000189619158e+01
1.000188595961e+01
1.000187667699e+01
1.000186832875e+01
1.000186090005e+01
1.000185437756e+01
1.000184874963e+01
1.000184400560e+01
1.000184013641e+01
1.000183713487e+01
1.000183499505e+01
1.000183371283e+01
1.000183328570e+01
1.000241393686e+01
1.000241591916e+01
1.000240812481e+01
1.000239885444e+01
1.000238661698e+01
1.000237190863e+01
1.000235516937e+01
1.000233673035e+01
1.000231683978e+01
1.000229571592e+01
1.000227354453e+01
1.000225051836e+01
1.000222687037e+01
1.000220282871e+01
1.000217864057e+01
1.000215454828e+01
1.000213077278e+01
1.000210750608e+01
1.000208490776e+01
1.000206309992e+01
1.000204217257e+01
1.000202218970e+01
1.000200319143e+01
1.000198520080e+01
1.000196822955e+01
1.000195227851e+01
1.000193734206e+01
1.000192341134e+01
1.000191047328e+01
1.000189851312e+01
1.000188751616e+01
1.000187746638e+01
1.000186834822e+01
1.000186014735e+01
1.000185284957e+01
1.000184644186e+01
1.000184091297e+01
1.000183625246e+01
1.000183245141e+01
1.000182950277e+01
1.000182740069e+01
1.000182614106e+01
1.000182572150e+01
1.000241985324e+01
1.000242245199e+01
1.000241231609e+01
1.000240053433e+01
1.000238538720e+01
1.000236771204e+01
1.000234819217e+01
1.000232730490e+01
1.000230537525e+01
1.000228265327e+01
1.000225932025e+01
1.000223553899e+01
1.000221149338e+01
1.000218734894e+01
1.000216328593e+01
1.000213948113e+01
1.000211609789e+01
1.000209328151e+01
1.000207115682e+01
1.000204982242e+01
1.000202935323e+01
1.000200980565e+01
1.000199121583e+01
1.000197360580e+01
1.000195698778e+01
1.000194136381e+01
1.000192672971e+01
1.000191307818e+01
1.000190039737e+01
1.000188867375e+01
1.000187789351e+01
1.000186804150e+01
1.000185910266e+01
1.000185106318e+01
1.000184390921e+01
1.000183762794e+01
1.000183220838e+01
1.000182764019e+01
1.000182391460e+01
1.000182102459e+01
1.000181896435e+01
1.000181772983e+01
1.000181731864e+01
1.000243086556e+01
1.000243438939e+01
1.000242081683e+01
1.000240555042e+01
1.000238661003e+01
1.000236529502e+01
1.000234253225e+01
1.000231888478e+01
1.000229469463e+01
1.000227019698e+01
1.000224553788e+01
1.000222083343e+01
1.000219621377e+01
1.000217178558e+01
1.000214766936e+01
1.000212398557e+01
1.000210084718e+01
1.000207835709e+01
1.000205660718e+01
1.000203567106e+01
1.000201560671e+01
1.000199645858e+01
1.000197825578e+01
1.000196101605e+01
1.000194474951e+01
1.000192945694e+01
1.000191513396e+01
1.000190177323e+01
1.000188936330e+01
1.000187789080e+01
1.000186734233e+01
1.000185770300e+01
1.000184895795e+01
1.000184109349e+01
1.000183409594e+01
1.000182795263e+01
1.000182265253e+01
1.000181818544e+01
1.000181454249e+01
1.000181171678e+01
1.000180970249e+01
1.000180849555e+01
1.000180809352e+01
1.000244872032e+01
1.000245378810e+01
1.000243457922e+01
1.000241412424e+01
1.000239003686e+01
1.000236422093e+01
1.000233768802e+01
1.000231096085e+01
1.000228430899e+01
1.000225789454e+01
1.000223179225e+01
1.000220605206e+01
1.000218074231e+01
1.000215591004e+01
1.000213162005e+01
1.000210794171e+01
1.000208494289e+01
1.000206268852e+01
1.000204123845e+01
1.000202064266e+01
1.000200094037e+01
1.000198216270e+01
1.000196432941e+01
1.000194745186e+01
1.000193153568e+01
1.000191657904e+01
1.000190257574e+01
1.000188951726e+01
1.000187739139e+01
1.000186618431e+01
1.000185588235e+01
1.000184647041e+01
1.000183793337e+01
1.000183025752e+01
1.000182342894e+01
1.000181743492e+01
1.000181226442e+01
1.000180790707e+01
1.000180435405e+01
1.000180159830e+01
1.000179963405e+01
1.000179845717e+01
1.000179806513e+01
1.000247610072e+01
1.000248454740e+01
1.000245466311e+01
1.000242580574e+01
1.000239493331e+01
1.000236373191e+01
1.000233296330e+01
1.000230291484e+01
1.000227367572e+01
1.000224527326e+01
1.000221767613e+01
1.000219084998e+01
1.000216479358e+01
1.000213949307e+01
1.000211496014e+01
1.000209121714e+01
1.000206829132e+01
1.000204621255e+01
1.000202501228e+01
1.000200471664e+01
1.000198534671e+01
1.000196691956e+01
1.000194944437e+01
1.000193292479e+01
1.000191736072e+01
1.000190274630e+01
1.000188907231e+01
1.000187632816e+01
1.000186450006e+01
1.000185357303e+01
1.000184353248e+01
1.000183436268e+01
1.000182604807e+01
1.000181857437e+01
1.000181192747e+01
1.000180609432e+01
1.000180106364e+01
1.000179682481e+01
1.000179336896e+01
1.000179068891e+01
1.000178877882e+01
1.000178763445e+01
1.000178725322e+01
1.000251976428e+01
1.000253343706e+01
1.000247929239e+01
1.000243894075e+01
1.000239987803e+01
1.000236270017e+01
1.000232746224e+01
1.000229402609e+01
1.000226220601e+01
1.000223184604e+01
1.000220278427e+01
1.000217489063e+01
1.000214809082e+01
1.000212231080e+01
1.000209751265e+01
1.000207367594e+01
1.000205079095e+01
1.000202885702e+01
1.000200787914e+01
1.000198786168e+01
1.000196880827e+01
1.000195072201e+01
1.000193360108e+01
1.000191744077e+01
1.000190223451e+01
1.000188797133e+01
1.000187463842e+01
1.000186222219e+01
1.000185070664e+01
1.000184007511e+01
1.000183031169e+01
1.000182139938e+01
1.000181332194e+01
1.000180606442e+01
1.000179961210e+01
1.000179395160e+01
1.000178907104e+01
1.000178495964e+01
1.000178160834e+01
1.000177900992e+01
1.000177715806e+01
1.000177604863e+01
1.000177567916e+01
1.000256496776e+01
1.000266130251e+01
1.000250377015e+01
1.000245036108e+01
1.000240281979e+01
1.000235969718e+01
1.000232014855e+01
1.000228351495e+01
1.000224929479e+01
1.000221713143e+01
1.000218672676e+01
1.000215785565e+01
1.000213037394e+01
1.000210415258e+01
1.000207910909e+01
1.000205518569e+01
1.000203234118e+01
1.000201054713e+01
1.000198978566e+01
1.000197004165e+01
1.000195130266e+01
1.000193355831e+01
1.000191679612e+01
1.000190100279e+01
1.000188616471e+01
1.000187226560e+01
1.000185928828e+01
1.000184721574e+01
1.000183602921e+01
1.000182570997e+01
1.000181624021e+01
1.000180760164e+01
1.000179977688e+01
1.000179275002e+01
1.000178650573e+01
1.000178102981e+01
1.000177631013e+01
1.000177233552e+01
1.000176909626e+01
1.000176658518e+01
1.000176479591e+01
1.000176372399e+01
1.000176336694e+01
1.000260014623e+01
1.000270151478e+01
1.000252044327e+01
1.000245630224e+01
1.000240143816e+01
1.000235320135e+01
1.000230996729e+01
1.000227061708e+01
1.000223436615e+01
1.000220068074e+01
1.000216914532e+01
1.000213945401e+01
1.000211140496e+01
1.000208482380e+01
1.000205959182e+01
1.000203562056e+01
1.000201284270e+01
1.000199120683e+01
1.000197067537e+01
1.000195121626e+01
1.000193280267e+01
1.000191541199e+01
1.000189902155e+01
1.000188360953e+01
1.000186915546e+01
1.000185563744e+01
1.000184303363e+01
1.000183132318e+01
1.000182048433e+01
1.000181049577e+01
1.000180133771e+01
1.000179299027e+01
1.000178543453e+01
1.000177865373e+01
1.000177263134e+01
1.000176735251e+01
1.000176280477e+01
1.000175897608e+01
1.000175585695e+01
1.000175343936e+01
1.000175171710e+01
1.000175068526e+01
1.000175034174e+01
1.000261019526e+01
1.000271451494e+01
1.000252437605e+01
1.000245350012e+01
1.000239370283e+01
1.000234187539e+01
1.000229600287e+01
1.000225467701e+01
1.000221693000e+01
1.000218211319e+01
1.000214973478e+01
1.000211943657e+01
1.000209097822e+01
1.000206415466e+01
1.000203882087e+01
1.000201486674e+01
1.000199220432e+01
1.000197076457e+01
1.000195049349e+01
1.000193134525e+01
1.000191328024e+01
1.000189626489e+01
1.000188026753e+01
1.000186525821e+01
1.000185120960e+01
1.000183809425e+01
1.000182588556e+01
1.000181455861e+01
1.000180408850e+01
1.000179445121e+01
1.000178562456e+01
1.000177758691e+01
1.000177031790e+01
1.000176379907e+01
1.000175801326e+01
1.000175294484e+01
1.000174858024e+01
1.000174490752e+01
1.000174191636e+01
1.000173959861e+01
1.000173794769e+01
1.000173695891e+01
1.000173662969e+01
1.000260105818e+01
1.000270612415e+01
1.000251329272e+01
1.000244014815e+01
1.000237829049e+01
1.000232481939e+01
1.000227762704e+01
1.000223523645e+01
1.000219663545e+01
1.000216114840e+01
1.000212826428e+01
1.000209760936e+01
1.000206892962e+01
1.000204200605e+01
1.000201668009e+01
1.000199282765e+01
1.000197034742e+01
1.000194915748e+01
1.000192919174e+01
1.000191039249e+01
1.000189270992e+01
1.000187610124e+01
1.000186052610e+01
1.000184594742e+01
1.000183233136e+01
1.000181964496e+01
1.000180785681e+01
1.000179693806e+01
1.000178686052e+01
1.000177759712e+01
1.000176912345e+01
1.000176141584e+01
1.000175445205e+01
1.000174821254e+01
1.000174267881e+01
1.000173783441e+01
1.000173366518e+01
1.000173015842e+01
1.000172730355e+01
1.000172509211e+01
1.000172351727e+01
1.000172257426e+01
1.000172226025e+01
1.000257391907e+01
1.000267844474e+01
1.000248750642e+01
1.000241571910e+01
1.000235479038e+01
1.000230171929e+01
1.000225459352e+01
1.000221208907e+01
1.000217330081e+01
1.000213762222e+01
1.000210458420e+01
1.000207383670e+01
1.000204513718e+01
1.000201826988e+01
1.000199307479e+01
1.000196942225e+01
1.000194720424e+01
1.000192633026e+01
1.000190672583e+01
1.000188832431e+01
1.000187106753e+01
1.000185490502e+01
1.000183978876e+01
1.000182567501e+01
1.000181252409e+01
1.000180029764e+01
1.000178895958e+01
1.000177847720e+01
1.000176881868e+01
1.000175995433e+01
1.000175185717e+01
1.000174450129e+01
1.000173786296e+01
1.000173192098e+01
1.000172665572e+01
1.000172204980e+01
1.000171808837e+01
1.000171475815e+01
1.000171204822e+01
1.000170994980e+01
1.000170845586e+01
1.000170756141e+01
1.000170726360e+01
1.000252799580e+01
1.000262980349e+01
1.000244703102e+01
1.000238096213e+01
1.000232372092e+01
1.000227289126e+01
1.000222706468e+01
1.000218529466e+01
1.000214692091e+01
1.000211149028e+01
1.000207862861e+01
1.000204804238e+01
1.000201952209e+01
1.000199286991e+01
1.000196793402e+01
1.000194458733e+01
1.000192271951e+01
1.000190223677e+01
1.000188305833e+01
1.000186511203e+01
1.000184833274e+01
1.000183266290e+01
1.000181804886e+01
1.000180444049e+01
1.000179179260e+01
1.000178006168e+01
1.000176920725e+01
1.000175919262e+01
1.000174998266e+01
1.000174154484e+01
1.000173384977e+01
1.000172686934e+01
1.000172057804e+01
1.000171495305e+01
1.000170997356e+01
1.000170562123e+01
1.000170188060e+01
1.000169873789e+01
1.000169618185e+01
1.000169420336e+01
1.000169279524e+01
1.000169195237e+01
1.000169167177e+01
1.000245780176e+01
1.000255487130e+01
1.000239450389e+01
1.000233791645e+01
1.000228650505e+01
1.000223921875e+01
1.000219556385e+01
1.000215514622e+01
1.000211764473e+01
1.000208281414e+01
1.000205040599e+01
1.000202020510e+01
1.000199204689e+01
1.000196576169e+01
1.000194121235e+01
1.000191827878e+01
1.000189685433e+01
1.000187684319e+01
1.000185816267e+01
1.000184073520e+01
1.000182449100e+01
1.000180936738e+01
1.000179530477e+01
1.000178224776e+01
1.000177014589e+01
1.000175895060e+01
1.000174861714e+01
1.000173910494e+01
1.000173037588e+01
1.000172239444e+01
1.000171512920e+01
1.000170854960e+01
1.000170262839e+01
1.000169734105e+01
1.000169266580e+01
1.000168858287e+01
1.000168507636e+01
1.000168213234e+01
1.000167973933e+01
1.000167788800e+01
1.000167657079e+01
1.000167578257e+01
1.000167552015e+01
1.000237901281e+01
1.000239383536e+01
1.000233528438e+01
1.000229008369e+01
1.000224523523e+01
1.000220196629e+01
1.000216084233e+01
1.000212208125e+01
1.000208571994e+01
1.000205172333e+01
1.000201997675e+01
1.000199034044e+01
1.000196270301e+01
1.000193692150e+01
1.000191287902e+01
1.000189046437e+01
1.000186957698e+01
1.000185012165e+01
1.000183201511e+01
1.000181517613e+01
1.000179953022e+01
1.000178501135e+01
1.000177155529e+01
1.000175910116e+01
1.000174759340e+01
1.000173697849e+01
1.000172720701e+01
1.000171823513e+01
1.000171002182e+01
1.000170252929e+01
1.000169572335e+01
1.000168957182e+01
1.000168404544e+01
1.000167911924e+01
1.000167476620e+01
1.000167097000e+01
1.000166771063e+01
1.000166497664e+01
1.000166275590e+01
1.000166103917e+01
1.000165981833e+01
1.000165908771e+01
1.000165884433e+01
1.000230398588e+01
1.000231422451e+01
1.000227755337e+01
1.000224145047e+01
1.000220221362e+01
1.000216248413e+01
1.000212370256e+01
1.000208657404e+01
1.000205142015e+01
1.000201837777e+01
1.000198742040e+01
1.000195848834e+01
1.000193150141e+01
1.000190634933e+01
1.000188291816e+01
1.000186113064e+01
1.000184086632e+01
1.000182205985e+01
1.000180459977e+01
1.000178842233e+01
1.000177344904e+01
1.000175959746e+01
1.000174680634e+01
1.000173501189e+01
1.000172415185e+01
1.000171416614e+01
1.000170500070e+01
1.000169660934e+01
1.000168894907e+01
1.000168197991e+01
1.000167566493e+01
1.000166997044e+01
1.000166486574e+01
1.000166031770e+01
1.000165631589e+01
1.000165281654e+01
1.000164982311e+01
1.000164730831e+01
1.000164526953e+01
1.000164369548e+01
1.000164257746e+01
1.000164190576e+01
1.000164168250e+01
1.000224867104e+01
1.000225662599e+01
1.000222664463e+01
1.000219530436e+01
1.000215927408e+01
1.000212185783e+01
1.000208479890e+01
1.000204899587e+01
1.000201499920e+01
1.000198292588e+01
1.000195282328e+01
1.000192468665e+01
1.000189846047e+01
1.000187402812e+01
1.000185135702e+01
1.000183023385e+01
1.000181074274e+01