 TITLE = "Profiles along polylines"
 VARIABLES = "DIST" "PRESSURE1" "SATURATION1" 
 ZONE T="TIME=0.000000000000e+00"
0.000000000000e+00 -9.000000000000e+04 3.601056880734e-01 
5.000000000000e-02 -9.000000000000e+04 3.601056880734e-01 
1.000000000000e-01 -9.000000000000e+04 3.601056880734e-01 
1.500000000000e-01 -9.000000000000e+04 3.601056880734e-01 
2.000000000000e-01 -9.000000000000e+04 3.601056880734e-01 
2.500000000000e-01 -9.000000000000e+04 2.147624357798e-01 
3.000000000000e-01 -9.000000000000e+04 1.684751605505e-01 
3.500000000000e-01 -9.000000000000e+04 2.675311376147e-01 
4.000000000000e-01 -9.000000000000e+04 2.675311376147e-01 
4.500000000000e-01 -9.000000000000e+04 2.675311376147e-01 
5.000000000000e-01 -9.000000000000e+04 2.675311376147e-01 
5.500000000000e-01 -9.000000000000e+04 2.675311376147e-01 
6.000000000000e-01 -9.000000000000e+04 2.675311376147e-01 
6.500000000000e-01 -9.000000000000e+04 2.675311376147e-01 
7.000000000000e-01 -9.000000000000e+04 1.754136146789e-01 
7.500000000000e-01 -9.000000000000e+04 8.329609174312e-02 
8.000000000000e-01 -9.000000000000e+04 8.329609174312e-02 
8.500000000000e-01 -9.000000000000e+04 8.329609174312e-02 
9.000000000000e-01 -9.000000000000e+04 8.329609174312e-02 
9.500000000000e-01 -9.000000000000e+04 8.329609174312e-02 
1.000000000000e+00 -9.000000000000e+04 8.329609174312e-02 
1.050000000000e+00 -9.000000000000e+04 8.329609174312e-02 
1.100000000000e+00 -9.000000000000e+04 8.329609174312e-02 
1.150000000000e+00 -9.000000000000e+04 8.329609174312e-02 
1.200000000000e+00 -9.000000000000e+04 8.329609174312e-02 
1.250000000000e+00 -9.000000000000e+04 8.329609174312e-02 
1.300000000000e+00 -9.000000000000e+04 8.329609174312e-02 
1.350000000000e+00 -9.000000000000e+04 8.329609174312e-02 
1.400000000000e+00 -9.000000000000e+04 8.329609174312e-02 
1.450000000000e+00 -9.000000000000e+04 8.329609174312e-02 
1.500000000000e+00 -9.000000000000e+04 8.329609174312e-02 
1.550000000000e+00 -9.000000000000e+04 8.329609174312e-02 
1.600000000000e+00 -9.000000000000e+04 8.329609174312e-02 
1.650000000000e+00 -9.000000000000e+04 8.329609174312e-02 
1.700000000000e+00 -9.000000000000e+04 8.329609174312e-02 
1.750000000000e+00 -9.000000000000e+04 8.329609174312e-02 
1.800000000000e+00 -9.000000000000e+04 8.329609174312e-02 
1.850000000000e+00 -9.000000000000e+04 8.329609174312e-02 
1.900000000000e+00 -9.000000000000e+04 8.329609174312e-02 
1.950000000000e+00 -9.000000000000e+04 8.329609174312e-02 
2.000000000000e+00 -9.000000000000e+04 8.329609174312e-02 
 TITLE = "Profiles along polylines"
 VARIABLES = "DIST" "PRESSURE1" "SATURATION1" 
 ZONE T="TIME=5.000000000000e-01"
0.000000000000e+00 -8.364370621316e+04 3.771412773217e-01 
5.000000000000e-02 -8.764051591728e+04 3.717572051664e-01 
1.000000000000e-01 -8.917390730330e+04 3.643154610107e-01 
1.500000000000e-01 -8.974813505155e+04 3.614572042511e-01 
2.000000000000e-01 -9.001629869051e+04 3.601920914874e-01 
2.500000000000e-01 -9.030194466744e+04 2.145392615612e-01 
3.000000000000e-01 -8.999848310221e+04 1.684455619384e-01 
3.500000000000e-01 -8.999999276478e+04 2.675356724534e-01 
4.000000000000e-01 -8.999999996549e+04 2.675311592447e-01 
4.500000000000e-01 -8.999999999984e+04 2.675311377178e-01 
5.000000000000e-01 -9.000000000000e+04 2.675311376153e-01 
5.500000000000e-01 -8.999999999993e+04 2.675311376370e-01 
6.000000000000e-01 -8.999999998517e+04 2.675311420663e-01 
6.500000000000e-01 -8.999999704519e+04 2.675320248370e-01 
7.000000000000e-01 -8.999941109121e+04 1.754146020461e-01 
7.500000000000e-01 -8.999990280792e+04 8.329621357597e-02 
8.000000000000e-01 -8.999998395978e+04 8.329611185008e-02 
8.500000000000e-01 -8.999999735279e+04 8.329609506150e-02 
9.000000000000e-01 -8.999999956311e+04 8.329609229077e-02 
9.500000000000e-01 -8.999999992790e+04 8.329609183350e-02 
1.000000000000e+00 -8.999999998810e+04 8.329609175804e-02 
1.050000000000e+00 -8.999999999804e+04 8.329609174558e-02 
1.100000000000e+00 -8.999999999968e+04 8.329609174353e-02 
1.150000000000e+00 -8.999999999995e+04 8.329609174319e-02 
1.200000000000e+00 -8.999999999999e+04 8.329609174313e-02 
1.250000000000e+00 -9.000000000000e+04 8.329609174312e-02 
1.300000000000e+00 -9.000000000000e+04 8.329609174312e-02 
1.350000000000e+00 -9.000000000001e+04 8.329609174311e-02 
1.400000000000e+00 -9.000000000009e+04 8.329609174305e-02 
1.450000000000e+00 -9.000000000052e+04 8.329609174272e-02 
1.500000000000e+00 -9.000000000310e+04 8.329609174076e-02 
1.550000000000e+00 -9.000000001839e+04 8.329609172914e-02 
1.600000000000e+00 -9.000000010911e+04 8.329609166016e-02 
1.650000000000e+00 -9.000000064734e+04 8.329609125092e-02 
1.700000000000e+00 -9.000000384080e+04 8.329608882284e-02 
1.750000000000e+00 -9.000002278815e+04 8.329607441654e-02 
1.800000000000e+00 -9.000013520640e+04 8.329598894058e-02 
1.850000000000e+00 -9.000080221356e+04 8.329548176565e-02 
1.900000000000e+00 -9.000476003200e+04 8.329247151613e-02 
1.950000000000e+00 -9.002825470979e+04 8.327457251052e-02 
2.000000000000e+00 -9.016808676343e+04 8.325924972704e-02 
 TITLE = "Profiles along polylines"
 VARIABLES = "DIST" "PRESSURE1" "SATURATION1" 
 ZONE T="TIME=1.000000000000e+00"
0.000000000000e+00 -8.532026217644e+04 3.738539497333e-01 
5.000000000000e-02 -8.719583505519e+04 3.709212335814e-01 
1.000000000000e-01 -8.863407339750e+04 3.658932661657e-01 
1.500000000000e-01 -8.946510300788e+04 3.625787475600e-01 
2.000000000000e-01 -8.996051359627e+04 3.605582906688e-01 
2.500000000000e-01 -9.038738171975e+04 2.145444196279e-01 
3.000000000000e-01 -8.999732243662e+04 1.684394152151e-01 
3.500000000000e-01 -8.999998006321e+04 2.675391743239e-01 
4.000000000000e-01 -8.999999987074e+04 2.675311973693e-01 
4.500000000000e-01 -8.999999999922e+04 2.675311380018e-01 
5.000000000000e-01 -8.999999999999e+04 2.675311376176e-01 
5.500000000000e-01 -8.999999999963e+04 2.675311377035e-01 
6.000000000000e-01 -8.999999994124e+04 2.675311509157e-01 
6.500000000000e-01 -8.999999121487e+04 2.675329099590e-01 
7.000000000000e-01 -8.999883228232e+04 1.754155868580e-01 
7.500000000000e-01 -8.999973787625e+04 8.329635227612e-02 
8.000000000000e-01 -8.999994528566e+04 8.329614909943e-02 
8.500000000000e-01 -8.999998907978e+04 8.329610357866e-02 
9.000000000000e-01 -8.999999788579e+04 8.329609408749e-02 
9.500000000000e-01 -8.999999959959e+04 8.329609219457e-02 
1.000000000000e+00 -8.999999992542e+04 8.329609182828e-02 
1.050000000000e+00 -8.999999998629e+04 8.329609175893e-02 
1.100000000000e+00 -8.999999999751e+04 8.329609174602e-02 
1.150000000000e+00 -8.999999999955e+04 8.329609174365e-02 
1.200000000000e+00 -8.999999999992e+04 8.329609174321e-02 
1.250000000000e+00 -8.999999999999e+04 8.329609174313e-02 
1.300000000000e+00 -9.000000000003e+04 8.329609174310e-02 
1.350000000000e+00 -9.000000000016e+04 8.329609174300e-02 
1.400000000000e+00 -9.000000000091e+04 8.329609174246e-02 
1.450000000000e+00 -9.000000000502e+04 8.329609173948e-02 
1.500000000000e+00 -9.000000002755e+04 8.329609172318e-02 
1.550000000000e+00 -9.000000015035e+04 8.329609163483e-02 
1.600000000000e+00 -9.000000081417e+04 8.329609115984e-02 
1.650000000000e+00 -9.000000436833e+04 8.329608863391e-02 
1.700000000000e+00 -9.000002317536e+04 8.329607538099e-02 
1.750000000000e+00 -9.000012123074e+04 8.329600703607e-02 
1.800000000000e+00 -9.000062273880e+04 8.329566255794e-02 
1.850000000000e+00 -9.000312211679e+04 8.329398054690e-02 
1.900000000000e+00 -9.001512870763e+04 8.328614308023e-02 
1.950000000000e+00 -9.006966765870e+04 8.325227681030e-02 
2.000000000000e+00 -9.029494852109e+04 8.322485325659e-02 
 TITLE = "Profiles along polylines"
 VARIABLES = "DIST" "PRESSURE1" "SATURATION1" 
 ZONE T="TIME=5.000000000000e+00"
0.000000000000e+00 -3.428286460469e+04 5.806602918951e-01 
5.000000000000e-02 -3.727967605695e+04 5.689163936874e-01 
1.000000000000e-01 -4.316059961521e+04 5.378362243416e-01 
1.500000000000e-01 -5.103797508702e+04 5.017686067676e-01 
2.000000000000e-01 -5.739205813648e+04 4.763009103824e-01 
2.500000000000e-01 -6.014269308396e+04 2.719212881934e-01 
3.000000000000e-01 -8.915555961706e+04 1.744370000913e-01 
3.500000000000e-01 -8.998255546098e+04 2.701158375992e-01 
4.000000000000e-01 -8.999966549710e+04 2.675844165472e-01 
4.500000000000e-01 -8.999999369478e+04 2.675321587635e-01 
5.000000000000e-01 -8.999999988006e+04 2.675311570104e-01 
5.500000000000e-01 -8.999999990158e+04 2.675311447121e-01 
6.000000000000e-01 -8.999999575296e+04 2.675314065972e-01 
6.500000000000e-01 -8.999983169982e+04 2.675399893876e-01 
7.000000000000e-01 -8.999454914523e+04 1.754233129165e-01 
7.500000000000e-01 -8.999738215142e+04 8.329772710195e-02 
8.000000000000e-01 -8.999881631654e+04 8.329685431393e-02 
8.500000000000e-01 -8.999948918392e+04 8.329642904445e-02 
9.000000000000e-01 -8.999978730452e+04 8.329623493803e-02 
9.500000000000e-01 -8.999991382992e+04 8.329615063892e-02 
1.000000000000e+00 -8.999996582043e+04 8.329611538077e-02 
1.050000000000e+00 -8.999998667932e+04 8.329610104338e-02 
1.100000000000e+00 -8.999999492869e+04 8.329609532054e-02 
1.150000000000e+00 -8.999999823794e+04 8.329609302544e-02 
1.200000000000e+00 -8.999999979419e+04 8.329609198945e-02 
1.250000000000e+00 -9.000000113820e+04 8.329609120021e-02 
1.300000000000e+00 -9.000000361634e+04 8.329608987128e-02 
1.350000000000e+00 -9.000000969679e+04 8.329608668225e-02 
1.400000000000e+00 -9.000002538105e+04 8.329607849531e-02 
1.450000000000e+00 -9.000006598579e+04 8.329605734926e-02 
1.500000000000e+00 -9.000017062405e+04 8.329600298929e-02 
1.550000000000e+00 -9.000043827793e+04 8.329586437370e-02 
1.600000000000e+00 -9.000111609560e+04 8.329551474803e-02 
1.650000000000e+00 -9.000281010869e+04 8.329464549393e-02 
1.700000000000e+00 -9.000697072227e+04 8.329252480513e-02 
1.750000000000e+00 -9.001695712821e+04 8.328747815191e-02 
1.800000000000e+00 -9.004020746633e+04 8.327585578703e-02 
1.850000000000e+00 -9.009218808888e+04 8.325022411728e-02 
1.900000000000e+00 -9.020225695468e+04 8.319685270115e-02 
1.950000000000e+00 -9.041881443180e+04 8.309391258940e-02 
2.000000000000e+00 -9.080409064254e+04 8.302678949752e-02 
 TITLE = "Profiles along polylines"
 VARIABLES = "DIST" "PRESSURE1" "SATURATION1" 
 ZONE T="TIME=1.000000000000e+01"
0.000000000000e+00 -4.343483428293e+04 5.304609751999e-01 
5.000000000000e-02 -4.435462316349e+04 5.269924374817e-01 
1.000000000000e-01 -4.602216983109e+04 5.180949276370e-01 
1.500000000000e-01 -4.817644472950e+04 5.065746095531e-01 
2.000000000000e-01 -5.022962739326e+04 4.970234488846e-01 
2.500000000000e-01 -5.146512731634e+04 2.860273224942e-01 
3.000000000000e-01 -8.697137795010e+04 1.822506650776e-01 
3.500000000000e-01 -8.983168629072e+04 2.772818451163e-01 
4.000000000000e-01 -8.999224137068e+04 2.680657985006e-01 
4.500000000000e-01 -8.999965334489e+04 2.675557336988e-01 
5.000000000000e-01 -8.999998459146e+04 2.675322385514e-01 
5.500000000000e-01 -8.999999773403e+04 2.675312417529e-01 
6.000000000000e-01 -8.999996744754e+04 2.675322094063e-01 
6.500000000000e-01 -8.999938002521e+04 2.675489668452e-01 
7.000000000000e-01 -8.998991184528e+04 1.754325783495e-01 
7.500000000000e-01 -8.999394811290e+04 8.329952383227e-02 
8.000000000000e-01 -8.999648658844e+04 8.329811194742e-02 
8.500000000000e-01 -8.999801288264e+04 8.329724727996e-02 
9.000000000000e-01 -8.999889941513e+04 8.329673757072e-02 
9.500000000000e-01 -8.999940180493e+04 8.329644548091e-02 
1.000000000000e+00 -8.999968284458e+04 8.329628090832e-02 
1.050000000000e+00 -8.999984147980e+04 8.329618793958e-02 
1.100000000000e+00 -8.999993700637e+04 8.329613269771e-02 
1.150000000000e+00 -9.000000668678e+04 8.329609400105e-02 
1.200000000000e+00 -9.000007839730e+04 8.329605651148e-02 
1.250000000000e+00 -9.000018099255e+04 8.329600518847e-02 
1.300000000000e+00 -9.000035553614e+04 8.329591950450e-02 
1.350000000000e+00 -9.000067140756e+04 8.329576542710e-02 
1.400000000000e+00 -9.000125327846e+04 8.329548222302e-02 
1.450000000000e+00 -9.000232885849e+04 8.329495928108e-02 
1.500000000000e+00 -9.000431429063e+04 8.329399483735e-02 
1.550000000000e+00 -9.000796571191e+04 8.329222300464e-02 
1.600000000000e+00 -9.001464346576e+04 8.328898716347e-02 
1.650000000000e+00 -9.002676001125e+04 8.328312667517e-02 
1.700000000000e+00 -9.004850824793e+04 8.327263306541e-02 
1.750000000000e+00 -9.008697266890e+04 8.325413188274e-02 
1.800000000000e+00 -9.015365663627e+04 8.322218338243e-02 
1.850000000000e+00 -9.026620458733e+04 8.316851822251e-02 
1.900000000000e+00 -9.044949955904e+04 8.308159542338e-02 
1.950000000000e+00 -9.073431573342e+04 8.294728234305e-02 
2.000000000000e+00 -9.115087522615e+04 8.286639651678e-02 
 TITLE = "Profiles along polylines"
 VARIABLES = "DIST" "PRESSURE1" "SATURATION1" 
 ZONE T="TIME=2.000000000000e+01"
0.000000000000e+00 -2.715712853781e+04 6.237341547925e-01 
5.000000000000e-02 -2.975462317081e+04 6.163600502457e-01 
1.000000000000e-01 -3.201577372424e+04 6.026391104328e-01 
1.500000000000e-01 -3.391091501384e+04 5.910939988621e-01 
2.000000000000e-01 -3.537673840679e+04 5.820449779374e-01 
2.500000000000e-01 -3.633867491822e+04 3.314417916286e-01 
3.000000000000e-01 -8.030312350070e+04 2.067773541927e-01 
3.500000000000e-01 -8.873051459762e+04 3.021380368298e-01 
4.000000000000e-01 -8.988437459024e+04 2.718285442770e-01 
4.500000000000e-01 -8.999029094265e+04 2.679187637857e-01 
5.000000000000e-01 -8.999919877143e+04 2.675636486309e-01 
5.500000000000e-01 -8.999991615392e+04 2.675341963150e-01 
6.000000000000e-01 -8.999979306912e+04 2.675353422375e-01 
6.500000000000e-01 -8.999795544571e+04 2.675673248027e-01 
7.000000000000e-01 -8.998216490487e+04 1.754501010283e-01 
7.500000000000e-01 -8.998753716070e+04 8.330278280450e-02 
8.000000000000e-01 -8.999147865335e+04 8.330069971920e-02 
8.500000000000e-01 -8.999430745991e+04 8.329919250306e-02 
9.000000000000e-01 -8.999631462753e+04 8.329811704967e-02 
9.500000000000e-01 -8.999774786266e+04 8.329734797152e-02 
1.000000000000e+00 -8.999881072569e+04 8.329678071347e-02 
1.050000000000e+00 -8.999967189987e+04 8.329632816864e-02 
1.100000000000e+00 -9.000048025590e+04 8.329591390515e-02 
1.150000000000e+00 -9.000138370311e+04 8.329546318557e-02 
1.200000000000e+00 -9.000255199998e+04 8.329489190127e-02 
1.250000000000e+00 -9.000420553801e+04 8.329409259537e-02 
1.300000000000e+00 -9.000665378251e+04 8.329291589158e-02 
1.350000000000e+00 -9.001034880890e+04 8.329114477329e-02 
1.400000000000e+00 -9.001596141227e+04 8.328845817393e-02 
1.450000000000e+00 -9.002448962659e+04 8.328437922658e-02 
1.500000000000e+00 -9.003741190899e+04 8.327820240183e-02 
1.550000000000e+00 -9.005689891250e+04 8.326889302742e-02 
1.600000000000e+00 -9.008609689549e+04 8.325495318466e-02 
1.650000000000e+00 -9.012948899103e+04 8.323425131728e-02 
1.700000000000e+00 -9.019332205658e+04 8.320382171231e-02 
1.750000000000e+00 -9.028604839385e+04 8.315965802178e-02 
1.800000000000e+00 -9.041866435469e+04 8.309655591744e-02 
1.850000000000e+00 -9.060472949934e+04 8.300810393585e-02 
1.900000000000e+00 -9.085974352998e+04 8.288696649491e-02 
1.950000000000e+00 -9.119952652485e+04 8.272560992310e-02 
2.000000000000e+00 -9.163747233443e+04 8.263395345075e-02 
 TITLE = "Profiles along polylines"
 VARIABLES = "DIST" "PRESSURE1" "SATURATION1" 
 ZONE T="TIME=3.000000000000e+01"
0.000000000000e+00 -2.321243469627e+04 6.515206719553e-01 
5.000000000000e-02 -2.466235709083e+04 6.462073773281e-01 
1.000000000000e-01 -2.606875192025e+04 6.368814174877e-01 
1.500000000000e-01 -2.731326748244e+04 6.293680299463e-01 
2.000000000000e-01 -2.836390344347e+04 6.229663203318e-01 
2.500000000000e-01 -2.919589164585e+04 3.557779196296e-01 
3.000000000000e-01 -7.247531671889e+04 2.367232781450e-01 
3.500000000000e-01 -8.650009972261e+04 3.357671795219e-01 
4.000000000000e-01 -8.957220220006e+04 2.798892218262e-01 
4.500000000000e-01 -8.995642182699e+04 2.690012510390e-01 
5.000000000000e-01 -8.999578018608e+04 2.676799526802e-01 
5.500000000000e-01 -8.999954546123e+04 2.675464774056e-01 
6.000000000000e-01 -8.999946742339e+04 2.675405269720e-01 
6.500000000000e-01 -8.999618033823e+04 2.675859903099e-01 
7.000000000000e-01 -8.997556485861e+04 1.754667145973e-01 
7.500000000000e-01 -8.998184911064e+04 8.330564604971e-02 
8.000000000000e-01 -8.998683308297e+04 8.330306697328e-02 
8.500000000000e-01 -8.999075777723e+04 8.330102843161e-02 
9.000000000000e-01 -8.999387045259e+04 8.329941001602e-02 
9.500000000000e-01 -8.999641539798e+04 8.329809132367e-02 
1.000000000000e+00 -8.999863322744e+04 8.329695301568e-02 
1.050000000000e+00 -9.000076854757e+04 8.329587377170e-02 
1.100000000000e+00 -9.000308549575e+04 8.329472329396e-02 
1.150000000000e+00 -9.000589108857e+04 8.329335139387e-02 
1.200000000000e+00 -9.000956715981e+04 8.329157283703e-02 
1.250000000000e+00 -9.001461262573e+04 8.328914717470e-02 
1.300000000000e+00 -9.002169871573e+04 8.328575235367e-02 
1.350000000000e+00 -9.003174050853e+04 8.328095054988e-02 
1.400000000000e+00 -9.004598843261e+04 8.327414450711e-02 
1.450000000000e+00 -9.006614302798e+04 8.326452282338e-02 
1.500000000000e+00 -9.009449475013e+04 8.325099333484e-02 
1.550000000000e+00 -9.013408724423e+04 8.323210531856e-02 
1.600000000000e+00 -9.018889644906e+04 8.320596407575e-02 
1.650000000000e+00 -9.026400817138e+04 8.317014599080e-02 
1.700000000000e+00 -9.036576278943e+04 8.312162865089e-02 
1.750000000000e+00 -9.050181800175e+04 8.305675878528e-02 
1.800000000000e+00 -9.068106207186e+04 8.297128918034e-02 
1.850000000000e+00 -9.091329851276e+04 8.286052076285e-02 
1.900000000000e+00 -9.120863320944e+04 8.271958108738e-02 
1.950000000000e+00 -9.157654825401e+04 8.254384609785e-02 
2.000000000000e+00 -9.202476391243e+04 8.244673262094e-02 
 TITLE = "Profiles along polylines"
 VARIABLES = "DIST" "PRESSURE1" "SATURATION1" 
 ZONE T="TIME=4.000000000000e+01"
0.000000000000e+00 -2.618216249212e+04 6.335912887741e-01 
5.000000000000e-02 -2.672115906002e+04 6.319240971705e-01 
1.000000000000e-01 -2.732890466356e+04 6.284102090046e-01 
1.500000000000e-01 -2.798065410720e+04 6.246045062813e-01 
2.000000000000e-01 -2.865795488861e+04 6.206222083658e-01 
2.500000000000e-01 -2.934915375105e+04 3.555766392036e-01 
3.000000000000e-01 -6.755698532613e+04 2.559160010004e-01 
3.500000000000e-01 -8.376327736585e+04 3.634152261725e-01 
4.000000000000e-01 -8.899031316483e+04 2.907210103898e-01 
4.500000000000e-01 -8.987736655627e+04 2.710943332187e-01 
5.000000000000e-01 -8.998642308217e+04 2.679579162904e-01 
5.500000000000e-01 -8.999843779587e+04 2.675799716218e-01 
6.000000000000e-01 -8.999893650904e+04 2.675491579795e-01 
6.500000000000e-01 -8.999417291246e+04 2.676049502009e-01 
7.000000000000e-01 -8.996987395117e+04 1.754824515625e-01 
7.500000000000e-01 -8.997698732481e+04 8.330809399977e-02 
8.000000000000e-01 -8.998295388442e+04 8.330504524721e-02 
8.500000000000e-01 -8.998799904997e+04 8.330246644449e-02 
9.000000000000e-01 -8.999237221219e+04 8.330023683916e-02 
9.500000000000e-01 -8.999634662048e+04 8.329822347373e-02 
1.000000000000e+00 -9.000022481526e+04 8.329627887186e-02 
1.050000000000e+00 -9.000435076596e+04 8.329423554962e-02 
1.100000000000e+00 -9.000912951356e+04 8.329189690570e-02 
1.150000000000e+00 -9.001505503692e+04 8.328902411573e-02 
1.200000000000e+00 -9.002274715802e+04 8.328531863547e-02 
1.250000000000e+00 -9.003299842238e+04 8.328039987289e-02 
1.300000000000e+00 -9.004683187711e+04 8.327377759905e-02 
1.350000000000e+00 -9.006557035425e+04 8.326481881202e-02 
1.400000000000e+00 -9.009091707231e+04 8.325270913539e-02 
1.450000000000e+00 -9.012504590933e+04 8.323640951144e-02 
1.500000000000e+00 -9.017069739510e+04 8.321461002444e-02 
1.550000000000e+00 -9.023127319251e+04 8.318568422228e-02 
1.600000000000e+00 -9.031091759779e+04 8.314764928935e-02 
1.650000000000e+00 -9.041456966511e+04 8.309813973090e-02 
1.700000000000e+00 -9.054796468291e+04 8.303440451919e-02 
1.750000000000e+00 -9.071756029083e+04 8.295333927850e-02 
1.800000000000e+00 -9.093036276431e+04 8.285156501870e-02 
1.850000000000e+00 -9.119363597578e+04 8.272556176734e-02 
1.900000000000e+00 -9.151449264699e+04 8.257185768762e-02 
1.950000000000e+00 -9.189939686909e+04 8.238726101571e-02 
2.000000000000e+00 -9.235364616676e+04 8.228686582110e-02 
 TITLE = "Profiles along polylines"
 VARIABLES = "DIST" "PRESSURE1" "SATURATION1" 
 ZONE T="TIME=5.000000000000e+01"
0.000000000000e+00 -2.602776501317e+04 6.342592416715e-01 
5.000000000000e-02 -2.669226215550e+04 6.322852141582e-01 
1.000000000000e-01 -2.735925600114e+04 6.283276737614e-01 
1.500000000000e-01 -2.803084733283e+04 6.243461517045e-01 
2.000000000000e-01 -2.870790125052e+04 6.203336958563e-01 
2.500000000000e-01 -2.939065036106e+04 3.558092327969e-01 
3.000000000000e-01 -6.430476070434e+04 2.700850661746e-01 
3.500000000000e-01 -8.097166925369e+04 3.867756924923e-01 
4.000000000000e-01 -8.812950304657e+04 3.030569001817e-01 
4.500000000000e-01 -8.973119541910e+04 2.743299662853e-01 
5.000000000000e-01 -8.996641466507e+04 2.684847498897e-01 
5.500000000000e-01 -8.999582931907e+04 2.676522170586e-01 
6.000000000000e-01 -8.999810041223e+04 2.675638308529e-01 
6.500000000000e-01 -8.999201169905e+04 2.676243658597e-01 
7.000000000000e-01 -8.996494767909e+04 1.754973099495e-01 
7.500000000000e-01 -8.997303764431e+04 8.331010398213e-02 
8.000000000000e-01 -8.998014897377e+04 8.330650322025e-02 
8.500000000000e-01 -8.998653696155e+04 8.330327642710e-02 
9.000000000000e-01 -8.999249267187e+04 8.330028265991e-02 
9.500000000000e-01 -8.999835075363e+04 8.329735984561e-02 
1.000000000000e+00 -9.000450119047e+04 8.329431921929e-02 
1.050000000000e+00 -9.001140622975e+04 8.329093734276e-02 
1.100000000000e+00 -9.001962340846e+04 8.328694522119e-02 
1.150000000000e+00 -9.002983531182e+04 8.328201418141e-02 
1.200000000000e+00 -9.004288642280e+04 8.327573831799e-02 
1.250000000000e+00 -9.005982708098e+04 8.326761348206e-02 
1.300000000000e+00 -9.008196408318e+04 8.325701302188e-02 
1.350000000000e+00 -9.011091674462e+04 8.324316082182e-02 
1.400000000000e+00 -9.014867623310e+04 8.322510266038e-02 
1.450000000000e+00 -9.019766465918e+04 8.320167753307e-02 
1.500000000000e+00 -9.026078877941e+04 8.317149135272e-02 
1.550000000000e+00 -9.034148136281e+04 8.313289629489e-02 
1.600000000000e+00 -9.044372151346e+04 8.308397989366e-02 
1.650000000000e+00 -9.057202391876e+04 8.302256863529e-02 
1.700000000000e+00 -9.073138664340e+04 8.294625099312e-02 
1.750000000000e+00 -9.092718840116e+04 8.285242427652e-02 
1.800000000000e+00 -9.116502995031e+04 8.273836798633e-02 
1.850000000000e+00 -9.145052098546e+04 8.260134329379e-02 
1.900000000000e+00 -9.178902378471e+04 8.243871372106e-02 
1.950000000000e+00 -9.218537710047e+04 8.224807646806e-02 
2.000000000000e+00 -9.264363600404e+04 8.214547434069e-02 
 TITLE = "Profiles along polylines"
 VARIABLES = "DIST" "PRESSURE1" "SATURATION1" 
 ZONE T="TIME=6.000000000000e+01"
0.000000000000e+00 1.533757990662e+06 1.000000000000e+00 
5.000000000000e-02 1.533218734070e+06 1.000000000000e+00 
1.000000000000e-01 1.532679481304e+06 1.000000000000e+00 
1.500000000000e-01 1.532140232364e+06 1.000000000000e+00 
2.000000000000e-01 1.531600987251e+06 1.000000000000e+00 
2.500000000000e-01 1.531061745964e+06 1.000000000000e+00 
3.000000000000e-01 1.530570636759e+06 1.000000000000e+00 
3.500000000000e-01 1.530056931431e+06 1.000000000000e+00 
4.000000000000e-01 1.529543227985e+06 1.000000000000e+00 
4.500000000000e-01 1.529029526428e+06 1.000000000000e+00 
5.000000000000e-01 1.528515826761e+06 1.000000000000e+00 
5.500000000000e-01 1.528002128985e+06 1.000000000000e+00 
6.000000000000e-01 1.527488433098e+06 1.000000000000e+00 
6.500000000000e-01 1.526974739100e+06 1.000000000000e+00 
7.000000000000e-01 1.526461046990e+06 1.000000000000e+00 
7.500000000000e-01 1.525968049450e+06 1.000000000000e+00 
8.000000000000e-01 1.525475052113e+06 1.000000000000e+00 
8.500000000000e-01 1.524982054979e+06 1.000000000000e+00 
9.000000000000e-01 1.524489058048e+06 1.000000000000e+00 
9.500000000000e-01 1.523996061320e+06 1.000000000000e+00 
1.000000000000e+00 1.523503064796e+06 1.000000000000e+00 
1.050000000000e+00 1.523010068474e+06 1.000000000000e+00 
1.100000000000e+00 1.522517072355e+06 1.000000000000e+00 
1.150000000000e+00 1.522024076439e+06 1.000000000000e+00 
1.200000000000e+00 1.521531080725e+06 1.000000000000e+00 
1.250000000000e+00 1.521038085215e+06 1.000000000000e+00 
1.300000000000e+00 1.520542664128e+06 1.000000000000e+00 
1.350000000000e+00 1.480900503916e+06 1.000000000000e+00 
1.400000000000e+00 1.113812553501e+06 1.000000000000e+00 
1.450000000000e+00 7.656362228293e+05 1.000000000000e+00 
1.500000000000e+00 5.078284630898e+05 1.000000000000e+00 
1.550000000000e+00 3.185321753679e+05 1.000000000000e+00 
1.600000000000e+00 1.835386342057e+05 1.000000000000e+00 
1.650000000000e+00 9.014069840265e+04 1.000000000000e+00 
1.700000000000e+00 2.714824862178e+04 9.751524375372e-01 
1.750000000000e+00 -1.448857755554e+04 5.663920186843e-01 
1.800000000000e+00 -4.153876167868e+04 1.447946105649e-01 
1.850000000000e+00 -5.876079807999e+04 1.020235507619e-01 
1.900000000000e+00 -6.932048141199e+04 9.472443919779e-02 
1.950000000000e+00 -7.517804768475e+04 9.137151169577e-02 
2.000000000000e+00 -7.736619447534e+04 9.023118768417e-02 
 TITLE = "Profiles along polylines"
 VARIABLES = "DIST" "PRESSURE1" "SATURATION1" 
 ZONE T="TIME=7.000000000000e+01"
0.000000000000e+00 3.531736670661e+07 1.000000000000e+00 
5.000000000000e-02 3.531687289381e+07 1.000000000000e+00 
1.000000000000e-01 3.531637916387e+07 1.000000000000e+00 
1.500000000000e-01 3.531588551679e+07 1.000000000000e+00 
2.000000000000e-01 3.531539195256e+07 1.000000000000e+00 
2.500000000000e-01 3.531489847119e+07 1.000000000000e+00 
3.000000000000e-01 3.531440793496e+07 1.000000000000e+00 
3.500000000000e-01 3.531391609424e+07 1.000000000000e+00 
4.000000000000e-01 3.531342429297e+07 1.000000000000e+00 
4.500000000000e-01 3.531293253115e+07 1.000000000000e+00 
5.000000000000e-01 3.531244080879e+07 1.000000000000e+00 
5.500000000000e-01 3.531194912588e+07 1.000000000000e+00 
6.000000000000e-01 3.531145748242e+07 1.000000000000e+00 
6.500000000000e-01 3.531096587842e+07 1.000000000000e+00 
7.000000000000e-01 3.531047431387e+07 1.000000000000e+00 
7.500000000000e-01 3.530998370347e+07 1.000000000000e+00 
8.000000000000e-01 3.530949309732e+07 1.000000000000e+00 
8.500000000000e-01 3.530900249542e+07 1.000000000000e+00 
9.000000000000e-01 3.530851189776e+07 1.000000000000e+00 
9.500000000000e-01 3.530802130436e+07 1.000000000000e+00 
1.000000000000e+00 3.530753071520e+07 1.000000000000e+00 
1.050000000000e+00 3.530704013030e+07 1.000000000000e+00 
1.100000000000e+00 3.530654954964e+07 1.000000000000e+00 
1.150000000000e+00 3.530605897323e+07 1.000000000000e+00 
1.200000000000e+00 3.530556840107e+07 1.000000000000e+00 
1.250000000000e+00 3.530507783316e+07 1.000000000000e+00 
1.300000000000e+00 3.530458726950e+07 1.000000000000e+00 
1.350000000000e+00 3.530409671009e+07 1.000000000000e+00 
1.400000000000e+00 3.530360615493e+07 1.000000000000e+00 
1.450000000000e+00 3.530311560408e+07 1.000000000000e+00 
1.500000000000e+00 3.530262505756e+07 1.000000000000e+00 
1.550000000000e+00 3.530213451543e+07 1.000000000000e+00 
1.600000000000e+00 3.530164397769e+07 1.000000000000e+00 
1.650000000000e+00 3.530115344437e+07 1.000000000000e+00 
1.700000000000e+00 3.530066291548e+07 1.000000000000e+00 
1.750000000000e+00 3.530017239102e+07 1.000000000000e+00 
1.800000000000e+00 3.529968187101e+07 1.000000000000e+00 
1.850000000000e+00 3.529919135544e+07 1.000000000000e+00 
1.900000000000e+00 3.529870084432e+07 1.000000000000e+00 
1.950000000000e+00 3.529821033764e+07 1.000000000000e+00 
2.000000000000e+00 3.529771983542e+07 1.000000000000e+00 
 TITLE = "Profiles along polylines"
 VARIABLES = "DIST" "PRESSURE1" "SATURATION1" 
 ZONE T="TIME=8.000000000000e+01"
0.000000000000e+00 3.531737947453e+07 1.000000000000e+00 
5.000000000000e-02 3.531688897453e+07 1.000000000000e+00 
1.000000000000e-01 3.531639847453e+07 1.000000000000e+00 
1.500000000000e-01 3.531590797453e+07 1.000000000000e+00 
2.000000000000e-01 3.531541747453e+07 1.000000000000e+00 
2.500000000000e-01 3.531492697453e+07 1.000000000000e+00 
3.000000000000e-01 3.531443647453e+07 1.000000000000e+00 
3.500000000000e-01 3.531394597453e+07 1.000000000000e+00 
4.000000000000e-01 3.531345547453e+07 1.000000000000e+00 
4.500000000000e-01 3.531296497453e+07 1.000000000000e+00 
5.000000000000e-01 3.531247447453e+07 1.000000000000e+00 
5.500000000000e-01 3.531198397453e+07 1.000000000000e+00 
6.000000000000e-01 3.531149347453e+07 1.000000000000e+00 
6.500000000000e-01 3.531100297453e+07 1.000000000000e+00 
7.000000000000e-01 3.531051247453e+07 1.000000000000e+00 
7.500000000000e-01 3.531002197453e+07 1.000000000000e+00 
8.000000000000e-01 3.530953147453e+07 1.000000000000e+00 
8.500000000000e-01 3.530904097453e+07 1.000000000000e+00 
9.000000000000e-01 3.530855047453e+07 1.000000000000e+00 
9.500000000000e-01 3.530805997453e+07 1.000000000000e+00 
1.000000000000e+00 3.530756947453e+07 1.000000000000e+00 
1.050000000000e+00 3.530707897453e+07 1.000000000000e+00 
1.100000000000e+00 3.530658847453e+07 1.000000000000e+00 
1.150000000000e+00 3.530609797453e+07 1.000000000000e+00 
1.200000000000e+00 3.530560747453e+07 1.000000000000e+00 
1.250000000000e+00 3.530511697453e+07 1.000000000000e+00 
1.300000000000e+00 3.530462647453e+07 1.000000000000e+00 
1.350000000000e+00 3.530413597453e+07 1.000000000000e+00 
1.400000000000e+00 3.530364547453e+07 1.000000000000e+00 
1.450000000000e+00 3.530315497453e+07 1.000000000000e+00 
1.500000000000e+00 3.530266447453e+07 1.000000000000e+00 
1.550000000000e+00 3.530217397453e+07 1.000000000000e+00 
1.600000000000e+00 3.530168347453e+07 1.000000000000e+00 
1.650000000000e+00 3.530119297453e+07 1.000000000000e+00 
1.700000000000e+00 3.530070247453e+07 1.000000000000e+00 