 TITLE = "Profiles along polylines"
 VARIABLES = "DIST" "PRESSURE1" "SATURATION1" 
 ZONE T="TIME=0.000000000000e+00"
0.000000000000e+00 -9.000000000000e+04 3.601056880734e-01 
5.000000000000e-02 -9.000000000000e+04 3.601056880734e-01 
1.000000000000e-01 -9.000000000000e+04 3.601056880734e-01 
1.500000000000e-01 -9.000000000000e+04 3.601056880734e-01 
2.000000000000e-01 -9.000000000000e+04 3.601056880734e-01 
2.500000000000e-01 -9.000000000000e+04 3.601056880734e-01 
3.000000000000e-01 -9.000000000000e+04 3.601056880734e-01 
3.500000000000e-01 -9.000000000000e+04 3.601056880734e-01 
4.000000000000e-01 -9.000000000000e+04 2.217008899083e-01 
4.500000000000e-01 -9.000000000000e+04 8.329609174312e-02 
5.000000000000e-01 -9.000000000000e+04 8.329609174312e-02 
5.500000000000e-01 -9.000000000000e+04 8.329609174312e-02 
6.000000000000e-01 -9.000000000000e+04 9.913826605505e-02 
6.500000000000e-01 -9.000000000000e+04 1.149804403670e-01 
7.000000000000e-01 -9.000000000000e+04 1.149804403670e-01 
7.500000000000e-01 -9.000000000000e+04 1.149804403670e-01 
8.000000000000e-01 -9.000000000000e+04 1.149804403670e-01 
8.500000000000e-01 -9.000000000000e+04 1.149804403670e-01 
9.000000000000e-01 -9.000000000000e+04 1.149804403670e-01 
9.500000000000e-01 -9.000000000000e+04 1.149804403670e-01 
1.000000000000e+00 -9.000000000000e+04 1.149804403670e-01 
1.050000000000e+00 -9.000000000000e+04 1.149804403670e-01 
1.100000000000e+00 -9.000000000000e+04 9.913826605505e-02 
1.150000000000e+00 -9.000000000000e+04 8.329609174312e-02 
1.200000000000e+00 -9.000000000000e+04 8.329609174312e-02 
1.250000000000e+00 -9.000000000000e+04 8.329609174312e-02 
1.300000000000e+00 -9.000000000000e+04 8.329609174312e-02 
1.350000000000e+00 -9.000000000000e+04 8.329609174312e-02 
1.400000000000e+00 -9.000000000000e+04 8.329609174312e-02 
1.450000000000e+00 -9.000000000000e+04 8.329609174312e-02 
1.500000000000e+00 -9.000000000000e+04 8.329609174312e-02 
1.550000000000e+00 -9.000000000000e+04 8.329609174312e-02 
1.600000000000e+00 -9.000000000000e+04 8.329609174312e-02 
1.650000000000e+00 -9.000000000000e+04 8.329609174312e-02 
1.700000000000e+00 -9.000000000000e+04 8.329609174312e-02 
1.750000000000e+00 -9.000000000000e+04 8.329609174312e-02 
1.800000000000e+00 -9.000000000000e+04 8.329609174312e-02 
1.850000000000e+00 -9.000000000000e+04 8.329609174312e-02 
1.900000000000e+00 -9.000000000000e+04 8.329609174312e-02 
1.950000000000e+00 -9.000000000000e+04 8.329609174312e-02 
2.000000000000e+00 -9.000000000000e+04 8.329609174312e-02 
 TITLE = "Profiles along polylines"
 VARIABLES = "DIST" "PRESSURE1" "SATURATION1" 
 ZONE T="TIME=5.000000000000e-01"
0.000000000000e+00 -8.354771555276e+04 3.774057334660e-01 
5.000000000000e-02 -8.759852224034e+04 3.719522543013e-01 
1.000000000000e-01 -8.914673401041e+04 3.644338212921e-01 
1.500000000000e-01 -8.970420607184e+04 3.616267587897e-01 
2.000000000000e-01 -8.990240876248e+04 3.606168301443e-01 
2.500000000000e-01 -8.997990563177e+04 3.602321078897e-01 
3.000000000000e-01 -9.003176817758e+04 3.600060286188e-01 
3.500000000000e-01 -9.012122966727e+04 3.596624602449e-01 
4.000000000000e-01 -9.035705765119e+04 2.212986924258e-01 
4.500000000000e-01 -9.005873472784e+04 8.322220162744e-02 
5.000000000000e-01 -9.001057789762e+04 8.328327643115e-02 
5.500000000000e-01 -9.000704618082e+04 8.328994684892e-02 
6.000000000000e-01 -9.003262663179e+04 9.911240056144e-02 
6.500000000000e-01 -9.000045659520e+04 1.149580983357e-01 
7.000000000000e-01 -9.000000639239e+04 1.149801276976e-01 
7.500000000000e-01 -9.000000008949e+04 1.149804359896e-01 
8.000000000000e-01 -9.000000000125e+04 1.149804403057e-01 
8.500000000000e-01 -9.000000000000e+04 1.149804403666e-01 
9.000000000000e-01 -8.999999999866e+04 1.149804403998e-01 
9.500000000000e-01 -8.999999990611e+04 1.149804426736e-01 
1.000000000000e+00 -8.999999340541e+04 1.149806023711e-01 
1.050000000000e+00 -8.999953683526e+04 1.149918143489e-01 
1.100000000000e+00 -8.996748266712e+04 9.915525472987e-02 
1.150000000000e+00 -8.999463062955e+04 8.330281962574e-02 
1.200000000000e+00 -8.999911378317e+04 8.329720257102e-02 
1.250000000000e+00 -8.999985374022e+04 8.329627508293e-02 
1.300000000000e+00 -8.999997586182e+04 8.329612200115e-02 
1.350000000000e+00 -8.999999601634e+04 8.329609673678e-02 
1.400000000000e+00 -8.999999934264e+04 8.329609256719e-02 
1.450000000000e+00 -8.999999989202e+04 8.329609187873e-02 
1.500000000000e+00 -8.999999998519e+04 8.329609176321e-02 
1.550000000000e+00 -9.000000001543e+04 8.329609173284e-02 
1.600000000000e+00 -9.000000010862e+04 8.329609166077e-02 
1.650000000000e+00 -9.000000064726e+04 8.329609125102e-02 
1.700000000000e+00 -9.000000384079e+04 8.329608882285e-02 
1.750000000000e+00 -9.000002278815e+04 8.329607441654e-02 
1.800000000000e+00 -9.000013520640e+04 8.329598894058e-02 
1.850000000000e+00 -9.000080221356e+04 8.329548176565e-02 
1.900000000000e+00 -9.000476003200e+04 8.329247151613e-02 
1.950000000000e+00 -9.002825470979e+04 8.327457251052e-02 
2.000000000000e+00 -9.016808676343e+04 8.325924972704e-02 
 TITLE = "Profiles along polylines"
 VARIABLES = "DIST" "PRESSURE1" "SATURATION1" 
 ZONE T="TIME=1.000000000000e+00"
0.000000000000e+00 -8.528561131322e+04 3.739815371373e-01 
5.000000000000e-02 -8.715225506868e+04 3.710653799459e-01 
1.000000000000e-01 -8.857905089956e+04 3.660924678861e-01 
1.500000000000e-01 -8.936484691090e+04 3.629321064938e-01 
2.000000000000e-01 -8.974606513336e+04 3.612905398192e-01 
2.500000000000e-01 -8.993553869539e+04 3.604631092908e-01 
3.000000000000e-01 -9.006880376571e+04 3.599233072258e-01 
3.500000000000e-01 -9.024523066909e+04 3.592891099280e-01 
4.000000000000e-01 -9.057161958225e+04 2.209957518302e-01 
4.500000000000e-01 -9.013594045615e+04 8.316623135057e-02 
5.000000000000e-01 -9.003224850375e+04 8.326419728864e-02 
5.500000000000e-01 -9.002024332347e+04 8.328066168369e-02 
6.000000000000e-01 -9.006290238195e+04 9.908715778556e-02 
6.500000000000e-01 -9.000132384185e+04 1.149369157812e-01 
7.000000000000e-01 -9.000002474816e+04 1.149795275109e-01 
7.500000000000e-01 -9.000000043348e+04 1.149804233315e-01 
8.000000000000e-01 -9.000000000728e+04 1.149804400689e-01 
8.500000000000e-01 -8.999999999999e+04 1.149804403647e-01 
9.000000000000e-01 -8.999999999224e+04 1.149804405270e-01 
9.500000000000e-01 -8.999999954606e+04 1.149804493699e-01 
1.000000000000e+00 -8.999997452850e+04 1.149809151791e-01 
1.050000000000e+00 -8.999866131553e+04 1.150027113220e-01 
1.100000000000e+00 -8.993764952181e+04 9.917145808507e-02 
1.150000000000e+00 -8.998586566056e+04 8.331004060506e-02 
1.200000000000e+00 -8.999703395768e+04 8.329918881966e-02 
1.250000000000e+00 -8.999940602918e+04 8.329673388623e-02 
1.300000000000e+00 -8.999988473547e+04 8.329621933108e-02 
1.350000000000e+00 -8.999997813259e+04 8.329611636575e-02 
1.400000000000e+00 -8.999999592249e+04 8.329609639462e-02 
1.450000000000e+00 -8.999999925445e+04 8.329609260438e-02 
1.500000000000e+00 -8.999999989090e+04 8.329609188195e-02 
1.550000000000e+00 -9.000000012569e+04 8.329609166368e-02 
1.600000000000e+00 -9.000000080975e+04 8.329609116504e-02 
1.650000000000e+00 -9.000000436754e+04 8.329608863484e-02 
1.700000000000e+00 -9.000002317522e+04 8.329607538116e-02 
1.750000000000e+00 -9.000012123072e+04 8.329600703610e-02 
1.800000000000e+00 -9.000062273879e+04 8.329566255795e-02 
1.850000000000e+00 -9.000312211678e+04 8.329398054690e-02 
1.900000000000e+00 -9.001512870763e+04 8.328614308023e-02 
1.950000000000e+00 -9.006966765870e+04 8.325227681030e-02 
2.000000000000e+00 -9.029494852109e+04 8.322485325659e-02 
 TITLE = "Profiles along polylines"
 VARIABLES = "DIST" "PRESSURE1" "SATURATION1" 
 ZONE T="TIME=5.000000000000e+00"
0.000000000000e+00 -5.100784907588e+04 4.886627936741e-01 
5.000000000000e-02 -5.424465484758e+04 4.817626783354e-01 
1.000000000000e-01 -5.998066297832e+04 4.649378835535e-01 
1.500000000000e-01 -6.607017365351e+04 4.449856410251e-01 
2.000000000000e-01 -7.163472984038e+04 4.260429628910e-01 
2.500000000000e-01 -7.628073987451e+04 4.098699090554e-01 
3.000000000000e-01 -7.983150110093e+04 3.972495587034e-01 
3.500000000000e-01 -8.221866145035e+04 3.885094791615e-01 
4.000000000000e-01 -8.342105843725e+04 2.355332674448e-01 
4.500000000000e-01 -8.707226322625e+04 8.519326318540e-02 
5.000000000000e-01 -8.881003223772e+04 8.409973603570e-02 
5.500000000000e-01 -8.962702919547e+04 8.357561115182e-02 
6.000000000000e-01 -9.009083725038e+04 9.912706256381e-02 
6.500000000000e-01 -9.001197489000e+04 1.149071346951e-01 
7.000000000000e-01 -9.000101640237e+04 1.149713624869e-01 
7.500000000000e-01 -9.000007348759e+04 1.149796831756e-01 
8.000000000000e-01 -9.000000486362e+04 1.149803862344e-01 
8.500000000000e-01 -8.999999987054e+04 1.149804395794e-01 
9.000000000000e-01 -8.999999301000e+04 1.149804836761e-01 
9.500000000000e-01 -8.999989207059e+04 1.149810812428e-01 
1.000000000000e+00 -8.999842651851e+04 1.149891236076e-01 
1.050000000000e+00 -8.997904074046e+04 1.150814986517e-01 
1.100000000000e+00 -8.976464403972e+04 9.927944898911e-02 
1.150000000000e+00 -8.988294231352e+04 8.336801140556e-02 
1.200000000000e+00 -8.994501213816e+04 8.333085682966e-02 
1.250000000000e+00 -8.997520933514e+04 8.331210083653e-02 
1.300000000000e+00 -8.998915854808e+04 8.330320515872e-02 
1.350000000000e+00 -8.999537612170e+04 8.329916444799e-02 
1.400000000000e+00 -8.999809091112e+04 8.329737785352e-02 
1.450000000000e+00 -8.999929425889e+04 8.329658509089e-02 
1.500000000000e+00 -8.999992031081e+04 8.329618813495e-02 
1.550000000000e+00 -9.000047530261e+04 8.329587225553e-02 
1.600000000000e+00 -9.000140954970e+04 8.329538351734e-02 
1.650000000000e+00 -9.000345571326e+04 8.329434158619e-02 
1.700000000000e+00 -9.000815236315e+04 8.329197192700e-02 
1.750000000000e+00 -9.001886190430e+04 8.328660475389e-02 
1.800000000000e+00 -9.004277866879e+04 8.327471141440e-02 
1.850000000000e+00 -9.009461757098e+04 8.324918976022e-02 
1.900000000000e+00 -9.020243739194e+04 8.319680638846e-02 
1.950000000000e+00 -9.041397881849e+04 8.309582860235e-02 
2.000000000000e+00 -9.079487582378e+04 8.302988750203e-02 
 TITLE = "Profiles along polylines"
 VARIABLES = "DIST" "PRESSURE1" "SATURATION1" 
 ZONE T="TIME=1.000000000000e+01"
0.000000000000e+00 -6.153012238338e+04 4.554904833186e-01 
5.000000000000e-02 -6.254898671271e+04 4.532791257183e-01 
1.000000000000e-01 -6.442421224948e+04 4.476008831398e-01 
1.500000000000e-01 -6.680834660802e+04 4.399929575143e-01 
2.000000000000e-01 -6.936756864684e+04 4.315745133445e-01 
2.500000000000e-01 -7.181790677611e+04 4.233346188354e-01 
3.000000000000e-01 -7.392878112698e+04 4.160852739642e-01 
3.500000000000e-01 -7.552305634442e+04 4.104546001478e-01 
4.000000000000e-01 -7.648184962009e+04 2.486169866360e-01 
4.500000000000e-01 -8.151314398651e+04 8.800825039248e-02 
5.000000000000e-01 -8.504437520072e+04 8.611975152869e-02 
5.500000000000e-01 -8.741341454263e+04 8.482503558299e-02 
6.000000000000e-01 -8.902952067468e+04 1.003270359230e-01 
6.500000000000e-01 -8.989848426116e+04 1.157369819498e-01 
7.000000000000e-01 -8.998931248394e+04 1.150596573737e-01 
7.500000000000e-01 -8.999884939563e+04 1.149888081370e-01 
8.000000000000e-01 -8.999987209358e+04 1.149813502715e-01 
8.500000000000e-01 -8.999997136868e+04 1.149805970574e-01 
9.000000000000e-01 -8.999987441748e+04 1.149809314350e-01 
9.500000000000e-01 -8.999896952438e+04 1.149843165828e-01 
1.000000000000e+00 -8.999178276124e+04 1.150097161343e-01 
1.050000000000e+00 -8.993940511686e+04 1.151746647817e-01 
1.100000000000e+00 -8.961899407265e+04 9.938842301323e-02 
1.150000000000e+00 -8.976513916586e+04 8.342780861447e-02 
1.200000000000e+00 -8.986065039999e+04 8.337548198420e-02 
1.250000000000e+00 -8.991981339025e+04 8.334236531818e-02 
1.300000000000e+00 -8.995507338252e+04 8.332230008074e-02 
1.350000000000e+00 -8.997561070045e+04 8.331047981733e-02 
1.400000000000e+00 -8.998759606776e+04 8.330355342028e-02 
1.450000000000e+00 -8.999501468989e+04 8.329931060302e-02 
1.500000000000e+00 -9.000051818749e+04 8.329627721364e-02 
1.550000000000e+00 -9.000615472817e+04 8.329334280240e-02 
1.600000000000e+00 -9.001401560809e+04 8.328942627437e-02 
1.650000000000e+00 -9.002691173883e+04 8.328313389549e-02 
1.700000000000e+00 -9.004922074765e+04 8.327234514114e-02 
1.750000000000e+00 -9.008804220061e+04 8.325366361195e-02 
1.800000000000e+00 -9.015473238358e+04 8.322170535041e-02 
1.850000000000e+00 -9.026666663651e+04 8.316830740432e-02 
1.900000000000e+00 -9.044853229525e+04 8.308199392969e-02 
1.950000000000e+00 -9.073143468053e+04 8.294847703752e-02 
2.000000000000e+00 -9.114688672705e+04 8.286799597380e-02 
 TITLE = "Profiles along polylines"
 VARIABLES = "DIST" "PRESSURE1" "SATURATION1" 
 ZONE T="TIME=2.000000000000e+01"
0.000000000000e+00 -3.973351215282e+04 5.461177851942e-01 
5.000000000000e-02 -4.384177316250e+04 5.339146915046e-01 
1.000000000000e-01 -4.796410153534e+04 5.100761722343e-01 
1.500000000000e-01 -5.206886769173e+04 4.916199535121e-01 
2.000000000000e-01 -5.554092954838e+04 4.792581998833e-01 
2.500000000000e-01 -5.840142747658e+04 4.692110621551e-01 
3.000000000000e-01 -6.065402446532e+04 4.612386579155e-01 
3.500000000000e-01 -6.228225163805e+04 4.553760217302e-01 
4.000000000000e-01 -6.326619666500e+04 2.741590755119e-01 
4.500000000000e-01 -7.005448058853e+04 9.376961046579e-02 
5.000000000000e-01 -7.560690083601e+04 9.092078747474e-02 
5.500000000000e-01 -8.010704383764e+04 8.860483337192e-02 
6.000000000000e-01 -8.373879863397e+04 1.059191580801e-01 
6.500000000000e-01 -8.867120808352e+04 1.206039281551e-01 
7.000000000000e-01 -8.973815248279e+04 1.161518720458e-01 
7.500000000000e-01 -8.994962852184e+04 1.152099542358e-01 
8.000000000000e-01 -8.999034256858e+04 1.150246475795e-01 
8.500000000000e-01 -8.999787845176e+04 1.149896729266e-01 
9.000000000000e-01 -8.999814574028e+04 1.149862404255e-01 
9.500000000000e-01 -8.999250867211e+04 1.150009805361e-01 
1.000000000000e+00 -8.996492665850e+04 1.150722530052e-01 
1.050000000000e+00 -8.984639477384e+04 1.153543262387e-01 
1.100000000000e+00 -8.941594258066e+04 9.956718744005e-02 
1.150000000000e+00 -8.958232956407e+04 8.351854075861e-02 
1.200000000000e+00 -8.970894016335e+04 8.345242581793e-02 
1.250000000000e+00 -8.980243378735e+04 8.340309312822e-02 
1.300000000000e+00 -8.987021529378e+04 8.336705143821e-02 
1.350000000000e+00 -8.991931800199e+04 8.334084961117e-02 
1.400000000000e+00 -8.995590985642e+04 8.332138335878e-02 
1.450000000000e+00 -8.998526909036e+04 8.330596087129e-02 
1.500000000000e+00 -9.001204471954e+04 8.329220880377e-02 
1.550000000000e+00 -9.004066998607e+04 8.327788720910e-02 
1.600000000000e+00 -9.007585744920e+04 8.326065525188e-02 
1.650000000000e+00 -9.012314333414e+04 8.323780925408e-02 
1.700000000000e+00 -9.018945815345e+04 8.320600780179e-02 
1.750000000000e+00 -9.028367775334e+04 8.316100752847e-02 
1.800000000000e+00 -9.041705036564e+04 8.309745912819e-02 
1.850000000000e+00 -9.060330044646e+04 8.300885536290e-02 
1.900000000000e+00 -9.085809697234e+04 8.288777121892e-02 
1.950000000000e+00 -9.119751279157e+04 8.272655622966e-02 
2.000000000000e+00 -9.163526890736e+04 8.263497554596e-02 
 TITLE = "Profiles along polylines"
 VARIABLES = "DIST" "PRESSURE1" "SATURATION1" 
 ZONE T="TIME=3.000000000000e+01"
0.000000000000e+00 -3.786621209249e+04 5.606547243450e-01 
5.000000000000e-02 -4.022704360070e+04 5.535743807349e-01 
1.000000000000e-01 -4.266449144190e+04 5.392303896366e-01 
1.500000000000e-01 -4.513404971023e+04 5.246719975345e-01 
2.000000000000e-01 -4.757083019835e+04 5.103655997719e-01 
2.500000000000e-01 -4.987981283512e+04 4.986725428016e-01 
3.000000000000e-01 -5.178652571920e+04 4.910343650922e-01 
3.500000000000e-01 -5.320505374608e+04 4.859567354371e-01 
4.000000000000e-01 -5.412081065713e+04 2.918086499060e-01 
4.500000000000e-01 -6.126057133060e+04 9.810474936135e-02 
5.000000000000e-01 -6.742368031059e+04 9.497972202564e-02 
5.500000000000e-01 -7.275639573653e+04 9.228033512814e-02 
6.000000000000e-01 -7.734401939888e+04 1.126892638001e-01 
6.500000000000e-01 -8.643072070524e+04 1.273528527600e-01 
7.000000000000e-01 -8.912221723671e+04 1.183247589929e-01 
7.500000000000e-01 -8.979832482327e+04 1.157870557343e-01 
8.000000000000e-01 -8.995506531187e+04 1.151645066143e-01 
8.500000000000e-01 -8.998922352152e+04 1.150236656971e-01 
9.000000000000e-01 -8.999329022822e+04 1.150008823906e-01 
9.500000000000e-01 -8.998071912185e+04 1.150284217253e-01 
1.000000000000e+00 -8.992816994653e+04 1.151488998590e-01 
1.050000000000e+00 -8.975166420934e+04 1.155265688440e-01 
1.100000000000e+00 -8.925997781490e+04 9.972054945988e-02 
1.150000000000e+00 -8.943662244638e+04 8.359045870279e-02 
1.200000000000e+00 -8.958113915592e+04 8.351639169427e-02 
1.250000000000e+00 -8.969735389501e+04 8.345647894904e-02 
1.300000000000e+00 -8.979015603838e+04 8.340844773907e-02 
1.350000000000e+00 -8.986493555363e+04 8.336971784031e-02 
1.400000000000e+00 -8.992720289617e+04 8.333760102146e-02 
1.450000000000e+00 -8.998242273900e+04 8.330940268134e-02 
1.500000000000e+00 -9.003603379085e+04 8.328243154533e-02 
1.550000000000e+00 -9.009360365940e+04 8.325393900658e-02 
1.600000000000e+00 -9.016106420105e+04 8.322101421823e-02 
1.650000000000e+00 -9.024497482222e+04 8.318046120771e-02 
1.700000000000e+00 -9.035276014687e+04 8.312868480411e-02 
1.750000000000e+00 -9.049286122952e+04 8.306161507247e-02 
1.800000000000e+00 -9.067472790816e+04 8.297470469218e-02 
1.850000000000e+00 -9.090857128323e+04 8.286303701064e-02 
1.900000000000e+00 -9.120480414163e+04 8.272157773808e-02 
1.950000000000e+00 -9.157314596490e+04 8.254558042717e-02 
2.000000000000e+00 -9.202148328942e+04 8.244838696404e-02 
 TITLE = "Profiles along polylines"
 VARIABLES = "DIST" "PRESSURE1" "SATURATION1" 
 ZONE T="TIME=4.000000000000e+01"
0.000000000000e+00 -4.364791187996e+04 5.297767239123e-01 
5.000000000000e-02 -4.427439968493e+04 5.277160616177e-01 
1.000000000000e-01 -4.510501077922e+04 5.230473059613e-01 
1.500000000000e-01 -4.608089641088e+04 5.174582069920e-01 
2.000000000000e-01 -4.714329377926e+04 5.113023216881e-01 
2.500000000000e-01 -4.822869856925e+04 5.049549065868e-01 
3.000000000000e-01 -4.926571814481e+04 4.994967867440e-01 
3.500000000000e-01 -5.016579543629e+04 4.957871467239e-01 
4.000000000000e-01 -5.088547946467e+04 2.979636149706e-01 
4.500000000000e-01 -5.686342982104e+04 1.001292800164e-01 
5.000000000000e-01 -6.240189234669e+04 9.737064827320e-02 
5.500000000000e-01 -6.746492844331e+04 9.484254133043e-02 
6.000000000000e-01 -7.202257035506e+04 1.184814798755e-01 
6.500000000000e-01 -8.368999856153e+04 1.340102440504e-01 
7.000000000000e-01 -8.813330079843e+04 1.212568318720e-01 
7.500000000000e-01 -8.950235474843e+04 1.167750655262e-01 
8.000000000000e-01 -8.987431980521e+04 1.154516402193e-01 
8.500000000000e-01 -8.996709704194e+04 1.151035383904e-01 
9.000000000000e-01 -8.998296063114e+04 1.150319481476e-01 
9.500000000000e-01 -8.996331513124e+04 1.150674267226e-01 
1.000000000000e+00 -8.988471860125e+04 1.152349460617e-01 
1.050000000000e+00 -8.966021525150e+04 1.156900074800e-01 
1.100000000000e+00 -8.913381310157e+04 9.985461584735e-02 
1.150000000000e+00 -8.931791030574e+04 8.364903410142e-02 
1.200000000000e+00 -8.947543068116e+04 8.356911132455e-02 
1.250000000000e+00 -8.960912511060e+04 8.350105911778e-02 
1.300000000000e+00 -8.972272037102e+04 8.344314537399e-02 
1.350000000000e+00 -8.982065289790e+04 8.339326357994e-02 
1.400000000000e+00 -8.990784326974e+04 8.334904401801e-02 
1.450000000000e+00 -8.998954941023e+04 8.330793180797e-02 
1.500000000000e+00 -9.007130649736e+04 8.326722475519e-02 
1.550000000000e+00 -9.015893937026e+04 8.322407546401e-02 
1.600000000000e+00 -9.025861972474e+04 8.317546970699e-02 
1.650000000000e+00 -9.037693344304e+04 8.311819719335e-02 
1.700000000000e+00 -9.052092061568e+04 8.304883268779e-02 
1.750000000000e+00 -9.069805102426e+04 8.296374552425e-02 
1.800000000000e+00 -9.091610165296e+04 8.285915380078e-02 
1.850000000000e+00 -9.118291242376e+04 8.273123501692e-02 
1.900000000000e+00 -9.150601503303e+04 8.257629624846e-02 
1.950000000000e+00 -9.189216013365e+04 8.239099306982e-02 
2.000000000000e+00 -9.234680892775e+04 8.229036155956e-02 
 TITLE = "Profiles along polylines"
 VARIABLES = "DIST" "PRESSURE1" "SATURATION1" 
 ZONE T="TIME=5.000000000000e+01"
0.000000000000e+00 -4.306087684533e+04 5.328378337947e-01 
5.000000000000e-02 -4.390088772975e+04 5.303454609307e-01 
1.000000000000e-01 -4.474096591861e+04 5.253597647576e-01 
1.500000000000e-01 -4.558187051706e+04 5.203773324694e-01 
2.000000000000e-01 -4.641686108295e+04 5.154295732714e-01 
2.500000000000e-01 -4.723288210680e+04 5.105862762824e-01 
3.000000000000e-01 -4.801201549407e+04 5.059466930464e-01 
3.500000000000e-01 -4.873377085195e+04 5.016782851856e-01 
4.000000000000e-01 -4.937833090868e+04 3.010609126021e-01 
4.500000000000e-01 -5.443459969888e+04 1.012297263480e-01 
5.000000000000e-01 -5.928560486589e+04 9.883144084983e-02 
5.500000000000e-01 -6.386089286902e+04 9.656189283755e-02 
6.000000000000e-01 -6.810424149417e+04 1.229510472541e-01 
6.500000000000e-01 -8.091881067399e+04 1.398529833944e-01 
7.000000000000e-01 -8.685903402939e+04 1.245504150662e-01 
7.500000000000e-01 -8.904525433151e+04 1.181376435408e-01 
8.000000000000e-01 -8.973061126706e+04 1.159174300972e-01 
8.500000000000e-01 -8.992332332154e+04 1.152502648380e-01 
9.000000000000e-01 -8.996412445420e+04 1.150880696769e-01 
9.500000000000e-01 -8.994000287642e+04 1.151195308785e-01 
1.000000000000e+00 -8.983694029037e+04 1.153275160217e-01 
1.050000000000e+00 -8.957410826728e+04 1.158437553081e-01 
1.100000000000e+00 -8.902917677489e+04 9.997262892005e-02 
1.150000000000e+00 -8.922017522139e+04 8.369734423204e-02 
1.200000000000e+00 -8.938889245356e+04 8.361229777638e-02 
1.250000000000e+00 -8.953766373728e+04 8.353718966368e-02 
1.300000000000e+00 -8.966966310462e+04 8.347053745018e-02 
1.350000000000e+00 -8.978877246561e+04 8.341049983779e-02 
1.400000000000e+00 -8.989944785711e+04 8.335494035345e-02 
1.450000000000e+00 -9.000660606948e+04 8.330148393620e-02 
1.500000000000e+00 -9.011554233619e+04 8.324756011907e-02 
1.550000000000e+00 -9.023187752158e+04 8.319043234512e-02 
1.600000000000e+00 -9.036152374518e+04 8.312721778157e-02 
1.650000000000e+00 -9.051065155222e+04 8.305490516118e-02 
1.700000000000e+00 -9.068563962383e+04 8.297037954368e-02 
1.750000000000e+00 -9.089298940424e+04 8.287046250655e-02 
1.800000000000e+00 -9.113919177742e+04 8.275197421334e-02 
1.850000000000e+00 -9.143054102100e+04 8.261182011519e-02 
1.900000000000e+00 -9.177290249221e+04 8.244709984966e-02 
1.950000000000e+00 -9.217145392512e+04 8.225522966717e-02 
2.000000000000e+00 -9.263043349507e+04 8.215220786005e-02 
 TITLE = "Profiles along polylines"
 VARIABLES = "DIST" "PRESSURE1" "SATURATION1" 
 ZONE T="TIME=6.000000000000e+01"
0.000000000000e+00 4.919223556118e+08 1.000000000000e+00 
5.000000000000e-02 4.919218174499e+08 1.000000000000e+00 
1.000000000000e-01 4.919212804946e+08 1.000000000000e+00 
1.500000000000e-01 4.919207447458e+08 1.000000000000e+00 
2.000000000000e-01 4.919202102037e+08 1.000000000000e+00 
2.500000000000e-01 4.919196768681e+08 1.000000000000e+00 
3.000000000000e-01 4.919191447390e+08 1.000000000000e+00 
3.500000000000e-01 4.919186138166e+08 1.000000000000e+00 
4.000000000000e-01 4.919180841007e+08 1.000000000000e+00 
4.500000000000e-01 4.919175916515e+08 1.000000000000e+00 
5.000000000000e-01 4.919170992642e+08 1.000000000000e+00 
5.500000000000e-01 4.919166069387e+08 1.000000000000e+00 
6.000000000000e-01 4.919161146752e+08 1.000000000000e+00 
6.500000000000e-01 4.919156181420e+08 1.000000000000e+00 
7.000000000000e-01 4.919151218282e+08 1.000000000000e+00 
7.500000000000e-01 4.919146257338e+08 1.000000000000e+00 
8.000000000000e-01 4.919141298588e+08 1.000000000000e+00 
8.500000000000e-01 4.919136342032e+08 1.000000000000e+00 
9.000000000000e-01 4.919131387670e+08 1.000000000000e+00 
9.500000000000e-01 4.919126435502e+08 1.000000000000e+00 
1.000000000000e+00 4.919121485528e+08 1.000000000000e+00 
1.050000000000e+00 4.919116537747e+08 1.000000000000e+00 
1.100000000000e+00 4.919111592161e+08 1.000000000000e+00 
1.150000000000e+00 4.919106676332e+08 1.000000000000e+00 
1.200000000000e+00 4.919101761121e+08 1.000000000000e+00 
1.250000000000e+00 4.919096846530e+08 1.000000000000e+00 
1.300000000000e+00 4.919091932558e+08 1.000000000000e+00 
1.350000000000e+00 4.919087019204e+08 1.000000000000e+00 
1.400000000000e+00 4.919082106469e+08 1.000000000000e+00 
1.450000000000e+00 4.919077194353e+08 1.000000000000e+00 
1.500000000000e+00 4.919072282856e+08 1.000000000000e+00 
1.550000000000e+00 4.919067371977e+08 1.000000000000e+00 
1.600000000000e+00 4.919062461717e+08 1.000000000000e+00 
1.650000000000e+00 4.919057552076e+08 1.000000000000e+00 
1.700000000000e+00 4.919052643054e+08 1.000000000000e+00 
1.750000000000e+00 4.919047734651e+08 1.000000000000e+00 
1.800000000000e+00 4.919042826866e+08 1.000000000000e+00 
1.850000000000e+00 4.919037919700e+08 1.000000000000e+00 
1.900000000000e+00 4.919033013153e+08 1.000000000000e+00 
1.950000000000e+00 4.919028107225e+08 1.000000000000e+00 
2.000000000000e+00 4.919023201916e+08 1.000000000000e+00 
 TITLE = "Profiles along polylines"
 VARIABLES = "DIST" "PRESSURE1" "SATURATION1" 
 ZONE T="TIME=7.000000000000e+01"
0.000000000000e+00 5.266369948227e+08 1.000000000000e+00 
5.000000000000e-02 5.266365009597e+08 1.000000000000e+00 
1.000000000000e-01 5.266360071819e+08 1.000000000000e+00 
1.500000000000e-01 5.266355134891e+08 1.000000000000e+00 
2.000000000000e-01 5.266350198816e+08 1.000000000000e+00 
2.500000000000e-01 5.266345263591e+08 1.000000000000e+00 
3.000000000000e-01 5.266340329218e+08 1.000000000000e+00 
3.500000000000e-01 5.266335395697e+08 1.000000000000e+00 
4.000000000000e-01 5.266330463027e+08 1.000000000000e+00 
4.500000000000e-01 5.266325556651e+08 1.000000000000e+00 
5.000000000000e-01 5.266320650320e+08 1.000000000000e+00 
5.500000000000e-01 5.266315744032e+08 1.000000000000e+00 
6.000000000000e-01 5.266310837787e+08 1.000000000000e+00 
6.500000000000e-01 5.266305928530e+08 1.000000000000e+00 
7.000000000000e-01 5.266301019428e+08 1.000000000000e+00 
7.500000000000e-01 5.266296110481e+08 1.000000000000e+00 
8.000000000000e-01 5.266291201688e+08 1.000000000000e+00 
8.500000000000e-01 5.266286293051e+08 1.000000000000e+00 
9.000000000000e-01 5.266281384568e+08 1.000000000000e+00 
9.500000000000e-01 5.266276476240e+08 1.000000000000e+00 
1.000000000000e+00 5.266271568066e+08 1.000000000000e+00 
1.050000000000e+00 5.266266660048e+08 1.000000000000e+00 
1.100000000000e+00 5.266261752184e+08 1.000000000000e+00 
1.150000000000e+00 5.266256846420e+08 1.000000000000e+00 
1.200000000000e+00 5.266251940700e+08 1.000000000000e+00 
1.250000000000e+00 5.266247035023e+08 1.000000000000e+00 
1.300000000000e+00 5.266242129390e+08 1.000000000000e+00 
1.350000000000e+00 5.266237223801e+08 1.000000000000e+00 
1.400000000000e+00 5.266232318255e+08 1.000000000000e+00 
1.450000000000e+00 5.266227412753e+08 1.000000000000e+00 
1.500000000000e+00 5.266222507294e+08 1.000000000000e+00 
1.550000000000e+00 5.266217601879e+08 1.000000000000e+00 
1.600000000000e+00 5.266212696508e+08 1.000000000000e+00 
1.650000000000e+00 5.266207791181e+08 1.000000000000e+00 
1.700000000000e+00 5.266202885897e+08 1.000000000000e+00 
1.750000000000e+00 5.266197980657e+08 1.000000000000e+00 
1.800000000000e+00 5.266193075460e+08 1.000000000000e+00 
1.850000000000e+00 5.266188170308e+08 1.000000000000e+00 
1.900000000000e+00 5.266183265198e+08 1.000000000000e+00 
1.950000000000e+00 5.266178360133e+08 1.000000000000e+00 
2.000000000000e+00 5.266173455111e+08 1.000000000000e+00 
 TITLE = "Profiles along polylines"
 VARIABLES = "DIST" "PRESSURE1" "SATURATION1" 
 ZONE T="TIME=8.000000000000e+01"
0.000000000000e+00 5.266373258263e+08 1.000000000000e+00 
5.000000000000e-02 5.266368353263e+08 1.000000000000e+00 
1.000000000000e-01 5.266363448263e+08 1.000000000000e+00 
1.500000000000e-01 5.266358543263e+08 1.000000000000e+00 
2.000000000000e-01 5.266353638264e+08 1.000000000000e+00 
2.500000000000e-01 5.266348733264e+08 1.000000000000e+00 
3.000000000000e-01 5.266343828264e+08 1.000000000000e+00 
3.500000000000e-01 5.266338923264e+08 1.000000000000e+00 
4.000000000000e-01 5.266334018264e+08 1.000000000000e+00 
4.500000000000e-01 5.266329113264e+08 1.000000000000e+00 
5.000000000000e-01 5.266324208264e+08 1.000000000000e+00 
5.500000000000e-01 5.266319303264e+08 1.000000000000e+00 
6.000000000000e-01 5.266314398264e+08 1.000000000000e+00 
6.500000000000e-01 5.266309493264e+08 1.000000000000e+00 
7.000000000000e-01 5.266304588264e+08 1.000000000000e+00 
7.500000000000e-01 5.266299683264e+08 1.000000000000e+00 
8.000000000000e-01 5.266294778264e+08 1.000000000000e+00 
8.500000000000e-01 5.266289873264e+08 1.000000000000e+00 
9.000000000000e-01 5.266284968264e+08 1.000000000000e+00 
9.500000000000e-01 5.266280063264e+08 1.000000000000e+00 
1.000000000000e+00 5.266275158264e+08 1.000000000000e+00 
1.050000000000e+00 5.266270253264e+08 1.000000000000e+00 
1.100000000000e+00 5.266265348264e+08 1.000000000000e+00 
1.150000000000e+00 5.266260443264e+08 1.000000000000e+00 
1.200000000000e+00 5.266255538264e+08 1.000000000000e+00 
1.250000000000e+00 5.266250633264e+08 1.000000000000e+00 
1.300000000000e+00 5.266245728264e+08 1.000000000000e+00 
1.350000000000e+00 5.266240823264e+08 1.000000000000e+00 
1.400000000000e+00 5.266235918264e+08 1.000000000000e+00 
1.450000000000e+00 5.266231013264e+08 1.000000000000e+00 
1.500000000000e+00 5.266226108264e+08 1.000000000000e+00 
1.550000000000e+00 5.266221203264e+08 1.000000000000e+00 
1.600000000000e+00 5.266216298264e+08 1.000000000000e+00 
1.650000000000e+00 5.266211393264e+08 1.000000000000e+00 
1.700000000000e+00 5.266206488264e+08 1.000000000000e+00 