 TITLE = "Profiles along polylines"
 VARIABLES = "DIST" "PRESSURE1" "SATURATION1" 
 ZONE T="TIME=0.000000000000e+00"
0.000000000000e+00 -9.000000000000e+04 3.601056880734e-01 
5.000000000000e-02 -9.000000000000e+04 3.601056880734e-01 
1.000000000000e-01 -9.000000000000e+04 3.601056880734e-01 
1.500000000000e-01 -9.000000000000e+04 3.601056880734e-01 
2.000000000000e-01 -9.000000000000e+04 3.601056880734e-01 
2.500000000000e-01 -9.000000000000e+04 3.039060458716e-01 
3.000000000000e-01 -9.000000000000e+04 2.477064036697e-01 
3.500000000000e-01 -9.000000000000e+04 1.655012477064e-01 
4.000000000000e-01 -9.000000000000e+04 8.329609174312e-02 
4.500000000000e-01 -9.000000000000e+04 8.329609174312e-02 
5.000000000000e-01 -9.000000000000e+04 8.329609174312e-02 
5.500000000000e-01 -9.000000000000e+04 8.329609174312e-02 
6.000000000000e-01 -9.000000000000e+04 8.329609174312e-02 
6.500000000000e-01 -9.000000000000e+04 8.329609174312e-02 
7.000000000000e-01 -9.000000000000e+04 8.329609174312e-02 
7.500000000000e-01 -9.000000000000e+04 8.329609174312e-02 
8.000000000000e-01 -9.000000000000e+04 8.329609174312e-02 
8.500000000000e-01 -9.000000000000e+04 8.329609174312e-02 
9.000000000000e-01 -9.000000000000e+04 8.329609174312e-02 
9.500000000000e-01 -9.000000000000e+04 8.329609174312e-02 
1.000000000000e+00 -9.000000000000e+04 8.981318348624e-02 
1.050000000000e+00 -9.000000000000e+04 9.633027522936e-02 
1.100000000000e+00 -9.000000000000e+04 9.633027522936e-02 
1.150000000000e+00 -9.000000000000e+04 9.633027522936e-02 
1.200000000000e+00 -9.000000000000e+04 9.633027522936e-02 
1.250000000000e+00 -9.000000000000e+04 9.633027522936e-02 
1.300000000000e+00 -9.000000000000e+04 9.633027522936e-02 
1.350000000000e+00 -9.000000000000e+04 9.633027522936e-02 
1.400000000000e+00 -9.000000000000e+04 9.633027522936e-02 
1.450000000000e+00 -9.000000000000e+04 9.633027522936e-02 
1.500000000000e+00 -9.000000000000e+04 9.633027522936e-02 
1.550000000000e+00 -9.000000000000e+04 9.633027522936e-02 
1.600000000000e+00 -9.000000000000e+04 9.633027522936e-02 
1.650000000000e+00 -9.000000000000e+04 9.633027522936e-02 
1.700000000000e+00 -9.000000000000e+04 9.633027522936e-02 
1.750000000000e+00 -9.000000000000e+04 9.633027522936e-02 
1.800000000000e+00 -9.000000000000e+04 9.633027522936e-02 
1.850000000000e+00 -9.000000000000e+04 9.633027522936e-02 
1.900000000000e+00 -9.000000000000e+04 9.633027522936e-02 
1.950000000000e+00 -9.000000000000e+04 9.633027522936e-02 
2.000000000000e+00 -9.000000000000e+04 9.633027522936e-02 
 TITLE = "Profiles along polylines"
 VARIABLES = "DIST" "PRESSURE1" "SATURATION1" 
 ZONE T="TIME=5.000000000000e-01"
0.000000000000e+00 -8.357359221141e+04 3.773341556157e-01 
5.000000000000e-02 -8.761009672886e+04 3.718987654191e-01 
1.000000000000e-01 -8.915490476264e+04 3.643987908448e-01 
1.500000000000e-01 -8.971853053217e+04 3.615718741767e-01 
2.000000000000e-01 -8.994021113042e+04 3.604761595776e-01 
2.500000000000e-01 -9.008676343466e+04 3.038260888549e-01 
3.000000000000e-01 -9.026710278736e+04 2.473613791678e-01 
3.500000000000e-01 -9.056857122743e+04 1.651538337551e-01 
4.000000000000e-01 -9.009296111887e+04 8.317869523091e-02 
4.500000000000e-01 -9.001531868866e+04 8.327686616574e-02 
5.000000000000e-01 -9.000252750551e+04 8.329292279911e-02 
5.500000000000e-01 -9.000041711919e+04 8.329556885571e-02 
6.000000000000e-01 -9.000006888063e+04 8.329600541932e-02 
6.500000000000e-01 -9.000001161353e+04 8.329607730981e-02 
7.000000000000e-01 -9.000000337475e+04 8.329608825246e-02 
7.500000000000e-01 -9.000000920814e+04 8.329608458926e-02 
8.000000000000e-01 -9.000005284873e+04 8.329605153524e-02 
8.500000000000e-01 -9.000031326784e+04 8.329585354706e-02 
9.000000000000e-01 -9.000185867919e+04 8.329467837371e-02 
9.500000000000e-01 -9.001102978311e+04 8.328769994419e-02 
1.000000000000e+00 -9.006550940897e+04 8.979862479144e-02 
1.050000000000e+00 -9.000791775531e+04 9.632200718798e-02 
1.100000000000e+00 -9.000095812911e+04 9.632927572533e-02 
1.150000000000e+00 -9.000011596026e+04 9.633015427637e-02 
1.200000000000e+00 -9.000001403466e+04 9.633026059064e-02 
1.250000000000e+00 -9.000000169862e+04 9.633027345763e-02 
1.300000000000e+00 -9.000000020558e+04 9.633027501493e-02 
1.350000000000e+00 -9.000000002488e+04 9.633027520340e-02 
1.400000000000e+00 -9.000000000301e+04 9.633027522622e-02 
1.450000000000e+00 -9.000000000038e+04 9.633027522897e-02 
1.500000000000e+00 -9.000000000015e+04 9.633027522925e-02 
1.550000000000e+00 -9.000000000086e+04 9.633027522884e-02 
1.600000000000e+00 -9.000000000685e+04 9.633027522525e-02 
1.650000000000e+00 -9.000000005516e+04 9.633027519625e-02 
1.700000000000e+00 -9.000000044440e+04 9.633027496262e-02 
1.750000000000e+00 -9.000000358050e+04 9.633027308030e-02 
1.800000000000e+00 -9.000002884768e+04 9.633025791458e-02 
1.850000000000e+00 -9.000023242320e+04 9.633013572245e-02 
1.900000000000e+00 -9.000187267549e+04 9.632915098381e-02 
1.950000000000e+00 -9.001509251679e+04 9.632120061925e-02 
2.000000000000e+00 -9.012189919486e+04 9.631412629243e-02 
 TITLE = "Profiles along polylines"
 VARIABLES = "DIST" "PRESSURE1" "SATURATION1" 
 ZONE T="TIME=1.000000000000e+00"
0.000000000000e+00 -8.529566441632e+04 3.739436924317e-01 
5.000000000000e-02 -8.716563159713e+04 3.710205374929e-01 
1.000000000000e-01 -8.859816295512e+04 3.660233435870e-01 
1.500000000000e-01 -8.940307178812e+04 3.627967999285e-01 
2.000000000000e-01 -8.983258872210e+04 3.609910063781e-01 
2.500000000000e-01 -9.012953676378e+04 3.038660869274e-01 
3.000000000000e-01 -9.043864725375e+04 2.471697946057e-01 
3.500000000000e-01 -9.082541103029e+04 1.649687402683e-01 
4.000000000000e-01 -9.020086166206e+04 8.310766354041e-02 
4.500000000000e-01 -9.004398379169e+04 8.325157764207e-02 
5.000000000000e-01 -9.000905874765e+04 8.328650080069e-02 
5.500000000000e-01 -9.000179272005e+04 8.329413634559e-02 
6.000000000000e-01 -9.000034532116e+04 8.329570722757e-02 
6.500000000000e-01 -9.000006676141e+04 8.329601693558e-02 
7.000000000000e-01 -9.000002115645e+04 8.329607150623e-02 
7.500000000000e-01 -9.000004974398e+04 8.329605596258e-02 
8.000000000000e-01 -9.000024470554e+04 8.329592282633e-02 
8.500000000000e-01 -9.000122589542e+04 8.329526225574e-02 
9.000000000000e-01 -9.000594633945e+04 8.329217882070e-02 
9.500000000000e-01 -9.002741708165e+04 8.327884449663e-02 
1.000000000000e+00 -9.011614129621e+04 8.978575489569e-02 
1.050000000000e+00 -9.002021203531e+04 9.631455398192e-02 
1.100000000000e+00 -9.000319414132e+04 9.632759494494e-02 
1.150000000000e+00 -9.000047719854e+04 9.632985640700e-02 
1.200000000000e+00 -9.000006872459e+04 9.633021310014e-02 
1.250000000000e+00 -9.000000964541e+04 9.633026632510e-02 
1.300000000000e+00 -9.000000132807e+04 9.633027398407e-02 
1.350000000000e+00 -9.000000018019e+04 9.633027505835e-02 
1.400000000000e+00 -9.000000002418e+04 9.633027520620e-02 
1.450000000000e+00 -9.000000000335e+04 9.633027522618e-02 
1.500000000000e+00 -9.000000000144e+04 9.633027522837e-02 
1.550000000000e+00 -9.000000000756e+04 9.633027522507e-02 
1.600000000000e+00 -9.000000005514e+04 9.633027519848e-02 
1.650000000000e+00 -9.000000040107e+04 9.633027500650e-02 
1.700000000000e+00 -9.000000288403e+04 9.633027364233e-02 
1.750000000000e+00 -9.000002043768e+04 9.633026412263e-02 
1.800000000000e+00 -9.000014211643e+04 9.633019927621e-02 
1.850000000000e+00 -9.000096336806e+04 9.632977227712e-02 
1.900000000000e+00 -9.000629886897e+04 9.632709980687e-02 
1.950000000000e+00 -9.003898637452e+04 9.631171564261e-02 
2.000000000000e+00 -9.022001666681e+04 9.629863347181e-02 
 TITLE = "Profiles along polylines"
 VARIABLES = "DIST" "PRESSURE1" "SATURATION1" 
 ZONE T="TIME=5.000000000000e+00"
0.000000000000e+00 -3.451789237257e+04 5.791376315804e-01 
5.000000000000e-02 -3.757942030718e+04 5.669953947155e-01 
1.000000000000e-01 -4.373368098687e+04 5.345697348951e-01 
1.500000000000e-01 -5.233234336541e+04 4.967791217077e-01 
2.000000000000e-01 -5.990414012912e+04 4.680400318311e-01 
2.500000000000e-01 -6.463517421961e+04 3.686823665849e-01 
3.000000000000e-01 -6.725486003169e+04 2.790604552346e-01 
3.500000000000e-01 -6.870823341198e+04 1.847518385899e-01 
4.000000000000e-01 -7.989242139535e+04 8.962866243749e-02 
4.500000000000e-01 -8.569707372307e+04 8.615174642274e-02 
5.000000000000e-01 -8.830666981202e+04 8.447098541632e-02 
5.500000000000e-01 -8.936107685619e+04 8.375046085893e-02 
6.000000000000e-01 -8.976358264590e+04 8.346613081606e-02 
6.500000000000e-01 -8.991391502213e+04 8.335845414573e-02 
7.000000000000e-01 -8.997074267487e+04 8.331781859570e-02 
7.500000000000e-01 -8.999503958977e+04 8.330113752715e-02 
8.000000000000e-01 -9.001187569535e+04 8.329106165488e-02 
8.500000000000e-01 -9.003562255074e+04 8.327872419622e-02 
9.000000000000e-01 -9.008113292712e+04 8.325642674773e-02 
9.500000000000e-01 -9.016896735847e+04 8.321462860827e-02 
1.000000000000e+00 -9.032406268544e+04 8.971698553351e-02 
1.050000000000e+00 -9.014110753721e+04 9.627044306529e-02 
1.100000000000e+00 -9.005550279409e+04 9.630537365577e-02 
1.150000000000e+00 -9.002030266214e+04 9.632077371511e-02 
1.200000000000e+00 -9.000704934657e+04 9.632687146941e-02 
1.250000000000e+00 -9.000235713541e+04 9.632911054170e-02 
1.300000000000e+00 -9.000076702565e+04 9.632988975589e-02 
1.350000000000e+00 -9.000024512218e+04 9.633015056435e-02 
1.400000000000e+00 -9.000007867258e+04 9.633023509525e-02 
1.450000000000e+00 -9.000002967184e+04 9.633026078458e-02 
1.500000000000e+00 -9.000002570952e+04 9.633026478708e-02 
1.550000000000e+00 -9.000006021014e+04 9.633025322256e-02 
1.600000000000e+00 -9.000018245298e+04 9.633020981085e-02 
1.650000000000e+00 -9.000056439155e+04 9.633007431056e-02 
1.700000000000e+00 -9.000172626508e+04 9.632966540180e-02 
1.750000000000e+00 -9.000517864576e+04 9.632846420122e-02 
1.800000000000e+00 -9.001512260979e+04 9.632505721192e-02 
1.850000000000e+00 -9.004255728107e+04 9.631584799848e-02 
1.900000000000e+00 -9.011382271616e+04 9.629256059812e-02 
1.950000000000e+00 -9.028377991169e+04 9.623891813923e-02 
2.000000000000e+00 -9.064174389661e+04 9.620186632263e-02 
 TITLE = "Profiles along polylines"
 VARIABLES = "DIST" "PRESSURE1" "SATURATION1" 
 ZONE T="TIME=1.000000000000e+01"
0.000000000000e+00 -4.490799151525e+04 5.215346740501e-01 
5.000000000000e-02 -4.592111083105e+04 5.175621313701e-01 
1.000000000000e-01 -4.791160853306e+04 5.072027256474e-01 
1.500000000000e-01 -5.067039485111e+04 4.956141971889e-01 
2.000000000000e-01 -5.337149955699e+04 4.862110488903e-01 
2.500000000000e-01 -5.540373225925e+04 3.877529974797e-01 
3.000000000000e-01 -5.677572106788e+04 2.926670741507e-01 
3.500000000000e-01 -5.774171636425e+04 1.946505993688e-01 
4.000000000000e-01 -6.814938308303e+04 9.511499843658e-02 
4.500000000000e-01 -7.596765408654e+04 9.103457141390e-02 
5.000000000000e-01 -8.144768050993e+04 8.811047214719e-02 
5.500000000000e-01 -8.502282881577e+04 8.615257992221e-02 
6.000000000000e-01 -8.720872395112e+04 8.492407461404e-02 
6.500000000000e-01 -8.847916235737e+04 8.419423074185e-02 
7.000000000000e-01 -8.919460072346e+04 8.377693608893e-02 
7.500000000000e-01 -8.959522952498e+04 8.354183469728e-02 
8.000000000000e-01 -8.982891512313e+04 8.340586873570e-02 
8.500000000000e-01 -8.998435126395e+04 8.331846577392e-02 
9.000000000000e-01 -9.011632296893e+04 8.324863938258e-02 
9.500000000000e-01 -9.026088642877e+04 8.317659427944e-02 
1.000000000000e+00 -9.044165490345e+04 8.967398532929e-02 
1.050000000000e+00 -9.025018128402e+04 9.623646825941e-02 
1.100000000000e+00 -9.013301938131e+04 9.627893767904e-02 
1.150000000000e+00 -9.006753231583e+04 9.630363304789e-02 
1.200000000000e+00 -9.003317510625e+04 9.631697444255e-02 
1.250000000000e+00 -9.001593302923e+04 9.632381372735e-02 
1.300000000000e+00 -9.000755438248e+04 9.632718916625e-02 
1.350000000000e+00 -9.000359740991e+04 9.632880352059e-02 
1.400000000000e+00 -9.000181893437e+04 9.632954171337e-02 
1.450000000000e+00 -9.000116429743e+04 9.632983135167e-02 
1.500000000000e+00 -9.000122976394e+04 9.632984739312e-02 
1.550000000000e+00 -9.000204049451e+04 9.632960411413e-02 
1.600000000000e+00 -9.000405957817e+04 9.632896417729e-02 
1.650000000000e+00 -9.000843420431e+04 9.632756715860e-02 
1.700000000000e+00 -9.001758528514e+04 9.632464820724e-02 
1.750000000000e+00 -9.003636182299e+04 9.631868336258e-02 
1.800000000000e+00 -9.007407908982e+04 9.630677445463e-02 
1.850000000000e+00 -9.014768087668e+04 9.628372586472e-02 
1.900000000000e+00 -9.028556578314e+04 9.624099898478e-02 
1.950000000000e+00 -9.052947681909e+04 9.616635809323e-02 
2.000000000000e+00 -9.092785001885e+04 9.611930814039e-02 
 TITLE = "Profiles along polylines"
 VARIABLES = "DIST" "PRESSURE1" "SATURATION1" 
 ZONE T="TIME=2.000000000000e+01"
0.000000000000e+00 -2.973737523138e+04 6.079424012055e-01 
5.000000000000e-02 -3.257784644996e+04 5.997588174375e-01 
1.000000000000e-01 -3.517152832970e+04 5.841478801667e-01 
1.500000000000e-01 -3.749414572848e+04 5.701724862455e-01 
2.000000000000e-01 -3.946979684224e+04 5.582098931199e-01 
2.500000000000e-01 -4.099328301631e+04 4.423141991775e-01 
3.000000000000e-01 -4.183714507851e+04 3.303378523709e-01 
3.500000000000e-01 -4.253821092037e+04 2.187495524809e-01 
4.000000000000e-01 -5.104026645357e+04 1.047893755408e-01 
4.500000000000e-01 -6.046667468798e+04 9.876268809715e-02 
5.000000000000e-01 -6.794461052448e+04 9.488933138869e-02 
5.500000000000e-01 -7.388347661580e+04 9.182214454899e-02 
6.000000000000e-01 -7.850735628043e+04 8.942303126797e-02 
6.500000000000e-01 -8.200891884329e+04 8.759181370969e-02 
7.000000000000e-01 -8.458339731236e+04 8.623277189548e-02 
7.500000000000e-01 -8.642680968196e+04 8.525060782870e-02 
8.000000000000e-01 -8.772254665062e+04 8.455509177188e-02 
8.500000000000e-01 -8.862851661992e+04 8.406697979792e-02 
9.000000000000e-01 -8.927038614848e+04 8.372183956012e-02 
9.500000000000e-01 -8.974092329759e+04 8.347110015524e-02 
1.000000000000e+00 -9.010268634260e+04 8.982980584632e-02 
1.050000000000e+00 -9.012336865083e+04 9.629419723249e-02 
1.100000000000e+00 -9.010405764897e+04 9.629655348228e-02 
1.150000000000e+00 -9.007624560205e+04 9.630432785393e-02 
1.200000000000e+00 -9.005187190153e+04 9.631211537188e-02 
1.250000000000e+00 -9.003393763886e+04 9.631819100943e-02 
1.300000000000e+00 -9.002205197959e+04 9.632236462643e-02 
1.350000000000e+00 -9.001496657170e+04 9.632493467203e-02 
1.400000000000e+00 -9.001158679117e+04 9.632623941159e-02 
1.450000000000e+00 -9.001132191783e+04 9.632648686612e-02 
1.500000000000e+00 -9.001421524352e+04 9.632569037675e-02 
1.550000000000e+00 -9.002106704963e+04 9.632362332920e-02 
1.600000000000e+00 -9.003365823398e+04 9.631974974241e-02 
1.650000000000e+00 -9.005514085064e+04 9.631310625020e-02 
1.700000000000e+00 -9.009064213635e+04 9.630212031688e-02 
1.750000000000e+00 -9.014809529725e+04 9.628436164210e-02 
1.800000000000e+00 -9.023922143426e+04 9.625625194754e-02 
1.850000000000e+00 -9.038038842044e+04 9.621281810776e-02 
1.900000000000e+00 -9.059272024688e+04 9.614767425128e-02 
1.950000000000e+00 -9.090038836084e+04 9.605353215220e-02 
2.000000000000e+00 -9.132590563058e+04 9.599827107201e-02 
 TITLE = "Profiles along polylines"
 VARIABLES = "DIST" "PRESSURE1" "SATURATION1" 
 ZONE T="TIME=3.000000000000e+01"
0.000000000000e+00 -2.661433953495e+04 6.287820578535e-01 
5.000000000000e-02 -2.828817124671e+04 6.238990470488e-01 
1.000000000000e-01 -2.987784103687e+04 6.144240695682e-01 
1.500000000000e-01 -3.134155274008e+04 6.056551170787e-01 
2.000000000000e-01 -3.263758318535e+04 5.978374261322e-01 
2.500000000000e-01 -3.372672946230e+04 4.767604630873e-01 
3.000000000000e-01 -3.440986830221e+04 3.580796847653e-01 
3.500000000000e-01 -3.503187766795e+04 2.387527065275e-01 
4.000000000000e-01 -4.033982039483e+04 1.167510348045e-01 
4.500000000000e-01 -4.644847528473e+04 1.083347080049e-01 
5.000000000000e-01 -5.519109633351e+04 1.015177644250e-01 
5.500000000000e-01 -6.267704789804e+04 9.746602459129e-02 
6.000000000000e-01 -6.882126314107e+04 9.431245890857e-02 
6.500000000000e-01 -7.386622875904e+04 9.172782744955e-02 
7.000000000000e-01 -7.795574582990e+04 8.962738463510e-02 
7.500000000000e-01 -8.120668919516e+04 8.794942491203e-02 
8.000000000000e-01 -8.373317057449e+04 8.663717700333e-02 
8.500000000000e-01 -8.565128288815e+04 8.563408519892e-02 
9.000000000000e-01 -8.707407342120e+04 8.488498743438e-02 
9.500000000000e-01 -8.810277208675e+04 8.433977332778e-02 
1.000000000000e+00 -8.881856008218e+04 9.038072447272e-02 
1.050000000000e+00 -8.936005482152e+04 9.657539878311e-02 
1.100000000000e+00 -8.966576421149e+04 9.646035853422e-02 
1.150000000000e+00 -8.983245265879e+04 9.639666248910e-02 
1.200000000000e+00 -8.992069628594e+04 9.636248027862e-02 
1.250000000000e+00 -8.996641728066e+04 9.634456790480e-02 
1.300000000000e+00 -8.999015018556e+04 9.633522842283e-02 
1.350000000000e+00 -9.000342049222e+04 9.633009748587e-02 
1.400000000000e+00 -9.001278598632e+04 9.632669183755e-02 
1.450000000000e+00 -9.002229495803e+04 9.632350938926e-02 
1.500000000000e+00 -9.003497910473e+04 9.631947978459e-02 
1.550000000000e+00 -9.005380713100e+04 9.631361778549e-02 
1.600000000000e+00 -9.008236668420e+04 9.630478352726e-02 
1.650000000000e+00 -9.012542699267e+04 9.629149349066e-02 
1.700000000000e+00 -9.018944745829e+04 9.627175627659e-02 
1.750000000000e+00 -9.028301981892e+04 9.624293325140e-02 
1.800000000000e+00 -9.041714924984e+04 9.620165019463e-02 
1.850000000000e+00 -9.060519086676e+04 9.614381283117e-02 
1.900000000000e+00 -9.086218546243e+04 9.606479952679e-02 
1.950000000000e+00 -9.120334983215e+04 9.595989850204e-02 
2.000000000000e+00 -9.164169931316e+04 9.590039936104e-02 
 TITLE = "Profiles along polylines"
 VARIABLES = "DIST" "PRESSURE1" "SATURATION1" 
 ZONE T="TIME=4.000000000000e+01"
0.000000000000e+00 -2.982828284384e+04 6.119444144978e-01 
5.000000000000e-02 -3.037276382511e+04 6.102577598983e-01 
1.000000000000e-01 -3.098922011928e+04 6.067016701643e-01 
1.500000000000e-01 -3.164653971544e+04 6.028677017170e-01 
2.000000000000e-01 -3.231828883194e+04 5.989168367307e-01 
2.500000000000e-01 -3.298321977049e+04 4.795989540829e-01 
3.000000000000e-01 -3.354581241365e+04 3.612145898650e-01 
3.500000000000e-01 -3.410263645147e+04 2.414652760399e-01 
4.000000000000e-01 -3.772076008843e+04 1.201110764071e-01 
4.500000000000e-01 -4.182576547261e+04 1.143334708143e-01 
5.000000000000e-01 -4.692939468844e+04 1.074470341826e-01 
5.500000000000e-01 -5.432475501110e+04 1.017269693975e-01 
6.000000000000e-01 -6.090136343467e+04 9.823244981966e-02 
6.500000000000e-01 -6.653644102242e+04 9.537172387234e-02 
7.000000000000e-01 -7.135708853256e+04 9.292684904390e-02 
7.500000000000e-01 -7.543386737031e+04 9.085530232801e-02 
8.000000000000e-01 -7.881934903951e+04 8.912844036796e-02 
8.500000000000e-01 -8.156392730112e+04 8.772082752928e-02 
9.000000000000e-01 -8.372139913491e+04 8.660634277410e-02 
9.500000000000e-01 -8.534806405820e+04 8.575789871603e-02 
1.000000000000e+00 -8.649768963979e+04 9.135329448396e-02 
1.050000000000e+00 -8.777972218428e+04 9.712870148285e-02 
1.100000000000e+00 -8.862693599789e+04 9.682884486029e-02 
1.150000000000e+00 -8.916908892522e+04 9.663455892362e-02 
1.200000000000e+00 -8.950761699044e+04 9.651202684234e-02 
1.250000000000e+00 -8.971564319740e+04 9.643618734359e-02 
1.300000000000e+00 -8.984296057301e+04 9.638960868882e-02 
1.350000000000e+00 -8.992227431060e+04 9.636067102037e-02 
1.400000000000e+00 -8.997474511928e+04 9.634179532789e-02 
1.450000000000e+00 -9.001423266115e+04 9.632801900509e-02 
1.500000000000e+00 -9.005030821334e+04 9.631595577752e-02 
1.550000000000e+00 -9.009031977699e+04 9.630307244376e-02 
1.600000000000e+00 -9.014079414962e+04 9.628719573822e-02 
1.650000000000e+00 -9.020838882872e+04 9.626617835554e-02 
1.700000000000e+00 -9.030052265241e+04 9.623767815352e-02 
1.750000000000e+00 -9.042573882825e+04 9.619902861101e-02 
1.800000000000e+00 -9.059379451640e+04 9.614719805956e-02 
1.850000000000e+00 -9.081543390292e+04 9.607884760651e-02 
1.900000000000e+00 -9.110179882033e+04 9.599049944049e-02 
1.950000000000e+00 -9.146348067167e+04 9.587881334012e-02 
2.000000000000e+00 -9.190933532056e+04 9.581673710246e-02 
 TITLE = "Profiles along polylines"
 VARIABLES = "DIST" "PRESSURE1" "SATURATION1" 
 ZONE T="TIME=5.000000000000e+01"
0.000000000000e+00 -2.917715751658e+04 6.155442106619e-01 
5.000000000000e-02 -2.985509293179e+04 6.135460330970e-01 
1.000000000000e-01 -3.051962894718e+04 6.095882172555e-01 
1.500000000000e-01 -3.117199573285e+04 6.057055928149e-01 
2.000000000000e-01 -3.181164111890e+04 6.018988735389e-01 
2.500000000000e-01 -3.243703957044e+04 4.821771994495e-01 
3.000000000000e-01 -3.298314042300e+04 3.633160557351e-01 
3.500000000000e-01 -3.352564131517e+04 2.430973021137e-01 
4.000000000000e-01 -3.645736520520e+04 1.217687572456e-01 
4.500000000000e-01 -3.969608558597e+04 1.172476284036e-01 
5.000000000000e-01 -4.340958077580e+04 1.119877171767e-01 
5.500000000000e-01 -4.823737949854e+04 1.059403471013e-01 
6.000000000000e-01 -5.484044682083e+04 1.012097515253e-01 
6.500000000000e-01 -6.059350722342e+04 9.829622161169e-02 
7.000000000000e-01 -6.565109523910e+04 9.574508089910e-02 
7.500000000000e-01 -7.007672243073e+04 9.351299746753e-02 
8.000000000000e-01 -7.389910487380e+04 9.158128799840e-02 
8.500000000000e-01 -7.713286559253e+04 8.994078535044e-02 
9.000000000000e-01 -7.978847275912e+04 8.858557925650e-02 
9.500000000000e-01 -8.187733611267e+04 8.750996431606e-02 
1.000000000000e+00 -8.341385258102e+04 9.262653517983e-02 
1.050000000000e+00 -8.545304650523e+04 9.791622924035e-02 
1.100000000000e+00 -8.694139433434e+04 9.740695296422e-02 
1.150000000000e+00 -8.799028351481e+04 9.704375735936e-02 
1.200000000000e+00 -8.870778217191e+04 9.679262659608e-02 
1.250000000000e+00 -8.918760599225e+04 9.662320328689e-02 
1.300000000000e+00 -8.950425913024e+04 9.651071763702e-02 
1.350000000000e+00 -8.971334178808e+04 9.643628894264e-02 
1.400000000000e+00 -8.985466688296e+04 9.638618778211e-02 
1.450000000000e+00 -8.995619166143e+04 9.635068609515e-02 
1.500000000000e+00 -9.003764851031e+04 9.632290671172e-02 
1.550000000000e+00 -9.011345864955e+04 9.629785913630e-02 
1.600000000000e+00 -9.019489062671e+04 9.627170620423e-02 
1.650000000000e+00 -9.029157012284e+04 9.624124184599e-02 
1.700000000000e+00 -9.041246996046e+04 9.620354262265e-02 
1.750000000000e+00 -9.056648386678e+04 9.615575912925e-02 
1.800000000000e+00 -9.076265412751e+04 9.609502256148e-02 
1.850000000000e+00 -9.101010093395e+04 9.601844896367e-02 
1.900000000000e+00 -9.131769902265e+04 9.592322528498e-02 
1.950000000000e+00 -9.169356817652e+04 9.580675613920e-02 
2.000000000000e+00 -9.214448419208e+04 9.574290471616e-02 
 TITLE = "Profiles along polylines"
 VARIABLES = "DIST" "PRESSURE1" "SATURATION1" 
 ZONE T="TIME=6.000000000000e+01"
0.000000000000e+00 4.933068136464e+08 1.000000000000e+00 
5.000000000000e-02 4.933062753512e+08 1.000000000000e+00 
1.000000000000e-01 4.933057382659e+08 1.000000000000e+00 
1.500000000000e-01 4.933052023905e+08 1.000000000000e+00 
2.000000000000e-01 4.933046677251e+08 1.000000000000e+00 
2.500000000000e-01 4.933041342696e+08 1.000000000000e+00 
3.000000000000e-01 4.933036368121e+08 1.000000000000e+00 
3.500000000000e-01 4.933031395562e+08 1.000000000000e+00 
4.000000000000e-01 4.933026470395e+08 1.000000000000e+00 
4.500000000000e-01 4.933021545849e+08 1.000000000000e+00 
5.000000000000e-01 4.933016621923e+08 1.000000000000e+00 
5.500000000000e-01 4.933011698617e+08 1.000000000000e+00 
6.000000000000e-01 4.933006775932e+08 1.000000000000e+00 
6.500000000000e-01 4.933001853867e+08 1.000000000000e+00 
7.000000000000e-01 4.932996932423e+08 1.000000000000e+00 
7.500000000000e-01 4.932992011599e+08 1.000000000000e+00 
8.000000000000e-01 4.932987091396e+08 1.000000000000e+00 
8.500000000000e-01 4.932982171814e+08 1.000000000000e+00 
9.000000000000e-01 4.932977252852e+08 1.000000000000e+00 
9.500000000000e-01 4.932972334510e+08 1.000000000000e+00 
1.000000000000e+00 4.932967416789e+08 1.000000000000e+00 
1.050000000000e+00 4.932962504416e+08 1.000000000000e+00 
1.100000000000e+00 4.932957592420e+08 1.000000000000e+00 
1.150000000000e+00 4.932952680803e+08 1.000000000000e+00 
1.200000000000e+00 4.932947769564e+08 1.000000000000e+00 
1.250000000000e+00 4.932942858702e+08 1.000000000000e+00 
1.300000000000e+00 4.932937948220e+08 1.000000000000e+00 
1.350000000000e+00 4.932933038115e+08 1.000000000000e+00 
1.400000000000e+00 4.932928128388e+08 1.000000000000e+00 
1.450000000000e+00 4.932923219040e+08 1.000000000000e+00 
1.500000000000e+00 4.932918310069e+08 1.000000000000e+00 
1.550000000000e+00 4.932913401477e+08 1.000000000000e+00 
1.600000000000e+00 4.932908493263e+08 1.000000000000e+00 
1.650000000000e+00 4.932903585427e+08 1.000000000000e+00 
1.700000000000e+00 4.932898677969e+08 1.000000000000e+00 
1.750000000000e+00 4.932893770889e+08 1.000000000000e+00 
1.800000000000e+00 4.932888864188e+08 1.000000000000e+00 
1.850000000000e+00 4.932883957864e+08 1.000000000000e+00 
1.900000000000e+00 4.932879051919e+08 1.000000000000e+00 
1.950000000000e+00 4.932874146352e+08 1.000000000000e+00 
2.000000000000e+00 4.932869241163e+08 1.000000000000e+00 
 TITLE = "Profiles along polylines"
 VARIABLES = "DIST" "PRESSURE1" "SATURATION1" 
 ZONE T="TIME=7.000000000000e+01"
0.000000000000e+00 5.278980446094e+08 1.000000000000e+00 
5.000000000000e-02 5.278975507584e+08 1.000000000000e+00 
1.000000000000e-01 5.278970569922e+08 1.000000000000e+00 
1.500000000000e-01 5.278965633109e+08 1.000000000000e+00 
2.000000000000e-01 5.278960697144e+08 1.000000000000e+00 
2.500000000000e-01 5.278955762027e+08 1.000000000000e+00 
3.000000000000e-01 5.278950852149e+08 1.000000000000e+00 
3.500000000000e-01 5.278945942413e+08 1.000000000000e+00 
4.000000000000e-01 5.278941035999e+08 1.000000000000e+00 
4.500000000000e-01 5.278936129628e+08 1.000000000000e+00 
5.000000000000e-01 5.278931223301e+08 1.000000000000e+00 
5.500000000000e-01 5.278926317018e+08 1.000000000000e+00 
6.000000000000e-01 5.278921410778e+08 1.000000000000e+00 
6.500000000000e-01 5.278916504582e+08 1.000000000000e+00 
7.000000000000e-01 5.278911598429e+08 1.000000000000e+00 
7.500000000000e-01 5.278906692319e+08 1.000000000000e+00 
8.000000000000e-01 5.278901786254e+08 1.000000000000e+00 
8.500000000000e-01 5.278896880231e+08 1.000000000000e+00 
9.000000000000e-01 5.278891974252e+08 1.000000000000e+00 
9.500000000000e-01 5.278887068317e+08 1.000000000000e+00 
1.000000000000e+00 5.278882162425e+08 1.000000000000e+00 
1.050000000000e+00 5.278877256908e+08 1.000000000000e+00 
1.100000000000e+00 5.278872351418e+08 1.000000000000e+00 
1.150000000000e+00 5.278867445954e+08 1.000000000000e+00 
1.200000000000e+00 5.278862540516e+08 1.000000000000e+00 
1.250000000000e+00 5.278857635105e+08 1.000000000000e+00 
1.300000000000e+00 5.278852729721e+08 1.000000000000e+00 
1.350000000000e+00 5.278847824363e+08 1.000000000000e+00 
1.400000000000e+00 5.278842919032e+08 1.000000000000e+00 
1.450000000000e+00 5.278838013727e+08 1.000000000000e+00 
1.500000000000e+00 5.278833108449e+08 1.000000000000e+00 
1.550000000000e+00 5.278828203197e+08 1.000000000000e+00 
1.600000000000e+00 5.278823297971e+08 1.000000000000e+00 
1.650000000000e+00 5.278818392772e+08 1.000000000000e+00 
1.700000000000e+00 5.278813487600e+08 1.000000000000e+00 
1.750000000000e+00 5.278808582454e+08 1.000000000000e+00 
1.800000000000e+00 5.278803677335e+08 1.000000000000e+00 
1.850000000000e+00 5.278798772242e+08 1.000000000000e+00 
1.900000000000e+00 5.278793867176e+08 1.000000000000e+00 
1.950000000000e+00 5.278788962136e+08 1.000000000000e+00 
2.000000000000e+00 5.278784057123e+08 1.000000000000e+00 
 TITLE = "Profiles along polylines"
 VARIABLES = "DIST" "PRESSURE1" "SATURATION1" 
 ZONE T="TIME=8.000000000000e+01"
0.000000000000e+00 5.278988865693e+08 1.000000000000e+00 
5.000000000000e-02 5.278983960693e+08 1.000000000000e+00 
1.000000000000e-01 5.278979055693e+08 1.000000000000e+00 
1.500000000000e-01 5.278974150693e+08 1.000000000000e+00 
2.000000000000e-01 5.278969245693e+08 1.000000000000e+00 
2.500000000000e-01 5.278964340693e+08 1.000000000000e+00 
3.000000000000e-01 5.278959435693e+08 1.000000000000e+00 
3.500000000000e-01 5.278954530693e+08 1.000000000000e+00 
4.000000000000e-01 5.278949625693e+08 1.000000000000e+00 
4.500000000000e-01 5.278944720693e+08 1.000000000000e+00 
5.000000000000e-01 5.278939815693e+08 1.000000000000e+00 
5.500000000000e-01 5.278934910693e+08 1.000000000000e+00 
6.000000000000e-01 5.278930005693e+08 1.000000000000e+00 
6.500000000000e-01 5.278925100693e+08 1.000000000000e+00 
7.000000000000e-01 5.278920195693e+08 1.000000000000e+00 
7.500000000000e-01 5.278915290693e+08 1.000000000000e+00 
8.000000000000e-01 5.278910385693e+08 1.000000000000e+00 
8.500000000000e-01 5.278905480693e+08 1.000000000000e+00 
9.000000000000e-01 5.278900575693e+08 1.000000000000e+00 
9.500000000000e-01 5.278895670693e+08 1.000000000000e+00 
1.000000000000e+00 5.278890765693e+08 1.000000000000e+00 
1.050000000000e+00 5.278885860693e+08 1.000000000000e+00 
1.100000000000e+00 5.278880955693e+08 1.000000000000e+00 
1.150000000000e+00 5.278876050693e+08 1.000000000000e+00 
1.200000000000e+00 5.278871145693e+08 1.000000000000e+00 
1.250000000000e+00 5.278866240693e+08 1.000000000000e+00 
1.300000000000e+00 5.278861335693e+08 1.000000000000e+00 
1.350000000000e+00 5.278856430693e+08 1.000000000000e+00 
1.400000000000e+00 5.278851525693e+08 1.000000000000e+00 
1.450000000000e+00 5.278846620693e+08 1.000000000000e+00 
1.500000000000e+00 5.278841715693e+08 1.000000000000e+00 
1.550000000000e+00 5.278836810693e+08 1.000000000000e+00 
1.600000000000e+00 5.278831905693e+08 1.000000000000e+00 
1.650000000000e+00 5.278827000693e+08 1.000000000000e+00 
1.700000000000e+00 5.278822095693e+08 1.000000000000e+00 