 TITLE = "Profiles along polylines"
 VARIABLES = "DIST" "PRESSURE1" "SATURATION1" 
 ZONE T="TIME=0.000000000000e+00"
0.000000000000e+00 -9.000000000000e+04 3.601056880734e-01 
5.000000000000e-02 -9.000000000000e+04 3.601056880734e-01 
1.000000000000e-01 -9.000000000000e+04 3.601056880734e-01 
1.500000000000e-01 -9.000000000000e+04 3.601056880734e-01 
2.000000000000e-01 -9.000000000000e+04 3.601056880734e-01 
2.500000000000e-01 -9.000000000000e+04 3.601056880734e-01 
3.000000000000e-01 -9.000000000000e+04 3.601056880734e-01 
3.500000000000e-01 -9.000000000000e+04 3.601056880734e-01 
4.000000000000e-01 -9.000000000000e+04 3.601056880734e-01 
4.500000000000e-01 -9.000000000000e+04 3.601056880734e-01 
5.000000000000e-01 -9.000000000000e+04 3.601056880734e-01 
5.500000000000e-01 -9.000000000000e+04 3.601056880734e-01 
6.000000000000e-01 -9.000000000000e+04 3.601056880734e-01 
6.500000000000e-01 -9.000000000000e+04 3.601056880734e-01 
7.000000000000e-01 -9.000000000000e+04 3.601056880734e-01 
7.500000000000e-01 -9.000000000000e+04 2.217008899083e-01 
8.000000000000e-01 -9.000000000000e+04 8.329609174312e-02 
8.500000000000e-01 -9.000000000000e+04 8.329609174312e-02 
9.000000000000e-01 -9.000000000000e+04 8.329609174312e-02 
9.500000000000e-01 -9.000000000000e+04 8.329609174312e-02 
1.000000000000e+00 -9.000000000000e+04 8.329609174312e-02 
1.050000000000e+00 -9.000000000000e+04 8.329609174312e-02 
1.100000000000e+00 -9.000000000000e+04 8.329609174312e-02 
1.150000000000e+00 -9.000000000000e+04 8.329609174312e-02 
1.200000000000e+00 -9.000000000000e+04 8.329609174312e-02 
1.250000000000e+00 -9.000000000000e+04 8.329609174312e-02 
1.300000000000e+00 -9.000000000000e+04 8.329609174312e-02 
1.350000000000e+00 -9.000000000000e+04 8.329609174312e-02 
1.400000000000e+00 -9.000000000000e+04 8.329609174312e-02 
1.450000000000e+00 -9.000000000000e+04 8.329609174312e-02 
1.500000000000e+00 -9.000000000000e+04 8.329609174312e-02 
1.550000000000e+00 -9.000000000000e+04 8.329609174312e-02 
1.600000000000e+00 -9.000000000000e+04 8.329609174312e-02 
1.650000000000e+00 -9.000000000000e+04 8.329609174312e-02 
1.700000000000e+00 -9.000000000000e+04 8.329609174312e-02 
1.750000000000e+00 -9.000000000000e+04 8.329609174312e-02 
1.800000000000e+00 -9.000000000000e+04 8.329609174312e-02 
1.850000000000e+00 -9.000000000000e+04 8.329609174312e-02 
1.900000000000e+00 -9.000000000000e+04 8.329609174312e-02 
1.950000000000e+00 -9.000000000000e+04 8.329609174312e-02 
2.000000000000e+00 -9.000000000000e+04 8.329609174312e-02 
 TITLE = "Profiles along polylines"
 VARIABLES = "DIST" "PRESSURE1" "SATURATION1" 
 ZONE T="TIME=5.000000000000e-01"
0.000000000000e+00 -8.361907979909e+04 3.772126724434e-01 
5.000000000000e-02 -8.762660260696e+04 3.718185115152e-01 
1.000000000000e-01 -8.915641967263e+04 3.643846743424e-01 
1.500000000000e-01 -8.970595292205e+04 3.616151978513e-01 
2.000000000000e-01 -8.989825374257e+04 3.606303843305e-01 
2.500000000000e-01 -8.996489312266e+04 3.602870367239e-01 
3.000000000000e-01 -8.998792024256e+04 3.601681604688e-01 
3.500000000000e-01 -8.999590934025e+04 3.601269557560e-01 
4.000000000000e-01 -8.999879874400e+04 3.601122468400e-01 
4.500000000000e-01 -9.000017947765e+04 3.601057526872e-01 
5.000000000000e-01 -9.000174974621e+04 3.600994649463e-01 
5.500000000000e-01 -9.000540350816e+04 3.600857799498e-01 
6.000000000000e-01 -9.001551701998e+04 3.600482914974e-01 
6.500000000000e-01 -9.004420404678e+04 3.599420353174e-01 
7.000000000000e-01 -9.012593418342e+04 3.596388522996e-01 
7.500000000000e-01 -9.035984616373e+04 2.212913163181e-01 
8.000000000000e-01 -9.005904438860e+04 8.322173706107e-02 
8.500000000000e-01 -9.000973606639e+04 8.328387890866e-02 
9.000000000000e-01 -9.000160671000e+04 8.329407758180e-02 
9.500000000000e-01 -9.000026518500e+04 8.329575934372e-02 
1.000000000000e+00 -9.000004376933e+04 8.329603688086e-02 
1.050000000000e+00 -9.000000722424e+04 8.329608268798e-02 
1.100000000000e+00 -9.000000119238e+04 8.329609024854e-02 
1.150000000000e+00 -9.000000019681e+04 8.329609149644e-02 
1.200000000000e+00 -9.000000003248e+04 8.329609170240e-02 
1.250000000000e+00 -9.000000000536e+04 8.329609173640e-02 
1.300000000000e+00 -9.000000000089e+04 8.329609174201e-02 
1.350000000000e+00 -9.000000000016e+04 8.329609174292e-02 
1.400000000000e+00 -9.000000000011e+04 8.329609174302e-02 
1.450000000000e+00 -9.000000000053e+04 8.329609174272e-02 
1.500000000000e+00 -9.000000000310e+04 8.329609174076e-02 
1.550000000000e+00 -9.000000001841e+04 8.329609172912e-02 
1.600000000000e+00 -9.000000010921e+04 8.329609166009e-02 
1.650000000000e+00 -9.000000064787e+04 8.329609125055e-02 
1.700000000000e+00 -9.000000384356e+04 8.329608882092e-02 
1.750000000000e+00 -9.000002280218e+04 8.329607440694e-02 
1.800000000000e+00 -9.000013527591e+04 8.329598889404e-02 
1.850000000000e+00 -9.000080254437e+04 8.329548155156e-02 
1.900000000000e+00 -9.000476151086e+04 8.329247061351e-02 
1.950000000000e+00 -9.002826061663e+04 8.327456933175e-02 
2.000000000000e+00 -9.016810484191e+04 8.325924482363e-02 
 TITLE = "Profiles along polylines"
 VARIABLES = "DIST" "PRESSURE1" "SATURATION1" 
 ZONE T="TIME=1.000000000000e+00"
0.000000000000e+00 -8.530163521214e+04 3.739245735938e-01 
5.000000000000e-02 -8.717060521109e+04 3.710110034534e-01 
1.000000000000e-01 -8.858817081870e+04 3.660571236633e-01 
1.500000000000e-01 -8.936332778246e+04 3.629336213816e-01 
2.000000000000e-01 -8.972970211603e+04 3.613459573896e-01 
2.500000000000e-01 -8.988960569302e+04 3.606231182053e-01 
3.000000000000e-01 -8.995619615031e+04 3.603141825251e-01 
3.500000000000e-01 -8.998327329228e+04 3.601866274308e-01 
4.000000000000e-01 -8.999456720641e+04 3.601335065173e-01 
4.500000000000e-01 -9.000052760159e+04 3.601070958330e-01 
5.000000000000e-01 -9.000679177920e+04 3.600828230258e-01 
5.500000000000e-01 -9.001902871558e+04 3.600388988192e-01 
6.000000000000e-01 -9.004751257910e+04 3.599390666341e-01 
6.500000000000e-01 -9.011423822257e+04 3.597085285656e-01 
7.000000000000e-01 -9.026502618618e+04 3.591969553550e-01 
7.500000000000e-01 -9.058442983892e+04 2.209638884603e-01 
8.000000000000e-01 -9.013774587216e+04 8.316389985380e-02 
8.500000000000e-01 -9.002963826898e+04 8.326570858402e-02 
9.000000000000e-01 -9.000603688745e+04 8.328964732598e-02 
9.500000000000e-01 -9.000118567086e+04 8.329479111775e-02 
1.000000000000e+00 -9.000022694910e+04 8.329583791223e-02 
1.050000000000e+00 -9.000004261709e+04 8.329604338223e-02 
1.100000000000e+00 -9.000000788551e+04 8.329608269381e-02 
1.150000000000e+00 -9.000000144206e+04 8.329609007336e-02 
1.200000000000e+00 -9.000000026121e+04 8.329609143845e-02 
1.250000000000e+00 -9.000000004695e+04 8.329609168803e-02 
1.300000000000e+00 -9.000000000841e+04 8.329609173321e-02 
1.350000000000e+00 -9.000000000165e+04 8.329609174124e-02 
1.400000000000e+00 -9.000000000117e+04 8.329609174214e-02 
1.450000000000e+00 -9.000000000507e+04 8.329609173942e-02 
1.500000000000e+00 -9.000000002759e+04 8.329609172315e-02 
1.550000000000e+00 -9.000000015051e+04 8.329609163472e-02 
1.600000000000e+00 -9.000000081489e+04 8.329609115936e-02 
1.650000000000e+00 -9.000000437178e+04 8.329608863163e-02 
1.700000000000e+00 -9.000002319135e+04 8.329607537064e-02 
1.750000000000e+00 -9.000012130215e+04 8.329600699092e-02 
1.800000000000e+00 -9.000062304302e+04 8.329566237188e-02 
1.850000000000e+00 -9.000312332983e+04 8.329397983946e-02 
1.900000000000e+00 -9.001513308537e+04 8.328614070834e-02 
1.950000000000e+00 -9.006968101832e+04 8.325227044674e-02 
2.000000000000e+00 -9.029497727375e+04 8.322484415716e-02 
 TITLE = "Profiles along polylines"
 VARIABLES = "DIST" "PRESSURE1" "SATURATION1" 
 ZONE T="TIME=5.000000000000e+00"
0.000000000000e+00 -4.419808078289e+04 5.173820663645e-01 
5.000000000000e-02 -4.944033455692e+04 5.021256896818e-01 
1.000000000000e-01 -5.896644844382e+04 4.710726149165e-01 
1.500000000000e-01 -6.786617019917e+04 4.411434848204e-01 
2.000000000000e-01 -7.507378982945e+04 4.158427696890e-01 
2.500000000000e-01 -8.042060998182e+04 3.965465818901e-01 
3.000000000000e-01 -8.410913867459e+04 3.828944779708e-01 
3.500000000000e-01 -8.650704422667e+04 3.738136479406e-01 
4.000000000000e-01 -8.800462202389e+04 3.680424980264e-01 
4.500000000000e-01 -8.892801487641e+04 3.644534658731e-01 
5.000000000000e-01 -8.951340320341e+04 3.621880499448e-01 
5.500000000000e-01 -8.991906187091e+04 3.606525243361e-01 
6.000000000000e-01 -9.024839186623e+04 3.594541721037e-01 
6.500000000000e-01 -9.056954547606e+04 3.583350371484e-01 
7.000000000000e-01 -9.092771215794e+04 3.571257451960e-01 
7.500000000000e-01 -9.135072344481e+04 2.196095605598e-01 
8.000000000000e-01 -9.070528654642e+04 8.287333226298e-02 
8.500000000000e-01 -9.033714350859e+04 8.308509041821e-02 
9.000000000000e-01 -9.015060761355e+04 8.319848857137e-02 
9.500000000000e-01 -9.006390644203e+04 8.325352190897e-02 
1.000000000000e+00 -9.002609362606e+04 8.327833881660e-02 
1.050000000000e+00 -9.001035690782e+04 8.328893273369e-02 
1.100000000000e+00 -9.000402748608e+04 8.329327524131e-02 
1.150000000000e+00 -9.000154362512e+04 8.329500321187e-02 
1.200000000000e+00 -9.000058595413e+04 8.329567616789e-02 
1.250000000000e+00 -9.000022174413e+04 8.329593402466e-02 
1.300000000000e+00 -9.000008582493e+04 8.329603103908e-02 
1.350000000000e+00 -9.000003916453e+04 8.329606530121e-02 
1.400000000000e+00 -9.000003324671e+04 8.329607211202e-02 
1.450000000000e+00 -9.000006128090e+04 8.329605885357e-02 
1.500000000000e+00 -9.000015066617e+04 8.329601272916e-02 
1.550000000000e+00 -9.000038880895e+04 8.329588895715e-02 
1.600000000000e+00 -9.000100468725e+04 8.329556959113e-02 
1.650000000000e+00 -9.000257460295e+04 8.329475949506e-02 
1.700000000000e+00 -9.000651010958e+04 8.329274286893e-02 
1.750000000000e+00 -9.001615125798e+04 8.328784884034e-02 
1.800000000000e+00 -9.003902672308e+04 8.327637869636e-02 
1.850000000000e+00 -9.009096654257e+04 8.325073666780e-02 
1.900000000000e+00 -9.020203386235e+04 8.319692503829e-02 
1.950000000000e+00 -9.042104483860e+04 8.309304109088e-02 
2.000000000000e+00 -9.080847125989e+04 8.302533917839e-02 
 TITLE = "Profiles along polylines"
 VARIABLES = "DIST" "PRESSURE1" "SATURATION1" 
 ZONE T="TIME=1.000000000000e+01"
0.000000000000e+00 -6.046562696769e+04 4.589606294876e-01 
5.000000000000e-02 -6.160779952121e+04 4.564285005499e-01 
1.000000000000e-01 -6.380400724223e+04 4.497733830553e-01 
1.500000000000e-01 -6.670713973363e+04 4.405201600583e-01 
2.000000000000e-01 -6.997872465298e+04 4.297953734370e-01 
2.500000000000e-01 -7.333500591424e+04 4.185853961915e-01 
3.000000000000e-01 -7.655882865147e+04 4.076644424307e-01 
3.500000000000e-01 -7.949921285101e+04 3.975841999646e-01 
4.000000000000e-01 -8.206720745345e+04 3.886851647618e-01 
4.500000000000e-01 -8.422912468059e+04 3.811186237472e-01 
5.000000000000e-01 -8.599623071938e+04 3.748795533785e-01 
5.500000000000e-01 -8.741099162583e+04 3.698502447060e-01 
6.000000000000e-01 -8.853176055129e+04 3.658498438163e-01 
6.500000000000e-01 -8.941856340645e+04 3.626820928995e-01 
7.000000000000e-01 -9.012189052802e+04 3.601747820895e-01 
7.500000000000e-01 -9.067494108753e+04 2.210185333826e-01 
8.000000000000e-01 -9.063933228333e+04 8.298967245539e-02 
8.500000000000e-01 -9.046810557924e+04 8.305130732645e-02 
9.000000000000e-01 -9.030152668412e+04 8.313041891579e-02 
9.500000000000e-01 -9.017915713133e+04 8.319430293133e-02 
1.000000000000e+00 -9.010052450905e+04 8.323753892577e-02 
1.050000000000e+00 -9.005401121366e+04 8.326401180804e-02 
1.100000000000e+00 -9.002804854039e+04 8.327916765925e-02 
1.150000000000e+00 -9.001417704561e+04 8.328742647796e-02 
1.200000000000e+00 -9.000702210703e+04 8.329175534333e-02 
1.250000000000e+00 -9.000345068129e+04 8.329394722641e-02 
1.300000000000e+00 -9.000175053421e+04 8.329500891683e-02 
1.350000000000e+00 -9.000104927921e+04 8.329546701556e-02 
1.400000000000e+00 -9.000096801835e+04 8.329556208047e-02 
1.450000000000e+00 -9.000145524203e+04 8.329534844072e-02 
1.500000000000e+00 -9.000276087274e+04 8.329471903678e-02 
1.550000000000e+00 -9.000554347385e+04 8.329336107667e-02 
1.600000000000e+00 -9.001114119345e+04 8.329063068156e-02 
1.650000000000e+00 -9.002207288471e+04 8.328531795229e-02 
1.700000000000e+00 -9.004285725877e+04 8.327526492816e-02 
1.750000000000e+00 -9.008121118247e+04 8.325681354205e-02 
1.800000000000e+00 -9.014954722766e+04 8.322412792777e-02 
1.850000000000e+00 -9.026634712358e+04 8.316859041060e-02 
1.900000000000e+00 -9.045641062189e+04 8.307871603220e-02 
1.950000000000e+00 -9.074840414332e+04 8.294124667638e-02 
2.000000000000e+00 -9.116837709519e+04 8.285890353553e-02 
 TITLE = "Profiles along polylines"
 VARIABLES = "DIST" "PRESSURE1" "SATURATION1" 
 ZONE T="TIME=2.000000000000e+01"
0.000000000000e+00 -4.060621635659e+04 5.404818451275e-01 
5.000000000000e-02 -4.494568407804e+04 5.272692079927e-01 
1.000000000000e-01 -4.962637341879e+04 5.028987823378e-01 
1.500000000000e-01 -5.428419856726e+04 4.840709709189e-01 
2.000000000000e-01 -5.854050437369e+04 4.693743445776e-01 
2.500000000000e-01 -6.246133067034e+04 4.558749077206e-01 
3.000000000000e-01 -6.607323071007e+04 4.434495132015e-01 
3.500000000000e-01 -6.938237154586e+04 4.320597371010e-01 
4.000000000000e-01 -7.238513589024e+04 4.217087852474e-01 
4.500000000000e-01 -7.507436884853e+04 4.124168963079e-01 
5.000000000000e-01 -7.744295775252e+04 4.042072607591e-01 
5.500000000000e-01 -7.948551529957e+04 3.970989774176e-01 
6.000000000000e-01 -8.119863375014e+04 3.911051408717e-01 
6.500000000000e-01 -8.258014030933e+04 3.862345306814e-01 
7.000000000000e-01 -8.362783358026e+04 3.824953069106e-01 
7.500000000000e-01 -8.433822426947e+04 2.333244847598e-01 
8.000000000000e-01 -8.642919453682e+04 8.528482732006e-02 
8.500000000000e-01 -8.778852065976e+04 8.453710852505e-02 
9.000000000000e-01 -8.864508370875e+04 8.405999732076e-02 
9.500000000000e-01 -8.917386997446e+04 8.376290646099e-02 
1.000000000000e+00 -8.949663381708e+04 8.358065675852e-02 
1.050000000000e+00 -8.969282988853e+04 8.346964263176e-02 
1.100000000000e+00 -8.981224193269e+04 8.340208097049e-02 
1.150000000000e+00 -8.988535203303e+04 8.336078897476e-02 
1.200000000000e+00 -8.993064591368e+04 8.333529650604e-02 
1.250000000000e+00 -8.995935828702e+04 8.331923774067e-02 
1.300000000000e+00 -8.997842819596e+04 8.330869678686e-02 
1.350000000000e+00 -8.999231318172e+04 8.330118396492e-02 
1.400000000000e+00 -9.000411768980e+04 8.329500002314e-02 
1.450000000000e+00 -9.001633124698e+04 8.328882557467e-02 
1.500000000000e+00 -9.003136286613e+04 8.328143176225e-02 
1.550000000000e+00 -9.005198916661e+04 8.327144668547e-02 
1.600000000000e+00 -9.008178901437e+04 8.325713732768e-02 
1.650000000000e+00 -9.012560219447e+04 8.323618596230e-02 
1.700000000000e+00 -9.019001025459e+04 8.320546001964e-02 
1.750000000000e+00 -9.028378250495e+04 8.316080074549e-02 
1.800000000000e+00 -9.041815308803e+04 8.309689132882e-02 
1.850000000000e+00 -9.060670560959e+04 8.300730468729e-02 
1.900000000000e+00 -9.086458248574e+04 8.288485531548e-02 
1.950000000000e+00 -9.120679776802e+04 8.272234913745e-02 
2.000000000000e+00 -9.164573747589e+04 8.263021216281e-02 
 TITLE = "Profiles along polylines"
 VARIABLES = "DIST" "PRESSURE1" "SATURATION1" 
 ZONE T="TIME=3.000000000000e+01"
0.000000000000e+00 -4.057416704720e+04 5.439848920344e-01 
5.000000000000e-02 -4.323877393458e+04 5.357818315534e-01 
1.000000000000e-01 -4.620387786381e+04 5.183704133819e-01 
1.500000000000e-01 -4.958446862675e+04 5.011815664773e-01 
2.000000000000e-01 -5.307621354436e+04 4.873652388311e-01 
2.500000000000e-01 -5.641912612973e+04 4.759575974073e-01 
3.000000000000e-01 -5.959249781117e+04 4.651123557371e-01 
3.500000000000e-01 -6.257700146062e+04 4.548966924358e-01 
4.000000000000e-01 -6.535316435446e+04 4.453768719459e-01 
4.500000000000e-01 -6.790080527990e+04 4.366209544256e-01 
5.000000000000e-01 -7.019898219834e+04 4.286993575296e-01 
5.500000000000e-01 -7.222628098273e+04 4.216840931458e-01 
6.000000000000e-01 -7.396140445894e+04 4.156469344197e-01 
6.500000000000e-01 -7.538407122021e+04 4.106565430536e-01 
7.000000000000e-01 -7.647622429096e+04 4.067745822902e-01 
7.500000000000e-01 -7.722348550432e+04 2.470668829180e-01 
8.000000000000e-01 -8.068381447502e+04 8.822912686083e-02 
8.500000000000e-01 -8.335607909750e+04 8.683996614108e-02 
9.000000000000e-01 -8.535582174654e+04 8.579037969971e-02 
9.500000000000e-01 -8.680903570756e+04 8.502034547693e-02 
1.000000000000e+00 -8.783846896085e+04 8.447009015100e-02 
1.050000000000e+00 -8.855267086804e+04 8.408549179056e-02 
1.100000000000e+00 -8.904037328056e+04 8.382131408210e-02 
1.150000000000e+00 -8.936982086642e+04 8.364209390298e-02 
1.200000000000e+00 -8.959119627311e+04 8.352135421054e-02 
1.250000000000e+00 -8.974028075106e+04 8.344000344278e-02 
1.300000000000e+00 -8.984213709507e+04 8.338457102165e-02 
1.350000000000e+00 -8.991425301141e+04 8.334562774167e-02 
1.400000000000e+00 -8.996900437717e+04 8.331651261017e-02 
1.450000000000e+00 -9.001550159410e+04 8.329236295674e-02 
1.500000000000e+00 -9.006094929500e+04 8.326939479410e-02 
1.550000000000e+00 -9.011164864076e+04 8.324437201947e-02 
1.600000000000e+00 -9.017374272239e+04 8.321421334011e-02 
1.650000000000e+00 -9.025376827933e+04 8.317570283021e-02 
1.700000000000e+00 -9.035903874487e+04 8.312528845554e-02 
1.750000000000e+00 -9.049784814029e+04 8.305897022466e-02 
1.800000000000e+00 -9.067945700568e+04 8.297229346641e-02 
1.850000000000e+00 -9.091380878304e+04 8.286046921053e-02 
1.900000000000e+00 -9.121094107706e+04 8.271863695203e-02 
1.950000000000e+00 -9.158011538043e+04 8.254225920369e-02 
2.000000000000e+00 -9.202879483633e+04 8.244490112222e-02 
 TITLE = "Profiles along polylines"
 VARIABLES = "DIST" "PRESSURE1" "SATURATION1" 
 ZONE T="TIME=4.000000000000e+01"
0.000000000000e+00 -4.959190351250e+04 4.962578258607e-01 
5.000000000000e-02 -5.035691522488e+04 4.947144965168e-01 
1.000000000000e-01 -5.155778300933e+04 4.909472204051e-01 
1.500000000000e-01 -5.309127792238e+04 4.859932947200e-01 
2.000000000000e-01 -5.485493260894e+04 4.801945881950e-01 
2.500000000000e-01 -5.675767695743e+04 4.738622947683e-01 
3.000000000000e-01 -5.872700440091e+04 4.672556570419e-01 
3.500000000000e-01 -6.070385012970e+04 4.605847277773e-01 
4.000000000000e-01 -6.263873743697e+04 4.540242292948e-01 
4.500000000000e-01 -6.448905832037e+04 4.477235170856e-01 
5.000000000000e-01 -6.621730856864e+04 4.418131910566e-01 
5.500000000000e-01 -6.779012282917e+04 4.364088878922e-01 
6.000000000000e-01 -6.917798872182e+04 4.316126955941e-01 
6.500000000000e-01 -7.035553136191e+04 4.275125833736e-01 
7.000000000000e-01 -7.130224035830e+04 4.241802846325e-01 
7.500000000000e-01 -7.200346579645e+04 2.571221746482e-01 
8.000000000000e-01 -7.579513307669e+04 9.064453355956e-02 
8.500000000000e-01 -7.901257320478e+04 8.901292632136e-02 
9.000000000000e-01 -8.167011613063e+04 8.765610964200e-02 
9.500000000000e-01 -8.380545027925e+04 8.655780260343e-02 
1.000000000000e+00 -8.547535383903e+04 8.569220707803e-02 
1.050000000000e+00 -8.674865632425e+04 8.502710815009e-02 
1.100000000000e+00 -8.769808975189e+04 8.452762335172e-02 
1.150000000000e+00 -8.839309982537e+04 8.415970498380e-02 
1.200000000000e+00 -8.889500835406e+04 8.389268983032e-02 
1.250000000000e+00 -8.925481650577e+04 8.370064063262e-02 
1.300000000000e+00 -8.951311442831e+04 8.356263119011e-02 
1.350000000000e+00 -8.970126981962e+04 8.346232615909e-02 
1.400000000000e+00 -8.984316623252e+04 8.338721035077e-02 
1.450000000000e+00 -8.995700772201e+04 8.332772685049e-02 
1.500000000000e+00 -9.005693668402e+04 8.327647351527e-02 
1.550000000000e+00 -9.015436766222e+04 8.322752439382e-02 
1.600000000000e+00 -9.025902376534e+04 8.317589359878e-02 
1.650000000000e+00 -9.037969648166e+04 8.311713646762e-02 
1.700000000000e+00 -9.052475620429e+04 8.304707604542e-02 
1.750000000000e+00 -9.070243585655e+04 8.296164352761e-02 
1.800000000000e+00 -9.092090434957e+04 8.285682345222e-02 
1.850000000000e+00 -9.118814719657e+04 8.272869431511e-02 
1.900000000000e+00 -9.151168255828e+04 8.257355069302e-02 
1.950000000000e+00 -9.189816290527e+04 8.238808347161e-02 
2.000000000000e+00 -9.235294052938e+04 8.228738640222e-02 
 TITLE = "Profiles along polylines"
 VARIABLES = "DIST" "PRESSURE1" "SATURATION1" 
 ZONE T="TIME=5.000000000000e+01"
0.000000000000e+00 -5.073149084604e+04 4.920498526355e-01 
5.000000000000e-02 -5.180070388207e+04 4.901832017374e-01 
1.000000000000e-01 -5.296528021078e+04 4.862888099045e-01 
1.500000000000e-01 -5.422417563614e+04 4.820812856311e-01 
2.000000000000e-01 -5.556346893976e+04 4.775975607051e-01 
2.500000000000e-01 -5.696166208930e+04 4.729041133822e-01 
3.000000000000e-01 -5.839345964064e+04 4.680832832215e-01 
3.500000000000e-01 -5.983204574457e+04 4.632243733841e-01 
4.000000000000e-01 -6.125043863323e+04 4.584183075489e-01 
4.500000000000e-01 -6.262232763010e+04 4.537543454598e-01 
5.000000000000e-01 -6.392266492247e+04 4.493178391006e-01 
5.500000000000e-01 -6.512818662881e+04 4.451883689447e-01 
6.000000000000e-01 -6.621796392173e+04 4.414378691319e-01 
6.500000000000e-01 -6.717402498735e+04 4.381285649777e-01 
7.000000000000e-01 -6.798203643856e+04 4.353107276520e-01 
7.500000000000e-01 -6.863198820852e+04 2.636223087388e-01 
8.000000000000e-01 -7.227159233018e+04 9.234912177815e-02 
8.500000000000e-01 -7.554313990131e+04 9.071130496115e-02 
9.000000000000e-01 -7.841819644500e+04 8.926480375124e-02 
9.500000000000e-01 -8.088624396248e+04 8.801627720045e-02 
1.000000000000e+00 -8.295451561975e+04 8.696373202443e-02 
1.050000000000e+00 -8.464665082399e+04 8.609713621029e-02 
1.100000000000e+00 -8.599957927267e+04 8.539978225574e-02 
1.150000000000e+00 -8.705893750544e+04 8.485034434626e-02 
1.200000000000e+00 -8.787396923568e+04 8.442525672391e-02 
1.250000000000e+00 -8.849299324342e+04 8.410093018566e-02 
1.300000000000e+00 -8.896017461303e+04 8.385543142441e-02 
1.350000000000e+00 -8.931380004764e+04 8.366947347684e-02 
1.400000000000e+00 -8.958583351962e+04 8.352677338236e-02 
1.450000000000e+00 -8.980233797260e+04 8.341394934483e-02 
1.500000000000e+00 -8.998435275813e+04 8.332015178717e-02 
1.550000000000e+00 -9.014891625006e+04 8.323658799979e-02 
1.600000000000e+00 -9.031003880093e+04 8.315604764539e-02 
1.650000000000e+00 -9.047952387697e+04 8.307248958119e-02 
1.700000000000e+00 -9.066759636567e+04 8.298071729035e-02 
1.750000000000e+00 -9.088333265157e+04 8.287614981976e-02 
1.800000000000e+00 -9.113490658980e+04 8.275468353397e-02 
1.850000000000e+00 -9.142967698527e+04 8.261263327566e-02 
1.900000000000e+00 -9.177415060208e+04 8.244673697978e-02 
1.950000000000e+00 -9.217386191944e+04 8.225420423043e-02 
2.000000000000e+00 -9.263321582087e+04 8.215096145765e-02 
 TITLE = "Profiles along polylines"
 VARIABLES = "DIST" "PRESSURE1" "SATURATION1" 
 ZONE T="TIME=6.000000000000e+01"
0.000000000000e+00 -4.025882649593e+04 5.500656938796e-01 
5.000000000000e-02 -4.079523033064e+04 5.484798900634e-01 
1.000000000000e-01 -4.132586819210e+04 5.453257185104e-01 
1.500000000000e-01 -4.185040794811e+04 5.422074565818e-01 
2.000000000000e-01 -4.236846485601e+04 5.391273282895e-01 
2.500000000000e-01 -4.287960865471e+04 5.360878308625e-01 
3.000000000000e-01 -4.338337460247e+04 5.327038681723e-01 
3.500000000000e-01 -4.427139768413e+04 5.275787898783e-01 
4.000000000000e-01 -4.578189019360e+04 5.192304007523e-01 
4.500000000000e-01 -4.791562959965e+04 5.078145524617e-01 
5.000000000000e-01 -5.022236281205e+04 4.969853808869e-01 
5.500000000000e-01 -5.244365775759e+04 4.887847628336e-01 
6.000000000000e-01 -5.452918505021e+04 4.816897642451e-01 
6.500000000000e-01 -5.638447506925e+04 4.753467001826e-01 
7.000000000000e-01 -5.787147871937e+04 4.702035134301e-01 
7.500000000000e-01 -5.880065649749e+04 2.828561410452e-01 
8.000000000000e-01 -6.450058942069e+04 9.639715469036e-02 
8.500000000000e-01 -6.916360092981e+04 9.399203391425e-02 
9.000000000000e-01 -7.309888004111e+04 9.198486467336e-02 
9.500000000000e-01 -7.643921736873e+04 9.028620718721e-02 
1.000000000000e+00 -7.925834805697e+04 8.885177376522e-02 
1.050000000000e+00 -8.160945840607e+04 8.765242174431e-02 
1.100000000000e+00 -8.354083804927e+04 8.666349135017e-02 
1.150000000000e+00 -8.510190716445e+04 8.586067142198e-02 
1.200000000000e+00 -8.634423719606e+04 8.521888650118e-02 
1.250000000000e+00 -8.732000331907e+04 8.471271003046e-02 
1.300000000000e+00 -8.807954771781e+04 8.431739879713e-02 
1.350000000000e+00 -8.866917248052e+04 8.400995196896e-02 
1.400000000000e+00 -8.912972217688e+04 8.376986523252e-02 
1.450000000000e+00 -8.949605558391e+04 8.357947809302e-02 
1.500000000000e+00 -8.979723093718e+04 8.342396343407e-02 
1.550000000000e+00 -9.005713401691e+04 8.329107523088e-02 
1.600000000000e+00 -9.029529936733e+04 8.317077507660e-02 
1.650000000000e+00 -9.052774400404e+04 8.305483177620e-02 
1.700000000000e+00 -9.076770576270e+04 8.293645431992e-02 
1.750000000000e+00 -9.102623576963e+04 8.280998934307e-02 
1.800000000000e+00 -9.131263302314e+04 8.267069340390e-02 
1.850000000000e+00 -9.163473218489e+04 8.251457739423e-02 
1.900000000000e+00 -9.199906805100e+04 8.233831314189e-02 
1.950000000000e+00 -9.241094529532e+04 8.213918900567e-02 
2.000000000000e+00 -9.287444170133e+04 8.203361081302e-02 
 TITLE = "Profiles along polylines"
 VARIABLES = "DIST" "PRESSURE1" "SATURATION1" 
 ZONE T="TIME=7.000000000000e+01"
0.000000000000e+00 -3.267461532047e+03 8.802069559783e-01 
5.000000000000e-02 -3.897885927729e+03 8.711395172435e-01 
1.000000000000e-01 -4.669360255390e+03 8.515163919478e-01 
1.500000000000e-01 -5.642664915537e+03 8.331568161852e-01 
2.000000000000e-01 -6.795337996033e+03 8.162269343753e-01 
2.500000000000e-01 -8.181024095843e+03 7.957637784105e-01 
3.000000000000e-01 -9.994998114653e+03 7.728670222072e-01 
3.500000000000e-01 -1.224412454900e+04 7.514901247135e-01 
4.000000000000e-01 -1.469448341093e+04 7.309569707326e-01 
4.500000000000e-01 -1.737836034546e+04 7.084174898159e-01 
5.000000000000e-01 -2.037928077858e+04 6.831154244229e-01 
5.500000000000e-01 -2.391737033633e+04 6.548655656876e-01 
6.000000000000e-01 -2.796314598666e+04 6.287198582869e-01 
6.500000000000e-01 -3.137241352352e+04 6.080754546723e-01 
7.000000000000e-01 -3.392712762458e+04 5.922962724589e-01 
7.500000000000e-01 -3.539917235293e+04 3.520950125236e-01 
8.000000000000e-01 -4.444316661253e+04 1.119954976420e-01 
8.500000000000e-01 -5.534047594968e+04 1.022870886230e-01 
9.000000000000e-01 -6.367030520038e+04 9.713206502075e-02 
9.500000000000e-01 -6.961449857757e+04 9.393378212284e-02 
1.000000000000e+00 -7.411698431511e+04 9.156224745054e-02 
1.050000000000e+00 -7.763582483138e+04 8.972870176085e-02 
1.100000000000e+00 -8.042964278922e+04 8.828112454986e-02 
1.150000000000e+00 -8.265993920289e+04 8.712821836719e-02 
1.200000000000e+00 -8.443810016596e+04 8.620912841286e-02 
1.250000000000e+00 -8.584893105146e+04 8.547899172318e-02 
1.300000000000e+00 -8.696223047049e+04 8.490180556123e-02 
1.350000000000e+00 -8.783795138779e+04 8.444709880461e-02 
1.400000000000e+00 -8.852815360898e+04 8.408855129811e-02 
1.450000000000e+00 -8.907765748318e+04 8.380348210876e-02 
1.500000000000e+00 -8.952441721671e+04 8.357260897668e-02 
1.550000000000e+00 -8.990002639718e+04 8.337980507115e-02 
1.600000000000e+00 -9.023042051876e+04 8.321177623024e-02 
1.650000000000e+00 -9.053669358047e+04 8.305767746000e-02 
1.700000000000e+00 -9.083591903314e+04 8.290871612532e-02 
1.750000000000e+00 -9.114189179557e+04 8.275778402463e-02 
1.800000000000e+00 -9.146574620202e+04 8.259914425492e-02 
1.850000000000e+00 -9.181643599226e+04 8.242818323266e-02 
1.900000000000e+00 -9.220108190551e+04 8.224122761822e-02 
1.950000000000e+00 -9.262520104770e+04 8.203542057562e-02 
2.000000000000e+00 -9.309283229173e+04 8.192749512989e-02 
 TITLE = "Profiles along polylines"
 VARIABLES = "DIST" "PRESSURE1" "SATURATION1" 
 ZONE T="TIME=8.000000000000e+01"
0.000000000000e+00 -9.311044269513e+03 7.740203402571e-01 
5.000000000000e-02 -9.839380685429e+03 7.706367232426e-01 
1.000000000000e-01 -1.045120752889e+04 7.645433265509e-01 
1.500000000000e-01 -1.114551478244e+04 7.587720481576e-01 
2.000000000000e-01 -1.192380521066e+04 7.522908141424e-01 
2.500000000000e-01 -1.278768635170e+04 7.450868765042e-01 
3.000000000000e-01 -1.373835299789e+04 7.371534360524e-01 
3.500000000000e-01 -1.477381810998e+04 7.285037862935e-01 
4.000000000000e-01 -1.588824418085e+04 7.191781119784e-01 
4.500000000000e-01 -1.707467535666e+04 7.092357338545e-01 
5.000000000000e-01 -1.832366745055e+04 6.987579380666e-01 
5.500000000000e-01 -1.961993103075e+04 6.878788166337e-01 
6.000000000000e-01 -2.093331348018e+04 6.768483410212e-01 
6.500000000000e-01 -2.220792365826e+04 6.660896438394e-01 
7.000000000000e-01 -2.337225025647e+04 6.561918708225e-01 
7.500000000000e-01 -2.433561672152e+04 3.932500646385e-01 
8.000000000000e-01 -3.124421737038e+04 1.301993873880e-01 
8.500000000000e-01 -3.773938057276e+04 1.208529031108e-01 
9.000000000000e-01 -4.432113015710e+04 1.113689924189e-01 
9.500000000000e-01 -5.289390131040e+04 1.033533052334e-01 
1.000000000000e+00 -6.094912016752e+04 9.839769253887e-02 
1.050000000000e+00 -6.724017393066e+04 9.511590958821e-02 
1.100000000000e+00 -7.226936481766e+04 9.251503004497e-02 
1.150000000000e+00 -7.631063208143e+04 9.043009981446e-02 
1.200000000000e+00 -7.954873879862e+04 8.875905138928e-02 
1.250000000000e+00 -8.212596447135e+04 8.742682384407e-02 
1.300000000000e+00 -8.416111679588e+04 8.637238396299e-02 
1.350000000000e+00 -8.575735467801e+04 8.554345646402e-02 
1.400000000000e+00 -8.700494682860e+04 8.489450431438e-02 
1.450000000000e+00 -8.798197473681e+04 8.438608148557e-02 
1.500000000000e+00 -8.875459802419e+04 8.398460604095e-02 
1.550000000000e+00 -8.937761904174e+04 8.366209353000e-02 
1.600000000000e+00 -8.989550893260e+04 8.339570086886e-02 