 TITLE = "Profiles along polylines"
 VARIABLES = "DIST" "PRESSURE1" "SATURATION1" 
 ZONE T="TIME=0.000000000000e+00"
0.000000000000e+00 -9.000000000000e+04 3.601056880734e-01 
5.000000000000e-02 -9.000000000000e+04 3.601056880734e-01 
1.000000000000e-01 -9.000000000000e+04 3.601056880734e-01 
1.500000000000e-01 -9.000000000000e+04 3.601056880734e-01 
2.000000000000e-01 -9.000000000000e+04 3.601056880734e-01 
2.500000000000e-01 -9.000000000000e+04 3.601056880734e-01 
3.000000000000e-01 -9.000000000000e+04 3.601056880734e-01 
3.500000000000e-01 -9.000000000000e+04 3.601056880734e-01 
4.000000000000e-01 -9.000000000000e+04 2.217008899083e-01 
4.500000000000e-01 -9.000000000000e+04 8.329609174312e-02 
5.000000000000e-01 -9.000000000000e+04 8.329609174312e-02 
5.500000000000e-01 -9.000000000000e+04 8.329609174312e-02 
6.000000000000e-01 -9.000000000000e+04 9.913826605505e-02 
6.500000000000e-01 -9.000000000000e+04 1.149804403670e-01 
7.000000000000e-01 -9.000000000000e+04 1.149804403670e-01 
7.500000000000e-01 -9.000000000000e+04 1.149804403670e-01 
8.000000000000e-01 -9.000000000000e+04 1.149804403670e-01 
8.500000000000e-01 -9.000000000000e+04 1.149804403670e-01 
9.000000000000e-01 -9.000000000000e+04 1.149804403670e-01 
9.500000000000e-01 -9.000000000000e+04 1.149804403670e-01 
1.000000000000e+00 -9.000000000000e+04 1.149804403670e-01 
1.050000000000e+00 -9.000000000000e+04 1.149804403670e-01 
1.100000000000e+00 -9.000000000000e+04 9.913826605505e-02 
1.150000000000e+00 -9.000000000000e+04 8.329609174312e-02 
1.200000000000e+00 -9.000000000000e+04 8.329609174312e-02 
1.250000000000e+00 -9.000000000000e+04 8.329609174312e-02 
1.300000000000e+00 -9.000000000000e+04 8.329609174312e-02 
1.350000000000e+00 -9.000000000000e+04 8.329609174312e-02 
1.400000000000e+00 -9.000000000000e+04 8.329609174312e-02 
1.450000000000e+00 -9.000000000000e+04 8.329609174312e-02 
1.500000000000e+00 -9.000000000000e+04 8.329609174312e-02 
1.550000000000e+00 -9.000000000000e+04 8.329609174312e-02 
1.600000000000e+00 -9.000000000000e+04 8.329609174312e-02 
1.650000000000e+00 -9.000000000000e+04 8.329609174312e-02 
1.700000000000e+00 -9.000000000000e+04 8.329609174312e-02 
1.750000000000e+00 -9.000000000000e+04 8.329609174312e-02 
1.800000000000e+00 -9.000000000000e+04 8.329609174312e-02 
1.850000000000e+00 -9.000000000000e+04 8.329609174312e-02 
1.900000000000e+00 -9.000000000000e+04 8.329609174312e-02 
1.950000000000e+00 -9.000000000000e+04 8.329609174312e-02 
2.000000000000e+00 -9.000000000000e+04 8.329609174312e-02 
 TITLE = "Profiles along polylines"
 VARIABLES = "DIST" "PRESSURE1" "SATURATION1" 
 ZONE T="TIME=5.000000000000e-01"
0.000000000000e+00 -8.354754724725e+04 3.774062495258e-01 
5.000000000000e-02 -8.759840227241e+04 3.719526837623e-01 
1.000000000000e-01 -8.914667060241e+04 3.644340807967e-01 
1.500000000000e-01 -8.970417704348e+04 3.616268864011e-01 
2.000000000000e-01 -8.990239685769e+04 3.606168851672e-01 
2.500000000000e-01 -8.997990204078e+04 3.602321266235e-01 
3.000000000000e-01 -9.003176961100e+04 3.600060267089e-01 
3.500000000000e-01 -9.012123592855e+04 3.596624414788e-01 
4.000000000000e-01 -9.035706920674e+04 2.212986762742e-01 
4.500000000000e-01 -9.005874263621e+04 8.322219757938e-02 
5.000000000000e-01 -9.001058041701e+04 8.328327439695e-02 
5.500000000000e-01 -9.000704760770e+04 8.328994591213e-02 
6.000000000000e-01 -9.003262873420e+04 9.911239872780e-02 
6.500000000000e-01 -9.000045664649e+04 1.149580968738e-01 
7.000000000000e-01 -9.000000639342e+04 1.149801276622e-01 
7.500000000000e-01 -9.000000008951e+04 1.149804359889e-01 
8.000000000000e-01 -9.000000000125e+04 1.149804403057e-01 
8.500000000000e-01 -9.000000000000e+04 1.149804403666e-01 
9.000000000000e-01 -8.999999999866e+04 1.149804403998e-01 
9.500000000000e-01 -8.999999990609e+04 1.149804426740e-01 
1.000000000000e+00 -8.999999340436e+04 1.149806023894e-01 
1.050000000000e+00 -8.999953678383e+04 1.149918150894e-01 
1.100000000000e+00 -8.996748061511e+04 9.915525586163e-02 
1.150000000000e+00 -8.999462974464e+04 8.330282019946e-02 
1.200000000000e+00 -8.999911354698e+04 8.329720277871e-02 
1.250000000000e+00 -8.999985368636e+04 8.329627513586e-02 
1.300000000000e+00 -8.999997585047e+04 8.329612201296e-02 
1.350000000000e+00 -8.999999601407e+04 8.329609673924e-02 
1.400000000000e+00 -8.999999934220e+04 8.329609256768e-02 
1.450000000000e+00 -8.999999989194e+04 8.329609187883e-02 
1.500000000000e+00 -8.999999998518e+04 8.329609176322e-02 
1.550000000000e+00 -9.000000001545e+04 8.329609173283e-02 
1.600000000000e+00 -9.000000010872e+04 8.329609166070e-02 
1.650000000000e+00 -9.000000064779e+04 8.329609125065e-02 
1.700000000000e+00 -9.000000384354e+04 8.329608882094e-02 
1.750000000000e+00 -9.000002280218e+04 8.329607440694e-02 
1.800000000000e+00 -9.000013527591e+04 8.329598889404e-02 
1.850000000000e+00 -9.000080254437e+04 8.329548155156e-02 
1.900000000000e+00 -9.000476151086e+04 8.329247061351e-02 
1.950000000000e+00 -9.002826061663e+04 8.327456933175e-02 
2.000000000000e+00 -9.016810484191e+04 8.325924482363e-02 
 TITLE = "Profiles along polylines"
 VARIABLES = "DIST" "PRESSURE1" "SATURATION1" 
 ZONE T="TIME=1.000000000000e+00"
0.000000000000e+00 -8.528551142426e+04 3.739818883529e-01 
5.000000000000e-02 -8.715214411195e+04 3.710657296098e-01 
1.000000000000e-01 -8.857896482431e+04 3.660927690549e-01 
1.500000000000e-01 -8.936479413785e+04 3.629323085218e-01 
2.000000000000e-01 -8.974603811843e+04 3.612906510347e-01 
2.500000000000e-01 -8.993552849259e+04 3.604631565068e-01 
3.000000000000e-01 -9.006880485611e+04 3.599233114284e-01 
3.500000000000e-01 -9.024524036705e+04 3.592890836752e-01 
4.000000000000e-01 -9.057163476136e+04 2.209957284590e-01 
4.500000000000e-01 -9.013595681428e+04 8.316622425610e-02 
5.000000000000e-01 -9.003225556972e+04 8.326419253590e-02 
5.500000000000e-01 -9.002024735660e+04 8.328065919913e-02 
6.000000000000e-01 -9.006290644341e+04 9.908715401741e-02 
6.500000000000e-01 -9.000132399005e+04 1.149369129070e-01 
7.000000000000e-01 -9.000002475211e+04 1.149795274075e-01 
7.500000000000e-01 -9.000000043357e+04 1.149804233287e-01 
8.000000000000e-01 -9.000000000729e+04 1.149804400689e-01 
8.500000000000e-01 -8.999999999999e+04 1.149804403647e-01 
9.000000000000e-01 -8.999999999224e+04 1.149804405270e-01 
9.500000000000e-01 -8.999999954596e+04 1.149804493713e-01 
1.000000000000e+00 -8.999997452449e+04 1.149809152324e-01 
1.050000000000e+00 -8.999866116886e+04 1.150027127587e-01 
1.100000000000e+00 -8.993764568525e+04 9.917146027799e-02 
1.150000000000e+00 -8.998586348109e+04 8.331004183167e-02 
1.200000000000e+00 -8.999703321399e+04 8.329918937717e-02 
1.250000000000e+00 -8.999940582183e+04 8.329673406348e-02 
1.300000000000e+00 -8.999988468378e+04 8.329621937879e-02 
1.350000000000e+00 -8.999997812060e+04 8.329611637740e-02 
1.400000000000e+00 -8.999999591984e+04 8.329609639728e-02 
1.450000000000e+00 -8.999999925389e+04 8.329609260495e-02 
1.500000000000e+00 -8.999999989081e+04 8.329609188206e-02 
1.550000000000e+00 -9.000000012582e+04 8.329609166360e-02 
1.600000000000e+00 -9.000000081047e+04 8.329609116456e-02 
1.650000000000e+00 -9.000000437100e+04 8.329608863256e-02 
1.700000000000e+00 -9.000002319121e+04 8.329607537080e-02 
1.750000000000e+00 -9.000012130212e+04 8.329600699095e-02 
1.800000000000e+00 -9.000062304301e+04 8.329566237189e-02 
1.850000000000e+00 -9.000312332983e+04 8.329397983947e-02 
1.900000000000e+00 -9.001513308537e+04 8.328614070834e-02 
1.950000000000e+00 -9.006968101832e+04 8.325227044674e-02 
2.000000000000e+00 -9.029497727375e+04 8.322484415716e-02 
 TITLE = "Profiles along polylines"
 VARIABLES = "DIST" "PRESSURE1" "SATURATION1" 
 ZONE T="TIME=5.000000000000e+00"
0.000000000000e+00 -1.221756297993e+04 7.456206375797e-01 
5.000000000000e-02 -1.335048931228e+04 7.390117780246e-01 
1.000000000000e-01 -1.576233594306e+04 7.199101951581e-01 
1.500000000000e-01 -1.978089489536e+04 6.857986802443e-01 
2.000000000000e-01 -2.726583391132e+04 6.354679144248e-01 
2.500000000000e-01 -3.812075914627e+04 5.722996956810e-01 
3.000000000000e-01 -5.125047125829e+04 5.087507658586e-01 
3.500000000000e-01 -6.172624269974e+04 4.654169207049e-01 
4.000000000000e-01 -6.597415476024e+04 2.719507113891e-01 
4.500000000000e-01 -8.056717423241e+04 8.982029896924e-02 
5.000000000000e-01 -8.680446446606e+04 8.570276939322e-02 
5.500000000000e-01 -8.910909663132e+04 8.403706028576e-02 
6.000000000000e-01 -9.002960095601e+04 9.925849938696e-02 
6.500000000000e-01 -9.001082031617e+04 1.149494053052e-01 
7.000000000000e-01 -9.000089133968e+04 1.149722682597e-01 
7.500000000000e-01 -9.000005658574e+04 1.149797846023e-01 
8.000000000000e-01 -9.000000321531e+04 1.149803992089e-01 
8.500000000000e-01 -8.999999992615e+04 1.149804398135e-01 
9.000000000000e-01 -8.999999544140e+04 1.149804721869e-01 
9.500000000000e-01 -8.999991892853e+04 1.149809783322e-01 
1.000000000000e+00 -8.999864798687e+04 1.149885928658e-01 
1.050000000000e+00 -8.997990542232e+04 1.150817782108e-01 
1.100000000000e+00 -8.976077334330e+04 9.928086080093e-02 
1.150000000000e+00 -8.988222480582e+04 8.336872438885e-02 
1.200000000000e+00 -8.994621308114e+04 8.333054783129e-02 
1.250000000000e+00 -8.997680895132e+04 8.331140649763e-02 
1.300000000000e+00 -8.999042346684e+04 8.330256604974e-02 
1.350000000000e+00 -8.999617440134e+04 8.329872516405e-02 
1.400000000000e+00 -8.999852215749e+04 8.329712556198e-02 
1.450000000000e+00 -8.999947999826e+04 8.329646788564e-02 
1.500000000000e+00 -8.999992961258e+04 8.329616931224e-02 
1.550000000000e+00 -9.000030541251e+04 8.329594830473e-02 
1.600000000000e+00 -9.000097339462e+04 8.329559193048e-02 
1.650000000000e+00 -9.000256290359e+04 8.329476786471e-02 
1.700000000000e+00 -9.000650574677e+04 8.329274599460e-02 
1.750000000000e+00 -9.001614963578e+04 8.328785000432e-02 
1.800000000000e+00 -9.003902612359e+04 8.327637912798e-02 
1.850000000000e+00 -9.009096632307e+04 8.325073682686e-02 
1.900000000000e+00 -9.020203378057e+04 8.319692509733e-02 
1.950000000000e+00 -9.042104480305e+04 8.309304111507e-02 
2.000000000000e+00 -9.080847123521e+04 8.302533919410e-02 
 TITLE = "Profiles along polylines"
 VARIABLES = "DIST" "PRESSURE1" "SATURATION1" 
 ZONE T="TIME=1.000000000000e+01"
0.000000000000e+00 -2.415262662417e+04 6.455885561610e-01 
5.000000000000e-02 -2.492659835860e+04 6.425138437756e-01 
1.000000000000e-01 -2.627583804490e+04 6.348757491256e-01 
1.500000000000e-01 -2.819150754948e+04 6.241335079368e-01 
2.000000000000e-01 -3.060776589543e+04 6.104540735470e-01 
2.500000000000e-01 -3.335926690265e+04 5.947314836431e-01 
3.000000000000e-01 -3.616974740800e+04 5.785425756722e-01 
3.500000000000e-01 -3.860430984817e+04 5.642716977446e-01 
4.000000000000e-01 -4.010929978682e+04 3.339247609552e-01 
4.500000000000e-01 -5.405037714264e+04 1.042876730694e-01 
5.000000000000e-01 -6.803338464003e+04 9.559916513907e-02 
5.500000000000e-01 -7.779517678812e+04 9.032929167081e-02 
6.000000000000e-01 -8.479615761303e+04 1.052040404099e-01 
6.500000000000e-01 -8.956147870473e+04 1.189224660899e-01 
7.000000000000e-01 -8.996715678824e+04 1.153083539813e-01 
7.500000000000e-01 -8.999765304253e+04 1.150048818983e-01 
8.000000000000e-01 -8.999983662810e+04 1.149821843353e-01 
8.500000000000e-01 -8.999998308755e+04 1.149805896677e-01 
9.000000000000e-01 -8.999993222973e+04 1.149807610982e-01 
9.500000000000e-01 -8.999928063623e+04 1.149835584954e-01 
1.000000000000e+00 -8.999299460459e+04 1.150077322638e-01 
1.050000000000e+00 -8.994106375384e+04 1.151751246867e-01 
1.100000000000e+00 -8.961022292494e+04 9.939210318793e-02 
1.150000000000e+00 -8.976010853326e+04 8.343057923509e-02 
1.200000000000e+00 -8.985950409574e+04 8.337647242486e-02 
1.250000000000e+00 -8.992123772575e+04 8.334200124996e-02 
1.300000000000e+00 -8.995753184761e+04 8.332126727434e-02 
1.350000000000e+00 -8.997797901646e+04 8.330935897174e-02 
1.400000000000e+00 -8.998923998020e+04 8.330271048803e-02 
1.450000000000e+00 -8.999562368244e+04 8.329894052092e-02 
1.500000000000e+00 -8.999991557162e+04 8.329648775841e-02 
1.550000000000e+00 -9.000417754593e+04 8.329421694117e-02 
1.600000000000e+00 -9.001049454256e+04 8.329103866446e-02 
1.650000000000e+00 -9.002177040506e+04 8.328550993914e-02 
1.700000000000e+00 -9.004271722025e+04 8.327535427479e-02 
1.750000000000e+00 -9.008114690806e+04 8.325685473240e-02 
1.800000000000e+00 -9.014951791909e+04 8.322414677726e-02 
1.850000000000e+00 -9.026633377776e+04 8.316859900995e-02 
1.900000000000e+00 -9.045640442984e+04 8.307872000660e-02 
1.950000000000e+00 -9.074840095365e+04 8.294124867083e-02 
2.000000000000e+00 -9.116837473117e+04 8.285890496976e-02 
 TITLE = "Profiles along polylines"
 VARIABLES = "DIST" "PRESSURE1" "SATURATION1" 
 ZONE T="TIME=2.000000000000e+01"
0.000000000000e+00 -1.789272964969e+04 6.965373001561e-01 
5.000000000000e-02 -1.937055785316e+04 6.902273565035e-01 
1.000000000000e-01 -2.088103039514e+04 6.774329556581e-01 
1.500000000000e-01 -2.244973358400e+04 6.641688721344e-01 
2.000000000000e-01 -2.411089389503e+04 6.505225479505e-01 
2.500000000000e-01 -2.582749615469e+04 6.386968492376e-01 
3.000000000000e-01 -2.735639671157e+04 6.294496566801e-01 
3.500000000000e-01 -2.863449247416e+04 6.216739281786e-01 
4.000000000000e-01 -2.960463582389e+04 3.728374394347e-01 
4.500000000000e-01 -3.664650025669e+04 1.224052028460e-01 
5.000000000000e-01 -4.425477429242e+04 1.115655955910e-01 
5.500000000000e-01 -5.517550530100e+04 1.022718270223e-01 
6.000000000000e-01 -6.553413841647e+04 1.252073174642e-01 
6.500000000000e-01 -8.420778051459e+04 1.376117154273e-01 
7.000000000000e-01 -8.881634390438e+04 1.201320945336e-01 
7.500000000000e-01 -8.977190536034e+04 1.160182277511e-01 
8.000000000000e-01 -8.995665845927e+04 1.151798441609e-01 
8.500000000000e-01 -8.999154266238e+04 1.150190012616e-01 
9.000000000000e-01 -8.999705700663e+04 1.149915316743e-01 
9.500000000000e-01 -8.999266664451e+04 1.150012629600e-01 
1.000000000000e+00 -8.996578795095e+04 1.150711596957e-01 
1.050000000000e+00 -8.984675547009e+04 1.153548875577e-01 
1.100000000000e+00 -8.941146391543e+04 9.956946064795e-02 
1.150000000000e+00 -8.957893200246e+04 8.352027396221e-02 
1.200000000000e+00 -8.970695827795e+04 8.345353212747e-02 
1.250000000000e+00 -8.980168600522e+04 8.340360004511e-02 
1.300000000000e+00 -8.987024188074e+04 8.336714370359e-02 
1.350000000000e+00 -8.991960886961e+04 8.334076346907e-02 
1.400000000000e+00 -8.995603435799e+04 8.332133379311e-02 
1.450000000000e+00 -8.998491817464e+04 8.330611004690e-02 
1.500000000000e+00 -9.001102965586e+04 8.329265985237e-02 
1.550000000000e+00 -9.003891764637e+04 8.327868428127e-02 
1.600000000000e+00 -9.007342637797e+04 8.326177669692e-02 
1.650000000000e+00 -9.012026812767e+04 8.323914900939e-02 
1.700000000000e+00 -9.018661109111e+04 8.320734943510e-02 
1.750000000000e+00 -9.028161163171e+04 8.316200712975e-02 
1.800000000000e+00 -9.041675532278e+04 8.309766673795e-02 
1.850000000000e+00 -9.060578655829e+04 8.300781212818e-02 
1.900000000000e+00 -9.086394825102e+04 8.288520178662e-02 
1.950000000000e+00 -9.120631426223e+04 8.272260790482e-02 
2.000000000000e+00 -9.164530146904e+04 8.263044230932e-02 
 TITLE = "Profiles along polylines"
 VARIABLES = "DIST" "PRESSURE1" "SATURATION1" 
 ZONE T="TIME=3.000000000000e+01"
0.000000000000e+00 -1.690189011896e+04 7.063256297628e-01 
5.000000000000e-02 -1.788818520316e+04 7.021241813196e-01 
1.000000000000e-01 -1.888934750432e+04 6.936664900669e-01 
1.500000000000e-01 -1.989955839700e+04 6.851276569277e-01 
2.000000000000e-01 -2.091032067618e+04 6.765793640685e-01 
2.500000000000e-01 -2.190802712895e+04 6.681328995616e-01 
3.000000000000e-01 -2.287172497367e+04 6.599523237473e-01 
3.500000000000e-01 -2.377536635060e+04 6.522524785905e-01 
4.000000000000e-01 -2.458693693360e+04 3.919161918740e-01 
4.500000000000e-01 -3.005759449902e+04 1.314410993590e-01 
5.000000000000e-01 -3.549782627457e+04 1.236799364724e-01 
5.500000000000e-01 -4.135518242568e+04 1.153304903269e-01 
6.000000000000e-01 -4.853241002188e+04 1.451490697721e-01 
6.500000000000e-01 -7.688548045233e+04 1.571823216572e-01 
7.000000000000e-01 -8.642233164663e+04 1.276617150541e-01 
7.500000000000e-01 -8.914335885252e+04 1.183061985887e-01 
8.000000000000e-01 -8.980702979122e+04 1.157635004297e-01 
8.500000000000e-01 -8.995691489786e+04 1.151577173465e-01 
9.000000000000e-01 -8.998651209660e+04 1.150297298081e-01 
9.500000000000e-01 -8.997964065791e+04 1.150339504193e-01 
1.000000000000e+00 -8.992847367404e+04 1.151493960803e-01 
1.050000000000e+00 -8.975143010058e+04 1.155275163227e-01 
1.100000000000e+00 -8.925724707127e+04 9.972226774309e-02 
1.150000000000e+00 -8.943421234253e+04 8.359165416065e-02 
1.200000000000e+00 -8.957925546180e+04 8.351736020570e-02 
1.250000000000e+00 -8.969601671246e+04 8.345719195159e-02 
1.300000000000e+00 -8.978924176636e+04 8.340894845690e-02 
1.350000000000e+00 -8.986424778588e+04 8.337009152400e-02 
1.400000000000e+00 -8.992653864475e+04 8.333794311602e-02 
1.450000000000e+00 -8.998162007720e+04 8.330979377600e-02 
1.500000000000e+00 -9.003500189902e+04 8.328292059435e-02 
1.550000000000e+00 -9.009234198024e+04 8.325453257296e-02 
1.600000000000e+00 -9.015967602715e+04 8.322166933400e-02 
1.650000000000e+00 -9.024367527289e+04 8.318108155944e-02 
1.700000000000e+00 -9.035187157009e+04 8.312912304174e-02 
1.750000000000e+00 -9.049278289270e+04 8.306168684473e-02 
1.800000000000e+00 -9.067586499655e+04 8.297422080737e-02 
1.850000000000e+00 -9.091121640574e+04 8.286185641281e-02 
1.900000000000e+00 -9.120898891093e+04 8.271967335866e-02 
1.950000000000e+00 -9.157852035580e+04 8.254309322234e-02 
2.000000000000e+00 -9.202731555870e+04 8.244566706318e-02 
 TITLE = "Profiles along polylines"
 VARIABLES = "DIST" "PRESSURE1" "SATURATION1" 
 ZONE T="TIME=4.000000000000e+01"
0.000000000000e+00 -1.915971127415e+04 6.885258270947e-01 
5.000000000000e-02 -1.967182370713e+04 6.863032161497e-01 
1.000000000000e-01 -2.022074554900e+04 6.817098455393e-01 
1.500000000000e-01 -2.080090708300e+04 6.768438053787e-01 
2.000000000000e-01 -2.140672410572e+04 6.717526003338e-01 
2.500000000000e-01 -2.203246522865e+04 6.664846625332e-01 
3.000000000000e-01 -2.267221314077e+04 6.610896688456e-01 
3.500000000000e-01 -2.332002165177e+04 6.556174102557e-01 
4.000000000000e-01 -2.397032228347e+04 3.948660761411e-01 
4.500000000000e-01 -2.791092766589e+04 1.340726954089e-01 
5.000000000000e-01 -3.194119327970e+04 1.284135639408e-01 
5.500000000000e-01 -3.611851129870e+04 1.225537377942e-01 
6.000000000000e-01 -4.053178008062e+04 1.640473740739e-01 
6.500000000000e-01 -6.827951066434e+04 1.787382240441e-01 
7.000000000000e-01 -8.279799499890e+04 1.374767629282e-01 
7.500000000000e-01 -8.795741755534e+04 1.220416765452e-01 
8.000000000000e-01 -8.947341143148e+04 1.169239836072e-01 
8.500000000000e-01 -8.986880583718e+04 1.154790443116e-01 
9.000000000000e-01 -8.995979982550e+04 1.151228606823e-01 
9.500000000000e-01 -8.995825638198e+04 1.150883346811e-01 
1.000000000000e+00 -8.988386377739e+04 1.152394257730e-01 
1.050000000000e+00 -8.965953761883e+04 1.156919246070e-01 
1.100000000000e+00 -8.913183830218e+04 9.985621086475e-02 
1.150000000000e+00 -8.931602721272e+04 8.364995915832e-02 
1.200000000000e+00 -8.947375090097e+04 8.356995102113e-02 
1.250000000000e+00 -8.960769272584e+04 8.350178583716e-02 
1.300000000000e+00 -8.972151663686e+04 8.344376139326e-02 
1.350000000000e+00 -8.981961812033e+04 8.339379256768e-02 
1.400000000000e+00 -8.990690544391e+04 8.334951815932e-02 
1.450000000000e+00 -8.998865152543e+04 8.330837861640e-02 
1.500000000000e+00 -9.007042813910e+04 8.326765611442e-02 
1.550000000000e+00 -9.015811091302e+04 8.322448010360e-02 
1.600000000000e+00 -9.025792828784e+04 8.317580970252e-02 
1.650000000000e+00 -9.037651930884e+04 8.311840912224e-02 
1.700000000000e+00 -9.052096197166e+04 8.304883435465e-02 
1.750000000000e+00 -9.069873490166e+04 8.296344913245e-02 
1.800000000000e+00 -9.091758103437e+04 8.285848551321e-02 
1.850000000000e+00 -9.118525454993e+04 8.273015863338e-02 
1.900000000000e+00 -9.150915358363e+04 8.257483541795e-02 
1.950000000000e+00 -9.189587125032e+04 8.238924335778e-02 
2.000000000000e+00 -9.235073165474e+04 8.228850056974e-02 
 TITLE = "Profiles along polylines"
 VARIABLES = "DIST" "PRESSURE1" "SATURATION1" 
 ZONE T="TIME=5.000000000000e+01"
0.000000000000e+00 -1.901140362719e+04 6.895950206408e-01 
5.000000000000e-02 -1.959005557081e+04 6.871376730989e-01 
1.000000000000e-01 -2.017204312555e+04 6.822072163930e-01 
1.500000000000e-01 -2.075851541137e+04 6.772408867936e-01 
2.000000000000e-01 -2.135025283620e+04 6.722314455326e-01 
2.500000000000e-01 -2.194773947999e+04 6.671742507748e-01 
3.000000000000e-01 -2.255124774184e+04 6.620665420078e-01 
3.500000000000e-01 -2.316094613365e+04 6.569065396343e-01 
4.000000000000e-01 -2.377704390671e+04 3.965918192294e-01 
4.500000000000e-01 -2.671644633297e+04 1.360642379743e-01 
5.000000000000e-01 -3.011246699723e+04 1.308393910312e-01 
5.500000000000e-01 -3.364187204037e+04 1.258848866253e-01 
6.000000000000e-01 -3.740407196144e+04 1.803156421185e-01 
6.500000000000e-01 -6.063800303047e+04 1.996511528100e-01 
7.000000000000e-01 -7.858203399258e+04 1.474243087178e-01 
7.500000000000e-01 -8.622228359878e+04 1.268079884307e-01 
8.000000000000e-01 -8.889641903260e+04 1.187259756768e-01 
8.500000000000e-01 -8.969606665272e+04 1.160580648370e-01 
9.000000000000e-01 -8.990522032110e+04 1.153046158644e-01 
9.500000000000e-01 -8.992543453348e+04 1.151748440932e-01 
1.000000000000e+00 -8.983349595203e+04 1.153412124965e-01 
1.050000000000e+00 -8.957273170616e+04 1.158480245382e-01 
1.100000000000e+00 -8.902746323904e+04 9.997454317742e-02 
1.150000000000e+00 -8.921852406552e+04 8.369815774738e-02 
1.200000000000e+00 -8.938735429350e+04 8.361306141380e-02 
1.250000000000e+00 -8.953626996113e+04 8.353788663297e-02 
1.300000000000e+00 -8.966842302925e+04 8.347116088745e-02 
1.350000000000e+00 -8.978767905132e+04 8.341105097170e-02 
1.400000000000e+00 -8.989848860914e+04 8.335542387355e-02 
1.450000000000e+00 -9.000577537450e+04 8.330190229839e-02 
1.500000000000e+00 -9.011485208058e+04 8.324790836463e-02 
1.550000000000e+00 -9.023136373137e+04 8.319069462879e-02 
1.600000000000e+00 -9.036124776124e+04 8.312736641821e-02 
1.650000000000e+00 -9.051069484805e+04 8.305490267763e-02 
1.700000000000e+00 -9.068609198462e+04 8.297018389893e-02 
1.750000000000e+00 -9.089393110806e+04 8.287003519755e-02 
1.800000000000e+00 -9.114067186393e+04 8.275129032123e-02 
1.850000000000e+00 -9.143255563573e+04 8.261087849143e-02 
1.900000000000e+00 -9.177537912263e+04 8.244593082406e-02 
1.950000000000e+00 -9.217424802473e+04 8.225389734142e-02 
2.000000000000e+00 -9.263334217549e+04 8.215081405998e-02 
 TITLE = "Profiles along polylines"
 VARIABLES = "DIST" "PRESSURE1" "SATURATION1" 
 ZONE T="TIME=6.000000000000e+01"
0.000000000000e+00 4.034245840986e+04 1.000000000000e+00 
5.000000000000e-02 3.414176088278e+04 1.000000000000e+00 
1.000000000000e-01 2.853020073355e+04 1.000000000000e+00 
1.500000000000e-01 2.346156558059e+04 1.000000000000e+00 
2.000000000000e-01 1.889548831288e+04 1.000000000000e+00 
2.500000000000e-01 1.479718518374e+04 1.000000000000e+00 
3.000000000000e-01 1.113728735773e+04 1.000000000000e+00 
3.500000000000e-01 7.891773043450e+03 1.000000000000e+00 
4.000000000000e-01 5.042011971983e+03 1.000000000000e+00 
4.500000000000e-01 1.693886285193e+02 9.755109341433e-01 
5.000000000000e-01 -4.176056386420e+03 8.702201052788e-01 
5.500000000000e-01 -7.993593454125e+03 6.112985750943e-01 
6.000000000000e-01 -1.125624261398e+04 5.495572344583e-01 
6.500000000000e-01 -1.797607126964e+04 5.083214308810e-01 
7.000000000000e-01 -5.403623787434e+04 2.605204466668e-01 
7.500000000000e-01 -7.938900674343e+04 1.507553655784e-01 
8.000000000000e-01 -8.707086345400e+04 1.253053939002e-01 
8.500000000000e-01 -8.921784103758e+04 1.178079873057e-01 
9.000000000000e-01 -8.977230840743e+04 1.157776976757e-01 
9.500000000000e-01 -8.986977499396e+04 1.153391578348e-01 
1.000000000000e+00 -8.977627433978e+04 1.154635027935e-01 
1.050000000000e+00 -8.949101582863e+04 1.159980637136e-01 
1.100000000000e+00 -8.893960031091e+04 1.000798390412e-01 
1.150000000000e+00 -8.913781574294e+04 8.373818117273e-02 
1.200000000000e+00 -8.931722375700e+04 8.364817167432e-02 
1.250000000000e+00 -8.948000009534e+04 8.356646733806e-02 
1.300000000000e+00 -8.962902648989e+04 8.349171341143e-02 
1.350000000000e+00 -8.976782393634e+04 8.342223645833e-02 
1.400000000000e+00 -8.990046917565e+04 8.335608307175e-02 
1.450000000000e+00 -9.003150670094e+04 8.329106215534e-02 
1.500000000000e+00 -9.016586426045e+04 8.322478658014e-02 
1.550000000000e+00 -9.030877443924e+04 8.315471246400e-02 
1.600000000000e+00 -9.046569999859e+04 8.307817668682e-02 
1.650000000000e+00 -9.064225729311e+04 8.299243499068e-02 
1.700000000000e+00 -9.084413080977e+04 8.289470380429e-02 
1.750000000000e+00 -9.107697277557e+04 8.278220868517e-02 
1.800000000000e+00 -9.134628463056e+04 8.265224106955e-02 
1.850000000000e+00 -9.165728147658e+04 8.250222307633e-02 
1.900000000000e+00 -9.201474566938e+04 8.232977776175e-02 
1.950000000000e+00 -9.242288057217e+04 8.213279991030e-02 
2.000000000000e+00 -9.288517900034e+04 8.202793385517e-02 
 TITLE = "Profiles along polylines"
 VARIABLES = "DIST" "PRESSURE1" "SATURATION1" 
 ZONE T="TIME=7.000000000000e+01"
0.000000000000e+00 4.237587671759e+03 1.000000000000e+00 
5.000000000000e-02 3.742395875331e+03 1.000000000000e+00 
1.000000000000e-01 3.244747097709e+03 1.000000000000e+00 
1.500000000000e-01 2.744750560556e+03 1.000000000000e+00 
2.000000000000e-01 2.242509623821e+03 1.000000000000e+00 
2.500000000000e-01 1.738122168838e+03 1.000000000000e+00 
3.000000000000e-01 1.231680970745e+03 1.000000000000e+00 
3.500000000000e-01 7.232740604469e+02 1.000000000000e+00 
4.000000000000e-01 2.129850765928e+02 9.990912211575e-01 
4.500000000000e-01 -2.786729686045e+02 9.881969331613e-01 
5.000000000000e-01 -7.709285500238e+02 9.667534839875e-01 
5.500000000000e-01 -1.264596223363e+03 9.503557000325e-01 
6.000000000000e-01 -1.759770542075e+03 9.384927604772e-01 
6.500000000000e-01 -2.278439960254e+03 9.251905820812e-01 
7.000000000000e-01 -2.818787452875e+03 9.119688482179e-01 
7.500000000000e-01 -3.408449303609e+03 8.972196531519e-01 
8.000000000000e-01 -4.039360452692e+03 8.806931978431e-01 
8.500000000000e-01 -4.731247294264e+03 8.627270578321e-01 
9.000000000000e-01 -5.535927586488e+03 8.450326720495e-01 
9.500000000000e-01 -6.413425800114e+03 8.274379173447e-01 
1.000000000000e+00 -7.415992579145e+03 8.070131354138e-01 
1.050000000000e+00 -8.744468975848e+03 7.016077562213e-01 
1.100000000000e+00 -3.084790669268e+04 3.629365006465e-01 
1.150000000000e+00 -5.335446593193e+04 1.083510063974e-01 
1.200000000000e+00 -7.237555126806e+04 9.431575897529e-02 
1.250000000000e+00 -8.180829259746e+04 8.850071798256e-02 
1.300000000000e+00 -8.636716731145e+04 8.566126336749e-02 
1.350000000000e+00 -8.844480917314e+04 8.432477931666e-02 
1.400000000000e+00 -8.938907392970e+04 8.371314272575e-02 
1.450000000000e+00 -8.985831007640e+04 8.341962607133e-02 
1.500000000000e+00 -9.014074274191e+04 8.325542500554e-02 
1.550000000000e+00 -9.035697649803e+04 8.313940479246e-02 
1.600000000000e+00 -9.055797401788e+04 8.303734832615e-02 
1.650000000000e+00 -9.076682656659e+04 8.293422440077e-02 
1.700000000000e+00 -9.099560138262e+04 8.282264831187e-02 
1.750000000000e+00 -9.125195144449e+04 8.269828424973e-02 
1.800000000000e+00 -9.154164723909e+04 8.255806188995e-02 
1.850000000000e+00 -9.186950595258e+04 8.239950734806e-02 
1.900000000000e+00 -9.223969762626e+04 8.222050968714e-02 
1.950000000000e+00 -9.265581513797e+04 8.201925446489e-02 
2.000000000000e+00 -9.312086216662e+04 8.191285353328e-02 
 TITLE = "Profiles along polylines"
 VARIABLES = "DIST" "PRESSURE1" "SATURATION1" 
 ZONE T="TIME=8.000000000000e+01"
0.000000000000e+00 2.258774442391e+03 1.000000000000e+00 
5.000000000000e-02 1.767756073777e+03 1.000000000000e+00 
1.000000000000e-01 1.275703154473e+03 1.000000000000e+00 
1.500000000000e-01 7.826186162524e+02 1.000000000000e+00 
2.000000000000e-01 2.885060804415e+02 9.995203695282e-01 
2.500000000000e-01 -2.066301943388e+02 9.912421769704e-01 
3.000000000000e-01 -7.027853612224e+02 9.724585439090e-01 
3.500000000000e-01 -1.201910002515e+03 9.514478447829e-01 
4.000000000000e-01 -1.712446508004e+03 9.401567831648e-01 
4.500000000000e-01 -2.204349638299e+03 9.338643132883e-01 
5.000000000000e-01 -2.696917504324e+03 9.232553946037e-01 
5.500000000000e-01 -3.190367974805e+03 9.099219126255e-01 
6.000000000000e-01 -3.684934518427e+03 8.925152562886e-01 
6.500000000000e-01 -4.217668328764e+03 8.757573290883e-01 
7.000000000000e-01 -4.762071460902e+03 8.615672221920e-01 
7.500000000000e-01 -5.325450827632e+03 8.486410334684e-01 
8.000000000000e-01 -5.922174851311e+03 8.367123677705e-01 
8.500000000000e-01 -6.544829338959e+03 8.242796362337e-01 
9.000000000000e-01 -7.191164668355e+03 8.113263592069e-01 
9.500000000000e-01 -7.869836033944e+03 7.977295605479e-01 
1.000000000000e+00 -8.596051612105e+03 7.831593932141e-01 
1.050000000000e+00 -9.405244999139e+03 7.620822215708e-01 
1.100000000000e+00 -1.159433545398e+04 5.269626191770e-01 
1.150000000000e+00 -1.466750045542e+04 2.846555756841e-01 
1.200000000000e+00 -1.734645158136e+04 2.416793518674e-01 
1.250000000000e+00 -2.150268733566e+04 1.817506891116e-01 
1.300000000000e+00 -3.245273960982e+04 1.322588115865e-01 
1.350000000000e+00 -4.607395093616e+04 1.116593295476e-01 
1.400000000000e+00 -5.915835278263e+04 9.992595629399e-02 
1.450000000000e+00 -6.854628758516e+04 9.483112141491e-02 
1.500000000000e+00 -7.540480816407e+04 9.119535482155e-02 
1.550000000000e+00 -8.038207466079e+04 8.855329087728e-02 
1.600000000000e+00 -8.394631789711e+04 8.665263607501e-02 
1.650000000000e+00 -8.647258690030e+04 8.529952365250e-02 