 TITLE = "Profiles along polylines"
 VARIABLES = "DIST" "PRESSURE1" "SATURATION1" 
 ZONE T="TIME=0.000000000000e+00"
0.000000000000e+00 -9.000000000000e+04 3.601056880734e-01 
5.000000000000e-02 -9.000000000000e+04 3.601056880734e-01 
1.000000000000e-01 -9.000000000000e+04 3.601056880734e-01 
1.500000000000e-01 -9.000000000000e+04 3.601056880734e-01 
2.000000000000e-01 -9.000000000000e+04 3.601056880734e-01 
2.500000000000e-01 -9.000000000000e+04 3.601056880734e-01 
3.000000000000e-01 -9.000000000000e+04 3.601056880734e-01 
3.500000000000e-01 -9.000000000000e+04 3.601056880734e-01 
4.000000000000e-01 -9.000000000000e+04 3.601056880734e-01 
4.500000000000e-01 -9.000000000000e+04 3.601056880734e-01 
5.000000000000e-01 -9.000000000000e+04 3.601056880734e-01 
5.500000000000e-01 -9.000000000000e+04 3.601056880734e-01 
6.000000000000e-01 -9.000000000000e+04 3.601056880734e-01 
6.500000000000e-01 -9.000000000000e+04 3.601056880734e-01 
7.000000000000e-01 -9.000000000000e+04 3.601056880734e-01 
7.500000000000e-01 -9.000000000000e+04 2.217008899083e-01 
8.000000000000e-01 -9.000000000000e+04 8.329609174312e-02 
8.500000000000e-01 -9.000000000000e+04 8.329609174312e-02 
9.000000000000e-01 -9.000000000000e+04 8.329609174312e-02 
9.500000000000e-01 -9.000000000000e+04 8.329609174312e-02 
1.000000000000e+00 -9.000000000000e+04 8.329609174312e-02 
1.050000000000e+00 -9.000000000000e+04 8.329609174312e-02 
1.100000000000e+00 -9.000000000000e+04 8.329609174312e-02 
1.150000000000e+00 -9.000000000000e+04 8.329609174312e-02 
1.200000000000e+00 -9.000000000000e+04 8.329609174312e-02 
1.250000000000e+00 -9.000000000000e+04 8.329609174312e-02 
1.300000000000e+00 -9.000000000000e+04 8.329609174312e-02 
1.350000000000e+00 -9.000000000000e+04 8.329609174312e-02 
1.400000000000e+00 -9.000000000000e+04 8.329609174312e-02 
1.450000000000e+00 -9.000000000000e+04 8.329609174312e-02 
1.500000000000e+00 -9.000000000000e+04 8.329609174312e-02 
1.550000000000e+00 -9.000000000000e+04 8.329609174312e-02 
1.600000000000e+00 -9.000000000000e+04 8.329609174312e-02 
1.650000000000e+00 -9.000000000000e+04 8.329609174312e-02 
1.700000000000e+00 -9.000000000000e+04 8.329609174312e-02 
1.750000000000e+00 -9.000000000000e+04 8.329609174312e-02 
1.800000000000e+00 -9.000000000000e+04 8.329609174312e-02 
1.850000000000e+00 -9.000000000000e+04 8.329609174312e-02 
1.900000000000e+00 -9.000000000000e+04 8.329609174312e-02 
1.950000000000e+00 -9.000000000000e+04 8.329609174312e-02 
2.000000000000e+00 -9.000000000000e+04 8.329609174312e-02 
 TITLE = "Profiles along polylines"
 VARIABLES = "DIST" "PRESSURE1" "SATURATION1" 
 ZONE T="TIME=5.000000000000e-01"
0.000000000000e+00 -8.361924651779e+04 3.772121614085e-01 
5.000000000000e-02 -8.762672130270e+04 3.718180863620e-01 
1.000000000000e-01 -8.915648244817e+04 3.643844173887e-01 
1.500000000000e-01 -8.970598187850e+04 3.616150707780e-01 
2.000000000000e-01 -8.989826617585e+04 3.606303276312e-01 
2.500000000000e-01 -8.996489823816e+04 3.602870128441e-01 
3.000000000000e-01 -8.998792228431e+04 3.601681507813e-01 
3.500000000000e-01 -8.999591012586e+04 3.601269519672e-01 
4.000000000000e-01 -8.999879900795e+04 3.601122455039e-01 
4.500000000000e-01 -9.000017947890e+04 3.601057525248e-01 
5.000000000000e-01 -9.000174950197e+04 3.600994657421e-01 
5.500000000000e-01 -9.000540283037e+04 3.600857822828e-01 
6.000000000000e-01 -9.001551541358e+04 3.600482969955e-01 
6.500000000000e-01 -9.004420049286e+04 3.599420472228e-01 
7.000000000000e-01 -9.012592699156e+04 3.596388753854e-01 
7.500000000000e-01 -9.035983399722e+04 2.212913339745e-01 
8.000000000000e-01 -9.005903638912e+04 8.322174121442e-02 
8.500000000000e-01 -9.000973375853e+04 8.328388083335e-02 
9.000000000000e-01 -9.000160616588e+04 8.329407810384e-02 
9.500000000000e-01 -9.000026506825e+04 8.329575946365e-02 
1.000000000000e+00 -9.000004374561e+04 8.329603690623e-02 
1.050000000000e+00 -9.000000721960e+04 8.329608269309e-02 
1.100000000000e+00 -9.000000119149e+04 8.329609024954e-02 
1.150000000000e+00 -9.000000019664e+04 8.329609149662e-02 
1.200000000000e+00 -9.000000003245e+04 8.329609170244e-02 
1.250000000000e+00 -9.000000000536e+04 8.329609173641e-02 
1.300000000000e+00 -9.000000000089e+04 8.329609174201e-02 
1.350000000000e+00 -9.000000000016e+04 8.329609174293e-02 
1.400000000000e+00 -9.000000000011e+04 8.329609174302e-02 
1.450000000000e+00 -9.000000000053e+04 8.329609174272e-02 
1.500000000000e+00 -9.000000000310e+04 8.329609174076e-02 
1.550000000000e+00 -9.000000001839e+04 8.329609172914e-02 
1.600000000000e+00 -9.000000010911e+04 8.329609166016e-02 
1.650000000000e+00 -9.000000064734e+04 8.329609125092e-02 
1.700000000000e+00 -9.000000384080e+04 8.329608882284e-02 
1.750000000000e+00 -9.000002278815e+04 8.329607441654e-02 
1.800000000000e+00 -9.000013520640e+04 8.329598894058e-02 
1.850000000000e+00 -9.000080221356e+04 8.329548176565e-02 
1.900000000000e+00 -9.000476003200e+04 8.329247151613e-02 
1.950000000000e+00 -9.002825470979e+04 8.327457251052e-02 
2.000000000000e+00 -9.016808676343e+04 8.325924972704e-02 
 TITLE = "Profiles along polylines"
 VARIABLES = "DIST" "PRESSURE1" "SATURATION1" 
 ZONE T="TIME=1.000000000000e+00"
0.000000000000e+00 -8.530173524570e+04 3.739242223670e-01 
5.000000000000e-02 -8.717071588845e+04 3.710106541841e-01 
1.000000000000e-01 -8.858825674481e+04 3.660568227465e-01 
1.500000000000e-01 -8.936338111586e+04 3.629334175076e-01 
2.000000000000e-01 -8.972973101468e+04 3.613458400012e-01 
2.500000000000e-01 -8.988962004680e+04 3.606230574201e-01 
3.000000000000e-01 -8.995620284993e+04 3.603141532830e-01 
3.500000000000e-01 -8.998327622927e+04 3.601866142554e-01 
4.000000000000e-01 -8.999456830973e+04 3.601335012867e-01 
4.500000000000e-01 -9.000052767322e+04 3.601070949362e-01 
5.000000000000e-01 -9.000679094455e+04 3.600828255707e-01 
5.500000000000e-01 -9.001902657300e+04 3.600389058830e-01 
6.000000000000e-01 -9.004750817687e+04 3.599390811208e-01 
6.500000000000e-01 -9.011423008043e+04 3.597085548708e-01 
7.000000000000e-01 -9.026501287051e+04 3.591969971820e-01 
7.500000000000e-01 -9.058441205823e+04 2.209639178601e-01 
8.000000000000e-01 -9.013772899474e+04 8.316390745533e-02 
8.500000000000e-01 -9.002963178173e+04 8.326571310585e-02 
9.000000000000e-01 -9.000603497209e+04 8.328964890194e-02 
9.500000000000e-01 -9.000118517675e+04 8.329479156314e-02 
1.000000000000e+00 -9.000022683182e+04 8.329583802430e-02 
1.050000000000e+00 -9.000004259079e+04 8.329604340841e-02 
1.100000000000e+00 -9.000000787985e+04 8.329608269961e-02 
1.150000000000e+00 -9.000000144088e+04 8.329609007459e-02 
1.200000000000e+00 -9.000000026097e+04 8.329609143870e-02 
1.250000000000e+00 -9.000000004690e+04 8.329609168808e-02 
1.300000000000e+00 -9.000000000840e+04 8.329609173322e-02 
1.350000000000e+00 -9.000000000165e+04 8.329609174124e-02 
1.400000000000e+00 -9.000000000117e+04 8.329609174215e-02 
1.450000000000e+00 -9.000000000506e+04 8.329609173942e-02 
1.500000000000e+00 -9.000000002756e+04 8.329609172317e-02 
1.550000000000e+00 -9.000000015036e+04 8.329609163483e-02 
1.600000000000e+00 -9.000000081417e+04 8.329609115984e-02 
1.650000000000e+00 -9.000000436833e+04 8.329608863391e-02 
1.700000000000e+00 -9.000002317536e+04 8.329607538099e-02 
1.750000000000e+00 -9.000012123074e+04 8.329600703607e-02 
1.800000000000e+00 -9.000062273880e+04 8.329566255794e-02 
1.850000000000e+00 -9.000312211679e+04 8.329398054690e-02 
1.900000000000e+00 -9.001512870763e+04 8.328614308023e-02 
1.950000000000e+00 -9.006966765870e+04 8.325227681030e-02 
2.000000000000e+00 -9.029494852109e+04 8.322485325659e-02 
 TITLE = "Profiles along polylines"
 VARIABLES = "DIST" "PRESSURE1" "SATURATION1" 
 ZONE T="TIME=5.000000000000e+00"
0.000000000000e+00 -5.111531433150e+04 4.882963301853e-01 
5.000000000000e-02 -5.435394933865e+04 4.813865246695e-01 
1.000000000000e-01 -6.010344557787e+04 4.645128897556e-01 
1.500000000000e-01 -6.623525511891e+04 4.444205707132e-01 
2.000000000000e-01 -7.189380115409e+04 4.251665534554e-01 
2.500000000000e-01 -7.672415242595e+04 4.083835916618e-01 
3.000000000000e-01 -8.061313049295e+04 3.946482069946e-01 
3.500000000000e-01 -8.358998934444e+04 3.839725996066e-01 
4.000000000000e-01 -8.577173596262e+04 3.760345531262e-01 
4.500000000000e-01 -8.731899701480e+04 3.703347735789e-01 
5.000000000000e-01 -8.839936949632e+04 3.663225803116e-01 
5.500000000000e-01 -8.916322777419e+04 3.634842696033e-01 
6.000000000000e-01 -8.973324348419e+04 3.613887222279e-01 
6.500000000000e-01 -9.020351005692e+04 3.596991755906e-01 
7.000000000000e-01 -9.064229878016e+04 3.581686633021e-01 
7.500000000000e-01 -9.109361114429e+04 2.201285789174e-01 
8.000000000000e-01 -9.059624994862e+04 8.294562126640e-02 
8.500000000000e-01 -9.029710191056e+04 8.311373269535e-02 
9.000000000000e-01 -9.013958768280e+04 8.320784690045e-02 
9.500000000000e-01 -9.006294899742e+04 8.325544546656e-02 
1.000000000000e+00 -9.002755304985e+04 8.327801903534e-02 
1.050000000000e+00 -9.001179242475e+04 8.328826360287e-02 
1.100000000000e+00 -9.000496039423e+04 8.329276799165e-02 
1.150000000000e+00 -9.000205845437e+04 8.329470220869e-02 
1.200000000000e+00 -9.000084559935e+04 8.329551762387e-02 
1.250000000000e+00 -9.000034618112e+04 8.329585591920e-02 
1.300000000000e+00 -9.000014551608e+04 8.329599318606e-02 
1.350000000000e+00 -9.000007273606e+04 8.329604469051e-02 
1.400000000000e+00 -9.000006444363e+04 8.329605473688e-02 
1.450000000000e+00 -9.000011239166e+04 8.329603253826e-02 
1.500000000000e+00 -9.000025578674e+04 8.329596020374e-02 
1.550000000000e+00 -9.000061163639e+04 8.329577916923e-02 
1.600000000000e+00 -9.000146454126e+04 8.329534581481e-02 
1.650000000000e+00 -9.000347775504e+04 8.329432642132e-02 
1.700000000000e+00 -9.000816115083e+04 8.329196586301e-02 
1.750000000000e+00 -9.001886539221e+04 8.328660234100e-02 
1.800000000000e+00 -9.004278004861e+04 8.327471045798e-02 
1.850000000000e+00 -9.009461811672e+04 8.324918938163e-02 
1.900000000000e+00 -9.020243761099e+04 8.319680623709e-02 
1.950000000000e+00 -9.041397891542e+04 8.309582853717e-02 
2.000000000000e+00 -9.079487588949e+04 8.302988745945e-02 
 TITLE = "Profiles along polylines"
 VARIABLES = "DIST" "PRESSURE1" "SATURATION1" 
 ZONE T="TIME=1.000000000000e+01"
0.000000000000e+00 -6.236606412464e+04 4.526188189002e-01 
5.000000000000e-02 -6.341778035362e+04 4.503098373038e-01 
1.000000000000e-01 -6.540004585034e+04 4.442984957221e-01 
1.500000000000e-01 -6.798676872704e+04 4.360390258598e-01 
2.000000000000e-01 -7.087704012595e+04 4.265454781694e-01 
2.500000000000e-01 -7.383142787480e+04 4.166634554019e-01 
3.000000000000e-01 -7.667376861055e+04 4.070295154279e-01 
3.500000000000e-01 -7.928504001553e+04 3.980836854126e-01 
4.000000000000e-01 -8.159601627174e+04 3.900933791064e-01 
4.500000000000e-01 -8.357923604658e+04 3.831805236378e-01 
5.000000000000e-01 -8.523978729529e+04 3.773520452055e-01 
5.500000000000e-01 -8.660507304378e+04 3.725335060066e-01 
6.000000000000e-01 -8.771442454563e+04 3.686036697120e-01 
6.500000000000e-01 -8.860956731111e+04 3.654269417546e-01 
7.000000000000e-01 -8.932659424725e+04 3.628813288495e-01 
7.500000000000e-01 -8.988964035357e+04 2.225326293235e-01 
8.000000000000e-01 -9.012028827506e+04 8.327225666869e-02 
8.500000000000e-01 -9.015046107980e+04 8.322954522502e-02 
9.000000000000e-01 -9.011940156088e+04 8.323541195138e-02 
9.500000000000e-01 -9.008070507047e+04 8.325253060208e-02 
1.000000000000e+00 -9.005019624994e+04 8.326806696820e-02 
1.050000000000e+00 -9.002969019944e+04 8.327915789881e-02 
1.100000000000e+00 -9.001700099909e+04 8.328625564704e-02 
1.150000000000e+00 -9.000954216003e+04 8.329051844212e-02 
1.200000000000e+00 -9.000532340187e+04 8.329296749039e-02 
1.250000000000e+00 -9.000303759374e+04 8.329431458899e-02 
1.300000000000e+00 -9.000190817791e+04 8.329499859462e-02 
1.350000000000e+00 -9.000152837573e+04 8.329525863618e-02 
1.400000000000e+00 -9.000175608488e+04 8.329518946761e-02 
1.450000000000e+00 -9.000267589217e+04 8.329476530343e-02 
1.500000000000e+00 -9.000463262866e+04 8.329382789747e-02 
1.550000000000e+00 -9.000835202722e+04 8.329203138397e-02 
1.600000000000e+00 -9.001518415847e+04 8.328872749256e-02 
1.650000000000e+00 -9.002753131252e+04 8.328276286956e-02 
1.700000000000e+00 -9.004954861998e+04 8.327214860976e-02 
1.750000000000e+00 -9.008821562426e+04 8.325355961470e-02 
1.800000000000e+00 -9.015482434335e+04 8.322165023171e-02 
1.850000000000e+00 -9.026671593880e+04 8.316827793683e-02 
1.900000000000e+00 -9.044855974813e+04 8.308197767910e-02 
1.950000000000e+00 -9.073145185100e+04 8.294846714972e-02 
2.000000000000e+00 -9.114690086576e+04 8.286798802136e-02 
 TITLE = "Profiles along polylines"
 VARIABLES = "DIST" "PRESSURE1" "SATURATION1" 
 ZONE T="TIME=2.000000000000e+01"
0.000000000000e+00 -4.119900893295e+04 5.367234917935e-01 
5.000000000000e-02 -4.566018101471e+04 5.232626232637e-01 
1.000000000000e-01 -5.045486177757e+04 4.994110339699e-01 
1.500000000000e-01 -5.503431752086e+04 4.814996435682e-01 
2.000000000000e-01 -5.918308445147e+04 4.671469386335e-01 
2.500000000000e-01 -6.297470395695e+04 4.540683329971e-01 
3.000000000000e-01 -6.644464947488e+04 4.421120199413e-01 
3.500000000000e-01 -6.960803694711e+04 4.312097398238e-01 
4.000000000000e-01 -7.246935578051e+04 4.213370621388e-01 
4.500000000000e-01 -7.502813517440e+04 4.124909376866e-01 
5.000000000000e-01 -7.728220421713e+04 4.046768345524e-01 
5.500000000000e-01 -7.922934157427e+04 3.979019728131e-01 
6.000000000000e-01 -8.086777728735e+04 3.921727721509e-01 
6.500000000000e-01 -8.219590439770e+04 3.874951829610e-01 
7.000000000000e-01 -8.321155459022e+04 3.838766791192e-01 
7.500000000000e-01 -8.391122184963e+04 2.341384719784e-01 
8.000000000000e-01 -8.603759689430e+04 8.547763737560e-02 
8.500000000000e-01 -8.746650231361e+04 8.470070057874e-02 
9.000000000000e-01 -8.839975530155e+04 8.418768780392e-02 
9.500000000000e-01 -8.899703924133e+04 8.385669573356e-02 
1.000000000000e+00 -8.937426709141e+04 8.364651027890e-02 
1.050000000000e+00 -8.961067948243e+04 8.351434993915e-02 
1.100000000000e+00 -8.975833750780e+04 8.343166942679e-02 
1.150000000000e+00 -8.985061201057e+04 8.337998667536e-02 
1.200000000000e+00 -8.990860890642e+04 8.334754368724e-02 
1.250000000000e+00 -8.994562689838e+04 8.332691362677e-02 
1.300000000000e+00 -8.997010895091e+04 8.331338634970e-02 
1.350000000000e+00 -8.998755669760e+04 8.330391107864e-02 
1.400000000000e+00 -9.000177558794e+04 8.329640742249e-02 
1.450000000000e+00 -9.001571095380e+04 8.328930591357e-02 
1.500000000000e+00 -9.003205146838e+04 8.328122226046e-02 
1.550000000000e+00 -9.005371827446e+04 8.327070084721e-02 
1.600000000000e+00 -9.008431804012e+04 8.325598497237e-02 
1.650000000000e+00 -9.012860687112e+04 8.323478829330e-02 
1.700000000000e+00 -9.019297910392e+04 8.320405892183e-02 
1.750000000000e+00 -9.028594933984e+04 8.315974995895e-02 
1.800000000000e+00 -9.041852648790e+04 8.309664302236e-02 
1.850000000000e+00 -9.060427919022e+04 8.300831658427e-02 
1.900000000000e+00 -9.085877749764e+04 8.288740042145e-02 
1.950000000000e+00 -9.119803463696e+04 8.272627750786e-02 
2.000000000000e+00 -9.163574060650e+04 8.263472696641e-02 
 TITLE = "Profiles along polylines"
 VARIABLES = "DIST" "PRESSURE1" "SATURATION1" 
 ZONE T="TIME=3.000000000000e+01"
0.000000000000e+00 -4.094479458187e+04 5.417032329548e-01 
5.000000000000e-02 -4.365103987992e+04 5.333688437150e-01 
1.000000000000e-01 -4.666565674980e+04 5.157758689004e-01 
1.500000000000e-01 -5.008231621129e+04 4.990382026609e-01 
2.000000000000e-01 -5.353322230482e+04 4.857988833760e-01 
2.500000000000e-01 -5.682404014375e+04 4.745600066057e-01 
3.000000000000e-01 -5.993674794570e+04 4.639140198077e-01 
3.500000000000e-01 -6.285485511174e+04 4.539185847435e-01 
4.000000000000e-01 -6.556184563960e+04 4.446300394021e-01 
4.500000000000e-01 -6.804055975993e+04 4.361062707109e-01 
5.000000000000e-01 -7.027307899475e+04 4.284074836499e-01 
5.500000000000e-01 -7.224094677771e+04 4.215956704974e-01 
6.000000000000e-01 -7.392567563482e+04 4.157330553011e-01 
6.500000000000e-01 -7.530953688067e+04 4.108795820061e-01 
7.000000000000e-01 -7.637662187625e+04 4.070895042274e-01 
7.500000000000e-01 -7.711411319455e+04 2.472726410658e-01 
8.000000000000e-01 -8.052008858724e+04 8.830240802385e-02 
8.500000000000e-01 -8.317252858743e+04 8.692659555020e-02 
9.000000000000e-01 -8.517770518722e+04 8.587723353319e-02 
9.500000000000e-01 -8.665153027051e+04 8.509900827646e-02 
1.000000000000e+00 -8.770813056634e+04 8.453641543827e-02 
1.050000000000e+00 -8.845003290853e+04 8.413850822252e-02 
1.100000000000e+00 -8.896256673517e+04 8.386198992948e-02 
1.150000000000e+00 -8.931258047484e+04 8.367231094461e-02 
1.200000000000e+00 -8.955011246947e+04 8.354321850081e-02 
1.250000000000e+00 -8.971143490947e+04 8.345546476175e-02 
1.300000000000e+00 -8.982233173861e+04 8.339526157852e-02 
1.350000000000e+00 -8.990101728532e+04 8.335283114213e-02 
1.400000000000e+00 -8.996049557373e+04 8.332119813207e-02 
1.450000000000e+00 -9.001037172877e+04 8.329524554448e-02 
1.500000000000e+00 -9.005821085325e+04 8.327099987890e-02 
1.550000000000e+00 -9.011055387089e+04 8.324509557750e-02 
1.600000000000e+00 -9.017368201107e+04 8.321437314667e-02 
1.650000000000e+00 -9.025419152843e+04 8.317557849249e-02 
1.700000000000e+00 -9.035940639467e+04 8.312514706481e-02 
1.750000000000e+00 -9.049762258415e+04 8.305907291699e-02 
1.800000000000e+00 -9.067814630927e+04 8.297287788344e-02 
1.850000000000e+00 -9.091106654203e+04 8.286170661073e-02 
1.900000000000e+00 -9.120670232250e+04 8.272057318418e-02 
1.950000000000e+00 -9.157470882136e+04 8.254476526848e-02 
2.000000000000e+00 -9.202293709396e+04 8.244763575512e-02 
 TITLE = "Profiles along polylines"
 VARIABLES = "DIST" "PRESSURE1" "SATURATION1" 
 ZONE T="TIME=4.000000000000e+01"
0.000000000000e+00 -5.000267846158e+04 4.948667297414e-01 
5.000000000000e-02 -5.076612406861e+04 4.933285316084e-01 
1.000000000000e-01 -5.196104448607e+04 4.895800568046e-01 
1.500000000000e-01 -5.348224516263e+04 4.846652071612e-01 
2.000000000000e-01 -5.522553299825e+04 4.789300110083e-01 
2.500000000000e-01 -5.710158600620e+04 4.726837515271e-01 
3.000000000000e-01 -5.903948578276e+04 4.661801478557e-01 
3.500000000000e-01 -6.098168044009e+04 4.596240424152e-01 
4.000000000000e-01 -6.288019777562e+04 4.531850284337e-01 
4.500000000000e-01 -6.469396625928e+04 4.470072629122e-01 
5.000000000000e-01 -6.638706188157e+04 4.412160229084e-01 
5.500000000000e-01 -6.792772441764e+04 4.359215457878e-01 
6.000000000000e-01 -6.928801969051e+04 4.312206012897e-01 
6.500000000000e-01 -7.044403851246e+04 4.271961896538e-01 
7.000000000000e-01 -7.137650949294e+04 4.239157873551e-01 
7.500000000000e-01 -7.207166687113e+04 2.569883766695e-01 
8.000000000000e-01 -7.579663205541e+04 9.063676094269e-02 
8.500000000000e-01 -7.896644092446e+04 8.903022811009e-02 
9.000000000000e-01 -8.159456479369e+04 8.768958946103e-02 
9.500000000000e-01 -8.371616971494e+04 8.659962380170e-02 
1.000000000000e+00 -8.538439769006e+04 8.573616799906e-02 
1.050000000000e+00 -8.666409704164e+04 8.506887961564e-02 
1.100000000000e+00 -8.762438574272e+04 8.456464845402e-02 
1.150000000000e+00 -8.833190579280e+04 8.419086290035e-02 
1.200000000000e+00 -8.884610888353e+04 8.391786576622e-02 
1.250000000000e+00 -8.921694805933e+04 8.372032083063e-02 
1.300000000000e+00 -8.948456998578e+04 8.357758799341e-02 
1.350000000000e+00 -8.968028080529e+04 8.347340811991e-02 
1.400000000000e+00 -8.982810653084e+04 8.339522261203e-02 
1.450000000000e+00 -8.994647621170e+04 8.333337656684e-02 
1.500000000000e+00 -9.004976705202e+04 8.328035613082e-02 
1.550000000000e+00 -9.014960120131e+04 8.323013202228e-02 
1.600000000000e+00 -9.025586917925e+04 8.317763245324e-02 
1.650000000000e+00 -9.037749236351e+04 8.311834471341e-02 
1.700000000000e+00 -9.052294632257e+04 8.304803652691e-02 
1.750000000000e+00 -9.070056316963e+04 8.296258814607e-02 
1.800000000000e+00 -9.091862501356e+04 8.285792834016e-02 
1.850000000000e+00 -9.118525934969e+04 8.273006799598e-02 
1.900000000000e+00 -9.150815631284e+04 8.257522115687e-02 
1.950000000000e+00 -9.189415038236e+04 8.238999339522e-02 
2.000000000000e+00 -9.234874404841e+04 8.228939118111e-02 
 TITLE = "Profiles along polylines"
 VARIABLES = "DIST" "PRESSURE1" "SATURATION1" 
 ZONE T="TIME=5.000000000000e+01"
0.000000000000e+00 -5.107566893830e+04 4.908819242937e-01 
5.000000000000e-02 -5.214566092201e+04 4.890163934474e-01 
1.000000000000e-01 -5.330669744551e+04 4.851314567146e-01 
1.500000000000e-01 -5.455792377570e+04 4.809474007697e-01 
2.000000000000e-01 -5.588577722511e+04 4.765000078965e-01 
2.500000000000e-01 -5.726933926809e+04 4.718539711117e-01 
3.000000000000e-01 -5.868401782392e+04 4.670893446570e-01 
3.500000000000e-01 -6.010377176455e+04 4.622928604875e-01 
4.000000000000e-01 -6.150243813100e+04 4.575527000457e-01 
4.500000000000e-01 -6.285455271123e+04 4.529552773595e-01 
5.000000000000e-01 -6.413592612082e+04 4.485830526329e-01 
5.500000000000e-01 -6.532414321209e+04 4.445127406886e-01 
6.000000000000e-01 -6.639908281278e+04 4.408135374543e-01 
6.500000000000e-01 -6.734349788874e+04 4.375451917386e-01 
7.000000000000e-01 -6.814364753435e+04 4.347559195922e-01 
7.500000000000e-01 -6.878993117228e+04 2.633163465747e-01 
8.000000000000e-01 -7.237070666178e+04 9.229474529425e-02 
8.500000000000e-01 -7.559289048066e+04 9.068192073202e-02 
9.000000000000e-01 -7.842898013482e+04 8.925543523021e-02 
9.500000000000e-01 -8.086861643147e+04 8.802180893695e-02 
1.000000000000e+00 -8.291838572373e+04 8.697929245909e-02 
1.050000000000e+00 -8.460057662796e+04 8.611844110407e-02 
1.100000000000e+00 -8.595030399939e+04 8.542337666539e-02 
1.150000000000e+00 -8.701123938488e+04 8.487370407860e-02 
1.200000000000e+00 -8.783080308958e+04 8.444675059189e-02 
1.250000000000e+00 -8.845582622149e+04 8.411968061081e-02 
1.300000000000e+00 -8.892939540488e+04 8.387112703494e-02 
1.350000000000e+00 -8.928910465242e+04 8.368218171477e-02 
1.400000000000e+00 -8.956653428106e+04 8.353678328894e-02 
1.450000000000e+00 -8.978758175640e+04 8.342165591362e-02 
1.500000000000e+00 -8.997325836281e+04 8.332598007185e-02 
1.550000000000e+00 -9.014065112683e+04 8.324094866527e-02 
1.600000000000e+00 -9.030385601079e+04 8.315931408824e-02 
1.650000000000e+00 -9.047477673655e+04 8.307498785904e-02 
1.700000000000e+00 -9.066374337997e+04 8.298272226862e-02 
1.750000000000e+00 -9.087994040487e+04 8.287788333190e-02 
1.800000000000e+00 -9.113165363872e+04 8.275631264234e-02 
1.850000000000e+00 -9.142635760129e+04 8.261426878947e-02 
1.900000000000e+00 -9.177067382779e+04 8.244843404627e-02 
1.950000000000e+00 -9.217023970739e+04 8.225596769346e-02 
2.000000000000e+00 -9.262953517002e+04 8.215275357086e-02 
 TITLE = "Profiles along polylines"
 VARIABLES = "DIST" "PRESSURE1" "SATURATION1" 
 ZONE T="TIME=6.000000000000e+01"
0.000000000000e+00 1.869811270988e+06 1.000000000000e+00 
5.000000000000e-02 1.869272126097e+06 1.000000000000e+00 
1.000000000000e-01 1.868732985918e+06 1.000000000000e+00 
1.500000000000e-01 1.868193850453e+06 1.000000000000e+00 
2.000000000000e-01 1.867654719703e+06 1.000000000000e+00 
2.500000000000e-01 1.867115593671e+06 1.000000000000e+00 
3.000000000000e-01 1.866576472359e+06 1.000000000000e+00 
3.500000000000e-01 1.866037355768e+06 1.000000000000e+00 
4.000000000000e-01 1.865498243902e+06 1.000000000000e+00 
4.500000000000e-01 1.864959136761e+06 1.000000000000e+00 
5.000000000000e-01 1.864420034349e+06 1.000000000000e+00 
5.500000000000e-01 1.863880936666e+06 1.000000000000e+00 
6.000000000000e-01 1.863341843715e+06 1.000000000000e+00 
6.500000000000e-01 1.862802755497e+06 1.000000000000e+00 
7.000000000000e-01 1.862263672013e+06 1.000000000000e+00 
7.500000000000e-01 1.861724593262e+06 1.000000000000e+00 
8.000000000000e-01 1.861231602276e+06 1.000000000000e+00 
8.500000000000e-01 1.860738611534e+06 1.000000000000e+00 
9.000000000000e-01 1.860245621034e+06 1.000000000000e+00 
9.500000000000e-01 1.859752630779e+06 1.000000000000e+00 
1.000000000000e+00 1.859259640768e+06 1.000000000000e+00 
1.050000000000e+00 1.858766651001e+06 1.000000000000e+00 
1.100000000000e+00 1.858273661478e+06 1.000000000000e+00 
1.150000000000e+00 1.857780672200e+06 1.000000000000e+00 
1.200000000000e+00 1.857287683166e+06 1.000000000000e+00 
1.250000000000e+00 1.856794694377e+06 1.000000000000e+00 
1.300000000000e+00 1.856301705833e+06 1.000000000000e+00 
1.350000000000e+00 1.855808717534e+06 1.000000000000e+00 
1.400000000000e+00 1.855315729479e+06 1.000000000000e+00 
1.450000000000e+00 1.854822741668e+06 1.000000000000e+00 
1.500000000000e+00 1.854329754103e+06 1.000000000000e+00 
1.550000000000e+00 1.853834280707e+06 1.000000000000e+00 
1.600000000000e+00 1.764902881139e+06 1.000000000000e+00 
1.650000000000e+00 1.314471206734e+06 1.000000000000e+00 
1.700000000000e+00 9.115759917273e+05 1.000000000000e+00 
1.750000000000e+00 6.146788264122e+05 1.000000000000e+00 
1.800000000000e+00 3.984782364455e+05 1.000000000000e+00 
1.850000000000e+00 2.477696479063e+05 1.000000000000e+00 
1.900000000000e+00 1.499562552651e+05 1.000000000000e+00 
1.950000000000e+00 9.507460568965e+04 1.000000000000e+00 
2.000000000000e+00 7.699028028394e+04 1.000000000000e+00 
 TITLE = "Profiles along polylines"
 VARIABLES = "DIST" "PRESSURE1" "SATURATION1" 
 ZONE T="TIME=7.000000000000e+01"
0.000000000000e+00 3.594214664386e+07 1.000000000000e+00 
5.000000000000e-02 3.594165281801e+07 1.000000000000e+00 
1.000000000000e-01 3.594115907572e+07 1.000000000000e+00 
1.500000000000e-01 3.594066541699e+07 1.000000000000e+00 
2.000000000000e-01 3.594017184183e+07 1.000000000000e+00 
2.500000000000e-01 3.593967835023e+07 1.000000000000e+00 
3.000000000000e-01 3.593918494219e+07 1.000000000000e+00 
3.500000000000e-01 3.593869161772e+07 1.000000000000e+00 
4.000000000000e-01 3.593819837682e+07 1.000000000000e+00 
4.500000000000e-01 3.593770521948e+07 1.000000000000e+00 
5.000000000000e-01 3.593721214571e+07 1.000000000000e+00 
5.500000000000e-01 3.593671915550e+07 1.000000000000e+00 
6.000000000000e-01 3.593622624885e+07 1.000000000000e+00 
6.500000000000e-01 3.593573342578e+07 1.000000000000e+00 
7.000000000000e-01 3.593524068626e+07 1.000000000000e+00 
7.500000000000e-01 3.593474803032e+07 1.000000000000e+00 
8.000000000000e-01 3.593425742404e+07 1.000000000000e+00 
8.500000000000e-01 3.593376682205e+07 1.000000000000e+00 
9.000000000000e-01 3.593327622434e+07 1.000000000000e+00 
9.500000000000e-01 3.593278563092e+07 1.000000000000e+00 
1.000000000000e+00 3.593229504179e+07 1.000000000000e+00 
1.050000000000e+00 3.593180445694e+07 1.000000000000e+00 
1.100000000000e+00 3.593131387638e+07 1.000000000000e+00 
1.150000000000e+00 3.593082330010e+07 1.000000000000e+00 
1.200000000000e+00 3.593033272811e+07 1.000000000000e+00 
1.250000000000e+00 3.592984216040e+07 1.000000000000e+00 
1.300000000000e+00 3.592935159698e+07 1.000000000000e+00 
1.350000000000e+00 3.592886103784e+07 1.000000000000e+00 
1.400000000000e+00 3.592837048299e+07 1.000000000000e+00 
1.450000000000e+00 3.592787993242e+07 1.000000000000e+00 
1.500000000000e+00 3.592738938614e+07 1.000000000000e+00 
1.550000000000e+00 3.592689884415e+07 1.000000000000e+00 
1.600000000000e+00 3.592640830644e+07 1.000000000000e+00 
1.650000000000e+00 3.592591777302e+07 1.000000000000e+00 
1.700000000000e+00 3.592542724397e+07 1.000000000000e+00 
1.750000000000e+00 3.592493671931e+07 1.000000000000e+00 
1.800000000000e+00 3.592444619909e+07 1.000000000000e+00 
1.850000000000e+00 3.592395568335e+07 1.000000000000e+00 
1.900000000000e+00 3.592346517209e+07 1.000000000000e+00 
1.950000000000e+00 3.592297466533e+07 1.000000000000e+00 
2.000000000000e+00 3.592248416307e+07 1.000000000000e+00 
 TITLE = "Profiles along polylines"
 VARIABLES = "DIST" "PRESSURE1" "SATURATION1" 
 ZONE T="TIME=8.000000000000e+01"
0.000000000000e+00 3.594213817276e+07 1.000000000000e+00 
5.000000000000e-02 3.594164767276e+07 1.000000000000e+00 
1.000000000000e-01 3.594115717276e+07 1.000000000000e+00 
1.500000000000e-01 3.594066667276e+07 1.000000000000e+00 
2.000000000000e-01 3.594017617276e+07 1.000000000000e+00 
2.500000000000e-01 3.593968567276e+07 1.000000000000e+00 
3.000000000000e-01 3.593919517276e+07 1.000000000000e+00 
3.500000000000e-01 3.593870467276e+07 1.000000000000e+00 
4.000000000000e-01 3.593821417276e+07 1.000000000000e+00 
4.500000000000e-01 3.593772367276e+07 1.000000000000e+00 
5.000000000000e-01 3.593723317276e+07 1.000000000000e+00 
5.500000000000e-01 3.593674267276e+07 1.000000000000e+00 
6.000000000000e-01 3.593625217276e+07 1.000000000000e+00 
6.500000000000e-01 3.593576167276e+07 1.000000000000e+00 
7.000000000000e-01 3.593527117276e+07 1.000000000000e+00 
7.500000000000e-01 3.593478067276e+07 1.000000000000e+00 
8.000000000000e-01 3.593429017276e+07 1.000000000000e+00 
8.500000000000e-01 3.593379967276e+07 1.000000000000e+00 
9.000000000000e-01 3.593330917276e+07 1.000000000000e+00 
9.500000000000e-01 3.593281867276e+07 1.000000000000e+00 
1.000000000000e+00 3.593232817276e+07 1.000000000000e+00 
1.050000000000e+00 3.593183767276e+07 1.000000000000e+00 
1.100000000000e+00 3.593134717276e+07 1.000000000000e+00 
1.150000000000e+00 3.593085667276e+07 1.000000000000e+00 
1.200000000000e+00 3.593036617276e+07 1.000000000000e+00 
1.250000000000e+00 3.592987567276e+07 1.000000000000e+00 
1.300000000000e+00 3.592938517276e+07 1.000000000000e+00 
1.350000000000e+00 3.592889467276e+07 1.000000000000e+00 
1.400000000000e+00 3.592840417276e+07 1.000000000000e+00 
1.450000000000e+00 3.592791367276e+07 1.000000000000e+00 
1.500000000000e+00 3.592742317276e+07 1.000000000000e+00 
1.550000000000e+00 3.592693267276e+07 1.000000000000e+00 
1.600000000000e+00 3.592644217276e+07 1.000000000000e+00 
1.650000000000e+00 3.592595167276e+07 1.000000000000e+00 
1.700000000000e+00 3.592546117276e+07 1.000000000000e+00 