 TITLE = "Profiles along polylines"
 VARIABLES = "DIST" "PRESSURE1" "SATURATION1" 
 ZONE T="TIME=0.000000000000e+00"
0.000000000000e+00 -9.000000000000e+04 3.601056880734e-01 
5.000000000000e-02 -9.000000000000e+04 3.601056880734e-01 
1.000000000000e-01 -9.000000000000e+04 3.601056880734e-01 
1.500000000000e-01 -9.000000000000e+04 3.601056880734e-01 
2.000000000000e-01 -9.000000000000e+04 3.601056880734e-01 
2.500000000000e-01 -9.000000000000e+04 2.147624357798e-01 
3.000000000000e-01 -9.000000000000e+04 1.684751605505e-01 
3.500000000000e-01 -9.000000000000e+04 2.675311376147e-01 
4.000000000000e-01 -9.000000000000e+04 2.675311376147e-01 
4.500000000000e-01 -9.000000000000e+04 2.675311376147e-01 
5.000000000000e-01 -9.000000000000e+04 2.675311376147e-01 
5.500000000000e-01 -9.000000000000e+04 2.675311376147e-01 
6.000000000000e-01 -9.000000000000e+04 2.675311376147e-01 
6.500000000000e-01 -9.000000000000e+04 2.675311376147e-01 
7.000000000000e-01 -9.000000000000e+04 1.754136146789e-01 
7.500000000000e-01 -9.000000000000e+04 8.329609174312e-02 
8.000000000000e-01 -9.000000000000e+04 8.329609174312e-02 
8.500000000000e-01 -9.000000000000e+04 8.329609174312e-02 
9.000000000000e-01 -9.000000000000e+04 8.329609174312e-02 
9.500000000000e-01 -9.000000000000e+04 8.329609174312e-02 
1.000000000000e+00 -9.000000000000e+04 8.329609174312e-02 
1.050000000000e+00 -9.000000000000e+04 8.329609174312e-02 
1.100000000000e+00 -9.000000000000e+04 8.329609174312e-02 
1.150000000000e+00 -9.000000000000e+04 8.329609174312e-02 
1.200000000000e+00 -9.000000000000e+04 8.329609174312e-02 
1.250000000000e+00 -9.000000000000e+04 8.329609174312e-02 
1.300000000000e+00 -9.000000000000e+04 8.329609174312e-02 
1.350000000000e+00 -9.000000000000e+04 8.329609174312e-02 
1.400000000000e+00 -9.000000000000e+04 8.329609174312e-02 
1.450000000000e+00 -9.000000000000e+04 8.329609174312e-02 
1.500000000000e+00 -9.000000000000e+04 8.329609174312e-02 
1.550000000000e+00 -9.000000000000e+04 8.329609174312e-02 
1.600000000000e+00 -9.000000000000e+04 8.329609174312e-02 
1.650000000000e+00 -9.000000000000e+04 8.329609174312e-02 
1.700000000000e+00 -9.000000000000e+04 8.329609174312e-02 
1.750000000000e+00 -9.000000000000e+04 8.329609174312e-02 
1.800000000000e+00 -9.000000000000e+04 8.329609174312e-02 
1.850000000000e+00 -9.000000000000e+04 8.329609174312e-02 
1.900000000000e+00 -9.000000000000e+04 8.329609174312e-02 
1.950000000000e+00 -9.000000000000e+04 8.329609174312e-02 
2.000000000000e+00 -9.000000000000e+04 8.329609174312e-02 
 TITLE = "Profiles along polylines"
 VARIABLES = "DIST" "PRESSURE1" "SATURATION1" 
 ZONE T="TIME=5.000000000000e-01"
0.000000000000e+00 -8.364354035957e+04 3.771417852726e-01 
5.000000000000e-02 -8.764039821989e+04 3.717576267928e-01 
1.000000000000e-01 -8.917384604302e+04 3.643157126437e-01 
1.500000000000e-01 -8.974810896752e+04 3.614573217532e-01 
2.000000000000e-01 -9.001629154548e+04 3.601921318747e-01 
2.500000000000e-01 -9.030194680604e+04 2.145392681869e-01 
3.000000000000e-01 -8.999848309106e+04 1.684455617301e-01 
3.500000000000e-01 -8.999999276465e+04 2.675356724870e-01 
4.000000000000e-01 -8.999999996549e+04 2.675311592451e-01 
4.500000000000e-01 -8.999999999984e+04 2.675311377178e-01 
5.000000000000e-01 -9.000000000000e+04 2.675311376153e-01 
5.500000000000e-01 -8.999999999993e+04 2.675311376370e-01 
6.000000000000e-01 -8.999999998517e+04 2.675311420664e-01 
6.500000000000e-01 -8.999999704512e+04 2.675320248491e-01 
7.000000000000e-01 -8.999941108325e+04 1.754146020603e-01 
7.500000000000e-01 -8.999990279673e+04 8.329621358031e-02 
8.000000000000e-01 -8.999998395630e+04 8.329611185284e-02 
8.500000000000e-01 -8.999999735194e+04 8.329609506229e-02 
9.000000000000e-01 -8.999999956293e+04 8.329609229096e-02 
9.500000000000e-01 -8.999999992786e+04 8.329609183354e-02 
1.000000000000e+00 -8.999999998809e+04 8.329609175804e-02 
1.050000000000e+00 -8.999999999803e+04 8.329609174558e-02 
1.100000000000e+00 -8.999999999968e+04 8.329609174353e-02 
1.150000000000e+00 -8.999999999995e+04 8.329609174319e-02 
1.200000000000e+00 -8.999999999999e+04 8.329609174313e-02 
1.250000000000e+00 -9.000000000000e+04 8.329609174312e-02 
1.300000000000e+00 -9.000000000000e+04 8.329609174312e-02 
1.350000000000e+00 -9.000000000001e+04 8.329609174311e-02 
1.400000000000e+00 -9.000000000009e+04 8.329609174305e-02 
1.450000000000e+00 -9.000000000052e+04 8.329609174272e-02 
1.500000000000e+00 -9.000000000310e+04 8.329609174076e-02 
1.550000000000e+00 -9.000000001841e+04 8.329609172912e-02 
1.600000000000e+00 -9.000000010921e+04 8.329609166009e-02 
1.650000000000e+00 -9.000000064787e+04 8.329609125055e-02 
1.700000000000e+00 -9.000000384356e+04 8.329608882092e-02 
1.750000000000e+00 -9.000002280218e+04 8.329607440694e-02 
1.800000000000e+00 -9.000013527591e+04 8.329598889404e-02 
1.850000000000e+00 -9.000080254437e+04 8.329548155156e-02 
1.900000000000e+00 -9.000476151086e+04 8.329247061351e-02 
1.950000000000e+00 -9.002826061663e+04 8.327456933175e-02 
2.000000000000e+00 -9.016810484191e+04 8.325924482363e-02 
 TITLE = "Profiles along polylines"
 VARIABLES = "DIST" "PRESSURE1" "SATURATION1" 
 ZONE T="TIME=1.000000000000e+00"
0.000000000000e+00 -8.532016368297e+04 3.738542951126e-01 
5.000000000000e-02 -8.719572647110e+04 3.709215756608e-01 
1.000000000000e-01 -8.863399083392e+04 3.658935560159e-01 
1.500000000000e-01 -8.946505498245e+04 3.625789347624e-01 
2.000000000000e-01 -8.996049154883e+04 3.605583883026e-01 
2.500000000000e-01 -9.038737115181e+04 2.145444517207e-01 
3.000000000000e-01 -8.999732236914e+04 1.684394166170e-01 
3.500000000000e-01 -8.999998006262e+04 2.675391745268e-01 
4.000000000000e-01 -8.999999987074e+04 2.675311973710e-01 
4.500000000000e-01 -8.999999999922e+04 2.675311380018e-01 
5.000000000000e-01 -8.999999999999e+04 2.675311376176e-01 
5.500000000000e-01 -8.999999999963e+04 2.675311377035e-01 
6.000000000000e-01 -8.999999994124e+04 2.675311509161e-01 
6.500000000000e-01 -8.999999121466e+04 2.675329099834e-01 
7.000000000000e-01 -8.999883226652e+04 1.754155868870e-01 
7.500000000000e-01 -8.999973784847e+04 8.329635228646e-02 
8.000000000000e-01 -8.999994527459e+04 8.329614910698e-02 
8.500000000000e-01 -8.999998907650e+04 8.329610358135e-02 
9.000000000000e-01 -8.999999788495e+04 8.329609408825e-02 
9.500000000000e-01 -8.999999959939e+04 8.329609219476e-02 
1.000000000000e+00 -8.999999992538e+04 8.329609182832e-02 
1.050000000000e+00 -8.999999998628e+04 8.329609175894e-02 
1.100000000000e+00 -8.999999999750e+04 8.329609174602e-02 
1.150000000000e+00 -8.999999999955e+04 8.329609174365e-02 
1.200000000000e+00 -8.999999999992e+04 8.329609174321e-02 
1.250000000000e+00 -8.999999999999e+04 8.329609174313e-02 
1.300000000000e+00 -9.000000000003e+04 8.329609174310e-02 
1.350000000000e+00 -9.000000000016e+04 8.329609174300e-02 
1.400000000000e+00 -9.000000000091e+04 8.329609174246e-02 
1.450000000000e+00 -9.000000000502e+04 8.329609173947e-02 
1.500000000000e+00 -9.000000002758e+04 8.329609172316e-02 
1.550000000000e+00 -9.000000015050e+04 8.329609163473e-02 
1.600000000000e+00 -9.000000081489e+04 8.329609115936e-02 
1.650000000000e+00 -9.000000437178e+04 8.329608863163e-02 
1.700000000000e+00 -9.000002319135e+04 8.329607537064e-02 
1.750000000000e+00 -9.000012130215e+04 8.329600699092e-02 
1.800000000000e+00 -9.000062304302e+04 8.329566237188e-02 
1.850000000000e+00 -9.000312332983e+04 8.329397983946e-02 
1.900000000000e+00 -9.001513308537e+04 8.328614070834e-02 
1.950000000000e+00 -9.006968101832e+04 8.325227044674e-02 
2.000000000000e+00 -9.029497727375e+04 8.322484415716e-02 
 TITLE = "Profiles along polylines"
 VARIABLES = "DIST" "PRESSURE1" "SATURATION1" 
 ZONE T="TIME=5.000000000000e+00"
0.000000000000e+00 -1.136145429580e+04 7.533533108153e-01 
5.000000000000e-02 -1.232614374975e+04 7.481214013611e-01 
1.000000000000e-01 -1.409986958536e+04 7.344744546957e-01 
1.500000000000e-01 -1.650851568058e+04 7.154649463932e-01 
2.000000000000e-01 -1.918990757417e+04 6.946859822543e-01 
2.500000000000e-01 -2.103562860644e+04 3.891403306490e-01 
3.000000000000e-01 -8.657742543145e+04 1.908872845633e-01 
3.500000000000e-01 -8.995082708690e+04 2.779101999868e-01 
4.000000000000e-01 -8.999934384719e+04 2.676800325463e-01 
4.500000000000e-01 -8.999999014498e+04 2.675331293835e-01 
5.000000000000e-01 -8.999999983377e+04 2.675311677421e-01 
5.500000000000e-01 -8.999999990916e+04 2.675311444755e-01 
6.000000000000e-01 -8.999999598223e+04 2.675314002446e-01 
6.500000000000e-01 -8.999983527721e+04 2.675399879851e-01 
7.000000000000e-01 -8.999453889956e+04 1.754233184678e-01 
7.500000000000e-01 -8.999739088913e+04 8.329772531027e-02 
8.000000000000e-01 -8.999883243956e+04 8.329684774079e-02 
8.500000000000e-01 -8.999950348179e+04 8.329642209918e-02 
9.000000000000e-01 -8.999979684436e+04 8.329622980269e-02 
9.500000000000e-01 -8.999991922675e+04 8.329614752173e-02 
1.000000000000e+00 -8.999996855624e+04 8.329611371732e-02 
1.050000000000e+00 -8.999998795973e+04 8.329610023386e-02 
1.100000000000e+00 -8.999999548592e+04 8.329609495630e-02 
1.150000000000e+00 -8.999999844637e+04 8.329609288181e-02 
1.200000000000e+00 -8.999999980565e+04 8.329609196783e-02 
1.250000000000e+00 -9.000000095056e+04 8.329609129095e-02 
1.300000000000e+00 -9.000000305009e+04 8.329609016162e-02 
1.350000000000e+00 -9.000000823083e+04 8.329608743689e-02 
1.400000000000e+00 -9.000002171057e+04 8.329608037719e-02 
1.450000000000e+00 -9.000005698451e+04 8.329606193420e-02 
1.500000000000e+00 -9.000014906743e+04 8.329601387608e-02 
1.550000000000e+00 -9.000038821435e+04 8.329588938383e-02 
1.600000000000e+00 -9.000100446618e+04 8.329556974981e-02 
1.650000000000e+00 -9.000257452077e+04 8.329475955405e-02 
1.700000000000e+00 -9.000651007903e+04 8.329274289086e-02 
1.750000000000e+00 -9.001615124662e+04 8.328784884849e-02 
1.800000000000e+00 -9.003902671885e+04 8.327637869940e-02 
1.850000000000e+00 -9.009096654100e+04 8.325073666893e-02 
1.900000000000e+00 -9.020203386175e+04 8.319692503871e-02 
1.950000000000e+00 -9.042104483835e+04 8.309304109106e-02 
2.000000000000e+00 -9.080847125973e+04 8.302533917850e-02 
 TITLE = "Profiles along polylines"
 VARIABLES = "DIST" "PRESSURE1" "SATURATION1" 
 ZONE T="TIME=1.000000000000e+01"
0.000000000000e+00 -1.474064013874e+04 7.259661314674e-01 
5.000000000000e-02 -1.525998813179e+04 7.236918118041e-01 
1.000000000000e-01 -1.583103788141e+04 7.189394117463e-01 
1.500000000000e-01 -1.644290437568e+04 7.138312759083e-01 
2.000000000000e-01 -1.708070413610e+04 7.084820978369e-01 
2.500000000000e-01 -1.772967842330e+04 4.021998241483e-01 
3.000000000000e-01 -7.576648475035e+04 2.266282427069e-01 
3.500000000000e-01 -8.912722601143e+04 3.137096533681e-01 
4.000000000000e-01 -8.997066095701e+04 2.702537049055e-01 
4.500000000000e-01 -8.999912240085e+04 2.676221685625e-01 
5.000000000000e-01 -8.999997500432e+04 2.675338563390e-01 
5.500000000000e-01 -8.999999833202e+04 2.675312573384e-01 
6.000000000000e-01 -8.999997432651e+04 2.675321157141e-01 
6.500000000000e-01 -8.999942132134e+04 2.675489357489e-01 
7.000000000000e-01 -8.998979515135e+04 1.754326500173e-01 
7.500000000000e-01 -8.999392477600e+04 8.329954483229e-02 
8.000000000000e-01 -8.999653394648e+04 8.329809732407e-02 
8.500000000000e-01 -8.999809577599e+04 8.329721186944e-02 
9.000000000000e-01 -8.999898775792e+04 8.329669604808e-02 
9.500000000000e-01 -8.999947725021e+04 8.329640796398e-02 
1.000000000000e+00 -8.999973724427e+04 8.329625262047e-02 
1.050000000000e+00 -8.999987228681e+04 8.329617097026e-02 
1.100000000000e+00 -8.999994268253e+04 8.329612819912e-02 
1.150000000000e+00 -8.999998289282e+04 8.329610416659e-02 
1.200000000000e+00 -9.000001448469e+04 8.329608640260e-02 
1.250000000000e+00 -9.000005587399e+04 8.329606479442e-02 
1.300000000000e+00 -9.000013197778e+04 8.329602648137e-02 
1.350000000000e+00 -9.000028801558e+04 8.329594885637e-02 
1.400000000000e+00 -9.000061412922e+04 8.329578738905e-02 
1.450000000000e+00 -9.000129238578e+04 8.329545265599e-02 
1.500000000000e+00 -9.000268658608e+04 8.329476678766e-02 
1.550000000000e+00 -9.000550984888e+04 8.329338277588e-02 
1.600000000000e+00 -9.001112607642e+04 8.329064047102e-02 
1.650000000000e+00 -9.002206612872e+04 8.328532234075e-02 
1.700000000000e+00 -9.004285425494e+04 8.327526688457e-02 
1.750000000000e+00 -9.008120985261e+04 8.325681441017e-02 
1.800000000000e+00 -9.014954664057e+04 8.322412831166e-02 
1.850000000000e+00 -9.026634686402e+04 8.316859058037e-02 
1.900000000000e+00 -9.045641050480e+04 8.307871610840e-02 
1.950000000000e+00 -9.074840408462e+04 8.294124671355e-02 
2.000000000000e+00 -9.116837705234e+04 8.285890356182e-02 
 TITLE = "Profiles along polylines"
 VARIABLES = "DIST" "PRESSURE1" "SATURATION1" 
 ZONE T="TIME=2.000000000000e+01"
0.000000000000e+00 -8.881870151795e+03 7.781981160003e-01 
5.000000000000e-02 -9.852872601720e+03 7.721494953283e-01 
1.000000000000e-01 -1.083199396045e+04 7.620131218819e-01 
1.500000000000e-01 -1.176703080403e+04 7.540232241194e-01 
2.000000000000e-01 -1.265886493319e+04 7.464021675956e-01 
2.500000000000e-01 -1.350741328120e+04 4.342930089674e-01 
3.000000000000e-01 -4.663644513831e+04 3.388101084739e-01 
3.500000000000e-01 -8.098594682294e+04 4.379446160189e-01 
4.000000000000e-01 -8.894611561185e+04 2.991138772225e-01 
4.500000000000e-01 -8.990957794843e+04 2.710729045467e-01 
5.000000000000e-01 -8.999262246875e+04 2.678332965888e-01 
5.500000000000e-01 -8.999938454774e+04 2.675561354187e-01 
6.000000000000e-01 -8.999975811135e+04 2.675370397403e-01 
6.500000000000e-01 -8.999797976837e+04 2.675674486880e-01 
7.000000000000e-01 -8.998207837957e+04 1.754501752144e-01 
7.500000000000e-01 -8.998749114993e+04 8.330280920496e-02 
8.000000000000e-01 -8.999146785142e+04 8.330070895210e-02 
8.500000000000e-01 -8.999431931601e+04 8.329918975605e-02 
9.000000000000e-01 -8.999633415573e+04 8.329810923792e-02 
9.500000000000e-01 -8.999776080981e+04 8.329734210073e-02 
1.000000000000e+00 -8.999880440678e+04 8.329678323354e-02 
1.050000000000e+00 -8.999963423653e+04 8.329634523505e-02 
1.100000000000e+00 -9.000039780345e+04 8.329595222093e-02 
1.150000000000e+00 -9.000123922608e+04 8.329553113337e-02 
1.200000000000e+00 -9.000232188970e+04 8.329500078545e-02 
1.250000000000e+00 -9.000385726414e+04 8.329425787261e-02 
1.300000000000e+00 -9.000614369943e+04 8.329315822132e-02 
1.350000000000e+00 -9.000962102624e+04 8.329149054726e-02 
1.400000000000e+00 -9.001494911397e+04 8.328893887589e-02 
1.450000000000e+00 -9.002312117922e+04 8.328502853764e-02 
1.500000000000e+00 -9.003562519164e+04 8.327904948112e-02 
1.550000000000e+00 -9.005466803514e+04 8.326995010021e-02 
1.600000000000e+00 -9.008347471454e+04 8.325619598864e-02 
1.650000000000e+00 -9.012666453304e+04 8.323559300949e-02 
1.700000000000e+00 -9.019068135272e+04 8.320508569825e-02 
1.750000000000e+00 -9.028420840720e+04 8.316056347609e-02 
1.800000000000e+00 -9.041842606687e+04 8.309673962484e-02 
1.850000000000e+00 -9.060688450312e+04 8.300720578983e-02 
1.900000000000e+00 -9.086470564424e+04 8.288478797805e-02 
1.950000000000e+00 -9.120689150990e+04 8.272229894005e-02 
2.000000000000e+00 -9.164582195974e+04 8.263016755015e-02 
 TITLE = "Profiles along polylines"
 VARIABLES = "DIST" "PRESSURE1" "SATURATION1" 
 ZONE T="TIME=3.000000000000e+01"
0.000000000000e+00 -8.796258517437e+03 7.805630953516e-01 
5.000000000000e-02 -9.545834740036e+03 7.751326689731e-01 
1.000000000000e-01 -1.034182830265e+04 7.660736339352e-01 
1.500000000000e-01 -1.114787341071e+04 7.590213185406e-01 
2.000000000000e-01 -1.195905614355e+04 7.521526484295e-01 
2.500000000000e-01 -1.277500891147e+04 4.464887429038e-01 
3.000000000000e-01 -3.368852107687e+04 3.935546522853e-01 
3.500000000000e-01 -7.052124984682e+04 5.185011249688e-01 
4.000000000000e-01 -8.629584943312e+04 3.424780893456e-01 
4.500000000000e-01 -8.957133280017e+04 2.804965508726e-01 
5.000000000000e-01 -8.995831745496e+04 2.689949829848e-01 
5.500000000000e-01 -8.999605546356e+04 2.676736774510e-01 
6.000000000000e-01 -8.999915656892e+04 2.675522862728e-01 
6.500000000000e-01 -8.999616958002e+04 2.675870668340e-01 
7.000000000000e-01 -8.997549348937e+04 1.754668687382e-01 
7.500000000000e-01 -8.998179328818e+04 8.330567497339e-02 
8.000000000000e-01 -8.998679063993e+04 8.330308950276e-02 
8.500000000000e-01 -8.999072206300e+04 8.330104736491e-02 
9.000000000000e-01 -8.999383163905e+04 8.329942983653e-02 
9.500000000000e-01 -8.999636160773e+04 8.329811766464e-02 
1.000000000000e+00 -8.999855106587e+04 8.329699235380e-02 
1.050000000000e+00 -9.000064298689e+04 8.329593341580e-02 
1.100000000000e+00 -9.000289929661e+04 8.329481160747e-02 
1.150000000000e+00 -9.000562405422e+04 8.329347811974e-02 
1.200000000000e+00 -9.000919556945e+04 8.329174935780e-02 
1.250000000000e+00 -9.001410925476e+04 8.328938650869e-02 
1.300000000000e+00 -9.002103395514e+04 8.328606864060e-02 
1.350000000000e+00 -9.003088523748e+04 8.328135771668e-02 
1.400000000000e+00 -9.004491942895e+04 8.327465374832e-02 
1.450000000000e+00 -9.006485171176e+04 8.326513853065e-02 
1.500000000000e+00 -9.009299976068e+04 8.325170725237e-02 
1.550000000000e+00 -9.013245048139e+04 8.323288910755e-02 
1.600000000000e+00 -9.018724045254e+04 8.320676127907e-02 
1.650000000000e+00 -9.026252986991e+04 8.317086567737e-02 
1.700000000000e+00 -9.036473498488e+04 8.312214464962e-02 
1.750000000000e+00 -9.050156675877e+04 8.305691978587e-02 
1.800000000000e+00 -9.068190842735e+04 8.297094475769e-02 
1.850000000000e+00 -9.091546126878e+04 8.285956458322e-02 
1.900000000000e+00 -9.121211034889e+04 8.271800352194e-02 
1.950000000000e+00 -9.158102562252e+04 8.254177551796e-02 
2.000000000000e+00 -9.202962285322e+04 8.244446667085e-02 
 TITLE = "Profiles along polylines"
 VARIABLES = "DIST" "PRESSURE1" "SATURATION1" 
 ZONE T="TIME=4.000000000000e+01"
0.000000000000e+00 -1.230535347338e+04 7.466222485136e-01 
5.000000000000e-02 -1.282044211821e+04 7.443715624806e-01 
1.000000000000e-01 -1.338328286493e+04 7.396688013363e-01 
1.500000000000e-01 -1.399316102821e+04 7.345649159486e-01 
2.000000000000e-01 -1.465033535174e+04 7.290587563815e-01 
2.500000000000e-01 -1.535627289104e+04 4.317052503340e-01 
3.000000000000e-01 -3.128835068061e+04 4.054976217048e-01 
3.500000000000e-01 -6.216026257349e+04 5.644793907435e-01 
4.000000000000e-01 -8.246486344962e+04 3.854675879503e-01 
4.500000000000e-01 -8.882030644517e+04 2.953521908701e-01 
5.000000000000e-01 -8.986376449404e+04 2.716609275202e-01 
5.500000000000e-01 -8.998547628254e+04 2.680037151399e-01 
6.000000000000e-01 -8.999762344356e+04 2.675936575700e-01 
6.500000000000e-01 -8.999405168959e+04 2.676095034350e-01 
7.000000000000e-01 -8.996979582028e+04 1.754829462043e-01 
7.500000000000e-01 -8.997691361809e+04 8.330813093189e-02 
8.000000000000e-01 -8.998288097536e+04 8.330508169823e-02 
8.500000000000e-01 -8.998792076540e+04 8.330250523139e-02 
9.000000000000e-01 -8.999227997884e+04 8.330028195919e-02 
9.500000000000e-01 -8.999622976850e+04 8.329827998218e-02 
1.000000000000e+00 -9.000007086458e+04 8.329635274403e-02 
1.050000000000e+00 -9.000414564342e+04 8.329433356266e-02 
1.100000000000e+00 -9.000885776897e+04 8.329202651898e-02 
1.150000000000e+00 -9.001470021958e+04 8.328919328023e-02 
1.200000000000e+00 -9.002229257900e+04 8.328553542868e-02 
1.250000000000e+00 -9.003242856593e+04 8.328067183519e-02 
1.300000000000e+00 -9.004613473305e+04 8.327411064238e-02 
1.350000000000e+00 -9.006474090396e+04 8.326521558985e-02 
1.400000000000e+00 -9.008996203972e+04 8.325316682000e-02 
1.450000000000e+00 -9.012398963667e+04 8.323691704151e-02 
1.500000000000e+00 -9.016958827179e+04 8.321514508592e-02 
1.550000000000e+00 -9.023018942742e+04 8.318621051895e-02 
1.600000000000e+00 -9.030997032345e+04 8.314811502603e-02 
1.650000000000e+00 -9.041390057337e+04 8.309847859048e-02 
1.700000000000e+00 -9.054773499736e+04 8.303454059022e-02 
1.750000000000e+00 -9.071792849946e+04 8.295319710774e-02 
1.800000000000e+00 -9.093145091135e+04 8.285108489832e-02 
1.850000000000e+00 -9.119548893400e+04 8.272471832008e-02 
1.900000000000e+00 -9.151704111928e+04 8.257067705023e-02 
1.950000000000e+00 -9.190244033177e+04 8.238582956870e-02 
2.000000000000e+00 -9.235687159960e+04 8.228533825262e-02 
 TITLE = "Profiles along polylines"
 VARIABLES = "DIST" "PRESSURE1" "SATURATION1" 
 ZONE T="TIME=5.000000000000e+01"
0.000000000000e+00 -1.380198792745e+04 7.338072050195e-01 
5.000000000000e-02 -1.436236717391e+04 7.313954453917e-01 
1.000000000000e-01 -1.494863335265e+04 7.264591143029e-01 
1.500000000000e-01 -1.556297300319e+04 7.212876953241e-01 
2.000000000000e-01 -1.620771175058e+04 7.158614919283e-01 
2.500000000000e-01 -1.688544068873e+04 4.223163729268e-01 
3.000000000000e-01 -3.109158576677e+04 4.106313182461e-01 
3.500000000000e-01 -5.611971826304e+04 5.966543082674e-01 
4.000000000000e-01 -7.823111561251e+04 4.240958022941e-01 
4.500000000000e-01 -8.757527599972e+04 3.137563465348e-01 
5.000000000000e-01 -8.966578780890e+04 2.762757130617e-01 
5.500000000000e-01 -8.996006394557e+04 2.687097630694e-01 
6.000000000000e-01 -8.999408472961e+04 2.676885181006e-01 
6.500000000000e-01 -8.999157628599e+04 2.676384201711e-01 
7.000000000000e-01 -8.996481560796e+04 1.754988299591e-01 
7.500000000000e-01 -8.997291686068e+04 8.331016515048e-02 
8.000000000000e-01 -8.998002967832e+04 8.330656282761e-02 
8.500000000000e-01 -8.998640965879e+04 8.330333922818e-02 
9.000000000000e-01 -8.999234747552e+04 8.330035350990e-02 
9.500000000000e-01 -8.999817711730e+04 8.329744387798e-02 
1.000000000000e+00 -9.000428793649e+04 8.329442186104e-02 
1.050000000000e+00 -9.001114181571e+04 8.329106420242e-02 
1.100000000000e+00 -9.001929643569e+04 8.328710185398e-02 
1.150000000000e+00 -9.002943532955e+04 8.328220571115e-02 
1.200000000000e+00 -9.004240510916e+04 8.327596888032e-02 
1.250000000000e+00 -9.005925987974e+04 8.326788545311e-02 
1.300000000000e+00 -9.008131233609e+04 8.325732601314e-02 
1.350000000000e+00 -9.011019027560e+04 8.324351046036e-02 
1.400000000000e+00 -9.014789620361e+04 8.322547923644e-02 
1.450000000000e+00 -9.019686632215e+04 8.320206468638e-02 
1.500000000000e+00 -9.026002352391e+04 8.317186507793e-02 
1.550000000000e+00 -9.034081719848e+04 8.313322465947e-02 
1.600000000000e+00 -9.044324096721e+04 8.308422394471e-02 
1.650000000000e+00 -9.057181831960e+04 8.302268497249e-02 
1.700000000000e+00 -9.073154610443e+04 8.294619633658e-02 
1.750000000000e+00 -9.092778761049e+04 8.285216199753e-02 
1.800000000000e+00 -9.116611120900e+04 8.273787597251e-02 
1.850000000000e+00 -9.145207761695e+04 8.260062176163e-02 
1.900000000000e+00 -9.179098857700e+04 8.243779089353e-02 
1.950000000000e+00 -9.218762093720e+04 8.224700978911e-02 
2.000000000000e+00 -9.264598027903e+04 8.214435365043e-02 
 TITLE = "Profiles along polylines"
 VARIABLES = "DIST" "PRESSURE1" "SATURATION1" 
 ZONE T="TIME=6.000000000000e+01"
0.000000000000e+00 2.056557265106e+04 1.000000000000e+00 
5.000000000000e-02 1.835825637045e+04 1.000000000000e+00 
1.000000000000e-01 1.617467363834e+04 1.000000000000e+00 
1.500000000000e-01 1.416379221999e+04 1.000000000000e+00 
2.000000000000e-01 1.231682215447e+04 1.000000000000e+00 
2.500000000000e-01 1.062990215920e+04 1.000000000000e+00 
3.000000000000e-01 2.689395301974e+03 9.886062180521e-01 
3.500000000000e-01 -6.079881610507e+03 8.983799778274e-01 
4.000000000000e-01 -3.613131077933e+04 7.192290594166e-01 
4.500000000000e-01 -7.600209257259e+04 4.878476733924e-01 
5.000000000000e-01 -8.792665290469e+04 3.186351081422e-01 
5.500000000000e-01 -8.978243506057e+04 2.746892442283e-01 
6.000000000000e-01 -8.997631759943e+04 2.683006413094e-01 
6.500000000000e-01 -8.998769203001e+04 2.677151740438e-01 
7.000000000000e-01 -8.996028652902e+04 1.755180826041e-01 
7.500000000000e-01 -8.996976658855e+04 8.331181648407e-02 
8.000000000000e-01 -8.997840494318e+04 8.330746930114e-02 
8.500000000000e-01 -8.998653232617e+04 8.330339748131e-02 
9.000000000000e-01 -8.999451869859e+04 8.329942090789e-02 
9.500000000000e-01 -9.000278876423e+04 8.329533362426e-02 
1.000000000000e+00 -9.001183959380e+04 8.329089524013e-02 
1.050000000000e+00 -9.002226150066e+04 8.328582086268e-02 
1.100000000000e+00 -9.003476292871e+04 8.327976914906e-02 
1.150000000000e+00 -9.005019970614e+04 8.327232827617e-02 
1.200000000000e+00 -9.006960856970e+04 8.326299984341e-02 
1.250000000000e+00 -9.009424434931e+04 8.325118097346e-02 
1.300000000000e+00 -9.012561959932e+04 8.323614516726e-02 
1.350000000000e+00 -9.016554475942e+04 8.321702280593e-02 
1.400000000000e+00 -9.021616613764e+04 8.319278257055e-02 
1.450000000000e+00 -9.027999817674e+04 8.316221544897e-02 
1.500000000000e+00 -9.035994568471e+04 8.312392337555e-02 
1.550000000000e+00 -9.045931111867e+04 8.307631484136e-02 
1.600000000000e+00 -9.058178179487e+04 8.301760993190e-02 
1.650000000000e+00 -9.073139226880e+04 8.294585709725e-02 
1.700000000000e+00 -9.091245830627e+04 8.285896343296e-02 
1.750000000000e+00 -9.112948101423e+04 8.275473926776e-02 
1.800000000000e+00 -9.138702287438e+04 8.263095638801e-02 
1.850000000000e+00 -9.168956148564e+04 8.248541733460e-02 
1.900000000000e+00 -9.204133137472e+04 8.231603106468e-02 
1.950000000000e+00 -9.244616858123e+04 8.212088819190e-02 
2.000000000000e+00 -9.290737592326e+04 8.201665256906e-02 
 TITLE = "Profiles along polylines"
 VARIABLES = "DIST" "PRESSURE1" "SATURATION1" 
 ZONE T="TIME=7.000000000000e+01"
0.000000000000e+00 3.263123612029e+03 1.000000000000e+00 
5.000000000000e-02 2.768780871181e+03 1.000000000000e+00 
1.000000000000e-01 2.273573875224e+03 1.000000000000e+00 
1.500000000000e-01 1.777609441442e+03 1.000000000000e+00 
2.000000000000e-01 1.280988691329e+03 1.000000000000e+00 
2.500000000000e-01 7.838072293868e+02 1.000000000000e+00 
3.000000000000e-01 2.932193688021e+02 9.994019424984e-01 
3.500000000000e-01 -2.010702491916e+02 9.886648497243e-01 
4.000000000000e-01 -6.975189484473e+02 9.643440925554e-01 
4.500000000000e-01 -1.199972616318e+03 9.417695650107e-01 
5.000000000000e-01 -1.714703999458e+03 8.764331999817e-01 
5.500000000000e-01 -4.390773566139e+04 6.855725041120e-01 
6.000000000000e-01 -8.646428277485e+04 4.202695285398e-01 
6.500000000000e-01 -8.987785045751e+04 2.786426796539e-01 
7.000000000000e-01 -8.995102047322e+04 1.758597830527e-01 
7.500000000000e-01 -8.996503446116e+04 8.331464214560e-02 
8.000000000000e-01 -8.997668185908e+04 8.330860257428e-02 
8.500000000000e-01 -8.998734852103e+04 8.330320125967e-02 
9.000000000000e-01 -8.999790869368e+04 8.329793827512e-02 
9.500000000000e-01 -9.000906323168e+04 8.329244156198e-02 
1.000000000000e+00 -9.002149736330e+04 8.328636597912e-02 
1.050000000000e+00 -9.003596179081e+04 8.327934340351e-02 
1.100000000000e+00 -9.005332225186e+04 8.327095418004e-02 
1.150000000000e+00 -9.007459672938e+04 8.326070716586e-02 
1.200000000000e+00 -9.010098800625e+04 8.324802312462e-02 
1.250000000000e+00 -9.013391404559e+04 8.323221960012e-02 
1.300000000000e+00 -9.017503616687e+04 8.321249698140e-02 
1.350000000000e+00 -9.022628365733e+04 8.318792627344e-02 
1.400000000000e+00 -9.028987268928e+04 8.315743953077e-02 
1.450000000000e+00 -9.036831698282e+04 8.311982415482e-02 
1.500000000000e+00 -9.046442751246e+04 8.307372234710e-02 
1.550000000000e+00 -9.058129872805e+04 8.301763694849e-02 
1.600000000000e+00 -9.072227928474e+04 8.294994466305e-02 
1.650000000000e+00 -9.089092618042e+04 8.286891725257e-02 
1.700000000000e+00 -9.109094247197e+04 8.277275069669e-02 
1.750000000000e+00 -9.132610031950e+04 8.265960157224e-02 
1.800000000000e+00 -9.160015287009e+04 8.252762906745e-02 
1.850000000000e+00 -9.191674026398e+04 8.237504019315e-02 
1.900000000000e+00 -9.227929661623e+04 8.220013498076e-02 
1.950000000000e+00 -9.269096598763e+04 8.200134786562e-02 
2.000000000000e+00 -9.315453594647e+04 8.189579773908e-02 
 TITLE = "Profiles along polylines"
 VARIABLES = "DIST" "PRESSURE1" "SATURATION1" 
 ZONE T="TIME=8.000000000000e+01"
0.000000000000e+00 1.183264306001e+03 1.000000000000e+00 
5.000000000000e-02 6.922194674231e+02 1.000000000000e+00 
1.000000000000e-01 2.000866795229e+02 9.991116907291e-01 
1.500000000000e-01 -2.931324470649e+02 9.889223553516e-01 
2.000000000000e-01 -7.874364740225e+02 9.687348281222e-01 
2.500000000000e-01 -1.284493420288e+03 9.225830327596e-01 
3.000000000000e-01 -1.775159616352e+03 9.038660419566e-01 
3.500000000000e-01 -2.278188027359e+03 9.165721704812e-01 
4.000000000000e-01 -2.805064137043e+03 9.090043118740e-01 
4.500000000000e-01 -3.401831870819e+03 9.016734979156e-01 
5.000000000000e-01 -4.188104873115e+03 8.899244315710e-01 
5.500000000000e-01 -7.737020166826e+03 8.343419624790e-01 
6.000000000000e-01 -5.136142109253e+04 6.513872855477e-01 
6.500000000000e-01 -8.361246561036e+04 4.123769873986e-01 
7.000000000000e-01 -8.884385824199e+04 1.963397627717e-01 
7.500000000000e-01 -8.926052351888e+04 8.370616399855e-02 
8.000000000000e-01 -8.953095056100e+04 8.355677383145e-02 
8.500000000000e-01 -8.970776261839e+04 8.345926560598e-02 
9.000000000000e-01 -8.982533103934e+04 8.339471513263e-02 
9.500000000000e-01 -8.990602644865e+04 8.335078088022e-02 
1.000000000000e+00 -8.996446708273e+04 8.331940217028e-02 
1.050000000000e+00 -9.001033594845e+04 8.329525810399e-02 
1.100000000000e+00 -9.005022204567e+04 8.327475447689e-02 
1.150000000000e+00 -9.008881431724e+04 8.325536469198e-02 
1.200000000000e+00 -9.012967320006e+04 8.323520321056e-02 
1.250000000000e+00 -9.017572872828e+04 8.321275008234e-02 
1.300000000000e+00 -9.022960175785e+04 8.318667330676e-02 
1.350000000000e+00 -9.029380992795e+04 8.315571484305e-02 
1.400000000000e+00 -9.037089713749e+04 8.311861864311e-02 
1.450000000000e+00 -9.046351064451e+04 8.307408719470e-02 
1.500000000000e+00 -9.057444065704e+04 8.302075820569e-02 
1.550000000000e+00 -9.070663163696e+04 8.295719623272e-02 
1.600000000000e+00 -9.086317127319e+04 8.288189592552e-02 