 TITLE = "Profiles along polylines"
 VARIABLES = "DIST" "PRESSURE1" "SATURATION1" 
 ZONE T="TIME=0.000000000000e+00"
0.000000000000e+00 -9.000000000000e+04 3.601056880734e-01 
5.000000000000e-02 -9.000000000000e+04 3.601056880734e-01 
1.000000000000e-01 -9.000000000000e+04 3.601056880734e-01 
1.500000000000e-01 -9.000000000000e+04 3.601056880734e-01 
2.000000000000e-01 -9.000000000000e+04 3.601056880734e-01 
2.500000000000e-01 -9.000000000000e+04 3.601056880734e-01 
3.000000000000e-01 -9.000000000000e+04 3.601056880734e-01 
3.500000000000e-01 -9.000000000000e+04 3.601056880734e-01 
4.000000000000e-01 -9.000000000000e+04 2.217008899083e-01 
4.500000000000e-01 -9.000000000000e+04 8.329609174312e-02 
5.000000000000e-01 -9.000000000000e+04 8.329609174312e-02 
5.500000000000e-01 -9.000000000000e+04 8.329609174312e-02 
6.000000000000e-01 -9.000000000000e+04 9.913826605505e-02 
6.500000000000e-01 -9.000000000000e+04 1.149804403670e-01 
7.000000000000e-01 -9.000000000000e+04 1.149804403670e-01 
7.500000000000e-01 -9.000000000000e+04 1.149804403670e-01 
8.000000000000e-01 -9.000000000000e+04 1.149804403670e-01 
8.500000000000e-01 -9.000000000000e+04 1.149804403670e-01 
9.000000000000e-01 -9.000000000000e+04 1.149804403670e-01 
9.500000000000e-01 -9.000000000000e+04 1.149804403670e-01 
1.000000000000e+00 -9.000000000000e+04 1.149804403670e-01 
1.050000000000e+00 -9.000000000000e+04 1.149804403670e-01 
1.100000000000e+00 -9.000000000000e+04 9.913826605505e-02 
1.150000000000e+00 -9.000000000000e+04 8.329609174312e-02 
1.200000000000e+00 -9.000000000000e+04 8.329609174312e-02 
1.250000000000e+00 -9.000000000000e+04 8.329609174312e-02 
1.300000000000e+00 -9.000000000000e+04 8.329609174312e-02 
1.350000000000e+00 -9.000000000000e+04 8.329609174312e-02 
1.400000000000e+00 -9.000000000000e+04 8.329609174312e-02 
1.450000000000e+00 -9.000000000000e+04 8.329609174312e-02 
1.500000000000e+00 -9.000000000000e+04 8.329609174312e-02 
1.550000000000e+00 -9.000000000000e+04 8.329609174312e-02 
1.600000000000e+00 -9.000000000000e+04 8.329609174312e-02 
1.650000000000e+00 -9.000000000000e+04 8.329609174312e-02 
1.700000000000e+00 -9.000000000000e+04 8.329609174312e-02 
1.750000000000e+00 -9.000000000000e+04 8.329609174312e-02 
1.800000000000e+00 -9.000000000000e+04 8.329609174312e-02 
1.850000000000e+00 -9.000000000000e+04 8.329609174312e-02 
1.900000000000e+00 -9.000000000000e+04 8.329609174312e-02 
1.950000000000e+00 -9.000000000000e+04 8.329609174312e-02 
2.000000000000e+00 -9.000000000000e+04 8.329609174312e-02 
 TITLE = "Profiles along polylines"
 VARIABLES = "DIST" "PRESSURE1" "SATURATION1" 
 ZONE T="TIME=5.000000000000e-01"
0.000000000000e+00 -8.354771555276e+04 3.774057334660e-01 
5.000000000000e-02 -8.759852224034e+04 3.719522543013e-01 
1.000000000000e-01 -8.914673401041e+04 3.644338212921e-01 
1.500000000000e-01 -8.970420607184e+04 3.616267587897e-01 
2.000000000000e-01 -8.990240876248e+04 3.606168301443e-01 
2.500000000000e-01 -8.997990563177e+04 3.602321078897e-01 
3.000000000000e-01 -9.003176817758e+04 3.600060286188e-01 
3.500000000000e-01 -9.012122966727e+04 3.596624602449e-01 
4.000000000000e-01 -9.035705765119e+04 2.212986924258e-01 
4.500000000000e-01 -9.005873472784e+04 8.322220162744e-02 
5.000000000000e-01 -9.001057789762e+04 8.328327643115e-02 
5.500000000000e-01 -9.000704618082e+04 8.328994684892e-02 
6.000000000000e-01 -9.003262663179e+04 9.911240056144e-02 
6.500000000000e-01 -9.000045659520e+04 1.149580983357e-01 
7.000000000000e-01 -9.000000639239e+04 1.149801276976e-01 
7.500000000000e-01 -9.000000008949e+04 1.149804359896e-01 
8.000000000000e-01 -9.000000000125e+04 1.149804403057e-01 
8.500000000000e-01 -9.000000000000e+04 1.149804403666e-01 
9.000000000000e-01 -8.999999999866e+04 1.149804403998e-01 
9.500000000000e-01 -8.999999990611e+04 1.149804426736e-01 
1.000000000000e+00 -8.999999340541e+04 1.149806023711e-01 
1.050000000000e+00 -8.999953683526e+04 1.149918143489e-01 
1.100000000000e+00 -8.996748266712e+04 9.915525472987e-02 
1.150000000000e+00 -8.999463062955e+04 8.330281962574e-02 
1.200000000000e+00 -8.999911378317e+04 8.329720257102e-02 
1.250000000000e+00 -8.999985374022e+04 8.329627508293e-02 
1.300000000000e+00 -8.999997586182e+04 8.329612200115e-02 
1.350000000000e+00 -8.999999601634e+04 8.329609673678e-02 
1.400000000000e+00 -8.999999934264e+04 8.329609256719e-02 
1.450000000000e+00 -8.999999989202e+04 8.329609187873e-02 
1.500000000000e+00 -8.999999998519e+04 8.329609176321e-02 
1.550000000000e+00 -9.000000001543e+04 8.329609173284e-02 
1.600000000000e+00 -9.000000010862e+04 8.329609166077e-02 
1.650000000000e+00 -9.000000064726e+04 8.329609125102e-02 
1.700000000000e+00 -9.000000384079e+04 8.329608882285e-02 
1.750000000000e+00 -9.000002278815e+04 8.329607441654e-02 
1.800000000000e+00 -9.000013520640e+04 8.329598894058e-02 
1.850000000000e+00 -9.000080221356e+04 8.329548176565e-02 
1.900000000000e+00 -9.000476003200e+04 8.329247151613e-02 
1.950000000000e+00 -9.002825470979e+04 8.327457251052e-02 
2.000000000000e+00 -9.016808676343e+04 8.325924972704e-02 
 TITLE = "Profiles along polylines"
 VARIABLES = "DIST" "PRESSURE1" "SATURATION1" 
 ZONE T="TIME=1.000000000000e+00"
0.000000000000e+00 -8.528561131322e+04 3.739815371373e-01 
5.000000000000e-02 -8.715225506868e+04 3.710653799459e-01 
1.000000000000e-01 -8.857905089956e+04 3.660924678861e-01 
1.500000000000e-01 -8.936484691090e+04 3.629321064938e-01 
2.000000000000e-01 -8.974606513336e+04 3.612905398192e-01 
2.500000000000e-01 -8.993553869539e+04 3.604631092908e-01 
3.000000000000e-01 -9.006880376571e+04 3.599233072258e-01 
3.500000000000e-01 -9.024523066909e+04 3.592891099280e-01 
4.000000000000e-01 -9.057161958225e+04 2.209957518302e-01 
4.500000000000e-01 -9.013594045615e+04 8.316623135057e-02 
5.000000000000e-01 -9.003224850375e+04 8.326419728864e-02 
5.500000000000e-01 -9.002024332347e+04 8.328066168369e-02 
6.000000000000e-01 -9.006290238195e+04 9.908715778556e-02 
6.500000000000e-01 -9.000132384185e+04 1.149369157812e-01 
7.000000000000e-01 -9.000002474816e+04 1.149795275109e-01 
7.500000000000e-01 -9.000000043348e+04 1.149804233315e-01 
8.000000000000e-01 -9.000000000728e+04 1.149804400689e-01 
8.500000000000e-01 -8.999999999999e+04 1.149804403647e-01 
9.000000000000e-01 -8.999999999224e+04 1.149804405270e-01 
9.500000000000e-01 -8.999999954606e+04 1.149804493699e-01 
1.000000000000e+00 -8.999997452850e+04 1.149809151791e-01 
1.050000000000e+00 -8.999866131553e+04 1.150027113220e-01 
1.100000000000e+00 -8.993764952181e+04 9.917145808507e-02 
1.150000000000e+00 -8.998586566056e+04 8.331004060506e-02 
1.200000000000e+00 -8.999703395768e+04 8.329918881966e-02 
1.250000000000e+00 -8.999940602918e+04 8.329673388623e-02 
1.300000000000e+00 -8.999988473547e+04 8.329621933108e-02 
1.350000000000e+00 -8.999997813259e+04 8.329611636575e-02 
1.400000000000e+00 -8.999999592249e+04 8.329609639462e-02 
1.450000000000e+00 -8.999999925445e+04 8.329609260438e-02 
1.500000000000e+00 -8.999999989090e+04 8.329609188195e-02 
1.550000000000e+00 -9.000000012569e+04 8.329609166368e-02 
1.600000000000e+00 -9.000000080975e+04 8.329609116504e-02 
1.650000000000e+00 -9.000000436754e+04 8.329608863484e-02 
1.700000000000e+00 -9.000002317522e+04 8.329607538116e-02 
1.750000000000e+00 -9.000012123072e+04 8.329600703610e-02 
1.800000000000e+00 -9.000062273879e+04 8.329566255795e-02 
1.850000000000e+00 -9.000312211678e+04 8.329398054690e-02 
1.900000000000e+00 -9.001512870763e+04 8.328614308023e-02 
1.950000000000e+00 -9.006966765870e+04 8.325227681030e-02 
2.000000000000e+00 -9.029494852109e+04 8.322485325659e-02 
 TITLE = "Profiles along polylines"
 VARIABLES = "DIST" "PRESSURE1" "SATURATION1" 
 ZONE T="TIME=5.000000000000e+00"
0.000000000000e+00 -3.483423687316e+04 5.771136727381e-01 
5.000000000000e-02 -3.796996877307e+04 5.645144738039e-01 
1.000000000000e-01 -4.443786719280e+04 5.305300063760e-01 
1.500000000000e-01 -5.389964366982e+04 4.907181767198e-01 
2.000000000000e-01 -6.294530603899e+04 4.578928683087e-01 
2.500000000000e-01 -7.033228406200e+04 4.320021485066e-01 
3.000000000000e-01 -7.589314957985e+04 4.121651377450e-01 
3.500000000000e-01 -7.953780108769e+04 3.987564183764e-01 
4.000000000000e-01 -8.120858324229e+04 2.402282014854e-01 
4.500000000000e-01 -8.644381968589e+04 8.571888498838e-02 
5.000000000000e-01 -8.871172527061e+04 8.422515579436e-02 
5.500000000000e-01 -8.964967009763e+04 8.358355248901e-02 
6.000000000000e-01 -9.012270456829e+04 9.909855736491e-02 
6.500000000000e-01 -9.001437918782e+04 1.148833208670e-01 
7.000000000000e-01 -9.000108757540e+04 1.149696798574e-01 
7.500000000000e-01 -9.000006938863e+04 1.149796398438e-01 
8.000000000000e-01 -9.000000404064e+04 1.149803897877e-01 
8.500000000000e-01 -8.999999994079e+04 1.149804394218e-01 
9.000000000000e-01 -8.999999491516e+04 1.149804749273e-01 
9.500000000000e-01 -8.999991230559e+04 1.149810059347e-01 
1.000000000000e+00 -8.999858659062e+04 1.149887486817e-01 
1.050000000000e+00 -8.997963817546e+04 1.150816825530e-01 
1.100000000000e+00 -8.976198315131e+04 9.928042053640e-02 
1.150000000000e+00 -8.988241216370e+04 8.336851382968e-02 
1.200000000000e+00 -8.994579861175e+04 8.333066111231e-02 
1.250000000000e+00 -8.997629647695e+04 8.331163207475e-02 
1.300000000000e+00 -8.999003950363e+04 8.330276340524e-02 
1.350000000000e+00 -8.999594500376e+04 8.329885424061e-02 
1.400000000000e+00 -8.999840452432e+04 8.329719617720e-02 
1.450000000000e+00 -8.999943072440e+04 8.329649969205e-02 
1.500000000000e+00 -8.999992490418e+04 8.329617537367e-02 
1.550000000000e+00 -9.000034418202e+04 8.329593076646e-02 
1.600000000000e+00 -9.000108033644e+04 8.329554009010e-02 
1.650000000000e+00 -9.000279659747e+04 8.329465510115e-02 
1.700000000000e+00 -9.000696563923e+04 8.329252842853e-02 
1.750000000000e+00 -9.001695522189e+04 8.328747951331e-02 
1.800000000000e+00 -9.004020675270e+04 8.327585629726e-02 
1.850000000000e+00 -9.009218782149e+04 8.325022430847e-02 
1.900000000000e+00 -9.020225685306e+04 8.319685277350e-02 
1.950000000000e+00 -9.041881438935e+04 8.309391261879e-02 
2.000000000000e+00 -9.080409061478e+04 8.302678951600e-02 
 TITLE = "Profiles along polylines"
 VARIABLES = "DIST" "PRESSURE1" "SATURATION1" 
 ZONE T="TIME=1.000000000000e+01"
0.000000000000e+00 -4.751332542293e+04 5.056383990367e-01 
5.000000000000e-02 -4.874700178398e+04 5.013135620082e-01 
1.000000000000e-01 -5.140006280557e+04 4.919542500420e-01 
1.500000000000e-01 -5.500234609042e+04 4.806264444729e-01 
2.000000000000e-01 -5.893370547561e+04 4.677729070056e-01 
2.500000000000e-01 -6.267914490523e+04 4.551843097390e-01 
3.000000000000e-01 -6.585538547670e+04 4.442567397415e-01 
3.500000000000e-01 -6.817190713892e+04 4.360282880690e-01 
4.000000000000e-01 -6.942994594925e+04 2.624362216770e-01 
4.500000000000e-01 -7.702212233182e+04 9.049150375041e-02 
5.000000000000e-01 -8.234444482025e+04 8.764383708504e-02 
5.500000000000e-01 -8.591299780295e+04 8.569471104957e-02 
6.000000000000e-01 -8.832720594357e+04 1.011285861930e-01 
6.500000000000e-01 -8.981847940636e+04 1.162914851791e-01 
7.000000000000e-01 -8.998029127223e+04 1.151227296230e-01 
7.500000000000e-01 -8.999782575457e+04 1.149959268168e-01 
8.000000000000e-01 -8.999975578312e+04 1.149821579461e-01 
8.500000000000e-01 -8.999995889735e+04 1.149806862574e-01 
9.000000000000e-01 -8.999987843600e+04 1.149809241345e-01 
9.500000000000e-01 -8.999900418331e+04 1.149842242914e-01 
1.000000000000e+00 -8.999194598331e+04 1.150094244973e-01 
1.050000000000e+00 -8.993971586616e+04 1.151747411989e-01 
1.100000000000e+00 -8.961750748577e+04 9.938901426899e-02 
1.150000000000e+00 -8.976444027906e+04 8.342822344830e-02 
1.200000000000e+00 -8.986066241670e+04 8.337556135590e-02 
1.250000000000e+00 -8.992020738269e+04 8.334222671608e-02 
1.300000000000e+00 -8.995555726313e+04 8.332208289478e-02 
1.350000000000e+00 -8.997601909058e+04 8.331027796170e-02 
1.400000000000e+00 -8.998786423941e+04 8.330341125770e-02 
1.450000000000e+00 -8.999512669686e+04 8.329924324210e-02 
1.500000000000e+00 -9.000046711414e+04 8.329629058063e-02 
1.550000000000e+00 -9.000592095862e+04 8.329344602514e-02 
1.600000000000e+00 -9.001356053115e+04 8.328963596876e-02 
1.650000000000e+00 -9.002618783215e+04 8.328346986664e-02 
1.700000000000e+00 -9.004820632893e+04 8.327281427977e-02 
1.750000000000e+00 -9.008681334721e+04 8.325422752648e-02 
1.800000000000e+00 -9.015357231319e+04 8.322223396745e-02 
1.850000000000e+00 -9.026615944739e+04 8.316854522052e-02 
1.900000000000e+00 -9.044947445464e+04 8.308161029163e-02 
1.950000000000e+00 -9.073430004699e+04 8.294729137977e-02 
2.000000000000e+00 -9.115086231497e+04 8.286640378099e-02 
 TITLE = "Profiles along polylines"
 VARIABLES = "DIST" "PRESSURE1" "SATURATION1" 
 ZONE T="TIME=2.000000000000e+01"
0.000000000000e+00 -3.372141986806e+04 5.834167037931e-01 
5.000000000000e-02 -3.700902734666e+04 5.737217390389e-01 
1.000000000000e-01 -4.023663146973e+04 5.544789285305e-01 
1.500000000000e-01 -4.343548663793e+04 5.354731372874e-01 
2.000000000000e-01 -4.660093932978e+04 5.166922168960e-01 
2.500000000000e-01 -4.969672487063e+04 5.006123556347e-01 
3.000000000000e-01 -5.227273409725e+04 4.898991656116e-01 
3.500000000000e-01 -5.412131790744e+04 4.832391996934e-01 
4.000000000000e-01 -5.520822797631e+04 2.897854929569e-01 
4.500000000000e-01 -6.363332683988e+04 9.708352998732e-02 
5.000000000000e-01 -7.058168784348e+04 9.352269980297e-02 
5.500000000000e-01 -7.630145074011e+04 9.059063717554e-02 
6.000000000000e-01 -8.099430205540e+04 1.088267882168e-01 
6.500000000000e-01 -8.802192068408e+04 1.231422952415e-01 
7.000000000000e-01 -8.960497182933e+04 1.167300064454e-01 
7.500000000000e-01 -8.992360607113e+04 1.153271231806e-01 
8.000000000000e-01 -8.998534456814e+04 1.150474454393e-01 
8.500000000000e-01 -8.999692852018e+04 1.149940366712e-01 
9.000000000000e-01 -8.999797777449e+04 1.149870417909e-01 
9.500000000000e-01 -8.999252256357e+04 1.150010384045e-01 
1.000000000000e+00 -8.996504833796e+04 1.150720925473e-01 
1.050000000000e+00 -8.984648047749e+04 1.153543955502e-01 
1.100000000000e+00 -8.941523540669e+04 9.956752349103e-02 
1.150000000000e+00 -8.958183703467e+04 8.351879737731e-02 
1.200000000000e+00 -8.970870330333e+04 8.345256776367e-02 
1.250000000000e+00 -8.980239876782e+04 8.340313437919e-02 
1.300000000000e+00 -8.987029112441e+04 8.336703024612e-02 
1.350000000000e+00 -8.991941893145e+04 8.334080723134e-02 
1.400000000000e+00 -8.995597211839e+04 8.332135297048e-02 
1.450000000000e+00 -8.998525095176e+04 8.330596528157e-02 
1.500000000000e+00 -9.001192083956e+04 8.329226216521e-02 
1.550000000000e+00 -9.004042729947e+04 8.327799687024e-02 
1.600000000000e+00 -9.007549623720e+04 8.326082153438e-02 
1.650000000000e+00 -9.012268496151e+04 8.323802223270e-02 
1.700000000000e+00 -9.018895897616e+04 8.320624130853e-02 
1.750000000000e+00 -9.028324502431e+04 8.316121240960e-02 
1.800000000000e+00 -9.041684891581e+04 8.309756091039e-02 
1.850000000000e+00 -9.060352928529e+04 8.300876532949e-02 
1.900000000000e+00 -9.085891107826e+04 8.288742046231e-02 
1.950000000000e+00 -9.119888935888e+04 8.272595045646e-02 
2.000000000000e+00 -9.163689681897e+04 8.263425689361e-02 
 TITLE = "Profiles along polylines"
 VARIABLES = "DIST" "PRESSURE1" "SATURATION1" 
 ZONE T="TIME=3.000000000000e+01"
0.000000000000e+00 -3.251988903473e+04 5.931192480791e-01 
5.000000000000e-02 -3.450684754695e+04 5.871979666076e-01 
1.000000000000e-01 -3.652008493308e+04 5.753151944294e-01 
1.500000000000e-01 -3.852142112551e+04 5.634748678224e-01 
2.000000000000e-01 -4.046298538239e+04 5.519580520755e-01 
2.500000000000e-01 -4.228055798696e+04 5.411368114615e-01 
3.000000000000e-01 -4.388633616806e+04 5.314947313796e-01 
3.500000000000e-01 -4.518320249342e+04 5.235832663361e-01 
4.000000000000e-01 -4.608052548724e+04 3.123593801935e-01 
4.500000000000e-01 -5.386139114726e+04 1.022275930166e-01 
5.000000000000e-01 -6.125741671950e+04 9.813157024800e-02 
5.500000000000e-01 -6.762497235331e+04 9.490068759639e-02 
6.000000000000e-01 -7.312244771070e+04 1.171825942716e-01 
6.500000000000e-01 -8.501651876616e+04 1.317343277155e-01 
7.000000000000e-01 -8.874132868342e+04 1.196869490902e-01 
7.500000000000e-01 -8.970700789941e+04 1.161413071286e-01 
8.000000000000e-01 -8.993432825813e+04 1.152481375457e-01 
8.500000000000e-01 -8.998466048937e+04 1.150424872101e-01 
9.000000000000e-01 -8.999232304342e+04 1.150049687444e-01 
9.500000000000e-01 -8.998056022660e+04 1.150292149531e-01 
1.000000000000e+00 -8.992821540116e+04 1.151489653616e-01 
1.050000000000e+00 -8.975165029127e+04 1.155266882672e-01 
1.100000000000e+00 -8.925957251068e+04 9.972078922036e-02 
1.150000000000e+00 -8.943628061945e+04 8.359062961230e-02 
1.200000000000e+00 -8.958089144902e+04 8.351652155522e-02 
1.250000000000e+00 -8.969719735374e+04 8.345656558908e-02 
1.300000000000e+00 -8.979006472643e+04 8.340850091252e-02 
1.350000000000e+00 -8.986487426038e+04 8.336975323943e-02 
1.400000000000e+00 -8.992713779979e+04 8.333763489086e-02 
1.450000000000e+00 -8.998232766564e+04 8.330944827089e-02 
1.500000000000e+00 -9.003589335798e+04 8.328249715476e-02 
1.550000000000e+00 -9.009341516878e+04 8.325402684490e-02 
1.600000000000e+00 -9.016083957929e+04 8.322111943315e-02 
1.650000000000e+00 -9.024474284707e+04 8.318057090073e-02 
1.700000000000e+00 -9.035256789528e+04 8.312877745786e-02 
1.750000000000e+00 -9.049277226353e+04 8.306166147226e-02 
1.800000000000e+00 -9.067481358481e+04 8.297467191072e-02 
1.850000000000e+00 -9.090889186968e+04 8.286289683098e-02 
1.900000000000e+00 -9.120538015454e+04 8.272131918233e-02 
1.950000000000e+00 -9.157392916685e+04 8.254522224707e-02 
2.000000000000e+00 -9.202234873056e+04 8.244798805221e-02 
 TITLE = "Profiles along polylines"
 VARIABLES = "DIST" "PRESSURE1" "SATURATION1" 
 ZONE T="TIME=4.000000000000e+01"
0.000000000000e+00 -3.733762619923e+04 5.673088883103e-01 
5.000000000000e-02 -3.792012035764e+04 5.654461174606e-01 
1.000000000000e-01 -3.863862580182e+04 5.613599153027e-01 
1.500000000000e-01 -3.944978140035e+04 5.566794173668e-01 
2.000000000000e-01 -4.031187115068e+04 5.516547617591e-01 
2.500000000000e-01 -4.118384448614e+04 5.465299272365e-01 
3.000000000000e-01 -4.202559214564e+04 5.415417035749e-01 
3.500000000000e-01 -4.280011903643e+04 5.369088526376e-01 
4.000000000000e-01 -4.347743341840e+04 3.218465966294e-01 
4.500000000000e-01 -4.837846831951e+04 1.058203585761e-01 
5.000000000000e-01 -5.523037294128e+04 1.010307415212e-01 
5.500000000000e-01 -6.132411167285e+04 9.796259743539e-02 
6.000000000000e-01 -6.674710696717e+04 1.241933859516e-01 
6.500000000000e-01 -8.150106119998e+04 1.399946759664e-01 
7.000000000000e-01 -8.740398934785e+04 1.235277566034e-01 
7.500000000000e-01 -8.929570680444e+04 1.174900581061e-01 
8.000000000000e-01 -8.982060251810e+04 1.156487197076e-01 
8.500000000000e-01 -8.995380520435e+04 1.151539950508e-01 
9.000000000000e-01 -8.997979652621e+04 1.150442789608e-01 
9.500000000000e-01 -8.996261759844e+04 1.150702883441e-01 
1.000000000000e+00 -8.988460534934e+04 1.152355552288e-01 
1.050000000000e+00 -8.966013338641e+04 1.156902593140e-01 
1.100000000000e+00 -8.913353416959e+04 9.985483135081e-02 
1.150000000000e+00 -8.931765041371e+04 8.364916218294e-02 
1.200000000000e+00 -8.947520660083e+04 8.356922415097e-02 
1.250000000000e+00 -8.960894151149e+04 8.350115327019e-02 
1.300000000000e+00 -8.972257138572e+04 8.344322253041e-02 
1.350000000000e+00 -8.982052633054e+04 8.339332882645e-02 
1.400000000000e+00 -8.990772543128e+04 8.334910362371e-02 
1.450000000000e+00 -8.998942932421e+04 8.330799114022e-02 
1.500000000000e+00 -9.007117903009e+04 8.326728665046e-02 
1.550000000000e+00 -9.015880729268e+04 8.322413912001e-02 
1.600000000000e+00 -9.025849477304e+04 8.317553009012e-02 
1.650000000000e+00 -9.037683623838e+04 8.311824502041e-02 
1.700000000000e+00 -9.052087900670e+04 8.304885516355e-02 
1.750000000000e+00 -9.069809622720e+04 8.296372809821e-02 
1.800000000000e+00 -9.091626172727e+04 8.285908313317e-02 
1.850000000000e+00 -9.118320340227e+04 8.273110299855e-02 
1.900000000000e+00 -9.150643156886e+04 8.257610425060e-02 
1.950000000000e+00 -9.189266948272e+04 8.239075478099e-02 
2.000000000000e+00 -9.234735312016e+04 8.229010518816e-02 
 TITLE = "Profiles along polylines"
 VARIABLES = "DIST" "PRESSURE1" "SATURATION1" 
 ZONE T="TIME=5.000000000000e+01"
0.000000000000e+00 -3.679618926217e+04 5.701993791299e-01 
5.000000000000e-02 -3.754167078827e+04 5.679937840884e-01 
1.000000000000e-01 -3.828083953180e+04 5.636007966874e-01 
1.500000000000e-01 -3.901422865757e+04 5.592465400189e-01 
2.000000000000e-01 -3.973842059851e+04 5.549462501507e-01 
2.500000000000e-01 -4.044719616046e+04 5.507329129190e-01 
3.000000000000e-01 -4.113269526381e+04 5.466503235622e-01 
3.500000000000e-01 -4.178665408509e+04 5.427458403106e-01 
4.000000000000e-01 -4.240169917375e+04 3.259861698859e-01 
4.500000000000e-01 -4.595944153088e+04 1.083351577431e-01 
5.000000000000e-01 -5.118937006054e+04 1.035048103527e-01 
5.500000000000e-01 -5.684410568424e+04 1.001194011387e-01 
6.000000000000e-01 -6.197253073252e+04 1.296891857812e-01 
6.500000000000e-01 -7.801985008861e+04 1.472635675696e-01 
7.000000000000e-01 -8.571914961103e+04 1.277663351289e-01 
7.500000000000e-01 -8.867216284929e+04 1.193139792241e-01 
8.000000000000e-01 -8.962153173830e+04 1.162873808632e-01 
8.500000000000e-01 -8.989346054613e+04 1.153560771847e-01 
9.000000000000e-01 -8.995631335179e+04 1.151166075739e-01 
9.500000000000e-01 -8.993805469485e+04 1.151268828648e-01 
1.000000000000e+00 -8.983648160550e+04 1.153293439104e-01 
1.050000000000e+00 -8.957392947078e+04 1.158443212948e-01 
1.100000000000e+00 -8.902894262223e+04 9.997288409959e-02 
1.150000000000e+00 -8.921995152616e+04 8.369745456222e-02 
1.200000000000e+00 -8.938868665556e+04 8.361240021527e-02 
1.250000000000e+00 -8.953747954647e+04 8.353728209698e-02 
1.300000000000e+00 -8.966950028983e+04 8.347061957224e-02 
1.350000000000e+00 -8.978862802706e+04 8.341057274023e-02 
1.400000000000e+00 -8.989931794710e+04 8.335500569197e-02 
1.450000000000e+00 -9.000648804370e+04 8.330154296915e-02 
1.500000000000e+00 -9.011543648059e+04 8.324761285461e-02 
1.550000000000e+00 -9.023178816736e+04 8.319047695735e-02 
1.600000000000e+00 -9.036145958912e+04 8.312725039887e-02 
1.650000000000e+00 -9.051062504588e+04 8.305492009862e-02 
1.700000000000e+00 -9.068566533183e+04 8.297037002682e-02 
1.750000000000e+00 -9.089308132617e+04 8.287042188740e-02 
1.800000000000e+00 -9.113935984033e+04 8.275189758254e-02 
1.850000000000e+00 -9.143078730126e+04 8.261170605862e-02 
1.900000000000e+00 -9.177321814827e+04 8.244695191175e-02 
1.950000000000e+00 -9.217181811372e+04 8.225505695707e-02 
2.000000000000e+00 -9.263081536670e+04 8.215202573850e-02 
 TITLE = "Profiles along polylines"
 VARIABLES = "DIST" "PRESSURE1" "SATURATION1" 
 ZONE T="TIME=6.000000000000e+01"
0.000000000000e+00 4.919247130709e+08 1.000000000000e+00 
5.000000000000e-02 4.919241749090e+08 1.000000000000e+00 
1.000000000000e-01 4.919236379537e+08 1.000000000000e+00 
1.500000000000e-01 4.919231022049e+08 1.000000000000e+00 
2.000000000000e-01 4.919225676627e+08 1.000000000000e+00 
2.500000000000e-01 4.919220343270e+08 1.000000000000e+00 
3.000000000000e-01 4.919215021980e+08 1.000000000000e+00 
3.500000000000e-01 4.919209712754e+08 1.000000000000e+00 
4.000000000000e-01 4.919204415595e+08 1.000000000000e+00 
4.500000000000e-01 4.919199491103e+08 1.000000000000e+00 
5.000000000000e-01 4.919194567230e+08 1.000000000000e+00 
5.500000000000e-01 4.919189643975e+08 1.000000000000e+00 
6.000000000000e-01 4.919184721339e+08 1.000000000000e+00 
6.500000000000e-01 4.919179756007e+08 1.000000000000e+00 
7.000000000000e-01 4.919174792869e+08 1.000000000000e+00 
7.500000000000e-01 4.919169831925e+08 1.000000000000e+00 
8.000000000000e-01 4.919164873175e+08 1.000000000000e+00 
8.500000000000e-01 4.919159916619e+08 1.000000000000e+00 
9.000000000000e-01 4.919154962256e+08 1.000000000000e+00 
9.500000000000e-01 4.919150010088e+08 1.000000000000e+00 
1.000000000000e+00 4.919145060113e+08 1.000000000000e+00 
1.050000000000e+00 4.919140112333e+08 1.000000000000e+00 
1.100000000000e+00 4.919135166746e+08 1.000000000000e+00 
1.150000000000e+00 4.919130250917e+08 1.000000000000e+00 
1.200000000000e+00 4.919125335707e+08 1.000000000000e+00 
1.250000000000e+00 4.919120421115e+08 1.000000000000e+00 
1.300000000000e+00 4.919115507143e+08 1.000000000000e+00 
1.350000000000e+00 4.919110593789e+08 1.000000000000e+00 
1.400000000000e+00 4.919105681054e+08 1.000000000000e+00 
1.450000000000e+00 4.919100768938e+08 1.000000000000e+00 
1.500000000000e+00 4.919095857441e+08 1.000000000000e+00 
1.550000000000e+00 4.919090946562e+08 1.000000000000e+00 
1.600000000000e+00 4.919086036302e+08 1.000000000000e+00 
1.650000000000e+00 4.919081126661e+08 1.000000000000e+00 
1.700000000000e+00 4.919076217639e+08 1.000000000000e+00 
1.750000000000e+00 4.919071309236e+08 1.000000000000e+00 
1.800000000000e+00 4.919066401451e+08 1.000000000000e+00 
1.850000000000e+00 4.919061494285e+08 1.000000000000e+00 
1.900000000000e+00 4.919056587738e+08 1.000000000000e+00 
1.950000000000e+00 4.919051681810e+08 1.000000000000e+00 
2.000000000000e+00 4.919046776501e+08 1.000000000000e+00 
 TITLE = "Profiles along polylines"
 VARIABLES = "DIST" "PRESSURE1" "SATURATION1" 
 ZONE T="TIME=7.000000000000e+01"
0.000000000000e+00 5.266391966422e+08 1.000000000000e+00 
5.000000000000e-02 5.266387027792e+08 1.000000000000e+00 
1.000000000000e-01 5.266382090014e+08 1.000000000000e+00 
1.500000000000e-01 5.266377153086e+08 1.000000000000e+00 
2.000000000000e-01 5.266372217011e+08 1.000000000000e+00 
2.500000000000e-01 5.266367281786e+08 1.000000000000e+00 
3.000000000000e-01 5.266362347413e+08 1.000000000000e+00 
3.500000000000e-01 5.266357413892e+08 1.000000000000e+00 
4.000000000000e-01 5.266352481221e+08 1.000000000000e+00 
4.500000000000e-01 5.266347574846e+08 1.000000000000e+00 
5.000000000000e-01 5.266342668514e+08 1.000000000000e+00 
5.500000000000e-01 5.266337762226e+08 1.000000000000e+00 
6.000000000000e-01 5.266332855982e+08 1.000000000000e+00 
6.500000000000e-01 5.266327946725e+08 1.000000000000e+00 
7.000000000000e-01 5.266323037623e+08 1.000000000000e+00 
7.500000000000e-01 5.266318128676e+08 1.000000000000e+00 
8.000000000000e-01 5.266313219883e+08 1.000000000000e+00 
8.500000000000e-01 5.266308311245e+08 1.000000000000e+00 
9.000000000000e-01 5.266303402763e+08 1.000000000000e+00 
9.500000000000e-01 5.266298494434e+08 1.000000000000e+00 
1.000000000000e+00 5.266293586261e+08 1.000000000000e+00 
1.050000000000e+00 5.266288678243e+08 1.000000000000e+00 
1.100000000000e+00 5.266283770379e+08 1.000000000000e+00 
1.150000000000e+00 5.266278864615e+08 1.000000000000e+00 
1.200000000000e+00 5.266273958894e+08 1.000000000000e+00 
1.250000000000e+00 5.266269053218e+08 1.000000000000e+00 
1.300000000000e+00 5.266264147585e+08 1.000000000000e+00 
1.350000000000e+00 5.266259241995e+08 1.000000000000e+00 
1.400000000000e+00 5.266254336449e+08 1.000000000000e+00 
1.450000000000e+00 5.266249430947e+08 1.000000000000e+00 
1.500000000000e+00 5.266244525489e+08 1.000000000000e+00 
1.550000000000e+00 5.266239620074e+08 1.000000000000e+00 
1.600000000000e+00 5.266234714703e+08 1.000000000000e+00 
1.650000000000e+00 5.266229809375e+08 1.000000000000e+00 
1.700000000000e+00 5.266224904092e+08 1.000000000000e+00 
1.750000000000e+00 5.266219998852e+08 1.000000000000e+00 
1.800000000000e+00 5.266215093655e+08 1.000000000000e+00 
1.850000000000e+00 5.266210188502e+08 1.000000000000e+00 
1.900000000000e+00 5.266205283393e+08 1.000000000000e+00 
1.950000000000e+00 5.266200378328e+08 1.000000000000e+00 
2.000000000000e+00 5.266195473306e+08 1.000000000000e+00 
 TITLE = "Profiles along polylines"
 VARIABLES = "DIST" "PRESSURE1" "SATURATION1" 
 ZONE T="TIME=8.000000000000e+01"
0.000000000000e+00 5.266395596501e+08 1.000000000000e+00 
5.000000000000e-02 5.266390691501e+08 1.000000000000e+00 
1.000000000000e-01 5.266385786501e+08 1.000000000000e+00 
1.500000000000e-01 5.266380881501e+08 1.000000000000e+00 
2.000000000000e-01 5.266375976501e+08 1.000000000000e+00 
2.500000000000e-01 5.266371071501e+08 1.000000000000e+00 
3.000000000000e-01 5.266366166501e+08 1.000000000000e+00 
3.500000000000e-01 5.266361261501e+08 1.000000000000e+00 
4.000000000000e-01 5.266356356501e+08 1.000000000000e+00 
4.500000000000e-01 5.266351451501e+08 1.000000000000e+00 
5.000000000000e-01 5.266346546501e+08 1.000000000000e+00 
5.500000000000e-01 5.266341641501e+08 1.000000000000e+00 
6.000000000000e-01 5.266336736501e+08 1.000000000000e+00 
6.500000000000e-01 5.266331831502e+08 1.000000000000e+00 
7.000000000000e-01 5.266326926502e+08 1.000000000000e+00 
7.500000000000e-01 5.266322021502e+08 1.000000000000e+00 
8.000000000000e-01 5.266317116502e+08 1.000000000000e+00 
8.500000000000e-01 5.266312211502e+08 1.000000000000e+00 
9.000000000000e-01 5.266307306502e+08 1.000000000000e+00 
9.500000000000e-01 5.266302401502e+08 1.000000000000e+00 
1.000000000000e+00 5.266297496502e+08 1.000000000000e+00 
1.050000000000e+00 5.266292591502e+08 1.000000000000e+00 
1.100000000000e+00 5.266287686502e+08 1.000000000000e+00 
1.150000000000e+00 5.266282781502e+08 1.000000000000e+00 
1.200000000000e+00 5.266277876502e+08 1.000000000000e+00 
1.250000000000e+00 5.266272971502e+08 1.000000000000e+00 
1.300000000000e+00 5.266268066502e+08 1.000000000000e+00 
1.350000000000e+00 5.266263161502e+08 1.000000000000e+00 
1.400000000000e+00 5.266258256502e+08 1.000000000000e+00 
1.450000000000e+00 5.266253351502e+08 1.000000000000e+00 
1.500000000000e+00 5.266248446502e+08 1.000000000000e+00 
1.550000000000e+00 5.266243541502e+08 1.000000000000e+00 
1.600000000000e+00 5.266238636502e+08 1.000000000000e+00 
1.650000000000e+00 5.266233731502e+08 1.000000000000e+00 
1.700000000000e+00 5.266228826502e+08 1.000000000000e+00 