VARIABLES  = "X","Y","Z", "PRESSURE1", "SATURATION1"
ZONE T="0.000000000000e+00s", N=205, E=200, F=FEPOINT, ET=QUADRILATERAL
STRANDID=1, SOLUTIONTIME=0.000000000000e+00
1.450053600000e+05 4.048208912500e+05 0.000000000000e+00 -9.000000000000e+04 3.601056880734e-01 
1.450053600000e+05 4.048208912500e+05 5.000000000000e-02 -9.000000000000e+04 3.601056880734e-01 
1.450053600000e+05 4.048208912500e+05 1.000000000000e-01 -9.000000000000e+04 3.601056880734e-01 
1.450053600000e+05 4.048208912500e+05 1.500000000000e-01 -9.000000000000e+04 3.601056880734e-01 
1.450053600000e+05 4.048208912500e+05 2.000000000000e-01 -9.000000000000e+04 3.601056880734e-01 
1.450053600000e+05 4.048208912500e+05 2.500000000000e-01 -9.000000000000e+04 2.147624357798e-01 
1.450053600000e+05 4.048208912500e+05 3.000000000000e-01 -9.000000000000e+04 1.684751605505e-01 
1.450053600000e+05 4.048208912500e+05 3.500000000000e-01 -9.000000000000e+04 2.675311376147e-01 
1.450053600000e+05 4.048208912500e+05 4.000000000000e-01 -9.000000000000e+04 2.675311376147e-01 
1.450053600000e+05 4.048208912500e+05 4.500000000000e-01 -9.000000000000e+04 2.675311376147e-01 
1.450053600000e+05 4.048208912500e+05 5.000000000000e-01 -9.000000000000e+04 2.675311376147e-01 
1.450053600000e+05 4.048208912500e+05 5.500000000000e-01 -9.000000000000e+04 2.675311376147e-01 
1.450053600000e+05 4.048208912500e+05 6.000000000000e-01 -9.000000000000e+04 2.675311376147e-01 
1.450053600000e+05 4.048208912500e+05 6.500000000000e-01 -9.000000000000e+04 2.675311376147e-01 
1.450053600000e+05 4.048208912500e+05 7.000000000000e-01 -9.000000000000e+04 1.754136146789e-01 
1.450053600000e+05 4.048208912500e+05 7.500000000000e-01 -9.000000000000e+04 8.329609174312e-02 
1.450053600000e+05 4.048208912500e+05 8.000000000000e-01 -9.000000000000e+04 8.329609174312e-02 
1.450053600000e+05 4.048208912500e+05 8.500000000000e-01 -9.000000000000e+04 8.329609174312e-02 
1.450053600000e+05 4.048208912500e+05 9.000000000000e-01 -9.000000000000e+04 8.329609174312e-02 
1.450053600000e+05 4.048208912500e+05 9.500000000000e-01 -9.000000000000e+04 8.329609174312e-02 
1.450053600000e+05 4.048208912500e+05 1.000000000000e+00 -9.000000000000e+04 8.329609174312e-02 
1.450053600000e+05 4.048208912500e+05 1.050000000000e+00 -9.000000000000e+04 8.329609174312e-02 
1.450053600000e+05 4.048208912500e+05 1.100000000000e+00 -9.000000000000e+04 8.329609174312e-02 
1.450053600000e+05 4.048208912500e+05 1.150000000000e+00 -9.000000000000e+04 8.329609174312e-02 
1.450053600000e+05 4.048208912500e+05 1.200000000000e+00 -9.000000000000e+04 8.329609174312e-02 
1.450053600000e+05 4.048208912500e+05 1.250000000000e+00 -9.000000000000e+04 8.329609174312e-02 
1.450053600000e+05 4.048208912500e+05 1.300000000000e+00 -9.000000000000e+04 8.329609174312e-02 
1.450053600000e+05 4.048208912500e+05 1.350000000000e+00 -9.000000000000e+04 8.329609174312e-02 
1.450053600000e+05 4.048208912500e+05 1.400000000000e+00 -9.000000000000e+04 8.329609174312e-02 
1.450053600000e+05 4.048208912500e+05 1.450000000000e+00 -9.000000000000e+04 8.329609174312e-02 
1.450053600000e+05 4.048208912500e+05 1.500000000000e+00 -9.000000000000e+04 8.329609174312e-02 
1.450053600000e+05 4.048208912500e+05 1.550000000000e+00 -9.000000000000e+04 8.329609174312e-02 
1.450053600000e+05 4.048208912500e+05 1.600000000000e+00 -9.000000000000e+04 8.329609174312e-02 
1.450053600000e+05 4.048208912500e+05 1.650000000000e+00 -9.000000000000e+04 8.329609174312e-02 
1.450053600000e+05 4.048208912500e+05 1.700000000000e+00 -9.000000000000e+04 8.329609174312e-02 
1.450053600000e+05 4.048208912500e+05 1.750000000000e+00 -9.000000000000e+04 8.329609174312e-02 
1.450053600000e+05 4.048208912500e+05 1.800000000000e+00 -9.000000000000e+04 8.329609174312e-02 
1.450053600000e+05 4.048208912500e+05 1.850000000000e+00 -9.000000000000e+04 8.329609174312e-02 
1.450053600000e+05 4.048208912500e+05 1.900000000000e+00 -9.000000000000e+04 8.329609174312e-02 
1.450053600000e+05 4.048208912500e+05 1.950000000000e+00 -9.000000000000e+04 8.329609174312e-02 
1.450053600000e+05 4.048208912500e+05 2.000000000000e+00 -9.000000000000e+04 8.329609174312e-02 
1.455686362500e+05 4.048675100000e+05 0.000000000000e+00 -9.000000000000e+04 3.601056880734e-01 
1.455686362500e+05 4.048675100000e+05 5.000000000000e-02 -9.000000000000e+04 3.601056880734e-01 
1.455686362500e+05 4.048675100000e+05 1.000000000000e-01 -9.000000000000e+04 3.601056880734e-01 
1.455686362500e+05 4.048675100000e+05 1.500000000000e-01 -9.000000000000e+04 3.601056880734e-01 
1.455686362500e+05 4.048675100000e+05 2.000000000000e-01 -9.000000000000e+04 3.601056880734e-01 
1.455686362500e+05 4.048675100000e+05 2.500000000000e-01 -9.000000000000e+04 3.601056880734e-01 
1.455686362500e+05 4.048675100000e+05 3.000000000000e-01 -9.000000000000e+04 3.601056880734e-01 
1.455686362500e+05 4.048675100000e+05 3.500000000000e-01 -9.000000000000e+04 3.601056880734e-01 
1.455686362500e+05 4.048675100000e+05 4.000000000000e-01 -9.000000000000e+04 3.601056880734e-01 
1.455686362500e+05 4.048675100000e+05 4.500000000000e-01 -9.000000000000e+04 3.601056880734e-01 
1.455686362500e+05 4.048675100000e+05 5.000000000000e-01 -9.000000000000e+04 3.601056880734e-01 
1.455686362500e+05 4.048675100000e+05 5.500000000000e-01 -9.000000000000e+04 3.601056880734e-01 
1.455686362500e+05 4.048675100000e+05 6.000000000000e-01 -9.000000000000e+04 3.601056880734e-01 
1.455686362500e+05 4.048675100000e+05 6.500000000000e-01 -9.000000000000e+04 3.601056880734e-01 
1.455686362500e+05 4.048675100000e+05 7.000000000000e-01 -9.000000000000e+04 3.601056880734e-01 
1.455686362500e+05 4.048675100000e+05 7.500000000000e-01 -9.000000000000e+04 2.217008899083e-01 
1.455686362500e+05 4.048675100000e+05 8.000000000000e-01 -9.000000000000e+04 8.329609174312e-02 
1.455686362500e+05 4.048675100000e+05 8.500000000000e-01 -9.000000000000e+04 8.329609174312e-02 
1.455686362500e+05 4.048675100000e+05 9.000000000000e-01 -9.000000000000e+04 8.329609174312e-02 
1.455686362500e+05 4.048675100000e+05 9.500000000000e-01 -9.000000000000e+04 8.329609174312e-02 
1.455686362500e+05 4.048675100000e+05 1.000000000000e+00 -9.000000000000e+04 8.329609174312e-02 
1.455686362500e+05 4.048675100000e+05 1.050000000000e+00 -9.000000000000e+04 8.329609174312e-02 
1.455686362500e+05 4.048675100000e+05 1.100000000000e+00 -9.000000000000e+04 8.329609174312e-02 
1.455686362500e+05 4.048675100000e+05 1.150000000000e+00 -9.000000000000e+04 8.329609174312e-02 
1.455686362500e+05 4.048675100000e+05 1.200000000000e+00 -9.000000000000e+04 8.329609174312e-02 
1.455686362500e+05 4.048675100000e+05 1.250000000000e+00 -9.000000000000e+04 8.329609174312e-02 
1.455686362500e+05 4.048675100000e+05 1.300000000000e+00 -9.000000000000e+04 8.329609174312e-02 
1.455686362500e+05 4.048675100000e+05 1.350000000000e+00 -9.000000000000e+04 8.329609174312e-02 
1.455686362500e+05 4.048675100000e+05 1.400000000000e+00 -9.000000000000e+04 8.329609174312e-02 
1.455686362500e+05 4.048675100000e+05 1.450000000000e+00 -9.000000000000e+04 8.329609174312e-02 
1.455686362500e+05 4.048675100000e+05 1.500000000000e+00 -9.000000000000e+04 8.329609174312e-02 
1.455686362500e+05 4.048675100000e+05 1.550000000000e+00 -9.000000000000e+04 8.329609174312e-02 
1.455686362500e+05 4.048675100000e+05 1.600000000000e+00 -9.000000000000e+04 8.329609174312e-02 
1.455686362500e+05 4.048675100000e+05 1.650000000000e+00 -9.000000000000e+04 8.329609174312e-02 
1.455686362500e+05 4.048675100000e+05 1.700000000000e+00 -9.000000000000e+04 8.329609174312e-02 
1.455686362500e+05 4.048675100000e+05 1.750000000000e+00 -9.000000000000e+04 8.329609174312e-02 
1.455686362500e+05 4.048675100000e+05 1.800000000000e+00 -9.000000000000e+04 8.329609174312e-02 
1.455686362500e+05 4.048675100000e+05 1.850000000000e+00 -9.000000000000e+04 8.329609174312e-02 
1.455686362500e+05 4.048675100000e+05 1.900000000000e+00 -9.000000000000e+04 8.329609174312e-02 
1.455686362500e+05 4.048675100000e+05 1.950000000000e+00 -9.000000000000e+04 8.329609174312e-02 
1.455686362500e+05 4.048675100000e+05 2.000000000000e+00 -9.000000000000e+04 8.329609174312e-02 
1.461663462500e+05 4.048616750000e+05 0.000000000000e+00 -9.000000000000e+04 3.601056880734e-01 
1.461663462500e+05 4.048616750000e+05 5.000000000000e-02 -9.000000000000e+04 3.601056880734e-01 
1.461663462500e+05 4.048616750000e+05 1.000000000000e-01 -9.000000000000e+04 3.601056880734e-01 
1.461663462500e+05 4.048616750000e+05 1.500000000000e-01 -9.000000000000e+04 3.601056880734e-01 
1.461663462500e+05 4.048616750000e+05 2.000000000000e-01 -9.000000000000e+04 3.601056880734e-01 
1.461663462500e+05 4.048616750000e+05 2.500000000000e-01 -9.000000000000e+04 2.217008899083e-01 
1.461663462500e+05 4.048616750000e+05 3.000000000000e-01 -9.000000000000e+04 8.329609174312e-02 
1.461663462500e+05 4.048616750000e+05 3.500000000000e-01 -9.000000000000e+04 8.329609174312e-02 
1.461663462500e+05 4.048616750000e+05 4.000000000000e-01 -9.000000000000e+04 8.329609174312e-02 
1.461663462500e+05 4.048616750000e+05 4.500000000000e-01 -9.000000000000e+04 8.329609174312e-02 
1.461663462500e+05 4.048616750000e+05 5.000000000000e-01 -9.000000000000e+04 8.329609174312e-02 
1.461663462500e+05 4.048616750000e+05 5.500000000000e-01 -9.000000000000e+04 8.329609174312e-02 
1.461663462500e+05 4.048616750000e+05 6.000000000000e-01 -9.000000000000e+04 8.329609174312e-02 
1.461663462500e+05 4.048616750000e+05 6.500000000000e-01 -9.000000000000e+04 8.329609174312e-02 
1.461663462500e+05 4.048616750000e+05 7.000000000000e-01 -9.000000000000e+04 8.329609174312e-02 
1.461663462500e+05 4.048616750000e+05 7.500000000000e-01 -9.000000000000e+04 8.329609174312e-02 
1.461663462500e+05 4.048616750000e+05 8.000000000000e-01 -9.000000000000e+04 8.329609174312e-02 
1.461663462500e+05 4.048616750000e+05 8.500000000000e-01 -9.000000000000e+04 8.329609174312e-02 
1.461663462500e+05 4.048616750000e+05 9.000000000000e-01 -9.000000000000e+04 8.329609174312e-02 
1.461663462500e+05 4.048616750000e+05 9.500000000000e-01 -9.000000000000e+04 8.329609174312e-02 
1.461663462500e+05 4.048616750000e+05 1.000000000000e+00 -9.000000000000e+04 8.329609174312e-02 
1.461663462500e+05 4.048616750000e+05 1.050000000000e+00 -9.000000000000e+04 8.329609174312e-02 
1.461663462500e+05 4.048616750000e+05 1.100000000000e+00 -9.000000000000e+04 8.329609174312e-02 
1.461663462500e+05 4.048616750000e+05 1.150000000000e+00 -9.000000000000e+04 8.329609174312e-02 
1.461663462500e+05 4.048616750000e+05 1.200000000000e+00 -9.000000000000e+04 8.329609174312e-02 
1.461663462500e+05 4.048616750000e+05 1.250000000000e+00 -9.000000000000e+04 8.329609174312e-02 
1.461663462500e+05 4.048616750000e+05 1.300000000000e+00 -9.000000000000e+04 8.329609174312e-02 
1.461663462500e+05 4.048616750000e+05 1.350000000000e+00 -9.000000000000e+04 8.329609174312e-02 
1.461663462500e+05 4.048616750000e+05 1.400000000000e+00 -9.000000000000e+04 8.329609174312e-02 
1.461663462500e+05 4.048616750000e+05 1.450000000000e+00 -9.000000000000e+04 8.329609174312e-02 
1.461663462500e+05 4.048616750000e+05 1.500000000000e+00 -9.000000000000e+04 8.329609174312e-02 
1.461663462500e+05 4.048616750000e+05 1.550000000000e+00 -9.000000000000e+04 8.329609174312e-02 
1.461663462500e+05 4.048616750000e+05 1.600000000000e+00 -9.000000000000e+04 8.329609174312e-02 
1.461663462500e+05 4.048616750000e+05 1.650000000000e+00 -9.000000000000e+04 8.329609174312e-02 
1.461663462500e+05 4.048616750000e+05 1.700000000000e+00 -9.000000000000e+04 8.329609174312e-02 
1.461663462500e+05 4.048616750000e+05 1.750000000000e+00 -9.000000000000e+04 8.329609174312e-02 
1.461663462500e+05 4.048616750000e+05 1.800000000000e+00 -9.000000000000e+04 8.329609174312e-02 
1.461663462500e+05 4.048616750000e+05 1.850000000000e+00 -9.000000000000e+04 8.329609174312e-02 
1.461663462500e+05 4.048616750000e+05 1.900000000000e+00 -9.000000000000e+04 8.329609174312e-02 
1.461663462500e+05 4.048616750000e+05 1.950000000000e+00 -9.000000000000e+04 8.329609174312e-02 
1.461663462500e+05 4.048616750000e+05 2.000000000000e+00 -9.000000000000e+04 8.329609174312e-02 
1.467941000000e+05 4.048667612500e+05 0.000000000000e+00 -9.000000000000e+04 3.601056880734e-01 
1.467941000000e+05 4.048667612500e+05 5.000000000000e-02 -9.000000000000e+04 3.601056880734e-01 
1.467941000000e+05 4.048667612500e+05 1.000000000000e-01 -9.000000000000e+04 3.601056880734e-01 
1.467941000000e+05 4.048667612500e+05 1.500000000000e-01 -9.000000000000e+04 3.601056880734e-01 
1.467941000000e+05 4.048667612500e+05 2.000000000000e-01 -9.000000000000e+04 3.601056880734e-01 
1.467941000000e+05 4.048667612500e+05 2.500000000000e-01 -9.000000000000e+04 3.039060458716e-01 
1.467941000000e+05 4.048667612500e+05 3.000000000000e-01 -9.000000000000e+04 2.477064036697e-01 
1.467941000000e+05 4.048667612500e+05 3.500000000000e-01 -9.000000000000e+04 1.655012477064e-01 
1.467941000000e+05 4.048667612500e+05 4.000000000000e-01 -9.000000000000e+04 8.329609174312e-02 
1.467941000000e+05 4.048667612500e+05 4.500000000000e-01 -9.000000000000e+04 8.329609174312e-02 
1.467941000000e+05 4.048667612500e+05 5.000000000000e-01 -9.000000000000e+04 8.329609174312e-02 
1.467941000000e+05 4.048667612500e+05 5.500000000000e-01 -9.000000000000e+04 8.329609174312e-02 
1.467941000000e+05 4.048667612500e+05 6.000000000000e-01 -9.000000000000e+04 8.329609174312e-02 
1.467941000000e+05 4.048667612500e+05 6.500000000000e-01 -9.000000000000e+04 8.329609174312e-02 
1.467941000000e+05 4.048667612500e+05 7.000000000000e-01 -9.000000000000e+04 8.329609174312e-02 
1.467941000000e+05 4.048667612500e+05 7.500000000000e-01 -9.000000000000e+04 8.329609174312e-02 
1.467941000000e+05 4.048667612500e+05 8.000000000000e-01 -9.000000000000e+04 8.329609174312e-02 
1.467941000000e+05 4.048667612500e+05 8.500000000000e-01 -9.000000000000e+04 8.329609174312e-02 
1.467941000000e+05 4.048667612500e+05 9.000000000000e-01 -9.000000000000e+04 8.329609174312e-02 
1.467941000000e+05 4.048667612500e+05 9.500000000000e-01 -9.000000000000e+04 8.329609174312e-02 
1.467941000000e+05 4.048667612500e+05 1.000000000000e+00 -9.000000000000e+04 8.981318348624e-02 
1.467941000000e+05 4.048667612500e+05 1.050000000000e+00 -9.000000000000e+04 9.633027522936e-02 
1.467941000000e+05 4.048667612500e+05 1.100000000000e+00 -9.000000000000e+04 9.633027522936e-02 
1.467941000000e+05 4.048667612500e+05 1.150000000000e+00 -9.000000000000e+04 9.633027522936e-02 
1.467941000000e+05 4.048667612500e+05 1.200000000000e+00 -9.000000000000e+04 9.633027522936e-02 
1.467941000000e+05 4.048667612500e+05 1.250000000000e+00 -9.000000000000e+04 9.633027522936e-02 
1.467941000000e+05 4.048667612500e+05 1.300000000000e+00 -9.000000000000e+04 9.633027522936e-02 
1.467941000000e+05 4.048667612500e+05 1.350000000000e+00 -9.000000000000e+04 9.633027522936e-02 
1.467941000000e+05 4.048667612500e+05 1.400000000000e+00 -9.000000000000e+04 9.633027522936e-02 
1.467941000000e+05 4.048667612500e+05 1.450000000000e+00 -9.000000000000e+04 9.633027522936e-02 
1.467941000000e+05 4.048667612500e+05 1.500000000000e+00 -9.000000000000e+04 9.633027522936e-02 
1.467941000000e+05 4.048667612500e+05 1.550000000000e+00 -9.000000000000e+04 9.633027522936e-02 
1.467941000000e+05 4.048667612500e+05 1.600000000000e+00 -9.000000000000e+04 9.633027522936e-02 
1.467941000000e+05 4.048667612500e+05 1.650000000000e+00 -9.000000000000e+04 9.633027522936e-02 
1.467941000000e+05 4.048667612500e+05 1.700000000000e+00 -9.000000000000e+04 9.633027522936e-02 
1.467941000000e+05 4.048667612500e+05 1.750000000000e+00 -9.000000000000e+04 9.633027522936e-02 
1.467941000000e+05 4.048667612500e+05 1.800000000000e+00 -9.000000000000e+04 9.633027522936e-02 
1.467941000000e+05 4.048667612500e+05 1.850000000000e+00 -9.000000000000e+04 9.633027522936e-02 
1.467941000000e+05 4.048667612500e+05 1.900000000000e+00 -9.000000000000e+04 9.633027522936e-02 
1.467941000000e+05 4.048667612500e+05 1.950000000000e+00 -9.000000000000e+04 9.633027522936e-02 
1.467941000000e+05 4.048667612500e+05 2.000000000000e+00 -9.000000000000e+04 9.633027522936e-02 
1.474515050000e+05 4.048154750000e+05 0.000000000000e+00 -9.000000000000e+04 3.601056880734e-01 
1.474515050000e+05 4.048154750000e+05 5.000000000000e-02 -9.000000000000e+04 3.601056880734e-01 
1.474515050000e+05 4.048154750000e+05 1.000000000000e-01 -9.000000000000e+04 3.601056880734e-01 
1.474515050000e+05 4.048154750000e+05 1.500000000000e-01 -9.000000000000e+04 3.601056880734e-01 
1.474515050000e+05 4.048154750000e+05 2.000000000000e-01 -9.000000000000e+04 3.601056880734e-01 
1.474515050000e+05 4.048154750000e+05 2.500000000000e-01 -9.000000000000e+04 3.601056880734e-01 
1.474515050000e+05 4.048154750000e+05 3.000000000000e-01 -9.000000000000e+04 3.601056880734e-01 
1.474515050000e+05 4.048154750000e+05 3.500000000000e-01 -9.000000000000e+04 3.601056880734e-01 
1.474515050000e+05 4.048154750000e+05 4.000000000000e-01 -9.000000000000e+04 2.217008899083e-01 
1.474515050000e+05 4.048154750000e+05 4.500000000000e-01 -9.000000000000e+04 8.329609174312e-02 
1.474515050000e+05 4.048154750000e+05 5.000000000000e-01 -9.000000000000e+04 8.329609174312e-02 
1.474515050000e+05 4.048154750000e+05 5.500000000000e-01 -9.000000000000e+04 8.329609174312e-02 
1.474515050000e+05 4.048154750000e+05 6.000000000000e-01 -9.000000000000e+04 9.913826605505e-02 
1.474515050000e+05 4.048154750000e+05 6.500000000000e-01 -9.000000000000e+04 1.149804403670e-01 
1.474515050000e+05 4.048154750000e+05 7.000000000000e-01 -9.000000000000e+04 1.149804403670e-01 
1.474515050000e+05 4.048154750000e+05 7.500000000000e-01 -9.000000000000e+04 1.149804403670e-01 
1.474515050000e+05 4.048154750000e+05 8.000000000000e-01 -9.000000000000e+04 1.149804403670e-01 
1.474515050000e+05 4.048154750000e+05 8.500000000000e-01 -9.000000000000e+04 1.149804403670e-01 
1.474515050000e+05 4.048154750000e+05 9.000000000000e-01 -9.000000000000e+04 1.149804403670e-01 
1.474515050000e+05 4.048154750000e+05 9.500000000000e-01 -9.000000000000e+04 1.149804403670e-01 
1.474515050000e+05 4.048154750000e+05 1.000000000000e+00 -9.000000000000e+04 1.149804403670e-01 
1.474515050000e+05 4.048154750000e+05 1.050000000000e+00 -9.000000000000e+04 1.149804403670e-01 
1.474515050000e+05 4.048154750000e+05 1.100000000000e+00 -9.000000000000e+04 9.913826605505e-02 
1.474515050000e+05 4.048154750000e+05 1.150000000000e+00 -9.000000000000e+04 8.329609174312e-02 
1.474515050000e+05 4.048154750000e+05 1.200000000000e+00 -9.000000000000e+04 8.329609174312e-02 
1.474515050000e+05 4.048154750000e+05 1.250000000000e+00 -9.000000000000e+04 8.329609174312e-02 
1.474515050000e+05 4.048154750000e+05 1.300000000000e+00 -9.000000000000e+04 8.329609174312e-02 
1.474515050000e+05 4.048154750000e+05 1.350000000000e+00 -9.000000000000e+04 8.329609174312e-02 
1.474515050000e+05 4.048154750000e+05 1.400000000000e+00 -9.000000000000e+04 8.329609174312e-02 
1.474515050000e+05 4.048154750000e+05 1.450000000000e+00 -9.000000000000e+04 8.329609174312e-02 
1.474515050000e+05 4.048154750000e+05 1.500000000000e+00 -9.000000000000e+04 8.329609174312e-02 
1.474515050000e+05 4.048154750000e+05 1.550000000000e+00 -9.000000000000e+04 8.329609174312e-02 
1.474515050000e+05 4.048154750000e+05 1.600000000000e+00 -9.000000000000e+04 8.329609174312e-02 
1.474515050000e+05 4.048154750000e+05 1.650000000000e+00 -9.000000000000e+04 8.329609174312e-02 
1.474515050000e+05 4.048154750000e+05 1.700000000000e+00 -9.000000000000e+04 8.329609174312e-02 
1.474515050000e+05 4.048154750000e+05 1.750000000000e+00 -9.000000000000e+04 8.329609174312e-02 
1.474515050000e+05 4.048154750000e+05 1.800000000000e+00 -9.000000000000e+04 8.329609174312e-02 
1.474515050000e+05 4.048154750000e+05 1.850000000000e+00 -9.000000000000e+04 8.329609174312e-02 
1.474515050000e+05 4.048154750000e+05 1.900000000000e+00 -9.000000000000e+04 8.329609174312e-02 
1.474515050000e+05 4.048154750000e+05 1.950000000000e+00 -9.000000000000e+04 8.329609174312e-02 
1.474515050000e+05 4.048154750000e+05 2.000000000000e+00 -9.000000000000e+04 8.329609174312e-02 
2  1  1  2
3  2  2  3
4  3  3  4
5  4  4  5
6  5  5  6
7  6  6  7
8  7  7  8
9  8  8  9
10  9  9  10
11  10  10  11
12  11  11  12
13  12  12  13
14  13  13  14
15  14  14  15
16  15  15  16
17  16  16  17
18  17  17  18
19  18  18  19
20  19  19  20
21  20  20  21
22  21  21  22
23  22  22  23
24  23  23  24
25  24  24  25
26  25  25  26
27  26  26  27
28  27  27  28
29  28  28  29
30  29  29  30
31  30  30  31
32  31  31  32
33  32  32  33
34  33  33  34
35  34  34  35
36  35  35  36
37  36  36  37
38  37  37  38
39  38  38  39
40  39  39  40
41  40  40  41
43  42  42  43
44  43  43  44
45  44  44  45
46  45  45  46
47  46  46  47
48  47  47  48
49  48  48  49
50  49  49  50
51  50  50  51
52  51  51  52
53  52  52  53
54  53  53  54
55  54  54  55
56  55  55  56
57  56  56  57
58  57  57  58
59  58  58  59
60  59  59  60
61  60  60  61
62  61  61  62
63  62  62  63
64  63  63  64
65  64  64  65
66  65  65  66
67  66  66  67
68  67  67  68
69  68  68  69
70  69  69  70
71  70  70  71
72  71  71  72
73  72  72  73
74  73  73  74
75  74  74  75
76  75  75  76
77  76  76  77
78  77  77  78
79  78  78  79
80  79  79  80
81  80  80  81
82  81  81  82
84  83  83  84
85  84  84  85
86  85  85  86
87  86  86  87
88  87  87  88
89  88  88  89
90  89  89  90
91  90  90  91
92  91  91  92
93  92  92  93
94  93  93  94
95  94  94  95
96  95  95  96
97  96  96  97
98  97  97  98
99  98  98  99
100  99  99  100
101  100  100  101
102  101  101  102
103  102  102  103
104  103  103  104
105  104  104  105
106  105  105  106
107  106  106  107
108  107  107  108
109  108  108  109
110  109  109  110
111  110  110  111
112  111  111  112
113  112  112  113
114  113  113  114
115  114  114  115
116  115  115  116
117  116  116  117
118  117  117  118
119  118  118  119
120  119  119  120
121  120  120  121
122  121  121  122
123  122  122  123
125  124  124  125
126  125  125  126
127  126  126  127
128  127  127  128
129  128  128  129
130  129  129  130
131  130  130  131
132  131  131  132
133  132  132  133
134  133  133  134
135  134  134  135
136  135  135  136
137  136  136  137
138  137  137  138
139  138  138  139
140  139  139  140
141  140  140  141
142  141  141  142
143  142  142  143
144  143  143  144
145  144  144  145
146  145  145  146
147  146  146  147
148  147  147  148
149  148  148  149
150  149  149  150
151  150  150  151
152  151  151  152
153  152  152  153
154  153  153  154
155  154  154  155
156  155  155  156
157  156  156  157
158  157  157  158
159  158  158  159
160  159  159  160
161  160  160  161
162  161  161  162
163  162  162  163
164  163  163  164
166  165  165  166
167  166  166  167
168  167  167  168
169  168  168  169
170  169  169  170
171  170  170  171
172  171  171  172
173  172  172  173
174  173  173  174
175  174  174  175
176  175  175  176
177  176  176  177
178  177  177  178
179  178  178  179
180  179  179  180
181  180  180  181
182  181  181  182
183  182  182  183
184  183  183  184
185  184  184  185
186  185  185  186
187  186  186  187
188  187  187  188
189  188  188  189
190  189  189  190
191  190  190  191
192  191  191  192
193  192  192  193
194  193  193  194
195  194  194  195
196  195  195  196
197  196  196  197
198  197  197  198
199  198  198  199
200  199  199  200
201  200  200  201
202  201  201  202
203  202  202  203
204  203  203  204
205  204  204  205
VARIABLES  = "X","Y","Z", "PRESSURE1", "SATURATION1"
ZONE T="3.650000000000e+02s", N=205, E=200, F=FEPOINT, ET=QUADRILATERAL
STRANDID=1, SOLUTIONTIME=3.650000000000e+02
1.450053600000e+05 4.048208912500e+05 0.000000000000e+00 2.207542889053e+09 1.000000000000e+00 
1.450053600000e+05 4.048208912500e+05 5.000000000000e-02 2.207542381323e+09 1.000000000000e+00 
1.450053600000e+05 4.048208912500e+05 1.000000000000e-01 2.207541874029e+09 1.000000000000e+00 
1.450053600000e+05 4.048208912500e+05 1.500000000000e-01 2.207541367171e+09 1.000000000000e+00 
1.450053600000e+05 4.048208912500e+05 2.000000000000e-01 2.207540860750e+09 1.000000000000e+00 
1.450053600000e+05 4.048208912500e+05 2.500000000000e-01 2.207540354765e+09 1.000000000000e+00 
1.450053600000e+05 4.048208912500e+05 3.000000000000e-01 2.207539864076e+09 1.000000000000e+00 
1.450053600000e+05 4.048208912500e+05 3.500000000000e-01 2.207539366618e+09 1.000000000000e+00 
1.450053600000e+05 4.048208912500e+05 4.000000000000e-01 2.207538869368e+09 1.000000000000e+00 
1.450053600000e+05 4.048208912500e+05 4.500000000000e-01 2.207538372325e+09 1.000000000000e+00 
1.450053600000e+05 4.048208912500e+05 5.000000000000e-01 2.207537875490e+09 1.000000000000e+00 
1.450053600000e+05 4.048208912500e+05 5.500000000000e-01 2.207537378863e+09 1.000000000000e+00 
1.450053600000e+05 4.048208912500e+05 6.000000000000e-01 2.207536882443e+09 1.000000000000e+00 
1.450053600000e+05 4.048208912500e+05 6.500000000000e-01 2.207536386231e+09 1.000000000000e+00 
1.450053600000e+05 4.048208912500e+05 7.000000000000e-01 2.207535890227e+09 1.000000000000e+00 
1.450053600000e+05 4.048208912500e+05 7.500000000000e-01 2.207535399157e+09 1.000000000000e+00 
1.450053600000e+05 4.048208912500e+05 8.000000000000e-01 2.207534908109e+09 1.000000000000e+00 
1.450053600000e+05 4.048208912500e+05 8.500000000000e-01 2.207534417083e+09 1.000000000000e+00 
1.450053600000e+05 4.048208912500e+05 9.000000000000e-01 2.207533926080e+09 1.000000000000e+00 
1.450053600000e+05 4.048208912500e+05 9.500000000000e-01 2.207533435099e+09 1.000000000000e+00 
1.450053600000e+05 4.048208912500e+05 1.000000000000e+00 2.207532944140e+09 1.000000000000e+00 
1.450053600000e+05 4.048208912500e+05 1.050000000000e+00 2.207532453204e+09 1.000000000000e+00 
1.450053600000e+05 4.048208912500e+05 1.100000000000e+00 2.207531962290e+09 1.000000000000e+00 
1.450053600000e+05 4.048208912500e+05 1.150000000000e+00 2.207531471399e+09 1.000000000000e+00 
1.450053600000e+05 4.048208912500e+05 1.200000000000e+00 2.207530980529e+09 1.000000000000e+00 
1.450053600000e+05 4.048208912500e+05 1.250000000000e+00 2.207530489683e+09 1.000000000000e+00 
1.450053600000e+05 4.048208912500e+05 1.300000000000e+00 2.207529998858e+09 1.000000000000e+00 
1.450053600000e+05 4.048208912500e+05 1.350000000000e+00 2.207529508056e+09 1.000000000000e+00 
1.450053600000e+05 4.048208912500e+05 1.400000000000e+00 2.207529017277e+09 1.000000000000e+00 
1.450053600000e+05 4.048208912500e+05 1.450000000000e+00 2.207528526519e+09 1.000000000000e+00 
1.450053600000e+05 4.048208912500e+05 1.500000000000e+00 2.207528035785e+09 1.000000000000e+00 
1.450053600000e+05 4.048208912500e+05 1.550000000000e+00 2.207527545072e+09 1.000000000000e+00 
1.450053600000e+05 4.048208912500e+05 1.600000000000e+00 2.207527054382e+09 1.000000000000e+00 
1.450053600000e+05 4.048208912500e+05 1.650000000000e+00 2.207526563714e+09 1.000000000000e+00 
1.450053600000e+05 4.048208912500e+05 1.700000000000e+00 2.207526073069e+09 1.000000000000e+00 
1.450053600000e+05 4.048208912500e+05 1.750000000000e+00 2.207525582446e+09 1.000000000000e+00 
1.450053600000e+05 4.048208912500e+05 1.800000000000e+00 2.207525091845e+09 1.000000000000e+00 
1.450053600000e+05 4.048208912500e+05 1.850000000000e+00 2.207524601267e+09 1.000000000000e+00 
1.450053600000e+05 4.048208912500e+05 1.900000000000e+00 2.207524110711e+09 1.000000000000e+00 
1.450053600000e+05 4.048208912500e+05 1.950000000000e+00 2.207523620177e+09 1.000000000000e+00 
1.450053600000e+05 4.048208912500e+05 2.000000000000e+00 2.207523129666e+09 1.000000000000e+00 
1.455686362500e+05 4.048675100000e+05 0.000000000000e+00 2.701825158983e+09 1.000000000000e+00 
1.455686362500e+05 4.048675100000e+05 5.000000000000e-02 2.701824651211e+09 1.000000000000e+00 
1.455686362500e+05 4.048675100000e+05 1.000000000000e-01 2.701824143877e+09 1.000000000000e+00 
1.455686362500e+05 4.048675100000e+05 1.500000000000e-01 2.701823636980e+09 1.000000000000e+00 
1.455686362500e+05 4.048675100000e+05 2.000000000000e-01 2.701823130520e+09 1.000000000000e+00 
1.455686362500e+05 4.048675100000e+05 2.500000000000e-01 2.701822624497e+09 1.000000000000e+00 
1.455686362500e+05 4.048675100000e+05 3.000000000000e-01 2.701822118912e+09 1.000000000000e+00 
1.455686362500e+05 4.048675100000e+05 3.500000000000e-01 2.701821613764e+09 1.000000000000e+00 
1.455686362500e+05 4.048675100000e+05 4.000000000000e-01 2.701821109053e+09 1.000000000000e+00 
1.455686362500e+05 4.048675100000e+05 4.500000000000e-01 2.701820604780e+09 1.000000000000e+00 
1.455686362500e+05 4.048675100000e+05 5.000000000000e-01 2.701820100943e+09 1.000000000000e+00 
1.455686362500e+05 4.048675100000e+05 5.500000000000e-01 2.701819597544e+09 1.000000000000e+00 
1.455686362500e+05 4.048675100000e+05 6.000000000000e-01 2.701819094583e+09 1.000000000000e+00 
1.455686362500e+05 4.048675100000e+05 6.500000000000e-01 2.701818592058e+09 1.000000000000e+00 
1.455686362500e+05 4.048675100000e+05 7.000000000000e-01 2.701818089971e+09 1.000000000000e+00 
1.455686362500e+05 4.048675100000e+05 7.500000000000e-01 2.701817588321e+09 1.000000000000e+00 
1.455686362500e+05 4.048675100000e+05 8.000000000000e-01 2.701817097272e+09 1.000000000000e+00 
1.455686362500e+05 4.048675100000e+05 8.500000000000e-01 2.701816606245e+09 1.000000000000e+00 
1.455686362500e+05 4.048675100000e+05 9.000000000000e-01 2.701816115240e+09 1.000000000000e+00 
1.455686362500e+05 4.048675100000e+05 9.500000000000e-01 2.701815624258e+09 1.000000000000e+00 
1.455686362500e+05 4.048675100000e+05 1.000000000000e+00 2.701815133298e+09 1.000000000000e+00 
1.455686362500e+05 4.048675100000e+05 1.050000000000e+00 2.701814642361e+09 1.000000000000e+00 
1.455686362500e+05 4.048675100000e+05 1.100000000000e+00 2.701814151446e+09 1.000000000000e+00 
1.455686362500e+05 4.048675100000e+05 1.150000000000e+00 2.701813660554e+09 1.000000000000e+00 
1.455686362500e+05 4.048675100000e+05 1.200000000000e+00 2.701813169684e+09 1.000000000000e+00 