 TITLE = "Profiles along polylines"
 VARIABLES = "DIST" "PRESSURE1" "SATURATION1" 
 ZONE T="TIME=0.000000000000e+00"
0.000000000000e+00 -9.000000000000e+04 3.601056880734e-01 
5.000000000000e-02 -9.000000000000e+04 3.601056880734e-01 
1.000000000000e-01 -9.000000000000e+04 3.601056880734e-01 
1.500000000000e-01 -9.000000000000e+04 3.601056880734e-01 
2.000000000000e-01 -9.000000000000e+04 3.601056880734e-01 
2.500000000000e-01 -9.000000000000e+04 3.601056880734e-01 
3.000000000000e-01 -9.000000000000e+04 3.601056880734e-01 
3.500000000000e-01 -9.000000000000e+04 3.601056880734e-01 
4.000000000000e-01 -9.000000000000e+04 3.601056880734e-01 
4.500000000000e-01 -9.000000000000e+04 3.601056880734e-01 
5.000000000000e-01 -9.000000000000e+04 3.601056880734e-01 
5.500000000000e-01 -9.000000000000e+04 3.601056880734e-01 
6.000000000000e-01 -9.000000000000e+04 3.601056880734e-01 
6.500000000000e-01 -9.000000000000e+04 3.601056880734e-01 
7.000000000000e-01 -9.000000000000e+04 3.601056880734e-01 
7.500000000000e-01 -9.000000000000e+04 2.217008899083e-01 
8.000000000000e-01 -9.000000000000e+04 8.329609174312e-02 
8.500000000000e-01 -9.000000000000e+04 8.329609174312e-02 
9.000000000000e-01 -9.000000000000e+04 8.329609174312e-02 
9.500000000000e-01 -9.000000000000e+04 8.329609174312e-02 
1.000000000000e+00 -9.000000000000e+04 8.329609174312e-02 
1.050000000000e+00 -9.000000000000e+04 8.329609174312e-02 
1.100000000000e+00 -9.000000000000e+04 8.329609174312e-02 
1.150000000000e+00 -9.000000000000e+04 8.329609174312e-02 
1.200000000000e+00 -9.000000000000e+04 8.329609174312e-02 
1.250000000000e+00 -9.000000000000e+04 8.329609174312e-02 
1.300000000000e+00 -9.000000000000e+04 8.329609174312e-02 
1.350000000000e+00 -9.000000000000e+04 8.329609174312e-02 
1.400000000000e+00 -9.000000000000e+04 8.329609174312e-02 
1.450000000000e+00 -9.000000000000e+04 8.329609174312e-02 
1.500000000000e+00 -9.000000000000e+04 8.329609174312e-02 
1.550000000000e+00 -9.000000000000e+04 8.329609174312e-02 
1.600000000000e+00 -9.000000000000e+04 8.329609174312e-02 
1.650000000000e+00 -9.000000000000e+04 8.329609174312e-02 
1.700000000000e+00 -9.000000000000e+04 8.329609174312e-02 
1.750000000000e+00 -9.000000000000e+04 8.329609174312e-02 
1.800000000000e+00 -9.000000000000e+04 8.329609174312e-02 
1.850000000000e+00 -9.000000000000e+04 8.329609174312e-02 
1.900000000000e+00 -9.000000000000e+04 8.329609174312e-02 
1.950000000000e+00 -9.000000000000e+04 8.329609174312e-02 
2.000000000000e+00 -9.000000000000e+04 8.329609174312e-02 
 TITLE = "Profiles along polylines"
 VARIABLES = "DIST" "PRESSURE1" "SATURATION1" 
 ZONE T="TIME=5.000000000000e-01"
0.000000000000e+00 -8.361924651779e+04 3.772121614085e-01 
5.000000000000e-02 -8.762672130270e+04 3.718180863620e-01 
1.000000000000e-01 -8.915648244817e+04 3.643844173887e-01 
1.500000000000e-01 -8.970598187850e+04 3.616150707780e-01 
2.000000000000e-01 -8.989826617585e+04 3.606303276312e-01 
2.500000000000e-01 -8.996489823816e+04 3.602870128441e-01 
3.000000000000e-01 -8.998792228431e+04 3.601681507813e-01 
3.500000000000e-01 -8.999591012586e+04 3.601269519672e-01 
4.000000000000e-01 -8.999879900795e+04 3.601122455039e-01 
4.500000000000e-01 -9.000017947890e+04 3.601057525248e-01 
5.000000000000e-01 -9.000174950197e+04 3.600994657421e-01 
5.500000000000e-01 -9.000540283037e+04 3.600857822828e-01 
6.000000000000e-01 -9.001551541358e+04 3.600482969955e-01 
6.500000000000e-01 -9.004420049286e+04 3.599420472228e-01 
7.000000000000e-01 -9.012592699156e+04 3.596388753854e-01 
7.500000000000e-01 -9.035983399722e+04 2.212913339745e-01 
8.000000000000e-01 -9.005903638912e+04 8.322174121442e-02 
8.500000000000e-01 -9.000973375853e+04 8.328388083335e-02 
9.000000000000e-01 -9.000160616588e+04 8.329407810384e-02 
9.500000000000e-01 -9.000026506825e+04 8.329575946365e-02 
1.000000000000e+00 -9.000004374561e+04 8.329603690623e-02 
1.050000000000e+00 -9.000000721960e+04 8.329608269309e-02 
1.100000000000e+00 -9.000000119149e+04 8.329609024954e-02 
1.150000000000e+00 -9.000000019664e+04 8.329609149662e-02 
1.200000000000e+00 -9.000000003245e+04 8.329609170244e-02 
1.250000000000e+00 -9.000000000536e+04 8.329609173641e-02 
1.300000000000e+00 -9.000000000089e+04 8.329609174201e-02 
1.350000000000e+00 -9.000000000016e+04 8.329609174293e-02 
1.400000000000e+00 -9.000000000011e+04 8.329609174302e-02 
1.450000000000e+00 -9.000000000053e+04 8.329609174272e-02 
1.500000000000e+00 -9.000000000310e+04 8.329609174076e-02 
1.550000000000e+00 -9.000000001839e+04 8.329609172914e-02 
1.600000000000e+00 -9.000000010911e+04 8.329609166016e-02 
1.650000000000e+00 -9.000000064734e+04 8.329609125092e-02 
1.700000000000e+00 -9.000000384080e+04 8.329608882284e-02 
1.750000000000e+00 -9.000002278815e+04 8.329607441654e-02 
1.800000000000e+00 -9.000013520640e+04 8.329598894058e-02 
1.850000000000e+00 -9.000080221356e+04 8.329548176565e-02 
1.900000000000e+00 -9.000476003200e+04 8.329247151613e-02 
1.950000000000e+00 -9.002825470979e+04 8.327457251052e-02 
2.000000000000e+00 -9.016808676343e+04 8.325924972704e-02 
 TITLE = "Profiles along polylines"
 VARIABLES = "DIST" "PRESSURE1" "SATURATION1" 
 ZONE T="TIME=1.000000000000e+00"
0.000000000000e+00 -8.530173524570e+04 3.739242223670e-01 
5.000000000000e-02 -8.717071588845e+04 3.710106541841e-01 
1.000000000000e-01 -8.858825674481e+04 3.660568227465e-01 
1.500000000000e-01 -8.936338111586e+04 3.629334175076e-01 
2.000000000000e-01 -8.972973101468e+04 3.613458400012e-01 
2.500000000000e-01 -8.988962004680e+04 3.606230574201e-01 
3.000000000000e-01 -8.995620284993e+04 3.603141532830e-01 
3.500000000000e-01 -8.998327622927e+04 3.601866142554e-01 
4.000000000000e-01 -8.999456830973e+04 3.601335012867e-01 
4.500000000000e-01 -9.000052767322e+04 3.601070949362e-01 
5.000000000000e-01 -9.000679094455e+04 3.600828255707e-01 
5.500000000000e-01 -9.001902657300e+04 3.600389058830e-01 
6.000000000000e-01 -9.004750817687e+04 3.599390811208e-01 
6.500000000000e-01 -9.011423008043e+04 3.597085548708e-01 
7.000000000000e-01 -9.026501287051e+04 3.591969971820e-01 
7.500000000000e-01 -9.058441205823e+04 2.209639178601e-01 
8.000000000000e-01 -9.013772899474e+04 8.316390745533e-02 
8.500000000000e-01 -9.002963178173e+04 8.326571310585e-02 
9.000000000000e-01 -9.000603497209e+04 8.328964890194e-02 
9.500000000000e-01 -9.000118517675e+04 8.329479156314e-02 
1.000000000000e+00 -9.000022683182e+04 8.329583802430e-02 
1.050000000000e+00 -9.000004259079e+04 8.329604340841e-02 
1.100000000000e+00 -9.000000787985e+04 8.329608269961e-02 
1.150000000000e+00 -9.000000144088e+04 8.329609007459e-02 
1.200000000000e+00 -9.000000026097e+04 8.329609143870e-02 
1.250000000000e+00 -9.000000004690e+04 8.329609168808e-02 
1.300000000000e+00 -9.000000000840e+04 8.329609173322e-02 
1.350000000000e+00 -9.000000000165e+04 8.329609174124e-02 
1.400000000000e+00 -9.000000000117e+04 8.329609174215e-02 
1.450000000000e+00 -9.000000000506e+04 8.329609173942e-02 
1.500000000000e+00 -9.000000002756e+04 8.329609172317e-02 
1.550000000000e+00 -9.000000015036e+04 8.329609163483e-02 
1.600000000000e+00 -9.000000081417e+04 8.329609115984e-02 
1.650000000000e+00 -9.000000436833e+04 8.329608863391e-02 
1.700000000000e+00 -9.000002317536e+04 8.329607538099e-02 
1.750000000000e+00 -9.000012123074e+04 8.329600703607e-02 
1.800000000000e+00 -9.000062273880e+04 8.329566255794e-02 
1.850000000000e+00 -9.000312211679e+04 8.329398054690e-02 
1.900000000000e+00 -9.001512870763e+04 8.328614308023e-02 
1.950000000000e+00 -9.006966765870e+04 8.325227681030e-02 
2.000000000000e+00 -9.029494852109e+04 8.322485325659e-02 
 TITLE = "Profiles along polylines"
 VARIABLES = "DIST" "PRESSURE1" "SATURATION1" 
 ZONE T="TIME=5.000000000000e+00"
0.000000000000e+00 -3.493950196389e+04 5.764724870590e-01 
5.000000000000e-02 -3.808359795519e+04 5.638354495082e-01 
1.000000000000e-01 -4.457302775495e+04 5.297675533005e-01 
1.500000000000e-01 -5.408540609071e+04 4.899540239095e-01 
2.000000000000e-01 -6.321102632433e+04 4.569647214831e-01 
2.500000000000e-01 -7.080593609134e+04 4.303802657559e-01 
3.000000000000e-01 -7.681064285347e+04 4.090705267524e-01 
3.500000000000e-01 -8.131387107492e+04 3.928389358363e-01 
4.000000000000e-01 -8.451625681256e+04 3.810910075782e-01 
4.500000000000e-01 -8.669037335358e+04 3.729751605819e-01 
5.000000000000e-01 -8.812408541427e+04 3.675516034129e-01 
5.500000000000e-01 -8.907159490715e+04 3.639523793977e-01 
6.000000000000e-01 -8.973039908713e+04 3.614758677973e-01 
6.500000000000e-01 -9.024110659461e+04 3.596077227055e-01 
7.000000000000e-01 -9.069702205970e+04 3.579998067448e-01 
7.500000000000e-01 -9.115303661893e+04 2.200205015555e-01 
8.000000000000e-01 -9.063152821327e+04 8.292603678673e-02 
8.500000000000e-01 -9.031119785463e+04 8.310422884962e-02 
9.000000000000e-01 -9.014261795050e+04 8.320486526557e-02 
9.500000000000e-01 -9.006201957268e+04 8.325530924303e-02 
1.000000000000e+00 -9.002594167962e+04 8.327867077450e-02 
1.050000000000e+00 -9.001053912440e+04 8.328889961531e-02 
1.100000000000e+00 -9.000418852162e+04 8.329319804657e-02 
1.150000000000e+00 -9.000163727404e+04 8.329494994710e-02 
1.200000000000e+00 -9.000063236123e+04 8.329564764872e-02 
1.250000000000e+00 -9.000024294204e+04 8.329592041277e-02 
1.300000000000e+00 -9.000009537854e+04 8.329602478759e-02 
1.350000000000e+00 -9.000004432851e+04 8.329606204102e-02 
1.400000000000e+00 -9.000003839705e+04 8.329606921181e-02 
1.450000000000e+00 -9.000007086241e+04 8.329605386474e-02 
1.500000000000e+00 -9.000017244684e+04 8.329600168506e-02 
1.550000000000e+00 -9.000043895805e+04 8.329586388656e-02 
1.600000000000e+00 -9.000111634903e+04 8.329551456637e-02 
1.650000000000e+00 -9.000281020304e+04 8.329464542627e-02 
1.700000000000e+00 -9.000697075737e+04 8.329252477995e-02 
1.750000000000e+00 -9.001695714126e+04 8.328747814254e-02 
1.800000000000e+00 -9.004020747119e+04 8.327585578354e-02 
1.850000000000e+00 -9.009218809069e+04 8.325022411598e-02 
1.900000000000e+00 -9.020225695537e+04 8.319685270067e-02 
1.950000000000e+00 -9.041881443209e+04 8.309391258920e-02 
2.000000000000e+00 -9.080409064273e+04 8.302678949740e-02 
 TITLE = "Profiles along polylines"
 VARIABLES = "DIST" "PRESSURE1" "SATURATION1" 
 ZONE T="TIME=1.000000000000e+01"
0.000000000000e+00 -4.847521676682e+04 5.000041789582e-01 
5.000000000000e-02 -4.979921293281e+04 4.966263148967e-01 
1.000000000000e-01 -5.260481162604e+04 4.878847816453e-01 
1.500000000000e-01 -5.648452238391e+04 4.756503421059e-01 
2.000000000000e-01 -6.088279515553e+04 4.612712702151e-01 
2.500000000000e-01 -6.537204292401e+04 4.462571748177e-01 
3.000000000000e-01 -6.967490339860e+04 4.316608253769e-01 
3.500000000000e-01 -7.361578242895e+04 4.181505741564e-01 
4.000000000000e-01 -7.709355073669e+04 4.061205172593e-01 
4.500000000000e-01 -8.006543908030e+04 3.957559935214e-01 
5.000000000000e-01 -8.253406028201e+04 3.870813553520e-01 
5.500000000000e-01 -8.453402324381e+04 3.800052579482e-01 
6.000000000000e-01 -8.611790846513e+04 3.743672134100e-01 
6.500000000000e-01 -8.734273685573e+04 3.699830806728e-01 
7.000000000000e-01 -8.825811871456e+04 3.666857798514e-01 
7.500000000000e-01 -8.889682592721e+04 2.245068894385e-01 
8.000000000000e-01 -8.960023499734e+04 8.358529241638e-02 
8.500000000000e-01 -8.987959467650e+04 8.339313074127e-02 
9.000000000000e-01 -8.997760830261e+04 8.332087227457e-02 
9.500000000000e-01 -9.000585174270e+04 8.329747334432e-02 
1.000000000000e+00 -9.001038314091e+04 8.329188721900e-02 
1.050000000000e+00 -9.000841030543e+04 8.329185968290e-02 
1.100000000000e+00 -9.000560174638e+04 8.329305214647e-02 
1.150000000000e+00 -9.000343410909e+04 8.329415957685e-02 
1.200000000000e+00 -9.000205191192e+04 8.329491828734e-02 
1.250000000000e+00 -9.000128328096e+04 8.329536072506e-02 
1.300000000000e+00 -9.000095919327e+04 8.329556339650e-02 
1.350000000000e+00 -9.000099766824e+04 8.329557179359e-02 
1.400000000000e+00 -9.000142803814e+04 8.329537807348e-02 
1.450000000000e+00 -9.000242189027e+04 8.329490367858e-02 
1.500000000000e+00 -9.000436360354e+04 8.329396530548e-02 
1.550000000000e+00 -9.000799177380e+04 8.329220737541e-02 
1.600000000000e+00 -9.001465721203e+04 8.328897891209e-02 
1.650000000000e+00 -9.002676725274e+04 8.328312232574e-02 
1.700000000000e+00 -9.004851206088e+04 8.327263077457e-02 
1.750000000000e+00 -9.008697467791e+04 8.325413067584e-02 
1.800000000000e+00 -9.015365769840e+04 8.322218274494e-02 
1.850000000000e+00 -9.026620515546e+04 8.316851788259e-02 
1.900000000000e+00 -9.044949987482e+04 8.308159523631e-02 
1.950000000000e+00 -9.073431593065e+04 8.294728222941e-02 
2.000000000000e+00 -9.115087538845e+04 8.286639642545e-02 
 TITLE = "Profiles along polylines"
 VARIABLES = "DIST" "PRESSURE1" "SATURATION1" 
 ZONE T="TIME=2.000000000000e+01"
0.000000000000e+00 -3.571477111408e+04 5.710499177687e-01 
5.000000000000e-02 -3.927450673850e+04 5.603795317893e-01 
1.000000000000e-01 -4.294412713934e+04 5.385421270844e-01 
1.500000000000e-01 -4.689613566224e+04 5.155565905153e-01 
2.000000000000e-01 -5.130075228709e+04 4.951163491021e-01 
2.500000000000e-01 -5.557711406988e+04 4.794020604633e-01 
3.000000000000e-01 -5.957454622757e+04 4.656935091571e-01 
3.500000000000e-01 -6.328654067560e+04 4.529547287857e-01 
4.000000000000e-01 -6.669671672522e+04 4.412321648991e-01 
4.500000000000e-01 -6.978504811601e+04 4.305898554748e-01 
5.000000000000e-01 -7.253106105286e+04 4.210960879130e-01 
5.500000000000e-01 -7.491539621797e+04 4.128167915988e-01 
6.000000000000e-01 -7.692041839181e+04 4.058126791949e-01 
6.500000000000e-01 -7.853032199504e+04 4.001383906834e-01 
7.000000000000e-01 -7.973110982076e+04 3.958423030130e-01 
7.500000000000e-01 -8.051078257984e+04 2.407515767393e-01 
8.000000000000e-01 -8.360239441274e+04 8.677329725183e-02 
8.500000000000e-01 -8.577579293888e+04 8.560999953720e-02 
9.000000000000e-01 -8.725575746360e+04 8.480875116415e-02 
9.500000000000e-01 -8.823820248167e+04 8.427175532606e-02 
1.000000000000e+00 -8.887820307073e+04 8.391936944147e-02 
1.050000000000e+00 -8.928973871925e+04 8.369159893875e-02 
1.100000000000e+00 -8.955219824618e+04 8.354584182903e-02 
1.150000000000e+00 -8.971887643990e+04 8.345309612704e-02 
1.200000000000e+00 -8.982471492087e+04 8.339416756740e-02 
1.250000000000e+00 -8.989232329202e+04 8.335656524311e-02 
1.300000000000e+00 -8.993628355975e+04 8.333221361621e-02 
1.350000000000e+00 -8.996609063753e+04 8.331586121006e-02 
1.400000000000e+00 -8.998812384299e+04 8.330400404639e-02 
1.450000000000e+00 -9.000697727908e+04 8.329415843745e-02 
1.500000000000e+00 -9.002639210075e+04 8.328435551798e-02 
1.550000000000e+00 -9.004996181743e+04 8.327276598678e-02 
1.600000000000e+00 -9.008172715170e+04 8.325739232756e-02 
1.650000000000e+00 -9.012673342186e+04 8.323578895871e-02 
1.700000000000e+00 -9.019158072188e+04 8.320479284289e-02 
1.750000000000e+00 -9.028494312993e+04 8.316027372290e-02 
1.800000000000e+00 -9.041795594545e+04 8.309694960243e-02 
1.850000000000e+00 -9.060426529253e+04 8.300836056972e-02 
1.900000000000e+00 -9.085942398778e+04 8.288714121321e-02 
1.950000000000e+00 -9.119928333087e+04 8.272574015457e-02 
2.000000000000e+00 -9.163725316734e+04 8.263406918767e-02 
 TITLE = "Profiles along polylines"
 VARIABLES = "DIST" "PRESSURE1" "SATURATION1" 
 ZONE T="TIME=3.000000000000e+01"
0.000000000000e+00 -3.667659000677e+04 5.678466277846e-01 
5.000000000000e-02 -3.897033188939e+04 5.608442446859e-01 
1.000000000000e-01 -4.146313117706e+04 5.462226842906e-01 
1.500000000000e-01 -4.418147155083e+04 5.302555987693e-01 
2.000000000000e-01 -4.718556764984e+04 5.128638994094e-01 
2.500000000000e-01 -5.053238019152e+04 4.970051924110e-01 
3.000000000000e-01 -5.384416702198e+04 4.846752700017e-01 
3.500000000000e-01 -5.697929000900e+04 4.739590972749e-01 
4.000000000000e-01 -5.991240627056e+04 4.639140162049e-01 
4.500000000000e-01 -6.261738678185e+04 4.546282880516e-01 
5.000000000000e-01 -6.506712780119e+04 4.461930787490e-01 
5.500000000000e-01 -6.723388225928e+04 4.387016479348e-01 
6.000000000000e-01 -6.909007773515e+04 4.322468423677e-01 
6.500000000000e-01 -7.060963509937e+04 4.269169272257e-01 
7.000000000000e-01 -7.176975306923e+04 4.227898885441e-01 
7.500000000000e-01 -7.255299898145e+04 2.561087190756e-01 
8.000000000000e-01 -7.682334268231e+04 9.019923497033e-02 
8.500000000000e-01 -8.025813374785e+04 8.843323299607e-02 
9.000000000000e-01 -8.294486455836e+04 8.704120757362e-02 
9.500000000000e-01 -8.498721203677e+04 8.597404886498e-02 
1.000000000000e+00 -8.649792713514e+04 8.517786571128e-02 
1.050000000000e+00 -8.758846537906e+04 8.459846173369e-02 
1.100000000000e+00 -8.835974187758e+04 8.418576732407e-02 
1.150000000000e+00 -8.889656862886e+04 8.389685273729e-02 
1.200000000000e+00 -8.926609577616e+04 8.369711498170e-02 
1.250000000000e+00 -8.951914219170e+04 8.355997835941e-02 
1.300000000000e+00 -8.969297234505e+04 8.346573702433e-02 
1.350000000000e+00 -8.981441651744e+04 8.340009770684e-02 
1.400000000000e+00 -8.990272409697e+04 8.335277265248e-02 
1.450000000000e+00 -8.997191870993e+04 8.331628112551e-02 
1.500000000000e+00 -9.003263877687e+04 8.328499533635e-02 
1.550000000000e+00 -9.009353800988e+04 8.325440749154e-02 
1.600000000000e+00 -9.016233922445e+04 8.322057646998e-02 
1.650000000000e+00 -9.024661825010e+04 8.317971621604e-02 
1.700000000000e+00 -9.035436304825e+04 8.312790144442e-02 
1.750000000000e+00 -9.049431669939e+04 8.306088324188e-02 
1.800000000000e+00 -9.067607846251e+04 8.297402357266e-02 
1.850000000000e+00 -9.090991315775e+04 8.286236917269e-02 
1.900000000000e+00 -9.120621995265e+04 8.272088522200e-02 
1.950000000000e+00 -9.157465821155e+04 8.254484838160e-02 
2.000000000000e+00 -9.202304031524e+04 8.244763542678e-02 
 TITLE = "Profiles along polylines"
 VARIABLES = "DIST" "PRESSURE1" "SATURATION1" 
 ZONE T="TIME=4.000000000000e+01"
0.000000000000e+00 -4.471547087566e+04 5.233177321875e-01 
5.000000000000e-02 -4.540470497897e+04 5.209304626194e-01 
1.000000000000e-01 -4.644006418332e+04 5.151494414843e-01 
1.500000000000e-01 -4.780085207285e+04 5.074146167568e-01 
2.000000000000e-01 -4.949153448951e+04 4.991906023708e-01 
2.500000000000e-01 -5.139830224807e+04 4.920204094894e-01 
3.000000000000e-01 -5.340149449841e+04 4.853225833985e-01 
3.500000000000e-01 -5.543005502097e+04 4.784911452327e-01 
4.000000000000e-01 -5.742608570717e+04 4.717320959306e-01 
4.500000000000e-01 -5.934087867361e+04 4.652172344804e-01 
5.000000000000e-01 -6.113235882517e+04 4.590937860729e-01 
5.500000000000e-01 -6.276365510666e+04 4.534900115597e-01 
6.000000000000e-01 -6.420257579584e+04 4.485176039660e-01 
6.500000000000e-01 -6.542179953717e+04 4.442715537176e-01 
7.000000000000e-01 -6.639959013424e+04 4.408281494679e-01 
7.500000000000e-01 -6.712080760081e+04 2.665741903476e-01 
8.000000000000e-01 -7.152337354203e+04 9.279697584911e-02 
8.500000000000e-01 -7.534974431181e+04 9.086658967418e-02 
9.000000000000e-01 -7.860152842729e+04 8.921761039145e-02 
9.500000000000e-01 -8.129843921895e+04 8.784177161734e-02 
1.000000000000e+00 -8.347890666424e+04 8.672189781819e-02 
1.050000000000e+00 -8.519762503891e+04 8.583284482968e-02 
1.100000000000e+00 -8.652021911232e+04 8.514377369373e-02 
1.150000000000e+00 -8.751642674444e+04 8.462123098343e-02 
1.200000000000e+00 -8.825366216908e+04 8.423223176060e-02 
1.250000000000e+00 -8.879237231870e+04 8.394665202266e-02 
1.300000000000e+00 -8.918367162853e+04 8.373860496752e-02 
1.350000000000e+00 -8.946894501169e+04 8.358685313997e-02 
1.400000000000e+00 -8.968074427422e+04 8.347452791353e-02 
1.450000000000e+00 -8.984431310752e+04 8.338846985091e-02 
1.500000000000e+00 -8.997926186628e+04 8.331843937563e-02 
1.550000000000e+00 -9.010111705148e+04 8.325635419812e-02 
1.600000000000e+00 -9.022262090768e+04 8.319563230833e-02 
1.650000000000e+00 -9.035474415740e+04 8.313066979340e-02 
1.700000000000e+00 -9.050741525598e+04 8.305645738658e-02 
1.750000000000e+00 -9.068998234489e+04 8.296832977563e-02 
1.800000000000e+00 -9.091142541275e+04 8.286183915216e-02 
1.850000000000e+00 -9.118033764190e+04 8.273274312281e-02 
1.900000000000e+00 -9.150470443831e+04 8.257709273571e-02 
1.950000000000e+00 -9.189153039546e+04 8.239139681205e-02 
2.000000000000e+00 -9.234639674759e+04 8.229063577258e-02 
 TITLE = "Profiles along polylines"
 VARIABLES = "DIST" "PRESSURE1" "SATURATION1" 
 ZONE T="TIME=5.000000000000e+01"
0.000000000000e+00 -4.587644761876e+04 5.159168242344e-01 
5.000000000000e-02 -4.682437219660e+04 5.129908837887e-01 
1.000000000000e-01 -4.788701392311e+04 5.067724485260e-01 
1.500000000000e-01 -4.909085355960e+04 5.004006718860e-01 
2.000000000000e-01 -5.041803706204e+04 4.950292004004e-01 
2.500000000000e-01 -5.181965501220e+04 4.903347934557e-01 
3.000000000000e-01 -5.326709579598e+04 4.854699001065e-01 
3.500000000000e-01 -5.472987155501e+04 4.805357337711e-01 
4.000000000000e-01 -5.617757392077e+04 4.756348339999e-01 
4.500000000000e-01 -5.758096197855e+04 4.708666342507e-01 
5.000000000000e-01 -5.891262964293e+04 4.663248084617e-01 
5.500000000000e-01 -6.014752279064e+04 4.620953490407e-01 
6.000000000000e-01 -6.126345407218e+04 4.582547857921e-01 
6.500000000000e-01 -6.224167578430e+04 4.548682793629e-01 
7.000000000000e-01 -6.306750524051e+04 4.519875615113e-01 
7.500000000000e-01 -6.373094756808e+04 2.731131522432e-01 
8.000000000000e-01 -6.785358469210e+04 9.456234437195e-02 
8.500000000000e-01 -7.161476280742e+04 9.268442319178e-02 
9.000000000000e-01 -7.498230864716e+04 9.099646553228e-02 
9.500000000000e-01 -7.793755929172e+04 8.950870189215e-02 
1.000000000000e+00 -8.047611576515e+04 8.822440874201e-02 
1.050000000000e+00 -8.260855281475e+04 8.713965410473e-02 
1.100000000000e+00 -8.435988436374e+04 8.624350264506e-02 
1.150000000000e+00 -8.576724706098e+04 8.551899065752e-02 
1.200000000000e+00 -8.687603128987e+04 8.494483344189e-02 
1.250000000000e+00 -8.773530404797e+04 8.449753507137e-02 
1.300000000000e+00 -8.839355516679e+04 8.415344544016e-02 
1.350000000000e+00 -8.889553255828e+04 8.389038393691e-02 
1.400000000000e+00 -8.928044757067e+04 8.368864660599e-02 
1.450000000000e+00 -8.958140872035e+04 8.353141509537e-02 
1.500000000000e+00 -8.982572373162e+04 8.340471102622e-02 
1.550000000000e+00 -9.003568229758e+04 8.329707557746e-02 
1.600000000000e+00 -9.022951034839e+04 8.319913060734e-02 
1.650000000000e+00 -9.042229270419e+04 8.310313120070e-02 
1.700000000000e+00 -9.062675209929e+04 8.300257448753e-02 
1.750000000000e+00 -9.085383624225e+04 8.289189571252e-02 
1.800000000000e+00 -9.111310422621e+04 8.276626037977e-02 
1.850000000000e+00 -9.141292743253e+04 8.262144767115e-02 
1.900000000000e+00 -9.176053540712e+04 8.245381174401e-02 
1.950000000000e+00 -9.216194829869e+04 8.226030164947e-02 
2.000000000000e+00 -9.262184493930e+04 8.215673524150e-02 
 TITLE = "Profiles along polylines"
 VARIABLES = "DIST" "PRESSURE1" "SATURATION1" 
 ZONE T="TIME=6.000000000000e+01"
0.000000000000e+00 4.958207783343e+08 1.000000000000e+00 
5.000000000000e-02 4.958202397952e+08 1.000000000000e+00 
1.000000000000e-01 4.958197024721e+08 1.000000000000e+00 
1.500000000000e-01 4.958191663652e+08 1.000000000000e+00 
2.000000000000e-01 4.958186314745e+08 1.000000000000e+00 
2.500000000000e-01 4.958180977998e+08 1.000000000000e+00 
3.000000000000e-01 4.958175653414e+08 1.000000000000e+00 
3.500000000000e-01 4.958170340991e+08 1.000000000000e+00 
4.000000000000e-01 4.958165040729e+08 1.000000000000e+00 
4.500000000000e-01 4.958159752629e+08 1.000000000000e+00 
5.000000000000e-01 4.958154476690e+08 1.000000000000e+00 
5.500000000000e-01 4.958149212913e+08 1.000000000000e+00 
6.000000000000e-01 4.958143961298e+08 1.000000000000e+00 
6.500000000000e-01 4.958138721844e+08 1.000000000000e+00 
7.000000000000e-01 4.958133494551e+08 1.000000000000e+00 
7.500000000000e-01 4.958128279421e+08 1.000000000000e+00 
8.000000000000e-01 4.958123359140e+08 1.000000000000e+00 
8.500000000000e-01 4.958118439483e+08 1.000000000000e+00 
9.000000000000e-01 4.958113520450e+08 1.000000000000e+00 
9.500000000000e-01 4.958108602041e+08 1.000000000000e+00 
1.000000000000e+00 4.958103684255e+08 1.000000000000e+00 
1.050000000000e+00 4.958098767093e+08 1.000000000000e+00 
1.100000000000e+00 4.958093850554e+08 1.000000000000e+00 
1.150000000000e+00 4.958088934640e+08 1.000000000000e+00 
1.200000000000e+00 4.958084019349e+08 1.000000000000e+00 
1.250000000000e+00 4.958079104681e+08 1.000000000000e+00 
1.300000000000e+00 4.958074190638e+08 1.000000000000e+00 
1.350000000000e+00 4.958069277218e+08 1.000000000000e+00 
1.400000000000e+00 4.958064364422e+08 1.000000000000e+00 
1.450000000000e+00 4.958059452249e+08 1.000000000000e+00 
1.500000000000e+00 4.958054540700e+08 1.000000000000e+00 
1.550000000000e+00 4.958049629775e+08 1.000000000000e+00 
1.600000000000e+00 4.958044719474e+08 1.000000000000e+00 
1.650000000000e+00 4.958039809796e+08 1.000000000000e+00 
1.700000000000e+00 4.958034900742e+08 1.000000000000e+00 
1.750000000000e+00 4.958029992312e+08 1.000000000000e+00 
1.800000000000e+00 4.958025084505e+08 1.000000000000e+00 
1.850000000000e+00 4.958020177322e+08 1.000000000000e+00 
1.900000000000e+00 4.958015270763e+08 1.000000000000e+00 
1.950000000000e+00 4.958010364827e+08 1.000000000000e+00 
2.000000000000e+00 4.958005459516e+08 1.000000000000e+00 
 TITLE = "Profiles along polylines"
 VARIABLES = "DIST" "PRESSURE1" "SATURATION1" 
 ZONE T="TIME=7.000000000000e+01"
0.000000000000e+00 5.301487423502e+08 1.000000000000e+00 
5.000000000000e-02 5.301482485247e+08 1.000000000000e+00 
1.000000000000e-01 5.301477547833e+08 1.000000000000e+00 
1.500000000000e-01 5.301472611262e+08 1.000000000000e+00 
2.000000000000e-01 5.301467675532e+08 1.000000000000e+00 
2.500000000000e-01 5.301462740644e+08 1.000000000000e+00 
3.000000000000e-01 5.301457806598e+08 1.000000000000e+00 
3.500000000000e-01 5.301452873394e+08 1.000000000000e+00 
4.000000000000e-01 5.301447941032e+08 1.000000000000e+00 
4.500000000000e-01 5.301443009512e+08 1.000000000000e+00 
5.000000000000e-01 5.301438078834e+08 1.000000000000e+00 
5.500000000000e-01 5.301433148998e+08 1.000000000000e+00 
6.000000000000e-01 5.301428220004e+08 1.000000000000e+00 
6.500000000000e-01 5.301423291851e+08 1.000000000000e+00 
7.000000000000e-01 5.301418364541e+08 1.000000000000e+00 
7.500000000000e-01 5.301413438072e+08 1.000000000000e+00 
8.000000000000e-01 5.301408532014e+08 1.000000000000e+00 
8.500000000000e-01 5.301403626000e+08 1.000000000000e+00 
9.000000000000e-01 5.301398720028e+08 1.000000000000e+00 
9.500000000000e-01 5.301393814100e+08 1.000000000000e+00 
1.000000000000e+00 5.301388908215e+08 1.000000000000e+00 
1.050000000000e+00 5.301384002373e+08 1.000000000000e+00 
1.100000000000e+00 5.301379096574e+08 1.000000000000e+00 
1.150000000000e+00 5.301374190819e+08 1.000000000000e+00 
1.200000000000e+00 5.301369285106e+08 1.000000000000e+00 
1.250000000000e+00 5.301364379437e+08 1.000000000000e+00 
1.300000000000e+00 5.301359473811e+08 1.000000000000e+00 
1.350000000000e+00 5.301354568228e+08 1.000000000000e+00 
1.400000000000e+00 5.301349662688e+08 1.000000000000e+00 
1.450000000000e+00 5.301344757192e+08 1.000000000000e+00 
1.500000000000e+00 5.301339851739e+08 1.000000000000e+00 
1.550000000000e+00 5.301334946328e+08 1.000000000000e+00 
1.600000000000e+00 5.301330040961e+08 1.000000000000e+00 
1.650000000000e+00 5.301325135638e+08 1.000000000000e+00 
1.700000000000e+00 5.301320230357e+08 1.000000000000e+00 
1.750000000000e+00 5.301315325120e+08 1.000000000000e+00 
1.800000000000e+00 5.301310419925e+08 1.000000000000e+00 
1.850000000000e+00 5.301305514774e+08 1.000000000000e+00 
1.900000000000e+00 5.301300609666e+08 1.000000000000e+00 
1.950000000000e+00 5.301295704601e+08 1.000000000000e+00 
2.000000000000e+00 5.301290799580e+08 1.000000000000e+00 
 TITLE = "Profiles along polylines"
 VARIABLES = "DIST" "PRESSURE1" "SATURATION1" 
 ZONE T="TIME=8.000000000000e+01"
0.000000000000e+00 5.301490809233e+08 1.000000000000e+00 
5.000000000000e-02 5.301485904233e+08 1.000000000000e+00 
1.000000000000e-01 5.301480999233e+08 1.000000000000e+00 
1.500000000000e-01 5.301476094233e+08 1.000000000000e+00 
2.000000000000e-01 5.301471189233e+08 1.000000000000e+00 
2.500000000000e-01 5.301466284233e+08 1.000000000000e+00 
3.000000000000e-01 5.301461379233e+08 1.000000000000e+00 
3.500000000000e-01 5.301456474233e+08 1.000000000000e+00 
4.000000000000e-01 5.301451569233e+08 1.000000000000e+00 
4.500000000000e-01 5.301446664233e+08 1.000000000000e+00 
5.000000000000e-01 5.301441759233e+08 1.000000000000e+00 
5.500000000000e-01 5.301436854233e+08 1.000000000000e+00 
6.000000000000e-01 5.301431949233e+08 1.000000000000e+00 
6.500000000000e-01 5.301427044233e+08 1.000000000000e+00 
7.000000000000e-01 5.301422139234e+08 1.000000000000e+00 
7.500000000000e-01 5.301417234234e+08 1.000000000000e+00 
8.000000000000e-01 5.301412329234e+08 1.000000000000e+00 
8.500000000000e-01 5.301407424234e+08 1.000000000000e+00 
9.000000000000e-01 5.301402519234e+08 1.000000000000e+00 
9.500000000000e-01 5.301397614234e+08 1.000000000000e+00 
1.000000000000e+00 5.301392709234e+08 1.000000000000e+00 
1.050000000000e+00 5.301387804234e+08 1.000000000000e+00 
1.100000000000e+00 5.301382899234e+08 1.000000000000e+00 
1.150000000000e+00 5.301377994234e+08 1.000000000000e+00 
1.200000000000e+00 5.301373089234e+08 1.000000000000e+00 
1.250000000000e+00 5.301368184234e+08 1.000000000000e+00 
1.300000000000e+00 5.301363279234e+08 1.000000000000e+00 
1.350000000000e+00 5.301358374234e+08 1.000000000000e+00 
1.400000000000e+00 5.301353469234e+08 1.000000000000e+00 
1.450000000000e+00 5.301348564234e+08 1.000000000000e+00 
1.500000000000e+00 5.301343659234e+08 1.000000000000e+00 
1.550000000000e+00 5.301338754234e+08 1.000000000000e+00 
1.600000000000e+00 5.301333849234e+08 1.000000000000e+00 
1.650000000000e+00 5.301328944234e+08 1.000000000000e+00 
1.700000000000e+00 5.301324039234e+08 1.000000000000e+00 