 TITLE = "Profiles along polylines"
 VARIABLES = "DIST" "PRESSURE1" "SATURATION1" 
 ZONE T="TIME=0.000000000000e+00"
0.000000000000e+00 -9.000000000000e+04 3.601056880734e-01 
5.000000000000e-02 -9.000000000000e+04 3.601056880734e-01 
1.000000000000e-01 -9.000000000000e+04 3.601056880734e-01 
1.500000000000e-01 -9.000000000000e+04 3.601056880734e-01 
2.000000000000e-01 -9.000000000000e+04 3.601056880734e-01 
2.500000000000e-01 -9.000000000000e+04 2.217008899083e-01 
3.000000000000e-01 -9.000000000000e+04 8.329609174312e-02 
3.500000000000e-01 -9.000000000000e+04 8.329609174312e-02 
4.000000000000e-01 -9.000000000000e+04 8.329609174312e-02 
4.500000000000e-01 -9.000000000000e+04 8.329609174312e-02 
5.000000000000e-01 -9.000000000000e+04 8.329609174312e-02 
5.500000000000e-01 -9.000000000000e+04 8.329609174312e-02 
6.000000000000e-01 -9.000000000000e+04 8.329609174312e-02 
6.500000000000e-01 -9.000000000000e+04 8.329609174312e-02 
7.000000000000e-01 -9.000000000000e+04 8.329609174312e-02 
7.500000000000e-01 -9.000000000000e+04 8.329609174312e-02 
8.000000000000e-01 -9.000000000000e+04 8.329609174312e-02 
8.500000000000e-01 -9.000000000000e+04 8.329609174312e-02 
9.000000000000e-01 -9.000000000000e+04 8.329609174312e-02 
9.500000000000e-01 -9.000000000000e+04 8.329609174312e-02 
1.000000000000e+00 -9.000000000000e+04 8.329609174312e-02 
1.050000000000e+00 -9.000000000000e+04 8.329609174312e-02 
1.100000000000e+00 -9.000000000000e+04 8.329609174312e-02 
1.150000000000e+00 -9.000000000000e+04 8.329609174312e-02 
1.200000000000e+00 -9.000000000000e+04 8.329609174312e-02 
1.250000000000e+00 -9.000000000000e+04 8.329609174312e-02 
1.300000000000e+00 -9.000000000000e+04 8.329609174312e-02 
1.350000000000e+00 -9.000000000000e+04 8.329609174312e-02 
1.400000000000e+00 -9.000000000000e+04 8.329609174312e-02 
1.450000000000e+00 -9.000000000000e+04 8.329609174312e-02 
1.500000000000e+00 -9.000000000000e+04 8.329609174312e-02 
1.550000000000e+00 -9.000000000000e+04 8.329609174312e-02 
1.600000000000e+00 -9.000000000000e+04 8.329609174312e-02 
1.650000000000e+00 -9.000000000000e+04 8.329609174312e-02 
1.700000000000e+00 -9.000000000000e+04 8.329609174312e-02 
1.750000000000e+00 -9.000000000000e+04 8.329609174312e-02 
1.800000000000e+00 -9.000000000000e+04 8.329609174312e-02 
1.850000000000e+00 -9.000000000000e+04 8.329609174312e-02 
1.900000000000e+00 -9.000000000000e+04 8.329609174312e-02 
1.950000000000e+00 -9.000000000000e+04 8.329609174312e-02 
2.000000000000e+00 -9.000000000000e+04 8.329609174312e-02 
 TITLE = "Profiles along polylines"
 VARIABLES = "DIST" "PRESSURE1" "SATURATION1" 
 ZONE T="TIME=5.000000000000e-01"
0.000000000000e+00 -8.359928385493e+04 3.772617362862e-01 
5.000000000000e-02 -8.762278573823e+04 3.718413288508e-01 
1.000000000000e-01 -8.916708733626e+04 3.643489685935e-01 
1.500000000000e-01 -8.974476429578e+04 3.614728585134e-01 
2.000000000000e-01 -9.001235097979e+04 3.602078808550e-01 
2.500000000000e-01 -9.029259033272e+04 2.214696389727e-01 
3.000000000000e-01 -9.004805722842e+04 8.323562147531e-02 
3.500000000000e-01 -9.000792496376e+04 8.328615135846e-02 
4.000000000000e-01 -9.000130773548e+04 8.329445228222e-02 
4.500000000000e-01 -9.000021581883e+04 8.329582120189e-02 
5.000000000000e-01 -9.000003561775e+04 8.329604709486e-02 
5.500000000000e-01 -9.000000587821e+04 8.329608437457e-02 
6.000000000000e-01 -9.000000097012e+04 8.329609052704e-02 
6.500000000000e-01 -9.000000016010e+04 8.329609154242e-02 
7.000000000000e-01 -9.000000002642e+04 8.329609171000e-02 
7.500000000000e-01 -9.000000000436e+04 8.329609173765e-02 
8.000000000000e-01 -9.000000000072e+04 8.329609174222e-02 
8.500000000000e-01 -9.000000000012e+04 8.329609174297e-02 
9.000000000000e-01 -9.000000000002e+04 8.329609174309e-02 
9.500000000000e-01 -9.000000000000e+04 8.329609174312e-02 
1.000000000000e+00 -9.000000000000e+04 8.329609174312e-02 
1.050000000000e+00 -9.000000000000e+04 8.329609174312e-02 
1.100000000000e+00 -9.000000000000e+04 8.329609174312e-02 
1.150000000000e+00 -9.000000000000e+04 8.329609174312e-02 
1.200000000000e+00 -9.000000000000e+04 8.329609174312e-02 
1.250000000000e+00 -9.000000000000e+04 8.329609174312e-02 
1.300000000000e+00 -9.000000000000e+04 8.329609174312e-02 
1.350000000000e+00 -9.000000000001e+04 8.329609174311e-02 
1.400000000000e+00 -9.000000000009e+04 8.329609174305e-02 
1.450000000000e+00 -9.000000000052e+04 8.329609174272e-02 
1.500000000000e+00 -9.000000000310e+04 8.329609174076e-02 
1.550000000000e+00 -9.000000001839e+04 8.329609172914e-02 
1.600000000000e+00 -9.000000010911e+04 8.329609166016e-02 
1.650000000000e+00 -9.000000064734e+04 8.329609125092e-02 
1.700000000000e+00 -9.000000384080e+04 8.329608882284e-02 
1.750000000000e+00 -9.000002278815e+04 8.329607441654e-02 
1.800000000000e+00 -9.000013520640e+04 8.329598894058e-02 
1.850000000000e+00 -9.000080221356e+04 8.329548176565e-02 
1.900000000000e+00 -9.000476003200e+04 8.329247151613e-02 
1.950000000000e+00 -9.002825470979e+04 8.327457251052e-02 
2.000000000000e+00 -9.016808676343e+04 8.325924972704e-02 
 TITLE = "Profiles along polylines"
 VARIABLES = "DIST" "PRESSURE1" "SATURATION1" 
 ZONE T="TIME=1.000000000000e+00"
0.000000000000e+00 -8.530873683628e+04 3.738946796179e-01 
5.000000000000e-02 -8.718285036682e+04 3.709612447434e-01 
1.000000000000e-01 -8.862527917132e+04 3.659265731985e-01 
1.500000000000e-01 -8.945851891739e+04 3.626044641372e-01 
2.000000000000e-01 -8.995234933765e+04 3.605880166653e-01 
2.500000000000e-01 -9.037244310496e+04 2.214753449640e-01 
3.000000000000e-01 -9.009543428874e+04 8.320976129105e-02 
3.500000000000e-01 -9.002138578697e+04 8.327480896406e-02 
4.000000000000e-01 -9.000446208370e+04 8.329141273632e-02 
4.500000000000e-01 -9.000089046817e+04 8.329512655417e-02 
5.000000000000e-01 -9.000017239181e+04 8.329590057802e-02 
5.500000000000e-01 -9.000003264840e+04 8.329605493249e-02 
6.000000000000e-01 -9.000000608092e+04 8.329608479966e-02 
6.500000000000e-01 -9.000000111790e+04 8.329609045388e-02 
7.000000000000e-01 -9.000000020336e+04 8.329609150670e-02 
7.500000000000e-01 -9.000000003668e+04 8.329609170020e-02 
8.000000000000e-01 -9.000000000657e+04 8.329609173539e-02 
8.500000000000e-01 -9.000000000117e+04 8.329609174174e-02 
9.000000000000e-01 -9.000000000021e+04 8.329609174287e-02 
9.500000000000e-01 -9.000000000004e+04 8.329609174308e-02 
1.000000000000e+00 -9.000000000001e+04 8.329609174311e-02 
1.050000000000e+00 -9.000000000000e+04 8.329609174312e-02 
1.100000000000e+00 -9.000000000000e+04 8.329609174312e-02 
1.150000000000e+00 -9.000000000000e+04 8.329609174312e-02 
1.200000000000e+00 -9.000000000000e+04 8.329609174312e-02 
1.250000000000e+00 -9.000000000001e+04 8.329609174312e-02 
1.300000000000e+00 -9.000000000003e+04 8.329609174310e-02 
1.350000000000e+00 -9.000000000016e+04 8.329609174300e-02 
1.400000000000e+00 -9.000000000091e+04 8.329609174246e-02 
1.450000000000e+00 -9.000000000502e+04 8.329609173948e-02 
1.500000000000e+00 -9.000000002755e+04 8.329609172318e-02 
1.550000000000e+00 -9.000000015035e+04 8.329609163483e-02 
1.600000000000e+00 -9.000000081417e+04 8.329609115984e-02 
1.650000000000e+00 -9.000000436833e+04 8.329608863391e-02 
1.700000000000e+00 -9.000002317536e+04 8.329607538099e-02 
1.750000000000e+00 -9.000012123074e+04 8.329600703607e-02 
1.800000000000e+00 -9.000062273880e+04 8.329566255794e-02 
1.850000000000e+00 -9.000312211679e+04 8.329398054690e-02 
1.900000000000e+00 -9.001512870763e+04 8.328614308023e-02 
1.950000000000e+00 -9.006966765870e+04 8.325227681030e-02 
2.000000000000e+00 -9.029494852109e+04 8.322485325659e-02 
 TITLE = "Profiles along polylines"
 VARIABLES = "DIST" "PRESSURE1" "SATURATION1" 
 ZONE T="TIME=5.000000000000e+00"
0.000000000000e+00 -4.968841975340e+04 4.932564880172e-01 
5.000000000000e-02 -5.281928716625e+04 4.867339621142e-01 
1.000000000000e-01 -5.809903486376e+04 4.713735848525e-01 
1.500000000000e-01 -6.317794528209e+04 4.546669626478e-01 
2.000000000000e-01 -6.694376116948e+04 4.415000911750e-01 
2.500000000000e-01 -6.878701524429e+04 2.641664528199e-01 
3.000000000000e-01 -7.856714708501e+04 9.005023048076e-02 
3.500000000000e-01 -8.437540941934e+04 8.676597541329e-02 
4.000000000000e-01 -8.743328964700e+04 8.494154967970e-02 
4.500000000000e-01 -8.888724118151e+04 8.402926918277e-02 
5.000000000000e-01 -8.953250913886e+04 8.360945635406e-02 
5.500000000000e-01 -8.980732550090e+04 8.342661826543e-02 
6.000000000000e-01 -8.992157446653e+04 8.334958943488e-02 
6.500000000000e-01 -8.996836067672e+04 8.331778116173e-02 
7.000000000000e-01 -8.998732310522e+04 8.330481522580e-02 
7.500000000000e-01 -8.999494919525e+04 8.329957826375e-02 
8.000000000000e-01 -8.999799717146e+04 8.329747793739e-02 
8.500000000000e-01 -8.999920906877e+04 8.329664041835e-02 
9.000000000000e-01 -8.999968878629e+04 8.329630807133e-02 
9.500000000000e-01 -8.999987794486e+04 8.329617673908e-02 
1.000000000000e+00 -8.999995228860e+04 8.329612502582e-02 
1.050000000000e+00 -8.999998144871e+04 8.329610471390e-02 
1.100000000000e+00 -8.999999293177e+04 8.329609671939e-02 
1.150000000000e+00 -8.999999763461e+04 8.329609348200e-02 
1.200000000000e+00 -9.000000003157e+04 8.329609192861e-02 
1.250000000000e+00 -9.000000237453e+04 8.329609059753e-02 
1.300000000000e+00 -9.000000678071e+04 8.329608828177e-02 
1.350000000000e+00 -9.000001711089e+04 8.329608295423e-02 
1.400000000000e+00 -9.000004226349e+04 8.329607004091e-02 
1.450000000000e+00 -9.000010358958e+04 8.329603862771e-02 
1.500000000000e+00 -9.000025230822e+04 8.329596261585e-02 
1.550000000000e+00 -9.000061026675e+04 8.329578012093e-02 
1.600000000000e+00 -9.000146400373e+04 8.329534618900e-02 
1.650000000000e+00 -9.000347754469e+04 8.329432656799e-02 
1.700000000000e+00 -9.000816106872e+04 8.329196592034e-02 
1.750000000000e+00 -9.001886536023e+04 8.328660236336e-02 
1.800000000000e+00 -9.004278003617e+04 8.327471046669e-02 
1.850000000000e+00 -9.009461811187e+04 8.324918938503e-02 
1.900000000000e+00 -9.020243760907e+04 8.319680623842e-02 
1.950000000000e+00 -9.041397891459e+04 8.309582853774e-02 
2.000000000000e+00 -9.079487588892e+04 8.302988745982e-02 
 TITLE = "Profiles along polylines"
 VARIABLES = "DIST" "PRESSURE1" "SATURATION1" 
 ZONE T="TIME=1.000000000000e+01"
0.000000000000e+00 -5.706083833831e+04 4.708026626423e-01 
5.000000000000e-02 -5.794025329080e+04 4.690009031421e-01 
1.000000000000e-01 -5.936960172235e+04 4.646860150921e-01 
1.500000000000e-01 -6.095783687094e+04 4.595917969502e-01 
2.000000000000e-01 -6.234855432603e+04 4.549047553272e-01 
2.500000000000e-01 -6.329356050957e+04 2.739741704804e-01 
3.000000000000e-01 -7.115193907961e+04 9.334150441099e-02 
3.500000000000e-01 -7.747943525454e+04 9.011343658870e-02 
4.000000000000e-01 -8.213806348561e+04 8.766984970700e-02 
4.500000000000e-01 -8.530035983244e+04 8.596361483891e-02 
5.000000000000e-01 -8.729930164771e+04 8.485517180482e-02 
5.500000000000e-01 -8.849245741372e+04 8.417768975694e-02 
6.000000000000e-01 -8.917523436199e+04 8.378283643563e-02 
6.500000000000e-01 -8.955479914656e+04 8.356046338856e-02 
7.000000000000e-01 -8.976181064244e+04 8.343811908277e-02 
7.500000000000e-01 -8.987331653326e+04 8.337183879828e-02 
8.000000000000e-01 -8.993289119455e+04 8.333629262079e-02 
8.500000000000e-01 -8.996454842072e+04 8.331735606199e-02 
9.000000000000e-01 -8.998130940049e+04 8.330731291017e-02 
9.500000000000e-01 -8.999016207018e+04 8.330200226496e-02 
1.000000000000e+00 -8.999483157904e+04 8.329919905714e-02 
1.050000000000e+00 -8.999729552649e+04 8.329771965722e-02 
1.100000000000e+00 -8.999860209277e+04 8.329693604215e-02 
1.150000000000e+00 -8.999930864253e+04 8.329651439828e-02 
1.200000000000e+00 -8.999971670870e+04 8.329627489027e-02 
1.250000000000e+00 -8.999999958671e+04 8.329611572447e-02 
1.300000000000e+00 -9.000027543236e+04 8.329597021890e-02 
1.350000000000e+00 -9.000065620059e+04 8.329577910816e-02 
1.400000000000e+00 -9.000129230206e+04 8.329546681118e-02 
1.450000000000e+00 -9.000243010896e+04 8.329491251333e-02 
1.500000000000e+00 -9.000450270291e+04 8.329390580655e-02 
1.550000000000e+00 -9.000828347267e+04 8.329207252769e-02 
1.600000000000e+00 -9.001514803314e+04 8.328874918692e-02 
1.650000000000e+00 -9.002751229140e+04 8.328277429693e-02 
1.700000000000e+00 -9.004953860705e+04 8.327215462631e-02 
1.750000000000e+00 -9.008821034910e+04 8.325356278390e-02 
1.800000000000e+00 -9.015482155455e+04 8.322165190558e-02 
1.850000000000e+00 -9.026671444709e+04 8.316827882934e-02 
1.900000000000e+00 -9.044855891901e+04 8.308197817028e-02 
1.950000000000e+00 -9.073145133313e+04 8.294846744811e-02 
2.000000000000e+00 -9.114690043958e+04 8.286798826117e-02 
 TITLE = "Profiles along polylines"
 VARIABLES = "DIST" "PRESSURE1" "SATURATION1" 
 ZONE T="TIME=2.000000000000e+01"
0.000000000000e+00 -3.518057210460e+04 5.747224618204e-01 
5.000000000000e-02 -3.848620461383e+04 5.653014481279e-01 
1.000000000000e-01 -4.140075996938e+04 5.476859375735e-01 
1.500000000000e-01 -4.385730807486e+04 5.327776927185e-01 
2.000000000000e-01 -4.573264880980e+04 5.212315612998e-01 
2.500000000000e-01 -4.686810995619e+04 3.096950032119e-01 
3.000000000000e-01 -5.667848454194e+04 1.006964751527e-01 
3.500000000000e-01 -6.455369806561e+04 9.658623790601e-02 
4.000000000000e-01 -7.094324189216e+04 9.330248085113e-02 
4.500000000000e-01 -7.606104231159e+04 9.066758337244e-02 
5.000000000000e-01 -8.005426091451e+04 8.859801260823e-02 
5.500000000000e-01 -8.307202588871e+04 8.701951903589e-02 
6.000000000000e-01 -8.527790890396e+04 8.585357398539e-02 
6.500000000000e-01 -8.684039104002e+04 8.501895731039e-02 
7.000000000000e-01 -8.791715372155e+04 8.443820071519e-02 
7.500000000000e-01 -8.864271447841e+04 8.404363777530e-02 
8.000000000000e-01 -8.912317356153e+04 8.378064311387e-02 
8.500000000000e-01 -8.943720926102e+04 8.360788382646e-02 
9.000000000000e-01 -8.964053325004e+04 8.349561611524e-02 
9.500000000000e-01 -8.977130202298e+04 8.342321882097e-02 
1.000000000000e+00 -8.985504404332e+04 8.337677277730e-02 
1.050000000000e+00 -8.990856888834e+04 8.334705553197e-02 
1.100000000000e+00 -8.994283466839e+04 8.332803002954e-02 
1.150000000000e+00 -8.996495405482e+04 8.331576872185e-02 
1.200000000000e+00 -8.997955902657e+04 8.330771352471e-02 
1.250000000000e+00 -8.998971747362e+04 8.330217574568e-02 
1.300000000000e+00 -8.999755097133e+04 8.329799861941e-02 
1.350000000000e+00 -9.000466275220e+04 8.329432471552e-02 
1.400000000000e+00 -9.001245409693e+04 8.329042642138e-02 
1.450000000000e+00 -9.002238603812e+04 8.328556914562e-02 
1.500000000000e+00 -9.003622934363e+04 8.327888457600e-02 
1.550000000000e+00 -9.005633644953e+04 8.326923655343e-02 
1.600000000000e+00 -9.008596101075e+04 8.325506652886e-02 
1.650000000000e+00 -9.012963963409e+04 8.323421128468e-02 
1.700000000000e+00 -9.019362999004e+04 8.320369554968e-02 
1.750000000000e+00 -9.028636153177e+04 8.315952014165e-02 
1.800000000000e+00 -9.041879016285e+04 8.309649638207e-02 
1.850000000000e+00 -9.060445167768e+04 8.300822116640e-02 
1.900000000000e+00 -9.085889605759e+04 8.288733556238e-02 
1.950000000000e+00 -9.119812476947e+04 8.272622922290e-02 
2.000000000000e+00 -9.163582179830e+04 8.263468407789e-02 
 TITLE = "Profiles along polylines"
 VARIABLES = "DIST" "PRESSURE1" "SATURATION1" 
 ZONE T="TIME=3.000000000000e+01"
0.000000000000e+00 -3.042585302781e+04 6.059093695572e-01 
5.000000000000e-02 -3.222871519366e+04 6.006986305344e-01 
1.000000000000e-01 -3.389169819723e+04 5.907545136606e-01 
1.500000000000e-01 -3.535176781667e+04 5.819508938403e-01 
2.000000000000e-01 -3.654715108349e+04 5.746485256170e-01 
2.500000000000e-01 -3.742446748951e+04 3.442817087580e-01 
3.000000000000e-01 -4.307201706636e+04 1.127195934938e-01 
3.500000000000e-01 -5.067899658872e+04 1.047875822849e-01 
4.000000000000e-01 -5.899029904021e+04 9.936758818004e-02 
4.500000000000e-01 -6.572109721600e+04 9.589414299709e-02 
5.000000000000e-01 -7.125570907670e+04 9.305733177445e-02 
5.500000000000e-01 -7.577779652414e+04 9.073875903371e-02 
6.000000000000e-01 -7.941126222111e+04 8.886880213101e-02 
6.500000000000e-01 -8.226594106246e+04 8.739098248241e-02 
7.000000000000e-01 -8.445313217101e+04 8.625053959540e-02 
7.500000000000e-01 -8.608692987448e+04 8.539200711155e-02 
8.000000000000e-01 -8.727872062527e+04 8.476092718007e-02 
8.500000000000e-01 -8.813012796945e+04 8.430691203363e-02 
9.000000000000e-01 -8.872785586290e+04 8.398623464122e-02 
9.500000000000e-01 -8.914168252468e+04 8.376311019993e-02 
1.000000000000e+00 -8.942516779271e+04 8.360966282053e-02 
1.050000000000e+00 -8.961794953244e+04 8.350501130175e-02 
1.100000000000e+00 -8.974858629927e+04 8.343396944052e-02 
1.150000000000e+00 -8.983728286318e+04 8.338572004768e-02 
1.200000000000e+00 -8.989819523281e+04 8.335265184440e-02 
1.250000000000e+00 -8.994124555060e+04 8.332942225594e-02 
1.300000000000e+00 -8.997349414691e+04 8.331223857338e-02 
1.350000000000e+00 -9.000015794596e+04 8.329832020442e-02 
1.400000000000e+00 -9.002536759066e+04 8.328549815207e-02 
1.450000000000e+00 -9.005274256925e+04 8.327191204013e-02 
1.500000000000e+00 -9.008584557020e+04 8.325577311958e-02 
1.550000000000e+00 -9.012855868393e+04 8.323517073561e-02 
1.600000000000e+00 -9.018540571817e+04 8.320790885168e-02 
1.650000000000e+00 -9.026182601090e+04 8.317136856429e-02 
1.700000000000e+00 -9.036438463530e+04 8.312240251043e-02 
1.750000000000e+00 -9.050088158493e+04 8.305727772402e-02 
1.800000000000e+00 -9.068030052514e+04 8.297169381553e-02 
1.850000000000e+00 -9.091252251500e+04 8.286091027976e-02 
1.900000000000e+00 -9.120773515260e+04 8.272001413717e-02 
1.950000000000e+00 -9.157551450649e+04 8.254433744077e-02 
2.000000000000e+00 -9.202367062231e+04 8.244725110570e-02 
 TITLE = "Profiles along polylines"
 VARIABLES = "DIST" "PRESSURE1" "SATURATION1" 
 ZONE T="TIME=4.000000000000e+01"
0.000000000000e+00 -3.354457784315e+04 5.898897892105e-01 
5.000000000000e-02 -3.409016287013e+04 5.882037572935e-01 
1.000000000000e-01 -3.470378146321e+04 5.846649459916e-01 
1.500000000000e-01 -3.534993542040e+04 5.808910946333e-01 
2.000000000000e-01 -3.600007097782e+04 5.770570757259e-01 
2.500000000000e-01 -3.663402790594e+04 3.471627985817e-01 
3.000000000000e-01 -4.031207104990e+04 1.164236744007e-01 
3.500000000000e-01 -4.472437448414e+04 1.101714700976e-01 
4.000000000000e-01 -5.110162260221e+04 1.039905131960e-01 
4.500000000000e-01 -5.801720433057e+04 9.968272240547e-02 
5.000000000000e-01 -6.395288876179e+04 9.666854474794e-02 
5.500000000000e-01 -6.906471280231e+04 9.407895254976e-02 
6.000000000000e-01 -7.343119951426e+04 9.186461482739e-02 
6.500000000000e-01 -7.710616867300e+04 8.999525956479e-02 
7.000000000000e-01 -8.014020316709e+04 8.844492358342e-02 
7.500000000000e-01 -8.259046807528e+04 8.718577496008e-02 
8.000000000000e-01 -8.452364015039e+04 8.618594437511e-02 
8.500000000000e-01 -8.601392226993e+04 8.540993760209e-02 
9.000000000000e-01 -8.713811187956e+04 8.482063868287e-02 
9.500000000000e-01 -8.796994326293e+04 8.438188463875e-02 
1.000000000000e+00 -8.857553195281e+04 8.406072458623e-02 
1.050000000000e+00 -8.901081292900e+04 8.382884704861e-02 
1.100000000000e+00 -8.932093485786e+04 8.366308470364e-02 
1.150000000000e+00 -8.954104689540e+04 8.354519558582e-02 
1.200000000000e+00 -8.969781746677e+04 8.346121788040e-02 
1.250000000000e+00 -8.981117092699e+04 8.340065841944e-02 
1.300000000000e+00 -8.989593419612e+04 8.335568642600e-02 
1.350000000000e+00 -8.996325371939e+04 8.332042016218e-02 
1.400000000000e+00 -9.002174878545e+04 8.329033616586e-02 
1.450000000000e+00 -9.007842046897e+04 8.326179876494e-02 
1.500000000000e+00 -9.013935451458e+04 8.323169413214e-02 
1.550000000000e+00 -9.021025654701e+04 8.319715074189e-02 
1.600000000000e+00 -9.029684897339e+04 8.315533131344e-02 
1.650000000000e+00 -9.040514656697e+04 8.310328686713e-02 
1.700000000000e+00 -9.054161531463e+04 8.303786942825e-02 
1.750000000000e+00 -9.071320905645e+04 8.295570485553e-02 
1.800000000000e+00 -9.092727315739e+04 8.285323002449e-02 
1.850000000000e+00 -9.119130685901e+04 8.272679777336e-02 
1.900000000000e+00 -9.151258933896e+04 8.257284713961e-02 
1.950000000000e+00 -9.189770123852e+04 8.238812448273e-02 
2.000000000000e+00 -9.235201194467e+04 8.228769018477e-02 
 TITLE = "Profiles along polylines"
 VARIABLES = "DIST" "PRESSURE1" "SATURATION1" 
 ZONE T="TIME=5.000000000000e+01"
0.000000000000e+00 -3.262775487689e+04 5.950324481393e-01 
5.000000000000e-02 -3.332387386996e+04 5.929887883763e-01 
1.000000000000e-01 -3.399803090712e+04 5.889653625981e-01 
1.500000000000e-01 -3.465150730443e+04 5.850677620742e-01 
2.000000000000e-01 -3.528372450084e+04 5.812966810522e-01 
2.500000000000e-01 -3.589315357641e+04 3.499956434208e-01 
3.000000000000e-01 -3.887842088219e+04 1.183541623335e-01 
3.500000000000e-01 -4.226906363220e+04 1.135945337186e-01 
4.000000000000e-01 -4.643745976468e+04 1.078768763547e-01 
4.500000000000e-01 -5.241674524986e+04 1.027727272304e-01 
5.000000000000e-01 -5.833550537112e+04 9.941986460703e-02 
5.500000000000e-01 -6.357260611997e+04 9.678045652640e-02 
6.000000000000e-01 -6.820448618003e+04 9.444835580225e-02 
6.500000000000e-01 -7.226853476304e+04 9.239985746069e-02 
7.000000000000e-01 -7.578872724173e+04 9.062105023531e-02 
7.500000000000e-01 -7.878797071196e+04 8.910001019925e-02 
8.000000000000e-01 -8.129497435176e+04 8.782281695523e-02 
8.500000000000e-01 -8.334751939993e+04 8.677160819859e-02 
9.000000000000e-01 -8.499262803562e+04 8.592419685200e-02 
9.500000000000e-01 -8.628418482619e+04 8.525494963206e-02 
1.000000000000e+00 -8.727902279530e+04 8.473648341959e-02 
1.050000000000e+00 -8.803273950816e+04 8.434161493384e-02 
1.100000000000e+00 -8.859630548344e+04 8.404505060123e-02 
1.150000000000e+00 -8.901400324319e+04 8.382450956357e-02 
1.200000000000e+00 -8.932270117949e+04 8.366121694059e-02 
1.250000000000e+00 -8.955213980463e+04 8.353987976998e-02 
1.300000000000e+00 -8.972581861551e+04 8.344832851010e-02 
1.350000000000e+00 -8.986213394003e+04 8.337699694545e-02 
1.400000000000e+00 -8.997553286683e+04 8.331836623359e-02 
1.450000000000e+00 -9.007755416134e+04 8.326644788154e-02 
1.500000000000e+00 -9.017770141457e+04 8.321634125704e-02 
1.550000000000e+00 -9.028413676057e+04 8.316387677553e-02 
1.600000000000e+00 -9.040420383179e+04 8.310534328439e-02 
1.650000000000e+00 -9.054479529691e+04 8.303729318245e-02 
1.700000000000e+00 -9.071258039572e+04 8.295641784430e-02 
1.750000000000e+00 -9.091410613526e+04 8.285948638155e-02 
1.800000000000e+00 -9.115578527829e+04 8.274334099001e-02 
1.850000000000e+00 -9.144378671444e+04 8.260494111060e-02 
1.900000000000e+00 -9.178384994267e+04 8.244144596102e-02 
1.950000000000e+00 -9.218105462333e+04 8.225032089695e-02 
2.000000000000e+00 -9.263958615883e+04 8.214755675367e-02 
 TITLE = "Profiles along polylines"
 VARIABLES = "DIST" "PRESSURE1" "SATURATION1" 
 ZONE T="TIME=6.000000000000e+01"
0.000000000000e+00 4.945897386236e+08 1.000000000000e+00 
5.000000000000e-02 4.945892002037e+08 1.000000000000e+00 
1.000000000000e-01 4.945886629968e+08 1.000000000000e+00 
1.500000000000e-01 4.945881270031e+08 1.000000000000e+00 
2.000000000000e-01 4.945875922224e+08 1.000000000000e+00 
2.500000000000e-01 4.945870586548e+08 1.000000000000e+00 
3.000000000000e-01 4.945865660084e+08 1.000000000000e+00 
3.500000000000e-01 4.945860734242e+08 1.000000000000e+00 
4.000000000000e-01 4.945855809022e+08 1.000000000000e+00 
4.500000000000e-01 4.945850884425e+08 1.000000000000e+00 
5.000000000000e-01 4.945845960449e+08 1.000000000000e+00 
5.500000000000e-01 4.945841037096e+08 1.000000000000e+00 
6.000000000000e-01 4.945836114365e+08 1.000000000000e+00 
6.500000000000e-01 4.945831192255e+08 1.000000000000e+00 
7.000000000000e-01 4.945826270768e+08 1.000000000000e+00 
7.500000000000e-01 4.945821349904e+08 1.000000000000e+00 
8.000000000000e-01 4.945816429661e+08 1.000000000000e+00 
8.500000000000e-01 4.945811510040e+08 1.000000000000e+00 
9.000000000000e-01 4.945806591042e+08 1.000000000000e+00 
9.500000000000e-01 4.945801672666e+08 1.000000000000e+00 
1.000000000000e+00 4.945796754912e+08 1.000000000000e+00 
1.050000000000e+00 4.945791837780e+08 1.000000000000e+00 
1.100000000000e+00 4.945786921270e+08 1.000000000000e+00 
1.150000000000e+00 4.945782005382e+08 1.000000000000e+00 
1.200000000000e+00 4.945777090117e+08 1.000000000000e+00 
1.250000000000e+00 4.945772175473e+08 1.000000000000e+00 
1.300000000000e+00 4.945767261452e+08 1.000000000000e+00 
1.350000000000e+00 4.945762348053e+08 1.000000000000e+00 
1.400000000000e+00 4.945757435276e+08 1.000000000000e+00 
1.450000000000e+00 4.945752523122e+08 1.000000000000e+00 
1.500000000000e+00 4.945747611589e+08 1.000000000000e+00 
1.550000000000e+00 4.945742700679e+08 1.000000000000e+00 
1.600000000000e+00 4.945737790390e+08 1.000000000000e+00 
1.650000000000e+00 4.945732880724e+08 1.000000000000e+00 
1.700000000000e+00 4.945727971680e+08 1.000000000000e+00 
1.750000000000e+00 4.945723063259e+08 1.000000000000e+00 
1.800000000000e+00 4.945718155459e+08 1.000000000000e+00 
1.850000000000e+00 4.945713248281e+08 1.000000000000e+00 
1.900000000000e+00 4.945708341726e+08 1.000000000000e+00 
1.950000000000e+00 4.945703435793e+08 1.000000000000e+00 
2.000000000000e+00 4.945698530482e+08 1.000000000000e+00 
 TITLE = "Profiles along polylines"
 VARIABLES = "DIST" "PRESSURE1" "SATURATION1" 
 ZONE T="TIME=7.000000000000e+01"
0.000000000000e+00 5.290442632173e+08 1.000000000000e+00 
5.000000000000e-02 5.290437693795e+08 1.000000000000e+00 
1.000000000000e-01 5.290432756262e+08 1.000000000000e+00 
1.500000000000e-01 5.290427819574e+08 1.000000000000e+00 
2.000000000000e-01 5.290422883732e+08 1.000000000000e+00 
2.500000000000e-01 5.290417948734e+08 1.000000000000e+00 
3.000000000000e-01 5.290413042239e+08 1.000000000000e+00 
3.500000000000e-01 5.290408135787e+08 1.000000000000e+00 
4.000000000000e-01 5.290403229379e+08 1.000000000000e+00 
4.500000000000e-01 5.290398323014e+08 1.000000000000e+00 
5.000000000000e-01 5.290393416692e+08 1.000000000000e+00 
5.500000000000e-01 5.290388510414e+08 1.000000000000e+00 
6.000000000000e-01 5.290383604179e+08 1.000000000000e+00 
6.500000000000e-01 5.290378697987e+08 1.000000000000e+00 
7.000000000000e-01 5.290373791839e+08 1.000000000000e+00 
7.500000000000e-01 5.290368885734e+08 1.000000000000e+00 
8.000000000000e-01 5.290363979672e+08 1.000000000000e+00 
8.500000000000e-01 5.290359073654e+08 1.000000000000e+00 
9.000000000000e-01 5.290354167679e+08 1.000000000000e+00 
9.500000000000e-01 5.290349261747e+08 1.000000000000e+00 
1.000000000000e+00 5.290344355859e+08 1.000000000000e+00 
1.050000000000e+00 5.290339450014e+08 1.000000000000e+00 
1.100000000000e+00 5.290334544212e+08 1.000000000000e+00 
1.150000000000e+00 5.290329638454e+08 1.000000000000e+00 
1.200000000000e+00 5.290324732739e+08 1.000000000000e+00 
1.250000000000e+00 5.290319827067e+08 1.000000000000e+00 
1.300000000000e+00 5.290314921439e+08 1.000000000000e+00 
1.350000000000e+00 5.290310015853e+08 1.000000000000e+00 
1.400000000000e+00 5.290305110312e+08 1.000000000000e+00 
1.450000000000e+00 5.290300204813e+08 1.000000000000e+00 
1.500000000000e+00 5.290295299358e+08 1.000000000000e+00 
1.550000000000e+00 5.290290393947e+08 1.000000000000e+00 
1.600000000000e+00 5.290285488578e+08 1.000000000000e+00 
1.650000000000e+00 5.290280583253e+08 1.000000000000e+00 
1.700000000000e+00 5.290275677972e+08 1.000000000000e+00 
1.750000000000e+00 5.290270772733e+08 1.000000000000e+00 
1.800000000000e+00 5.290265867538e+08 1.000000000000e+00 
1.850000000000e+00 5.290260962387e+08 1.000000000000e+00 
1.900000000000e+00 5.290256057278e+08 1.000000000000e+00 
1.950000000000e+00 5.290251152213e+08 1.000000000000e+00 
2.000000000000e+00 5.290246247192e+08 1.000000000000e+00 
 TITLE = "Profiles along polylines"
 VARIABLES = "DIST" "PRESSURE1" "SATURATION1" 
 ZONE T="TIME=8.000000000000e+01"
0.000000000000e+00 5.290447544498e+08 1.000000000000e+00 
5.000000000000e-02 5.290442639498e+08 1.000000000000e+00 
1.000000000000e-01 5.290437734498e+08 1.000000000000e+00 
1.500000000000e-01 5.290432829498e+08 1.000000000000e+00 
2.000000000000e-01 5.290427924498e+08 1.000000000000e+00 
2.500000000000e-01 5.290423019498e+08 1.000000000000e+00 
3.000000000000e-01 5.290418114498e+08 1.000000000000e+00 
3.500000000000e-01 5.290413209498e+08 1.000000000000e+00 
4.000000000000e-01 5.290408304498e+08 1.000000000000e+00 
4.500000000000e-01 5.290403399498e+08 1.000000000000e+00 
5.000000000000e-01 5.290398494498e+08 1.000000000000e+00 
5.500000000000e-01 5.290393589498e+08 1.000000000000e+00 
6.000000000000e-01 5.290388684498e+08 1.000000000000e+00 
6.500000000000e-01 5.290383779498e+08 1.000000000000e+00 
7.000000000000e-01 5.290378874498e+08 1.000000000000e+00 
7.500000000000e-01 5.290373969498e+08 1.000000000000e+00 
8.000000000000e-01 5.290369064498e+08 1.000000000000e+00 
8.500000000000e-01 5.290364159498e+08 1.000000000000e+00 
9.000000000000e-01 5.290359254498e+08 1.000000000000e+00 
9.500000000000e-01 5.290354349498e+08 1.000000000000e+00 
1.000000000000e+00 5.290349444498e+08 1.000000000000e+00 
1.050000000000e+00 5.290344539498e+08 1.000000000000e+00 
1.100000000000e+00 5.290339634498e+08 1.000000000000e+00 
1.150000000000e+00 5.290334729498e+08 1.000000000000e+00 
1.200000000000e+00 5.290329824498e+08 1.000000000000e+00 
1.250000000000e+00 5.290324919498e+08 1.000000000000e+00 
1.300000000000e+00 5.290320014498e+08 1.000000000000e+00 
1.350000000000e+00 5.290315109498e+08 1.000000000000e+00 
1.400000000000e+00 5.290310204498e+08 1.000000000000e+00 
1.450000000000e+00 5.290305299498e+08 1.000000000000e+00 
1.500000000000e+00 5.290300394498e+08 1.000000000000e+00 
1.550000000000e+00 5.290295489498e+08 1.000000000000e+00 
1.600000000000e+00 5.290290584498e+08 1.000000000000e+00 
1.650000000000e+00 5.290285679498e+08 1.000000000000e+00 
1.700000000000e+00 5.290280774498e+08 1.000000000000e+00 