VARIABLES  = "X","Y","Z", "PRESSURE1", "SATURATION1"
ZONE T="0.000000000000e+000s", N=205, E=200, F=FEPOINT, ET=QUADRILATERAL
STRANDID=1, SOLUTIONTIME=0.000000000000e+000
1.450053600000e+005 4.048208912500e+005 0.000000000000e+000 -9.000000000000e+004 3.601056880734e-001 
1.450053600000e+005 4.048208912500e+005 5.000000000000e-002 -9.000000000000e+004 3.601056880734e-001 
1.450053600000e+005 4.048208912500e+005 1.000000000000e-001 -9.000000000000e+004 3.601056880734e-001 
1.450053600000e+005 4.048208912500e+005 1.500000000000e-001 -9.000000000000e+004 3.601056880734e-001 
1.450053600000e+005 4.048208912500e+005 2.000000000000e-001 -9.000000000000e+004 3.601056880734e-001 
1.450053600000e+005 4.048208912500e+005 2.500000000000e-001 -9.000000000000e+004 2.147624357798e-001 
1.450053600000e+005 4.048208912500e+005 3.000000000000e-001 -9.000000000000e+004 1.684751605505e-001 
1.450053600000e+005 4.048208912500e+005 3.500000000000e-001 -9.000000000000e+004 2.675311376147e-001 
1.450053600000e+005 4.048208912500e+005 4.000000000000e-001 -9.000000000000e+004 2.675311376147e-001 
1.450053600000e+005 4.048208912500e+005 4.500000000000e-001 -9.000000000000e+004 2.675311376147e-001 
1.450053600000e+005 4.048208912500e+005 5.000000000000e-001 -9.000000000000e+004 2.675311376147e-001 
1.450053600000e+005 4.048208912500e+005 5.500000000000e-001 -9.000000000000e+004 2.675311376147e-001 
1.450053600000e+005 4.048208912500e+005 6.000000000000e-001 -9.000000000000e+004 2.675311376147e-001 
1.450053600000e+005 4.048208912500e+005 6.500000000000e-001 -9.000000000000e+004 2.675311376147e-001 
1.450053600000e+005 4.048208912500e+005 7.000000000000e-001 -9.000000000000e+004 1.754136146789e-001 
1.450053600000e+005 4.048208912500e+005 7.500000000000e-001 -9.000000000000e+004 8.329609174312e-002 
1.450053600000e+005 4.048208912500e+005 8.000000000000e-001 -9.000000000000e+004 8.329609174312e-002 
1.450053600000e+005 4.048208912500e+005 8.500000000000e-001 -9.000000000000e+004 8.329609174312e-002 
1.450053600000e+005 4.048208912500e+005 9.000000000000e-001 -9.000000000000e+004 8.329609174312e-002 
1.450053600000e+005 4.048208912500e+005 9.500000000000e-001 -9.000000000000e+004 8.329609174312e-002 
1.450053600000e+005 4.048208912500e+005 1.000000000000e+000 -9.000000000000e+004 8.329609174312e-002 
1.450053600000e+005 4.048208912500e+005 1.050000000000e+000 -9.000000000000e+004 8.329609174312e-002 
1.450053600000e+005 4.048208912500e+005 1.100000000000e+000 -9.000000000000e+004 8.329609174312e-002 
1.450053600000e+005 4.048208912500e+005 1.150000000000e+000 -9.000000000000e+004 8.329609174312e-002 
1.450053600000e+005 4.048208912500e+005 1.200000000000e+000 -9.000000000000e+004 8.329609174312e-002 
1.450053600000e+005 4.048208912500e+005 1.250000000000e+000 -9.000000000000e+004 8.329609174312e-002 
1.450053600000e+005 4.048208912500e+005 1.300000000000e+000 -9.000000000000e+004 8.329609174312e-002 
1.450053600000e+005 4.048208912500e+005 1.350000000000e+000 -9.000000000000e+004 8.329609174312e-002 
1.450053600000e+005 4.048208912500e+005 1.400000000000e+000 -9.000000000000e+004 8.329609174312e-002 
1.450053600000e+005 4.048208912500e+005 1.450000000000e+000 -9.000000000000e+004 8.329609174312e-002 
1.450053600000e+005 4.048208912500e+005 1.500000000000e+000 -9.000000000000e+004 8.329609174312e-002 
1.450053600000e+005 4.048208912500e+005 1.550000000000e+000 -9.000000000000e+004 8.329609174312e-002 
1.450053600000e+005 4.048208912500e+005 1.600000000000e+000 -9.000000000000e+004 8.329609174312e-002 
1.450053600000e+005 4.048208912500e+005 1.650000000000e+000 -9.000000000000e+004 8.329609174312e-002 
1.450053600000e+005 4.048208912500e+005 1.700000000000e+000 -9.000000000000e+004 8.329609174312e-002 
1.450053600000e+005 4.048208912500e+005 1.750000000000e+000 -9.000000000000e+004 8.329609174312e-002 
1.450053600000e+005 4.048208912500e+005 1.800000000000e+000 -9.000000000000e+004 8.329609174312e-002 
1.450053600000e+005 4.048208912500e+005 1.850000000000e+000 -9.000000000000e+004 8.329609174312e-002 
1.450053600000e+005 4.048208912500e+005 1.900000000000e+000 -9.000000000000e+004 8.329609174312e-002 
1.450053600000e+005 4.048208912500e+005 1.950000000000e+000 -9.000000000000e+004 8.329609174312e-002 
1.450053600000e+005 4.048208912500e+005 2.000000000000e+000 -9.000000000000e+004 8.329609174312e-002 
1.455686362500e+005 4.048675100000e+005 0.000000000000e+000 -9.000000000000e+004 3.601056880734e-001 
1.455686362500e+005 4.048675100000e+005 5.000000000000e-002 -9.000000000000e+004 3.601056880734e-001 
1.455686362500e+005 4.048675100000e+005 1.000000000000e-001 -9.000000000000e+004 3.601056880734e-001 
1.455686362500e+005 4.048675100000e+005 1.500000000000e-001 -9.000000000000e+004 3.601056880734e-001 
1.455686362500e+005 4.048675100000e+005 2.000000000000e-001 -9.000000000000e+004 3.601056880734e-001 
1.455686362500e+005 4.048675100000e+005 2.500000000000e-001 -9.000000000000e+004 3.601056880734e-001 
1.455686362500e+005 4.048675100000e+005 3.000000000000e-001 -9.000000000000e+004 3.601056880734e-001 
1.455686362500e+005 4.048675100000e+005 3.500000000000e-001 -9.000000000000e+004 3.601056880734e-001 
1.455686362500e+005 4.048675100000e+005 4.000000000000e-001 -9.000000000000e+004 3.601056880734e-001 
1.455686362500e+005 4.048675100000e+005 4.500000000000e-001 -9.000000000000e+004 3.601056880734e-001 
1.455686362500e+005 4.048675100000e+005 5.000000000000e-001 -9.000000000000e+004 3.601056880734e-001 
1.455686362500e+005 4.048675100000e+005 5.500000000000e-001 -9.000000000000e+004 3.601056880734e-001 
1.455686362500e+005 4.048675100000e+005 6.000000000000e-001 -9.000000000000e+004 3.601056880734e-001 
1.455686362500e+005 4.048675100000e+005 6.500000000000e-001 -9.000000000000e+004 3.601056880734e-001 
1.455686362500e+005 4.048675100000e+005 7.000000000000e-001 -9.000000000000e+004 3.601056880734e-001 
1.455686362500e+005 4.048675100000e+005 7.500000000000e-001 -9.000000000000e+004 2.217008899083e-001 
1.455686362500e+005 4.048675100000e+005 8.000000000000e-001 -9.000000000000e+004 8.329609174312e-002 
1.455686362500e+005 4.048675100000e+005 8.500000000000e-001 -9.000000000000e+004 8.329609174312e-002 
1.455686362500e+005 4.048675100000e+005 9.000000000000e-001 -9.000000000000e+004 8.329609174312e-002 
1.455686362500e+005 4.048675100000e+005 9.500000000000e-001 -9.000000000000e+004 8.329609174312e-002 
1.455686362500e+005 4.048675100000e+005 1.000000000000e+000 -9.000000000000e+004 8.329609174312e-002 
1.455686362500e+005 4.048675100000e+005 1.050000000000e+000 -9.000000000000e+004 8.329609174312e-002 
1.455686362500e+005 4.048675100000e+005 1.100000000000e+000 -9.000000000000e+004 8.329609174312e-002 
1.455686362500e+005 4.048675100000e+005 1.150000000000e+000 -9.000000000000e+004 8.329609174312e-002 
1.455686362500e+005 4.048675100000e+005 1.200000000000e+000 -9.000000000000e+004 8.329609174312e-002 
1.455686362500e+005 4.048675100000e+005 1.250000000000e+000 -9.000000000000e+004 8.329609174312e-002 
1.455686362500e+005 4.048675100000e+005 1.300000000000e+000 -9.000000000000e+004 8.329609174312e-002 
1.455686362500e+005 4.048675100000e+005 1.350000000000e+000 -9.000000000000e+004 8.329609174312e-002 
1.455686362500e+005 4.048675100000e+005 1.400000000000e+000 -9.000000000000e+004 8.329609174312e-002 
1.455686362500e+005 4.048675100000e+005 1.450000000000e+000 -9.000000000000e+004 8.329609174312e-002 
1.455686362500e+005 4.048675100000e+005 1.500000000000e+000 -9.000000000000e+004 8.329609174312e-002 
1.455686362500e+005 4.048675100000e+005 1.550000000000e+000 -9.000000000000e+004 8.329609174312e-002 
1.455686362500e+005 4.048675100000e+005 1.600000000000e+000 -9.000000000000e+004 8.329609174312e-002 
1.455686362500e+005 4.048675100000e+005 1.650000000000e+000 -9.000000000000e+004 8.329609174312e-002 
1.455686362500e+005 4.048675100000e+005 1.700000000000e+000 -9.000000000000e+004 8.329609174312e-002 
1.455686362500e+005 4.048675100000e+005 1.750000000000e+000 -9.000000000000e+004 8.329609174312e-002 
1.455686362500e+005 4.048675100000e+005 1.800000000000e+000 -9.000000000000e+004 8.329609174312e-002 
1.455686362500e+005 4.048675100000e+005 1.850000000000e+000 -9.000000000000e+004 8.329609174312e-002 
1.455686362500e+005 4.048675100000e+005 1.900000000000e+000 -9.000000000000e+004 8.329609174312e-002 
1.455686362500e+005 4.048675100000e+005 1.950000000000e+000 -9.000000000000e+004 8.329609174312e-002 
1.455686362500e+005 4.048675100000e+005 2.000000000000e+000 -9.000000000000e+004 8.329609174312e-002 
1.461663462500e+005 4.048616750000e+005 0.000000000000e+000 -9.000000000000e+004 3.601056880734e-001 
1.461663462500e+005 4.048616750000e+005 5.000000000000e-002 -9.000000000000e+004 3.601056880734e-001 
1.461663462500e+005 4.048616750000e+005 1.000000000000e-001 -9.000000000000e+004 3.601056880734e-001 
1.461663462500e+005 4.048616750000e+005 1.500000000000e-001 -9.000000000000e+004 3.601056880734e-001 
1.461663462500e+005 4.048616750000e+005 2.000000000000e-001 -9.000000000000e+004 3.601056880734e-001 
1.461663462500e+005 4.048616750000e+005 2.500000000000e-001 -9.000000000000e+004 2.217008899083e-001 
1.461663462500e+005 4.048616750000e+005 3.000000000000e-001 -9.000000000000e+004 8.329609174312e-002 
1.461663462500e+005 4.048616750000e+005 3.500000000000e-001 -9.000000000000e+004 8.329609174312e-002 
1.461663462500e+005 4.048616750000e+005 4.000000000000e-001 -9.000000000000e+004 8.329609174312e-002 
1.461663462500e+005 4.048616750000e+005 4.500000000000e-001 -9.000000000000e+004 8.329609174312e-002 
1.461663462500e+005 4.048616750000e+005 5.000000000000e-001 -9.000000000000e+004 8.329609174312e-002 
1.461663462500e+005 4.048616750000e+005 5.500000000000e-001 -9.000000000000e+004 8.329609174312e-002 
1.461663462500e+005 4.048616750000e+005 6.000000000000e-001 -9.000000000000e+004 8.329609174312e-002 
1.461663462500e+005 4.048616750000e+005 6.500000000000e-001 -9.000000000000e+004 8.329609174312e-002 
1.461663462500e+005 4.048616750000e+005 7.000000000000e-001 -9.000000000000e+004 8.329609174312e-002 
1.461663462500e+005 4.048616750000e+005 7.500000000000e-001 -9.000000000000e+004 8.329609174312e-002 
1.461663462500e+005 4.048616750000e+005 8.000000000000e-001 -9.000000000000e+004 8.329609174312e-002 
1.461663462500e+005 4.048616750000e+005 8.500000000000e-001 -9.000000000000e+004 8.329609174312e-002 
1.461663462500e+005 4.048616750000e+005 9.000000000000e-001 -9.000000000000e+004 8.329609174312e-002 
1.461663462500e+005 4.048616750000e+005 9.500000000000e-001 -9.000000000000e+004 8.329609174312e-002 
1.461663462500e+005 4.048616750000e+005 1.000000000000e+000 -9.000000000000e+004 8.329609174312e-002 
1.461663462500e+005 4.048616750000e+005 1.050000000000e+000 -9.000000000000e+004 8.329609174312e-002 
1.461663462500e+005 4.048616750000e+005 1.100000000000e+000 -9.000000000000e+004 8.329609174312e-002 
1.461663462500e+005 4.048616750000e+005 1.150000000000e+000 -9.000000000000e+004 8.329609174312e-002 
1.461663462500e+005 4.048616750000e+005 1.200000000000e+000 -9.000000000000e+004 8.329609174312e-002 
1.461663462500e+005 4.048616750000e+005 1.250000000000e+000 -9.000000000000e+004 8.329609174312e-002 
1.461663462500e+005 4.048616750000e+005 1.300000000000e+000 -9.000000000000e+004 8.329609174312e-002 
1.461663462500e+005 4.048616750000e+005 1.350000000000e+000 -9.000000000000e+004 8.329609174312e-002 
1.461663462500e+005 4.048616750000e+005 1.400000000000e+000 -9.000000000000e+004 8.329609174312e-002 
1.461663462500e+005 4.048616750000e+005 1.450000000000e+000 -9.000000000000e+004 8.329609174312e-002 
1.461663462500e+005 4.048616750000e+005 1.500000000000e+000 -9.000000000000e+004 8.329609174312e-002 
1.461663462500e+005 4.048616750000e+005 1.550000000000e+000 -9.000000000000e+004 8.329609174312e-002 
1.461663462500e+005 4.048616750000e+005 1.600000000000e+000 -9.000000000000e+004 8.329609174312e-002 
1.461663462500e+005 4.048616750000e+005 1.650000000000e+000 -9.000000000000e+004 8.329609174312e-002 
1.461663462500e+005 4.048616750000e+005 1.700000000000e+000 -9.000000000000e+004 8.329609174312e-002 
1.461663462500e+005 4.048616750000e+005 1.750000000000e+000 -9.000000000000e+004 8.329609174312e-002 
1.461663462500e+005 4.048616750000e+005 1.800000000000e+000 -9.000000000000e+004 8.329609174312e-002 
1.461663462500e+005 4.048616750000e+005 1.850000000000e+000 -9.000000000000e+004 8.329609174312e-002 
1.461663462500e+005 4.048616750000e+005 1.900000000000e+000 -9.000000000000e+004 8.329609174312e-002 
1.461663462500e+005 4.048616750000e+005 1.950000000000e+000 -9.000000000000e+004 8.329609174312e-002 
1.461663462500e+005 4.048616750000e+005 2.000000000000e+000 -9.000000000000e+004 8.329609174312e-002 
1.467941000000e+005 4.048667612500e+005 0.000000000000e+000 -9.000000000000e+004 3.601056880734e-001 
1.467941000000e+005 4.048667612500e+005 5.000000000000e-002 -9.000000000000e+004 3.601056880734e-001 
1.467941000000e+005 4.048667612500e+005 1.000000000000e-001 -9.000000000000e+004 3.601056880734e-001 
1.467941000000e+005 4.048667612500e+005 1.500000000000e-001 -9.000000000000e+004 3.601056880734e-001 
1.467941000000e+005 4.048667612500e+005 2.000000000000e-001 -9.000000000000e+004 3.601056880734e-001 
1.467941000000e+005 4.048667612500e+005 2.500000000000e-001 -9.000000000000e+004 3.039060458716e-001 
1.467941000000e+005 4.048667612500e+005 3.000000000000e-001 -9.000000000000e+004 2.477064036697e-001 
1.467941000000e+005 4.048667612500e+005 3.500000000000e-001 -9.000000000000e+004 1.655012477064e-001 
1.467941000000e+005 4.048667612500e+005 4.000000000000e-001 -9.000000000000e+004 8.329609174312e-002 
1.467941000000e+005 4.048667612500e+005 4.500000000000e-001 -9.000000000000e+004 8.329609174312e-002 
1.467941000000e+005 4.048667612500e+005 5.000000000000e-001 -9.000000000000e+004 8.329609174312e-002 
1.467941000000e+005 4.048667612500e+005 5.500000000000e-001 -9.000000000000e+004 8.329609174312e-002 
1.467941000000e+005 4.048667612500e+005 6.000000000000e-001 -9.000000000000e+004 8.329609174312e-002 
1.467941000000e+005 4.048667612500e+005 6.500000000000e-001 -9.000000000000e+004 8.329609174312e-002 
1.467941000000e+005 4.048667612500e+005 7.000000000000e-001 -9.000000000000e+004 8.329609174312e-002 
1.467941000000e+005 4.048667612500e+005 7.500000000000e-001 -9.000000000000e+004 8.329609174312e-002 
1.467941000000e+005 4.048667612500e+005 8.000000000000e-001 -9.000000000000e+004 8.329609174312e-002 
1.467941000000e+005 4.048667612500e+005 8.500000000000e-001 -9.000000000000e+004 8.329609174312e-002 
1.467941000000e+005 4.048667612500e+005 9.000000000000e-001 -9.000000000000e+004 8.329609174312e-002 
1.467941000000e+005 4.048667612500e+005 9.500000000000e-001 -9.000000000000e+004 8.329609174312e-002 
1.467941000000e+005 4.048667612500e+005 1.000000000000e+000 -9.000000000000e+004 8.981318348624e-002 
1.467941000000e+005 4.048667612500e+005 1.050000000000e+000 -9.000000000000e+004 9.633027522936e-002 
1.467941000000e+005 4.048667612500e+005 1.100000000000e+000 -9.000000000000e+004 9.633027522936e-002 
1.467941000000e+005 4.048667612500e+005 1.150000000000e+000 -9.000000000000e+004 9.633027522936e-002 
1.467941000000e+005 4.048667612500e+005 1.200000000000e+000 -9.000000000000e+004 9.633027522936e-002 
1.467941000000e+005 4.048667612500e+005 1.250000000000e+000 -9.000000000000e+004 9.633027522936e-002 
1.467941000000e+005 4.048667612500e+005 1.300000000000e+000 -9.000000000000e+004 9.633027522936e-002 
1.467941000000e+005 4.048667612500e+005 1.350000000000e+000 -9.000000000000e+004 9.633027522936e-002 
1.467941000000e+005 4.048667612500e+005 1.400000000000e+000 -9.000000000000e+004 9.633027522936e-002 
1.467941000000e+005 4.048667612500e+005 1.450000000000e+000 -9.000000000000e+004 9.633027522936e-002 
1.467941000000e+005 4.048667612500e+005 1.500000000000e+000 -9.000000000000e+004 9.633027522936e-002 
1.467941000000e+005 4.048667612500e+005 1.550000000000e+000 -9.000000000000e+004 9.633027522936e-002 
1.467941000000e+005 4.048667612500e+005 1.600000000000e+000 -9.000000000000e+004 9.633027522936e-002 
1.467941000000e+005 4.048667612500e+005 1.650000000000e+000 -9.000000000000e+004 9.633027522936e-002 
1.467941000000e+005 4.048667612500e+005 1.700000000000e+000 -9.000000000000e+004 9.633027522936e-002 
1.467941000000e+005 4.048667612500e+005 1.750000000000e+000 -9.000000000000e+004 9.633027522936e-002 
1.467941000000e+005 4.048667612500e+005 1.800000000000e+000 -9.000000000000e+004 9.633027522936e-002 
1.467941000000e+005 4.048667612500e+005 1.850000000000e+000 -9.000000000000e+004 9.633027522936e-002 
1.467941000000e+005 4.048667612500e+005 1.900000000000e+000 -9.000000000000e+004 9.633027522936e-002 
1.467941000000e+005 4.048667612500e+005 1.950000000000e+000 -9.000000000000e+004 9.633027522936e-002 
1.467941000000e+005 4.048667612500e+005 2.000000000000e+000 -9.000000000000e+004 9.633027522936e-002 
1.474515050000e+005 4.048154750000e+005 0.000000000000e+000 -9.000000000000e+004 3.601056880734e-001 
1.474515050000e+005 4.048154750000e+005 5.000000000000e-002 -9.000000000000e+004 3.601056880734e-001 
1.474515050000e+005 4.048154750000e+005 1.000000000000e-001 -9.000000000000e+004 3.601056880734e-001 
1.474515050000e+005 4.048154750000e+005 1.500000000000e-001 -9.000000000000e+004 3.601056880734e-001 
1.474515050000e+005 4.048154750000e+005 2.000000000000e-001 -9.000000000000e+004 3.601056880734e-001 
1.474515050000e+005 4.048154750000e+005 2.500000000000e-001 -9.000000000000e+004 3.601056880734e-001 
1.474515050000e+005 4.048154750000e+005 3.000000000000e-001 -9.000000000000e+004 3.601056880734e-001 
1.474515050000e+005 4.048154750000e+005 3.500000000000e-001 -9.000000000000e+004 3.601056880734e-001 
1.474515050000e+005 4.048154750000e+005 4.000000000000e-001 -9.000000000000e+004 2.217008899083e-001 
1.474515050000e+005 4.048154750000e+005 4.500000000000e-001 -9.000000000000e+004 8.329609174312e-002 
1.474515050000e+005 4.048154750000e+005 5.000000000000e-001 -9.000000000000e+004 8.329609174312e-002 
1.474515050000e+005 4.048154750000e+005 5.500000000000e-001 -9.000000000000e+004 8.329609174312e-002 
1.474515050000e+005 4.048154750000e+005 6.000000000000e-001 -9.000000000000e+004 9.913826605505e-002 
1.474515050000e+005 4.048154750000e+005 6.500000000000e-001 -9.000000000000e+004 1.149804403670e-001 
1.474515050000e+005 4.048154750000e+005 7.000000000000e-001 -9.000000000000e+004 1.149804403670e-001 
1.474515050000e+005 4.048154750000e+005 7.500000000000e-001 -9.000000000000e+004 1.149804403670e-001 
1.474515050000e+005 4.048154750000e+005 8.000000000000e-001 -9.000000000000e+004 1.149804403670e-001 
1.474515050000e+005 4.048154750000e+005 8.500000000000e-001 -9.000000000000e+004 1.149804403670e-001 
1.474515050000e+005 4.048154750000e+005 9.000000000000e-001 -9.000000000000e+004 1.149804403670e-001 
1.474515050000e+005 4.048154750000e+005 9.500000000000e-001 -9.000000000000e+004 1.149804403670e-001 
1.474515050000e+005 4.048154750000e+005 1.000000000000e+000 -9.000000000000e+004 1.149804403670e-001 
1.474515050000e+005 4.048154750000e+005 1.050000000000e+000 -9.000000000000e+004 1.149804403670e-001 
1.474515050000e+005 4.048154750000e+005 1.100000000000e+000 -9.000000000000e+004 9.913826605505e-002 
1.474515050000e+005 4.048154750000e+005 1.150000000000e+000 -9.000000000000e+004 8.329609174312e-002 
1.474515050000e+005 4.048154750000e+005 1.200000000000e+000 -9.000000000000e+004 8.329609174312e-002 
1.474515050000e+005 4.048154750000e+005 1.250000000000e+000 -9.000000000000e+004 8.329609174312e-002 
1.474515050000e+005 4.048154750000e+005 1.300000000000e+000 -9.000000000000e+004 8.329609174312e-002 
1.474515050000e+005 4.048154750000e+005 1.350000000000e+000 -9.000000000000e+004 8.329609174312e-002 
1.474515050000e+005 4.048154750000e+005 1.400000000000e+000 -9.000000000000e+004 8.329609174312e-002 
1.474515050000e+005 4.048154750000e+005 1.450000000000e+000 -9.000000000000e+004 8.329609174312e-002 
1.474515050000e+005 4.048154750000e+005 1.500000000000e+000 -9.000000000000e+004 8.329609174312e-002 
1.474515050000e+005 4.048154750000e+005 1.550000000000e+000 -9.000000000000e+004 8.329609174312e-002 
1.474515050000e+005 4.048154750000e+005 1.600000000000e+000 -9.000000000000e+004 8.329609174312e-002 
1.474515050000e+005 4.048154750000e+005 1.650000000000e+000 -9.000000000000e+004 8.329609174312e-002 
1.474515050000e+005 4.048154750000e+005 1.700000000000e+000 -9.000000000000e+004 8.329609174312e-002 
1.474515050000e+005 4.048154750000e+005 1.750000000000e+000 -9.000000000000e+004 8.329609174312e-002 
1.474515050000e+005 4.048154750000e+005 1.800000000000e+000 -9.000000000000e+004 8.329609174312e-002 
1.474515050000e+005 4.048154750000e+005 1.850000000000e+000 -9.000000000000e+004 8.329609174312e-002 
1.474515050000e+005 4.048154750000e+005 1.900000000000e+000 -9.000000000000e+004 8.329609174312e-002 
1.474515050000e+005 4.048154750000e+005 1.950000000000e+000 -9.000000000000e+004 8.329609174312e-002 
1.474515050000e+005 4.048154750000e+005 2.000000000000e+000 -9.000000000000e+004 8.329609174312e-002 
2  1  1  2
3  2  2  3
4  3  3  4
5  4  4  5
6  5  5  6
7  6  6  7
8  7  7  8
9  8  8  9
10  9  9  10
11  10  10  11
12  11  11  12
13  12  12  13
14  13  13  14
15  14  14  15
16  15  15  16
17  16  16  17
18  17  17  18
19  18  18  19
20  19  19  20
21  20  20  21
22  21  21  22
23  22  22  23
24  23  23  24
25  24  24  25
26  25  25  26
27  26  26  27
28  27  27  28
29  28  28  29
30  29  29  30
31  30  30  31
32  31  31  32
33  32  32  33
34  33  33  34
35  34  34  35
36  35  35  36
37  36  36  37
38  37  37  38
39  38  38  39
40  39  39  40
41  40  40  41
43  42  42  43
44  43  43  44
45  44  44  45
46  45  45  46
47  46  46  47
48  47  47  48
49  48  48  49
50  49  49  50
51  50  50  51
52  51  51  52
53  52  52  53
54  53  53  54
55  54  54  55
56  55  55  56
57  56  56  57
58  57  57  58
59  58  58  59
60  59  59  60
61  60  60  61
62  61  61  62
63  62  62  63
64  63  63  64
65  64  64  65
66  65  65  66
67  66  66  67
68  67  67  68
69  68  68  69
70  69  69  70
71  70  70  71
72  71  71  72
73  72  72  73
74  73  73  74
75  74  74  75
76  75  75  76
77  76  76  77
78  77  77  78
79  78  78  79
80  79  79  80
81  80  80  81
82  81  81  82
84  83  83  84
85  84  84  85
86  85  85  86
87  86  86  87
88  87  87  88
89  88  88  89
90  89  89  90
91  90  90  91
92  91  91  92
93  92  92  93
94  93  93  94
95  94  94  95
96  95  95  96
97  96  96  97
98  97  97  98
99  98  98  99
100  99  99  100
101  100  100  101
102  101  101  102
103  102  102  103
104  103  103  104
105  104  104  105
106  105  105  106
107  106  106  107
108  107  107  108
109  108  108  109
110  109  109  110
111  110  110  111
112  111  111  112
113  112  112  113
114  113  113  114
115  114  114  115
116  115  115  116
117  116  116  117
118  117  117  118
119  118  118  119
120  119  119  120
121  120  120  121
122  121  121  122
123  122  122  123
125  124  124  125
126  125  125  126
127  126  126  127
128  127  127  128
129  128  128  129
130  129  129  130
131  130  130  131
132  131  131  132
133  132  132  133
134  133  133  134
135  134  134  135
136  135  135  136
137  136  136  137
138  137  137  138
139  138  138  139
140  139  139  140
141  140  140  141
142  141  141  142
143  142  142  143
144  143  143  144
145  144  144  145
146  145  145  146
147  146  146  147
148  147  147  148
149  148  148  149
150  149  149  150
151  150  150  151
152  151  151  152
153  152  152  153
154  153  153  154
155  154  154  155
156  155  155  156
157  156  156  157
158  157  157  158
159  158  158  159
160  159  159  160
161  160  160  161
162  161  161  162
163  162  162  163
164  163  163  164
166  165  165  166
167  166  166  167
168  167  167  168
169  168  168  169
170  169  169  170
171  170  170  171
172  171  171  172
173  172  172  173
174  173  173  174
175  174  174  175
176  175  175  176
177  176  176  177
178  177  177  178
179  178  178  179
180  179  179  180
181  180  180  181
182  181  181  182
183  182  182  183
184  183  183  184
185  184  184  185
186  185  185  186
187  186  186  187
188  187  187  188
189  188  188  189
190  189  189  190
191  190  190  191
192  191  191  192
193  192  192  193
194  193  193  194
195  194  194  195
196  195  195  196
197  196  196  197
198  197  197  198
199  198  198  199
200  199  199  200
201  200  200  201
202  201  201  202
203  202  202  203
204  203  203  204
205  204  204  205
VARIABLES  = "X","Y","Z", "PRESSURE1", "SATURATION1"
ZONE T="3.650000000000e+002s", N=205, E=200, F=FEPOINT, ET=QUADRILATERAL
STRANDID=1, SOLUTIONTIME=3.650000000000e+002
1.450053600000e+005 4.048208912500e+005 0.000000000000e+000 7.753123827239e+003 1.000000000000e+000 
1.450053600000e+005 4.048208912500e+005 5.000000000000e-002 7.245409627717e+003 1.000000000000e+000 
1.450053600000e+005 4.048208912500e+005 1.000000000000e-001 6.738161727825e+003 1.000000000000e+000 
1.450053600000e+005 4.048208912500e+005 1.500000000000e-001 6.231378573631e+003 1.000000000000e+000 
1.450053600000e+005 4.048208912500e+005 2.000000000000e-001 5.725058652820e+003 1.000000000000e+000 
1.450053600000e+005 4.048208912500e+005 2.500000000000e-001 5.219200494511e+003 1.000000000000e+000 
1.450053600000e+005 4.048208912500e+005 3.000000000000e-001 4.728512771470e+003 1.000000000000e+000 
1.450053600000e+005 4.048208912500e+005 3.500000000000e-001 4.231175387854e+003 1.000000000000e+000 
1.450053600000e+005 4.048208912500e+005 4.000000000000e-001 3.734360238685e+003 1.000000000000e+000 
1.450053600000e+005 4.048208912500e+005 4.500000000000e-001 3.238066654015e+003 1.000000000000e+000 
1.450053600000e+005 4.048208912500e+005 5.000000000000e-001 2.742294154631e+003 1.000000000000e+000 
1.450053600000e+005 4.048208912500e+005 5.500000000000e-001 2.247043021493e+003 1.000000000000e+000 
1.450053600000e+005 4.048208912500e+005 6.000000000000e-001 1.752321295494e+003 1.000000000000e+000 
1.450053600000e+005 4.048208912500e+005 6.500000000000e-001 1.239065750764e+003 9.926334050316e-001 
1.450053600000e+005 4.048208912500e+005 7.000000000000e-001 -2.238520172518e+003 9.560985808566e-001 
1.450053600000e+005 4.048208912500e+005 7.500000000000e-001 -2.884326251335e+003 9.168682877128e-001 
1.450053600000e+005 4.048208912500e+005 8.000000000000e-001 -3.921137116910e+003 8.806649176576e-001 
1.450053600000e+005 4.048208912500e+005 8.500000000000e-001 -5.657558827583e+003 7.828381358022e-001 
1.450053600000e+005 4.048208912500e+005 9.000000000000e-001 -7.333947599124e+003 6.266221349141e-001 
1.450053600000e+005 4.048208912500e+005 9.500000000000e-001 -8.956636766419e+003 4.639526257922e-001 
1.450053600000e+005 4.048208912500e+005 1.000000000000e+000 -1.051647423551e+004 3.567759447718e-001 
1.450053600000e+005 4.048208912500e+005 1.050000000000e+000 -1.204344134755e+004 3.169199326080e-001 
1.450053600000e+005 4.048208912500e+005 1.100000000000e+000 -1.360605082133e+004 2.949410471123e-001 
1.450053600000e+005 4.048208912500e+005 1.150000000000e+000 -1.524342755647e+004 2.720003318943e-001 
1.450053600000e+005 4.048208912500e+005 1.200000000000e+000 -1.699566330124e+004 2.474493902582e-001 
1.450053600000e+005 4.048208912500e+005 1.250000000000e+000 -1.894092597618e+004 2.200327121243e-001 
1.450053600000e+005 4.048208912500e+005 1.300000000000e+000 -2.130029725605e+004 1.852631798725e-001 
1.450053600000e+005 4.048208912500e+005 1.350000000000e+000 -2.516900226445e+004 1.493608502030e-001 
1.450053600000e+005 4.048208912500e+005 1.400000000000e+000 -3.251591727297e+004 1.288044287802e-001 
1.450053600000e+005 4.048208912500e+005 1.450000000000e+000 -3.821024472510e+004 1.203249039499e-001 
1.450053600000e+005 4.048208912500e+005 1.500000000000e+000 -4.261827934239e+004 1.136906974979e-001 
1.450053600000e+005 4.048208912500e+005 1.550000000000e+000 -4.631580331711e+004 1.082122689395e-001 
1.450053600000e+005 4.048208912500e+005 1.600000000000e+000 -4.978669220720e+004 1.041010190343e-001 
1.450053600000e+005 4.048208912500e+005 1.650000000000e+000 -5.313772855771e+004 1.017054936778e-001 
1.450053600000e+005 4.048208912500e+005 1.700000000000e+000 -5.655875308032e+004 9.996661237781e-002 
1.450053600000e+005 4.048208912500e+005 1.750000000000e+000 -6.079473228102e+004 9.804282310210e-002 
1.450053600000e+005 4.048208912500e+005 1.800000000000e+000 -6.470034194830e+004 9.613594801995e-002 
1.450053600000e+005 4.048208912500e+005 1.850000000000e+000 -6.776092635203e+004 9.455308963268e-002 
1.450053600000e+005 4.048208912500e+005 1.900000000000e+000 -7.006678649231e+004 9.335416522848e-002 
1.450053600000e+005 4.048208912500e+005 1.950000000000e+000 -7.164579565975e+004 9.251725303438e-002 
1.450053600000e+005 4.048208912500e+005 2.000000000000e+000 -7.250101086977e+004 9.218809424638e-002 
1.455686362500e+005 4.048675100000e+005 0.000000000000e+000 7.162793196180e+003 1.000000000000e+000 
1.455686362500e+005 4.048675100000e+005 5.000000000000e-002 6.655077724290e+003 1.000000000000e+000 
1.455686362500e+005 4.048675100000e+005 1.000000000000e-001 6.147910181241e+003 1.000000000000e+000 
1.455686362500e+005 4.048675100000e+005 1.500000000000e-001 5.641289025368e+003 1.000000000000e+000 
1.455686362500e+005 4.048675100000e+005 2.000000000000e-001 5.135212766445e+003 1.000000000000e+000 
1.455686362500e+005 4.048675100000e+005 2.500000000000e-001 4.629679965496e+003 1.000000000000e+000 
1.455686362500e+005 4.048675100000e+005 3.000000000000e-001 4.124689234616e+003 1.000000000000e+000 