 TITLE = "Profiles along polylines"
 VARIABLES = "DIST" "PRESSURE1" "SATURATION1" 
 ZONE T="TIME=0.000000000000e+00"
0.000000000000e+00 -9.000000000000e+04 3.601056880734e-01 
5.000000000000e-02 -9.000000000000e+04 3.601056880734e-01 
1.000000000000e-01 -9.000000000000e+04 3.601056880734e-01 
1.500000000000e-01 -9.000000000000e+04 3.601056880734e-01 
2.000000000000e-01 -9.000000000000e+04 3.601056880734e-01 
2.500000000000e-01 -9.000000000000e+04 3.039060458716e-01 
3.000000000000e-01 -9.000000000000e+04 2.477064036697e-01 
3.500000000000e-01 -9.000000000000e+04 1.655012477064e-01 
4.000000000000e-01 -9.000000000000e+04 8.329609174312e-02 
4.500000000000e-01 -9.000000000000e+04 8.329609174312e-02 
5.000000000000e-01 -9.000000000000e+04 8.329609174312e-02 
5.500000000000e-01 -9.000000000000e+04 8.329609174312e-02 
6.000000000000e-01 -9.000000000000e+04 8.329609174312e-02 
6.500000000000e-01 -9.000000000000e+04 8.329609174312e-02 
7.000000000000e-01 -9.000000000000e+04 8.329609174312e-02 
7.500000000000e-01 -9.000000000000e+04 8.329609174312e-02 
8.000000000000e-01 -9.000000000000e+04 8.329609174312e-02 
8.500000000000e-01 -9.000000000000e+04 8.329609174312e-02 
9.000000000000e-01 -9.000000000000e+04 8.329609174312e-02 
9.500000000000e-01 -9.000000000000e+04 8.329609174312e-02 
1.000000000000e+00 -9.000000000000e+04 8.981318348624e-02 
1.050000000000e+00 -9.000000000000e+04 9.633027522936e-02 
1.100000000000e+00 -9.000000000000e+04 9.633027522936e-02 
1.150000000000e+00 -9.000000000000e+04 9.633027522936e-02 
1.200000000000e+00 -9.000000000000e+04 9.633027522936e-02 
1.250000000000e+00 -9.000000000000e+04 9.633027522936e-02 
1.300000000000e+00 -9.000000000000e+04 9.633027522936e-02 
1.350000000000e+00 -9.000000000000e+04 9.633027522936e-02 
1.400000000000e+00 -9.000000000000e+04 9.633027522936e-02 
1.450000000000e+00 -9.000000000000e+04 9.633027522936e-02 
1.500000000000e+00 -9.000000000000e+04 9.633027522936e-02 
1.550000000000e+00 -9.000000000000e+04 9.633027522936e-02 
1.600000000000e+00 -9.000000000000e+04 9.633027522936e-02 
1.650000000000e+00 -9.000000000000e+04 9.633027522936e-02 
1.700000000000e+00 -9.000000000000e+04 9.633027522936e-02 
1.750000000000e+00 -9.000000000000e+04 9.633027522936e-02 
1.800000000000e+00 -9.000000000000e+04 9.633027522936e-02 
1.850000000000e+00 -9.000000000000e+04 9.633027522936e-02 
1.900000000000e+00 -9.000000000000e+04 9.633027522936e-02 
1.950000000000e+00 -9.000000000000e+04 9.633027522936e-02 
2.000000000000e+00 -9.000000000000e+04 9.633027522936e-02 
 TITLE = "Profiles along polylines"
 VARIABLES = "DIST" "PRESSURE1" "SATURATION1" 
 ZONE T="TIME=5.000000000000e-01"
0.000000000000e+00 -8.357359221141e+04 3.773341556157e-01 
5.000000000000e-02 -8.761009672886e+04 3.718987654191e-01 
1.000000000000e-01 -8.915490476264e+04 3.643987908448e-01 
1.500000000000e-01 -8.971853053217e+04 3.615718741767e-01 
2.000000000000e-01 -8.994021113042e+04 3.604761595776e-01 
2.500000000000e-01 -9.008676343466e+04 3.038260888549e-01 
3.000000000000e-01 -9.026710278736e+04 2.473613791678e-01 
3.500000000000e-01 -9.056857122743e+04 1.651538337551e-01 
4.000000000000e-01 -9.009296111887e+04 8.317869523091e-02 
4.500000000000e-01 -9.001531868866e+04 8.327686616574e-02 
5.000000000000e-01 -9.000252750551e+04 8.329292279911e-02 
5.500000000000e-01 -9.000041711919e+04 8.329556885571e-02 
6.000000000000e-01 -9.000006888063e+04 8.329600541932e-02 
6.500000000000e-01 -9.000001161353e+04 8.329607730981e-02 
7.000000000000e-01 -9.000000337475e+04 8.329608825246e-02 
7.500000000000e-01 -9.000000920814e+04 8.329608458926e-02 
8.000000000000e-01 -9.000005284873e+04 8.329605153524e-02 
8.500000000000e-01 -9.000031326784e+04 8.329585354706e-02 
9.000000000000e-01 -9.000185867919e+04 8.329467837371e-02 
9.500000000000e-01 -9.001102978311e+04 8.328769994419e-02 
1.000000000000e+00 -9.006550940897e+04 8.979862479144e-02 
1.050000000000e+00 -9.000791775531e+04 9.632200718798e-02 
1.100000000000e+00 -9.000095812911e+04 9.632927572533e-02 
1.150000000000e+00 -9.000011596026e+04 9.633015427637e-02 
1.200000000000e+00 -9.000001403466e+04 9.633026059064e-02 
1.250000000000e+00 -9.000000169862e+04 9.633027345763e-02 
1.300000000000e+00 -9.000000020558e+04 9.633027501493e-02 
1.350000000000e+00 -9.000000002488e+04 9.633027520340e-02 
1.400000000000e+00 -9.000000000301e+04 9.633027522622e-02 
1.450000000000e+00 -9.000000000038e+04 9.633027522897e-02 
1.500000000000e+00 -9.000000000015e+04 9.633027522925e-02 
1.550000000000e+00 -9.000000000086e+04 9.633027522884e-02 
1.600000000000e+00 -9.000000000685e+04 9.633027522525e-02 
1.650000000000e+00 -9.000000005516e+04 9.633027519625e-02 
1.700000000000e+00 -9.000000044440e+04 9.633027496262e-02 
1.750000000000e+00 -9.000000358050e+04 9.633027308030e-02 
1.800000000000e+00 -9.000002884768e+04 9.633025791458e-02 
1.850000000000e+00 -9.000023242320e+04 9.633013572245e-02 
1.900000000000e+00 -9.000187267549e+04 9.632915098381e-02 
1.950000000000e+00 -9.001509251679e+04 9.632120061925e-02 
2.000000000000e+00 -9.012189919486e+04 9.631412629243e-02 
 TITLE = "Profiles along polylines"
 VARIABLES = "DIST" "PRESSURE1" "SATURATION1" 
 ZONE T="TIME=1.000000000000e+00"
0.000000000000e+00 -8.529566441632e+04 3.739436924317e-01 
5.000000000000e-02 -8.716563159713e+04 3.710205374929e-01 
1.000000000000e-01 -8.859816295512e+04 3.660233435870e-01 
1.500000000000e-01 -8.940307178812e+04 3.627967999285e-01 
2.000000000000e-01 -8.983258872210e+04 3.609910063781e-01 
2.500000000000e-01 -9.012953676378e+04 3.038660869274e-01 
3.000000000000e-01 -9.043864725375e+04 2.471697946057e-01 
3.500000000000e-01 -9.082541103029e+04 1.649687402683e-01 
4.000000000000e-01 -9.020086166206e+04 8.310766354041e-02 
4.500000000000e-01 -9.004398379169e+04 8.325157764207e-02 
5.000000000000e-01 -9.000905874765e+04 8.328650080069e-02 
5.500000000000e-01 -9.000179272005e+04 8.329413634559e-02 
6.000000000000e-01 -9.000034532116e+04 8.329570722757e-02 
6.500000000000e-01 -9.000006676141e+04 8.329601693558e-02 
7.000000000000e-01 -9.000002115645e+04 8.329607150623e-02 
7.500000000000e-01 -9.000004974398e+04 8.329605596258e-02 
8.000000000000e-01 -9.000024470554e+04 8.329592282633e-02 
8.500000000000e-01 -9.000122589542e+04 8.329526225574e-02 
9.000000000000e-01 -9.000594633945e+04 8.329217882070e-02 
9.500000000000e-01 -9.002741708165e+04 8.327884449663e-02 
1.000000000000e+00 -9.011614129621e+04 8.978575489569e-02 
1.050000000000e+00 -9.002021203531e+04 9.631455398192e-02 
1.100000000000e+00 -9.000319414132e+04 9.632759494494e-02 
1.150000000000e+00 -9.000047719854e+04 9.632985640700e-02 
1.200000000000e+00 -9.000006872459e+04 9.633021310014e-02 
1.250000000000e+00 -9.000000964541e+04 9.633026632510e-02 
1.300000000000e+00 -9.000000132807e+04 9.633027398407e-02 
1.350000000000e+00 -9.000000018019e+04 9.633027505835e-02 
1.400000000000e+00 -9.000000002418e+04 9.633027520620e-02 
1.450000000000e+00 -9.000000000335e+04 9.633027522618e-02 
1.500000000000e+00 -9.000000000144e+04 9.633027522837e-02 
1.550000000000e+00 -9.000000000756e+04 9.633027522507e-02 
1.600000000000e+00 -9.000000005514e+04 9.633027519848e-02 
1.650000000000e+00 -9.000000040107e+04 9.633027500650e-02 
1.700000000000e+00 -9.000000288403e+04 9.633027364233e-02 
1.750000000000e+00 -9.000002043768e+04 9.633026412263e-02 
1.800000000000e+00 -9.000014211643e+04 9.633019927621e-02 
1.850000000000e+00 -9.000096336806e+04 9.632977227712e-02 
1.900000000000e+00 -9.000629886897e+04 9.632709980687e-02 
1.950000000000e+00 -9.003898637452e+04 9.631171564261e-02 
2.000000000000e+00 -9.022001666681e+04 9.629863347181e-02 
 TITLE = "Profiles along polylines"
 VARIABLES = "DIST" "PRESSURE1" "SATURATION1" 
 ZONE T="TIME=5.000000000000e+00"
0.000000000000e+00 -5.025500696251e+04 4.912837519156e-01 
5.000000000000e-02 -5.343147179900e+04 4.845990005722e-01 
1.000000000000e-01 -5.890707940575e+04 4.686135198437e-01 
1.500000000000e-01 -6.441332365608e+04 4.505443790261e-01 
2.000000000000e-01 -6.891636837212e+04 4.350302327560e-01 
2.500000000000e-01 -7.184672532465e+04 3.497777835034e-01 
3.000000000000e-01 -7.360035515187e+04 2.702460767944e-01 
3.500000000000e-01 -7.467821834400e+04 1.794068805906e-01 
4.000000000000e-01 -8.225834193663e+04 8.800947842381e-02 
4.500000000000e-01 -8.640107126098e+04 8.558072455047e-02 
5.000000000000e-01 -8.842495961441e+04 8.432843598674e-02 
5.500000000000e-01 -8.933623114553e+04 8.374018682313e-02 
6.000000000000e-01 -8.972680526288e+04 8.348121307365e-02 
6.500000000000e-01 -8.989004976955e+04 8.337136976762e-02 
7.000000000000e-01 -8.995842085120e+04 8.332520664010e-02 
7.500000000000e-01 -8.998965761977e+04 8.330462593018e-02 
8.000000000000e-01 -9.001013326944e+04 8.329239064839e-02 
8.500000000000e-01 -9.003541015628e+04 8.327909640481e-02 
9.000000000000e-01 -9.008071684867e+04 8.325674260602e-02 
9.500000000000e-01 -9.016678931407e+04 8.321555445829e-02 
1.000000000000e+00 -9.032014064759e+04 8.971815359658e-02 
1.050000000000e+00 -9.013973922629e+04 9.627104619433e-02 
1.100000000000e+00 -9.005609174656e+04 9.630537318925e-02 
1.150000000000e+00 -9.002128121348e+04 9.632051746604e-02 
1.200000000000e+00 -9.000776228999e+04 9.632663305459e-02 
1.250000000000e+00 -9.000275179320e+04 9.632896198567e-02 
1.300000000000e+00 -9.000095524792e+04 9.632981351820e-02 
1.350000000000e+00 -9.000032709175e+04 9.633011568735e-02 
1.400000000000e+00 -9.000011323444e+04 9.633021997824e-02 
1.450000000000e+00 -9.000004677909e+04 9.633025351012e-02 
1.500000000000e+00 -9.000004228002e+04 9.633025859057e-02 
1.550000000000e+00 -9.000009299662e+04 9.633024203253e-02 
1.600000000000e+00 -9.000026171896e+04 9.633018361777e-02 
1.650000000000e+00 -9.000075437241e+04 9.633001286931e-02 
1.700000000000e+00 -9.000215504881e+04 9.632953014072e-02 
1.750000000000e+00 -9.000606000228e+04 9.632819521388e-02 
1.800000000000e+00 -9.001668740304e+04 9.632460135641e-02 
1.850000000000e+00 -9.004468631801e+04 9.631527124351e-02 
1.900000000000e+00 -9.011516931419e+04 9.629225885410e-02 
1.950000000000e+00 -9.028116545271e+04 9.623961200458e-02 
2.000000000000e+00 -9.063382498485e+04 9.620326241396e-02 
 TITLE = "Profiles along polylines"
 VARIABLES = "DIST" "PRESSURE1" "SATURATION1" 
 ZONE T="TIME=1.000000000000e+01"
0.000000000000e+00 -5.865024212430e+04 4.653623600575e-01 
5.000000000000e-02 -5.957470044081e+04 4.634287198835e-01 
1.000000000000e-01 -6.114732242740e+04 4.586787046198e-01 
1.500000000000e-01 -6.298559931082e+04 4.528006743832e-01 
2.000000000000e-01 -6.472658468408e+04 4.470023951419e-01 
2.500000000000e-01 -6.608701696133e+04 3.617985398796e-01 
3.000000000000e-01 -6.709173934257e+04 2.787071870943e-01 
3.500000000000e-01 -6.787419292188e+04 1.855556074699e-01 
4.000000000000e-01 -7.492307436778e+04 9.142942121670e-02 
4.500000000000e-01 -8.031763572629e+04 8.863525944972e-02 
5.000000000000e-01 -8.410370918411e+04 8.661689879956e-02 
5.500000000000e-01 -8.656501384159e+04 8.526700805666e-02 
6.000000000000e-01 -8.806735239161e+04 8.442176550271e-02 
6.500000000000e-01 -8.894325744670e+04 8.391897745103e-02 
7.000000000000e-01 -8.944105507325e+04 8.362952109736e-02 
7.500000000000e-01 -8.972501791679e+04 8.346387936422e-02 
8.000000000000e-01 -8.989710336269e+04 8.336486729374e-02 
8.500000000000e-01 -9.002011548580e+04 8.329695981779e-02 
9.000000000000e-01 -9.013486290903e+04 8.323744252486e-02 
9.500000000000e-01 -9.027025466270e+04 8.317083001330e-02 
1.000000000000e+00 -9.044675052383e+04 8.967137988692e-02 
1.050000000000e+00 -9.025224749887e+04 9.623552907351e-02 
1.100000000000e+00 -9.013431925041e+04 9.627845797352e-02 
1.150000000000e+00 -9.006853562821e+04 9.630329635147e-02 
1.200000000000e+00 -9.003390717534e+04 9.631672579060e-02 
1.250000000000e+00 -9.001641360646e+04 9.632364409914e-02 
1.300000000000e+00 -9.000784349375e+04 9.632708331969e-02 
1.350000000000e+00 -9.000376256284e+04 9.632874142378e-02 
1.400000000000e+00 -9.000191485871e+04 9.632950536804e-02 
1.450000000000e+00 -9.000123079012e+04 9.632980694226e-02 
1.500000000000e+00 -9.000129819344e+04 9.632982399208e-02 
1.550000000000e+00 -9.000214298387e+04 9.632957102289e-02 
1.600000000000e+00 -9.000423853120e+04 9.632890804594e-02 
1.650000000000e+00 -9.000874961179e+04 9.632746996869e-02 
1.700000000000e+00 -9.001811174796e+04 9.632448873962e-02 
1.750000000000e+00 -9.003715522404e+04 9.631844798724e-02 
1.800000000000e+00 -9.007507930277e+04 9.630648566734e-02 
1.850000000000e+00 -9.014853280212e+04 9.628348893710e-02 
1.900000000000e+00 -9.028547215995e+04 9.624102677555e-02 
1.950000000000e+00 -9.052753039302e+04 9.616685827240e-02 
2.000000000000e+00 -9.092445556869e+04 9.612008193651e-02 
 TITLE = "Profiles along polylines"
 VARIABLES = "DIST" "PRESSURE1" "SATURATION1" 
 ZONE T="TIME=2.000000000000e+01"
0.000000000000e+00 -3.692658009499e+04 5.638340763503e-01 
5.000000000000e-02 -4.049894680116e+04 5.535206040740e-01 
1.000000000000e-01 -4.378242074985e+04 5.337833899661e-01 
1.500000000000e-01 -4.674405171552e+04 5.159943745050e-01 
2.000000000000e-01 -4.927912522186e+04 5.018934492227e-01 
2.500000000000e-01 -5.107097086214e+04 3.977739105897e-01 
3.000000000000e-01 -5.225926401895e+04 2.986654739556e-01 
3.500000000000e-01 -5.312382321663e+04 1.989940984778e-01 
4.000000000000e-01 -6.163385696215e+04 9.808402598862e-02 
4.500000000000e-01 -6.855046581678e+04 9.452716147837e-02 
5.000000000000e-01 -7.414726433646e+04 9.165225265221e-02 
5.500000000000e-01 -7.857567143193e+04 8.936561985669e-02 
6.000000000000e-01 -8.197638047881e+04 8.759495044893e-02 
6.500000000000e-01 -8.450613774301e+04 8.626474471726e-02 
7.000000000000e-01 -8.633383988696e+04 8.529412324654e-02 
7.500000000000e-01 -8.762541806639e+04 8.460239979975e-02 
8.000000000000e-01 -8.852904385990e+04 8.411590691762e-02 
8.500000000000e-01 -8.916652288922e+04 8.377269688213e-02 
9.000000000000e-01 -8.963138610108e+04 8.352424156381e-02 
9.500000000000e-01 -8.999110347369e+04 8.333492175336e-02 
1.000000000000e+00 -9.029048660309e+04 8.974774514865e-02 
1.050000000000e+00 -9.023030524699e+04 9.625398866018e-02 
1.100000000000e+00 -9.016498384064e+04 9.627364679101e-02 
1.150000000000e+00 -9.011104594612e+04 9.629125745458e-02 
1.200000000000e+00 -9.007180207195e+04 9.630463851466e-02 
1.250000000000e+00 -9.004537454057e+04 9.631390410571e-02 
1.300000000000e+00 -9.002862562257e+04 9.631990206358e-02 
1.350000000000e+00 -9.001875470312e+04 9.632351658614e-02 
1.400000000000e+00 -9.001378504228e+04 9.632541797915e-02 
1.450000000000e+00 -9.001262274609e+04 9.632600331449e-02 
1.500000000000e+00 -9.001502404815e+04 9.632539376325e-02 
1.550000000000e+00 -9.002162575381e+04 9.632342422921e-02 
1.600000000000e+00 -9.003411460032e+04 9.631959422181e-02 
1.650000000000e+00 -9.005558360472e+04 9.631296235629e-02 
1.700000000000e+00 -9.009111141195e+04 9.630197319400e-02 
1.750000000000e+00 -9.014857305107e+04 9.628421512826e-02 
1.800000000000e+00 -9.023960923902e+04 9.625613377125e-02 
1.850000000000e+00 -9.038049537256e+04 9.621278155823e-02 
1.900000000000e+00 -9.059231219871e+04 9.614778236973e-02 
1.950000000000e+00 -9.089936216836e+04 9.605381092664e-02 
2.000000000000e+00 -9.132454953208e+04 9.599863299898e-02 
 TITLE = "Profiles along polylines"
 VARIABLES = "DIST" "PRESSURE1" "SATURATION1" 
 ZONE T="TIME=3.000000000000e+01"
0.000000000000e+00 -3.324406452630e+04 5.888411882501e-01 
5.000000000000e-02 -3.522132271023e+04 5.830546757477e-01 
1.000000000000e-01 -3.711769250911e+04 5.717880841622e-01 
1.500000000000e-01 -3.886599665510e+04 5.613425153160e-01 
2.000000000000e-01 -4.039011809525e+04 5.521577803845e-01 
2.500000000000e-01 -4.160805854719e+04 4.387896436583e-01 
3.000000000000e-01 -4.235884424543e+04 3.282915348131e-01 
3.500000000000e-01 -4.301282709516e+04 2.178433312884e-01 
4.000000000000e-01 -4.982374588665e+04 1.052419863336e-01 
4.500000000000e-01 -5.791708260400e+04 9.986438457835e-02 
5.000000000000e-01 -6.459411063395e+04 9.643596425178e-02 
5.500000000000e-01 -7.017700362345e+04 9.358664462085e-02 
6.000000000000e-01 -7.481429541515e+04 9.121891662072e-02 
6.500000000000e-01 -7.860490609845e+04 8.927666407202e-02 
7.000000000000e-01 -8.163919827367e+04 8.771352177970e-02 
7.500000000000e-01 -8.401354667475e+04 8.648244466356e-02 
8.000000000000e-01 -8.583169404048e+04 8.553346909843e-02 
8.500000000000e-01 -8.719883887705e+04 8.481564473908e-02 
9.000000000000e-01 -8.821310685840e+04 8.428072635552e-02 
9.500000000000e-01 -8.895794879014e+04 8.388684841157e-02 
1.000000000000e+00 -8.949720200890e+04 9.009031114078e-02 
1.050000000000e+00 -8.978216771875e+04 9.642236483906e-02 
1.100000000000e+00 -8.992456660931e+04 9.636596983604e-02 
1.150000000000e+00 -8.998964967877e+04 9.633910562959e-02 
1.200000000000e+00 -9.001559539059e+04 9.632764413397e-02 
1.250000000000e+00 -9.002347167861e+04 9.632358770420e-02 
1.300000000000e+00 -9.002435505685e+04 9.632263530744e-02 
1.350000000000e+00 -9.002389092944e+04 9.632255481883e-02 
1.400000000000e+00 -9.002503257437e+04 9.632217778240e-02 
1.450000000000e+00 -9.002963745090e+04 9.632080413355e-02 
1.500000000000e+00 -9.003941248239e+04 9.631784959071e-02 
1.550000000000e+00 -9.005652704014e+04 9.631262257616e-02 
1.600000000000e+00 -9.008408516824e+04 9.630416086902e-02 
1.650000000000e+00 -9.012655961488e+04 9.629108949273e-02 
1.700000000000e+00 -9.019022200532e+04 9.627148508529e-02 
1.750000000000e+00 -9.028353887583e+04 9.624275342743e-02 
1.800000000000e+00 -9.041743000557e+04 9.620154977279e-02 
1.850000000000e+00 -9.060520195123e+04 9.614379657849e-02 
1.900000000000e+00 -9.086189682009e+04 9.606487363932e-02 
1.950000000000e+00 -9.120279766596e+04 9.596005240878e-02 
2.000000000000e+00 -9.164103423200e+04 9.590058724474e-02 
 TITLE = "Profiles along polylines"
 VARIABLES = "DIST" "PRESSURE1" "SATURATION1" 
 ZONE T="TIME=4.000000000000e+01"
0.000000000000e+00 -3.699433219995e+04 5.693875079224e-01 
5.000000000000e-02 -3.755583645976e+04 5.676304026259e-01 
1.000000000000e-01 -3.820948064220e+04 5.638864764193e-01 
1.500000000000e-01 -3.891111612799e+04 5.598092034067e-01 
2.000000000000e-01 -3.962155307361e+04 5.556346601307e-01 
2.500000000000e-01 -4.030795540649e+04 4.441455686779e-01 
3.000000000000e-01 -4.088523277395e+04 3.336637348589e-01 
3.500000000000e-01 -4.145106298417e+04 2.223917730076e-01 
4.000000000000e-01 -4.558124022619e+04 1.089609450060e-01 
4.500000000000e-01 -5.168197288294e+04 1.034106009164e-01 
5.000000000000e-01 -5.812457434982e+04 9.957491491296e-02 
5.500000000000e-01 -6.378450953898e+04 9.671854009580e-02 
6.000000000000e-01 -6.874554746620e+04 9.421637829305e-02 
6.500000000000e-01 -7.304990519648e+04 9.204182043801e-02 
7.000000000000e-01 -7.672782172172e+04 9.017788612684e-02 
7.500000000000e-01 -7.981117770521e+04 8.860848125272e-02 
8.000000000000e-01 -8.234007886085e+04 8.731441931588e-02 
8.500000000000e-01 -8.436437607965e+04 8.627219061111e-02 
9.000000000000e-01 -8.594094484346e+04 8.545484950035e-02 
9.500000000000e-01 -8.712798875348e+04 8.483442266838e-02 
1.000000000000e+00 -8.797820771557e+04 9.072952950561e-02 
1.050000000000e+00 -8.878090319901e+04 9.677699519060e-02 
1.100000000000e+00 -8.928681515789e+04 9.659478705155e-02 
1.150000000000e+00 -8.959561505495e+04 9.648212553354e-02 
1.200000000000e+00 -8.977939367009e+04 9.641434977477e-02 
1.250000000000e+00 -8.988702800204e+04 9.637433666336e-02 
1.300000000000e+00 -8.995022273198e+04 9.635078172225e-02 
1.350000000000e+00 -8.998903190512e+04 9.633645162522e-02 
1.400000000000e+00 -9.001612516940e+04 9.632675776719e-02 
1.450000000000e+00 -9.003981278499e+04 9.631871228689e-02 
1.500000000000e+00 -9.006610164014e+04 9.631020606212e-02 
1.550000000000e+00 -9.010007628834e+04 9.629952064879e-02 
1.600000000000e+00 -9.014683653057e+04 9.628499798840e-02 
1.650000000000e+00 -9.021214372045e+04 9.626481486393e-02 
1.700000000000e+00 -9.030285485235e+04 9.623683241801e-02 
1.750000000000e+00 -9.042716204232e+04 9.619851114841e-02 
1.800000000000e+00 -9.059460698586e+04 9.614689753604e-02 
1.850000000000e+00 -9.081581048701e+04 9.607869820075e-02 
1.900000000000e+00 -9.110185821652e+04 9.599045775107e-02 
1.950000000000e+00 -9.146333454344e+04 9.587884199081e-02 
2.000000000000e+00 -9.190911527130e+04 9.581679150121e-02 
 TITLE = "Profiles along polylines"
 VARIABLES = "DIST" "PRESSURE1" "SATURATION1" 
 ZONE T="TIME=5.000000000000e+01"
0.000000000000e+00 -3.604468543389e+04 5.746939657900e-01 
5.000000000000e-02 -3.677238447645e+04 5.725571673519e-01 
1.000000000000e-01 -3.747755623665e+04 5.683496166702e-01 
1.500000000000e-01 -3.816100161799e+04 5.642744324443e-01 
2.000000000000e-01 -3.882084169741e+04 5.603388670758e-01 
2.500000000000e-01 -3.945377835425e+04 4.481930051663e-01 
3.000000000000e-01 -4.000725189020e+04 3.369428797203e-01 
3.500000000000e-01 -4.055448925118e+04 2.249035756355e-01 
4.000000000000e-01 -4.374071386953e+04 1.114381535673e-01 
4.500000000000e-01 -4.787233673924e+04 1.060138587978e-01 
5.000000000000e-01 -5.382503547877e+04 1.016330552579e-01 
5.500000000000e-01 -5.920874098967e+04 9.893228100492e-02 
6.000000000000e-01 -6.408113006265e+04 9.649096289680e-02 
6.500000000000e-01 -6.846206343106e+04 9.429429843752e-02 
7.000000000000e-01 -7.235708317322e+04 9.233754854062e-02 
7.500000000000e-01 -7.576762239588e+04 9.061918895931e-02 
8.000000000000e-01 -7.869688183900e+04 8.913749996682e-02 
8.500000000000e-01 -8.115336065504e+04 8.788861535921e-02 
9.000000000000e-01 -8.315229818754e+04 8.686564623856e-02 
9.500000000000e-01 -8.471497025675e+04 8.605882933025e-02 
1.000000000000e+00 -8.586610840307e+04 9.160467585651e-02 
1.050000000000e+00 -8.723980026140e+04 9.730422139151e-02 
1.100000000000e+00 -8.820391165635e+04 9.697001849947e-02 
1.150000000000e+00 -8.885897206696e+04 9.674028372287e-02 
1.200000000000e+00 -8.929266850938e+04 9.658667114936e-02 
1.250000000000e+00 -8.957478190548e+04 9.648599774213e-02 
1.300000000000e+00 -8.975725259221e+04 9.642061902172e-02 
1.350000000000e+00 -8.987703501459e+04 9.637777148858e-02 
1.400000000000e+00 -8.995978823016e+04 9.634849928125e-02 
1.450000000000e+00 -9.002331161807e+04 9.632656793865e-02 
1.500000000000e+00 -9.008031624733e+04 9.630754841704e-02 
1.550000000000e+00 -9.014049207716e+04 9.628811566714e-02 
1.600000000000e+00 -9.021197506012e+04 9.626554260523e-02 
1.650000000000e+00 -9.030234258734e+04 9.623735245683e-02 
1.700000000000e+00 -9.041924112293e+04 9.620109571005e-02 
1.750000000000e+00 -9.057071353861e+04 9.615422792362e-02 
1.800000000000e+00 -9.076526335135e+04 9.609407414213e-02 
1.850000000000e+00 -9.101167758688e+04 9.601787112219e-02 
1.900000000000e+00 -9.131863437590e+04 9.592287811452e-02 
1.950000000000e+00 -9.169414783592e+04 9.580653987278e-02 
2.000000000000e+00 -9.214494792857e+04 9.574273237338e-02 
 TITLE = "Profiles along polylines"
 VARIABLES = "DIST" "PRESSURE1" "SATURATION1" 
 ZONE T="TIME=6.000000000000e+01"
0.000000000000e+00 4.933032731013e+08 1.000000000000e+00 
5.000000000000e-02 4.933027348060e+08 1.000000000000e+00 
1.000000000000e-01 4.933021977208e+08 1.000000000000e+00 
1.500000000000e-01 4.933016618454e+08 1.000000000000e+00 
2.000000000000e-01 4.933011271800e+08 1.000000000000e+00 
2.500000000000e-01 4.933005937245e+08 1.000000000000e+00 
3.000000000000e-01 4.933000962670e+08 1.000000000000e+00 
3.500000000000e-01 4.932995990112e+08 1.000000000000e+00 
4.000000000000e-01 4.932991064945e+08 1.000000000000e+00 
4.500000000000e-01 4.932986140398e+08 1.000000000000e+00 
5.000000000000e-01 4.932981216472e+08 1.000000000000e+00 
5.500000000000e-01 4.932976293167e+08 1.000000000000e+00 
6.000000000000e-01 4.932971370482e+08 1.000000000000e+00 
6.500000000000e-01 4.932966448417e+08 1.000000000000e+00 
7.000000000000e-01 4.932961526973e+08 1.000000000000e+00 
7.500000000000e-01 4.932956606149e+08 1.000000000000e+00 
8.000000000000e-01 4.932951685946e+08 1.000000000000e+00 
8.500000000000e-01 4.932946766364e+08 1.000000000000e+00 
9.000000000000e-01 4.932941847402e+08 1.000000000000e+00 
9.500000000000e-01 4.932936929060e+08 1.000000000000e+00 
1.000000000000e+00 4.932932011340e+08 1.000000000000e+00 
1.050000000000e+00 4.932927098966e+08 1.000000000000e+00 
1.100000000000e+00 4.932922186971e+08 1.000000000000e+00 
1.150000000000e+00 4.932917275353e+08 1.000000000000e+00 
1.200000000000e+00 4.932912364114e+08 1.000000000000e+00 
1.250000000000e+00 4.932907453253e+08 1.000000000000e+00 
1.300000000000e+00 4.932902542770e+08 1.000000000000e+00 
1.350000000000e+00 4.932897632665e+08 1.000000000000e+00 
1.400000000000e+00 4.932892722939e+08 1.000000000000e+00 
1.450000000000e+00 4.932887813590e+08 1.000000000000e+00 
1.500000000000e+00 4.932882904620e+08 1.000000000000e+00 
1.550000000000e+00 4.932877996028e+08 1.000000000000e+00 
1.600000000000e+00 4.932873087814e+08 1.000000000000e+00 
1.650000000000e+00 4.932868179978e+08 1.000000000000e+00 
1.700000000000e+00 4.932863272520e+08 1.000000000000e+00 
1.750000000000e+00 4.932858365440e+08 1.000000000000e+00 
1.800000000000e+00 4.932853458739e+08 1.000000000000e+00 
1.850000000000e+00 4.932848552415e+08 1.000000000000e+00 
1.900000000000e+00 4.932843646470e+08 1.000000000000e+00 
1.950000000000e+00 4.932838740903e+08 1.000000000000e+00 
2.000000000000e+00 4.932833835714e+08 1.000000000000e+00 
 TITLE = "Profiles along polylines"
 VARIABLES = "DIST" "PRESSURE1" "SATURATION1" 
 ZONE T="TIME=7.000000000000e+01"
0.000000000000e+00 5.278945984348e+08 1.000000000000e+00 
5.000000000000e-02 5.278941045838e+08 1.000000000000e+00 
1.000000000000e-01 5.278936108177e+08 1.000000000000e+00 
1.500000000000e-01 5.278931171363e+08 1.000000000000e+00 
2.000000000000e-01 5.278926235398e+08 1.000000000000e+00 
2.500000000000e-01 5.278921300282e+08 1.000000000000e+00 
3.000000000000e-01 5.278916390404e+08 1.000000000000e+00 
3.500000000000e-01 5.278911480667e+08 1.000000000000e+00 
4.000000000000e-01 5.278906574253e+08 1.000000000000e+00 
4.500000000000e-01 5.278901667883e+08 1.000000000000e+00 
5.000000000000e-01 5.278896761556e+08 1.000000000000e+00 
5.500000000000e-01 5.278891855272e+08 1.000000000000e+00 
6.000000000000e-01 5.278886949033e+08 1.000000000000e+00 
6.500000000000e-01 5.278882042836e+08 1.000000000000e+00 
7.000000000000e-01 5.278877136683e+08 1.000000000000e+00 
7.500000000000e-01 5.278872230574e+08 1.000000000000e+00 
8.000000000000e-01 5.278867324508e+08 1.000000000000e+00 
8.500000000000e-01 5.278862418486e+08 1.000000000000e+00 
9.000000000000e-01 5.278857512507e+08 1.000000000000e+00 
9.500000000000e-01 5.278852606571e+08 1.000000000000e+00 
1.000000000000e+00 5.278847700679e+08 1.000000000000e+00 
1.050000000000e+00 5.278842795163e+08 1.000000000000e+00 
1.100000000000e+00 5.278837889672e+08 1.000000000000e+00 
1.150000000000e+00 5.278832984208e+08 1.000000000000e+00 
1.200000000000e+00 5.278828078771e+08 1.000000000000e+00 
1.250000000000e+00 5.278823173360e+08 1.000000000000e+00 
1.300000000000e+00 5.278818267975e+08 1.000000000000e+00 
1.350000000000e+00 5.278813362617e+08 1.000000000000e+00 
1.400000000000e+00 5.278808457286e+08 1.000000000000e+00 
1.450000000000e+00 5.278803551981e+08 1.000000000000e+00 
1.500000000000e+00 5.278798646703e+08 1.000000000000e+00 
1.550000000000e+00 5.278793741451e+08 1.000000000000e+00 
1.600000000000e+00 5.278788836226e+08 1.000000000000e+00 
1.650000000000e+00 5.278783931027e+08 1.000000000000e+00 
1.700000000000e+00 5.278779025855e+08 1.000000000000e+00 
1.750000000000e+00 5.278774120709e+08 1.000000000000e+00 
1.800000000000e+00 5.278769215589e+08 1.000000000000e+00 
1.850000000000e+00 5.278764310497e+08 1.000000000000e+00 
1.900000000000e+00 5.278759405430e+08 1.000000000000e+00 
1.950000000000e+00 5.278754500391e+08 1.000000000000e+00 
2.000000000000e+00 5.278749595377e+08 1.000000000000e+00 
 TITLE = "Profiles along polylines"
 VARIABLES = "DIST" "PRESSURE1" "SATURATION1" 
 ZONE T="TIME=8.000000000000e+01"
0.000000000000e+00 5.278952409321e+08 1.000000000000e+00 
5.000000000000e-02 5.278947504321e+08 1.000000000000e+00 
1.000000000000e-01 5.278942599321e+08 1.000000000000e+00 
1.500000000000e-01 5.278937694321e+08 1.000000000000e+00 
2.000000000000e-01 5.278932789321e+08 1.000000000000e+00 
2.500000000000e-01 5.278927884321e+08 1.000000000000e+00 
3.000000000000e-01 5.278922979321e+08 1.000000000000e+00 
3.500000000000e-01 5.278918074321e+08 1.000000000000e+00 
4.000000000000e-01 5.278913169321e+08 1.000000000000e+00 
4.500000000000e-01 5.278908264321e+08 1.000000000000e+00 
5.000000000000e-01 5.278903359321e+08 1.000000000000e+00 
5.500000000000e-01 5.278898454321e+08 1.000000000000e+00 
6.000000000000e-01 5.278893549321e+08 1.000000000000e+00 
6.500000000000e-01 5.278888644321e+08 1.000000000000e+00 
7.000000000000e-01 5.278883739321e+08 1.000000000000e+00 
7.500000000000e-01 5.278878834321e+08 1.000000000000e+00 
8.000000000000e-01 5.278873929321e+08 1.000000000000e+00 
8.500000000000e-01 5.278869024321e+08 1.000000000000e+00 
9.000000000000e-01 5.278864119321e+08 1.000000000000e+00 
9.500000000000e-01 5.278859214321e+08 1.000000000000e+00 
1.000000000000e+00 5.278854309321e+08 1.000000000000e+00 
1.050000000000e+00 5.278849404321e+08 1.000000000000e+00 
1.100000000000e+00 5.278844499321e+08 1.000000000000e+00 
1.150000000000e+00 5.278839594321e+08 1.000000000000e+00 
1.200000000000e+00 5.278834689321e+08 1.000000000000e+00 
1.250000000000e+00 5.278829784321e+08 1.000000000000e+00 
1.300000000000e+00 5.278824879321e+08 1.000000000000e+00 
1.350000000000e+00 5.278819974321e+08 1.000000000000e+00 
1.400000000000e+00 5.278815069321e+08 1.000000000000e+00 
1.450000000000e+00 5.278810164321e+08 1.000000000000e+00 
1.500000000000e+00 5.278805259321e+08 1.000000000000e+00 
1.550000000000e+00 5.278800354321e+08 1.000000000000e+00 
1.600000000000e+00 5.278795449321e+08 1.000000000000e+00 
1.650000000000e+00 5.278790544321e+08 1.000000000000e+00 
1.700000000000e+00 5.278785639321e+08 1.000000000000e+00 