 TITLE = "Profiles along polylines"
 VARIABLES = "DIST" "PRESSURE1" "SATURATION1" 
 ZONE T="TIME=0.000000000000e+00"
0.000000000000e+00 -9.000000000000e+04 3.601056880734e-01 
5.000000000000e-02 -9.000000000000e+04 3.601056880734e-01 
1.000000000000e-01 -9.000000000000e+04 3.601056880734e-01 
1.500000000000e-01 -9.000000000000e+04 3.601056880734e-01 
2.000000000000e-01 -9.000000000000e+04 3.601056880734e-01 
2.500000000000e-01 -9.000000000000e+04 2.147624357798e-01 
3.000000000000e-01 -9.000000000000e+04 1.684751605505e-01 
3.500000000000e-01 -9.000000000000e+04 2.675311376147e-01 
4.000000000000e-01 -9.000000000000e+04 2.675311376147e-01 
4.500000000000e-01 -9.000000000000e+04 2.675311376147e-01 
5.000000000000e-01 -9.000000000000e+04 2.675311376147e-01 
5.500000000000e-01 -9.000000000000e+04 2.675311376147e-01 
6.000000000000e-01 -9.000000000000e+04 2.675311376147e-01 
6.500000000000e-01 -9.000000000000e+04 2.675311376147e-01 
7.000000000000e-01 -9.000000000000e+04 1.754136146789e-01 
7.500000000000e-01 -9.000000000000e+04 8.329609174312e-02 
8.000000000000e-01 -9.000000000000e+04 8.329609174312e-02 
8.500000000000e-01 -9.000000000000e+04 8.329609174312e-02 
9.000000000000e-01 -9.000000000000e+04 8.329609174312e-02 
9.500000000000e-01 -9.000000000000e+04 8.329609174312e-02 
1.000000000000e+00 -9.000000000000e+04 8.329609174312e-02 
1.050000000000e+00 -9.000000000000e+04 8.329609174312e-02 
1.100000000000e+00 -9.000000000000e+04 8.329609174312e-02 
1.150000000000e+00 -9.000000000000e+04 8.329609174312e-02 
1.200000000000e+00 -9.000000000000e+04 8.329609174312e-02 
1.250000000000e+00 -9.000000000000e+04 8.329609174312e-02 
1.300000000000e+00 -9.000000000000e+04 8.329609174312e-02 
1.350000000000e+00 -9.000000000000e+04 8.329609174312e-02 
1.400000000000e+00 -9.000000000000e+04 8.329609174312e-02 
1.450000000000e+00 -9.000000000000e+04 8.329609174312e-02 
1.500000000000e+00 -9.000000000000e+04 8.329609174312e-02 
1.550000000000e+00 -9.000000000000e+04 8.329609174312e-02 
1.600000000000e+00 -9.000000000000e+04 8.329609174312e-02 
1.650000000000e+00 -9.000000000000e+04 8.329609174312e-02 
1.700000000000e+00 -9.000000000000e+04 8.329609174312e-02 
1.750000000000e+00 -9.000000000000e+04 8.329609174312e-02 
1.800000000000e+00 -9.000000000000e+04 8.329609174312e-02 
1.850000000000e+00 -9.000000000000e+04 8.329609174312e-02 
1.900000000000e+00 -9.000000000000e+04 8.329609174312e-02 
1.950000000000e+00 -9.000000000000e+04 8.329609174312e-02 
2.000000000000e+00 -9.000000000000e+04 8.329609174312e-02 
 TITLE = "Profiles along polylines"
 VARIABLES = "DIST" "PRESSURE1" "SATURATION1" 
 ZONE T="TIME=5.000000000000e-01"
0.000000000000e+00 -8.364370621316e+04 3.771412773217e-01 
5.000000000000e-02 -8.764051591728e+04 3.717572051664e-01 
1.000000000000e-01 -8.917390730330e+04 3.643154610107e-01 
1.500000000000e-01 -8.974813505155e+04 3.614572042511e-01 
2.000000000000e-01 -9.001629869051e+04 3.601920914874e-01 
2.500000000000e-01 -9.030194466744e+04 2.145392615612e-01 
3.000000000000e-01 -8.999848310221e+04 1.684455619384e-01 
3.500000000000e-01 -8.999999276478e+04 2.675356724534e-01 
4.000000000000e-01 -8.999999996549e+04 2.675311592447e-01 
4.500000000000e-01 -8.999999999984e+04 2.675311377178e-01 
5.000000000000e-01 -9.000000000000e+04 2.675311376153e-01 
5.500000000000e-01 -8.999999999993e+04 2.675311376370e-01 
6.000000000000e-01 -8.999999998517e+04 2.675311420663e-01 
6.500000000000e-01 -8.999999704519e+04 2.675320248370e-01 
7.000000000000e-01 -8.999941109121e+04 1.754146020461e-01 
7.500000000000e-01 -8.999990280792e+04 8.329621357597e-02 
8.000000000000e-01 -8.999998395978e+04 8.329611185008e-02 
8.500000000000e-01 -8.999999735279e+04 8.329609506150e-02 
9.000000000000e-01 -8.999999956311e+04 8.329609229077e-02 
9.500000000000e-01 -8.999999992790e+04 8.329609183350e-02 
1.000000000000e+00 -8.999999998810e+04 8.329609175804e-02 
1.050000000000e+00 -8.999999999804e+04 8.329609174558e-02 
1.100000000000e+00 -8.999999999968e+04 8.329609174353e-02 
1.150000000000e+00 -8.999999999995e+04 8.329609174319e-02 
1.200000000000e+00 -8.999999999999e+04 8.329609174313e-02 
1.250000000000e+00 -9.000000000000e+04 8.329609174312e-02 
1.300000000000e+00 -9.000000000000e+04 8.329609174312e-02 
1.350000000000e+00 -9.000000000001e+04 8.329609174311e-02 
1.400000000000e+00 -9.000000000009e+04 8.329609174305e-02 
1.450000000000e+00 -9.000000000052e+04 8.329609174272e-02 
1.500000000000e+00 -9.000000000310e+04 8.329609174076e-02 
1.550000000000e+00 -9.000000001839e+04 8.329609172914e-02 
1.600000000000e+00 -9.000000010911e+04 8.329609166016e-02 
1.650000000000e+00 -9.000000064734e+04 8.329609125092e-02 
1.700000000000e+00 -9.000000384080e+04 8.329608882284e-02 
1.750000000000e+00 -9.000002278815e+04 8.329607441654e-02 
1.800000000000e+00 -9.000013520640e+04 8.329598894058e-02 
1.850000000000e+00 -9.000080221356e+04 8.329548176565e-02 
1.900000000000e+00 -9.000476003200e+04 8.329247151613e-02 
1.950000000000e+00 -9.002825470979e+04 8.327457251052e-02 
2.000000000000e+00 -9.016808676343e+04 8.325924972704e-02 
 TITLE = "Profiles along polylines"
 VARIABLES = "DIST" "PRESSURE1" "SATURATION1" 
 ZONE T="TIME=1.000000000000e+00"
0.000000000000e+00 -8.532026217644e+04 3.738539497333e-01 
5.000000000000e-02 -8.719583505519e+04 3.709212335814e-01 
1.000000000000e-01 -8.863407339750e+04 3.658932661657e-01 
1.500000000000e-01 -8.946510300788e+04 3.625787475600e-01 
2.000000000000e-01 -8.996051359627e+04 3.605582906688e-01 
2.500000000000e-01 -9.038738171975e+04 2.145444196279e-01 
3.000000000000e-01 -8.999732243662e+04 1.684394152151e-01 
3.500000000000e-01 -8.999998006321e+04 2.675391743239e-01 
4.000000000000e-01 -8.999999987074e+04 2.675311973693e-01 
4.500000000000e-01 -8.999999999922e+04 2.675311380018e-01 
5.000000000000e-01 -8.999999999999e+04 2.675311376176e-01 
5.500000000000e-01 -8.999999999963e+04 2.675311377035e-01 
6.000000000000e-01 -8.999999994124e+04 2.675311509157e-01 
6.500000000000e-01 -8.999999121487e+04 2.675329099590e-01 
7.000000000000e-01 -8.999883228232e+04 1.754155868580e-01 
7.500000000000e-01 -8.999973787625e+04 8.329635227612e-02 
8.000000000000e-01 -8.999994528566e+04 8.329614909943e-02 
8.500000000000e-01 -8.999998907978e+04 8.329610357866e-02 
9.000000000000e-01 -8.999999788579e+04 8.329609408749e-02 
9.500000000000e-01 -8.999999959959e+04 8.329609219457e-02 
1.000000000000e+00 -8.999999992542e+04 8.329609182828e-02 
1.050000000000e+00 -8.999999998629e+04 8.329609175893e-02 
1.100000000000e+00 -8.999999999751e+04 8.329609174602e-02 
1.150000000000e+00 -8.999999999955e+04 8.329609174365e-02 
1.200000000000e+00 -8.999999999992e+04 8.329609174321e-02 
1.250000000000e+00 -8.999999999999e+04 8.329609174313e-02 
1.300000000000e+00 -9.000000000003e+04 8.329609174310e-02 
1.350000000000e+00 -9.000000000016e+04 8.329609174300e-02 
1.400000000000e+00 -9.000000000091e+04 8.329609174246e-02 
1.450000000000e+00 -9.000000000502e+04 8.329609173948e-02 
1.500000000000e+00 -9.000000002755e+04 8.329609172318e-02 
1.550000000000e+00 -9.000000015035e+04 8.329609163483e-02 
1.600000000000e+00 -9.000000081417e+04 8.329609115984e-02 
1.650000000000e+00 -9.000000436833e+04 8.329608863391e-02 
1.700000000000e+00 -9.000002317536e+04 8.329607538099e-02 
1.750000000000e+00 -9.000012123074e+04 8.329600703607e-02 
1.800000000000e+00 -9.000062273880e+04 8.329566255794e-02 
1.850000000000e+00 -9.000312211679e+04 8.329398054690e-02 
1.900000000000e+00 -9.001512870763e+04 8.328614308023e-02 
1.950000000000e+00 -9.006966765870e+04 8.325227681030e-02 
2.000000000000e+00 -9.029494852109e+04 8.322485325659e-02 
 TITLE = "Profiles along polylines"
 VARIABLES = "DIST" "PRESSURE1" "SATURATION1" 
 ZONE T="TIME=5.000000000000e+00"
0.000000000000e+00 -4.968922263038e+04 4.932592953854e-01 
5.000000000000e-02 -5.281519762065e+04 4.867520824333e-01 
1.000000000000e-01 -5.807763419499e+04 4.714444762070e-01 
1.500000000000e-01 -6.312488550881e+04 4.548395338892e-01 
2.000000000000e-01 -6.684038037713e+04 4.418342360004e-01 
2.500000000000e-01 -6.861201440871e+04 2.554883163668e-01 
3.000000000000e-01 -8.930057085531e+04 1.730397970214e-01 
3.500000000000e-01 -8.998210693162e+04 2.696875209409e-01 
4.000000000000e-01 -8.999958473339e+04 2.675861118606e-01 
4.500000000000e-01 -8.999999075682e+04 2.675324116968e-01 
5.000000000000e-01 -8.999999979703e+04 2.675311661448e-01 
5.500000000000e-01 -8.999999987190e+04 2.675311460487e-01 
6.000000000000e-01 -8.999999510749e+04 2.675314224101e-01 
6.500000000000e-01 -8.999982304099e+04 2.675399935857e-01 
7.000000000000e-01 -8.999457358403e+04 1.754232997317e-01 
7.500000000000e-01 -8.999736516883e+04 8.329773010024e-02 
8.000000000000e-01 -8.999878183031e+04 8.329686824636e-02 
8.500000000000e-01 -8.999945673817e+04 8.329644458325e-02 
9.000000000000e-01 -8.999976415911e+04 8.329624711399e-02 
9.500000000000e-01 -8.999989970351e+04 8.329615854937e-02 
1.000000000000e+00 -8.999995804315e+04 8.329611993638e-02 
1.050000000000e+00 -8.999998272024e+04 8.329610344473e-02 
1.100000000000e+00 -8.999999308235e+04 8.329609647897e-02 
1.150000000000e+00 -8.999999757110e+04 8.329609347849e-02 
1.200000000000e+00 -8.999999996365e+04 8.329609195915e-02 
1.250000000000e+00 -9.000000233286e+04 8.329609062070e-02 
1.300000000000e+00 -9.000000675913e+04 8.329608829476e-02 
1.350000000000e+00 -9.000001710061e+04 8.329608296068e-02 
1.400000000000e+00 -9.000004225883e+04 8.329607004392e-02 
1.450000000000e+00 -9.000010358754e+04 8.329603862905e-02 
1.500000000000e+00 -9.000025230734e+04 8.329596261643e-02 
1.550000000000e+00 -9.000061026638e+04 8.329578012118e-02 
1.600000000000e+00 -9.000146400357e+04 8.329534618910e-02 
1.650000000000e+00 -9.000347754463e+04 8.329432656803e-02 
1.700000000000e+00 -9.000816106870e+04 8.329196592036e-02 
1.750000000000e+00 -9.001886536022e+04 8.328660236337e-02 
1.800000000000e+00 -9.004278003617e+04 8.327471046669e-02 
1.850000000000e+00 -9.009461811187e+04 8.324918938503e-02 
1.900000000000e+00 -9.020243760907e+04 8.319680623842e-02 
1.950000000000e+00 -9.041397891459e+04 8.309582853774e-02 
2.000000000000e+00 -9.079487588892e+04 8.302988745982e-02 
 TITLE = "Profiles along polylines"
 VARIABLES = "DIST" "PRESSURE1" "SATURATION1" 
 ZONE T="TIME=1.000000000000e+01"
0.000000000000e+00 -5.700580761668e+04 4.709922553367e-01 
5.000000000000e-02 -5.788257444438e+04 4.691980340058e-01 
1.000000000000e-01 -5.930388048174e+04 4.649071385842e-01 
1.500000000000e-01 -6.087908457381e+04 4.598534473665e-01 
2.000000000000e-01 -6.225326838413e+04 4.552185930427e-01 
2.500000000000e-01 -6.318159320564e+04 2.644326752316e-01 
3.000000000000e-01 -8.796411180555e+04 1.778409534621e-01 
3.500000000000e-01 -8.988545093142e+04 2.740923096354e-01 
4.000000000000e-01 -8.999456164132e+04 2.678957319670e-01 
4.500000000000e-01 -8.999975263675e+04 2.675483980482e-01 
5.000000000000e-01 -8.999998887369e+04 2.675319245828e-01 
5.500000000000e-01 -8.999999785296e+04 2.675312298566e-01 
6.000000000000e-01 -8.999996654193e+04 2.675322234942e-01 
6.500000000000e-01 -8.999937301190e+04 2.675489716132e-01 
7.000000000000e-01 -8.998993148379e+04 1.754325668569e-01 
7.500000000000e-01 -8.999394741002e+04 8.329952192557e-02 
8.000000000000e-01 -8.999647266731e+04 8.329811699685e-02 
8.500000000000e-01 -8.999799448714e+04 8.329725548330e-02 
9.000000000000e-01 -8.999888242552e+04 8.329674584120e-02 
9.500000000000e-01 -8.999938872777e+04 8.329645220841e-02 
1.000000000000e+00 -8.999967403085e+04 8.329628563761e-02 
1.050000000000e+00 -8.999983641395e+04 8.329619078371e-02 
1.100000000000e+00 -8.999993515457e+04 8.329613387828e-02 
1.150000000000e+00 -9.000000797992e+04 8.329609356178e-02 
1.200000000000e+00 -9.000008357725e+04 8.329605411852e-02 
1.250000000000e+00 -9.000019204230e+04 8.329599990927e-02 
1.300000000000e+00 -9.000037639301e+04 8.329590946325e-02 
1.350000000000e+00 -9.000070916434e+04 8.329574723601e-02 
1.400000000000e+00 -9.000132008725e+04 8.329545009093e-02 
1.450000000000e+00 -9.000244468570e+04 8.329490374161e-02 
1.500000000000e+00 -9.000451035053e+04 8.329390120459e-02 
1.550000000000e+00 -9.000828748527e+04 8.329207011318e-02 
1.600000000000e+00 -9.001515013878e+04 8.328874791996e-02 
1.650000000000e+00 -9.002751339665e+04 8.328277363196e-02 
1.700000000000e+00 -9.004953918753e+04 8.327215427714e-02 
1.750000000000e+00 -9.008821065439e+04 8.325356260035e-02 
1.800000000000e+00 -9.015482171575e+04 8.322165180877e-02 
1.850000000000e+00 -9.026671453323e+04 8.316827877778e-02 
1.900000000000e+00 -9.044855896685e+04 8.308197814192e-02 
1.950000000000e+00 -9.073145136300e+04 8.294846743090e-02 
2.000000000000e+00 -9.114690046415e+04 8.286798824734e-02 
 TITLE = "Profiles along polylines"
 VARIABLES = "DIST" "PRESSURE1" "SATURATION1" 
 ZONE T="TIME=2.000000000000e+01"
0.000000000000e+00 -3.517299764796e+04 5.747906888309e-01 
5.000000000000e-02 -3.846686051672e+04 5.654062576367e-01 
1.000000000000e-01 -4.136796568274e+04 5.478691009022e-01 
1.500000000000e-01 -4.380917814903e+04 5.330492823704e-01 
2.000000000000e-01 -4.566801613417e+04 5.215976159708e-01 
2.500000000000e-01 -4.678814088691e+04 2.983593571594e-01 
3.000000000000e-01 -8.383480973446e+04 1.931138571353e-01 
3.500000000000e-01 -8.926188948523e+04 2.892161894437e-01 
4.000000000000e-01 -8.993350842393e+04 2.700264300331e-01 
4.500000000000e-01 -8.999438893023e+04 2.677541767398e-01 
5.000000000000e-01 -8.999953449425e+04 2.675499495339e-01 
5.500000000000e-01 -8.999994334544e+04 2.675330771788e-01 
6.000000000000e-01 -8.999979411338e+04 2.675352636559e-01 
6.500000000000e-01 -8.999795087749e+04 2.675673209674e-01 
7.000000000000e-01 -8.998217910519e+04 1.754500906987e-01 
7.500000000000e-01 -8.998754306981e+04 8.330277909100e-02 
8.000000000000e-01 -8.999147780184e+04 8.330069935160e-02 
8.500000000000e-01 -8.999430267804e+04 8.329919429730e-02 
9.000000000000e-01 -8.999630879999e+04 8.329811964138e-02 
9.500000000000e-01 -8.999774330993e+04 8.329735017469e-02 
1.000000000000e+00 -8.999880917703e+04 8.329678160435e-02 
1.050000000000e+00 -8.999967478927e+04 8.329632698391e-02 
1.100000000000e+00 -9.000048912974e+04 8.329590985807e-02 
1.150000000000e+00 -9.000140064635e+04 8.329545525880e-02 
1.200000000000e+00 -9.000258006890e+04 8.329487863296e-02 
1.250000000000e+00 -9.000424921729e+04 8.329407185577e-02 
1.300000000000e+00 -9.000671947213e+04 8.329288464972e-02 
1.350000000000e+00 -9.001044529449e+04 8.329109887633e-02 
1.400000000000e+00 -9.001610017003e+04 8.328839221006e-02 
1.450000000000e+00 -9.002468463956e+04 8.328428662392e-02 
1.500000000000e+00 -9.003767840262e+04 8.327807603943e-02 
1.550000000000e+00 -9.005725006588e+04 8.326872679141e-02 
1.600000000000e+00 -9.008653726292e+04 8.325474503517e-02 
1.650000000000e+00 -9.013000342245e+04 8.323400837345e-02 
1.700000000000e+00 -9.019386009422e+04 8.320356726836e-02 
1.750000000000e+00 -9.028650769887e+04 8.315943874199e-02 
1.800000000000e+00 -9.041888390998e+04 8.309644429700e-02 
1.850000000000e+00 -9.060451314375e+04 8.300818719241e-02 
1.900000000000e+00 -9.085893838943e+04 8.288731242030e-02 
1.950000000000e+00 -9.119815699912e+04 8.272621196604e-02 
2.000000000000e+00 -9.163585084816e+04 8.263466873896e-02 
 TITLE = "Profiles along polylines"
 VARIABLES = "DIST" "PRESSURE1" "SATURATION1" 
 ZONE T="TIME=3.000000000000e+01"
0.000000000000e+00 -3.036421147292e+04 6.062995935741e-01 
5.000000000000e-02 -3.215471571727e+04 6.011287988158e-01 
1.000000000000e-01 -3.380202592835e+04 5.912746027382e-01 
1.500000000000e-01 -3.524290862316e+04 5.825813448855e-01 
2.000000000000e-01 -3.641560852899e+04 5.754098118232e-01 
2.500000000000e-01 -3.726705819408e+04 3.283650197254e-01 
3.000000000000e-01 -7.847619828185e+04 2.132130843992e-01 
3.500000000000e-01 -8.797813710737e+04 3.110889895978e-01 
4.000000000000e-01 -8.976428158531e+04 2.746178082468e-01 
4.500000000000e-01 -8.997594257708e+04 2.683414159591e-01 
5.000000000000e-01 -8.999765043509e+04 2.676134236856e-01 
5.500000000000e-01 -8.999971988522e+04 2.675401274776e-01 
6.000000000000e-01 -8.999948218094e+04 2.675399460388e-01 
6.500000000000e-01 -8.999617864539e+04 2.675859376868e-01 
7.000000000000e-01 -8.997557587902e+04 1.754667008240e-01 
7.500000000000e-01 -8.998185684745e+04 8.330564193672e-02 
8.000000000000e-01 -8.998683797899e+04 8.330306422909e-02 
8.500000000000e-01 -8.999076107389e+04 8.330102653898e-02 
9.000000000000e-01 -8.999387384626e+04 8.329940819833e-02 
9.500000000000e-01 -8.999642078568e+04 8.329808867134e-02 
1.000000000000e+00 -8.999864261528e+04 8.329694854594e-02 
1.050000000000e+00 -9.000078410552e+04 8.329586641795e-02 
1.100000000000e+00 -9.000310970602e+04 8.329471184498e-02 
1.150000000000e+00 -9.000592693234e+04 8.329333440914e-02 
1.200000000000e+00 -9.000961829251e+04 8.329154856384e-02 
1.250000000000e+00 -9.001468348834e+04 8.328911349383e-02 
1.300000000000e+00 -9.002179451282e+04 8.328570678758e-02 
1.350000000000e+00 -9.003186695167e+04 8.328089038155e-02 
1.400000000000e+00 -9.004615110495e+04 8.327406707694e-02 
1.450000000000e+00 -9.006634618371e+04 8.326442609016e-02 
1.500000000000e+00 -9.009473934779e+04 8.325087679214e-02 
1.550000000000e+00 -9.013436807435e+04 8.323197132740e-02 
1.600000000000e+00 -9.018919843636e+04 8.320581957033e-02 
1.650000000000e+00 -9.026430241625e+04 8.317000428985e-02 
1.700000000000e+00 -9.036600375403e+04 8.312151072716e-02 
1.750000000000e+00 -9.050194439085e+04 8.305669284369e-02 
1.800000000000e+00 -9.068100496122e+04 8.297130698818e-02 
1.850000000000e+00 -9.091299994628e+04 8.286064939838e-02 
1.900000000000e+00 -9.120807475516e+04 8.271983048316e-02 
1.950000000000e+00 -9.157578001822e+04 8.254419655802e-02 
2.000000000000e+00 -9.202391257991e+04 8.244712430844e-02 
 TITLE = "Profiles along polylines"
 VARIABLES = "DIST" "PRESSURE1" "SATURATION1" 
 ZONE T="TIME=4.000000000000e+01"
0.000000000000e+00 -3.364474461001e+04 5.892895516735e-01 
5.000000000000e-02 -3.419328685946e+04 5.875882305043e-01 
1.000000000000e-01 -3.481645034923e+04 5.839981340508e-01 
1.500000000000e-01 -3.547991085892e+04 5.801275962915e-01 
2.000000000000e-01 -3.615679898121e+04 5.761419354251e-01 
2.500000000000e-01 -3.682921405178e+04 3.299367563724e-01 
3.000000000000e-01 -7.447876857089e+04 2.282570635912e-01 
3.500000000000e-01 -8.625881411807e+04 3.310836752493e-01 
4.000000000000e-01 -8.944486069001e+04 2.812064852472e-01 
4.500000000000e-01 -8.993345666666e+04 2.694862185679e-01 
5.000000000000e-01 -8.999259168719e+04 2.677629987313e-01 
5.500000000000e-01 -8.999908555497e+04 2.675586812019e-01 
6.000000000000e-01 -8.999900132571e+04 2.675469397815e-01 
6.500000000000e-01 -8.999417754720e+04 2.676047225465e-01 
7.000000000000e-01 -8.996988380520e+04 1.754824208029e-01 
7.500000000000e-01 -8.997699660684e+04 8.330808935806e-02 
8.000000000000e-01 -8.998296292389e+04 8.330504070854e-02 
8.500000000000e-01 -8.998800870477e+04 8.330246163739e-02 
9.000000000000e-01 -8.999238377893e+04 8.330023116903e-02 
9.500000000000e-01 -8.999636174317e+04 8.329821616488e-02 
1.000000000000e+00 -9.000024542609e+04 8.329626899879e-02 
1.050000000000e+00 -9.000437906446e+04 8.329422205175e-02 
1.100000000000e+00 -9.000916796771e+04 8.329187859114e-02 
1.150000000000e+00 -9.001510637573e+04 8.328899966748e-02 
1.200000000000e+00 -9.002281431601e+04 8.328528663857e-02 
1.250000000000e+00 -9.003308438951e+04 8.328035888481e-02 
1.300000000000e+00 -9.004693940259e+04 8.327372628781e-02 
1.350000000000e+00 -9.006570145038e+04 8.326475618781e-02 
1.400000000000e+00 -9.009107227195e+04 8.325263489742e-02 
1.450000000000e+00 -9.012522325670e+04 8.323632451956e-02 
1.500000000000e+00 -9.017089120815e+04 8.321451687774e-02 
1.550000000000e+00 -9.023147273979e+04 8.318558787831e-02 
1.600000000000e+00 -9.031110599345e+04 8.314755758396e-02 
1.650000000000e+00 -9.041472349178e+04 8.309806356512e-02 
1.700000000000e+00 -9.054805505471e+04 8.303435738936e-02 
1.750000000000e+00 -9.071755614753e+04 8.295333579381e-02 
1.800000000000e+00 -9.093023693732e+04 8.285161816781e-02 
1.850000000000e+00 -9.119337372843e+04 8.272567907205e-02 
1.900000000000e+00 -9.151410081777e+04 8.257203706785e-02 
1.950000000000e+00 -9.189890977717e+04 8.238748801784e-02 
2.000000000000e+00 -9.235312340161e+04 8.228711137567e-02 
 TITLE = "Profiles along polylines"
 VARIABLES = "DIST" "PRESSURE1" "SATURATION1" 
 ZONE T="TIME=5.000000000000e+01"
0.000000000000e+00 -3.304771529222e+04 5.925283090936e-01 
5.000000000000e-02 -3.374995155712e+04 5.904549444845e-01 
1.000000000000e-01 -3.444190935636e+04 5.863366394509e-01 
1.500000000000e-01 -3.512568368975e+04 5.822706147122e-01 
2.000000000000e-01 -3.580170345059e+04 5.782517925885e-01 
2.500000000000e-01 -3.646962612708e+04 3.314744563575e-01 
3.000000000000e-01 -7.149068073465e+04 2.404581955099e-01 
3.500000000000e-01 -8.433718257949e+04 3.492368801379e-01 
4.000000000000e-01 -8.895445578304e+04 2.892108249284e-01 
4.500000000000e-01 -8.985467840527e+04 2.713085796079e-01 
5.000000000000e-01 -8.998184490229e+04 2.680468419645e-01 
5.500000000000e-01 -8.999763127394e+04 2.675980946764e-01 
6.000000000000e-01 -8.999830127440e+04 2.675575566438e-01 
6.500000000000e-01 -8.999203271160e+04 2.676236587544e-01 
7.000000000000e-01 -8.996495935866e+04 1.754972273197e-01 
7.500000000000e-01 -8.997304994428e+04 8.331009793016e-02 
8.000000000000e-01 -8.998016250265e+04 8.330649658958e-02 
8.500000000000e-01 -8.998655261863e+04 8.330326879882e-02 
9.000000000000e-01 -8.999251164987e+04 8.330027347337e-02 
9.500000000000e-01 -8.999837451146e+04 8.329734840824e-02 
1.000000000000e+00 -9.000453141001e+04 8.329430472626e-02 
1.050000000000e+00 -9.001144476021e+04 8.329091890390e-02 
1.100000000000e+00 -9.001967219178e+04 8.328692189739e-02 
1.150000000000e+00 -9.002989627379e+04 8.328198503704e-02 
1.200000000000e+00 -9.004296130989e+04 8.327570249845e-02 
1.250000000000e+00 -9.005991722172e+04 8.326757032646e-02 
1.300000000000e+00 -9.008207005682e+04 8.325696221901e-02 
1.350000000000e+00 -9.011103795075e+04 8.324310261273e-02 
1.400000000000e+00 -9.014881037551e+04 8.322503808169e-02 
1.450000000000e+00 -9.019780718847e+04 8.320160868063e-02 
1.500000000000e+00 -9.026093238278e+04 8.317142162495e-02 
1.550000000000e+00 -9.034161564256e+04 8.313283055039e-02 
1.600000000000e+00 -9.044383305040e+04 8.308392443260e-02 
1.650000000000e+00 -9.057209695147e+04 8.302253089801e-02 
1.700000000000e+00 -9.073140457918e+04 8.294623887592e-02 
1.750000000000e+00 -9.092713626603e+04 8.285244501397e-02 
1.800000000000e+00 -9.116489764500e+04 8.273842665717e-02 
1.850000000000e+00 -9.145030683365e+04 8.260144117753e-02 
1.900000000000e+00 -9.178873741359e+04 8.243884692964e-02 
1.950000000000e+00 -9.218504038601e+04 8.224823541230e-02 
2.000000000000e+00 -9.264328097898e+04 8.214564304488e-02 
 TITLE = "Profiles along polylines"
 VARIABLES = "DIST" "PRESSURE1" "SATURATION1" 
 ZONE T="TIME=6.000000000000e+01"
0.000000000000e+00 7.805905208785e+05 1.000000000000e+00 
5.000000000000e-02 7.800512633718e+05 1.000000000000e+00 
1.000000000000e-01 7.795120078609e+05 1.000000000000e+00 
1.500000000000e-01 7.789727543464e+05 1.000000000000e+00 
2.000000000000e-01 7.784335028284e+05 1.000000000000e+00 
2.500000000000e-01 7.778942533074e+05 1.000000000000e+00 
3.000000000000e-01 7.774031439763e+05 1.000000000000e+00 
3.500000000000e-01 7.768894329854e+05 1.000000000000e+00 
4.000000000000e-01 7.763757230002e+05 1.000000000000e+00 
4.500000000000e-01 7.758620140256e+05 1.000000000000e+00 
5.000000000000e-01 7.753483060620e+05 1.000000000000e+00 
5.500000000000e-01 7.748345991090e+05 1.000000000000e+00 
6.000000000000e-01 7.743208931659e+05 1.000000000000e+00 
6.500000000000e-01 7.738071882322e+05 1.000000000000e+00 
7.000000000000e-01 7.732934843073e+05 1.000000000000e+00 
7.500000000000e-01 7.728004853997e+05 1.000000000000e+00 
8.000000000000e-01 7.723074866007e+05 1.000000000000e+00 
8.500000000000e-01 7.718144879101e+05 1.000000000000e+00 
9.000000000000e-01 7.713214893279e+05 1.000000000000e+00 
9.500000000000e-01 7.708284908541e+05 1.000000000000e+00 
1.000000000000e+00 7.703354924885e+05 1.000000000000e+00 
1.050000000000e+00 7.698424942311e+05 1.000000000000e+00 
1.100000000000e+00 7.693494960819e+05 1.000000000000e+00 
1.150000000000e+00 7.688564980407e+05 1.000000000000e+00 
1.200000000000e+00 7.683635001076e+05 1.000000000000e+00 
1.250000000000e+00 7.678705022824e+05 1.000000000000e+00 
1.300000000000e+00 7.673775045652e+05 1.000000000000e+00 
1.350000000000e+00 7.668845069557e+05 1.000000000000e+00 
1.400000000000e+00 7.663915094541e+05 1.000000000000e+00 
1.450000000000e+00 7.658985120602e+05 1.000000000000e+00 
1.500000000000e+00 7.654055147740e+05 1.000000000000e+00 
1.550000000000e+00 7.649118654863e+05 1.000000000000e+00 
1.600000000000e+00 7.474293550174e+05 1.000000000000e+00 
1.650000000000e+00 5.832660084645e+05 1.000000000000e+00 
1.700000000000e+00 3.906822884105e+05 1.000000000000e+00 
1.750000000000e+00 2.495581711518e+05 1.000000000000e+00 
1.800000000000e+00 1.462119667642e+05 1.000000000000e+00 
1.850000000000e+00 7.361242805211e+04 1.000000000000e+00 
1.900000000000e+00 2.613576322496e+04 1.000000000000e+00 
1.950000000000e+00 -7.167722755426e+02 9.216433989829e-01 
2.000000000000e+00 -9.750595878867e+03 8.432867979657e-01 
 TITLE = "Profiles along polylines"
 VARIABLES = "DIST" "PRESSURE1" "SATURATION1" 
 ZONE T="TIME=7.000000000000e+01"
0.000000000000e+00 3.486466435639e+07 1.000000000000e+00 
5.000000000000e-02 3.486417054397e+07 1.000000000000e+00 
1.000000000000e-01 3.486367681513e+07 1.000000000000e+00 
1.500000000000e-01 3.486318316989e+07 1.000000000000e+00 
2.000000000000e-01 3.486268960825e+07 1.000000000000e+00 
2.500000000000e-01 3.486219613019e+07 1.000000000000e+00 
3.000000000000e-01 3.486170559401e+07 1.000000000000e+00 
3.500000000000e-01 3.486121375557e+07 1.000000000000e+00 
4.000000000000e-01 3.486072195693e+07 1.000000000000e+00 
4.500000000000e-01 3.486023019810e+07 1.000000000000e+00 
5.000000000000e-01 3.485973847907e+07 1.000000000000e+00 
5.500000000000e-01 3.485924679984e+07 1.000000000000e+00 
6.000000000000e-01 3.485875516042e+07 1.000000000000e+00 
6.500000000000e-01 3.485826356081e+07 1.000000000000e+00 
7.000000000000e-01 3.485777200100e+07 1.000000000000e+00 
7.500000000000e-01 3.485728139114e+07 1.000000000000e+00 
8.000000000000e-01 3.485679078558e+07 1.000000000000e+00 
8.500000000000e-01 3.485630018430e+07 1.000000000000e+00 
9.000000000000e-01 3.485580958731e+07 1.000000000000e+00 
9.500000000000e-01 3.485531899460e+07 1.000000000000e+00 
1.000000000000e+00 3.485482840618e+07 1.000000000000e+00 
1.050000000000e+00 3.485433782205e+07 1.000000000000e+00 
1.100000000000e+00 3.485384724221e+07 1.000000000000e+00 
1.150000000000e+00 3.485335666665e+07 1.000000000000e+00 
1.200000000000e+00 3.485286609538e+07 1.000000000000e+00 
1.250000000000e+00 3.485237552839e+07 1.000000000000e+00 
1.300000000000e+00 3.485188496570e+07 1.000000000000e+00 
1.350000000000e+00 3.485139440729e+07 1.000000000000e+00 
1.400000000000e+00 3.485090385316e+07 1.000000000000e+00 
1.450000000000e+00 3.485041330333e+07 1.000000000000e+00 
1.500000000000e+00 3.484992275778e+07 1.000000000000e+00 
1.550000000000e+00 3.484943221652e+07 1.000000000000e+00 
1.600000000000e+00 3.484894167954e+07 1.000000000000e+00 
1.650000000000e+00 3.484845114685e+07 1.000000000000e+00 
1.700000000000e+00 3.484796061848e+07 1.000000000000e+00 
1.750000000000e+00 3.484747009443e+07 1.000000000000e+00 
1.800000000000e+00 3.484697957474e+07 1.000000000000e+00 
1.850000000000e+00 3.484648905941e+07 1.000000000000e+00 
1.900000000000e+00 3.484599854846e+07 1.000000000000e+00 
1.950000000000e+00 3.484550804189e+07 1.000000000000e+00 
2.000000000000e+00 3.484501753969e+07 1.000000000000e+00 
 TITLE = "Profiles along polylines"
 VARIABLES = "DIST" "PRESSURE1" "SATURATION1" 
 ZONE T="TIME=8.000000000000e+01"
0.000000000000e+00 3.486465443400e+07 1.000000000000e+00 
5.000000000000e-02 3.486416393400e+07 1.000000000000e+00 
1.000000000000e-01 3.486367343400e+07 1.000000000000e+00 
1.500000000000e-01 3.486318293400e+07 1.000000000000e+00 
2.000000000000e-01 3.486269243400e+07 1.000000000000e+00 
2.500000000000e-01 3.486220193400e+07 1.000000000000e+00 
3.000000000000e-01 3.486171143400e+07 1.000000000000e+00 
3.500000000000e-01 3.486122093401e+07 1.000000000000e+00 
4.000000000000e-01 3.486073043401e+07 1.000000000000e+00 
4.500000000000e-01 3.486023993401e+07 1.000000000000e+00 
5.000000000000e-01 3.485974943401e+07 1.000000000000e+00 
5.500000000000e-01 3.485925893401e+07 1.000000000000e+00 
6.000000000000e-01 3.485876843401e+07 1.000000000000e+00 
6.500000000000e-01 3.485827793401e+07 1.000000000000e+00 
7.000000000000e-01 3.485778743401e+07 1.000000000000e+00 
7.500000000000e-01 3.485729693401e+07 1.000000000000e+00 
8.000000000000e-01 3.485680643401e+07 1.000000000000e+00 
8.500000000000e-01 3.485631593401e+07 1.000000000000e+00 
9.000000000000e-01 3.485582543401e+07 1.000000000000e+00 
9.500000000000e-01 3.485533493401e+07 1.000000000000e+00 
1.000000000000e+00 3.485484443401e+07 1.000000000000e+00 
1.050000000000e+00 3.485435393401e+07 1.000000000000e+00 
1.100000000000e+00 3.485386343401e+07 1.000000000000e+00 
1.150000000000e+00 3.485337293401e+07 1.000000000000e+00 
1.200000000000e+00 3.485288243401e+07 1.000000000000e+00 
1.250000000000e+00 3.485239193401e+07 1.000000000000e+00 
1.300000000000e+00 3.485190143401e+07 1.000000000000e+00 
1.350000000000e+00 3.485141093401e+07 1.000000000000e+00 
1.400000000000e+00 3.485092043401e+07 1.000000000000e+00 
1.450000000000e+00 3.485042993401e+07 1.000000000000e+00 
1.500000000000e+00 3.484993943401e+07 1.000000000000e+00 
1.550000000000e+00 3.484944893401e+07 1.000000000000e+00 
1.600000000000e+00 3.484895843401e+07 1.000000000000e+00 
1.650000000000e+00 3.484846793401e+07 1.000000000000e+00 
1.700000000000e+00 3.484797743401e+07 1.000000000000e+00 