 TITLE = "Profiles along polylines"
 VARIABLES = "DIST" "PRESSURE1" "SATURATION1" 
 ZONE T="TIME=0.000000000000e+00"
0.000000000000e+00 -9.000000000000e+04 3.601056880734e-01 
5.000000000000e-02 -9.000000000000e+04 3.601056880734e-01 
1.000000000000e-01 -9.000000000000e+04 3.601056880734e-01 
1.500000000000e-01 -9.000000000000e+04 3.601056880734e-01 
2.000000000000e-01 -9.000000000000e+04 3.601056880734e-01 
2.500000000000e-01 -9.000000000000e+04 2.217008899083e-01 
3.000000000000e-01 -9.000000000000e+04 8.329609174312e-02 
3.500000000000e-01 -9.000000000000e+04 8.329609174312e-02 
4.000000000000e-01 -9.000000000000e+04 8.329609174312e-02 
4.500000000000e-01 -9.000000000000e+04 8.329609174312e-02 
5.000000000000e-01 -9.000000000000e+04 8.329609174312e-02 
5.500000000000e-01 -9.000000000000e+04 8.329609174312e-02 
6.000000000000e-01 -9.000000000000e+04 8.329609174312e-02 
6.500000000000e-01 -9.000000000000e+04 8.329609174312e-02 
7.000000000000e-01 -9.000000000000e+04 8.329609174312e-02 
7.500000000000e-01 -9.000000000000e+04 8.329609174312e-02 
8.000000000000e-01 -9.000000000000e+04 8.329609174312e-02 
8.500000000000e-01 -9.000000000000e+04 8.329609174312e-02 
9.000000000000e-01 -9.000000000000e+04 8.329609174312e-02 
9.500000000000e-01 -9.000000000000e+04 8.329609174312e-02 
1.000000000000e+00 -9.000000000000e+04 8.329609174312e-02 
1.050000000000e+00 -9.000000000000e+04 8.329609174312e-02 
1.100000000000e+00 -9.000000000000e+04 8.329609174312e-02 
1.150000000000e+00 -9.000000000000e+04 8.329609174312e-02 
1.200000000000e+00 -9.000000000000e+04 8.329609174312e-02 
1.250000000000e+00 -9.000000000000e+04 8.329609174312e-02 
1.300000000000e+00 -9.000000000000e+04 8.329609174312e-02 
1.350000000000e+00 -9.000000000000e+04 8.329609174312e-02 
1.400000000000e+00 -9.000000000000e+04 8.329609174312e-02 
1.450000000000e+00 -9.000000000000e+04 8.329609174312e-02 
1.500000000000e+00 -9.000000000000e+04 8.329609174312e-02 
1.550000000000e+00 -9.000000000000e+04 8.329609174312e-02 
1.600000000000e+00 -9.000000000000e+04 8.329609174312e-02 
1.650000000000e+00 -9.000000000000e+04 8.329609174312e-02 
1.700000000000e+00 -9.000000000000e+04 8.329609174312e-02 
1.750000000000e+00 -9.000000000000e+04 8.329609174312e-02 
1.800000000000e+00 -9.000000000000e+04 8.329609174312e-02 
1.850000000000e+00 -9.000000000000e+04 8.329609174312e-02 
1.900000000000e+00 -9.000000000000e+04 8.329609174312e-02 
1.950000000000e+00 -9.000000000000e+04 8.329609174312e-02 
2.000000000000e+00 -9.000000000000e+04 8.329609174312e-02 
 TITLE = "Profiles along polylines"
 VARIABLES = "DIST" "PRESSURE1" "SATURATION1" 
 ZONE T="TIME=5.000000000000e-01"
0.000000000000e+00 -8.359911699122e+04 3.772622474592e-01 
5.000000000000e-02 -8.762266721027e+04 3.718417533031e-01 
1.000000000000e-01 -8.916702558737e+04 3.643492221468e-01 
1.500000000000e-01 -8.974473794069e+04 3.614729771248e-01 
2.000000000000e-01 -9.001234366218e+04 3.602079218709e-01 
2.500000000000e-01 -9.029259241901e+04 2.214696452929e-01 
3.000000000000e-01 -9.004806246402e+04 8.323561970796e-02 
3.500000000000e-01 -9.000792663259e+04 8.328615005552e-02 
4.000000000000e-01 -9.000130814383e+04 8.329445190067e-02 
4.500000000000e-01 -9.000021590817e+04 8.329582111142e-02 
5.000000000000e-01 -9.000003563612e+04 8.329604707539e-02 
5.500000000000e-01 -9.000000588184e+04 8.329608437061e-02 
6.000000000000e-01 -9.000000097081e+04 8.329609052627e-02 
6.500000000000e-01 -9.000000016024e+04 8.329609154227e-02 
7.000000000000e-01 -9.000000002645e+04 8.329609170997e-02 
7.500000000000e-01 -9.000000000437e+04 8.329609173765e-02 
8.000000000000e-01 -9.000000000072e+04 8.329609174222e-02 
8.500000000000e-01 -9.000000000012e+04 8.329609174297e-02 
9.000000000000e-01 -9.000000000002e+04 8.329609174309e-02 
9.500000000000e-01 -9.000000000000e+04 8.329609174312e-02 
1.000000000000e+00 -9.000000000000e+04 8.329609174312e-02 
1.050000000000e+00 -9.000000000000e+04 8.329609174312e-02 
1.100000000000e+00 -9.000000000000e+04 8.329609174312e-02 
1.150000000000e+00 -9.000000000000e+04 8.329609174312e-02 
1.200000000000e+00 -9.000000000000e+04 8.329609174312e-02 
1.250000000000e+00 -9.000000000000e+04 8.329609174312e-02 
1.300000000000e+00 -9.000000000000e+04 8.329609174312e-02 
1.350000000000e+00 -9.000000000001e+04 8.329609174311e-02 
1.400000000000e+00 -9.000000000009e+04 8.329609174305e-02 
1.450000000000e+00 -9.000000000052e+04 8.329609174272e-02 
1.500000000000e+00 -9.000000000310e+04 8.329609174076e-02 
1.550000000000e+00 -9.000000001841e+04 8.329609172912e-02 
1.600000000000e+00 -9.000000010921e+04 8.329609166009e-02 
1.650000000000e+00 -9.000000064787e+04 8.329609125055e-02 
1.700000000000e+00 -9.000000384356e+04 8.329608882092e-02 
1.750000000000e+00 -9.000002280218e+04 8.329607440694e-02 
1.800000000000e+00 -9.000013527591e+04 8.329598889404e-02 
1.850000000000e+00 -9.000080254437e+04 8.329548155156e-02 
1.900000000000e+00 -9.000476151086e+04 8.329247061351e-02 
1.950000000000e+00 -9.002826061663e+04 8.327456933175e-02 
2.000000000000e+00 -9.016810484191e+04 8.325924482363e-02 
 TITLE = "Profiles along polylines"
 VARIABLES = "DIST" "PRESSURE1" "SATURATION1" 
 ZONE T="TIME=1.000000000000e+00"
0.000000000000e+00 -8.530863827295e+04 3.738950255807e-01 
5.000000000000e-02 -8.718274140620e+04 3.709615878010e-01 
1.000000000000e-01 -8.862519614599e+04 3.659268644791e-01 
1.500000000000e-01 -8.945847049924e+04 3.626046526808e-01 
2.000000000000e-01 -8.995232701858e+04 3.605881152141e-01 
2.500000000000e-01 -9.037243251822e+04 2.214753773325e-01 
3.000000000000e-01 -9.009544133361e+04 8.320976098637e-02 
3.500000000000e-01 -9.002138954058e+04 8.327480678340e-02 
4.000000000000e-01 -9.000446332064e+04 8.329141178856e-02 
4.500000000000e-01 -9.000089080559e+04 8.329512626144e-02 
5.000000000000e-01 -9.000017247467e+04 8.329590050072e-02 
5.500000000000e-01 -9.000003266741e+04 8.329605491387e-02 
6.000000000000e-01 -9.000000608508e+04 8.329608479544e-02 
6.500000000000e-01 -9.000000111878e+04 8.329609045297e-02 
7.000000000000e-01 -9.000000020354e+04 8.329609150650e-02 
7.500000000000e-01 -9.000000003671e+04 8.329609170016e-02 
8.000000000000e-01 -9.000000000657e+04 8.329609173538e-02 
8.500000000000e-01 -9.000000000117e+04 8.329609174174e-02 
9.000000000000e-01 -9.000000000021e+04 8.329609174287e-02 
9.500000000000e-01 -9.000000000004e+04 8.329609174308e-02 
1.000000000000e+00 -9.000000000001e+04 8.329609174311e-02 
1.050000000000e+00 -9.000000000000e+04 8.329609174312e-02 
1.100000000000e+00 -9.000000000000e+04 8.329609174312e-02 
1.150000000000e+00 -9.000000000000e+04 8.329609174312e-02 
1.200000000000e+00 -9.000000000000e+04 8.329609174312e-02 
1.250000000000e+00 -9.000000000001e+04 8.329609174312e-02 
1.300000000000e+00 -9.000000000003e+04 8.329609174310e-02 
1.350000000000e+00 -9.000000000016e+04 8.329609174300e-02 
1.400000000000e+00 -9.000000000091e+04 8.329609174246e-02 
1.450000000000e+00 -9.000000000502e+04 8.329609173947e-02 
1.500000000000e+00 -9.000000002758e+04 8.329609172316e-02 
1.550000000000e+00 -9.000000015050e+04 8.329609163473e-02 
1.600000000000e+00 -9.000000081489e+04 8.329609115936e-02 
1.650000000000e+00 -9.000000437178e+04 8.329608863163e-02 
1.700000000000e+00 -9.000002319135e+04 8.329607537064e-02 
1.750000000000e+00 -9.000012130215e+04 8.329600699092e-02 
1.800000000000e+00 -9.000062304302e+04 8.329566237188e-02 
1.850000000000e+00 -9.000312332983e+04 8.329397983946e-02 
1.900000000000e+00 -9.001513308537e+04 8.328614070834e-02 
1.950000000000e+00 -9.006968101832e+04 8.325227044674e-02 
2.000000000000e+00 -9.029497727375e+04 8.322484415716e-02 
 TITLE = "Profiles along polylines"
 VARIABLES = "DIST" "PRESSURE1" "SATURATION1" 
 ZONE T="TIME=5.000000000000e+00"
0.000000000000e+00 -1.149199145571e+04 7.522004334300e-01 
5.000000000000e-02 -1.247306824483e+04 7.468408918455e-01 
1.000000000000e-01 -1.430435643750e+04 7.327219206470e-01 
1.500000000000e-01 -1.684163607754e+04 7.126203676140e-01 
2.000000000000e-01 -1.979494337336e+04 6.896580230185e-01 
2.500000000000e-01 -2.211303078319e+04 4.043786825420e-01 
3.000000000000e-01 -4.473569305133e+04 1.160266517540e-01 
3.500000000000e-01 -7.056755746429e+04 9.612009501783e-02 
4.000000000000e-01 -8.247064430727e+04 8.854945794387e-02 
4.500000000000e-01 -8.740184299059e+04 8.524043261065e-02 
5.000000000000e-01 -8.914701299970e+04 8.395514849895e-02 
5.500000000000e-01 -8.971979555828e+04 8.351267684772e-02 
6.000000000000e-01 -8.990589645308e+04 8.336787268425e-02 
6.500000000000e-01 -8.996753802721e+04 8.332045644764e-02 
7.000000000000e-01 -8.998852894144e+04 8.330457801355e-02 
7.500000000000e-01 -8.999586917078e+04 8.329911350865e-02 
8.000000000000e-01 -8.999849204966e+04 8.329718595998e-02 
8.500000000000e-01 -8.999944438671e+04 8.329649270902e-02 
9.000000000000e-01 -8.999979400638e+04 8.329623986060e-02 
9.500000000000e-01 -8.999992330075e+04 8.329614675548e-02 
1.000000000000e+00 -8.999997135258e+04 8.329611225231e-02 
1.050000000000e+00 -8.999998928463e+04 8.329609940485e-02 
1.100000000000e+00 -8.999999602616e+04 8.329609458962e-02 
1.150000000000e+00 -8.999999864663e+04 8.329609273832e-02 
1.200000000000e+00 -8.999999987386e+04 8.329609191648e-02 
1.250000000000e+00 -9.000000097148e+04 8.329609127417e-02 
1.300000000000e+00 -9.000000305543e+04 8.329609015681e-02 
1.350000000000e+00 -9.000000823160e+04 8.329608743585e-02 
1.400000000000e+00 -9.000002171028e+04 8.329608037717e-02 
1.450000000000e+00 -9.000005698413e+04 8.329606193436e-02 
1.500000000000e+00 -9.000014906717e+04 8.329601387621e-02 
1.550000000000e+00 -9.000038821420e+04 8.329588938392e-02 
1.600000000000e+00 -9.000100446610e+04 8.329556974985e-02 
1.650000000000e+00 -9.000257452073e+04 8.329475955407e-02 
1.700000000000e+00 -9.000651007901e+04 8.329274289088e-02 
1.750000000000e+00 -9.001615124661e+04 8.328784884850e-02 
1.800000000000e+00 -9.003902671885e+04 8.327637869940e-02 
1.850000000000e+00 -9.009096654100e+04 8.325073666893e-02 
1.900000000000e+00 -9.020203386175e+04 8.319692503871e-02 
1.950000000000e+00 -9.042104483835e+04 8.309304109106e-02 
2.000000000000e+00 -9.080847125973e+04 8.302533917850e-02 
 TITLE = "Profiles along polylines"
 VARIABLES = "DIST" "PRESSURE1" "SATURATION1" 
 ZONE T="TIME=1.000000000000e+01"
0.000000000000e+00 -1.676460529965e+04 7.087319885700e-01 
5.000000000000e-02 -1.731115383533e+04 7.062627029864e-01 
1.000000000000e-01 -1.796579785891e+04 7.008782834115e-01 
1.500000000000e-01 -1.871981893537e+04 6.946481377769e-01 
2.000000000000e-01 -1.955811619240e+04 6.876899725606e-01 
2.500000000000e-01 -2.046011738903e+04 4.345510406660e-01 
3.000000000000e-01 -2.260000096150e+04 1.601767656350e-01 
3.500000000000e-01 -3.399235123069e+04 1.270861762854e-01 
4.000000000000e-01 -4.625127891504e+04 1.104248988250e-01 
4.500000000000e-01 -6.362278744271e+04 9.822156384841e-02 
5.000000000000e-01 -7.465184723816e+04 9.208507945572e-02 
5.500000000000e-01 -8.164008466706e+04 8.822063947305e-02 
6.000000000000e-01 -8.573402662742e+04 8.588667786331e-02 
6.500000000000e-01 -8.793230479916e+04 8.458400302571e-02 
7.000000000000e-01 -8.903231089332e+04 8.390969893185e-02 
7.500000000000e-01 -8.955711727746e+04 8.358018921099e-02 
8.000000000000e-01 -8.980019819331e+04 8.342522360922e-02 
8.500000000000e-01 -8.991074430977e+04 8.335407489262e-02 
9.000000000000e-01 -8.996041729527e+04 8.332190388753e-02 
9.500000000000e-01 -8.998254766682e+04 8.330750700901e-02 
1.000000000000e+00 -8.999234299261e+04 8.330111285686e-02 
1.050000000000e+00 -8.999665629278e+04 8.329828951377e-02 
1.100000000000e+00 -8.999854905132e+04 8.329704802347e-02 
1.150000000000e+00 -8.999938091394e+04 8.329650215898e-02 
1.200000000000e+00 -8.999975520375e+04 8.329625808264e-02 
1.250000000000e+00 -8.999994448398e+04 8.329613864997e-02 
1.300000000000e+00 -9.000008423372e+04 8.329605817602e-02 
1.350000000000e+00 -9.000026759414e+04 8.329596242800e-02 
1.400000000000e+00 -9.000060541093e+04 8.329579318885e-02 
1.450000000000e+00 -9.000128867018e+04 8.329545513003e-02 
1.500000000000e+00 -9.000268500501e+04 8.329476784129e-02 
1.550000000000e+00 -9.000550917705e+04 8.329338322392e-02 
1.600000000000e+00 -9.001112579130e+04 8.329064066130e-02 
1.650000000000e+00 -9.002206600785e+04 8.328532242146e-02 
1.700000000000e+00 -9.004285420374e+04 8.327526691878e-02 
1.750000000000e+00 -9.008120983093e+04 8.325681442465e-02 
1.800000000000e+00 -9.014954663139e+04 8.322412831780e-02 
1.850000000000e+00 -9.026634686012e+04 8.316859058298e-02 
1.900000000000e+00 -9.045641050311e+04 8.307871610953e-02 
1.950000000000e+00 -9.074840408381e+04 8.294124671407e-02 
2.000000000000e+00 -9.116837705175e+04 8.285890356218e-02 
 TITLE = "Profiles along polylines"
 VARIABLES = "DIST" "PRESSURE1" "SATURATION1" 
 ZONE T="TIME=2.000000000000e+01"
0.000000000000e+00 -1.149166949841e+04 7.518187970237e-01 
5.000000000000e-02 -1.260877179676e+04 7.471228225093e-01 
1.000000000000e-01 -1.369834136928e+04 7.378418946970e-01 
1.500000000000e-01 -1.476439644168e+04 7.287679450892e-01 
2.000000000000e-01 -1.580956290577e+04 7.198767385500e-01 
2.500000000000e-01 -1.683508007500e+04 4.767012732998e-01 
3.000000000000e-01 -1.856877228048e+04 2.250678048884e-01 
3.500000000000e-01 -2.058927914035e+04 1.972020840283e-01 
4.000000000000e-01 -2.295162677666e+04 1.588428865025e-01 
4.500000000000e-01 -3.288172517458e+04 1.288502229797e-01 
5.000000000000e-01 -4.135215348651e+04 1.158223140535e-01 
5.500000000000e-01 -5.194566671729e+04 1.048391194623e-01 
6.000000000000e-01 -6.278563658419e+04 9.781943790328e-02 
6.500000000000e-01 -7.067740206370e+04 9.362084011432e-02 
7.000000000000e-01 -7.651312327360e+04 9.054108198493e-02 
7.500000000000e-01 -8.077205240999e+04 8.828686029724e-02 
8.000000000000e-01 -8.380818096571e+04 8.666828972674e-02 
8.500000000000e-01 -8.591618671083e+04 8.553448399325e-02 
9.000000000000e-01 -8.734371828683e+04 8.475980220679e-02 
9.500000000000e-01 -8.829033742921e+04 8.424205707159e-02 
1.000000000000e+00 -8.890796939338e+04 8.390213522349e-02 
1.050000000000e+00 -8.930629622767e+04 8.368190214529e-02 
1.100000000000e+00 -8.956122019955e+04 8.354051209551e-02 
1.150000000000e+00 -8.972367777251e+04 8.345023455433e-02 
1.200000000000e+00 -8.982715643755e+04 8.339268973445e-02 
1.250000000000e+00 -8.989341439790e+04 8.335587453207e-02 
1.300000000000e+00 -8.993654862963e+04 8.333199482518e-02 
1.350000000000e+00 -8.996578080251e+04 8.331595846427e-02 
1.400000000000e+00 -8.998733744665e+04 8.330435055683e-02 
1.450000000000e+00 -9.000573134652e+04 8.329473507540e-02 
1.500000000000e+00 -9.002467209419e+04 8.328516309395e-02 
1.550000000000e+00 -9.004776741802e+04 8.327380149874e-02 
1.600000000000e+00 -9.007912499349e+04 8.325862331729e-02 
1.650000000000e+00 -9.012391998391e+04 8.323712415703e-02 
1.700000000000e+00 -9.018894608857e+04 8.320605325337e-02 
1.750000000000e+00 -9.028310648489e+04 8.316117720825e-02 
1.800000000000e+00 -9.041771949809e+04 8.309713222471e-02 
1.850000000000e+00 -9.060642132190e+04 8.300746182030e-02 
1.900000000000e+00 -9.086438670117e+04 8.288496234807e-02 
1.950000000000e+00 -9.120664871365e+04 8.272242894761e-02 
2.000000000000e+00 -9.164560313130e+04 8.263028310103e-02 
 TITLE = "Profiles along polylines"
 VARIABLES = "DIST" "PRESSURE1" "SATURATION1" 
 ZONE T="TIME=3.000000000000e+01"
0.000000000000e+00 -1.132397089717e+04 7.540338637229e-01 
5.000000000000e-02 -1.216026552452e+04 7.504748440874e-01 
1.000000000000e-01 -1.300672263517e+04 7.433167802529e-01 
1.500000000000e-01 -1.386118385346e+04 7.360874440582e-01 
2.000000000000e-01 -1.472175380340e+04 7.288033587183e-01 
2.500000000000e-01 -1.558674036150e+04 4.912916434436e-01 
3.000000000000e-01 -1.690357759006e+04 2.479376443777e-01 
3.500000000000e-01 -1.832220282938e+04 2.280931364677e-01 
4.000000000000e-01 -1.990098038924e+04 2.058634396717e-01 
4.500000000000e-01 -2.181356633990e+04 1.775861916803e-01 
5.000000000000e-01 -2.498511864496e+04 1.474207035158e-01 
5.500000000000e-01 -3.273640676889e+04 1.283446195872e-01 
6.000000000000e-01 -3.987869650083e+04 1.178779583504e-01 
6.500000000000e-01 -4.761384523388e+04 1.075702229016e-01 
7.000000000000e-01 -5.817352686212e+04 1.000408006253e-01 
7.500000000000e-01 -6.609364525970e+04 9.585429554834e-02 
8.000000000000e-01 -7.225744508623e+04 9.264541721648e-02 
8.500000000000e-01 -7.704971688458e+04 9.015418935163e-02 
9.000000000000e-01 -8.071933285081e+04 8.823966290323e-02 
9.500000000000e-01 -8.346860163237e+04 8.679632707255e-02 
1.000000000000e+00 -8.547928209614e+04 8.573278081390e-02 
1.050000000000e+00 -8.691587788362e+04 8.496699627648e-02 
1.100000000000e+00 -8.792147619077e+04 8.442711915193e-02 
1.150000000000e+00 -8.861388416597e+04 8.405314805630e-02 
1.200000000000e+00 -8.908506646997e+04 8.379749629788e-02 
1.250000000000e+00 -8.940371050548e+04 8.362410496587e-02 
1.300000000000e+00 -8.961946918119e+04 8.350660484608e-02 
1.350000000000e+00 -8.976751280760e+04 8.342616747489e-02 
1.400000000000e+00 -8.987258867755e+04 8.336949091431e-02 
1.450000000000e+00 -8.995229675703e+04 8.332712289531e-02 
1.500000000000e+00 -9.001958834818e+04 8.329215687937e-02 
1.550000000000e+00 -9.008461684950e+04 8.325925593977e-02 
1.600000000000e+00 -9.015608937310e+04 8.322393676787e-02 
1.650000000000e+00 -9.024224004998e+04 8.318205344008e-02 
1.700000000000e+00 -9.035150099557e+04 8.312944002013e-02 
1.750000000000e+00 -9.049290033676e+04 8.306169308430e-02 
1.800000000000e+00 -9.067617773815e+04 8.297409423920e-02 
1.850000000000e+00 -9.091158646180e+04 8.286168357999e-02 
1.900000000000e+00 -9.120936050526e+04 8.271949174290e-02 
1.950000000000e+00 -9.157887979153e+04 8.254291484400e-02 
2.000000000000e+00 -9.202766892188e+04 8.244549117736e-02 
 TITLE = "Profiles along polylines"
 VARIABLES = "DIST" "PRESSURE1" "SATURATION1" 
 ZONE T="TIME=4.000000000000e+01"
0.000000000000e+00 -1.393991553044e+04 7.327809275376e-01 
5.000000000000e-02 -1.444970757028e+04 7.305702446187e-01 
1.000000000000e-01 -1.499482763451e+04 7.260026536483e-01 
1.500000000000e-01 -1.557278865939e+04 7.211525171813e-01 
2.000000000000e-01 -1.618155425439e+04 7.160377082484e-01 
2.500000000000e-01 -1.681955732665e+04 4.777718202872e-01 
3.000000000000e-01 -1.770378406216e+04 2.357248235656e-01 
3.500000000000e-01 -1.866757628018e+04 2.223224976508e-01 
4.000000000000e-01 -1.972697531268e+04 2.075646115370e-01 
4.500000000000e-01 -2.091888666493e+04 1.908778543361e-01 
5.000000000000e-01 -2.234516244891e+04 1.691932737786e-01 
5.500000000000e-01 -2.493606182730e+04 1.455162616940e-01 
6.000000000000e-01 -3.082007833711e+04 1.305084617403e-01 
6.500000000000e-01 -3.649198825624e+04 1.223607879609e-01 
7.000000000000e-01 -4.247695780048e+04 1.136927569357e-01 
7.500000000000e-01 -5.016749259999e+04 1.052748029344e-01 
8.000000000000e-01 -5.890946166447e+04 9.946165927643e-02 
8.500000000000e-01 -6.583966547429e+04 9.586235245851e-02 
9.000000000000e-01 -7.144928181672e+04 9.297400900918e-02 
9.500000000000e-01 -7.597584574892e+04 9.064459735788e-02 
1.000000000000e+00 -7.957802529337e+04 8.878519115985e-02 
1.050000000000e+00 -8.238897127710e+04 8.732667604444e-02 
1.100000000000e+00 -8.453456479409e+04 8.620624740590e-02 
1.150000000000e+00 -8.613659938976e+04 8.536392394533e-02 
1.200000000000e+00 -8.730924785314e+04 8.474330663336e-02 
1.250000000000e+00 -8.815404389859e+04 8.429367325903e-02 
1.300000000000e+00 -8.875646597214e+04 8.397170845305e-02 
1.350000000000e+00 -8.918512934425e+04 8.374215101973e-02 
1.400000000000e+00 -8.949314969295e+04 8.357738059544e-02 
1.450000000000e+00 -8.972070779162e+04 8.345632530109e-02 
1.500000000000e+00 -8.989794661077e+04 8.336310773540e-02 
1.550000000000e+00 -9.004765921997e+04 8.328572517184e-02 
1.600000000000e+00 -9.018752243733e+04 8.321491792941e-02 
1.650000000000e+00 -9.033181734590e+04 8.314327815990e-02 
1.700000000000e+00 -9.049266646242e+04 8.306459657679e-02 
1.750000000000e+00 -9.068084613680e+04 8.297342287955e-02 
1.800000000000e+00 -9.090623449580e+04 8.286481077980e-02 
1.850000000000e+00 -9.117795155464e+04 8.273421892541e-02 
1.900000000000e+00 -9.150425096755e+04 8.257753781602e-02 
1.950000000000e+00 -9.189223638782e+04 8.239120733511e-02 
2.000000000000e+00 -9.234749588946e+04 8.229022385567e-02 
 TITLE = "Profiles along polylines"
 VARIABLES = "DIST" "PRESSURE1" "SATURATION1" 
 ZONE T="TIME=5.000000000000e+01"
0.000000000000e+00 -1.439406585297e+04 7.288010315444e-01 
5.000000000000e-02 -1.494987661113e+04 7.264308291008e-01 
1.000000000000e-01 -1.551586591530e+04 7.216457745573e-01 
1.500000000000e-01 -1.609310080620e+04 7.167671721822e-01 
2.000000000000e-01 -1.668245427118e+04 7.117872937602e-01 
2.500000000000e-01 -1.728464323729e+04 4.726775720295e-01 
3.000000000000e-01 -1.806310327263e+04 2.305000808591e-01 
3.500000000000e-01 -1.888902257564e+04 2.189714949046e-01 
4.000000000000e-01 -1.977398506401e+04 2.066176932936e-01 
4.500000000000e-01 -2.073904710110e+04 1.931288657888e-01 
5.000000000000e-01 -2.183007834672e+04 1.777388828534e-01 
5.500000000000e-01 -2.319429067418e+04 1.573307213366e-01 
6.000000000000e-01 -2.623953761442e+04 1.392656183173e-01 
6.500000000000e-01 -3.098030101412e+04 1.299684243739e-01 
7.000000000000e-01 -3.570888097476e+04 1.232492136771e-01 
7.500000000000e-01 -4.071463734937e+04 1.161617823671e-01 
8.000000000000e-01 -4.648454659442e+04 1.082291886667e-01 
8.500000000000e-01 -5.459195225349e+04 1.017796039491e-01 
9.000000000000e-01 -6.164123351915e+04 9.792913332218e-02 
9.500000000000e-01 -6.748059044814e+04 9.493709738827e-02 
1.000000000000e+00 -7.234403730843e+04 9.245278091722e-02 
1.050000000000e+00 -7.636474744945e+04 9.039695159028e-02 
1.100000000000e+00 -7.964120391388e+04 8.871621646340e-02 
1.150000000000e+00 -8.226259867151e+04 8.736513717466e-02 
1.200000000000e+00 -8.431839212665e+04 8.629961002172e-02 
1.250000000000e+00 -8.589954883099e+04 8.547525171934e-02 
1.300000000000e+00 -8.709539280986e+04 8.484833849040e-02 
1.350000000000e+00 -8.798912039018e+04 8.437772632230e-02 
1.400000000000e+00 -8.865413854188e+04 8.402663826557e-02 
1.450000000000e+00 -8.915223274983e+04 8.376371782209e-02 
1.500000000000e+00 -8.953354339069e+04 8.356323554939e-02 
1.550000000000e+00 -8.983778185804e+04 8.340464631335e-02 
1.600000000000e+00 -9.009602758239e+04 8.327179387136e-02 
1.650000000000e+00 -9.033260275613e+04 8.315201878550e-02 
1.700000000000e+00 -9.056673079283e+04 8.303533494304e-02 
1.750000000000e+00 -9.081385168521e+04 8.291375592623e-02 
1.800000000000e+00 -9.108657217759e+04 8.278079472992e-02 
1.850000000000e+00 -9.139528417279e+04 8.263112740543e-02 
1.900000000000e+00 -9.174851015201e+04 8.246039511664e-02 
1.950000000000e+00 -9.215304351229e+04 8.226511273441e-02 
2.000000000000e+00 -9.261395116691e+04 8.216095153336e-02 
 TITLE = "Profiles along polylines"
 VARIABLES = "DIST" "PRESSURE1" "SATURATION1" 
 ZONE T="TIME=6.000000000000e+01"
0.000000000000e+00 1.795488333885e+04 1.000000000000e+00 
5.000000000000e-02 1.494538165873e+04 1.000000000000e+00 
1.000000000000e-01 1.199571278017e+04 1.000000000000e+00 
1.500000000000e-01 9.076142628372e+03 1.000000000000e+00 
2.000000000000e-01 6.153191131914e+03 1.000000000000e+00 
2.500000000000e-01 3.179834793798e+03 1.000000000000e+00 
3.000000000000e-01 2.117444100150e+03 1.000000000000e+00 
3.500000000000e-01 -1.895905675541e+00 9.754370572127e-01 
4.000000000000e-01 -3.790773585934e+03 8.891110953739e-01 
4.500000000000e-01 -6.986328406195e+03 6.833843371756e-01 
5.000000000000e-01 -9.730483027620e+03 4.370530557458e-01 
5.500000000000e-01 -1.213310625217e+04 3.181323658334e-01 
6.000000000000e-01 -1.439165195182e+04 2.856886537775e-01 
6.500000000000e-01 -1.665560587077e+04 2.539200718049e-01 
7.000000000000e-01 -1.890338916977e+04 2.224200657408e-01 
7.500000000000e-01 -2.107425739805e+04 1.915272258789e-01 
8.000000000000e-01 -2.324911357045e+04 1.564930989117e-01 
8.500000000000e-01 -2.963967563856e+04 1.320567397257e-01 
9.000000000000e-01 -3.680009505367e+04 1.223725861416e-01 
9.500000000000e-01 -4.386309619135e+04 1.119027516366e-01 
1.000000000000e+00 -5.427918309118e+04 1.029938798749e-01 
1.050000000000e+00 -6.239257268280e+04 9.769238128419e-02 
1.100000000000e+00 -6.873868534674e+04 9.438642034022e-02 
1.150000000000e+00 -7.378114567647e+04 9.177637496111e-02 
1.200000000000e+00 -7.778424029042e+04 8.970592411290e-02 
1.250000000000e+00 -8.093378774161e+04 8.807362106243e-02 
1.300000000000e+00 -8.338063764795e+04 8.680102814464e-02 
1.350000000000e+00 -8.525694694589e+04 8.582120256044e-02 
1.400000000000e+00 -8.668073855460e+04 8.507491607545e-02 
1.450000000000e+00 -8.775576379750e+04 8.451002723822e-02 
1.500000000000e+00 -8.857045197193e+04 8.408177933997e-02 
1.550000000000e+00 -8.919770395485e+04 8.375294046251e-02 
1.600000000000e+00 -8.969590472698e+04 8.349343340318e-02 
1.650000000000e+00 -9.011081068941e+04 8.327952186141e-02 
1.700000000000e+00 -9.047778499972e+04 8.309277359343e-02 
1.750000000000e+00 -9.082395855673e+04 8.291901061544e-02 
1.800000000000e+00 -9.117007590945e+04 8.274738227800e-02 
1.850000000000e+00 -9.153193700364e+04 8.256962228044e-02 
1.900000000000e+00 -9.192143889642e+04 8.237949939573e-02 
1.950000000000e+00 -9.234726409821e+04 8.217244531740e-02 
2.000000000000e+00 -9.281526955502e+04 8.206420932298e-02 
 TITLE = "Profiles along polylines"
 VARIABLES = "DIST" "PRESSURE1" "SATURATION1" 
 ZONE T="TIME=7.000000000000e+01"
0.000000000000e+00 2.438749824968e+03 1.000000000000e+00 
5.000000000000e-02 1.944194976699e+03 1.000000000000e+00 
1.000000000000e-01 1.448403534770e+03 1.000000000000e+00 
1.500000000000e-01 9.514804646251e+02 1.000000000000e+00 
2.000000000000e-01 4.535230268029e+02 1.000000000000e+00 
2.500000000000e-01 -4.537888499198e+01 9.948556930356e-01 
3.000000000000e-01 -5.364563901010e+02 9.776245727342e-01 
3.500000000000e-01 -1.027973252079e+03 9.571472585758e-01 
4.000000000000e-01 -1.520171304025e+03 9.452947313156e-01 
4.500000000000e-01 -2.013154132932e+03 9.374679601338e-01 
5.000000000000e-01 -2.507176493200e+03 9.275731405800e-01 
5.500000000000e-01 -3.002478461382e+03 9.155662760246e-01 
6.000000000000e-01 -3.499705183610e+03 8.998758774958e-01 
6.500000000000e-01 -3.999335295755e+03 8.813900256757e-01 
7.000000000000e-01 -4.503666788487e+03 8.626606520934e-01 
7.500000000000e-01 -5.021080172821e+03 8.340762338293e-01 
8.000000000000e-01 -5.552180210284e+03 7.877587962347e-01 
8.500000000000e-01 -6.090392357134e+03 7.329876452247e-01 
9.000000000000e-01 -6.637385790105e+03 6.773293233558e-01 
9.500000000000e-01 -7.196030022695e+03 6.204910514993e-01 
1.000000000000e+00 -7.771611140459e+03 5.619140432524e-01 
1.050000000000e+00 -8.375422027396e+03 5.002824926843e-01 
1.100000000000e+00 -9.040460197496e+03 4.281942311063e-01 
1.150000000000e+00 -1.012980973359e+04 3.568352028443e-01 
1.200000000000e+00 -1.324122246712e+04 3.034575222176e-01 
1.250000000000e+00 -1.653090571717e+04 2.562151161834e-01 
1.300000000000e+00 -2.059897495909e+04 1.945490907212e-01 
1.350000000000e+00 -3.021955475170e+04 1.398481460541e-01 
1.400000000000e+00 -4.742115918439e+04 1.114622351382e-01 
1.450000000000e+00 -6.685181157171e+04 9.700186812759e-02 
1.500000000000e+00 -7.749602477884e+04 9.069885848112e-02 
1.550000000000e+00 -8.355085571448e+04 8.718819443351e-02 
1.600000000000e+00 -8.690133483665e+04 8.521847626333e-02 
1.650000000000e+00 -8.875581507861e+04 8.412338206788e-02 
1.700000000000e+00 -8.984323571741e+04 8.349292807937e-02 
1.750000000000e+00 -9.055875657739e+04 8.309384762764e-02 
1.800000000000e+00 -9.110309871977e+04 8.280371340659e-02 
1.850000000000e+00 -9.157646123199e+04 8.256077957919e-02 
1.900000000000e+00 -9.202963428600e+04 8.233395514461e-02 
1.950000000000e+00 -9.248892291492e+04 8.210735425481e-02 
2.000000000000e+00 -9.296751818949e+04 8.199276047096e-02 
 TITLE = "Profiles along polylines"
 VARIABLES = "DIST" "PRESSURE1" "SATURATION1" 
 ZONE T="TIME=8.000000000000e+01"
0.000000000000e+00 1.689928076861e+03 1.000000000000e+00 
5.000000000000e-02 1.199231916008e+03 1.000000000000e+00 
1.000000000000e-01 7.081454550864e+02 1.000000000000e+00 
1.500000000000e-01 2.166711591245e+02 9.991943585420e-01 
2.000000000000e-01 -2.752860987717e+02 9.894084822132e-01 
2.500000000000e-01 -7.687358047341e+02 9.679230000820e-01 
3.000000000000e-01 -1.259502638463e+03 9.504626251939e-01 
3.500000000000e-01 -1.750404254191e+03 9.419016557944e-01 
4.000000000000e-01 -2.241516542597e+03 9.331553961085e-01 
4.500000000000e-01 -2.732867378460e+03 9.223950900795e-01 
5.000000000000e-01 -3.224599959264e+03 9.088538549302e-01 
5.500000000000e-01 -3.716832100608e+03 8.918211425939e-01 
6.000000000000e-01 -4.209871518576e+03 8.735774771047e-01 
6.500000000000e-01 -4.704691195165e+03 8.539348449166e-01 
7.000000000000e-01 -5.204072096150e+03 8.203442677521e-01 
7.500000000000e-01 -5.706663662925e+03 7.716005444157e-01 
8.000000000000e-01 -6.212032854615e+03 7.201210523153e-01 
8.500000000000e-01 -6.720825051027e+03 6.682969856895e-01 
9.000000000000e-01 -7.234074640006e+03 6.160236849931e-01 
9.500000000000e-01 -7.753547959233e+03 5.631188036734e-01 
1.000000000000e+00 -8.282610138075e+03 5.092188275266e-01 
1.050000000000e+00 -8.829029559096e+03 4.533524069503e-01 
1.100000000000e+00 -9.419944453466e+03 3.917245857308e-01 
1.150000000000e+00 -1.038424361693e+04 3.437336951133e-01 
1.200000000000e+00 -1.208892394228e+04 3.164590919941e-01 
1.250000000000e+00 -1.393072066759e+04 2.907961174546e-01 
1.300000000000e+00 -1.594723555332e+04 2.626390291870e-01 
1.350000000000e+00 -1.822968647360e+04 2.309415847522e-01 
1.400000000000e+00 -2.087568358504e+04 1.916709651145e-01 
1.450000000000e+00 -2.513090197202e+04 1.507252241427e-01 
1.500000000000e+00 -3.564313093927e+04 1.250660216336e-01 
1.550000000000e+00 -4.485778437722e+04 1.113056906405e-01 
1.600000000000e+00 -5.718931242034e+04 1.012352614646e-01 