 TITLE = "Profiles along polylines"
 VARIABLES = "DIST" "PRESSURE1" "SATURATION1" 
 ZONE T="TIME=0.000000000000e+00"
0.000000000000e+00 -9.000000000000e+04 3.601056880734e-01 
5.000000000000e-02 -9.000000000000e+04 3.601056880734e-01 
1.000000000000e-01 -9.000000000000e+04 3.601056880734e-01 
1.500000000000e-01 -9.000000000000e+04 3.601056880734e-01 
2.000000000000e-01 -9.000000000000e+04 3.601056880734e-01 
2.500000000000e-01 -9.000000000000e+04 2.217008899083e-01 
3.000000000000e-01 -9.000000000000e+04 8.329609174312e-02 
3.500000000000e-01 -9.000000000000e+04 8.329609174312e-02 
4.000000000000e-01 -9.000000000000e+04 8.329609174312e-02 
4.500000000000e-01 -9.000000000000e+04 8.329609174312e-02 
5.000000000000e-01 -9.000000000000e+04 8.329609174312e-02 
5.500000000000e-01 -9.000000000000e+04 8.329609174312e-02 
6.000000000000e-01 -9.000000000000e+04 8.329609174312e-02 
6.500000000000e-01 -9.000000000000e+04 8.329609174312e-02 
7.000000000000e-01 -9.000000000000e+04 8.329609174312e-02 
7.500000000000e-01 -9.000000000000e+04 8.329609174312e-02 
8.000000000000e-01 -9.000000000000e+04 8.329609174312e-02 
8.500000000000e-01 -9.000000000000e+04 8.329609174312e-02 
9.000000000000e-01 -9.000000000000e+04 8.329609174312e-02 
9.500000000000e-01 -9.000000000000e+04 8.329609174312e-02 
1.000000000000e+00 -9.000000000000e+04 8.329609174312e-02 
1.050000000000e+00 -9.000000000000e+04 8.329609174312e-02 
1.100000000000e+00 -9.000000000000e+04 8.329609174312e-02 
1.150000000000e+00 -9.000000000000e+04 8.329609174312e-02 
1.200000000000e+00 -9.000000000000e+04 8.329609174312e-02 
1.250000000000e+00 -9.000000000000e+04 8.329609174312e-02 
1.300000000000e+00 -9.000000000000e+04 8.329609174312e-02 
1.350000000000e+00 -9.000000000000e+04 8.329609174312e-02 
1.400000000000e+00 -9.000000000000e+04 8.329609174312e-02 
1.450000000000e+00 -9.000000000000e+04 8.329609174312e-02 
1.500000000000e+00 -9.000000000000e+04 8.329609174312e-02 
1.550000000000e+00 -9.000000000000e+04 8.329609174312e-02 
1.600000000000e+00 -9.000000000000e+04 8.329609174312e-02 
1.650000000000e+00 -9.000000000000e+04 8.329609174312e-02 
1.700000000000e+00 -9.000000000000e+04 8.329609174312e-02 
1.750000000000e+00 -9.000000000000e+04 8.329609174312e-02 
1.800000000000e+00 -9.000000000000e+04 8.329609174312e-02 
1.850000000000e+00 -9.000000000000e+04 8.329609174312e-02 
1.900000000000e+00 -9.000000000000e+04 8.329609174312e-02 
1.950000000000e+00 -9.000000000000e+04 8.329609174312e-02 
2.000000000000e+00 -9.000000000000e+04 8.329609174312e-02 
 TITLE = "Profiles along polylines"
 VARIABLES = "DIST" "PRESSURE1" "SATURATION1" 
 ZONE T="TIME=5.000000000000e-01"
0.000000000000e+00 -8.359928385493e+04 3.772617362862e-01 
5.000000000000e-02 -8.762278573823e+04 3.718413288508e-01 
1.000000000000e-01 -8.916708733626e+04 3.643489685935e-01 
1.500000000000e-01 -8.974476429578e+04 3.614728585134e-01 
2.000000000000e-01 -9.001235097979e+04 3.602078808550e-01 
2.500000000000e-01 -9.029259033272e+04 2.214696389727e-01 
3.000000000000e-01 -9.004805722842e+04 8.323562147531e-02 
3.500000000000e-01 -9.000792496376e+04 8.328615135846e-02 
4.000000000000e-01 -9.000130773548e+04 8.329445228222e-02 
4.500000000000e-01 -9.000021581883e+04 8.329582120189e-02 
5.000000000000e-01 -9.000003561775e+04 8.329604709486e-02 
5.500000000000e-01 -9.000000587821e+04 8.329608437457e-02 
6.000000000000e-01 -9.000000097012e+04 8.329609052704e-02 
6.500000000000e-01 -9.000000016010e+04 8.329609154242e-02 
7.000000000000e-01 -9.000000002642e+04 8.329609171000e-02 
7.500000000000e-01 -9.000000000436e+04 8.329609173765e-02 
8.000000000000e-01 -9.000000000072e+04 8.329609174222e-02 
8.500000000000e-01 -9.000000000012e+04 8.329609174297e-02 
9.000000000000e-01 -9.000000000002e+04 8.329609174309e-02 
9.500000000000e-01 -9.000000000000e+04 8.329609174312e-02 
1.000000000000e+00 -9.000000000000e+04 8.329609174312e-02 
1.050000000000e+00 -9.000000000000e+04 8.329609174312e-02 
1.100000000000e+00 -9.000000000000e+04 8.329609174312e-02 
1.150000000000e+00 -9.000000000000e+04 8.329609174312e-02 
1.200000000000e+00 -9.000000000000e+04 8.329609174312e-02 
1.250000000000e+00 -9.000000000000e+04 8.329609174312e-02 
1.300000000000e+00 -9.000000000000e+04 8.329609174312e-02 
1.350000000000e+00 -9.000000000001e+04 8.329609174311e-02 
1.400000000000e+00 -9.000000000009e+04 8.329609174305e-02 
1.450000000000e+00 -9.000000000052e+04 8.329609174272e-02 
1.500000000000e+00 -9.000000000310e+04 8.329609174076e-02 
1.550000000000e+00 -9.000000001839e+04 8.329609172914e-02 
1.600000000000e+00 -9.000000010911e+04 8.329609166016e-02 
1.650000000000e+00 -9.000000064734e+04 8.329609125092e-02 
1.700000000000e+00 -9.000000384080e+04 8.329608882284e-02 
1.750000000000e+00 -9.000002278815e+04 8.329607441654e-02 
1.800000000000e+00 -9.000013520640e+04 8.329598894058e-02 
1.850000000000e+00 -9.000080221356e+04 8.329548176565e-02 
1.900000000000e+00 -9.000476003200e+04 8.329247151613e-02 
1.950000000000e+00 -9.002825470979e+04 8.327457251052e-02 
2.000000000000e+00 -9.016808676343e+04 8.325924972704e-02 
 TITLE = "Profiles along polylines"
 VARIABLES = "DIST" "PRESSURE1" "SATURATION1" 
 ZONE T="TIME=1.000000000000e+00"
0.000000000000e+00 -8.530873683628e+04 3.738946796179e-01 
5.000000000000e-02 -8.718285036682e+04 3.709612447434e-01 
1.000000000000e-01 -8.862527917132e+04 3.659265731985e-01 
1.500000000000e-01 -8.945851891739e+04 3.626044641372e-01 
2.000000000000e-01 -8.995234933765e+04 3.605880166653e-01 
2.500000000000e-01 -9.037244310496e+04 2.214753449640e-01 
3.000000000000e-01 -9.009543428874e+04 8.320976129105e-02 
3.500000000000e-01 -9.002138578697e+04 8.327480896406e-02 
4.000000000000e-01 -9.000446208370e+04 8.329141273632e-02 
4.500000000000e-01 -9.000089046817e+04 8.329512655417e-02 
5.000000000000e-01 -9.000017239181e+04 8.329590057802e-02 
5.500000000000e-01 -9.000003264840e+04 8.329605493249e-02 
6.000000000000e-01 -9.000000608092e+04 8.329608479966e-02 
6.500000000000e-01 -9.000000111790e+04 8.329609045388e-02 
7.000000000000e-01 -9.000000020336e+04 8.329609150670e-02 
7.500000000000e-01 -9.000000003668e+04 8.329609170020e-02 
8.000000000000e-01 -9.000000000657e+04 8.329609173539e-02 
8.500000000000e-01 -9.000000000117e+04 8.329609174174e-02 
9.000000000000e-01 -9.000000000021e+04 8.329609174287e-02 
9.500000000000e-01 -9.000000000004e+04 8.329609174308e-02 
1.000000000000e+00 -9.000000000001e+04 8.329609174311e-02 
1.050000000000e+00 -9.000000000000e+04 8.329609174312e-02 
1.100000000000e+00 -9.000000000000e+04 8.329609174312e-02 
1.150000000000e+00 -9.000000000000e+04 8.329609174312e-02 
1.200000000000e+00 -9.000000000000e+04 8.329609174312e-02 
1.250000000000e+00 -9.000000000001e+04 8.329609174312e-02 
1.300000000000e+00 -9.000000000003e+04 8.329609174310e-02 
1.350000000000e+00 -9.000000000016e+04 8.329609174300e-02 
1.400000000000e+00 -9.000000000091e+04 8.329609174246e-02 
1.450000000000e+00 -9.000000000502e+04 8.329609173948e-02 
1.500000000000e+00 -9.000000002755e+04 8.329609172318e-02 
1.550000000000e+00 -9.000000015035e+04 8.329609163483e-02 
1.600000000000e+00 -9.000000081417e+04 8.329609115984e-02 
1.650000000000e+00 -9.000000436833e+04 8.329608863391e-02 
1.700000000000e+00 -9.000002317536e+04 8.329607538099e-02 
1.750000000000e+00 -9.000012123074e+04 8.329600703607e-02 
1.800000000000e+00 -9.000062273880e+04 8.329566255794e-02 
1.850000000000e+00 -9.000312211679e+04 8.329398054690e-02 
1.900000000000e+00 -9.001512870763e+04 8.328614308023e-02 
1.950000000000e+00 -9.006966765870e+04 8.325227681030e-02 
2.000000000000e+00 -9.029494852109e+04 8.322485325659e-02 
 TITLE = "Profiles along polylines"
 VARIABLES = "DIST" "PRESSURE1" "SATURATION1" 
 ZONE T="TIME=5.000000000000e+00"
0.000000000000e+00 -3.424189176192e+04 5.809014133897e-01 
5.000000000000e-02 -3.723971978374e+04 5.691419394103e-01 
1.000000000000e-01 -4.313435925143e+04 5.379776053595e-01 
1.500000000000e-01 -5.105601363923e+04 5.017249344760e-01 
2.000000000000e-01 -5.749766038895e+04 4.759686988227e-01 
2.500000000000e-01 -6.037765110550e+04 2.812791653612e-01 
3.000000000000e-01 -7.485911698491e+04 9.245041155490e-02 
3.500000000000e-01 -8.305427530355e+04 8.772600681523e-02 
4.000000000000e-01 -8.710767134324e+04 8.524000385666e-02 
4.500000000000e-01 -8.886749348669e+04 8.408445143046e-02 
5.000000000000e-01 -8.957018513974e+04 8.360081546246e-02 
5.500000000000e-01 -8.983914604050e+04 8.341108398850e-02 
6.000000000000e-01 -8.994016086674e+04 8.333902273755e-02 
6.500000000000e-01 -8.997779373117e+04 8.331204679844e-02 
7.000000000000e-01 -8.999176675651e+04 8.330201052550e-02 
7.500000000000e-01 -8.999694814286e+04 8.329828601017e-02 
8.000000000000e-01 -8.999886869060e+04 8.329690512601e-02 
8.500000000000e-01 -8.999958055804e+04 8.329639328246e-02 
9.000000000000e-01 -8.999984445832e+04 8.329620355026e-02 
9.500000000000e-01 -8.999994231230e+04 8.329613320645e-02 
1.000000000000e+00 -8.999997860922e+04 8.329610711818e-02 
1.050000000000e+00 -8.999999208898e+04 8.329609743380e-02 
1.100000000000e+00 -8.999999713162e+04 8.329609381941e-02 
1.150000000000e+00 -8.999999911224e+04 8.329609242100e-02 
1.200000000000e+00 -9.000000013498e+04 8.329609175142e-02 
1.250000000000e+00 -9.000000126933e+04 8.329609110795e-02 
1.300000000000e+00 -9.000000366632e+04 8.329608983592e-02 
1.350000000000e+00 -9.000000971571e+04 8.329608666881e-02 
1.400000000000e+00 -9.000002538817e+04 8.329607849023e-02 
1.450000000000e+00 -9.000006598847e+04 8.329605734735e-02 
1.500000000000e+00 -9.000017062505e+04 8.329600298857e-02 
1.550000000000e+00 -9.000043827830e+04 8.329586437343e-02 
1.600000000000e+00 -9.000111609574e+04 8.329551474793e-02 
1.650000000000e+00 -9.000281010874e+04 8.329464549389e-02 
1.700000000000e+00 -9.000697072228e+04 8.329252480512e-02 
1.750000000000e+00 -9.001695712822e+04 8.328747815191e-02 
1.800000000000e+00 -9.004020746633e+04 8.327585578703e-02 
1.850000000000e+00 -9.009218808888e+04 8.325022411728e-02 
1.900000000000e+00 -9.020225695468e+04 8.319685270115e-02 
1.950000000000e+00 -9.041881443180e+04 8.309391258940e-02 
2.000000000000e+00 -9.080409064254e+04 8.302678949752e-02 
 TITLE = "Profiles along polylines"
 VARIABLES = "DIST" "PRESSURE1" "SATURATION1" 
 ZONE T="TIME=1.000000000000e+01"
0.000000000000e+00 -4.347527579367e+04 5.302118690785e-01 
5.000000000000e-02 -4.439967882783e+04 5.267185060300e-01 
1.000000000000e-01 -4.608309869476e+04 5.177325917661e-01 
1.500000000000e-01 -4.826991358670e+04 5.060741304051e-01 
2.000000000000e-01 -5.036854513663e+04 4.964724760541e-01 
2.500000000000e-01 -5.165346352933e+04 2.966489060207e-01 
3.000000000000e-01 -6.327116348952e+04 9.761505870169e-02 
3.500000000000e-01 -7.229709942085e+04 9.294805222013e-02 
4.000000000000e-01 -7.888587229827e+04 8.947909095359e-02 
4.500000000000e-01 -8.336262341993e+04 8.706417271543e-02 
5.000000000000e-01 -8.619845830004e+04 8.549333234694e-02 
5.500000000000e-01 -8.788975568552e+04 8.453297244413e-02 
6.000000000000e-01 -8.885327983218e+04 8.397482594116e-02 
6.500000000000e-01 -8.938525454779e+04 8.366226327540e-02 
7.000000000000e-01 -8.967316919580e+04 8.349153097029e-02 
7.500000000000e-01 -8.982711130786e+04 8.339972230499e-02 
8.000000000000e-01 -8.990882307138e+04 8.335082275241e-02 
8.500000000000e-01 -8.995200615530e+04 8.332492675047e-02 
9.000000000000e-01 -8.997476762836e+04 8.331126007830e-02 
9.500000000000e-01 -8.998674648942e+04 8.330406220422e-02 
1.000000000000e+00 -8.999304627508e+04 8.330027526446e-02 
1.050000000000e+00 -8.999636105655e+04 8.329828266910e-02 
1.100000000000e+00 -8.999811164805e+04 8.329723127762e-02 
1.150000000000e+00 -8.999904928944e+04 8.329667018737e-02 
1.200000000000e+00 -8.999957621552e+04 8.329635872948e-02 
1.250000000000e+00 -8.999991757176e+04 8.329616371429e-02 
1.300000000000e+00 -9.000021735279e+04 8.329600266136e-02 
1.350000000000e+00 -9.000059891801e+04 8.329580904968e-02 
1.400000000000e+00 -9.000121525005e+04 8.329550510737e-02 
1.450000000000e+00 -9.000230890790e+04 8.329497128657e-02 
1.500000000000e+00 -9.000430382359e+04 8.329400113588e-02 
1.550000000000e+00 -9.000796021999e+04 8.329222630931e-02 
1.600000000000e+00 -9.001464058382e+04 8.328898889754e-02 
1.650000000000e+00 -9.002675849853e+04 8.328312758529e-02 
1.700000000000e+00 -9.004850745344e+04 8.327263354331e-02 
1.750000000000e+00 -9.008697225104e+04 8.325413213398e-02 
1.800000000000e+00 -9.015365641564e+04 8.322218351493e-02 
1.850000000000e+00 -9.026620446943e+04 8.316851829308e-02 
1.900000000000e+00 -9.044949949355e+04 8.308159546219e-02 
1.950000000000e+00 -9.073431569254e+04 8.294728236661e-02 
2.000000000000e+00 -9.115087519251e+04 8.286639653571e-02 
 TITLE = "Profiles along polylines"
 VARIABLES = "DIST" "PRESSURE1" "SATURATION1" 
 ZONE T="TIME=2.000000000000e+01"
0.000000000000e+00 -2.733549405792e+04 6.226278857293e-01 
5.000000000000e-02 -2.995718016082e+04 6.151726769041e-01 
1.000000000000e-01 -3.225195431986e+04 6.012604920381e-01 
1.500000000000e-01 -3.419121446468e+04 5.894640241846e-01 
2.000000000000e-01 -3.571158664620e+04 5.801033253219e-01 
2.500000000000e-01 -3.673678436720e+04 3.468224076245e-01 
3.000000000000e-01 -4.356046600422e+04 1.123554070032e-01 
3.500000000000e-01 -5.291108151185e+04 1.035824826361e-01 
4.000000000000e-01 -6.224481357057e+04 9.788870901709e-02 
4.500000000000e-01 -6.952446082130e+04 9.410044923546e-02 
5.000000000000e-01 -7.520600978362e+04 9.115176298018e-02 
5.500000000000e-01 -7.955361222358e+04 8.888469387977e-02 
6.000000000000e-01 -8.278870607802e+04 8.718402528492e-02 
6.500000000000e-01 -8.512344075764e+04 8.594469685265e-02 
7.000000000000e-01 -8.675942922438e+04 8.506755294161e-02 
7.500000000000e-01 -8.787647839153e+04 8.446308553142e-02 
8.000000000000e-01 -8.862325862218e+04 8.405581184162e-02 
8.500000000000e-01 -8.911446078037e+04 8.378626501837e-02 
9.000000000000e-01 -8.943371484384e+04 8.361026092664e-02 
9.500000000000e-01 -8.963945952256e+04 8.349645389746e-02 
1.000000000000e+00 -8.977129746914e+04 8.342335849373e-02 
1.050000000000e+00 -8.985550221453e+04 8.337660393227e-02 
1.100000000000e+00 -8.990926210745e+04 8.334673610083e-02 
1.150000000000e+00 -8.994373329885e+04 8.332759736095e-02 
1.200000000000e+00 -8.996614699102e+04 8.331519065782e-02 
1.250000000000e+00 -8.998123094130e+04 8.330690598468e-02 
1.300000000000e+00 -8.999216170300e+04 8.330099992314e-02 
1.350000000000e+00 -9.000121054508e+04 8.329624302499e-02 
1.400000000000e+00 -9.001020047060e+04 8.329167252874e-02 
1.450000000000e+00 -9.002085829980e+04 8.328640547221e-02 
1.500000000000e+00 -9.003512298811e+04 8.327947962403e-02 
1.550000000000e+00 -9.005545593283e+04 8.326969818819e-02 
1.600000000000e+00 -9.008518683914e+04 8.325546092770e-02 
1.650000000000e+00 -9.012891451636e+04 8.323457175329e-02 
1.700000000000e+00 -9.019295871130e+04 8.320402427948e-02 
1.750000000000e+00 -9.028581760034e+04 8.315978655189e-02 
1.800000000000e+00 -9.041851633608e+04 8.309663815641e-02 
1.850000000000e+00 -9.060463245235e+04 8.300815757693e-02 
1.900000000000e+00 -9.085967669496e+04 8.288700303273e-02 
1.950000000000e+00 -9.119947564049e+04 8.272563716851e-02 
2.000000000000e+00 -9.163742647074e+04 8.263397766788e-02 
 TITLE = "Profiles along polylines"
 VARIABLES = "DIST" "PRESSURE1" "SATURATION1" 
 ZONE T="TIME=3.000000000000e+01"
0.000000000000e+00 -2.340246912118e+04 6.498336029882e-01 
5.000000000000e-02 -2.488878592651e+04 6.446769671588e-01 
1.000000000000e-01 -2.631041127390e+04 6.354612970954e-01 
1.500000000000e-01 -2.757135066594e+04 6.278528176299e-01 
2.000000000000e-01 -2.863840390201e+04 6.213553639268e-01 
2.500000000000e-01 -2.948510183979e+04 3.734288878399e-01 
3.000000000000e-01 -3.483313077462e+04 1.246347885585e-01 
3.500000000000e-01 -4.041959471707e+04 1.167059432040e-01 
4.000000000000e-01 -4.679906639932e+04 1.079283416278e-01 
4.500000000000e-01 -5.601080713619e+04 1.010286359959e-01 
5.000000000000e-01 -6.350424202381e+04 9.706412859023e-02 
5.500000000000e-01 -6.960033344425e+04 9.392865436764e-02 
6.000000000000e-01 -7.455412567862e+04 9.138432354137e-02 
6.500000000000e-01 -7.852204936315e+04 8.934022628652e-02 
7.000000000000e-01 -8.163313240673e+04 8.772867183599e-02 
7.500000000000e-01 -8.401274229475e+04 8.648729793372e-02 
8.000000000000e-01 -8.578706593371e+04 8.555444688302e-02 
8.500000000000e-01 -8.707856254798e+04 8.487013562733e-02 
9.000000000000e-01 -8.799881769453e+04 8.437901438481e-02 
9.500000000000e-01 -8.864300258731e+04 8.403308559058e-02 
1.000000000000e+00 -8.908763767977e+04 8.379310114454e-02 
1.050000000000e+00 -8.939134747344e+04 8.362853478682e-02 
1.100000000000e+00 -8.959740573662e+04 8.351657214854e-02 
1.150000000000e+00 -8.973690392931e+04 8.344066441509e-02 
1.200000000000e+00 -8.983178979871e+04 8.338905057087e-02 
1.250000000000e+00 -8.989743211605e+04 8.335346268655e-02 
1.300000000000e+00 -8.994463492313e+04 8.332808493412e-02 
1.350000000000e+00 -8.998115741689e+04 8.330875669864e-02 
1.400000000000e+00 -9.001284177868e+04 8.329237687003e-02 
1.450000000000e+00 -9.004445302552e+04 8.327645976166e-02 
1.500000000000e+00 -9.008031821386e+04 8.325879878083e-02 
1.550000000000e+00 -9.012482978721e+04 8.323720420080e-02 
1.600000000000e+00 -9.018285431278e+04 8.320929282184e-02 
1.650000000000e+00 -9.026006411130e+04 8.317231902347e-02 
1.700000000000e+00 -9.036318477229e+04 8.312304871432e-02 
1.750000000000e+00 -9.050012620091e+04 8.305768989779e-02 
1.800000000000e+00 -9.067994101835e+04 8.297190483977e-02 
1.850000000000e+00 -9.091253891276e+04 8.286093586471e-02 
1.900000000000e+00 -9.120809303117e+04 8.271987323479e-02 
1.950000000000e+00 -9.157612601250e+04 8.254407015819e-02 
2.000000000000e+00 -9.202437916156e+04 8.244693426041e-02 
 TITLE = "Profiles along polylines"
 VARIABLES = "DIST" "PRESSURE1" "SATURATION1" 
 ZONE T="TIME=4.000000000000e+01"
0.000000000000e+00 -2.613217668934e+04 6.338956795027e-01 
5.000000000000e-02 -2.666724216175e+04 6.322494032989e-01 
1.000000000000e-01 -2.726170187722e+04 6.288063097659e-01 
1.500000000000e-01 -2.788958896859e+04 6.251334216080e-01 
2.000000000000e-01 -2.853075648510e+04 6.213555629707e-01 
2.500000000000e-01 -2.917136622701e+04 3.745752505880e-01 
3.000000000000e-01 -3.280140910911e+04 1.270716441967e-01 
3.500000000000e-01 -3.674338782325e+04 1.215757950802e-01 
4.000000000000e-01 -4.110991347628e+04 1.154187879503e-01 
4.500000000000e-01 -4.640029954704e+04 1.082031473842e-01 
5.000000000000e-01 -5.394895724293e+04 1.020917638389e-01 
5.500000000000e-01 -6.082176492313e+04 9.830638552751e-02 
6.000000000000e-01 -6.662537883213e+04 9.534839525443e-02 
6.500000000000e-01 -7.153390382147e+04 9.285146915892e-02 
7.000000000000e-01 -7.564460712163e+04 9.075709269745e-02 
7.500000000000e-01 -7.903090969221e+04 8.902543247819e-02 
8.000000000000e-01 -8.176367859034e+04 8.762072887555e-02 
8.500000000000e-01 -8.391946616055e+04 8.650572408752e-02 
9.000000000000e-01 -8.558114304685e+04 8.564047517345e-02 
9.500000000000e-01 -8.683399268749e+04 8.498367208000e-02 
1.000000000000e+00 -8.776009191535e+04 8.449506812099e-02 
1.050000000000e+00 -8.843334679978e+04 8.413786835160e-02 
1.100000000000e+00 -8.891650392164e+04 8.388034754814e-02 
1.150000000000e+00 -8.926031781812e+04 8.369648084427e-02 
1.200000000000e+00 -8.950433713355e+04 8.356574975940e-02 
1.250000000000e+00 -8.967857625458e+04 8.347244151428e-02 
1.300000000000e+00 -8.980547112392e+04 8.340474023334e-02 
1.350000000000e+00 -8.990174894744e+04 8.335381389574e-02 
1.400000000000e+00 -8.998003969782e+04 8.331300384455e-02 
1.450000000000e+00 -9.005018401205e+04 8.327715473044e-02 
1.500000000000e+00 -9.012025608296e+04 8.324208437552e-02 
1.550000000000e+00 -9.019734281737e+04 8.320417697615e-02 
1.600000000000e+00 -9.028812041099e+04 8.316008024282e-02 
1.650000000000e+00 -9.039925889651e+04 8.310649082637e-02 
1.700000000000e+00 -9.053767151824e+04 8.304001849391e-02 
1.750000000000e+00 -9.071061353186e+04 8.295712538270e-02 
1.800000000000e+00 -9.092562769746e+04 8.285414039597e-02 
1.850000000000e+00 -9.119033468052e+04 8.272734875165e-02 
1.900000000000e+00 -9.151207905019e+04 8.257315134925e-02 
1.950000000000e+00 -9.189746741816e+04 8.238827721113e-02 
2.000000000000e+00 -9.235187185844e+04 8.228778987429e-02 
 TITLE = "Profiles along polylines"
 VARIABLES = "DIST" "PRESSURE1" "SATURATION1" 
 ZONE T="TIME=5.000000000000e+01"
0.000000000000e+00 -2.556538964084e+04 6.370165408392e-01 
5.000000000000e-02 -2.622302614639e+04 6.350766436157e-01 
1.000000000000e-01 -2.686923128393e+04 6.312293322882e-01 
1.500000000000e-01 -2.750545467028e+04 6.274440763420e-01 
2.000000000000e-01 -2.813174031274e+04 6.237186063781e-01 
2.500000000000e-01 -2.874735160113e+04 3.762335295651e-01 
3.000000000000e-01 -3.173052081305e+04 1.284499021330e-01 
3.500000000000e-01 -3.492261412909e+04 1.239980190966e-01 
4.000000000000e-01 -3.837760584931e+04 1.191670970392e-01 
4.500000000000e-01 -4.224353499248e+04 1.137150123401e-01 
5.000000000000e-01 -4.700155490270e+04 1.072869358124e-01 
5.500000000000e-01 -5.378765116363e+04 1.019472003620e-01 
6.000000000000e-01 -5.993188331567e+04 9.866328159404e-02 
6.500000000000e-01 -6.526621844713e+04 9.596270876347e-02 
7.000000000000e-01 -6.990119601181e+04 9.361953856870e-02 
7.500000000000e-01 -7.389644665997e+04 9.159751181134e-02 
8.000000000000e-01 -7.729408595658e+04 8.987321636233e-02 
8.500000000000e-01 -8.013395580200e+04 8.842624150813e-02 
9.000000000000e-01 -8.246115482102e+04 8.723460802800e-02 
9.500000000000e-01 -8.432868265191e+04 8.627296630418e-02 
1.000000000000e+00 -8.579641565106e+04 8.551269634875e-02 
1.050000000000e+00 -8.692767163411e+04 8.492327606135e-02 
1.100000000000e+00 -8.778488190657e+04 8.447422421523e-02 
1.150000000000e+00 -8.842575603894e+04 8.413696012048e-02 
1.200000000000e+00 -8.890076973302e+04 8.388613433091e-02 
1.250000000000e+00 -8.925214717173e+04 8.370027562197e-02 
1.300000000000e+00 -8.951405002603e+04 8.356183444158e-02 
1.350000000000e+00 -8.971351596637e+04 8.345681676733e-02 
1.400000000000e+00 -8.987172927043e+04 8.337420998042e-02 
1.450000000000e+00 -9.000533194885e+04 8.330535449858e-02 
1.500000000000e+00 -9.012761045089e+04 8.324335553782e-02 
1.550000000000e+00 -9.024948532872e+04 8.318258138889e-02 
1.600000000000e+00 -9.038028604390e+04 8.311826376786e-02 
1.650000000000e+00 -9.052831990247e+04 8.304619939223e-02 
1.700000000000e+00 -9.070125413848e+04 8.296254489231e-02 
1.750000000000e+00 -9.090633231413e+04 8.286369497699e-02 
1.800000000000e+00 -9.115044640345e+04 8.274623322867e-02 
1.850000000000e+00 -9.144008766864e+04 8.260694404512e-02 
1.900000000000e+00 -9.178120426346e+04 8.244287214804e-02 
1.950000000000e+00 -9.217900111879e+04 8.225141274582e-02 
2.000000000000e+00 -9.263772577953e+04 8.214853562435e-02 
 TITLE = "Profiles along polylines"
 VARIABLES = "DIST" "PRESSURE1" "SATURATION1" 
 ZONE T="TIME=6.000000000000e+01"
0.000000000000e+00 4.945931907559e+08 1.000000000000e+00 
5.000000000000e-02 4.945926523359e+08 1.000000000000e+00 
1.000000000000e-01 4.945921151290e+08 1.000000000000e+00 
1.500000000000e-01 4.945915791353e+08 1.000000000000e+00 
2.000000000000e-01 4.945910443545e+08 1.000000000000e+00 
2.500000000000e-01 4.945905107869e+08 1.000000000000e+00 
3.000000000000e-01 4.945900181405e+08 1.000000000000e+00 
3.500000000000e-01 4.945895255563e+08 1.000000000000e+00 
4.000000000000e-01 4.945890330343e+08 1.000000000000e+00 
4.500000000000e-01 4.945885405746e+08 1.000000000000e+00 
5.000000000000e-01 4.945880481770e+08 1.000000000000e+00 
5.500000000000e-01 4.945875558417e+08 1.000000000000e+00 
6.000000000000e-01 4.945870635685e+08 1.000000000000e+00 
6.500000000000e-01 4.945865713576e+08 1.000000000000e+00 
7.000000000000e-01 4.945860792089e+08 1.000000000000e+00 
7.500000000000e-01 4.945855871224e+08 1.000000000000e+00 
8.000000000000e-01 4.945850950982e+08 1.000000000000e+00 
8.500000000000e-01 4.945846031361e+08 1.000000000000e+00 
9.000000000000e-01 4.945841112362e+08 1.000000000000e+00 
9.500000000000e-01 4.945836193986e+08 1.000000000000e+00 
1.000000000000e+00 4.945831276232e+08 1.000000000000e+00 
1.050000000000e+00 4.945826359100e+08 1.000000000000e+00 
1.100000000000e+00 4.945821442590e+08 1.000000000000e+00 
1.150000000000e+00 4.945816526702e+08 1.000000000000e+00 
1.200000000000e+00 4.945811611437e+08 1.000000000000e+00 
1.250000000000e+00 4.945806696793e+08 1.000000000000e+00 
1.300000000000e+00 4.945801782772e+08 1.000000000000e+00 
1.350000000000e+00 4.945796869373e+08 1.000000000000e+00 
1.400000000000e+00 4.945791956596e+08 1.000000000000e+00 
1.450000000000e+00 4.945787044441e+08 1.000000000000e+00 
1.500000000000e+00 4.945782132909e+08 1.000000000000e+00 
1.550000000000e+00 4.945777221998e+08 1.000000000000e+00 
1.600000000000e+00 4.945772311710e+08 1.000000000000e+00 
1.650000000000e+00 4.945767402044e+08 1.000000000000e+00 
1.700000000000e+00 4.945762493000e+08 1.000000000000e+00 
1.750000000000e+00 4.945757584578e+08 1.000000000000e+00 
1.800000000000e+00 4.945752676778e+08 1.000000000000e+00 
1.850000000000e+00 4.945747769601e+08 1.000000000000e+00 
1.900000000000e+00 4.945742863045e+08 1.000000000000e+00 
1.950000000000e+00 4.945737957112e+08 1.000000000000e+00 
2.000000000000e+00 4.945733051801e+08 1.000000000000e+00 
 TITLE = "Profiles along polylines"
 VARIABLES = "DIST" "PRESSURE1" "SATURATION1" 
 ZONE T="TIME=7.000000000000e+01"
0.000000000000e+00 5.290478591723e+08 1.000000000000e+00 
5.000000000000e-02 5.290473653345e+08 1.000000000000e+00 
1.000000000000e-01 5.290468715812e+08 1.000000000000e+00 
1.500000000000e-01 5.290463779124e+08 1.000000000000e+00 
2.000000000000e-01 5.290458843282e+08 1.000000000000e+00 
2.500000000000e-01 5.290453908284e+08 1.000000000000e+00 
3.000000000000e-01 5.290449001789e+08 1.000000000000e+00 
3.500000000000e-01 5.290444095337e+08 1.000000000000e+00 
4.000000000000e-01 5.290439188929e+08 1.000000000000e+00 
4.500000000000e-01 5.290434282564e+08 1.000000000000e+00 
5.000000000000e-01 5.290429376242e+08 1.000000000000e+00 
5.500000000000e-01 5.290424469964e+08 1.000000000000e+00 
6.000000000000e-01 5.290419563729e+08 1.000000000000e+00 
6.500000000000e-01 5.290414657537e+08 1.000000000000e+00 
7.000000000000e-01 5.290409751389e+08 1.000000000000e+00 
7.500000000000e-01 5.290404845284e+08 1.000000000000e+00 
8.000000000000e-01 5.290399939222e+08 1.000000000000e+00 
8.500000000000e-01 5.290395033204e+08 1.000000000000e+00 
9.000000000000e-01 5.290390127229e+08 1.000000000000e+00 
9.500000000000e-01 5.290385221297e+08 1.000000000000e+00 
1.000000000000e+00 5.290380315409e+08 1.000000000000e+00 
1.050000000000e+00 5.290375409564e+08 1.000000000000e+00 
1.100000000000e+00 5.290370503762e+08 1.000000000000e+00 
1.150000000000e+00 5.290365598004e+08 1.000000000000e+00 
1.200000000000e+00 5.290360692289e+08 1.000000000000e+00 
1.250000000000e+00 5.290355786617e+08 1.000000000000e+00 
1.300000000000e+00 5.290350880989e+08 1.000000000000e+00 
1.350000000000e+00 5.290345975404e+08 1.000000000000e+00 
1.400000000000e+00 5.290341069862e+08 1.000000000000e+00 
1.450000000000e+00 5.290336164364e+08 1.000000000000e+00 
1.500000000000e+00 5.290331258909e+08 1.000000000000e+00 
1.550000000000e+00 5.290326353497e+08 1.000000000000e+00 
1.600000000000e+00 5.290321448129e+08 1.000000000000e+00 
1.650000000000e+00 5.290316542804e+08 1.000000000000e+00 
1.700000000000e+00 5.290311637522e+08 1.000000000000e+00 
1.750000000000e+00 5.290306732284e+08 1.000000000000e+00 
1.800000000000e+00 5.290301827089e+08 1.000000000000e+00 
1.850000000000e+00 5.290296921937e+08 1.000000000000e+00 
1.900000000000e+00 5.290292016828e+08 1.000000000000e+00 
1.950000000000e+00 5.290287111763e+08 1.000000000000e+00 
2.000000000000e+00 5.290282206742e+08 1.000000000000e+00 
 TITLE = "Profiles along polylines"
 VARIABLES = "DIST" "PRESSURE1" "SATURATION1" 
 ZONE T="TIME=8.000000000000e+01"
0.000000000000e+00 5.290484605418e+08 1.000000000000e+00 
5.000000000000e-02 5.290479700418e+08 1.000000000000e+00 
1.000000000000e-01 5.290474795418e+08 1.000000000000e+00 
1.500000000000e-01 5.290469890419e+08 1.000000000000e+00 
2.000000000000e-01 5.290464985419e+08 1.000000000000e+00 
2.500000000000e-01 5.290460080419e+08 1.000000000000e+00 
3.000000000000e-01 5.290455175419e+08 1.000000000000e+00 
3.500000000000e-01 5.290450270419e+08 1.000000000000e+00 
4.000000000000e-01 5.290445365419e+08 1.000000000000e+00 
4.500000000000e-01 5.290440460419e+08 1.000000000000e+00 
5.000000000000e-01 5.290435555419e+08 1.000000000000e+00 
5.500000000000e-01 5.290430650419e+08 1.000000000000e+00 
6.000000000000e-01 5.290425745419e+08 1.000000000000e+00 
6.500000000000e-01 5.290420840419e+08 1.000000000000e+00 
7.000000000000e-01 5.290415935419e+08 1.000000000000e+00 
7.500000000000e-01 5.290411030419e+08 1.000000000000e+00 
8.000000000000e-01 5.290406125419e+08 1.000000000000e+00 
8.500000000000e-01 5.290401220419e+08 1.000000000000e+00 
9.000000000000e-01 5.290396315419e+08 1.000000000000e+00 
9.500000000000e-01 5.290391410419e+08 1.000000000000e+00 
1.000000000000e+00 5.290386505419e+08 1.000000000000e+00 
1.050000000000e+00 5.290381600419e+08 1.000000000000e+00 
1.100000000000e+00 5.290376695419e+08 1.000000000000e+00 
1.150000000000e+00 5.290371790419e+08 1.000000000000e+00 
1.200000000000e+00 5.290366885419e+08 1.000000000000e+00 
1.250000000000e+00 5.290361980419e+08 1.000000000000e+00 
1.300000000000e+00 5.290357075419e+08 1.000000000000e+00 
1.350000000000e+00 5.290352170419e+08 1.000000000000e+00 
1.400000000000e+00 5.290347265419e+08 1.000000000000e+00 
1.450000000000e+00 5.290342360419e+08 1.000000000000e+00 
1.500000000000e+00 5.290337455419e+08 1.000000000000e+00 
1.550000000000e+00 5.290332550419e+08 1.000000000000e+00 
1.600000000000e+00 5.290327645419e+08 1.000000000000e+00 
1.650000000000e+00 5.290322740419e+08 1.000000000000e+00 
1.700000000000e+00 5.290317835419e+08 1.000000000000e+00 