 TITLE = "Profiles along polylines"
 VARIABLES = "DIST" "PRESSURE1" "SATURATION1" 
 ZONE T="TIME=0.000000000000e+00"
0.000000000000e+00 -9.000000000000e+04 3.601056880734e-01 
5.000000000000e-02 -9.000000000000e+04 3.601056880734e-01 
1.000000000000e-01 -9.000000000000e+04 3.601056880734e-01 
1.500000000000e-01 -9.000000000000e+04 3.601056880734e-01 
2.000000000000e-01 -9.000000000000e+04 3.601056880734e-01 
2.500000000000e-01 -9.000000000000e+04 3.039060458716e-01 
3.000000000000e-01 -9.000000000000e+04 2.477064036697e-01 
3.500000000000e-01 -9.000000000000e+04 1.655012477064e-01 
4.000000000000e-01 -9.000000000000e+04 8.329609174312e-02 
4.500000000000e-01 -9.000000000000e+04 8.329609174312e-02 
5.000000000000e-01 -9.000000000000e+04 8.329609174312e-02 
5.500000000000e-01 -9.000000000000e+04 8.329609174312e-02 
6.000000000000e-01 -9.000000000000e+04 8.329609174312e-02 
6.500000000000e-01 -9.000000000000e+04 8.329609174312e-02 
7.000000000000e-01 -9.000000000000e+04 8.329609174312e-02 
7.500000000000e-01 -9.000000000000e+04 8.329609174312e-02 
8.000000000000e-01 -9.000000000000e+04 8.329609174312e-02 
8.500000000000e-01 -9.000000000000e+04 8.329609174312e-02 
9.000000000000e-01 -9.000000000000e+04 8.329609174312e-02 
9.500000000000e-01 -9.000000000000e+04 8.329609174312e-02 
1.000000000000e+00 -9.000000000000e+04 8.981318348624e-02 
1.050000000000e+00 -9.000000000000e+04 9.633027522936e-02 
1.100000000000e+00 -9.000000000000e+04 9.633027522936e-02 
1.150000000000e+00 -9.000000000000e+04 9.633027522936e-02 
1.200000000000e+00 -9.000000000000e+04 9.633027522936e-02 
1.250000000000e+00 -9.000000000000e+04 9.633027522936e-02 
1.300000000000e+00 -9.000000000000e+04 9.633027522936e-02 
1.350000000000e+00 -9.000000000000e+04 9.633027522936e-02 
1.400000000000e+00 -9.000000000000e+04 9.633027522936e-02 
1.450000000000e+00 -9.000000000000e+04 9.633027522936e-02 
1.500000000000e+00 -9.000000000000e+04 9.633027522936e-02 
1.550000000000e+00 -9.000000000000e+04 9.633027522936e-02 
1.600000000000e+00 -9.000000000000e+04 9.633027522936e-02 
1.650000000000e+00 -9.000000000000e+04 9.633027522936e-02 
1.700000000000e+00 -9.000000000000e+04 9.633027522936e-02 
1.750000000000e+00 -9.000000000000e+04 9.633027522936e-02 
1.800000000000e+00 -9.000000000000e+04 9.633027522936e-02 
1.850000000000e+00 -9.000000000000e+04 9.633027522936e-02 
1.900000000000e+00 -9.000000000000e+04 9.633027522936e-02 
1.950000000000e+00 -9.000000000000e+04 9.633027522936e-02 
2.000000000000e+00 -9.000000000000e+04 9.633027522936e-02 
 TITLE = "Profiles along polylines"
 VARIABLES = "DIST" "PRESSURE1" "SATURATION1" 
 ZONE T="TIME=5.000000000000e-01"
0.000000000000e+00 -8.357342463722e+04 3.773346691860e-01 
5.000000000000e-02 -8.760997750095e+04 3.718991922820e-01 
1.000000000000e-01 -8.915484226924e+04 3.643990469991e-01 
1.500000000000e-01 -8.971850320827e+04 3.615719957569e-01 
2.000000000000e-01 -8.994020295518e+04 3.604762017910e-01 
2.500000000000e-01 -9.008676791237e+04 3.038260895691e-01 
3.000000000000e-01 -9.026712065197e+04 2.473613590960e-01 
3.500000000000e-01 -9.056859846569e+04 1.651538140712e-01 
4.000000000000e-01 -9.009297501320e+04 8.317868702872e-02 
4.500000000000e-01 -9.001532253344e+04 8.327686286743e-02 
5.000000000000e-01 -9.000252839681e+04 8.329292193358e-02 
5.500000000000e-01 -9.000041730871e+04 8.329556865973e-02 
6.000000000000e-01 -9.000006891895e+04 8.329600537817e-02 
6.500000000000e-01 -9.000001162122e+04 8.329607730142e-02 
7.000000000000e-01 -9.000000337731e+04 8.329608825007e-02 
7.500000000000e-01 -9.000000921425e+04 8.329608458493e-02 
8.000000000000e-01 -9.000005287806e+04 8.329605151539e-02 
8.500000000000e-01 -9.000031340968e+04 8.329585345383e-02 
9.000000000000e-01 -9.000185933170e+04 8.329467796427e-02 
9.500000000000e-01 -9.001103253388e+04 8.328769836611e-02 
1.000000000000e+00 -9.006551909217e+04 8.979862236546e-02 
1.050000000000e+00 -9.000792062478e+04 9.632200567338e-02 
1.100000000000e+00 -9.000095868207e+04 9.632927532769e-02 
1.150000000000e+00 -9.000011605209e+04 9.633015420228e-02 
1.200000000000e+00 -9.000001404879e+04 9.633026057853e-02 
1.250000000000e+00 -9.000000170069e+04 9.633027345579e-02 
1.300000000000e+00 -9.000000020588e+04 9.633027501466e-02 
1.350000000000e+00 -9.000000002492e+04 9.633027520337e-02 
1.400000000000e+00 -9.000000000302e+04 9.633027522621e-02 
1.450000000000e+00 -9.000000000038e+04 9.633027522897e-02 
1.500000000000e+00 -9.000000000015e+04 9.633027522925e-02 
1.550000000000e+00 -9.000000000086e+04 9.633027522884e-02 
1.600000000000e+00 -9.000000000686e+04 9.633027522524e-02 
1.650000000000e+00 -9.000000005525e+04 9.633027519620e-02 
1.700000000000e+00 -9.000000044507e+04 9.633027496226e-02 
1.750000000000e+00 -9.000000358514e+04 9.633027307783e-02 
1.800000000000e+00 -9.000002887883e+04 9.633025789846e-02 
1.850000000000e+00 -9.000023262425e+04 9.633013562247e-02 
1.900000000000e+00 -9.000187389318e+04 9.632915041950e-02 
1.950000000000e+00 -9.001509909068e+04 9.632119801108e-02 
2.000000000000e+00 -9.012192616331e+04 9.631412203272e-02 
 TITLE = "Profiles along polylines"
 VARIABLES = "DIST" "PRESSURE1" "SATURATION1" 
 ZONE T="TIME=1.000000000000e+00"
0.000000000000e+00 -8.529556527806e+04 3.739440406200e-01 
5.000000000000e-02 -8.716552181742e+04 3.710208831415e-01 
1.000000000000e-01 -8.859807895218e+04 3.660236377752e-01 
1.500000000000e-01 -8.940302279610e+04 3.627969894344e-01 
2.000000000000e-01 -8.983256837694e+04 3.609910961613e-01 
2.500000000000e-01 -9.012953691369e+04 3.038661059829e-01 
3.000000000000e-01 -9.043866420048e+04 2.471697774780e-01 
3.500000000000e-01 -9.082543650824e+04 1.649687207291e-01 
4.000000000000e-01 -9.020088711487e+04 8.310765228609e-02 
4.500000000000e-01 -9.004399369435e+04 8.325157078886e-02 
5.000000000000e-01 -9.000906169110e+04 8.328649838949e-02 
5.500000000000e-01 -9.000179348272e+04 8.329413566018e-02 
6.000000000000e-01 -9.000034550302e+04 8.329570705425e-02 
6.500000000000e-01 -9.000006680364e+04 8.329601689409e-02 
7.000000000000e-01 -9.000002117187e+04 8.329607149291e-02 
7.500000000000e-01 -9.000004977568e+04 8.329605594165e-02 
8.000000000000e-01 -9.000024483482e+04 8.329592274634e-02 
8.500000000000e-01 -9.000122641942e+04 8.329526194570e-02 
9.000000000000e-01 -9.000594828896e+04 8.329217773879e-02 
9.500000000000e-01 -9.002742337611e+04 8.327884135043e-02 
1.000000000000e+00 -9.011615687350e+04 8.978575057036e-02 
1.050000000000e+00 -9.002021883705e+04 9.631455115213e-02 
1.100000000000e+00 -9.000319588122e+04 9.632759392643e-02 
1.150000000000e+00 -9.000047755906e+04 9.632985616130e-02 
1.200000000000e+00 -9.000006879109e+04 9.633021305066e-02 
1.250000000000e+00 -9.000000965679e+04 9.633026631613e-02 
1.300000000000e+00 -9.000000132992e+04 9.633027398255e-02 
1.350000000000e+00 -9.000000018048e+04 9.633027505811e-02 
1.400000000000e+00 -9.000000002422e+04 9.633027520616e-02 
1.450000000000e+00 -9.000000000335e+04 9.633027522618e-02 
1.500000000000e+00 -9.000000000144e+04 9.633027522837e-02 
1.550000000000e+00 -9.000000000758e+04 9.633027522506e-02 
1.600000000000e+00 -9.000000005524e+04 9.633027519842e-02 
1.650000000000e+00 -9.000000040175e+04 9.633027500616e-02 
1.700000000000e+00 -9.000000288826e+04 9.633027364023e-02 
1.750000000000e+00 -9.000002046327e+04 9.633026411026e-02 
1.800000000000e+00 -9.000014226412e+04 9.633019920768e-02 
1.850000000000e+00 -9.000096416455e+04 9.632977192872e-02 
1.900000000000e+00 -9.000630274627e+04 9.632709826286e-02 
1.950000000000e+00 -9.003900223143e+04 9.631171033107e-02 
2.000000000000e+00 -9.022006138537e+04 9.629862535591e-02 
 TITLE = "Profiles along polylines"
 VARIABLES = "DIST" "PRESSURE1" "SATURATION1" 
 ZONE T="TIME=5.000000000000e+00"
0.000000000000e+00 -4.404795047004e+04 5.184051024741e-01 
5.000000000000e-02 -4.922338660327e+04 5.030719068931e-01 
1.000000000000e-01 -5.863115266178e+04 4.722696983583e-01 
1.500000000000e-01 -6.718773762210e+04 4.434903083373e-01 
2.000000000000e-01 -7.362702062889e+04 4.207327702482e-01 
2.500000000000e-01 -7.746502200792e+04 3.374256842552e-01 
3.000000000000e-01 -7.959793624480e+04 2.623443883364e-01 
3.500000000000e-01 -8.079569600505e+04 1.739987756390e-01 
4.000000000000e-01 -8.659372018572e+04 8.573984126894e-02 
4.500000000000e-01 -8.883229102168e+04 8.417403114919e-02 
5.000000000000e-01 -8.961150364841e+04 8.359374811399e-02 
5.500000000000e-01 -8.987176333970e+04 8.339482174650e-02 
6.000000000000e-01 -8.995794760935e+04 8.332854317941e-02 
6.500000000000e-01 -8.998696980399e+04 8.330636352006e-02 
7.000000000000e-01 -8.999795782054e+04 8.329832461078e-02 
7.500000000000e-01 -9.000496292872e+04 8.329395670303e-02 
8.000000000000e-01 -9.001522682220e+04 8.328853318235e-02 
8.500000000000e-01 -9.003655062500e+04 8.327791065388e-02 
9.000000000000e-01 -9.008156547919e+04 8.325607693423e-02 
9.500000000000e-01 -9.017007861766e+04 8.321412686634e-02 
1.000000000000e+00 -9.032598123880e+04 8.971640861347e-02 
1.050000000000e+00 -9.014173957468e+04 9.627015520792e-02 
1.100000000000e+00 -9.005519142620e+04 9.630538020678e-02 
1.150000000000e+00 -9.001984930128e+04 9.632089495454e-02 
1.200000000000e+00 -9.000674859593e+04 9.632697551380e-02 
1.250000000000e+00 -9.000220641205e+04 9.632916991507e-02 
1.300000000000e+00 -9.000070238774e+04 9.632991739061e-02 
1.350000000000e+00 -9.000021997700e+04 9.633016192935e-02 
1.400000000000e+00 -9.000006932176e+04 9.633023946637e-02 
1.450000000000e+00 -9.000002568377e+04 9.633026260562e-02 
1.500000000000e+00 -9.000002207585e+04 9.633026621122e-02 
1.550000000000e+00 -9.000005226343e+04 9.633025602439e-02 
1.600000000000e+00 -9.000016078748e+04 9.633021719705e-02 
1.650000000000e+00 -9.000050616075e+04 9.633009368070e-02 
1.700000000000e+00 -9.000157944806e+04 9.632971278634e-02 
1.750000000000e+00 -9.000484306114e+04 9.632856820090e-02 
1.800000000000e+00 -9.001446414296e+04 9.632525001846e-02 
1.850000000000e+00 -9.004157230110e+04 9.631611250094e-02 
1.900000000000e+00 -9.011311263301e+04 9.629271529240e-02 
1.950000000000e+00 -9.028496642333e+04 9.623860102652e-02 
2.000000000000e+00 -9.064557740936e+04 9.620120728678e-02 
 TITLE = "Profiles along polylines"
 VARIABLES = "DIST" "PRESSURE1" "SATURATION1" 
 ZONE T="TIME=1.000000000000e+01"
0.000000000000e+00 -5.769266713061e+04 4.685234122722e-01 
5.000000000000e-02 -5.869314027068e+04 4.664078278218e-01 
1.000000000000e-01 -6.043567946277e+04 4.611525371414e-01 
1.500000000000e-01 -6.250625008961e+04 4.545552849245e-01 
2.000000000000e-01 -6.448316910479e+04 4.479972362701e-01 
2.500000000000e-01 -6.601561014527e+04 3.621399834931e-01 
3.000000000000e-01 -6.711841502793e+04 2.787043355491e-01 
3.500000000000e-01 -6.794973538415e+04 1.854436663771e-01 
4.000000000000e-01 -7.578550913627e+04 9.110246028241e-02 
4.500000000000e-01 -8.156568294346e+04 8.808347099065e-02 
5.000000000000e-01 -8.536232014752e+04 8.601717706171e-02 
5.500000000000e-01 -8.760513007698e+04 8.474277675311e-02 
6.000000000000e-01 -8.882141622017e+04 8.402458629830e-02 
6.500000000000e-01 -8.944339873425e+04 8.364663784363e-02 
7.000000000000e-01 -8.975297527687e+04 8.345544814796e-02 
7.500000000000e-01 -8.991134066872e+04 8.335797269020e-02 
8.000000000000e-01 -9.000555056859e+04 8.330241751459e-02 
8.500000000000e-01 -9.008354066038e+04 8.326030768456e-02 
9.000000000000e-01 -9.017457021313e+04 8.321492330509e-02 
9.500000000000e-01 -9.029884559521e+04 8.315537900433e-02 
1.000000000000e+00 -9.046994790306e+04 8.966165093566e-02 
1.050000000000e+00 -9.026492705443e+04 9.623080466494e-02 
1.100000000000e+00 -9.013887100545e+04 9.627639176295e-02 
1.150000000000e+00 -9.006843874123e+04 9.630292746701e-02 
1.200000000000e+00 -9.003204233888e+04 9.631714091337e-02 
1.250000000000e+00 -9.001438296942e+04 9.632425056937e-02 
1.300000000000e+00 -9.000624208986e+04 9.632761303307e-02 
1.350000000000e+00 -9.000265079115e+04 9.632912930695e-02 
1.400000000000e+00 -9.000114712452e+04 9.632977879346e-02 
1.450000000000e+00 -9.000060751365e+04 9.633002459811e-02 
1.500000000000e+00 -9.000060389960e+04 9.633005452665e-02 
1.550000000000e+00 -9.000113025350e+04 9.632989304432e-02 
1.600000000000e+00 -9.000259997201e+04 9.632941617081e-02 
1.650000000000e+00 -9.000612011647e+04 9.632827215688e-02 
1.700000000000e+00 -9.001416797723e+04 9.632567438002e-02 
1.750000000000e+00 -9.003191375286e+04 9.631999924055e-02 
1.800000000000e+00 -9.006947309132e+04 9.630811734567e-02 
1.850000000000e+00 -9.014510139109e+04 9.628447978959e-02 
1.900000000000e+00 -9.028831591126e+04 9.624028703891e-02 
1.950000000000e+00 -9.053979504877e+04 9.616363592657e-02 
2.000000000000e+00 -9.094266762693e+04 9.611554347982e-02 
 TITLE = "Profiles along polylines"
 VARIABLES = "DIST" "PRESSURE1" "SATURATION1" 
 ZONE T="TIME=2.000000000000e+01"
0.000000000000e+00 -3.661601002481e+04 5.657473420485e-01 
5.000000000000e-02 -4.015281176475e+04 5.555266362953e-01 
1.000000000000e-01 -4.341361711593e+04 5.359375391849e-01 
1.500000000000e-01 -4.636461904042e+04 5.182263795237e-01 
2.000000000000e-01 -4.889819493696e+04 5.036435567989e-01 
2.500000000000e-01 -5.073070623632e+04 3.986195516083e-01 
3.000000000000e-01 -5.194318756739e+04 2.990971920082e-01 
3.500000000000e-01 -5.282136700462e+04 1.992491562505e-01 
4.000000000000e-01 -6.167635456968e+04 9.809778346807e-02 
4.500000000000e-01 -6.886014881192e+04 9.440491488906e-02 
5.000000000000e-01 -7.462369868579e+04 9.143978357882e-02 
5.500000000000e-01 -7.911750899314e+04 8.911099782584e-02 
6.000000000000e-01 -8.250245115054e+04 8.733892643934e-02 
6.500000000000e-01 -8.496579613612e+04 8.603483043950e-02 
7.000000000000e-01 -8.670592876420e+04 8.510380182431e-02 
7.500000000000e-01 -8.791030836472e+04 8.445403763349e-02 
8.000000000000e-01 -8.873908515705e+04 8.400503617718e-02 
8.500000000000e-01 -8.931839812241e+04 8.369184718384e-02 
9.000000000000e-01 -8.974142916223e+04 8.346552376059e-02 
9.500000000000e-01 -9.007313439998e+04 8.329136414904e-02 
1.000000000000e+00 -9.035537916410e+04 8.971999164755e-02 
1.050000000000e+00 -9.026956676431e+04 9.623963695755e-02 
1.100000000000e+00 -9.018773135596e+04 9.626519507124e-02 
1.150000000000e+00 -9.012347019761e+04 9.628652845708e-02 
1.200000000000e+00 -9.007810590045e+04 9.630216162438e-02 
1.250000000000e+00 -9.004826727596e+04 9.631271557015e-02 
1.300000000000e+00 -9.002972606424e+04 9.631940944151e-02 
1.350000000000e+00 -9.001894654254e+04 9.632338459711e-02 
1.400000000000e+00 -9.001349468043e+04 9.632547642266e-02 
1.450000000000e+00 -9.001200935758e+04 9.632618102717e-02 
1.500000000000e+00 -9.001409768345e+04 9.632567572791e-02 
1.550000000000e+00 -9.002032076406e+04 9.632382427147e-02 
1.600000000000e+00 -9.003234742294e+04 9.632013433592e-02 
1.650000000000e+00 -9.005332195907e+04 9.631365016751e-02 
1.700000000000e+00 -9.008847564176e+04 9.630277133724e-02 
1.750000000000e+00 -9.014597046544e+04 9.628500280229e-02 
1.800000000000e+00 -9.023785253854e+04 9.625667548466e-02 
1.850000000000e+00 -9.038076736489e+04 9.621274204224e-02 
1.900000000000e+00 -9.059575391429e+04 9.614684465757e-02 
1.950000000000e+00 -9.090615503318e+04 9.605191780008e-02 
2.000000000000e+00 -9.133294492381e+04 9.599629895195e-02 
 TITLE = "Profiles along polylines"
 VARIABLES = "DIST" "PRESSURE1" "SATURATION1" 
 ZONE T="TIME=3.000000000000e+01"
0.000000000000e+00 -3.299125856859e+04 5.903686875246e-01 
5.000000000000e-02 -3.495468844360e+04 5.846222735598e-01 
1.000000000000e-01 -3.683817023541e+04 5.734318591236e-01 
1.500000000000e-01 -3.857577041733e+04 5.630505154756e-01 
2.000000000000e-01 -4.009284007460e+04 5.539095107245e-01 
2.500000000000e-01 -4.130912713432e+04 4.402359201764e-01 
3.000000000000e-01 -4.205784743345e+04 3.294196791874e-01 
3.500000000000e-01 -4.271131952210e+04 2.186348004866e-01 
4.000000000000e-01 -4.946258405404e+04 1.055380319689e-01 
4.500000000000e-01 -5.778470410027e+04 9.995339875426e-02 
5.000000000000e-01 -6.462827392951e+04 9.643679983675e-02 
5.500000000000e-01 -7.032908296334e+04 9.352512443379e-02 
6.000000000000e-01 -7.503980914770e+04 9.111717472627e-02 
6.500000000000e-01 -7.886468345756e+04 8.915419521450e-02 
7.000000000000e-01 -8.190202726257e+04 8.758619565881e-02 
7.500000000000e-01 -8.425791518865e+04 8.636164027774e-02 
8.000000000000e-01 -8.604582515798e+04 8.542590728461e-02 
8.500000000000e-01 -8.737914448184e+04 8.472396072203e-02 
9.000000000000e-01 -8.836177544425e+04 8.420451664107e-02 
9.500000000000e-01 -8.908051066818e+04 8.382381994238e-02 
1.000000000000e+00 -8.960064711601e+04 9.004702480028e-02 
1.050000000000e+00 -8.985210405123e+04 9.639780800067e-02 
1.100000000000e+00 -8.997040036016e+04 9.634969415740e-02 
1.150000000000e+00 -9.001883142354e+04 9.632863212503e-02 
1.200000000000e+00 -9.003365320776e+04 9.632109375126e-02 
1.250000000000e+00 -9.003431250586e+04 9.631961072878e-02 
1.300000000000e+00 -9.003062406824e+04 9.632030432007e-02 
1.350000000000e+00 -9.002730685427e+04 9.632125829913e-02 
1.400000000000e+00 -9.002666698496e+04 9.632152854044e-02 
1.450000000000e+00 -9.003013097165e+04 9.632056670637e-02 
1.500000000000e+00 -9.003913508739e+04 9.631788546869e-02 
1.550000000000e+00 -9.005569641465e+04 9.631284947443e-02 
1.600000000000e+00 -9.008285816048e+04 9.630452156317e-02 
1.650000000000e+00 -9.012510814260e+04 9.629152665517e-02 
1.700000000000e+00 -9.018879639584e+04 9.627192100487e-02 
1.750000000000e+00 -9.028250801639e+04 9.624307746224e-02 
1.800000000000e+00 -9.041727054235e+04 9.620162117452e-02 
1.850000000000e+00 -9.060639719376e+04 9.614347312315e-02 
1.900000000000e+00 -9.086472236487e+04 9.606407107874e-02 
1.950000000000e+00 -9.120704693550e+04 9.595881851513e-02 
2.000000000000e+00 -9.164587596754e+04 9.589917071881e-02 
 TITLE = "Profiles along polylines"
 VARIABLES = "DIST" "PRESSURE1" "SATURATION1" 
 ZONE T="TIME=4.000000000000e+01"
0.000000000000e+00 -3.672320091693e+04 5.709979700632e-01 
5.000000000000e-02 -3.728390993889e+04 5.692440718804e-01 
1.000000000000e-01 -3.793590180493e+04 5.655084546684e-01 
1.500000000000e-01 -3.863568328526e+04 5.614413795617e-01 
2.000000000000e-01 -3.934467552472e+04 5.572752983525e-01 
2.500000000000e-01 -4.003056378154e+04 4.454888172104e-01 
3.000000000000e-01 -4.060725550216e+04 3.347071324953e-01 
3.500000000000e-01 -4.117281141133e+04 2.231141845490e-01 
4.000000000000e-01 -4.528316853873e+04 1.093427189327e-01 
4.500000000000e-01 -5.137917176686e+04 1.036555839948e-01 
5.000000000000e-01 -5.795633196716e+04 9.967103081893e-02 
5.500000000000e-01 -6.372295594925e+04 9.675949844217e-02 
6.000000000000e-01 -6.876731271498e+04 9.421429658498e-02 
6.500000000000e-01 -7.313309763406e+04 9.200759848333e-02 
7.000000000000e-01 -7.685196145727e+04 9.012164680043e-02 
7.500000000000e-01 -7.995806563447e+04 8.853928272480e-02 
8.000000000000e-01 -8.249483130022e+04 8.723979807925e-02 
8.500000000000e-01 -8.451615440113e+04 8.619779962569e-02 
9.000000000000e-01 -8.608310918497e+04 8.538433843973e-02 
9.500000000000e-01 -8.725763769984e+04 8.476960070509e-02 
1.000000000000e+00 -8.809526709265e+04 9.068151809294e-02 
1.050000000000e+00 -8.886968025112e+04 9.674700180590e-02 
1.100000000000e+00 -8.935129664693e+04 9.657268851737e-02 
1.150000000000e+00 -8.964084679456e+04 9.646643826504e-02 
1.200000000000e+00 -8.981020831272e+04 9.640355320084e-02 
1.250000000000e+00 -8.990747622424e+04 9.636710608129e-02 
1.300000000000e+00 -8.996343823959e+04 9.634606599740e-02 
1.350000000000e+00 -8.999731055862e+04 9.633346649217e-02 
1.400000000000e+00 -9.002108377173e+04 9.632494312876e-02 
1.450000000000e+00 -9.004255874875e+04 9.631768029335e-02 
1.500000000000e+00 -9.006738434908e+04 9.630969238096e-02 
1.550000000000e+00 -9.010041152137e+04 9.629934339376e-02 
1.600000000000e+00 -9.014660404752e+04 9.628502511163e-02 
1.650000000000e+00 -9.021165983210e+04 9.626493973378e-02 
1.700000000000e+00 -9.030241953502e+04 9.623695768400e-02 
1.750000000000e+00 -9.042707636099e+04 9.619854195936e-02 
1.800000000000e+00 -9.059515433411e+04 9.614674574371e-02 
1.850000000000e+00 -9.081719884380e+04 9.607829806707e-02 
1.900000000000e+00 -9.110413504756e+04 9.598978962124e-02 
1.950000000000e+00 -9.146631169582e+04 9.587795349591e-02 
2.000000000000e+00 -9.191236513136e+04 9.581581416465e-02 
 TITLE = "Profiles along polylines"
 VARIABLES = "DIST" "PRESSURE1" "SATURATION1" 
 ZONE T="TIME=5.000000000000e+01"
0.000000000000e+00 -3.578794920394e+04 5.762220342382e-01 
5.000000000000e-02 -3.651332300148e+04 5.740916464237e-01 
1.000000000000e-01 -3.721666331144e+04 5.698954218927e-01 
1.500000000000e-01 -3.789880138184e+04 5.658284374425e-01 
2.000000000000e-01 -3.855793529820e+04 5.618975581328e-01 
2.500000000000e-01 -3.919086687583e+04 4.494668607013e-01 
3.000000000000e-01 -3.974414906403e+04 3.379307466954e-01 
3.500000000000e-01 -4.029137167308e+04 2.255825605558e-01 
4.000000000000e-01 -4.347780611810e+04 1.118168453522e-01 
4.500000000000e-01 -4.757129607368e+04 1.063616432726e-01 
5.000000000000e-01 -5.352153069241e+04 1.018533463744e-01 
5.500000000000e-01 -5.900774380375e+04 9.904116661829e-02 
6.000000000000e-01 -6.396355492281e+04 9.655693353784e-02 
6.500000000000e-01 -6.841244319174e+04 9.432543344755e-02 
7.000000000000e-01 -7.236148386965e+04 9.234087927086e-02 
7.500000000000e-01 -7.581305121073e+04 9.060118213972e-02 
8.000000000000e-01 -7.877134023592e+04 8.910411438043e-02 
8.500000000000e-01 -8.124617804897e+04 8.784518064635e-02 
9.000000000000e-01 -8.325450233294e+04 8.681669949086e-02 
9.500000000000e-01 -8.481950105272e+04 8.600800738561e-02 
1.000000000000e+00 -8.596774888386e+04 9.156375998897e-02 
1.050000000000e+00 -8.732719534370e+04 9.727575315651e-02 
1.100000000000e+00 -8.827465034774e+04 9.694657439281e-02 
1.150000000000e+00 -8.891354026590e+04 9.672193106109e-02 
1.200000000000e+00 -8.933316258488e+04 9.657288209023e-02 
1.250000000000e+00 -8.960388296773e+04 9.647598312966e-02 
1.300000000000e+00 -8.977758848325e+04 9.641355526137e-02 
1.350000000000e+00 -8.989087255583e+04 9.637292218850e-02 
1.400000000000e+00 -8.996894136110e+04 9.634526128355e-02 
1.450000000000e+00 -9.002916547716e+04 9.632447332845e-02 
1.500000000000e+00 -9.008390081028e+04 9.630624569402e-02 
1.550000000000e+00 -9.014256771883e+04 9.628734413624e-02 
1.600000000000e+00 -9.021311094799e+04 9.626510750297e-02 
1.650000000000e+00 -9.030297887849e+04 9.623710450418e-02 
1.700000000000e+00 -9.041973071133e+04 9.620091682660e-02 
1.750000000000e+00 -9.057134149657e+04 9.615402382147e-02 
1.800000000000e+00 -9.076624460542e+04 9.609377366271e-02 
1.850000000000e+00 -9.101313749875e+04 9.601743092883e-02 
1.900000000000e+00 -9.132058326225e+04 9.592228954571e-02 
1.950000000000e+00 -9.169646716434e+04 9.580583292351e-02 
2.000000000000e+00 -9.214740770159e+04 9.574197863253e-02 
 TITLE = "Profiles along polylines"
 VARIABLES = "DIST" "PRESSURE1" "SATURATION1" 
 ZONE T="TIME=6.000000000000e+01"
0.000000000000e+00 9.629322192122e+04 1.000000000000e+00 
5.000000000000e-02 7.794579090948e+04 1.000000000000e+00 
1.000000000000e-01 6.307996215211e+04 1.000000000000e+00 
1.500000000000e-01 5.129186536921e+04 1.000000000000e+00 
2.000000000000e-01 4.227152777807e+04 1.000000000000e+00 
2.500000000000e-01 3.579434500440e+04 1.000000000000e+00 
3.000000000000e-01 3.359678264108e+04 1.000000000000e+00 
3.500000000000e-01 3.209046507364e+04 1.000000000000e+00 
4.000000000000e-01 6.745030043401e+03 9.635422366038e-01 
4.500000000000e-01 -1.038830446834e+04 6.048123027631e-01 
5.000000000000e-01 -2.194356887546e+04 2.135907320954e-01 
5.500000000000e-01 -3.074288310302e+04 1.349899394493e-01 
6.000000000000e-01 -3.895724781669e+04 1.192352697835e-01 
6.500000000000e-01 -4.857315621864e+04 1.076687248304e-01 
7.000000000000e-01 -5.757847357653e+04 1.001658953198e-01 
7.500000000000e-01 -6.443497937737e+04 9.655770487279e-02 
8.000000000000e-01 -6.984730586308e+04 9.374859533366e-02 
8.500000000000e-01 -7.414708435297e+04 9.152602436381e-02 
9.000000000000e-01 -7.752155628256e+04 8.978002734787e-02 
9.500000000000e-01 -8.008646659430e+04 8.844530526064e-02 
1.000000000000e+00 -8.191624901554e+04 9.325908479702e-02 
1.050000000000e+00 -8.438078607722e+04 9.828634000341e-02 
1.100000000000e+00 -8.618227250497e+04 9.766975497135e-02 
1.150000000000e+00 -8.746224149426e+04 9.722752536091e-02 
1.200000000000e+00 -8.834884482944e+04 9.691843066332e-02 
1.250000000000e+00 -8.895095729341e+04 9.670691742607e-02 
1.300000000000e+00 -8.935530735743e+04 9.656413402632e-02 
1.350000000000e+00 -8.962738612826e+04 9.646791251622e-02 
1.400000000000e+00 -8.981480107492e+04 9.640191634235e-02 
1.450000000000e+00 -8.995144982729e+04 9.635441139827e-02 
1.500000000000e+00 -9.006143879956e+04 9.631702897429e-02 
1.550000000000e+00 -9.016227981012e+04 9.628371345510e-02 
1.600000000000e+00 -9.026728330100e+04 9.624991245329e-02 
1.650000000000e+00 -9.038723943656e+04 9.621199618770e-02 
1.700000000000e+00 -9.053152449381e+04 9.616686773210e-02 
1.750000000000e+00 -9.070876053775e+04 9.611172365041e-02 
1.800000000000e+00 -9.092713209902e+04 9.604393048231e-02 
1.850000000000e+00 -9.119444320703e+04 9.596098890287e-02 
1.900000000000e+00 -9.151798799755e+04 9.586056117744e-02 
1.950000000000e+00 -9.190430770404e+04 9.574053843313e-02 
2.000000000000e+00 -9.235891139715e+04 9.567538154039e-02 
 TITLE = "Profiles along polylines"
 VARIABLES = "DIST" "PRESSURE1" "SATURATION1" 
 ZONE T="TIME=7.000000000000e+01"
0.000000000000e+00 4.423935500481e+03 1.000000000000e+00 
5.000000000000e-02 3.929512616179e+03 1.000000000000e+00 
1.000000000000e-01 3.434144823702e+03 1.000000000000e+00 
1.500000000000e-01 2.937938555753e+03 1.000000000000e+00 
2.000000000000e-01 2.440993039731e+03 1.000000000000e+00 
2.500000000000e-01 1.943400645399e+03 1.000000000000e+00 
3.000000000000e-01 1.451642840524e+03 1.000000000000e+00 
3.500000000000e-01 9.598284217249e+02 1.000000000000e+00 
4.000000000000e-01 4.689063114761e+02 1.000000000000e+00 
4.500000000000e-01 -2.203399096984e+01 9.954302508950e-01 
5.000000000000e-01 -5.130938216884e+02 9.787744695872e-01 
5.500000000000e-01 -1.004550793482e+03 9.578875075618e-01 
6.000000000000e-01 -1.496642827828e+03 9.456254626499e-01 
6.500000000000e-01 -1.989448784225e+03 9.378998655768e-01 
7.000000000000e-01 -2.483214743843e+03 9.281087139730e-01 
7.500000000000e-01 -2.978116129851e+03 9.162902601924e-01 
8.000000000000e-01 -3.474728723005e+03 9.007983746676e-01 
8.500000000000e-01 -3.973396723068e+03 8.823484463014e-01 
9.000000000000e-01 -4.476017444357e+03 8.637337224083e-01 
9.500000000000e-01 -4.989392515855e+03 8.363788633144e-01 
1.000000000000e+00 -5.514317648574e+03 6.258224678045e-01 
1.050000000000e+00 -6.073993056546e+03 4.206932597992e-01 
1.100000000000e+00 -6.644802054854e+03 3.952912328746e-01 
1.150000000000e+00 -7.230540369205e+03 3.692250439574e-01 
1.200000000000e+00 -7.838578011632e+03 3.421485407943e-01 
1.250000000000e+00 -8.485783829771e+03 3.131364459675e-01 
1.300000000000e+00 -9.231295436797e+03 2.777268477785e-01 
1.350000000000e+00 -1.080370552534e+04 2.463766676634e-01 
1.400000000000e+00 -1.302337942399e+04 2.256520846177e-01 
1.450000000000e+00 -1.537987027022e+04 2.055586857216e-01 
1.500000000000e+00 -1.806341944247e+04 1.827257593780e-01 
1.550000000000e+00 -2.142714276825e+04 1.467177017553e-01 
1.600000000000e+00 -3.980566437011e+04 1.176503418155e-01 
1.650000000000e+00 -5.495081227349e+04 1.087834943590e-01 
1.700000000000e+00 -7.527712047812e+04 1.026753757618e-01 
1.750000000000e+00 -8.475577647020e+04 9.878601406854e-02 
1.800000000000e+00 -8.892409744937e+04 9.702391550816e-02 
1.850000000000e+00 -9.065130133220e+04 9.626262347731e-02 
1.900000000000e+00 -9.147213538486e+04 9.591941696026e-02 
1.950000000000e+00 -9.201958885104e+04 9.571892660522e-02 
2.000000000000e+00 -9.251183628256e+04 9.563466127414e-02 
 TITLE = "Profiles along polylines"
 VARIABLES = "DIST" "PRESSURE1" "SATURATION1" 
 ZONE T="TIME=8.000000000000e+01"
0.000000000000e+00 3.797158856791e+03 1.000000000000e+00 
5.000000000000e-02 3.306494666793e+03 1.000000000000e+00 
1.000000000000e-01 2.815504066050e+03 1.000000000000e+00 
1.500000000000e-01 2.324189347854e+03 1.000000000000e+00 
2.000000000000e-01 1.832553074978e+03 1.000000000000e+00 
2.500000000000e-01 1.340598029036e+03 1.000000000000e+00 
3.000000000000e-01 8.498128806480e+02 1.000000000000e+00 
3.500000000000e-01 3.589951324811e+02 9.998547390336e-01 
4.000000000000e-01 -1.316140337718e+02 9.925920148906e-01 
4.500000000000e-01 -6.222718559295e+02 9.735058371394e-01 
5.000000000000e-01 -1.113066934429e+03 9.545515924958e-01 
5.500000000000e-01 -1.604041530061e+03 9.440880772586e-01 
6.000000000000e-01 -2.095250211757e+03 9.359479180115e-01 
6.500000000000e-01 -2.586736939420e+03 9.257873420357e-01 
7.000000000000e-01 -3.078614462754e+03 9.133103017447e-01 
7.500000000000e-01 -3.571038175798e+03 8.972170845805e-01 
8.000000000000e-01 -4.064215548075e+03 8.789692582915e-01 
8.500000000000e-01 -4.558912935779e+03 8.603337701894e-01 
9.000000000000e-01 -5.057745482576e+03 8.314999406923e-01 
9.500000000000e-01 -5.560682482002e+03 7.864909962600e-01 
1.000000000000e+00 -6.066177628979e+03 5.850100527887e-01 
1.050000000000e+00 -6.588053290325e+03 3.975208681858e-01 
1.100000000000e+00 -7.116448753550e+03 3.739860133095e-01 
1.150000000000e+00 -7.653823173794e+03 3.500523874370e-01 
1.200000000000e+00 -8.204870629709e+03 3.254990990952e-01 
1.250000000000e+00 -8.780308682733e+03 2.997448432296e-01 
1.300000000000e+00 -9.416803612392e+03 2.709741223511e-01 
1.350000000000e+00 -1.043920862281e+04 2.480915857728e-01 
1.400000000000e+00 -1.183793612411e+04 2.346335755548e-01 
1.450000000000e+00 -1.332138729621e+04 2.221195207668e-01 
1.500000000000e+00 -1.491250595518e+04 2.086943778921e-01 
1.550000000000e+00 -1.665469454926e+04 1.939796658306e-01 
1.600000000000e+00 -1.863918687238e+04 1.775597497350e-01 
1.650000000000e+00 -2.079904785150e+04 1.592910579561e-01 