<?xml version="1.0"?>
<!-- Time step: 122 | Time: 1.900000000000e+04 -->
<VTKFile type="UnstructuredGrid" version="0.1" byte_order="LittleEndian">
  <UnstructuredGrid>
    <Piece NumberOfPoints="6824" NumberOfCells="13330">
      <Points>
        <DataArray type="Float64" NumberOfComponents="3" format="ascii">
          0.000000000000e+00 0.000000000000e+00 0.000000000000e+00
          0.000000000000e+00 0.000000000000e+00 2.600000000000e-01
          5.300000000000e-01 0.000000000000e+00 2.600000000000e-01
          5.300000000000e-01 0.000000000000e+00 0.000000000000e+00
          0.000000000000e+00 0.000000000000e+00 4.999999999991e-03
          0.000000000000e+00 0.000000000000e+00 9.999999999982e-03
          0.000000000000e+00 0.000000000000e+00 1.499999999997e-02
          0.000000000000e+00 0.000000000000e+00 1.999999999996e-02
          0.000000000000e+00 0.000000000000e+00 2.499999999996e-02
          0.000000000000e+00 0.000000000000e+00 2.999999999995e-02
          0.000000000000e+00 0.000000000000e+00 3.499999999994e-02
          0.000000000000e+00 0.000000000000e+00 3.999999999992e-02
          0.000000000000e+00 0.000000000000e+00 4.499999999991e-02
          0.000000000000e+00 0.000000000000e+00 4.999999999990e-02
          0.000000000000e+00 0.000000000000e+00 5.499999999988e-02
          0.000000000000e+00 0.000000000000e+00 5.999999999987e-02
          0.000000000000e+00 0.000000000000e+00 6.499999999985e-02
          0.000000000000e+00 0.000000000000e+00 6.999999999983e-02
          0.000000000000e+00 0.000000000000e+00 7.499999999983e-02
          0.000000000000e+00 0.000000000000e+00 7.999999999981e-02
          0.000000000000e+00 0.000000000000e+00 8.499999999979e-02
          0.000000000000e+00 0.000000000000e+00 8.999999999978e-02
          0.000000000000e+00 0.000000000000e+00 9.499999999977e-02
          0.000000000000e+00 0.000000000000e+00 9.999999999975e-02
          0.000000000000e+00 0.000000000000e+00 1.049999999997e-01
          0.000000000000e+00 0.000000000000e+00 1.099999999997e-01
          0.000000000000e+00 0.000000000000e+00 1.149999999997e-01
          0.000000000000e+00 0.000000000000e+00 1.199999999997e-01
          0.000000000000e+00 0.000000000000e+00 1.249999999997e-01
          0.000000000000e+00 0.000000000000e+00 1.299999999997e-01
          0.000000000000e+00 0.000000000000e+00 1.349999999997e-01
          0.000000000000e+00 0.000000000000e+00 1.399999999997e-01
          0.000000000000e+00 0.000000000000e+00 1.449999999997e-01
          0.000000000000e+00 0.000000000000e+00 1.499999999997e-01
          0.000000000000e+00 0.000000000000e+00 1.549999999997e-01
          0.000000000000e+00 0.000000000000e+00 1.599999999997e-01
          0.000000000000e+00 0.000000000000e+00 1.649999999998e-01
          0.000000000000e+00 0.000000000000e+00 1.699999999998e-01
          0.000000000000e+00 0.000000000000e+00 1.749999999998e-01
          0.000000000000e+00 0.000000000000e+00 1.799999999998e-01
          0.000000000000e+00 0.000000000000e+00 1.849999999998e-01
          0.000000000000e+00 0.000000000000e+00 1.899999999998e-01
          0.000000000000e+00 0.000000000000e+00 1.949999999998e-01
          0.000000000000e+00 0.000000000000e+00 1.999999999999e-01
          0.000000000000e+00 0.000000000000e+00 2.049999999999e-01
          0.000000000000e+00 0.000000000000e+00 2.099999999999e-01
          0.000000000000e+00 0.000000000000e+00 2.149999999999e-01
          0.000000000000e+00 0.000000000000e+00 2.199999999999e-01
          0.000000000000e+00 0.000000000000e+00 2.249999999999e-01
          0.000000000000e+00 0.000000000000e+00 2.299999999999e-01
          0.000000000000e+00 0.000000000000e+00 2.349999999999e-01
          0.000000000000e+00 0.000000000000e+00 2.399999999999e-01
          0.000000000000e+00 0.000000000000e+00 2.450000000000e-01
          0.000000000000e+00 0.000000000000e+00 2.500000000000e-01
          0.000000000000e+00 0.000000000000e+00 2.550000000000e-01
          4.999999999991e-03 0.000000000000e+00 2.600000000000e-01
          9.999999999981e-03 0.000000000000e+00 2.600000000000e-01
          1.499999999997e-02 0.000000000000e+00 2.600000000000e-01
          1.999999999996e-02 0.000000000000e+00 2.600000000000e-01
          2.499999999995e-02 0.000000000000e+00 2.600000000000e-01
          2.999999999994e-02 0.000000000000e+00 2.600000000000e-01
          3.499999999993e-02 0.000000000000e+00 2.600000000000e-01
          3.999999999992e-02 0.000000000000e+00 2.600000000000e-01
          4.499999999992e-02 0.000000000000e+00 2.600000000000e-01
          4.999999999991e-02 0.000000000000e+00 2.600000000000e-01
          5.499999999990e-02 0.000000000000e+00 2.600000000000e-01
          5.999999999990e-02 0.000000000000e+00 2.600000000000e-01
          6.499999999989e-02 0.000000000000e+00 2.600000000000e-01
          6.999999999988e-02 0.000000000000e+00 2.600000000000e-01
          7.499999999986e-02 0.000000000000e+00 2.600000000000e-01
          7.999999999985e-02 0.000000000000e+00 2.600000000000e-01
          8.499999999983e-02 0.000000000000e+00 2.600000000000e-01
          8.999999999981e-02 0.000000000000e+00 2.600000000000e-01
          9.499999999980e-02 0.000000000000e+00 2.600000000000e-01
          9.999999999979e-02 0.000000000000e+00 2.600000000000e-01
          1.049999999998e-01 0.000000000000e+00 2.600000000000e-01
          1.099999999998e-01 0.000000000000e+00 2.600000000000e-01
          1.149999999997e-01 0.000000000000e+00 2.600000000000e-01
          1.199999999997e-01 0.000000000000e+00 2.600000000000e-01
          1.249999999997e-01 0.000000000000e+00 2.600000000000e-01
          1.299999999997e-01 0.000000000000e+00 2.600000000000e-01
          1.349999999997e-01 0.000000000000e+00 2.600000000000e-01
          1.399999999997e-01 0.000000000000e+00 2.600000000000e-01
          1.449999999997e-01 0.000000000000e+00 2.600000000000e-01
          1.499999999996e-01 0.000000000000e+00 2.600000000000e-01
          1.549999999996e-01 0.000000000000e+00 2.600000000000e-01
          1.599999999996e-01 0.000000000000e+00 2.600000000000e-01
          1.649999999996e-01 0.000000000000e+00 2.600000000000e-01
          1.699999999996e-01 0.000000000000e+00 2.600000000000e-01
          1.749999999996e-01 0.000000000000e+00 2.600000000000e-01
          1.799999999995e-01 0.000000000000e+00 2.600000000000e-01
          1.849999999995e-01 0.000000000000e+00 2.600000000000e-01
          1.899999999995e-01 0.000000000000e+00 2.600000000000e-01
          1.949999999995e-01 0.000000000000e+00 2.600000000000e-01
          1.999999999995e-01 0.000000000000e+00 2.600000000000e-01
          2.049999999995e-01 0.000000000000e+00 2.600000000000e-01
          2.099999999995e-01 0.000000000000e+00 2.600000000000e-01
          2.149999999994e-01 0.000000000000e+00 2.600000000000e-01
          2.199999999994e-01 0.000000000000e+00 2.600000000000e-01
          2.249999999994e-01 0.000000000000e+00 2.600000000000e-01
          2.299999999994e-01 0.000000000000e+00 2.600000000000e-01
          2.349999999994e-01 0.000000000000e+00 2.600000000000e-01
          2.399999999994e-01 0.000000000000e+00 2.600000000000e-01
          2.449999999993e-01 0.000000000000e+00 2.600000000000e-01
          2.499999999993e-01 0.000000000000e+00 2.600000000000e-01
          2.549999999993e-01 0.000000000000e+00 2.600000000000e-01
          2.599999999993e-01 0.000000000000e+00 2.600000000000e-01
          2.649999999993e-01 0.000000000000e+00 2.600000000000e-01
          2.699999999993e-01 0.000000000000e+00 2.600000000000e-01
          2.749999999993e-01 0.000000000000e+00 2.600000000000e-01
          2.799999999993e-01 0.000000000000e+00 2.600000000000e-01
          2.849999999993e-01 0.000000000000e+00 2.600000000000e-01
          2.899999999993e-01 0.000000000000e+00 2.600000000000e-01
          2.949999999993e-01 0.000000000000e+00 2.600000000000e-01
          2.999999999994e-01 0.000000000000e+00 2.600000000000e-01
          3.049999999994e-01 0.000000000000e+00 2.600000000000e-01
          3.099999999994e-01 0.000000000000e+00 2.600000000000e-01
          3.149999999994e-01 0.000000000000e+00 2.600000000000e-01
          3.199999999994e-01 0.000000000000e+00 2.600000000000e-01
          3.249999999994e-01 0.000000000000e+00 2.600000000000e-01
          3.299999999994e-01 0.000000000000e+00 2.600000000000e-01
          3.349999999995e-01 0.000000000000e+00 2.600000000000e-01
          3.399999999995e-01 0.000000000000e+00 2.600000000000e-01
          3.449999999995e-01 0.000000000000e+00 2.600000000000e-01
          3.499999999995e-01 0.000000000000e+00 2.600000000000e-01
          3.549999999995e-01 0.000000000000e+00 2.600000000000e-01
          3.599999999995e-01 0.000000000000e+00 2.600000000000e-01
          3.649999999996e-01 0.000000000000e+00 2.600000000000e-01
          3.699999999996e-01 0.000000000000e+00 2.600000000000e-01
          3.749999999996e-01 0.000000000000e+00 2.600000000000e-01
          3.799999999996e-01 0.000000000000e+00 2.600000000000e-01
          3.849999999996e-01 0.000000000000e+00 2.600000000000e-01
          3.899999999996e-01 0.000000000000e+00 2.600000000000e-01
          3.949999999996e-01 0.000000000000e+00 2.600000000000e-01
          3.999999999996e-01 0.000000000000e+00 2.600000000000e-01
          4.049999999996e-01 0.000000000000e+00 2.600000000000e-01
          4.099999999996e-01 0.000000000000e+00 2.600000000000e-01
          4.149999999997e-01 0.000000000000e+00 2.600000000000e-01
          4.199999999997e-01 0.000000000000e+00 2.600000000000e-01
          4.249999999997e-01 0.000000000000e+00 2.600000000000e-01
          4.299999999997e-01 0.000000000000e+00 2.600000000000e-01
          4.349999999997e-01 0.000000000000e+00 2.600000000000e-01
          4.399999999997e-01 0.000000000000e+00 2.600000000000e-01
          4.449999999997e-01 0.000000000000e+00 2.600000000000e-01
[...]
      <PointData Scalars="PRESSURE1">
        <DataArray type="Float64" Name="PRESSURE1" format="ascii">
          2.566590300000e+03 -5.032530000000e+01 1.962000000000e+01 2.570220000000e+03 2.516265000000e+03 2.465939700000e+03 2.415614400000e+03 2.365289100000e+03 2.314963800000e+03 2.264638500001e+03 2.214313200001e+03 2.163987900001e+03 2.113662600001e+03 2.063337300001e+03 2.013012000001e+03 1.962686700001e+03 1.912361400001e+03 1.862036100002e+03 1.811710800002e+03 1.761385500002e+03 1.711060200002e+03 1.660734900002e+03 1.610409600002e+03 1.560084300003e+03 1.509759000003e+03 1.459433700003e+03 1.409108400003e+03 1.358783100003e+03 1.308457800003e+03 1.258132500003e+03 1.207807200003e+03 1.157481900003e+03 1.107156600003e+03 1.056831300003e+03 1.006506000003e+03 9.561807000026e+02 9.058554000024e+02 8.555301000022e+02 8.052048000022e+02 7.548795000020e+02 7.045542000019e+02 6.542289000018e+02 6.039036000017e+02 5.535783000015e+02 5.032530000014e+02 4.529277000013e+02 4.026024000011e+02 3.522771000010e+02 3.019518000009e+02 2.516265000007e+02 2.013012000006e+02 1.509759000005e+02 1.006506000004e+02 5.032530000026e+01 1.810262739710e-10 -4.643393713706e+01 -4.377493437146e+01 -4.155485016868e+01 -3.961818203884e+01 -3.787526658442e+01 -3.628424983647e+01 -3.481496294853e+01 -3.344786160666e+01 -3.215601461274e+01 -3.093845831459e+01 -2.978419895915e+01 -2.868462561670e+01 -2.763183288144e+01 -2.662288488670e+01 -2.565004485833e+01 -2.471472358844e+01 -2.381098726102e+01 -2.293484370350e+01 -2.208654747968e+01 -2.126336849256e+01 -2.046230374876e+01 -1.968229003649e+01 -1.892322712209e+01 -1.818039872350e+01 -1.745524730933e+01 -1.674568586283e+01 -1.605215062973e+01 -1.537260205462e+01 -1.470692661114e+01 -1.405442701450e+01 -1.341271845712e+01 -1.278271744080e+01 -1.216463708578e+01 -1.155683260081e+01 -1.095889938481e+01 -1.036963417466e+01 -9.790429878029e+00 -9.218996541901e+00 -8.656542724004e+00 -8.102336639608e+00 -7.555263220891e+00 -7.015494000926e+00 -6.483201202311e+00 -5.957597913969e+00 -5.438866558992e+00 -4.925964400191e+00 -4.419227872607e+00 -3.918686619342e+00 -3.423615858870e+00 -2.933851623995e+00 -2.449914164818e+00 -1.970733920937e+00 -1.496778618295e+00 -1.027483570674e+00 -5.629157792346e-01 -1.028556194533e-01 3.530488520253e-01 8.047138671910e-01 1.252219010601e+00 1.695897014518e+00 2.135661947382e+00 2.571743448122e+00 3.004479599277e+00 3.433488905853e+00 3.859244439068e+00 4.282036911230e+00 4.701745904164e+00 5.118222268651e+00 5.531875174070e+00 5.942898730166e+00 6.350999052417e+00 6.756733323017e+00 7.159925627088e+00 7.560748305143e+00 7.959269826272e+00 8.355608904681e+00 8.749809723923e+00 9.142032651506e+00 9.532351846791e+00 9.920860077426e+00 1.030744552096e+01 1.069249676267e+01 1.107582185026e+01 1.145785663817e+01 1.183825800559e+01 1.221737683772e+01 1.259519284161e+01 1.297181420475e+01 1.334726404900e+01 1.372159323670e+01 1.409498182246e+01 1.446742717385e+01 1.483901042171e+01 1.520979346438e+01 1.557981749450e+01 1.594923494787e+01 1.631799524896e+01 1.668625194136e+01 1.705399708749e+01 1.742132753174e+01 1.778832233889e+01 1.815501790586e+01 1.852146564876e+01 1.888774088677e+01 1.925390446120e+01 6.866999999997e+01 1.177199999998e+02 1.667699999998e+02 2.158199999997e+02 2.648699999996e+02 3.139199999995e+02 3.629699999995e+02 4.120199999993e+02 4.610699999991e+02 5.101199999990e+02 5.591699999989e+02 6.082199999988e+02 6.572699999986e+02 7.063199999985e+02 7.553699999983e+02 8.044199999981e+02 8.534699999980e+02 9.025199999979e+02 9.515699999978e+02 1.000619999998e+03 1.049669999998e+03 1.098719999997e+03 1.147769999997e+03 1.196819999997e+03 1.245869999997e+03 1.294919999997e+03 1.343969999997e+03 1.393019999997e+03 1.442069999997e+03 1.491119999997e+03 1.540169999997e+03 1.589219999998e+03 1.638269999998e+03 1.687319999998e+03 1.736369999998e+03 1.785419999998e+03 1.834469999998e+03 1.883519999998e+03 1.932569999998e+03 1.981619999999e+03 2.030669999999e+03 2.079719999999e+03 2.128769999999e+03 2.177819999999e+03 2.226869999999e+03 2.275919999999e+03 2.324969999999e+03 2.374019999999e+03 2.423070000000e+03 2.472120000000e+03 2.521170000000e+03 2.569895726210e+03 2.569571558845e+03 2.569247604568e+03 2.568923959362e+03 2.568600742576e+03 2.568278044634e+03 2.567956002724e+03 2.567634708521e+03 2.567314344746e+03 2.566995041704e+03 2.566676932639e+03 2.566360135982e+03 2.566044843525e+03 2.565731378381e+03 2.565419723016e+03 2.565110295924e+03 2.564803247951e+03 2.564499092906e+03 2.564198117762e+03 2.563900568055e+03 2.563606825252e+03 2.563318007499e+03 2.563034714677e+03 2.562757386696e+03 2.562488695243e+03 2.562228545221e+03 2.561982215440e+03 2.561750310433e+03 2.561546880402e+03 2.561384764037e+03 2.561312192904e+03 2.561334725243e+03 2.561440620270e+03 2.561563509320e+03 2.561705812904e+03 2.561858495342e+03 2.561997071055e+03 2.562135366703e+03 2.562273271119e+03 2.562412266827e+03 2.562541606555e+03 2.562665133872e+03 2.562786352891e+03 2.562896003495e+03 2.562999802252e+03 2.563105984309e+03 2.563207671223e+03 2.563304927504e+03 2.563397853680e+03 2.563489522920e+03 2.563577118373e+03 2.563662289764e+03 2.563744752509e+03 2.563825090684e+03 2.563903281994e+03 2.563979465855e+03 2.564053862030e+03 2.564126463764e+03 2.564197343856e+03 2.564266727612e+03 2.564334554223e+03 2.564400923504e+03 2.564465939088e+03 2.564529711468e+03 2.564592251684e+03 2.564653709907e+03 2.564714089857e+03 2.564773413585e+03 2.564831798638e+03 2.564889308719e+03 2.564945852421e+03 2.565001609034e+03 2.565056543992e+03 2.565110715420e+03 2.565164096554e+03 2.565216766373e+03 2.565268746034e+03 2.565320091791e+03 2.565370823993e+03 2.565420928462e+03 2.565470463451e+03 2.565519435577e+03 2.565567919699e+03 2.565615868905e+03 2.565663350087e+03 2.565710390147e+03 2.565756999009e+03 2.565803179455e+03 2.565849001685e+03 2.565894438380e+03 2.565939544697e+03 2.565984315995e+03 2.566028810882e+03 2.566073027264e+03 2.566116979717e+03 2.566160733043e+03 2.566204259611e+03 2.566247620805e+03 2.566290800428e+03 2.566333847146e+03 2.566376777450e+03 2.566419601535e+03 2.566462346929e+03 2.566505031398e+03 2.566547675408e+03 8.148626032475e+02 7.947929607961e+02 1.757091326334e+03 2.188987001238e+03 4.110222409330e+02 2.206271042097e+03 3.470267513368e+02 6.213902203870e+02 1.285615524158e+03 2.329467631501e+03 2.312779342212e+02 5.065122310572e+02 1.973929441094e+03 5.634458928265e+02 1.904180652860e+03 2.322393689869e+03 2.345165166820e+02 6.295048521041e+02 2.343758872106e+03 2.416656056531e+02 7.998182040930e+02 6.107568318809e+02 1.911151913284e+03 2.176699781875e+03 3.556375556205e+02 1.955603398601e+03 5.732148751357e+02 6.177033647490e+02 2.004640174242e+03 1.769372274977e+03 4.565485158843e+02 8.159026308374e+02 1.739153381555e+03 1.779899638682e+03 3.065970039433e+02 8.213505669405e+02 1.982277922477e+03 2.303121947840e+03 4.856120522930e+02 1.982632668806e+03 6.280827462904e+02 6.751483353269e+02 1.852707976286e+03 1.971226672381e+03 2.069446527334e+03 2.099066337877e+03 2.693081208655e+02 2.742645209627e+02 2.035051886279e+03 2.121175417076e+03 2.105578689139e+03 4.492237721304e+02 4.715287705320e+02 2.150256831997e+03 2.121986354759e+03 3.599585693615e+02 3.705241389675e+02 2.170943293932e+03 3.166930681613e+02 2.340202496998e+03 4.241277162802e+02 2.270157501240e+03 1.413320894263e+02 2.214551116404e+03 2.317376766149e+03 2.418449431455e+03 2.703707419731e+02 2.273383146174e+03 2.662008555278e+02 1.988326922981e+02 2.447835661838e+03 2.237011726092e+02 2.398107831396e+03 2.472669136142e+03 2.200360635735e+02 2.452634812086e+03 1.178495086252e+02 2.413515786412e+03 2.422824544024e+03 1.673817274329e+02 2.464528093147e+03 2.459862147498e+03 2.522121339229e+03 2.489022086363e+03 9.295995545637e+01 7.674330649583e+02 1.731723488575e+03 7.856550850316e+02 1.357775851810e+03 4.663867945323e+02 2.093827701052e+03 2.081621560519e+03 3.735637416116e+02 4.537147799037e+02 2.749985574167e+02 2.276440888124e+03 9.508230019907e+02 1.739342247012e+03 1.951870701623e+03 2.308209898968e+03 1.548887073218e+03 9.687788238843e+02 3.044678768702e+02 1.609252558477e+03 2.392305841285e+03 1.585789470272e+03 4.418532918141e+02 2.109425176057e+03 1.296768662271e+02 9.799685493375e+02 1.642025191252e+03 9.161760961128e+02 3.824037001265e+02 1.125203181352e+03 2.140573911831e+03 3.488384516239e+02 1.389877043807e+02 9.265800783831e+02 1.660092300598e+03 2.024240502230e+03 5.526143563699e+02 2.677629489786e+02 2.387797572966e+03 1.626064781870e+02 2.204886000319e+03 1.436603785413e+03 1.069427553589e+03 2.021531000353e+02 2.389771523737e+03 2.210072730700e+03 2.316332000529e+03 3.185729458672e+02 2.345218393024e+03 3.251428547021e+02 2.264490626469e+03 2.370304572101e+03 2.140100167979e+03 2.386399752189e+03 2.202434954152e+03 2.371923167371e+03 1.349391214945e+03 2.183473445454e+03 3.892498109720e+02 1.490189423107e+02 2.427996060598e+03 6.340661814099e+01 2.482573556401e+03 1.868784480502e+03 7.376265229246e+02 2.041898254131e+03 7.494106386919e+02 1.666420343143e+03 2.380235688510e+03 2.413761151925e+03 2.095219325025e+02 1.642813628048e+02 8.646598947837e+01 7.063335930928e+02 2.348547456825e+02 2.333145328039e+03 1.155274924024e+02 9.369990556357e+02 1.193835051892e+03 2.263051465191e+03 6.167667086423e+02 1.104282040158e+03 6.215656150583e+02 2.335257042334e+02 2.367665348300e+03 1.964052423782e+03 6.076110993732e+02 2.352732479979e+02 1.261886861501e+02 1.568027688805e+02 2.329284245571e+03 1.972362981880e+03 1.596376411570e+03 1.974342395658e+03 4.919446541786e+02 2.056041099804e+03 1.675063102614e+03 1.691311996877e+02 5.257073090887e+02 2.076253621535e+03 2.231022723066e+03 3.392695876884e+02 2.105722200538e+03 2.123269844128e+03 2.361276299425e+03 9.980159122504e+02 2.445035156007e+03 6.887576054844e+02 1.748392161977e+03 1.168189908937e+02 1.252285054643e+02 7.561549364027e+02 2.065349197979e+03 1.260585886429e+02 1.117496306154e+02 1.860451246494e+03 2.171981360862e+03 9.442699211930e+02 5.384297185377e+02 1.777101366961e+02 4.289080191856e+02 2.033720749526e+02 7.447674908873e+02 7.923233764979e+01 5.587855520937e+02 2.442135357816e+03 1.737646674124e+03 2.104345640757e+03 3.166978442210e+02 7.611447540033e+02 2.374070445603e+03 1.493495740127e+02 5.267254758487e+02 7.008116399116e+02 2.135127600597e+03 4.441728741560e+02 2.187270681101e+03 5.308368435946e+02 2.478055849574e+03 3.788560355818e+02 1.153180334967e+02 2.460882052414e+03 4.693727835403e+02 3.254588681006e+02 2.416115962675e+03 1.075410490523e+02 2.455881911884e+03 2.226673476911e+03 2.705739381725e+02 2.418211067539e+03 2.911394916143e+02 2.884653551419e+02 1.071543385479e+02 2.455485935296e+03 4.867365211220e+02 5.138728339046e+02 1.823835602130e+03 4.785649212915e+02 2.475693141468e+03 4.934515883582e+02 5.794850890550e+02 5.326428965560e+02 1.310392406761e+02 6.220396912804e+02 1.905698057245e+03 2.908675337973e+02 2.268441776182e+03 3.441694295842e+02 8.574509048654e+01 2.478952326442e+03 2.043612314510e+03 2.334555911514e+03 2.147404345965e+02 4.212306467140e+02 3.066883855631e+02 1.894911774008e+03 3.631221333157e+02 2.466159790954e+03 7.704883852713e+02 2.426269888954e+03 9.024314132612e+01 2.474494047922e+03 2.290675409468e+03 6.922434769504e+01 5.389010210063e+02 1.921067261766e+03 2.482679436784e+03 2.256330671205e+03 2.331048465474e+03 1.061849406113e+02 2.381955151334e+03 2.261685713300e+02 2.283643625425e+03 3.094160638818e+02 7.283129977670e+02 1.889338916550e+03 1.716904249516e+02 6.421351443851e+02 3.683239714130e+02 8.676247444444e+01 2.385130409157e+03 1.925695448171e+02 2.244763482893e+03 1.884480642816e+03 2.408694656528e+02 1.807016835337e+03 1.210414571015e+02 2.308324505234e+03 2.423149906755e+03 4.252804910906e+01 2.345779605226e+03 2.069605078852e+02 2.920365430753e+02 2.268957829876e+03 2.513625377330e+03 2.804453333080e+02 2.194334717489e+03 2.313379630043e+02 2.353202351974e+03 5.940767827456e+01 2.402197020109e+03 2.494130625575e+03 2.102842486473e+03 2.345923055952e+03 2.490822879853e+03 4.931232997920e+02 2.319689508785e+03 2.057918800861e+02 2.523944307340e+03 1.650500723401e+02 2.414838632299e+03 1.814211816950e+02 6.274356784506e+02 1.270295100261e+02 2.491451629604e+03 2.228683219772e+03 4.461370532488e+02 1.527819365547e+02 2.476244539714e+02 2.439474036077e+03 6.374140563332e+02 2.522392826947e+03 6.051978774617e+02 1.946987414968e+03 2.288984136864e+03 2.401034578722e+03 2.257983421769e+03 2.094671411913e+02 2.974172679541e+02 4.158667284532e+02 2.226353270685e+03 8.485810986305e+01 1.781955402235e+02 8.100409536310e+01 1.985606311765e+02 2.189159693445e+03 2.426856263132e+03 2.444711940795e+03 2.489117912072e+03 2.404863350608e+03 2.355878068821e+02 3.224434068399e+02 9.118271405097e+01 6.234818186109e+02 5.301082299207e+02 6.527715199428e+02 6.714115104630e+02 4.450370777036e+02 1.910002744267e+03 1.319614862646e+02 1.086725735512e+02 2.383079675308e+03 2.026730795227e+03 2.452340967962e+03 1.460765643044e+02 2.185594012709e+03 1.747464800953e+03 1.889110460330e+03 8.081859166897e+02 1.752142955661e+03 1.536221802906e+03 1.323193256850e+03 1.209257901746e+03 1.054394997194e+03 1.208046815214e+03 1.917257340493e+03 1.724073635840e+03 5.711925232385e+02 1.080876711733e+03 5.687613441815e+02 1.309770517860e+03 1.219796809137e+03 1.345713909414e+03 1.414080741363e+03 7.603699958295e+02 1.426660459224e+03 7.403055128679e+02 1.339678772013e+03 1.585663056646e+03 9.959640848136e+02 1.057441420125e+03 1.895975514038e+03 9.902182988846e+02 1.121704903681e+03 8.986384314552e+02 1.928207897700e+03 1.883194547052e+03 1.521105182580e+03 8.656058136543e+02 1.879488909211e+03 1.941862411621e+03 1.366012419206e+03 1.412801323273e+03 1.564957726853e+03 9.794296240465e+02 1.951025062810e+03 1.535753430372e+03 1.139599329553e+03 6.227358706254e+02 6.041235136925e+02 2.004529535282e+02 8.914057926372e+02 1.317835066864e+03 1.558610822594e+03 1.628191239206e+03 1.555286762879e+03 1.165418828889e+03 2.355271762653e+03 1.865164665284e+03 1.404680028319e+02 1.113032453197e+03 1.804379473569e+03 1.395185143181e+03 1.635872459810e+03 2.226519103092e+02 1.683754281707e+03 2.071115553548e+02 2.368546477801e+03 1.177237688106e+03 6.789544307856e+02 1.637676361832e+03 2.134575736087e+03 8.817752815499e+02 4.249727018963e+02 1.932068268117e+03 6.215925175369e+02 2.118129849702e+03 1.765783484910e+03 9.201077780501e+02 2.423616321495e+03 1.548337019814e+02 1.164586807871e+03 3.462727936161e+02 1.531014693754e+03 2.165073355047e+03 2.414984105756e+03 2.392462905090e+03 6.291775292758e+02 2.298184078249e+03 2.034821440604e+03 5.337825422577e+02 1.801495399955e+03 1.074862895058e+03 6.006985215746e+02 1.492860286101e+02 1.967435394242e+03 1.313067775390e+02 4.997772231923e+02 2.434904171789e+03 1.217927849818e+02 2.870892561906e+02 9.191300937387e+02 2.284863479690e+03 1.756161833297e+03 1.035730059985e+03 1.916352266925e+03 7.873916557801e+02 4.467834609655e+02 7.876716962424e+02 7.105590408343e+02 7.232230356835e+02 1.014787010913e+02 2.173233080163e+03 2.151044801511e+02 4.352789393328e+02 5.927473669469e+02 6.705710235328e+02 5.187516571173e+02 1.599718659078e+02 2.314355537850e+03 8.971414307322e+02 8.742526661548e+02 1.784309340200e+02 2.043824843274e+03 2.392091093439e+03 1.951638275272e+03 5.192912881964e+02 2.000713343777e+03 2.204204860830e+03 1.529603906985e+03 9.668502614836e+02 2.101924914492e+03 2.423306959176e+03 1.950319836645e+02 2.147517396144e+03 2.029040503293e+02 1.339010794934e+03 8.180226898309e+02 6.038842430156e+02 2.068246884198e+03 4.254383861238e+02 2.102799390289e+03 2.050047408007e+03 3.066217282214e+02 6.055042993182e+01 2.297591302294e+02 1.868217719162e+03 2.185212808075e+03 4.320920200457e+02 4.223695866168e+02 2.094041983619e+03 3.568282473634e+02 1.355508397972e+03 3.936141919721e+02 1.722353866812e+03 1.006277887314e+03 4.305952278422e+02 1.197600636706e+03 2.265603259646e+03 2.522443737585e+02 4.776571053527e+02 1.893078058083e+03 1.250655780797e+02 2.126022272962e+03 2.126304765280e+03 9.464639610843e+01 2.255379107675e+03 2.051576133371e+03 2.445443122517e+03 6.728242814939e+02 2.234050403167e+03 1.821800262636e+03 2.243683849809e+03 2.251424985473e+03 2.215597989135e+03 2.280310798029e+03 2.276893355847e+03 1.640675698449e+03 2.146955316564e+03 2.038497222952e+03 1.917679062088e+03 2.116880778103e+03 2.425059816524e+02 4.139122556955e+02 3.137356594183e+02 3.684234543540e+02 8.005572463335e+02 1.689777909446e+03 5.270253488963e+02 3.331668571984e+02 2.424305295077e+03 2.357235316683e+03 2.103378564447e+02 1.267494656777e+02 2.293704669963e+03 1.666181546748e+03 4.348952024155e+02 1.704629066209e+03 2.733642220776e+02 1.701172508255e+03 3.368310970182e+02 4.100387242323e+02 2.062827152414e+03 2.454462403444e+02 6.655613777433e+02 2.248787571807e+02 6.264282051764e+02 1.953787816746e+03 2.048243192994e+02 2.096493516624e+03 6.751373419689e+02 1.846906101850e+03 2.486045544438e+03 8.247895917709e+02 4.514527258430e+02 2.308517237598e+03 5.738608876760e+02 2.360114246848e+03 1.972563436518e+03 2.477861755513e+02 3.183457130513e+02 1.609926244941e+02 2.274184993263e+03 1.961776266965e+03 2.390360780275e+02 2.193248825426e+03 9.455504444975e+02 1.743307776565e+03 1.851262972733e+03 3.879209581116e+02 2.006385576866e+03 2.645412352281e+02 1.832706974214e+03 2.266941825826e+03 4.416768297273e+02 6.037902975046e+02 7.762074173161e+02 6.889111175653e+01 2.705969191529e+02 1.877430714352e+03 1.861891167214e+03 7.956757863827e+01 2.415288163885e+03 2.323608850285e+03 1.777626191440e+03 5.162072598095e+01 2.589500205564e+02 1.389683410121e+02 2.427672778637e+03 2.155974696704e+03 2.456897698909e+03 2.185162486421e+03 1.085424140192e+03 4.418324917422e+02 2.007147579457e+03 8.571885118652e+01 2.306369659367e+02 2.243217435304e+03 7.185805121406e+02 6.873637086637e+02 2.348395942691e+03 1.265299007350e+03 1.687602091441e+03 7.640576778542e+01 1.802590389639e+03 2.292135774399e+03 2.363790587774e+03 2.838133984468e+02 1.623515244646e+02 3.238436471270e+02 1.825733347414e+02 3.831946699865e+02 6.704744752261e+02 1.930181567696e+03 4.805300002326e+02 2.489080649639e+03 2.221934103063e+03 2.463872163477e+03 2.324874538989e+02 2.005252978142e+03 3.999065836080e+02 1.552257061227e+03 2.496340936886e+03 2.348293526745e+03 2.344859610436e+03 6.449087060406e+02 1.782350873567e+02 7.853076527337e+01 1.822491402935e+02 5.430747544429e+02 2.072014992453e+03 2.084783032030e+03 2.053200677009e+03 2.193436444819e+03 2.095476487868e+03 2.322442547273e+03 2.024015031962e+03 2.265513910962e+03 1.181733823106e+03 7.456581729839e+02 3.042425355001e+02 1.984509021144e+03 2.185589300316e+03 2.403511454141e+03 9.118069760274e+02 2.286861155817e+03 3.225644837079e+02 1.865403803711e+03 7.191651076199e+02 1.543150250652e+03 1.510656012200e+02 2.268192018638e+03 2.246848890807e+03 1.846785704869e+03 2.731742929826e+02 2.180969161690e+03 2.487793986016e+03 1.725863846352e+03 2.038952593797e+03 2.013201042826e+03 2.374798163660e+03 2.487480665046e+03 2.098517677376e+03 1.892210005653e+02 2.106712882426e+03 2.237286636834e+03 7.276316507335e+02 8.639969616441e+02 6.384585291559e+01 3.880970549207e+02 6.858819194754e+02 5.103984104136e+02 1.691672621250e+03 1.452849395739e+03 3.142039308061e+02 1.969774180569e+03 2.471583269279e+03 5.876337860084e+02 2.166883368209e+03 1.773360559514e+03 3.114147508808e+02 3.964414387706e+02 4.501187668515e+02 2.380968129716e+03 5.743295088153e+01 2.352225046527e+03 2.164494923461e+03 2.397487897827e+03 2.908676286526e+02 2.391847385660e+03 2.096726656771e+03 6.698112731346e+02 1.980788253654e+03 5.832100817010e+02 2.219322988138e+03 6.912161719271e+02 3.881535594083e+02 8.364681874308e+02 3.759772590897e+02 2.068740297909e+03 2.345617524775e+03 6.040302913447e+02 3.011887146167e+02 2.170911112019e+02 2.163346754434e+03 2.045339368611e+03 3.726441346194e+02 1.795387143399e+02 1.935413682468e+03 2.017134337697e+03 1.678630441026e+03 4.411014130477e+02 2.381405742375e+03 1.664720177