<?xml version="1.0"?>
<!-- Time step: 149 | Time: 2.900000000000e+04 -->
<VTKFile type="UnstructuredGrid" version="0.1" byte_order="LittleEndian">
  <UnstructuredGrid>
    <Piece NumberOfPoints="6824" NumberOfCells="13330">
      <Points>
        <DataArray type="Float64" NumberOfComponents="3" format="ascii">
          0.000000000000e+00 0.000000000000e+00 0.000000000000e+00
          0.000000000000e+00 0.000000000000e+00 2.600000000000e-01
          5.300000000000e-01 0.000000000000e+00 2.600000000000e-01
          5.300000000000e-01 0.000000000000e+00 0.000000000000e+00
          0.000000000000e+00 0.000000000000e+00 4.999999999991e-03
          0.000000000000e+00 0.000000000000e+00 9.999999999982e-03
          0.000000000000e+00 0.000000000000e+00 1.499999999997e-02
          0.000000000000e+00 0.000000000000e+00 1.999999999996e-02
          0.000000000000e+00 0.000000000000e+00 2.499999999996e-02
          0.000000000000e+00 0.000000000000e+00 2.999999999995e-02
          0.000000000000e+00 0.000000000000e+00 3.499999999994e-02
          0.000000000000e+00 0.000000000000e+00 3.999999999992e-02
          0.000000000000e+00 0.000000000000e+00 4.499999999991e-02
          0.000000000000e+00 0.000000000000e+00 4.999999999990e-02
          0.000000000000e+00 0.000000000000e+00 5.499999999988e-02
          0.000000000000e+00 0.000000000000e+00 5.999999999987e-02
          0.000000000000e+00 0.000000000000e+00 6.499999999985e-02
          0.000000000000e+00 0.000000000000e+00 6.999999999983e-02
          0.000000000000e+00 0.000000000000e+00 7.499999999983e-02
          0.000000000000e+00 0.000000000000e+00 7.999999999981e-02
          0.000000000000e+00 0.000000000000e+00 8.499999999979e-02
          0.000000000000e+00 0.000000000000e+00 8.999999999978e-02
          0.000000000000e+00 0.000000000000e+00 9.499999999977e-02
          0.000000000000e+00 0.000000000000e+00 9.999999999975e-02
          0.000000000000e+00 0.000000000000e+00 1.049999999997e-01
          0.000000000000e+00 0.000000000000e+00 1.099999999997e-01
          0.000000000000e+00 0.000000000000e+00 1.149999999997e-01
          0.000000000000e+00 0.000000000000e+00 1.199999999997e-01
          0.000000000000e+00 0.000000000000e+00 1.249999999997e-01
          0.000000000000e+00 0.000000000000e+00 1.299999999997e-01
          0.000000000000e+00 0.000000000000e+00 1.349999999997e-01
          0.000000000000e+00 0.000000000000e+00 1.399999999997e-01
          0.000000000000e+00 0.000000000000e+00 1.449999999997e-01
          0.000000000000e+00 0.000000000000e+00 1.499999999997e-01
          0.000000000000e+00 0.000000000000e+00 1.549999999997e-01
          0.000000000000e+00 0.000000000000e+00 1.599999999997e-01
          0.000000000000e+00 0.000000000000e+00 1.649999999998e-01
          0.000000000000e+00 0.000000000000e+00 1.699999999998e-01
          0.000000000000e+00 0.000000000000e+00 1.749999999998e-01
          0.000000000000e+00 0.000000000000e+00 1.799999999998e-01
          0.000000000000e+00 0.000000000000e+00 1.849999999998e-01
          0.000000000000e+00 0.000000000000e+00 1.899999999998e-01
          0.000000000000e+00 0.000000000000e+00 1.949999999998e-01
          0.000000000000e+00 0.000000000000e+00 1.999999999999e-01
          0.000000000000e+00 0.000000000000e+00 2.049999999999e-01
          0.000000000000e+00 0.000000000000e+00 2.099999999999e-01
          0.000000000000e+00 0.000000000000e+00 2.149999999999e-01
          0.000000000000e+00 0.000000000000e+00 2.199999999999e-01
          0.000000000000e+00 0.000000000000e+00 2.249999999999e-01
          0.000000000000e+00 0.000000000000e+00 2.299999999999e-01
          0.000000000000e+00 0.000000000000e+00 2.349999999999e-01
          0.000000000000e+00 0.000000000000e+00 2.399999999999e-01
          0.000000000000e+00 0.000000000000e+00 2.450000000000e-01
          0.000000000000e+00 0.000000000000e+00 2.500000000000e-01
          0.000000000000e+00 0.000000000000e+00 2.550000000000e-01
          4.999999999991e-03 0.000000000000e+00 2.600000000000e-01
          9.999999999981e-03 0.000000000000e+00 2.600000000000e-01
          1.499999999997e-02 0.000000000000e+00 2.600000000000e-01
          1.999999999996e-02 0.000000000000e+00 2.600000000000e-01
          2.499999999995e-02 0.000000000000e+00 2.600000000000e-01
          2.999999999994e-02 0.000000000000e+00 2.600000000000e-01
          3.499999999993e-02 0.000000000000e+00 2.600000000000e-01
          3.999999999992e-02 0.000000000000e+00 2.600000000000e-01
          4.499999999992e-02 0.000000000000e+00 2.600000000000e-01
          4.999999999991e-02 0.000000000000e+00 2.600000000000e-01
          5.499999999990e-02 0.000000000000e+00 2.600000000000e-01
          5.999999999990e-02 0.000000000000e+00 2.600000000000e-01
          6.499999999989e-02 0.000000000000e+00 2.600000000000e-01
          6.999999999988e-02 0.000000000000e+00 2.600000000000e-01
          7.499999999986e-02 0.000000000000e+00 2.600000000000e-01
          7.999999999985e-02 0.000000000000e+00 2.600000000000e-01
          8.499999999983e-02 0.000000000000e+00 2.600000000000e-01
          8.999999999981e-02 0.000000000000e+00 2.600000000000e-01
          9.499999999980e-02 0.000000000000e+00 2.600000000000e-01
          9.999999999979e-02 0.000000000000e+00 2.600000000000e-01
          1.049999999998e-01 0.000000000000e+00 2.600000000000e-01
          1.099999999998e-01 0.000000000000e+00 2.600000000000e-01
          1.149999999997e-01 0.000000000000e+00 2.600000000000e-01
          1.199999999997e-01 0.000000000000e+00 2.600000000000e-01
          1.249999999997e-01 0.000000000000e+00 2.600000000000e-01
          1.299999999997e-01 0.000000000000e+00 2.600000000000e-01
          1.349999999997e-01 0.000000000000e+00 2.600000000000e-01
          1.399999999997e-01 0.000000000000e+00 2.600000000000e-01
          1.449999999997e-01 0.000000000000e+00 2.600000000000e-01
          1.499999999996e-01 0.000000000000e+00 2.600000000000e-01
          1.549999999996e-01 0.000000000000e+00 2.600000000000e-01
          1.599999999996e-01 0.000000000000e+00 2.600000000000e-01
          1.649999999996e-01 0.000000000000e+00 2.600000000000e-01
          1.699999999996e-01 0.000000000000e+00 2.600000000000e-01
          1.749999999996e-01 0.000000000000e+00 2.600000000000e-01
          1.799999999995e-01 0.000000000000e+00 2.600000000000e-01
          1.849999999995e-01 0.000000000000e+00 2.600000000000e-01
          1.899999999995e-01 0.000000000000e+00 2.600000000000e-01
          1.949999999995e-01 0.000000000000e+00 2.600000000000e-01
          1.999999999995e-01 0.000000000000e+00 2.600000000000e-01
          2.049999999995e-01 0.000000000000e+00 2.600000000000e-01
          2.099999999995e-01 0.000000000000e+00 2.600000000000e-01
          2.149999999994e-01 0.000000000000e+00 2.600000000000e-01
          2.199999999994e-01 0.000000000000e+00 2.600000000000e-01
          2.249999999994e-01 0.000000000000e+00 2.600000000000e-01
          2.299999999994e-01 0.000000000000e+00 2.600000000000e-01
          2.349999999994e-01 0.000000000000e+00 2.600000000000e-01
          2.399999999994e-01 0.000000000000e+00 2.600000000000e-01
          2.449999999993e-01 0.000000000000e+00 2.600000000000e-01
          2.499999999993e-01 0.000000000000e+00 2.600000000000e-01
          2.549999999993e-01 0.000000000000e+00 2.600000000000e-01
          2.599999999993e-01 0.000000000000e+00 2.600000000000e-01
          2.649999999993e-01 0.000000000000e+00 2.600000000000e-01
          2.699999999993e-01 0.000000000000e+00 2.600000000000e-01
          2.749999999993e-01 0.000000000000e+00 2.600000000000e-01
          2.799999999993e-01 0.000000000000e+00 2.600000000000e-01
          2.849999999993e-01 0.000000000000e+00 2.600000000000e-01
          2.899999999993e-01 0.000000000000e+00 2.600000000000e-01
          2.949999999993e-01 0.000000000000e+00 2.600000000000e-01
          2.999999999994e-01 0.000000000000e+00 2.600000000000e-01
          3.049999999994e-01 0.000000000000e+00 2.600000000000e-01
          3.099999999994e-01 0.000000000000e+00 2.600000000000e-01
          3.149999999994e-01 0.000000000000e+00 2.600000000000e-01
          3.199999999994e-01 0.000000000000e+00 2.600000000000e-01
          3.249999999994e-01 0.000000000000e+00 2.600000000000e-01
          3.299999999994e-01 0.000000000000e+00 2.600000000000e-01
          3.349999999995e-01 0.000000000000e+00 2.600000000000e-01
          3.399999999995e-01 0.000000000000e+00 2.600000000000e-01
          3.449999999995e-01 0.000000000000e+00 2.600000000000e-01
          3.499999999995e-01 0.000000000000e+00 2.600000000000e-01
          3.549999999995e-01 0.000000000000e+00 2.600000000000e-01
          3.599999999995e-01 0.000000000000e+00 2.600000000000e-01
          3.649999999996e-01 0.000000000000e+00 2.600000000000e-01
          3.699999999996e-01 0.000000000000e+00 2.600000000000e-01
          3.749999999996e-01 0.000000000000e+00 2.600000000000e-01
          3.799999999996e-01 0.000000000000e+00 2.600000000000e-01
          3.849999999996e-01 0.000000000000e+00 2.600000000000e-01
          3.899999999996e-01 0.000000000000e+00 2.600000000000e-01
          3.949999999996e-01 0.000000000000e+00 2.600000000000e-01
          3.999999999996e-01 0.000000000000e+00 2.600000000000e-01
          4.049999999996e-01 0.000000000000e+00 2.600000000000e-01
          4.099999999996e-01 0.000000000000e+00 2.600000000000e-01
          4.149999999997e-01 0.000000000000e+00 2.600000000000e-01
          4.199999999997e-01 0.000000000000e+00 2.600000000000e-01
          4.249999999997e-01 0.000000000000e+00 2.600000000000e-01
          4.299999999997e-01 0.000000000000e+00 2.600000000000e-01
          4.349999999997e-01 0.000000000000e+00 2.600000000000e-01
          4.399999999997e-01 0.000000000000e+00 2.600000000000e-01
          4.449999999997e-01 0.000000000000e+00 2.600000000000e-01
[...]
      <PointData Scalars="PRESSURE1">
        <DataArray type="Float64" Name="PRESSURE1" format="ascii">
          2.566590300000e+03 -5.032530000000e+01 5.395500000000e+01 2.604555000000e+03 2.516265000000e+03 2.465939700000e+03 2.415614400000e+03 2.365289100000e+03 2.314963800000e+03 2.264638500001e+03 2.214313200001e+03 2.163987900001e+03 2.113662600001e+03 2.063337300001e+03 2.013012000001e+03 1.962686700001e+03 1.912361400001e+03 1.862036100002e+03 1.811710800002e+03 1.761385500002e+03 1.711060200002e+03 1.660734900002e+03 1.610409600002e+03 1.560084300003e+03 1.509759000003e+03 1.459433700003e+03 1.409108400003e+03 1.358783100003e+03 1.308457800003e+03 1.258132500003e+03 1.207807200003e+03 1.157481900003e+03 1.107156600003e+03 1.056831300003e+03 1.006506000003e+03 9.561807000026e+02 9.058554000024e+02 8.555301000022e+02 8.052048000022e+02 7.548795000020e+02 7.045542000019e+02 6.542289000018e+02 6.039036000017e+02 5.535783000015e+02 5.032530000014e+02 4.529277000013e+02 4.026024000011e+02 3.522771000010e+02 3.019518000009e+02 2.516265000007e+02 2.013012000006e+02 1.509759000005e+02 1.006506000004e+02 5.032530000026e+01 1.810262739710e-10 -4.587433571414e+01 -4.268365531403e+01 -3.994395535241e+01 -3.749732029875e+01 -3.525374915538e+01 -3.317259487915e+01 -3.122416112287e+01 -2.938967939433e+01 -2.764006404606e+01 -2.597675487619e+01 -2.438778413923e+01 -2.286361252347e+01 -2.139809948584e+01 -1.998509515588e+01 -1.861653121389e+01 -1.729473551626e+01 -1.601483286125e+01 -1.476936987243e+01 -1.355958383700e+01 -1.238259250447e+01 -1.123434184380e+01 -1.011339586029e+01 -9.017836589780e+00 -7.945307415382e+00 -6.895237615566e+00 -5.866301401397e+00 -4.858115464370e+00 -3.867671771489e+00 -2.895039854046e+00 -1.938370910522e+00 -9.965042783735e-01 -7.015079402884e-02 8.421183661902e-01 1.741477297669e+00 2.628906843660e+00 3.504807997648e+00 4.369121221216e+00 5.223835872765e+00 6.067717840620e+00 6.902352853738e+00 7.728665252299e+00 8.546550295255e+00 9.356134965113e+00 1.015832799476e+01 1.095306443192e+01 1.174158176389e+01 1.252364893131e+01 1.329933807824e+01 1.406950280044e+01 1.483442835022e+01 1.559370121449e+01 1.634844403020e+01 1.709831981815e+01 1.784395160287e+01 1.858536628906e+01 1.932284157086e+01 2.005676252529e+01 2.078714107664e+01 2.151411573348e+01 2.223803497900e+01 2.295889310060e+01 2.367693935097e+01 2.439248595018e+01 2.510531321944e+01 2.581581787672e+01 2.652425621963e+01 2.723059109382e+01 2.793476539985e+01 2.863709728593e+01 2.933775123850e+01 3.003658113097e+01 3.073396126750e+01 3.142981934864e+01 3.212428702867e+01 3.281743057964e+01 3.350934386650e+01 3.420007444267e+01 3.488973232075e+01 3.557837465389e+01 3.626606856023e+01 3.695277356194e+01 3.763870081151e+01 3.832376934223e+01 3.900820526119e+01 3.969185008266e+01 4.037488468906e+01 4.105730678680e+01 4.173917399285e+01 4.242050427014e+01 4.310132660162e+01 4.378172769038e+01 4.446171045993e+01 4.514131454473e+01 4.582057043548e+01 4.649949858468e+01 4.717816685378e+01 4.785655554569e+01 4.853473129921e+01 4.921269210908e+01 4.989047942095e+01 5.056812695153e+01 5.124565032006e+01 5.192307115769e+01 5.260042078393e+01 5.327772439673e+01 1.030050000000e+02 1.520549999998e+02 2.011049999998e+02 2.501549999997e+02 2.992049999996e+02 3.482549999995e+02 3.973049999995e+02 4.463549999993e+02 4.954049999991e+02 5.444549999990e+02 5.935049999989e+02 6.425549999988e+02 6.916049999986e+02 7.406549999985e+02 7.897049999983e+02 8.387549999981e+02 8.878049999980e+02 9.368549999979e+02 9.859049999978e+02 1.034954999998e+03 1.084004999998e+03 1.133054999997e+03 1.182104999997e+03 1.231154999997e+03 1.280204999997e+03 1.329254999997e+03 1.378304999997e+03 1.427354999997e+03 1.476404999997e+03 1.525454999997e+03 1.574504999997e+03 1.623554999998e+03 1.672604999998e+03 1.721654999998e+03 1.770704999998e+03 1.819754999998e+03 1.868804999998e+03 1.917854999998e+03 1.966904999998e+03 2.015954999999e+03 2.065004999999e+03 2.114054999999e+03 2.163104999999e+03 2.212154999999e+03 2.261204999999e+03 2.310254999999e+03 2.359304999999e+03 2.408354999999e+03 2.457405000000e+03 2.506455000000e+03 2.555505000000e+03 2.603891208039e+03 2.603227441806e+03 2.602563726957e+03 2.601900086361e+03 2.601236548150e+03 2.600573133100e+03 2.599909872544e+03 2.599246786290e+03 2.598583914163e+03 2.597921282929e+03 2.597258918604e+03 2.596596842374e+03 2.595935089163e+03 2.595273719489e+03 2.594612718890e+03 2.593952160936e+03 2.593292058265e+03 2.592632487644e+03 2.591973476513e+03 2.591315038343e+03 2.590657200142e+03 2.590000089300e+03 2.589343729284e+03 2.588688113037e+03 2.588033431974e+03 2.587379573998e+03 2.586726791681e+03 2.586074886218e+03 2.585424229762e+03 2.584774705072e+03 2.584126495704e+03 2.583479621203e+03 2.582834249061e+03 2.582190424085e+03 2.581548162892e+03 2.580907703599e+03 2.580269324296e+03 2.579632885273e+03 2.578998575962e+03 2.578366519998e+03 2.577737146276e+03 2.577110388247e+03 2.576486290600e+03 2.575865588013e+03 2.575248178854e+03 2.574633893643e+03 2.574023627899e+03 2.573417350143e+03 2.572815539755e+03 2.572218156450e+03 2.571626570409e+03 2.571039903379e+03 2.570459501065e+03 2.569885441134e+03 2.569318613815e+03 2.568759551052e+03 2.568208530172e+03 2.567667063089e+03 2.567136137465e+03 2.566615931756e+03 2.566108883773e+03 2.565616711277e+03 2.565141572277e+03 2.564685962929e+03 2.564254499223e+03 2.563852125085e+03 2.563493003759e+03 2.563198928573e+03 2.563005814671e+03 2.563001441491e+03 2.563123800070e+03 2.563304993550e+03 2.563490394728e+03 2.563687969716e+03 2.563863737375e+03 2.564032482307e+03 2.564190646906e+03 2.564338018805e+03 2.564474852516e+03 2.564599098242e+03 2.564714609546e+03 2.564823050134e+03 2.564926172507e+03 2.565024112721e+03 2.565117934503e+03 2.565208124706e+03 2.565294906414e+03 2.565378432647e+03 2.565459327939e+03 2.565537497342e+03 2.565613398933e+03 2.565687077085e+03 2.565758972419e+03 2.565829102256e+03 2.565897596399e+03 2.565964869863e+03 2.566030771177e+03 2.566095684142e+03 2.566159520314e+03 2.566222575585e+03 2.566284951175e+03 2.566346710005e+03 2.566408014318e+03 2.566468968128e+03 2.566529689699e+03 8.401481852966e+02 8.090582397511e+02 1.779663264795e+03 2.194044586770e+03 4.347789338220e+02 2.227865747313e+03 3.612633994256e+02 6.322946724276e+02 1.304034274179e+03 2.331370045760e+03 2.552074126641e+02 5.166546760023e+02 2.000151469318e+03 5.730375729691e+02 1.931662141746e+03 2.322599281112e+03 2.596368236888e+02 6.381863360113e+02 2.343179413412e+03 2.681279580425e+02 8.082104515735e+02 6.187867972743e+02 1.940493994053e+03 2.176447805406e+03 3.837658758868e+02 1.985849627478e+03 5.799210327586e+02 6.476644700289e+02 2.004533138437e+03 1.800308335346e+03 4.858080772151e+02 8.209534411861e+02 1.739453642273e+03 1.811987973384e+03 3.142701935441e+02 8.536920891299e+02 1.982132012679e+03 2.332138162919e+03 5.157870238559e+02 1.982492946643e+03 6.327300886992e+02 7.067389301856e+02 1.852651997863e+03 2.001795521682e+03 2.099925891681e+03 2.098889879167e+03 2.995099082161e+02 2.801813525163e+02 2.066158627661e+03 2.121015445741e+03 2.137259842700e+03 4.543398442928e+02 5.028994973350e+02 2.181242231058e+03 2.121857685676e+03 3.638610744318e+02 4.026561846455e+02 2.203378946913e+03 3.206051211444e+02 2.340061930770e+03 4.569107032061e+02 2.270039809156e+03 1.731251665617e+02 2.214484123461e+03 2.349724380260e+03 2.418321188084e+03 3.027052735762e+02 2.306798512251e+03 2.988296230339e+02 2.013429621733e+02 2.447736008949e+03 2.251867155432e+02 2.431098822766e+03 2.472583694853e+03 2.535733146983e+02 2.485746084118e+03 1.195712708918e+02 2.413483471093e+03 2.456697208488e+03 2.011681404290e+02 2.464497399996e+03 2.493717215503e+03 2.522094388921e+03 2.489008741287e+03 1.269707854801e+02 7.963193829896e+02 1.758908264259e+03 7.959301723584e+02 1.366600428682e+03 4.865950475519e+02 2.107550093627e+03 2.099864566526e+03 3.909431227829e+02 4.726540401666e+02 2.935766268842e+02 2.290065090190e+03 9.584736574498e+02 1.768318119068e+03 1.954703541629e+03 2.330376007586e+03 1.578890605217e+03 9.751387333961e+02 3.179709104480e+02 1.640664218658e+03 2.414970744591e+03 1.601546354916e+03 4.644628360019e+02 2.118527227466e+03 1.429810423153e+02 9.851002912061e+02 1.662612778420e+03 9.321940013351e+02 3.976306629284e+02 1.156664058362e+03 2.160946122881e+03 3.604797818871e+02 1.515281968118e+02 9.302194064225e+02 1.692586630185e+03 2.028152878362e+03 5.796177066152e+02 2.791754775133e+02 2.411783118161e+03 1.732034946885e+02 2.230936103793e+03 1.460975771192e+03 1.082646473808e+03 2.129950367931e+02 2.414650024824e+03 2.238427298598e+03 2.343101356050e+03 3.286530090708e+02 2.371144290011e+03 3.340945687410e+02 2.292174706837e+03 2.369773395947e+03 2.167571282484e+03 2.385935245855e+03 2.226565945277e+03 2.371556027047e+03 1.350626875449e+03 2.184885826222e+03 4.152269765206e+02 1.710793987220e+02 2.430947907589e+03 7.922432419889e+01 2.482248100032e+03 1.893358922992e+03 7.411001364514e+02 2.071789769372e+03 7.612078334783e+02 1.666443976465e+03 2.379960379074e+03 2.443373978543e+03 2.158971726087e+02 1.923224441452e+02 9.602086243554e+01 7.193360411146e+02 2.580265245440e+02 2.336200272385e+03 1.214486956399e+02 9.697387890811e+02 1.227311264255e+03 2.262817860510e+03 6.196489555694e+02 1.105560010714e+03 6.522033450316e+02 2.620669610074e+02 2.397968996529e+03 1.996193831816e+03 6.388771905605e+02 2.646129659687e+02 1.351618512009e+02 1.837957757110e+02 2.329090279056e+03 2.005562677615e+03 1.596373325062e+03 1.974297542095e+03 5.058841829257e+02 2.078484813045e+03 1.708442516708e+03 1.834919857107e+02 5.292804490462e+02 2.082476307787e+03 2.233151284044e+03 3.642834620266e+02 2.105628043726e+03 2.155819061124e+03 2.361112789825e+03 1.031341259358e+03 2.463456945306e+03 6.955625808796e+02 1.781610778410e+03 1.237614812774e+02 1.305625239186e+02 7.870574013844e+02 2.094433315697e+03 1.343197757810e+02 1.392803520981e+02 1.893827477760e+03 2.202227099339e+03 9.455325314848e+02 5.692782481918e+02 1.823019524499e+02 4.310171900774e+02 2.346678249542e+02 7.778650879037e+02 1.081919397547e+02 5.925144293044e+02 2.472999772950e+03 1.737626184248e+03 2.137873910613e+03 3.192264149525e+02 7.672922024793e+02 2.405837621275e+03 1.531180835530e+02 5.597367500317e+02 7.343487295926e+02 2.135084225537e+03 4.776846551211e+02 2.220541139411e+03 5.595060506769e+02 2.509862539048e+03 4.120740514930e+02 1.389374958162e+02 2.460658692715e+03 4.766524997538e+02 3.563971896434e+02 2.448373050957e+03 1.331662087012e+02 2.454986478493e+03 2.226557894092e+03 2.976949356594e+02 2.446590742736e+03 3.246103561923e+02 2.901541719465e+02 1.313860011831e+02 2.454872839741e+03 4.944649671462e+02 5.223351141252e+02 1.854018975252e+03 5.109419581783e+02 2.475494901402e+03 4.991882853600e+02 6.110114889457e+02 5.646324613089e+02 1.633074218792e+02 6.280463693931e+02 1.905716550193e+03 3.154373598672e+02 2.270612571838e+03 3.745971611491e+02 1.121939641588e+02 2.478150690489e+03 2.043499535129e+03 2.334262256285e+03 2.405705914688e+02 4.518947531952e+02 3.384847070841e+02 1.894820741904e+03 3.922451270440e+02 2.494979891774e+03 8.043777215465e+02 2.426116791866e+03 1.151720096091e+02 2.473499989864e+03 2.324357112488e+03 7.357920330821e+01 5.438133275866e+02 1.952271887049e+03 2.515254266263e+03 2.256182637568e+03 2.331013172765e+03 1.391280521362e+02 2.415677215557e+03 2.583147606726e+02 2.283543928165e+03 3.162409831526e+02 7.332391052740e+02 1.919883328818e+03 1.727520796727e+02 6.753453848658e+02 3.733996179827e+02 1.180780855225e+02 2.385210765347e+03 2.171523204190e+02 2.277584577574e+03 1.884421357073e+03 2.432918375183e+02 1.806962335674e+03 1.235251583073e+02 2.341548437340e+03 2.456437206379e+03 4.466845989781e+01 2.345762165432e+03 2.089791455670e+02 3.159941007204e+02 2.272140119123e+03 2.513505865444e+03 2.810000753620e+02 2.228337417181e+03 2.348943899373e+02 2.385902519158e+03 9.120641867418e+01 2.402149171370e+03 2.527429291650e+03 2.102630828062e+03 2.345799790856e+03 2.490780014077e+03 5.226321602372e+02 2.319626656632e+03 2.063212063638e+02 2.523887822205e+03 1.666931174947e+02 2.414754316863e+03 2.149554393276e+02 6.615283812255e+02 1.284034851384e+02 2.525129112660e+03 2.228628304833e+03 4.757284835560e+02 1.549311700844e+02 2.507708259510e+02 2.439458637006e+03 6.695322600041e+02 2.522297396053e+03 6.123582541378e+02 1.976871660141e+03 2.288852482213e+03 2.400970135792e+03 2.290205149057e+03 2.421845351423e+02 3.006322100742e+02 4.477948446314e+02 2.257903056849e+03 8.528731997925e+01 2.122484431909e+02 8.231630930415e+01 2.016327291093e+02 2.189070620261e+03 2.426743028603e+03 2.444666483301e+03 2.523177425012e+03 2.438930043245e+03 2.383909989127e+02 3.551867956732e+02 1.249558288338e+02 6.324328997857e+02 5.399587526857e+02 6.607273401354e+02 6.802694224285e+02 4.558659169263e+02 1.937826218818e+03 1.658163995792e+02 1.095430027029e+02 2.382945524969e+03 2.026581976702e+03 2.486441869761e+03 1.465108968615e+02 2.185485631330e+03 1.766259455637e+03 1.906726347435e+03 8.278255611257e+02 1.769069549211e+03 1.547325410535e+03 1.337813874804e+03 1.221191768822e+03 1.081115362914e+03 1.231093774157e+03 1.936589877514e+03 1.729711152132e+03 5.880409567789e+02 1.101004084061e+03 5.922374001610e+02 1.331100389328e+03 1.235646013353e+03 1.371998437210e+03 1.427474420332e+03 7.876546731981e+02 1.446547376717e+03 7.611051287950e+02 1.344515164370e+03 1.611724190034e+03 1.005010291062e+03 1.074736048530e+03 1.911375632375e+03 1.000587356541e+03 1.146559894442e+03 9.101022559429e+02 1.948666879971e+03 1.889658590767e+03 1.543559371307e+03 8.891847681005e+02 1.893271155214e+03 1.952256757353e+03 1.396484391407e+03 1.444285823876e+03 1.568157405949e+03 1.007940997232e+03 1.972682838727e+03 1.563271227253e+03 1.147308583808e+03 6.472957879128e+02 6.187835657833e+02 2.219385679086e+02 9.215372128685e+02 1.350340462201e+03 1.587482616851e+03 1.633113343491e+03 1.556276792031e+03 1.195145820763e+03 2.361206673159e+03 1.873806514036e+03 1.566885381626e+02 1.118534000915e+03 1.830260945694e+03 1.424493181300e+03 1.650207804901e+03 2.434567984580e+02 1.708440869885e+03 2.269139546734e+02 2.377372886858e+03 1.180034854431e+03 7.050651456345e+02 1.661210006630e+03 2.141301727648e+03 8.941474579280e+02 4.463341896373e+02 1.940579784331e+03 6.496359351229e+02 2.139586992049e+03 1.767091409144e+03 9.338671698479e+02 2.437136181139e+03 1.720984177379e+02 1.197055325111e+03 3.626008078456e+02 1.531338554796e+03 2.175321701554e+03 2.431810198481e+03 2.413223071204e+03 6.543278528776e+02 2.319055469076e+03 2.059200516826e+03 5.452038912626e+02 1.825091976748e+03 1.078147728983e+03 6.126766671731e+02 1.615854462470e+02 1.990936834314e+03 1.414256218481e+02 5.256589459978e+02 2.445434103357e+03 1.401369894391e+02 3.091292149123e+02 9.503639756914e+02 2.290962442840e+03 1.777688853510e+03 1.068427165564e+03 1.939064265201e+03 8.024586186507e+02 4.613068769953e+02 7.951090153132e+02 7.405514571891e+02 7.342798796945e+02 1.135565674616e+02 2.200097402369e+03 2.307549628747e+02 4.468311513318e+02 6.054855481506e+02 6.845503501300e+02 5.467070829990e+02 1.714628898316e+02 2.334023912595e+03 9.289827973648e+02 8.824081072300e+02 2.010477188037e+02 2.061120430696e+03 2.394863337432e+03 1.976951542572e+03 5.374370639320e+02 2.001084784555e+03 2.225126904197e+03 1.561909986554e+03 9.989682546542e+02 2.102902318240e+03 2.445029956329e+03 2.040459255597e+02 2.170783793138e+03 2.125918534765e+02 1.372536874654e+03 8.249429200361e+02 6.172188357160e+02 2.094351844696e+03 4.341474343710e+02 2.129421686519e+03 2.050538863844e+03 3.172661405424e+02 7.175289179783e+01 2.449791842500e+02 1.895051191869e+03 2.214241216857e+03 4.597890481220e+02 4.455122741545e+02 2.122507265761e+03 3.679039315891e+02 1.355621763202e+03 4.207043323200e+02 1.752401668485e+03 1.008550578909e+03 4.400308484218e+02 1.198754150309e+03 2.265194332647e+03 2.670321932386e+02 4.908538957872e+02 1.893500025871e+03 1.381082277770e+02 2.127542752129e+03 2.155934586802e+03 1.056563075000e+02 2.260863610415e+03 2.079502486818e+03 2.470976008098e+03 6.832950042735e+02 2.263667482332e+03 1.854552230645e+03 2.266691771141e+03 2.278019717004e+03 2.240569412581e+03 2.279927589339e+03 2.276454789020e+03 1.640668988283e+03 2.150024981074e+03 2.065730868551e+03 1.950436387766e+03 2.116630116688e+03 2.564068135477e+02 4.220195922031e+02 3.365382688137e+02 3.814634015691e+02 8.322141870669e+02 1.720355284760e+03 5.294187311533e+02 3.477882955847e+02 2.424071170532e+03 2.356916979446e+03 2.184264120154e+02 1.552931013630e+02 2.318991890967e+03 1.695774531720e+03 4.614006509116e+02 1.704752960678e+03 2.876825281585e+02 1.729418817911e+03 3.634257135944e+02 4.201298754591e+02 2.062666631072e+03 2.761918999232e+02 6.950050599898e+02 2.333610678311e+02 6.553255364645e+02 1.954098316255e+03 2.136194091694e+02 2.096992717642e+03 7.056944076207e+02 1.878403611120e+03 2.485770069681e+03 8.285979959042e+02 4.757274240028e+02 2.332918237608e+03 6.031956532151e+02 2.385717442030e+03 1.972541051421e+03 2.547103705324e+02 3.308977624541e+02 1.747804052542e+02 2.304408516385e+03 1.988775728337e+03 2.511237536439e+02 2.215717307886e+03 9.478509822424e+02 1.775912133905e+03 1.851313078096e+03 4.125852996594e+02 2.009542683218e+03 2.926126013001e+02 1.861307816428e+03 2.266496405641e+03 4.670511330837e+02 6.075218912059e+02 7.808485014392e+02 8.265474628146e+01 2.756035354894e+02 1.909587430162e+03 1.861849968567e+03 9.360009050861e+01 2.444057849626e+03 2.347090461751e+03 1.807208510639e+03 6.818724659959e+01 2.629631131461e+02 1.621190982734e+02 2.428799075741e+03 2.184464524304e+03 2.456329373788e+03 2.185061111886e+03 1.118741705457e+03 4.701683530097e+02 2.007069415144e+03 9.859763533135e+01 2.358433003974e+02 2.258813368314e+03 7.205385916936e+02 6.914869002366e+02 2.347800845604e+03 1.299308401828e+03 1.718758698054e+03 9.751187421473e+01 1.802553959373e+03 2.291643022888e+03 2.391715775492e+03 3.016827885989e+02 1.910230073288e+02 3.514716998296e+02 1.883745988431e+02 3.900424510180e+02 7.033568330840e+02 1.930136834543e+03 4.813841860040e+02 2.511284578539e+03 2.249160088705e+03 2.463476793512e+03 2.601094634032e+02 2.037897461837e+03 4.134916910088e+02 1.583225939719e+03 2.497053219943e+03 2.375390278361e+03 2.372409072092e+03 6.548009479849e+02 2.054658881757e+02 1.009125936112e+02 2.126210137904e+02 5.474552661468e+02 2.071991200741e+03 2.114903134642e+03 2.086047180695e+03 2.193193975638e+03 2.128625359525e+03 2.353693675454e+03 2.056415576905e+03 2.265466399652e+03 1.182095692334e+03 7.781959480003e+02 3.329695868648e+02 1.984371632904e+03 2.185273017053e+03 2.402776992825e+03 9.453006818139e+02 2.286532715573e+03 3.309215421869e+02 1.865326520106e+03 7.257741218824e+02 1.576068549290e+03 1.819794781076e+02 2.269065757520e+03 2.246665439181e+03 1.846725582443e+03 2.862236154933e+02 2.180778854159e+03 2.517612742586e+03 1.725837834136e+03 2.038886326020e+03 2.044683346709e+03 2.374596234066e+03 2.510618748790e+03 2.098447022844e+03 2.190603894848e+02 2.137457165655e+03 2.242019218674e+03 7.590588936363e+02 8.704174936251e+02 7.840964255001e+01 3.940106055536e+02 6.912640666254e+02 5.194084545834e+02 1.723404908267e+03 1.486714926368e+03 3.376454766787e+02 1.969688425854e+03 2.495526677029e+03 5.916217153027e+02 2.171985071733e+03 1.804785735814e+03 3.209662750118e+02 4.276209067091e+02 4.555674038209e+02 2.410279227957e+03 6.385324991920e+01 2.383134163529e+03 2.168357878895e+03 2.424030059000e+03 3.171048859355e+02 2.391154234492e+03 2.099804925300e+03 6.758130779254e+02 2.014607908566e+03 5.934901771234e+02 2.220886675486e+03 7.006483262731e+02 3.911891550400e+02 8.694477280493e+02 4.045633393866e+02 2.068533427638e+03 2.374004905011e+03 6.055532077180e+02 3.350393155605e+02 2.305379598295e+02 2.163276341835e+03 2.077163589893e+03 4.040951927281e+02 1.837074646705e+02 1.935378292957e+03 2.016965485298e+03 1.678620816199e+03 4.699297422743e+02 2.380752078818e+03 1.697568694802e+03 2.247699061686e+