<?xml version="1.0"?>
<!-- Time step: 122 | Time: 1.900000000000e+04 -->
<VTKFile type="UnstructuredGrid" version="0.1" byte_order="LittleEndian">
  <UnstructuredGrid>
    <Piece NumberOfPoints="6824" NumberOfCells="13330">
      <Points>
        <DataArray type="Float64" NumberOfComponents="3" format="ascii">
          0.000000000000e+00 0.000000000000e+00 0.000000000000e+00
          0.000000000000e+00 0.000000000000e+00 2.600000000000e-01
          5.300000000000e-01 0.000000000000e+00 2.600000000000e-01
          5.300000000000e-01 0.000000000000e+00 0.000000000000e+00
          0.000000000000e+00 0.000000000000e+00 4.999999999991e-03
          0.000000000000e+00 0.000000000000e+00 9.999999999982e-03
          0.000000000000e+00 0.000000000000e+00 1.499999999997e-02
          0.000000000000e+00 0.000000000000e+00 1.999999999996e-02
          0.000000000000e+00 0.000000000000e+00 2.499999999996e-02
          0.000000000000e+00 0.000000000000e+00 2.999999999995e-02
          0.000000000000e+00 0.000000000000e+00 3.499999999994e-02
          0.000000000000e+00 0.000000000000e+00 3.999999999992e-02
          0.000000000000e+00 0.000000000000e+00 4.499999999991e-02
          0.000000000000e+00 0.000000000000e+00 4.999999999990e-02
          0.000000000000e+00 0.000000000000e+00 5.499999999988e-02
          0.000000000000e+00 0.000000000000e+00 5.999999999987e-02
          0.000000000000e+00 0.000000000000e+00 6.499999999985e-02
          0.000000000000e+00 0.000000000000e+00 6.999999999983e-02
          0.000000000000e+00 0.000000000000e+00 7.499999999983e-02
          0.000000000000e+00 0.000000000000e+00 7.999999999981e-02
          0.000000000000e+00 0.000000000000e+00 8.499999999979e-02
          0.000000000000e+00 0.000000000000e+00 8.999999999978e-02
          0.000000000000e+00 0.000000000000e+00 9.499999999977e-02
          0.000000000000e+00 0.000000000000e+00 9.999999999975e-02
          0.000000000000e+00 0.000000000000e+00 1.049999999997e-01
          0.000000000000e+00 0.000000000000e+00 1.099999999997e-01
          0.000000000000e+00 0.000000000000e+00 1.149999999997e-01
          0.000000000000e+00 0.000000000000e+00 1.199999999997e-01
          0.000000000000e+00 0.000000000000e+00 1.249999999997e-01
          0.000000000000e+00 0.000000000000e+00 1.299999999997e-01
          0.000000000000e+00 0.000000000000e+00 1.349999999997e-01
          0.000000000000e+00 0.000000000000e+00 1.399999999997e-01
          0.000000000000e+00 0.000000000000e+00 1.449999999997e-01
          0.000000000000e+00 0.000000000000e+00 1.499999999997e-01
          0.000000000000e+00 0.000000000000e+00 1.549999999997e-01
          0.000000000000e+00 0.000000000000e+00 1.599999999997e-01
          0.000000000000e+00 0.000000000000e+00 1.649999999998e-01
          0.000000000000e+00 0.000000000000e+00 1.699999999998e-01
          0.000000000000e+00 0.000000000000e+00 1.749999999998e-01
          0.000000000000e+00 0.000000000000e+00 1.799999999998e-01
          0.000000000000e+00 0.000000000000e+00 1.849999999998e-01
          0.000000000000e+00 0.000000000000e+00 1.899999999998e-01
          0.000000000000e+00 0.000000000000e+00 1.949999999998e-01
          0.000000000000e+00 0.000000000000e+00 1.999999999999e-01
          0.000000000000e+00 0.000000000000e+00 2.049999999999e-01
          0.000000000000e+00 0.000000000000e+00 2.099999999999e-01
          0.000000000000e+00 0.000000000000e+00 2.149999999999e-01
          0.000000000000e+00 0.000000000000e+00 2.199999999999e-01
          0.000000000000e+00 0.000000000000e+00 2.249999999999e-01
          0.000000000000e+00 0.000000000000e+00 2.299999999999e-01
          0.000000000000e+00 0.000000000000e+00 2.349999999999e-01
          0.000000000000e+00 0.000000000000e+00 2.399999999999e-01
          0.000000000000e+00 0.000000000000e+00 2.450000000000e-01
          0.000000000000e+00 0.000000000000e+00 2.500000000000e-01
          0.000000000000e+00 0.000000000000e+00 2.550000000000e-01
          4.999999999991e-03 0.000000000000e+00 2.600000000000e-01
          9.999999999981e-03 0.000000000000e+00 2.600000000000e-01
          1.499999999997e-02 0.000000000000e+00 2.600000000000e-01
          1.999999999996e-02 0.000000000000e+00 2.600000000000e-01
          2.499999999995e-02 0.000000000000e+00 2.600000000000e-01
          2.999999999994e-02 0.000000000000e+00 2.600000000000e-01
          3.499999999993e-02 0.000000000000e+00 2.600000000000e-01
          3.999999999992e-02 0.000000000000e+00 2.600000000000e-01
          4.499999999992e-02 0.000000000000e+00 2.600000000000e-01
          4.999999999991e-02 0.000000000000e+00 2.600000000000e-01
          5.499999999990e-02 0.000000000000e+00 2.600000000000e-01
          5.999999999990e-02 0.000000000000e+00 2.600000000000e-01
          6.499999999989e-02 0.000000000000e+00 2.600000000000e-01
          6.999999999988e-02 0.000000000000e+00 2.600000000000e-01
          7.499999999986e-02 0.000000000000e+00 2.600000000000e-01
          7.999999999985e-02 0.000000000000e+00 2.600000000000e-01
          8.499999999983e-02 0.000000000000e+00 2.600000000000e-01
          8.999999999981e-02 0.000000000000e+00 2.600000000000e-01
          9.499999999980e-02 0.000000000000e+00 2.600000000000e-01
          9.999999999979e-02 0.000000000000e+00 2.600000000000e-01
          1.049999999998e-01 0.000000000000e+00 2.600000000000e-01
          1.099999999998e-01 0.000000000000e+00 2.600000000000e-01
          1.149999999997e-01 0.000000000000e+00 2.600000000000e-01
          1.199999999997e-01 0.000000000000e+00 2.600000000000e-01
          1.249999999997e-01 0.000000000000e+00 2.600000000000e-01
          1.299999999997e-01 0.000000000000e+00 2.600000000000e-01
          1.349999999997e-01 0.000000000000e+00 2.600000000000e-01
          1.399999999997e-01 0.000000000000e+00 2.600000000000e-01
          1.449999999997e-01 0.000000000000e+00 2.600000000000e-01
          1.499999999996e-01 0.000000000000e+00 2.600000000000e-01
          1.549999999996e-01 0.000000000000e+00 2.600000000000e-01
          1.599999999996e-01 0.000000000000e+00 2.600000000000e-01
          1.649999999996e-01 0.000000000000e+00 2.600000000000e-01
          1.699999999996e-01 0.000000000000e+00 2.600000000000e-01
          1.749999999996e-01 0.000000000000e+00 2.600000000000e-01
          1.799999999995e-01 0.000000000000e+00 2.600000000000e-01
          1.849999999995e-01 0.000000000000e+00 2.600000000000e-01
          1.899999999995e-01 0.000000000000e+00 2.600000000000e-01
          1.949999999995e-01 0.000000000000e+00 2.600000000000e-01
          1.999999999995e-01 0.000000000000e+00 2.600000000000e-01
          2.049999999995e-01 0.000000000000e+00 2.600000000000e-01
          2.099999999995e-01 0.000000000000e+00 2.600000000000e-01
          2.149999999994e-01 0.000000000000e+00 2.600000000000e-01
          2.199999999994e-01 0.000000000000e+00 2.600000000000e-01
          2.249999999994e-01 0.000000000000e+00 2.600000000000e-01
          2.299999999994e-01 0.000000000000e+00 2.600000000000e-01
          2.349999999994e-01 0.000000000000e+00 2.600000000000e-01
          2.399999999994e-01 0.000000000000e+00 2.600000000000e-01
          2.449999999993e-01 0.000000000000e+00 2.600000000000e-01
          2.499999999993e-01 0.000000000000e+00 2.600000000000e-01
          2.549999999993e-01 0.000000000000e+00 2.600000000000e-01
          2.599999999993e-01 0.000000000000e+00 2.600000000000e-01
          2.649999999993e-01 0.000000000000e+00 2.600000000000e-01
          2.699999999993e-01 0.000000000000e+00 2.600000000000e-01
          2.749999999993e-01 0.000000000000e+00 2.600000000000e-01
          2.799999999993e-01 0.000000000000e+00 2.600000000000e-01
          2.849999999993e-01 0.000000000000e+00 2.600000000000e-01
          2.899999999993e-01 0.000000000000e+00 2.600000000000e-01
          2.949999999993e-01 0.000000000000e+00 2.600000000000e-01
          2.999999999994e-01 0.000000000000e+00 2.600000000000e-01
          3.049999999994e-01 0.000000000000e+00 2.600000000000e-01
          3.099999999994e-01 0.000000000000e+00 2.600000000000e-01
          3.149999999994e-01 0.000000000000e+00 2.600000000000e-01
          3.199999999994e-01 0.000000000000e+00 2.600000000000e-01
          3.249999999994e-01 0.000000000000e+00 2.600000000000e-01
          3.299999999994e-01 0.000000000000e+00 2.600000000000e-01
          3.349999999995e-01 0.000000000000e+00 2.600000000000e-01
          3.399999999995e-01 0.000000000000e+00 2.600000000000e-01
          3.449999999995e-01 0.000000000000e+00 2.600000000000e-01
          3.499999999995e-01 0.000000000000e+00 2.600000000000e-01
          3.549999999995e-01 0.000000000000e+00 2.600000000000e-01
          3.599999999995e-01 0.000000000000e+00 2.600000000000e-01
          3.649999999996e-01 0.000000000000e+00 2.600000000000e-01
          3.699999999996e-01 0.000000000000e+00 2.600000000000e-01
          3.749999999996e-01 0.000000000000e+00 2.600000000000e-01
          3.799999999996e-01 0.000000000000e+00 2.600000000000e-01
          3.849999999996e-01 0.000000000000e+00 2.600000000000e-01
          3.899999999996e-01 0.000000000000e+00 2.600000000000e-01
          3.949999999996e-01 0.000000000000e+00 2.600000000000e-01
          3.999999999996e-01 0.000000000000e+00 2.600000000000e-01
          4.049999999996e-01 0.000000000000e+00 2.600000000000e-01
          4.099999999996e-01 0.000000000000e+00 2.600000000000e-01
          4.149999999997e-01 0.000000000000e+00 2.600000000000e-01
          4.199999999997e-01 0.000000000000e+00 2.600000000000e-01
          4.249999999997e-01 0.000000000000e+00 2.600000000000e-01
          4.299999999997e-01 0.000000000000e+00 2.600000000000e-01
          4.349999999997e-01 0.000000000000e+00 2.600000000000e-01
          4.399999999997e-01 0.000000000000e+00 2.600000000000e-01
          4.449999999997e-01 0.000000000000e+00 2.600000000000e-01
[...]
      <PointData Scalars="PRESSURE1">
        <DataArray type="Float64" Name="PRESSURE1" format="ascii">
          2.566590300000e+03 -5.032530000000e+01 1.962000000000e+01 2.570220000000e+03 2.516265000000e+03 2.465939700000e+03 2.415614400000e+03 2.365289100000e+03 2.314963800000e+03 2.264638500001e+03 2.214313200001e+03 2.163987900001e+03 2.113662600001e+03 2.063337300001e+03 2.013012000001e+03 1.962686700001e+03 1.912361400001e+03 1.862036100002e+03 1.811710800002e+03 1.761385500002e+03 1.711060200002e+03 1.660734900002e+03 1.610409600002e+03 1.560084300003e+03 1.509759000003e+03 1.459433700003e+03 1.409108400003e+03 1.358783100003e+03 1.308457800003e+03 1.258132500003e+03 1.207807200003e+03 1.157481900003e+03 1.107156600003e+03 1.056831300003e+03 1.006506000003e+03 9.561807000026e+02 9.058554000024e+02 8.555301000022e+02 8.052048000022e+02 7.548795000020e+02 7.045542000019e+02 6.542289000018e+02 6.039036000017e+02 5.535783000015e+02 5.032530000014e+02 4.529277000013e+02 4.026024000011e+02 3.522771000010e+02 3.019518000009e+02 2.516265000007e+02 2.013012000006e+02 1.509759000005e+02 1.006506000004e+02 5.032530000026e+01 1.810262739710e-10 -4.643393713971e+01 -4.377493437661e+01 -4.155485017622e+01 -3.961818204867e+01 -3.787526659642e+01 -3.628424985053e+01 -3.481496296452e+01 -3.344786162445e+01 -3.215601463225e+01 -3.093845833568e+01 -2.978419898173e+01 -2.868462564067e+01 -2.763183290670e+01 -2.662288491317e+01 -2.565004488591e+01 -2.471472361706e+01 -2.381098729059e+01 -2.293484373395e+01 -2.208654751093e+01 -2.126336852454e+01 -2.046230378140e+01 -1.968229006974e+01 -1.892322715587e+01 -1.818039875776e+01 -1.745524734402e+01 -1.674568589788e+01 -1.605215066509e+01 -1.537260209024e+01 -1.470692664696e+01 -1.405442705047e+01 -1.341271849321e+01 -1.278271747695e+01 -1.216463712194e+01 -1.155683263695e+01 -1.095889942089e+01 -1.036963421063e+01 -9.790429913852e+00 -9.218996577541e+00 -8.656542759421e+00 -8.102336674773e+00 -7.555263255771e+00 -7.015494035485e+00 -6.483201236520e+00 -5.957597947800e+00 -5.438866592414e+00 -4.925964433181e+00 -4.419227905139e+00 -3.918686651391e+00 -3.423615890414e+00 -2.933851655015e+00 -2.449914195292e+00 -1.970733950849e+00 -1.496778647626e+00 -1.027483599410e+00 -5.629158073607e-01 -1.028556469573e-01 3.530488251544e-01 8.047138409630e-01 1.252218985025e+00 1.695896989601e+00 2.135661923130e+00 2.571743424541e+00 3.004479576368e+00 3.433488883621e+00 3.859244417513e+00 4.282036890352e+00 4.701745883962e+00 5.118222249123e+00 5.531875155213e+00 5.942898711976e+00 6.350999034888e+00 6.756733306145e+00 7.159925610865e+00 7.560748289561e+00 7.959269811325e+00 8.355608890358e+00 8.749809710217e+00 9.142032638406e+00 9.532351834287e+00 9.920860065509e+00 1.030744550962e+01 1.069249675189e+01 1.107582184004e+01 1.145785662849e+01 1.183825799644e+01 1.221737682909e+01 1.259519283348e+01 1.297181419713e+01 1.334726404187e+01 1.372159323004e+01 1.409498181627e+01 1.446742716812e+01 1.483901041643e+01 1.520979345954e+01 1.557981749010e+01 1.594923494389e+01 1.631799524539e+01 1.668625193821e+01 1.705399708475e+01 1.742132752940e+01 1.778832233695e+01 1.815501790431e+01 1.852146564759e+01 1.888774088599e+01 1.925390446082e+01 6.866999999997e+01 1.177199999998e+02 1.667699999998e+02 2.158199999997e+02 2.648699999996e+02 3.139199999995e+02 3.629699999995e+02 4.120199999993e+02 4.610699999991e+02 5.101199999990e+02 5.591699999989e+02 6.082199999988e+02 6.572699999986e+02 7.063199999985e+02 7.553699999983e+02 8.044199999981e+02 8.534699999980e+02 9.025199999979e+02 9.515699999978e+02 1.000619999998e+03 1.049669999998e+03 1.098719999997e+03 1.147769999997e+03 1.196819999997e+03 1.245869999997e+03 1.294919999997e+03 1.343969999997e+03 1.393019999997e+03 1.442069999997e+03 1.491119999997e+03 1.540169999997e+03 1.589219999998e+03 1.638269999998e+03 1.687319999998e+03 1.736369999998e+03 1.785419999998e+03 1.834469999998e+03 1.883519999998e+03 1.932569999998e+03 1.981619999999e+03 2.030669999999e+03 2.079719999999e+03 2.128769999999e+03 2.177819999999e+03 2.226869999999e+03 2.275919999999e+03 2.324969999999e+03 2.374019999999e+03 2.423070000000e+03 2.472120000000e+03 2.521170000000e+03 2.569895726211e+03 2.569571558846e+03 2.569247604570e+03 2.568923959364e+03 2.568600742578e+03 2.568278044637e+03 2.567956002729e+03 2.567634708526e+03 2.567314344752e+03 2.566995041710e+03 2.566676932646e+03 2.566360135990e+03 2.566044843534e+03 2.565731378391e+03 2.565419723028e+03 2.565110295936e+03 2.564803247965e+03 2.564499092922e+03 2.564198117779e+03 2.563900568074e+03 2.563606825273e+03 2.563318007523e+03 2.563034714704e+03 2.562757386726e+03 2.562488695278e+03 2.562228545262e+03 2.561982215489e+03 2.561750310493e+03 2.561546880482e+03 2.561384764155e+03 2.561312193097e+03 2.561334725472e+03 2.561440620522e+03 2.561563509581e+03 2.561705813165e+03 2.561858495602e+03 2.561997071310e+03 2.562135366953e+03 2.562273271363e+03 2.562412267066e+03 2.562541606787e+03 2.562665134099e+03 2.562786353112e+03 2.562896003711e+03 2.562999802464e+03 2.563105984515e+03 2.563207671424e+03 2.563304927700e+03 2.563397853871e+03 2.563489523106e+03 2.563577118554e+03 2.563662289941e+03 2.563744752681e+03 2.563825090851e+03 2.563903282156e+03 2.563979466013e+03 2.564053862184e+03 2.564126463914e+03 2.564197344002e+03 2.564266727754e+03 2.564334554361e+03 2.564400923638e+03 2.564465939219e+03 2.564529711595e+03 2.564592251808e+03 2.564653710027e+03 2.564714089974e+03 2.564773413698e+03 2.564831798748e+03 2.564889308825e+03 2.564945852524e+03 2.565001609134e+03 2.565056544088e+03 2.565110715512e+03 2.565164096644e+03 2.565216766459e+03 2.565268746117e+03 2.565320091871e+03 2.565370824069e+03 2.565420928535e+03 2.565470463520e+03 2.565519435644e+03 2.565567919762e+03 2.565615868966e+03 2.565663350144e+03 2.565710390201e+03 2.565756999060e+03 2.565803179504e+03 2.565849001730e+03 2.565894438423e+03 2.565939544736e+03 2.565984316032e+03 2.566028810916e+03 2.566073027295e+03 2.566116979746e+03 2.566160733069e+03 2.566204259634e+03 2.566247620825e+03 2.566290800446e+03 2.566333847161e+03 2.566376777463e+03 2.566419601545e+03 2.566462346937e+03 2.566505031403e+03 2.566547675411e+03 8.148626032352e+02 7.947929607551e+02 1.757091326324e+03 2.188987001339e+03 4.110222409159e+02 2.206271042094e+03 3.470267513000e+02 6.213902203476e+02 1.285615524123e+03 2.329467631601e+03 2.312779342043e+02 5.065122310201e+02 1.973929441102e+03 5.634458927895e+02 1.904180652866e+03 2.322393689954e+03 2.345165166678e+02 6.295048520678e+02 2.343758872176e+03 2.416656056416e+02 7.998182040551e+02 6.107568318462e+02 1.911151913289e+03 2.176699781930e+03 3.556375556121e+02 1.955603398606e+03 5.732148751047e+02 6.177033647440e+02 2.004640174279e+03 1.769372274979e+03 4.565485158779e+02 8.159026308205e+02 1.739153381577e+03 1.779899638683e+03 3.065970039128e+02 8.213505669386e+02 1.982277922506e+03 2.303121947850e+03 4.856120522879e+02 1.982632668832e+03 6.280827462671e+02 6.751483353240e+02 1.852707976298e+03 1.971226672385e+03 2.069446527339e+03 2.099066337905e+03 2.693081208602e+02 2.742645209372e+02 2.035051886283e+03 2.121175417101e+03 2.105578689142e+03 4.492237721056e+02 4.715287705285e+02 2.150256832002e+03 2.121986354779e+03 3.599585693420e+02 3.705241389649e+02 2.170943293935e+03 3.166930681422e+02 2.340202497018e+03 4.241277162784e+02 2.270157501257e+03 1.413320894231e+02 2.214551116414e+03 2.317376766152e+03 2.418449431473e+03 2.703707419706e+02 2.273383146175e+03 2.662008555257e+02 1.988326922857e+02 2.447835661852e+03 2.237011726012e+02 2.398107831398e+03 2.472669136154e+03 2.200360635726e+02 2.452634812088e+03 1.178495086168e+02 2.413515786417e+03 2.422824544025e+03 1.673817274323e+02 2.464528093151e+03 2.459862147499e+03 2.522121339233e+03 2.489022086365e+03 9.295995545597e+01 7.674330649523e+02 1.731723488577e+03 7.856550849903e+02 1.357775851806e+03 4.663867945063e+02 2.093827701136e+03 2.081621560523e+03 3.735637415792e+02 4.537147798746e+02 2.749985573871e+02 2.276440888252e+03 9.508230019632e+02 1.739342247015e+03 1.951870701683e+03 2.308209898980e+03 1.548887073218e+03 9.687788238683e+02 3.044678768332e+02 1.609252558478e+03 2.392305841319e+03 1.585789470226e+03 4.418532917943e+02 2.109425176158e+03 1.296768661907e+02 9.799685493294e+02 1.642025191229e+03 9.161760960737e+02 3.824037000905e+02 1.125203181351e+03 2.140573911818e+03 3.488384515869e+02 1.389877043444e+02 9.265800783787e+02 1.660092300598e+03 2.024240502303e+03 5.526143563601e+02 2.677629489423e+02 2.387797573006e+03 1.626064781519e+02 2.204886000337e+03 1.436603785405e+03 1.069427553542e+03 2.021530999998e+02 2.389771523772e+03 2.210072730711e+03 2.316332000547e+03 3.185729458320e+02 2.345218393048e+03 3.251428546687e+02 2.264490626483e+03 2.370304572158e+03 2.140100167990e+03 2.386399752242e+03 2.202434954170e+03 2.371923167415e+03 1.349391214952e+03 2.183473445531e+03 3.892498109597e+02 1.490189422894e+02 2.427996060721e+03 6.340661810672e+01 2.482573556440e+03 1.868784480503e+03 7.376265229130e+02 2.041898254136e+03 7.494106386503e+02 1.666420343155e+03 2.380235688545e+03 2.413761151935e+03 2.095219324761e+02 1.642813627960e+02 8.646598944502e+01 7.063335930519e+02 2.348547456639e+02 2.333145328147e+03 1.155274923778e+02 9.369990556345e+02 1.193835051892e+03 2.263051465223e+03 6.167667086289e+02 1.104282040159e+03 6.215656150542e+02 2.335257042255e+02 2.367665348307e+03 1.964052423785e+03 6.076110993698e+02 2.352732479913e+02 1.261886861177e+02 1.568027688699e+02 2.329284245598e+03 1.972362981881e+03 1.596376411574e+03 1.974342395666e+03 4.919446541406e+02 2.056041099802e+03 1.675063102615e+03 1.691311996518e+02 5.257073090693e+02 2.076253621626e+03 2.231022723154e+03 3.392695876740e+02 2.105722200553e+03 2.123269844131e+03 2.361276299447e+03 9.980159122497e+02 2.445035156178e+03 6.887576054520e+02 1.748392161978e+03 1.168189908661e+02 1.252285054416e+02 7.561549363993e+02 2.065349197986e+03 1.260585886120e+02 1.117496306057e+02 1.860451246495e+03 2.171981360868e+03 9.442699211933e+02 5.384297185337e+02 1.777101366757e+02 4.289080191731e+02 2.033720749487e+02 7.447674908861e+02 7.923233764248e+01 5.587855520931e+02 2.442135357822e+03 1.737646674130e+03 2.104345640758e+03 3.166978442073e+02 7.611447539756e+02 2.374070445608e+03 1.493495739955e+02 5.267254758472e+02 7.008116399108e+02 2.135127600604e+03 4.441728741550e+02 2.187270681102e+03 5.308368435875e+02 2.478055849578e+03 3.788560355805e+02 1.153180334791e+02 2.460882052517e+03 4.693727835091e+02 3.254588680964e+02 2.416115962679e+03 1.075410490390e+02 2.455881911965e+03 2.226673476978e+03 2.705739381622e+02 2.418211067553e+03 2.911394916132e+02 2.884653551323e+02 1.071543385316e+02 2.455485935393e+03 4.867365210896e+02 5.138728338702e+02 1.823835602133e+03 4.785649212892e+02 2.475693141494e+03 4.934515883309e+02 5.794850890518e+02 5.326428965534e+02 1.310392406735e+02 6.220396912510e+02 1.905698057277e+03 2.908675337820e+02 2.268441776275e+03 3.441694295793e+02 8.574509047484e+01 2.478952326514e+03 2.043612314530e+03 2.334555911593e+03 2.147404345837e+02 4.212306467096e+02 3.066883855600e+02 1.894911774027e+03 3.631221333090e+02 2.466159790966e+03 7.704883852709e+02 2.426269888975e+03 9.024314131134e+01 2.474494048010e+03 2.290675409469e+03 6.922434767598e+01 5.389010209812e+02 1.921067261769e+03 2.482679436787e+03 2.256330671226e+03 2.331048465479e+03 1.061849406096e+02 2.381955151335e+03 2.261685713273e+02 2.283643625440e+03 3.094160638535e+02 7.283129977459e+02 1.889338916553e+03 1.716904249460e+02 6.421351443840e+02 3.683239713893e+02 8.676247444059e+01 2.385130409250e+03 1.925695448016e+02 2.244763482895e+03 1.884480642842e+03 2.408694656404e+02 1.807016835354e+03 1.210414570897e+02 2.308324505236e+03 2.423149906756e+03 4.252804909905e+01 2.345779605228e+03 2.069605078748e+02 2.920365430585e+02 2.268957829976e+03 2.513625377346e+03 2.804453333044e+02 2.194334717489e+03 2.313379629874e+02 2.353202351977e+03 5.940767827135e+01 2.402197020115e+03 2.494130625577e+03 2.102842486505e+03 2.345923055969e+03 2.490822879859e+03 4.931232997861e+02 2.319689508794e+03 2.057918800831e+02 2.523944307348e+03 1.650500723317e+02 2.414838632310e+03 1.814211816940e+02 6.274356784504e+02 1.270295100193e+02 2.491451629605e+03 2.228683219780e+03 4.461370532429e+02 1.527819365442e+02 2.476244539559e+02 2.439474036079e+03 6.374140563308e+02 2.522392826961e+03 6.051978774291e+02 1.946987414972e+03 2.288984136883e+03 2.401034578731e+03 2.257983421772e+03 2.094671411893e+02 2.974172679378e+02 4.158667284503e+02 2.226353270690e+03 8.485810986092e+01 1.781955402231e+02 8.100409535674e+01 1.985606311617e+02 2.189159693459e+03 2.426856263148e+03 2.444711940801e+03 2.489117912072e+03 2.404863350609e+03 2.355878068682e+02 3.224434068379e+02 9.118271405027e+01 6.234818185742e+02 5.301082298837e+02 6.527715199076e+02 6.714115104257e+02 4.450370776663e+02 1.910002744273e+03 1.319614862640e+02 1.086725735469e+02 2.383079675327e+03 2.026730795253e+03 2.452340967962e+03 1.460765643020e+02 2.185594012726e+03 1.747464800920e+03 1.889110460300e+03 8.081859166616e+02 1.752142955621e+03 1.536221802906e+03 1.323193256800e+03 1.209257901700e+03 1.054394997186e+03 1.208046815198e+03 1.917257340464e+03 1.724073635881e+03 5.711925232041e+02 1.080876711706e+03 5.687613441641e+02 1.309770517839e+03 1.219796809093e+03 1.345713909409e+03 1.414080741320e+03 7.603699958210e+02 1.426660459196e+03 7.403055128434e+02 1.339678772022e+03 1.585663056643e+03 9.959640847774e+02 1.057441420088e+03 1.895975514050e+03 9.902182988407e+02 1.121704903670e+03 8.986384314111e+02 1.928207897679e+03 1.883194547115e+03 1.521105182565e+03 8.656058136381e+02 1.879488909243e+03 1.941862411689e+03 1.366012419205e+03 1.412801323272e+03 1.564957726876e+03 9.794296240411e+02 1.951025062798e+03 1.535753430371e+03 1.139599329539e+03 6.227358706107e+02 6.041235136542e+02 2.004529535055e+02 8.914057926333e+02 1.317835066863e+03 1.558610822594e+03 1.628191239236e+03 1.555286762894e+03 1.165418828886e+03 2.355271762784e+03 1.865164665342e+03 1.404680027981e+02 1.113032453194e+03 1.804379473571e+03 1.395185143179e+03 1.635872459785e+03 2.226519102849e+02 1.683754281704e+03 2.071115553281e+02 2.368546477950e+03 1.177237688110e+03 6.789544307745e+02 1.637676361823e+03 2.134575736188e+03 8.817752815060e+02 4.249727018734e+02 1.932068268186e+03 6.215925175290e+02 2.118129849694e+03 1.765783484943e+03 9.201077780066e+02 2.423616321672e+03 1.548337019493e+02 1.164586807870e+03 3.462727935819e+02 1.531014693765e+03 2.165073355159e+03 2.414984105923e+03 2.392462905175e+03 6.291775292625e+02 2.298184078274e+03 2.034821440612e+03 5.337825422191e+02 1.801495399951e+03 1.074862895059e+03 6.006985215349e+02 1.492860285738e+02 1.967435394243e+03 1.313067775046e+02 4.997772231801e+02 2.434904171960e+03 1.217927849519e+02 2.870892561693e+02 9.191300937361e+02 2.284863479811e+03 1.756161833281e+03 1.035730059984e+03 1.916352266920e+03 7.873916557404e+02 4.467834609283e+02 7.876716962082e+02 7.105590408296e+02 7.232230356426e+02 1.014787010552e+02 2.173233080177e+03 2.151044801164e+02 4.352789392951e+02 5.927473669073e+02 6.705710234930e+02 5.187516571090e+02 1.599718658719e+02 2.314355537921e+03 8.971414307301e+02 8.742526661190e+02 1.784309340000e+02 2.043824843289e+03 2.392091093555e+03 1.951638275278e+03 5.192912881652e+02 2.000713343823e+03 2.204204860825e+03 1.529603906985e+03 9.668502614819e+02 2.101924914556e+03 2.423306959249e+03 1.950319836317e+02 2.147517396153e+03 2.029040502953e+02 1.339010794934e+03 8.180226898007e+02 6.038842429761e+02 2.068246884209e+03 4.254383860899e+02 2.102799390301e+03 2.050047408061e+03 3.066217281855e+02 6.055042989639e+01 2.297591301941e+02 1.868217719167e+03 2.185212808083e+03 4.320920200367e+02 4.223695865983e+02 2.094041983628e+03 3.568282473268e+02 1.355508397975e+03 3.936141919620e+02 1.722353866814e+03 1.006277887315e+03 4.305952278070e+02 1.197600636709e+03 2.265603259697e+03 2.522443737227e+02 4.776571053144e+02 1.893078058120e+03 1.250655780434e+02 2.126022273033e+03 2.126304765287e+03 9.464639607312e+01 2.255379107788e+03 2.051576133380e+03 2.445443122549e+03 6.728242814543e+02 2.234050403175e+03 1.821800262637e+03 2.243683849824e+03 2.251424985490e+03 2.215597989155e+03 2.280310798076e+03 2.276893355901e+03 1.640675698456e+03 2.146955316647e+03 2.038497222961e+03 1.917679062089e+03 2.116880778141e+03 2.425059816159e+02 4.139122556630e+02 3.137356593988e+02 3.684234543165e+02 8.005572463309e+02 1.689777909448e+03 5.270253488833e+02 3.331668571620e+02 2.424305295107e+03 2.357235316723e+03 2.103378564138e+02 1.267494656697e+02 2.293704669988e+03 1.666181546749e+03 4.348952024044e+02 1.704629066226e+03 2.733642220412e+02 1.701172508256e+03 3.368310970071e+02 4.100387241963e+02 2.062827152457e+03 2.454462403399e+02 6.655613777378e+02 2.248787571489e+02 6.264282051699e+02 1.953787816787e+03 2.048243192671e+02 2.096493516682e+03 6.751373419648e+02 1.846906101852e+03 2.486045544472e+03 8.247895917616e+02 4.514527258272e+02 2.308517237627e+03 5.738608876700e+02 2.360114246875e+03 1.972563436522e+03 2.477861755231e+02 3.183457130142e+02 1.609926244579e+02 2.274184993271e+03 1.961776266973e+03 2.390360779909e+02 2.193248825431e+03 9.455504444969e+02 1.743307776566e+03 1.851262972761e+03 3.879209580965e+02 2.006385576933e+03 2.645412352195e+02 1.832706974218e+03 2.266941825883e+03 4.416768297139e+02 6.037902974858e+02 7.762074172995e+02 6.889111172045e+01 2.705969191304e+02 1.877430714354e+03 1.861891167223e+03 7.956757860231e+01 2.415288163897e+03 2.323608850313e+03 1.777626191443e+03 5.162072594779e+01 2.589500205375e+02 1.389683409934e+02 2.427672778746e+03 2.155974696714e+03 2.456897698968e+03 2.185162486482e+03 1.085424140191e+03 4.418324917343e+02 2.007147579471e+03 8.571885115026e+01 2.306369659138e+02 2.243217435414e+03 7.185805121353e+02 6.873637086458e+02 2.348395942757e+03 1.265299007350e+03 1.687602091442e+03 7.640576776184e+01 1.802590389649e+03 2.292135774459e+03 2.363790587789e+03 2.838133984157e+02 1.623515244569e+02 3.238436471178e+02 1.825733347169e+02 3.831946699574e+02 6.704744752246e+02 1.930181567705e+03 4.805300002277e+02 2.489080649753e+03 2.221934103078e+03 2.463872163524e+03 2.324874538895e+02 2.005252978144e+03 3.999065835705e+02 1.552257061228e+03 2.496340937005e+03 2.348293526764e+03 2.344859610452e+03 6.449087060020e+02 1.782350873465e+02 7.853076525282e+01 1.822491402883e+02 5.430747544199e+02 2.072014992457e+03 2.084783032035e+03 2.053200677011e+03 2.193436444853e+03 2.095476487870e+03 2.322442547278e+03 2.024015031964e+03 2.265513911035e+03 1.181733823107e+03 7.456581729822e+02 3.042425354926e+02 1.984509021176e+03 2.185589300359e+03 2.403511454217e+03 9.118069760268e+02 2.286861155859e+03 3.225644836756e+02 1.865403803728e+03 7.191651075885e+02 1.543150250652e+03 1.510656012156e+02 2.268192018721e+03 2.246848890833e+03 1.846785704891e+03 2.731742929457e+02 2.180969161718e+03 2.487793986026e+03 1.725863846362e+03 2.038952593808e+03 2.013201042829e+03 2.374798163687e+03 2.487480665121e+03 2.098517677388e+03 1.892210005594e+02 2.106712882431e+03 2.237286636939e+03 7.276316507306e+02 8.639969616204e+02 6.384585288000e+01 3.880970548941e+02 6.858819194496e+02 5.103984103782e+02 1.691672621251e+03 1.452849395739e+03 3.142039307882e+02 1.969774180585e+03 2.471583269336e+03 5.876337859877e+02 2.166883368307e+03 1.773360559516e+03 3.114147508463e+02 3.964414387668e+02 4.501187668257e+02 2.380968129727e+03 5.743295085561e+01 2.352225046533e+03 2.164494923551e+03 2.397487897849e+03 2.908676286407e+02 2.391847385731e+03 2.096726656849e+03 6.698112731054e+02 1.980788253654e+03 5.832100816628e+02 2.219322988220e+03 6.912161718885e+02 3.881535593917e+02 8.364681874296e+02 3.759772590821e+02 2.068740297943e+03 2.345617524787e+03 6.040302913384e+02 3.011887146161e+02 2.170911111653e+02 2.163346754446e+03 2.045339368614e+03 3.726441346159e+02 1.795387143210e+02 1.935413682475e+03 2.017134337727e+03 1.678630441030e+03 4.411014130406e+02 2.381405742443e+03 1.664720177