<?xml version="1.0"?>
<!-- Time step: 168 | Time: 2.900000000000e+04 -->
<VTKFile type="UnstructuredGrid" version="0.1" byte_order="LittleEndian">
  <UnstructuredGrid>
    <Piece NumberOfPoints="6824" NumberOfCells="13330">
      <Points>
        <DataArray type="Float64" NumberOfComponents="3" format="ascii">
          0.000000000000e+00 0.000000000000e+00 0.000000000000e+00
          0.000000000000e+00 0.000000000000e+00 2.600000000000e-01
          5.300000000000e-01 0.000000000000e+00 2.600000000000e-01
          5.300000000000e-01 0.000000000000e+00 0.000000000000e+00
          0.000000000000e+00 0.000000000000e+00 4.999999999991e-03
          0.000000000000e+00 0.000000000000e+00 9.999999999982e-03
          0.000000000000e+00 0.000000000000e+00 1.499999999997e-02
          0.000000000000e+00 0.000000000000e+00 1.999999999996e-02
          0.000000000000e+00 0.000000000000e+00 2.499999999996e-02
          0.000000000000e+00 0.000000000000e+00 2.999999999995e-02
          0.000000000000e+00 0.000000000000e+00 3.499999999994e-02
          0.000000000000e+00 0.000000000000e+00 3.999999999992e-02
          0.000000000000e+00 0.000000000000e+00 4.499999999991e-02
          0.000000000000e+00 0.000000000000e+00 4.999999999990e-02
          0.000000000000e+00 0.000000000000e+00 5.499999999988e-02
          0.000000000000e+00 0.000000000000e+00 5.999999999987e-02
          0.000000000000e+00 0.000000000000e+00 6.499999999985e-02
          0.000000000000e+00 0.000000000000e+00 6.999999999983e-02
          0.000000000000e+00 0.000000000000e+00 7.499999999983e-02
          0.000000000000e+00 0.000000000000e+00 7.999999999981e-02
          0.000000000000e+00 0.000000000000e+00 8.499999999979e-02
          0.000000000000e+00 0.000000000000e+00 8.999999999978e-02
          0.000000000000e+00 0.000000000000e+00 9.499999999977e-02
          0.000000000000e+00 0.000000000000e+00 9.999999999975e-02
          0.000000000000e+00 0.000000000000e+00 1.049999999997e-01
          0.000000000000e+00 0.000000000000e+00 1.099999999997e-01
          0.000000000000e+00 0.000000000000e+00 1.149999999997e-01
          0.000000000000e+00 0.000000000000e+00 1.199999999997e-01
          0.000000000000e+00 0.000000000000e+00 1.249999999997e-01
          0.000000000000e+00 0.000000000000e+00 1.299999999997e-01
          0.000000000000e+00 0.000000000000e+00 1.349999999997e-01
          0.000000000000e+00 0.000000000000e+00 1.399999999997e-01
          0.000000000000e+00 0.000000000000e+00 1.449999999997e-01
          0.000000000000e+00 0.000000000000e+00 1.499999999997e-01
          0.000000000000e+00 0.000000000000e+00 1.549999999997e-01
          0.000000000000e+00 0.000000000000e+00 1.599999999997e-01
          0.000000000000e+00 0.000000000000e+00 1.649999999998e-01
          0.000000000000e+00 0.000000000000e+00 1.699999999998e-01
          0.000000000000e+00 0.000000000000e+00 1.749999999998e-01
          0.000000000000e+00 0.000000000000e+00 1.799999999998e-01
          0.000000000000e+00 0.000000000000e+00 1.849999999998e-01
          0.000000000000e+00 0.000000000000e+00 1.899999999998e-01
          0.000000000000e+00 0.000000000000e+00 1.949999999998e-01
          0.000000000000e+00 0.000000000000e+00 1.999999999999e-01
          0.000000000000e+00 0.000000000000e+00 2.049999999999e-01
          0.000000000000e+00 0.000000000000e+00 2.099999999999e-01
          0.000000000000e+00 0.000000000000e+00 2.149999999999e-01
          0.000000000000e+00 0.000000000000e+00 2.199999999999e-01
          0.000000000000e+00 0.000000000000e+00 2.249999999999e-01
          0.000000000000e+00 0.000000000000e+00 2.299999999999e-01
          0.000000000000e+00 0.000000000000e+00 2.349999999999e-01
          0.000000000000e+00 0.000000000000e+00 2.399999999999e-01
          0.000000000000e+00 0.000000000000e+00 2.450000000000e-01
          0.000000000000e+00 0.000000000000e+00 2.500000000000e-01
          0.000000000000e+00 0.000000000000e+00 2.550000000000e-01
          4.999999999991e-03 0.000000000000e+00 2.600000000000e-01
          9.999999999981e-03 0.000000000000e+00 2.600000000000e-01
          1.499999999997e-02 0.000000000000e+00 2.600000000000e-01
          1.999999999996e-02 0.000000000000e+00 2.600000000000e-01
          2.499999999995e-02 0.000000000000e+00 2.600000000000e-01
          2.999999999994e-02 0.000000000000e+00 2.600000000000e-01
          3.499999999993e-02 0.000000000000e+00 2.600000000000e-01
          3.999999999992e-02 0.000000000000e+00 2.600000000000e-01
          4.499999999992e-02 0.000000000000e+00 2.600000000000e-01
          4.999999999991e-02 0.000000000000e+00 2.600000000000e-01
          5.499999999990e-02 0.000000000000e+00 2.600000000000e-01
          5.999999999990e-02 0.000000000000e+00 2.600000000000e-01
          6.499999999989e-02 0.000000000000e+00 2.600000000000e-01
          6.999999999988e-02 0.000000000000e+00 2.600000000000e-01
          7.499999999986e-02 0.000000000000e+00 2.600000000000e-01
          7.999999999985e-02 0.000000000000e+00 2.600000000000e-01
          8.499999999983e-02 0.000000000000e+00 2.600000000000e-01
          8.999999999981e-02 0.000000000000e+00 2.600000000000e-01
          9.499999999980e-02 0.000000000000e+00 2.600000000000e-01
          9.999999999979e-02 0.000000000000e+00 2.600000000000e-01
          1.049999999998e-01 0.000000000000e+00 2.600000000000e-01
          1.099999999998e-01 0.000000000000e+00 2.600000000000e-01
          1.149999999997e-01 0.000000000000e+00 2.600000000000e-01
          1.199999999997e-01 0.000000000000e+00 2.600000000000e-01
          1.249999999997e-01 0.000000000000e+00 2.600000000000e-01
          1.299999999997e-01 0.000000000000e+00 2.600000000000e-01
          1.349999999997e-01 0.000000000000e+00 2.600000000000e-01
          1.399999999997e-01 0.000000000000e+00 2.600000000000e-01
          1.449999999997e-01 0.000000000000e+00 2.600000000000e-01
          1.499999999996e-01 0.000000000000e+00 2.600000000000e-01
          1.549999999996e-01 0.000000000000e+00 2.600000000000e-01
          1.599999999996e-01 0.000000000000e+00 2.600000000000e-01
          1.649999999996e-01 0.000000000000e+00 2.600000000000e-01
          1.699999999996e-01 0.000000000000e+00 2.600000000000e-01
          1.749999999996e-01 0.000000000000e+00 2.600000000000e-01
          1.799999999995e-01 0.000000000000e+00 2.600000000000e-01
          1.849999999995e-01 0.000000000000e+00 2.600000000000e-01
          1.899999999995e-01 0.000000000000e+00 2.600000000000e-01
          1.949999999995e-01 0.000000000000e+00 2.600000000000e-01
          1.999999999995e-01 0.000000000000e+00 2.600000000000e-01
          2.049999999995e-01 0.000000000000e+00 2.600000000000e-01
          2.099999999995e-01 0.000000000000e+00 2.600000000000e-01
          2.149999999994e-01 0.000000000000e+00 2.600000000000e-01
          2.199999999994e-01 0.000000000000e+00 2.600000000000e-01
          2.249999999994e-01 0.000000000000e+00 2.600000000000e-01
          2.299999999994e-01 0.000000000000e+00 2.600000000000e-01
          2.349999999994e-01 0.000000000000e+00 2.600000000000e-01
          2.399999999994e-01 0.000000000000e+00 2.600000000000e-01
          2.449999999993e-01 0.000000000000e+00 2.600000000000e-01
          2.499999999993e-01 0.000000000000e+00 2.600000000000e-01
          2.549999999993e-01 0.000000000000e+00 2.600000000000e-01
          2.599999999993e-01 0.000000000000e+00 2.600000000000e-01
          2.649999999993e-01 0.000000000000e+00 2.600000000000e-01
          2.699999999993e-01 0.000000000000e+00 2.600000000000e-01
          2.749999999993e-01 0.000000000000e+00 2.600000000000e-01
          2.799999999993e-01 0.000000000000e+00 2.600000000000e-01
          2.849999999993e-01 0.000000000000e+00 2.600000000000e-01
          2.899999999993e-01 0.000000000000e+00 2.600000000000e-01
          2.949999999993e-01 0.000000000000e+00 2.600000000000e-01
          2.999999999994e-01 0.000000000000e+00 2.600000000000e-01
          3.049999999994e-01 0.000000000000e+00 2.600000000000e-01
          3.099999999994e-01 0.000000000000e+00 2.600000000000e-01
          3.149999999994e-01 0.000000000000e+00 2.600000000000e-01
          3.199999999994e-01 0.000000000000e+00 2.600000000000e-01
          3.249999999994e-01 0.000000000000e+00 2.600000000000e-01
          3.299999999994e-01 0.000000000000e+00 2.600000000000e-01
          3.349999999995e-01 0.000000000000e+00 2.600000000000e-01
          3.399999999995e-01 0.000000000000e+00 2.600000000000e-01
          3.449999999995e-01 0.000000000000e+00 2.600000000000e-01
          3.499999999995e-01 0.000000000000e+00 2.600000000000e-01
          3.549999999995e-01 0.000000000000e+00 2.600000000000e-01
          3.599999999995e-01 0.000000000000e+00 2.600000000000e-01
          3.649999999996e-01 0.000000000000e+00 2.600000000000e-01
          3.699999999996e-01 0.000000000000e+00 2.600000000000e-01
          3.749999999996e-01 0.000000000000e+00 2.600000000000e-01
          3.799999999996e-01 0.000000000000e+00 2.600000000000e-01
          3.849999999996e-01 0.000000000000e+00 2.600000000000e-01
          3.899999999996e-01 0.000000000000e+00 2.600000000000e-01
          3.949999999996e-01 0.000000000000e+00 2.600000000000e-01
          3.999999999996e-01 0.000000000000e+00 2.600000000000e-01
          4.049999999996e-01 0.000000000000e+00 2.600000000000e-01
          4.099999999996e-01 0.000000000000e+00 2.600000000000e-01
          4.149999999997e-01 0.000000000000e+00 2.600000000000e-01
          4.199999999997e-01 0.000000000000e+00 2.600000000000e-01
          4.249999999997e-01 0.000000000000e+00 2.600000000000e-01
          4.299999999997e-01 0.000000000000e+00 2.600000000000e-01
          4.349999999997e-01 0.000000000000e+00 2.600000000000e-01
          4.399999999997e-01 0.000000000000e+00 2.600000000000e-01
          4.449999999997e-01 0.000000000000e+00 2.600000000000e-01
[...]
      <PointData Scalars="PRESSURE1">
        <DataArray type="Float64" Name="PRESSURE1" format="ascii">
          2.566590300000e+03 -5.032530000000e+01 5.395500000000e+01 2.604555000000e+03 2.516265000000e+03 2.465939700000e+03 2.415614400000e+03 2.365289100000e+03 2.314963800000e+03 2.264638500001e+03 2.214313200001e+03 2.163987900001e+03 2.113662600001e+03 2.063337300001e+03 2.013012000001e+03 1.962686700001e+03 1.912361400001e+03 1.862036100002e+03 1.811710800002e+03 1.761385500002e+03 1.711060200002e+03 1.660734900002e+03 1.610409600002e+03 1.560084300003e+03 1.509759000003e+03 1.459433700003e+03 1.409108400003e+03 1.358783100003e+03 1.308457800003e+03 1.258132500003e+03 1.207807200003e+03 1.157481900003e+03 1.107156600003e+03 1.056831300003e+03 1.006506000003e+03 9.561807000026e+02 9.058554000024e+02 8.555301000022e+02 8.052048000022e+02 7.548795000020e+02 7.045542000019e+02 6.542289000018e+02 6.039036000017e+02 5.535783000015e+02 5.032530000014e+02 4.529277000013e+02 4.026024000011e+02 3.522771000010e+02 3.019518000009e+02 2.516265000007e+02 2.013012000006e+02 1.509759000005e+02 1.006506000004e+02 5.032530000026e+01 1.810262739710e-10 -4.587433531572e+01 -4.268365450543e+01 -3.994395407543e+01 -3.749731846749e+01 -3.525374666768e+01 -3.317259161709e+01 -3.122415696211e+01 -2.938967420785e+01 -2.764005773023e+01 -2.597674732664e+01 -2.438777526906e+01 -2.286360226763e+01 -2.139808780945e+01 -1.998508204395e+01 -1.861651667498e+01 -1.729471958564e+01 -1.601481560325e+01 -1.476935136460e+01 -1.355956418575e+01 -1.238257183140e+01 -1.123432027876e+01 -1.011337354188e+01 -9.017813658494e+00 -7.945284026086e+00 -6.895213917869e+00 -5.866277552865e+00 -4.858091611765e+00 -3.867648047237e+00 -2.895016388748e+00 -1.938347818174e+00 -9.964816597129e-01 -7.012874753910e-02 8.421397585595e-01 1.741497969979e+00 2.628926742895e+00 3.504827081891e+00 4.369139457246e+00 5.223853241212e+00 6.067734329905e+00 6.902368461837e+00 7.728679984925e+00 8.546564165326e+00 9.356147991535e+00 1.015834020058e+01 1.095307584559e+01 1.174159241317e+01 1.252365884935e+01 1.329934730092e+01 1.406951136166e+01 1.483443628480e+01 1.559370856182e+01 1.634845082321e+01 1.709832609361e+01 1.784395739377e+01 1.858537162882e+01 1.932284649111e+01 2.005676705485e+01 2.078714524437e+01 2.151411956708e+01 2.223803850324e+01 2.295889634013e+01 2.367694232818e+01 2.439248868473e+01 2.510531573237e+01 2.581582018569e+01 2.652425834003e+01 2.723059304101e+01 2.793476718925e+01 2.863709893037e+01 2.933775274935e+01 3.003658252027e+01 3.073396254457e+01 3.142982052300e+01 3.212428810877e+01 3.281743157330e+01 3.350934478077e+01 3.420007528412e+01 3.488973309517e+01 3.557837536662e+01 3.626606921611e+01 3.695277416583e+01 3.763870136718e+01 3.832376985367e+01 3.900820573127e+01 3.969185051490e+01 4.037488508606e+01 4.105730715114e+01 4.173917432679e+01 4.242050457583e+01 4.310132688104e+01 4.378172794513e+01 4.446171069156e+01 4.514131475463e+01 4.582057062489e+01 4.649949875476e+01 4.717816700542e+01 4.785655567985e+01 4.853473141660e+01 4.921269221041e+01 4.989047950679e+01 5.056812702234e+01 5.124565037623e+01 5.192307119955e+01 5.260042081171e+01 5.327772441058e+01 1.030050000000e+02 1.520549999998e+02 2.011049999998e+02 2.501549999997e+02 2.992049999996e+02 3.482549999995e+02 3.973049999995e+02 4.463549999993e+02 4.954049999991e+02 5.444549999990e+02 5.935049999989e+02 6.425549999988e+02 6.916049999986e+02 7.406549999985e+02 7.897049999983e+02 8.387549999981e+02 8.878049999980e+02 9.368549999979e+02 9.859049999978e+02 1.034954999998e+03 1.084004999998e+03 1.133054999997e+03 1.182104999997e+03 1.231154999997e+03 1.280204999997e+03 1.329254999997e+03 1.378304999997e+03 1.427354999997e+03 1.476404999997e+03 1.525454999997e+03 1.574504999997e+03 1.623554999998e+03 1.672604999998e+03 1.721654999998e+03 1.770704999998e+03 1.819754999998e+03 1.868804999998e+03 1.917854999998e+03 1.966904999998e+03 2.015954999999e+03 2.065004999999e+03 2.114054999999e+03 2.163104999999e+03 2.212154999999e+03 2.261204999999e+03 2.310254999999e+03 2.359304999999e+03 2.408354999999e+03 2.457405000000e+03 2.506455000000e+03 2.555505000000e+03 2.603891208030e+03 2.603227441788e+03 2.602563726931e+03 2.601900086326e+03 2.601236548107e+03 2.600573133048e+03 2.599909872483e+03 2.599246786221e+03 2.598583914085e+03 2.597921282843e+03 2.597258918509e+03 2.596596842272e+03 2.595935089053e+03 2.595273719370e+03 2.594612718764e+03 2.593952160802e+03 2.593292058124e+03 2.592632487496e+03 2.591973476360e+03 2.591315038185e+03 2.590657199980e+03 2.590000089135e+03 2.589343729118e+03 2.588688112870e+03 2.588033431810e+03 2.587379573838e+03 2.586726791530e+03 2.586074886077e+03 2.585424229635e+03 2.584774704965e+03 2.584126495622e+03 2.583479621152e+03 2.582834249049e+03 2.582190424119e+03 2.581548162984e+03 2.580907703760e+03 2.580269324542e+03 2.579632885618e+03 2.578998576426e+03 2.578366520601e+03 2.577737147048e+03 2.577110389216e+03 2.576486291798e+03 2.575865589485e+03 2.575248180647e+03 2.574633895804e+03 2.574023630497e+03 2.573417353246e+03 2.572815543449e+03 2.572218160823e+03 2.571626575581e+03 2.571039909457e+03 2.570459508186e+03 2.569885449433e+03 2.569318623434e+03 2.568759562121e+03 2.568208542781e+03 2.567667077249e+03 2.567136153049e+03 2.566615948386e+03 2.566108900491e+03 2.565616726080e+03 2.565141581178e+03 2.564685958154e+03 2.564254466169e+03 2.563852032858e+03 2.563492764630e+03 2.563198317811e+03 2.563004280291e+03 2.562997680260e+03 2.563119619862e+03 2.563303906706e+03 2.563493825456e+03 2.563693942585e+03 2.563869864373e+03 2.564037694515e+03 2.564194740340e+03 2.564341016013e+03 2.564476867016e+03 2.564600363019e+03 2.564715259623e+03 2.564823186969e+03 2.564925882666e+03 2.565023496947e+03 2.565117082090e+03 2.565207115387e+03 2.565293810516e+03 2.565377309445e+03 2.565458217907e+03 2.565536432939e+03 2.565612401019e+03 2.565686159057e+03 2.565758139939e+03 2.565828357721e+03 2.565896937940e+03 2.565964294613e+03 2.566030273980e+03 2.566095260063e+03 2.566159163237e+03 2.566222280494e+03 2.566284713391e+03 2.566346525064e+03 2.566407878789e+03 2.566468879291e+03 2.566529645723e+03 8.401481854775e+02 8.090582578961e+02 1.779663263893e+03 2.194044553814e+03 4.347789348483e+02 2.227865747169e+03 3.612634179613e+02 6.322947122051e+02 1.304034268377e+03 2.331370918528e+03 2.552074138576e+02 5.166547094116e+02 2.000151469050e+03 5.730376075733e+02 1.931662141530e+03 2.322598082663e+03 2.596368245402e+02 6.381863670585e+02 2.343179253553e+03 2.681279586286e+02 8.082104834389e+02 6.187868203483e+02 1.940493993916e+03 2.176446611723e+03 3.837658762249e+02 1.985849627370e+03 5.799210399401e+02 6.476644701661e+02 2.004532959233e+03 1.800308335263e+03 4.858080774348e+02 8.209533956058e+02 1.739454290489e+03 1.811987973331e+03 3.142702113292e+02 8.536920891635e+02 1.982131998154e+03 2.332138162783e+03 5.157870240173e+02 1.982492986583e+03 6.327300708108e+02 7.067389302563e+02 1.852652286102e+03 2.001795521583e+03 2.099925891580e+03 2.098889567460e+03 2.995099084155e+02 2.801813614297e+02 2.066158627578e+03 2.121015180360e+03 2.137259842632e+03 4.543398439960e+02 5.028994974444e+02 2.181242230971e+03 2.121857525591e+03 3.638610732900e+02 4.026561847333e+02 2.203378946864e+03 3.206051215254e+02 2.340061579429e+03 4.569107032635e+02 2.270039560648e+03 1.731251666798e+02 2.214484023910e+03 2.349724380209e+03 2.418320855107e+03 3.027052736617e+02 2.306798512228e+03 2.988296231063e+02 2.013429628836e+02 2.447735756987e+03 2.251867153358e+02 2.431098822732e+03 2.472583479927e+03 2.535733147323e+02 2.485746084087e+03 1.195712717631e+02 2.413483397416e+03 2.456697208477e+03 2.011681404528e+02 2.464497326972e+03 2.493717215491e+03 2.522094323188e+03 2.489008709323e+03 1.269707854945e+02 7.963193831102e+02 1.758908264016e+03 7.959302272790e+02 1.366600715468e+03 4.865950502601e+02 2.107550097037e+03 2.099864566302e+03 3.909431304812e+02 4.726540443726e+02 2.935766326290e+02 2.290065094818e+03 9.584736619530e+02 1.768318118919e+03 1.954703853946e+03 2.330376007505e+03 1.578890605122e+03 9.751386857128e+02 3.179709316525e+02 1.640664218598e+03 2.414970744509e+03 1.601546317637e+03 4.644628373568e+02 2.118527240118e+03 1.429810632280e+02 9.851002073906e+02 1.662612776133e+03 9.321940046729e+02 3.976306774292e+02 1.156664058359e+03 2.160946122713e+03 3.604798092594e+02 1.515282196530e+02 9.302193359105e+02 1.692586630147e+03 2.028151845127e+03 5.796177069535e+02 2.791755036167e+02 2.411783118008e+03 1.732035194169e+02 2.230936103579e+03 1.460975770629e+03 1.082646508352e+03 2.129950621001e+02 2.414650024651e+03 2.238427298440e+03 2.343101355869e+03 3.286530359780e+02 2.371144289826e+03 3.340945927080e+02 2.292174706668e+03 2.369771900225e+03 2.167571282295e+03 2.385933769211e+03 2.226565945040e+03 2.371554727446e+03 1.350626887240e+03 2.184883822232e+03 4.152269770983e+02 1.710794008860e+02 2.430947952605e+03 7.922433726894e+01 2.482247080447e+03 1.893358922561e+03 7.411000988179e+02 2.071789769253e+03 7.612078773059e+02 1.666444355467e+03 2.379959477970e+03 2.443373978425e+03 2.158971842017e+02 1.923224445423e+02 9.602088505501e+01 7.193360710988e+02 2.580265260246e+02 2.336200836254e+03 1.214487059190e+02 9.697387890973e+02 1.227311264252e+03 2.262817131281e+03 6.196489355748e+02 1.105560039866e+03 6.522033451425e+02 2.620669613406e+02 2.397968996426e+03 1.996193831762e+03 6.388771906525e+02 2.646129662335e+02 1.351618726632e+02 1.837957762429e+02 2.329089731374e+03 2.005562677587e+03 1.596373473580e+03 1.974297618475e+03 5.058842033796e+02 2.078484812629e+03 1.708442516689e+03 1.834920034497e+02 5.292804377437e+02 2.082475735712e+03 2.233149516515e+03 3.642834628228e+02 2.105627976963e+03 2.155819061079e+03 2.361112351898e+03 1.031341259365e+03 2.463456945824e+03 6.955625824288e+02 1.781610778385e+03 1.237614954648e+02 1.305625320626e+02 7.870574014577e+02 2.094433315554e+03 1.343197949814e+02 1.392803525641e+02 1.893827477737e+03 2.202227099232e+03 9.455325557310e+02 5.692782483119e+02 1.823019576898e+02 4.310171848811e+02 2.346678250958e+02 7.778650879298e+02 1.081919400687e+02 5.925144293230e+02 2.472999772862e+03 1.737626407604e+03 2.137873910593e+03 3.192264132679e+02 7.672921830278e+02 2.405837621210e+03 1.531180870270e+02 5.597367500746e+02 7.343487296113e+02 2.135084195664e+03 4.776846551505e+02 2.220541139384e+03 5.595060509072e+02 2.509862538984e+03 4.120740515359e+02 1.389374972054e+02 2.460659764023e+03 4.766525150830e+02 3.563971897928e+02 2.448373050904e+03 1.331662094905e+02 2.454988197461e+03 2.226557020199e+03 2.976949361390e+02 2.446590742591e+03 3.246103562277e+02 2.901541708287e+02 1.313860023516e+02 2.454872594785e+03 4.944649862730e+02 5.223351396734e+02 1.854018975144e+03 5.109419582471e+02 2.475494319459e+03 4.991882869738e+02 6.110114890333e+02 5.646324613864e+02 1.633074219735e+02 6.280463647993e+02 1.905716889124e+03 3.154373608144e+02 2.270611961601e+03 3.745971613240e+02 1.121939647910e+02 2.478151674564e+03 2.043499520857e+03 2.334264069906e+03 2.405705921782e+02 4.518947533448e+02 3.384847071924e+02 1.894821041838e+03 3.922451272987e+02 2.494979891639e+03 8.043777215552e+02 2.426116375667e+03 1.151720105729e+02 2.473503730860e+03 2.324357112471e+03 7.357920891498e+01 5.438133202478e+02 1.952271886969e+03 2.515254266218e+03 2.256182299410e+03 2.331013101617e+03 1.391280521987e+02 2.415677215541e+03 2.583147607692e+02 2.283543722814e+03 3.162409963672e+02 7.332390749532e+02 1.919883328720e+03 1.727520798212e+02 6.753453848957e+02 3.733996207886e+02 1.180780856683e+02 2.385209661305e+03 2.171523214368e+02 2.277584577535e+03 1.884421654214e+03 2.432918374640e+02 1.806962776727e+03 1.235251599121e+02 2.341548437312e+03 2.456437206352e+03 4.466846159318e+01 2.345762129688e+03 2.089791457588e+02 3.159941018446e+02 2.272140448316e+03 2.513505547089e+03 2.810000749391e+02 2.228337417172e+03 2.348943916499e+02 2.385902519116e+03 9.120641879395e+01 2.402149062210e+03 2.527429291624e+03 2.102630289711e+03 2.345799492826e+03 2.490779909869e+03 5.226321604315e+02 2.319626527787e+03 2.063212062816e+02 2.523887681741e+03 1.666931179296e+02 2.414754113217e+03 2.149554393623e+02 6.615283812320e+02 1.284034857002e+02 2.525129112644e+03 2.228628220742e+03 4.757284837585e+02 1.549311710198e+02 2.507708265983e+02 2.439458601305e+03 6.695322600650e+02 2.522297149095e+03 6.123582658921e+02 1.976871660022e+03 2.288852181359e+03 2.400969986333e+03 2.290205149003e+03 2.421845352129e+02 3.006322096158e+02 4.477948447239e+02 2.257903056778e+03 8.528732018876e+01 2.122484432031e+02 8.231631005576e+01 2.016327305586e+02 2.189070492904e+03 2.426742740237e+03 2.444666375646e+03 2.523177425005e+03 2.438930043238e+03 2.383909993404e+02 3.551867957380e+02 1.249558288587e+02 6.324329332049e+02 5.399587865257e+02 6.607273624664e+02 6.802694572184e+02 4.558659481288e+02 1.937826218619e+03 1.658163996002e+02 1.095430030759e+02 2.382945181214e+03 2.026581905033e+03 2.486441869755e+03 1.465108969530e+02 2.185485463135e+03 1.766259451239e+03 1.906726342546e+03 8.278255617726e+02 1.769069535160e+03 1.547325540289e+03 1.337813857579e+03 1.221191876390e+03 1.081115362868e+03 1.231093773461e+03 1.936589875740e+03 1.729711782528e+03 5.880409641277e+02 1.101004082486e+03 5.922374009634e+02 1.331100387630e+03 1.235646002985e+03 1.371998436958e+03 1.427474420464e+03 7.876546733715e+02 1.446547373235e+03 7.611051296136e+02 1.344515242613e+03 1.611724189699e+03 1.005010357722e+03 1.074736045448e+03 1.911375613913e+03 1.000587446840e+03 1.146559894207e+03 9.101023185132e+02 1.948666878854e+03 1.889658253735e+03 1.543559370136e+03 8.891847682070e+02 1.893271094258e+03 1.952256534071e+03 1.396484391351e+03 1.444285823834e+03 1.568158035955e+03 1.007940997261e+03 1.972682838003e+03 1.563271227046e+03 1.147308631325e+03 6.472957884309e+02 6.187835821877e+02 2.219385704069e+02 9.215372129213e+02 1.350340462184e+03 1.587482616713e+03 1.633114088525e+03 1.556277251234e+03 1.195145820736e+03 2.361206711858e+03 1.873806108934e+03 1.566885499403e+02 1.118533916158e+03 1.830260945361e+03 1.424493181207e+03 1.650207716627e+03 2.434568014811e+02 1.708440869384e+03 2.269139588143e+02 2.377372899380e+03 1.180034756187e+03 7.050651459350e+02 1.661210005882e+03 2.141301657185e+03 8.941475037268e+02 4.463341916631e+02 1.940579311265e+03 6.496359353480e+02 2.139586991740e+03 1.767092698338e+03 9.338671930805e+02 2.437136183940e+03 1.720984266576e+02 1.197055325107e+03 3.626008186155e+02 1.531338732508e+03 2.175321726665e+03 2.431810199567e+03 2.413223071354e+03 6.543278533177e+02 2.319055469170e+03 2.059200516487e+03 5.452039250007e+02 1.825091976135e+03 1.078147633022e+03 6.126767014060e+02 1.615854696366e+02 1.990936833856e+03 1.414256457843e+02 5.256589464964e+02 2.445434109110e+03 1.401369960709e+02 3.091292168858e+02 9.503639757253e+02 2.290962544339e+03 1.777688852211e+03 1.068427165572e+03 1.939064264582e+03 8.024586304508e+02 4.613068944127e+02 7.951090227914e+02 7.405514572983e+02 7.342799266355e+02 1.135565909211e+02 2.200097402168e+03 2.307549762773e+02 4.468311811363e+02 6.054855773210e+02 6.845503710736e+02 5.467070832823e+02 1.714629144125e+02 2.334023912977e+03 9.289827973957e+02 8.824081325585e+02 2.010477206114e+02 2.061120429904e+03 2.394863527671e+03 1.976951542244e+03 5.374370688856e+02 2.001085659786e+03 2.225126904131e+03 1.561909986518e+03 9.989682546725e+02 2.102902437452e+03 2.445029956346e+03 2.040459477798e+02 2.170783792858e+03 2.125918775097e+02 1.372536874646e+03 8.249429102438e+02 6.172188609420e+02 2.094351844448e+03 4.341474593760e+02 2.129421686298e+03 2.050539678890e+03 3.172661677035e+02 7.175291582175e+01 2.449791990698e+02 1.895051191615e+03 2.214241216717e+03 4.597890484684e+02 4.455122753548e+02 2.122507265599e+03 3.679039598848e+02 1.355621585783e+03 4.207043327475e+02 1.752401668377e+03 1.008550552443e+03 4.400308768860e+02 1.198754127416e+03 2.265192357436e+03 2.670322095626e+02 4.908539200423e+02 1.893500972289e+03 1.381082493676e+02 2.127541773742e+03 2.155934586677e+03 1.056563317380e+02 2.260863816417e+03 2.079502486635e+03 2.470976007928e+03 6.832950482849e+02 2.263667482209e+03 1.854552230608e+03 2.266691770951e+03 2.278019716810e+03 2.240569412355e+03 2.279925862371e+03 2.276452784997e+03 1.640669262408e+03 2.150023252045e+03 2.065730868340e+03 1.950436387728e+03 2.116629226613e+03 2.564068330173e+02 4.220196134324e+02 3.365382703465e+02 3.814634251072e+02 8.322141871158e+02 1.720355284670e+03 5.294187203024e+02 3.477883125474e+02 2.424070452654e+03 2.356915861903e+03 2.184264310825e+02 1.552931017127e+02 2.318991890768e+03 1.695774531600e+03 4.614006513833e+02 1.704753390926e+03 2.876825462108e+02 1.729418817730e+03 3.634257141148e+02 4.201299049813e+02 2.062666006468e+03 2.761919000923e+02 6.950050601320e+02 2.333610885738e+02 6.553255366442e+02 1.954099092159e+03 2.136194308023e+02 2.096993168557e+03 7.056944077220e+02 1.878403611050e+03 2.485769209223e+03 8.285979430719e+02 4.757274248352e+02 2.332918237419e+03 6.031956533934e+02 2.385717441847e+03 1.972541091821e+03 2.547103844903e+02 3.308977870266e+02 1.747804248354e+02 2.304408516280e+03 1.988775728105e+03 2.511237783065e+02 2.215717307667e+03 9.478509550874e+02 1.775912133867e+03 1.851313518799e+03 4.125853004845e+02 2.009542085848e+03 2.926126016720e+02 1.861307816261e+03 2.266494506142e+03 4.670511337127e+02 6.075218727463e+02 7.808484603362e+02 8.265476574147e+01 2.756035405753e+02 1.909587430109e+03 1.861850164324e+03 9.360010917812e+01 2.444057849489e+03 2.347090461592e+03 1.807208510512e+03 6.818725750469e+01 2.629631153141e+02 1.621190998503e+02 2.428799616935e+03 2.184464524147e+03 2.456328450585e+03 2.185060452314e+03 1.118741705459e+03 4.701683532982e+02 2.007069481401e+03 9.859765717531e+01 2.358433069456e+02 2.258813370859e+03 7.205385631814e+02 6.914868718499e+02 2.347800192790e+03 1.299308401825e+03 1.718758697982e+03 9.751187716586e+01 1.802554224900e+03 2.291641383372e+03 2.391715775335e+03 3.016827956757e+02 1.910230076619e+02 3.514717002290e+02 1.883746082404e+02 3.900424638424e+02 7.033568331206e+02 1.930136956200e+03 4.813841823717e+02 2.511284578503e+03 2.249160088521e+03 2.463475605660e+03 2.601094638331e+02 2.037897461795e+03 4.134917125863e+02 1.583225939651e+03 2.497053168364e+03 2.375390278188e+03 2.372409071927e+03 6.548009887731e+02 2.054658886691e+02 1.009125956274e+02 2.126210139884e+02 5.474552556577e+02 2.071991203669e+03 2.114903134531e+03 2.086047180658e+03 2.193193184617e+03 2.128625359495e+03 2.353693675375e+03 2.056415576857e+03 2.265466489191e+03 1.182095705632e+03 7.781959480384e+02 3.329695871653e+02 1.984371531476e+03 2.185271564180e+03 2.402777285959e+03 9.453006818237e+02 2.286531408062e+03 3.309215635536e+02 1.865326870119e+03 7.257741168847e+02 1.576068549265e+03 1.819794782741e+02 2.269063320580e+03 2.246664966079e+03 1.846725946281e+03 2.862236380184e+02 2.180778387928e+03 2.517612742473e+03 1.725838183959e+03 2.038886352794e+03 2.044683346636e+03 2.374595645642e+03 2.510618748694e+03 2.098446991362e+03 2.190603897184e+02 2.137457165562e+03 2.242019468760e+03 7.590588937025e+02 8.704174634046e+02 7.840965955437e+01 3.940106122705e+02 6.912640472539e+02 5.194084837698e+02 1.723404908209e+03 1.486714926361e+03 3.376454779518e+02 1.969688554813e+03 2.495526676895e+03 5.916216991615e+02 2.171984840022e+03 1.804785735745e+03 3.209663006376e+02 4.276209068374e+02 4.555674054708e+02 2.410279227831e+03 6.385326219223e+01 2.383134163442e+03 2.168356915833e+03 2.424030058826e+03 3.171048865347e+02 2.391154693852e+03 2.099803313179e+03 6.758130684474e+02 2.014607908553e+03 5.934902147850e+02 2.220884154396e+03 7.006483678196e+02 3.911891512738e+02 8.694477280709e+02 4.045633396785e+02 2.068532919621e+03 2.374004904863e+03 6.055531938589e+02 3.350393155801e+02 2.305379807042e+02 2.163276264406e+03 2.077163589829e+03 4.040951928464e+02 1.837074686939e+02 1.935378385056e+03 2.016965306410e+03 1.678620966359e+03 4.699297425270e+02 2.380751950912e+03 1.697568694772e+03 2.247698158150e+