<?xml version="1.0"?>
<!-- Time step: 115 | Time: 1.900000000000e+04 -->
<VTKFile type="UnstructuredGrid" version="0.1" byte_order="LittleEndian">
  <UnstructuredGrid>
    <Piece NumberOfPoints="6824" NumberOfCells="13330">
      <Points>
        <DataArray type="Float64" NumberOfComponents="3" format="ascii">
          0.000000000000e+00 0.000000000000e+00 0.000000000000e+00
          0.000000000000e+00 0.000000000000e+00 2.600000000000e-01
          5.300000000000e-01 0.000000000000e+00 2.600000000000e-01
          5.300000000000e-01 0.000000000000e+00 0.000000000000e+00
          0.000000000000e+00 0.000000000000e+00 4.999999999991e-03
          0.000000000000e+00 0.000000000000e+00 9.999999999982e-03
          0.000000000000e+00 0.000000000000e+00 1.499999999997e-02
          0.000000000000e+00 0.000000000000e+00 1.999999999996e-02
          0.000000000000e+00 0.000000000000e+00 2.499999999996e-02
          0.000000000000e+00 0.000000000000e+00 2.999999999995e-02
          0.000000000000e+00 0.000000000000e+00 3.499999999994e-02
          0.000000000000e+00 0.000000000000e+00 3.999999999992e-02
          0.000000000000e+00 0.000000000000e+00 4.499999999991e-02
          0.000000000000e+00 0.000000000000e+00 4.999999999990e-02
          0.000000000000e+00 0.000000000000e+00 5.499999999988e-02
          0.000000000000e+00 0.000000000000e+00 5.999999999987e-02
          0.000000000000e+00 0.000000000000e+00 6.499999999985e-02
          0.000000000000e+00 0.000000000000e+00 6.999999999983e-02
          0.000000000000e+00 0.000000000000e+00 7.499999999983e-02
          0.000000000000e+00 0.000000000000e+00 7.999999999981e-02
          0.000000000000e+00 0.000000000000e+00 8.499999999979e-02
          0.000000000000e+00 0.000000000000e+00 8.999999999978e-02
          0.000000000000e+00 0.000000000000e+00 9.499999999977e-02
          0.000000000000e+00 0.000000000000e+00 9.999999999975e-02
          0.000000000000e+00 0.000000000000e+00 1.049999999997e-01
          0.000000000000e+00 0.000000000000e+00 1.099999999997e-01
          0.000000000000e+00 0.000000000000e+00 1.149999999997e-01
          0.000000000000e+00 0.000000000000e+00 1.199999999997e-01
          0.000000000000e+00 0.000000000000e+00 1.249999999997e-01
          0.000000000000e+00 0.000000000000e+00 1.299999999997e-01
          0.000000000000e+00 0.000000000000e+00 1.349999999997e-01
          0.000000000000e+00 0.000000000000e+00 1.399999999997e-01
          0.000000000000e+00 0.000000000000e+00 1.449999999997e-01
          0.000000000000e+00 0.000000000000e+00 1.499999999997e-01
          0.000000000000e+00 0.000000000000e+00 1.549999999997e-01
          0.000000000000e+00 0.000000000000e+00 1.599999999997e-01
          0.000000000000e+00 0.000000000000e+00 1.649999999998e-01
          0.000000000000e+00 0.000000000000e+00 1.699999999998e-01
          0.000000000000e+00 0.000000000000e+00 1.749999999998e-01
          0.000000000000e+00 0.000000000000e+00 1.799999999998e-01
          0.000000000000e+00 0.000000000000e+00 1.849999999998e-01
          0.000000000000e+00 0.000000000000e+00 1.899999999998e-01
          0.000000000000e+00 0.000000000000e+00 1.949999999998e-01
          0.000000000000e+00 0.000000000000e+00 1.999999999999e-01
          0.000000000000e+00 0.000000000000e+00 2.049999999999e-01
          0.000000000000e+00 0.000000000000e+00 2.099999999999e-01
          0.000000000000e+00 0.000000000000e+00 2.149999999999e-01
          0.000000000000e+00 0.000000000000e+00 2.199999999999e-01
          0.000000000000e+00 0.000000000000e+00 2.249999999999e-01
          0.000000000000e+00 0.000000000000e+00 2.299999999999e-01
          0.000000000000e+00 0.000000000000e+00 2.349999999999e-01
          0.000000000000e+00 0.000000000000e+00 2.399999999999e-01
          0.000000000000e+00 0.000000000000e+00 2.450000000000e-01
          0.000000000000e+00 0.000000000000e+00 2.500000000000e-01
          0.000000000000e+00 0.000000000000e+00 2.550000000000e-01
          4.999999999991e-03 0.000000000000e+00 2.600000000000e-01
          9.999999999981e-03 0.000000000000e+00 2.600000000000e-01
          1.499999999997e-02 0.000000000000e+00 2.600000000000e-01
          1.999999999996e-02 0.000000000000e+00 2.600000000000e-01
          2.499999999995e-02 0.000000000000e+00 2.600000000000e-01
          2.999999999994e-02 0.000000000000e+00 2.600000000000e-01
          3.499999999993e-02 0.000000000000e+00 2.600000000000e-01
          3.999999999992e-02 0.000000000000e+00 2.600000000000e-01
          4.499999999992e-02 0.000000000000e+00 2.600000000000e-01
          4.999999999991e-02 0.000000000000e+00 2.600000000000e-01
          5.499999999990e-02 0.000000000000e+00 2.600000000000e-01
          5.999999999990e-02 0.000000000000e+00 2.600000000000e-01
          6.499999999989e-02 0.000000000000e+00 2.600000000000e-01
          6.999999999988e-02 0.000000000000e+00 2.600000000000e-01
          7.499999999986e-02 0.000000000000e+00 2.600000000000e-01
          7.999999999985e-02 0.000000000000e+00 2.600000000000e-01
          8.499999999983e-02 0.000000000000e+00 2.600000000000e-01
          8.999999999981e-02 0.000000000000e+00 2.600000000000e-01
          9.499999999980e-02 0.000000000000e+00 2.600000000000e-01
          9.999999999979e-02 0.000000000000e+00 2.600000000000e-01
          1.049999999998e-01 0.000000000000e+00 2.600000000000e-01
          1.099999999998e-01 0.000000000000e+00 2.600000000000e-01
          1.149999999997e-01 0.000000000000e+00 2.600000000000e-01
          1.199999999997e-01 0.000000000000e+00 2.600000000000e-01
          1.249999999997e-01 0.000000000000e+00 2.600000000000e-01
          1.299999999997e-01 0.000000000000e+00 2.600000000000e-01
          1.349999999997e-01 0.000000000000e+00 2.600000000000e-01
          1.399999999997e-01 0.000000000000e+00 2.600000000000e-01
          1.449999999997e-01 0.000000000000e+00 2.600000000000e-01
          1.499999999996e-01 0.000000000000e+00 2.600000000000e-01
          1.549999999996e-01 0.000000000000e+00 2.600000000000e-01
          1.599999999996e-01 0.000000000000e+00 2.600000000000e-01
          1.649999999996e-01 0.000000000000e+00 2.600000000000e-01
          1.699999999996e-01 0.000000000000e+00 2.600000000000e-01
          1.749999999996e-01 0.000000000000e+00 2.600000000000e-01
          1.799999999995e-01 0.000000000000e+00 2.600000000000e-01
          1.849999999995e-01 0.000000000000e+00 2.600000000000e-01
          1.899999999995e-01 0.000000000000e+00 2.600000000000e-01
          1.949999999995e-01 0.000000000000e+00 2.600000000000e-01
          1.999999999995e-01 0.000000000000e+00 2.600000000000e-01
          2.049999999995e-01 0.000000000000e+00 2.600000000000e-01
          2.099999999995e-01 0.000000000000e+00 2.600000000000e-01
          2.149999999994e-01 0.000000000000e+00 2.600000000000e-01
          2.199999999994e-01 0.000000000000e+00 2.600000000000e-01
          2.249999999994e-01 0.000000000000e+00 2.600000000000e-01
          2.299999999994e-01 0.000000000000e+00 2.600000000000e-01
          2.349999999994e-01 0.000000000000e+00 2.600000000000e-01
          2.399999999994e-01 0.000000000000e+00 2.600000000000e-01
          2.449999999993e-01 0.000000000000e+00 2.600000000000e-01
          2.499999999993e-01 0.000000000000e+00 2.600000000000e-01
          2.549999999993e-01 0.000000000000e+00 2.600000000000e-01
          2.599999999993e-01 0.000000000000e+00 2.600000000000e-01
          2.649999999993e-01 0.000000000000e+00 2.600000000000e-01
          2.699999999993e-01 0.000000000000e+00 2.600000000000e-01
          2.749999999993e-01 0.000000000000e+00 2.600000000000e-01
          2.799999999993e-01 0.000000000000e+00 2.600000000000e-01
          2.849999999993e-01 0.000000000000e+00 2.600000000000e-01
          2.899999999993e-01 0.000000000000e+00 2.600000000000e-01
          2.949999999993e-01 0.000000000000e+00 2.600000000000e-01
          2.999999999994e-01 0.000000000000e+00 2.600000000000e-01
          3.049999999994e-01 0.000000000000e+00 2.600000000000e-01
          3.099999999994e-01 0.000000000000e+00 2.600000000000e-01
          3.149999999994e-01 0.000000000000e+00 2.600000000000e-01
          3.199999999994e-01 0.000000000000e+00 2.600000000000e-01
          3.249999999994e-01 0.000000000000e+00 2.600000000000e-01
          3.299999999994e-01 0.000000000000e+00 2.600000000000e-01
          3.349999999995e-01 0.000000000000e+00 2.600000000000e-01
          3.399999999995e-01 0.000000000000e+00 2.600000000000e-01
          3.449999999995e-01 0.000000000000e+00 2.600000000000e-01
          3.499999999995e-01 0.000000000000e+00 2.600000000000e-01
          3.549999999995e-01 0.000000000000e+00 2.600000000000e-01
          3.599999999995e-01 0.000000000000e+00 2.600000000000e-01
          3.649999999996e-01 0.000000000000e+00 2.600000000000e-01
          3.699999999996e-01 0.000000000000e+00 2.600000000000e-01
          3.749999999996e-01 0.000000000000e+00 2.600000000000e-01
          3.799999999996e-01 0.000000000000e+00 2.600000000000e-01
          3.849999999996e-01 0.000000000000e+00 2.600000000000e-01
          3.899999999996e-01 0.000000000000e+00 2.600000000000e-01
          3.949999999996e-01 0.000000000000e+00 2.600000000000e-01
          3.999999999996e-01 0.000000000000e+00 2.600000000000e-01
          4.049999999996e-01 0.000000000000e+00 2.600000000000e-01
          4.099999999996e-01 0.000000000000e+00 2.600000000000e-01
          4.149999999997e-01 0.000000000000e+00 2.600000000000e-01
          4.199999999997e-01 0.000000000000e+00 2.600000000000e-01
          4.249999999997e-01 0.000000000000e+00 2.600000000000e-01
          4.299999999997e-01 0.000000000000e+00 2.600000000000e-01
          4.349999999997e-01 0.000000000000e+00 2.600000000000e-01
          4.399999999997e-01 0.000000000000e+00 2.600000000000e-01
          4.449999999997e-01 0.000000000000e+00 2.600000000000e-01
[...]
      <PointData Scalars="PRESSURE1">
        <DataArray type="Float64" Name="PRESSURE1" format="ascii">
          2.566590300000e+03 -5.032530000000e+01 1.962000000000e+01 2.570220000000e+03 2.516265000000e+03 2.465939700000e+03 2.415614400000e+03 2.365289100000e+03 2.314963800000e+03 2.264638500001e+03 2.214313200001e+03 2.163987900001e+03 2.113662600001e+03 2.063337300001e+03 2.013012000001e+03 1.962686700001e+03 1.912361400001e+03 1.862036100002e+03 1.811710800002e+03 1.761385500002e+03 1.711060200002e+03 1.660734900002e+03 1.610409600002e+03 1.560084300003e+03 1.509759000003e+03 1.459433700003e+03 1.409108400003e+03 1.358783100003e+03 1.308457800003e+03 1.258132500003e+03 1.207807200003e+03 1.157481900003e+03 1.107156600003e+03 1.056831300003e+03 1.006506000003e+03 9.561807000026e+02 9.058554000024e+02 8.555301000022e+02 8.052048000022e+02 7.548795000020e+02 7.045542000019e+02 6.542289000018e+02 6.039036000017e+02 5.535783000015e+02 5.032530000014e+02 4.529277000013e+02 4.026024000011e+02 3.522771000010e+02 3.019518000009e+02 2.516265000007e+02 2.013012000006e+02 1.509759000005e+02 1.006506000004e+02 5.032530000026e+01 1.810262739710e-10 -4.643394608257e+01 -4.377495173660e+01 -4.155487557467e+01 -3.961821509077e+01 -3.787530687805e+01 -3.628429693716e+01 -3.481501642034e+01 -3.344792101279e+01 -3.215607959682e+01 -3.093852846508e+01 -2.978427391164e+01 -2.868470501267e+01 -2.763191638507e+01 -2.662297219874e+01 -2.565013570007e+01 -2.471481766005e+01 -2.381108427926e+01 -2.293494343609e+01 -2.208664967528e+01 -2.126347290804e+01 -2.046241016803e+01 -1.968239825062e+01 -1.892333693191e+01 -1.818050994165e+01 -1.745535974275e+01 -1.674579933981e+01 -1.605226495969e+01 -1.537271707734e+01 -1.470704216302e+01 -1.405454295286e+01 -1.341283463031e+01 -1.278283369256e+01 -1.216475327550e+01 -1.155694859400e+01 -1.095901506465e+01 -1.036974939358e+01 -9.790544520040e+00 -9.219110489334e+00 -8.656655841959e+00 -8.102448840174e+00 -7.555374397784e+00 -7.015604034739e+00 -6.483310000565e+00 -5.957705379710e+00 -5.438972595487e+00 -4.926068926746e+00 -4.419330805262e+00 -3.918787875161e+00 -3.423715366492e+00 -2.933949316623e+00 -2.450009971238e+00 -1.970827785550e+00 -1.496870482893e+00 -1.027573386883e+00 -5.630035013007e-01 -1.029412071646e-01 3.529654321201e-01 8.046326450999e-01 1.252140011779e+00 1.695820257805e+00 2.135587448030e+00 2.571671215661e+00 3.004409638338e+00 3.433421216523e+00 3.859179017075e+00 4.281973748269e+00 4.701684987288e+00 5.118163579945e+00 5.531818693240e+00 5.942844434103e+00 6.350946910936e+00 6.756683308364e+00 7.159877705256e+00 7.560702440810e+00 7.959225981687e+00 8.355567040584e+00 8.749769798719e+00 9.141994623645e+00 9.532315673728e+00 9.920825716108e+00 1.030741292292e+01 1.069246588735e+01 1.107579264958e+01 1.145782907453e+01 1.183823202995e+01 1.221735240967e+01 1.259516991887e+01 1.297179274741e+01 1.334724401664e+01 1.372157458970e+01 1.409496452664e+01 1.446741119421e+01 1.483899572559e+01 1.520978002089e+01 1.557980527390e+01 1.594922392598e+01 1.631798539925e+01 1.668624324326e+01 1.705398951986e+01 1.742132107730e+01 1.778831698352e+01 1.815501363691e+01 1.852146245569e+01 1.888773876222e+01 1.925390340039e+01 6.866999999997e+01 1.177199999998e+02 1.667699999998e+02 2.158199999997e+02 2.648699999996e+02 3.139199999995e+02 3.629699999995e+02 4.120199999993e+02 4.610699999991e+02 5.101199999990e+02 5.591699999989e+02 6.082199999988e+02 6.572699999986e+02 7.063199999985e+02 7.553699999983e+02 8.044199999981e+02 8.534699999980e+02 9.025199999979e+02 9.515699999978e+02 1.000619999998e+03 1.049669999998e+03 1.098719999997e+03 1.147769999997e+03 1.196819999997e+03 1.245869999997e+03 1.294919999997e+03 1.343969999997e+03 1.393019999997e+03 1.442069999997e+03 1.491119999997e+03 1.540169999997e+03 1.589219999998e+03 1.638269999998e+03 1.687319999998e+03 1.736369999998e+03 1.785419999998e+03 1.834469999998e+03 1.883519999998e+03 1.932569999998e+03 1.981619999999e+03 2.030669999999e+03 2.079719999999e+03 2.128769999999e+03 2.177819999999e+03 2.226869999999e+03 2.275919999999e+03 2.324969999999e+03 2.374019999999e+03 2.423070000000e+03 2.472120000000e+03 2.521170000000e+03 2.569895727585e+03 2.569571561603e+03 2.569247608724e+03 2.568923964936e+03 2.568600749598e+03 2.568278053140e+03 2.567956012761e+03 2.567634720138e+03 2.567314358010e+03 2.566995056687e+03 2.566676949423e+03 2.566360154659e+03 2.566044864198e+03 2.565731401175e+03 2.565419748054e+03 2.565110323354e+03 2.564803277930e+03 2.564499125620e+03 2.564198153406e+03 2.563900606831e+03 2.563606867368e+03 2.563318053199e+03 2.563034764194e+03 2.562757440233e+03 2.562488752973e+03 2.562228607245e+03 2.561982281486e+03 2.561750380320e+03 2.561546949162e+03 2.561384812925e+03 2.561312138879e+03 2.561334726967e+03 2.561440646635e+03 2.561563228521e+03 2.561705259785e+03 2.561858369866e+03 2.561997439648e+03 2.562135865961e+03 2.562274193210e+03 2.562413546901e+03 2.562542814206e+03 2.562666097366e+03 2.562787086671e+03 2.562896631761e+03 2.563000398152e+03 2.563106581969e+03 2.563208276365e+03 2.563305536321e+03 2.563398460845e+03 2.563490122956e+03 2.563577708382e+03 2.563662866206e+03 2.563745312197e+03 2.563825631775e+03 2.563903804510e+03 2.563979970959e+03 2.564054351032e+03 2.564126937785e+03 2.564197803706e+03 2.564267173709e+03 2.564334986906e+03 2.564401343024e+03 2.564466345656e+03 2.564530105278e+03 2.564592632933e+03 2.564654078765e+03 2.564714446503e+03 2.564773758203e+03 2.564832131398e+03 2.564889629786e+03 2.564946161988e+03 2.565001907264e+03 2.565056831063e+03 2.565110991505e+03 2.565164361842e+03 2.565217021038e+03 2.565268990255e+03 2.565320325736e+03 2.565371047831e+03 2.565421142371e+03 2.565470667597e+03 2.565519630129e+03 2.565568104806e+03 2.565616044735e+03 2.565663516789e+03 2.565710547865e+03 2.565757147887e+03 2.565803319638e+03 2.565849133296e+03 2.565894561555e+03 2.565939659554e+03 2.565984422656e+03 2.566028909450e+03 2.566073117844e+03 2.566117062410e+03 2.566160807926e+03 2.566204326773e+03 2.566247680313e+03 2.566290852356e+03 2.566333891547e+03 2.566376814373e+03 2.566419631023e+03 2.566462369015e+03 2.566505046108e+03 2.566547682759e+03 8.148625696221e+02 7.947928294781e+02 1.757091318043e+03 2.188987299728e+03 4.110221906635e+02 2.206271140147e+03 3.470266335502e+02 6.213900931569e+02 1.285615413576e+03 2.329467928579e+03 2.312778842779e+02 5.065121105202e+02 1.973929470926e+03 5.634457721617e+02 1.904180672843e+03 2.322393938640e+03 2.345164750990e+02 6.295047327339e+02 2.343759077068e+03 2.416655725370e+02 7.998180793135e+02 6.107567171603e+02 1.911151926940e+03 2.176699940590e+03 3.556375321656e+02 1.955603410322e+03 5.732147716025e+02 6.177033513377e+02 2.004640282600e+03 1.769372281284e+03 4.565484983290e+02 8.159025812859e+02 1.739153449917e+03 1.779899642891e+03 3.065969034015e+02 8.213505623326e+02 1.982278005166e+03 2.303121972083e+03 4.856120386333e+02 1.982632744504e+03 6.280826683392e+02 6.751483277688e+02 1.852708014552e+03 1.971226683321e+03 2.069446540298e+03 2.099066418957e+03 2.693081062037e+02 2.742644363089e+02 2.035051896391e+03 2.121175490101e+03 2.105578698025e+03 4.492236886288e+02 4.715287611176e+02 2.150256844062e+03 2.121986414587e+03 3.599585029778e+02 3.705241317844e+02 2.170943300576e+03 3.166930035526e+02 2.340202554569e+03 4.241277113886e+02 2.270157551442e+03 1.413320805921e+02 2.214551146495e+03 2.317376773890e+03 2.418449483119e+03 2.703707352621e+02 2.273383149587e+03 2.662008498250e+02 1.988326501148e+02 2.447835702232e+03 2.237011449203e+02 2.398107836743e+03 2.472669170807e+03 2.200360609041e+02 2.452634817024e+03 1.178494801344e+02 2.413515799854e+03 2.422824545857e+03 1.673817255825e+02 2.464528105781e+03 2.459862149420e+03 2.522121350251e+03 2.489022091847e+03 9.295995435426e+01 7.674330492409e+02 1.731723500208e+03 7.856549512009e+02 1.357775875339e+03 4.663867144747e+02 2.093827978087e+03 2.081621561087e+03 3.735636392140e+02 4.537146888503e+02 2.749984646571e+02 2.276441225072e+03 9.508229186340e+02 1.739342256282e+03 1.951870872305e+03 2.308210102325e+03 1.548887075973e+03 9.687787837058e+02 3.044677582871e+02 1.609252561421e+03 2.392305996771e+03 1.585789318230e+03 4.418532326055e+02 2.109425488614e+03 1.296767496510e+02 9.799685361095e+02 1.642025130602e+03 9.161759703659e+02 3.824035852175e+02 1.125203177591e+03 2.140573891453e+03 3.488383320623e+02 1.389875874465e+02 9.265800735948e+02 1.660092302934e+03 2.024240713906e+03 5.526143289108e+02 2.677628315017e+02 2.387797658837e+03 1.626063644945e+02 2.204886046121e+03 1.436603768864e+03 1.069427404054e+03 2.021529850495e+02 2.389771590826e+03 2.210072757370e+03 2.316332042660e+03 3.185728312585e+02 2.345218445070e+03 3.251427453424e+02 2.264490659286e+03 2.370304740241e+03 2.140100198544e+03 2.386399904689e+03 2.202435029613e+03 2.371923296369e+03 1.349391242156e+03 2.183473668750e+03 3.892497758771e+02 1.490188777890e+02 2.427996439232e+03 6.340650913722e+01 2.482573671582e+03 1.868784505079e+03 7.376264896324e+02 2.041898268937e+03 7.494105046030e+02 1.666420381678e+03 2.380235791078e+03 2.413761173712e+03 2.095218451171e+02 1.642813380090e+02 8.646588091715e+01 7.063334618154e+02 2.348546900599e+02 2.333145654133e+03 1.155274110245e+02 9.369990525630e+02 1.193835051100e+03 2.263051558362e+03 6.167666655808e+02 1.104282048506e+03 6.215656040732e+02 2.335256821347e+02 2.367665365824e+03 1.964052429777e+03 6.076110903678e+02 2.352732295696e+02 1.261885803619e+02 1.568027384839e+02 2.329284322898e+03 1.972362984962e+03 1.596376423628e+03 1.974342421017e+03 4.919445322894e+02 2.056041148839e+03 1.675063103893e+03 1.691310847030e+02 5.257072429558e+02 2.076253889681e+03 2.231022980843e+03 3.392695459711e+02 2.105722245752e+03 2.123269850077e+03 2.361276365110e+03 9.980159105421e+02 2.445035921684e+03 6.887574973549e+02 1.748392163871e+03 1.168188999784e+02 1.252284300142e+02 7.561549274183e+02 2.065349216870e+03 1.260584873667e+02 1.117496030457e+02 1.860451248623e+03 2.171981376438e+03 9.442699235653e+02 5.384297076850e+02 1.777100685157e+02 4.289079757419e+02 2.033720643666e+02 7.447674878075e+02 7.923231713138e+01 5.587855503378e+02 2.442135372860e+03 1.737646694405e+03 2.104345643348e+03 3.166977971943e+02 7.611446636601e+02 2.374070456072e+03 1.493495163605e+02 5.267254719097e+02 7.008116378484e+02 2.135127621355e+03 4.441728716046e+02 2.187270684815e+03 5.308368241135e+02 2.478055860195e+03 3.788560320105e+02 1.153179809601e+02 2.460882362661e+03 4.693726803722e+02 3.254588565101e+02 2.416115971141e+03 1.075410103477e+02 2.455882149091e+03 2.226673668842e+03 2.705739089563e+02 2.418211097607e+03 2.911394887729e+02 2.884653217894e+02 1.071542904430e+02 2.455486224103e+03 4.867364140229e+02 5.138727209997e+02 1.823835611181e+03 4.785649152418e+02 2.475693217602e+03 4.934514968655e+02 5.794850807192e+02 5.326428894699e+02 1.310392335497e+02 6.220395924892e+02 1.905698149056e+03 2.908674887216e+02 2.268442051039e+03 3.441694161163e+02 8.574505679773e+01 2.478952539750e+03 2.043612371238e+03 2.334556143128e+03 2.147403975165e+02 4.212306345173e+02 3.066883770424e+02 1.894911831449e+03 3.631221145403e+02 2.466159818240e+03 7.704883842015e+02 2.426269949768e+03 9.024309802507e+01 2.474494307705e+03 2.290675411913e+03 6.922428410018e+01 5.389009360222e+02 1.921067269926e+03 2.482679444012e+03 2.256330733760e+03 2.331048480547e+03 1.061849358474e+02 2.381955153731e+03 2.261685638837e+02 2.283643668031e+03 3.094159699904e+02 7.283129301355e+02 1.889338926033e+03 1.716904056962e+02 6.421351413095e+02 3.683238918908e+02 8.676246377845e+01 2.385130685560e+03 1.925694994022e+02 2.244763488461e+03 1.884480719827e+03 2.408694232780e+02 1.807016887651e+03 1.210414172757e+02 2.308324509459e+03 2.423149910934e+03 4.252801539062e+01 2.345779612647e+03 2.069604725682e+02 2.920364936009e+02 2.268958126739e+03 2.513625424962e+03 2.804453208563e+02 2.194334718646e+03 2.313379058497e+02 2.353202358399e+03 5.940766940099e+01 2.402197040014e+03 2.494130629778e+03 2.102842581491e+03 2.345923106763e+03 2.490822897401e+03 4.931232835570e+02 2.319689535570e+03 2.057918694196e+02 2.523944330322e+03 1.650500439734e+02 2.414838666911e+03 1.814211789959e+02 6.274356777847e+02 1.270294867557e+02 2.491451632257e+03 2.228683244315e+03 4.461370370050e+02 1.527819008733e+02 2.476244015277e+02 2.439474042456e+03 6.374140501265e+02 2.522392865332e+03 6.051977688934e+02 1.946987427717e+03 2.288984192139e+03 2.401034605436e+03 2.257983429734e+03 2.094671357198e+02 2.974172126778e+02 4.158667207148e+02 2.226353281175e+03 8.485810262486e+01 1.781955392747e+02 8.100407380542e+01 1.985605813119e+02 2.189159733759e+03 2.426856308975e+03 2.444711959531e+03 2.489117913180e+03 2.404863351665e+03 2.355877594413e+02 3.224434016150e+02 9.118271213871e+01 6.234816981601e+02 5.301081095757e+02 6.527714035889e+02 6.714113880874e+02 4.450369571567e+02 1.910002763251e+03 1.319614846378e+02 1.086725587290e+02 2.383079729678e+03 2.026730869996e+03 2.452340968896e+03 1.460765562795e+02 2.185594061429e+03 1.747464690184e+03 1.889110352509e+03 8.081858295872e+02 1.752142815483e+03 1.536221837260e+03 1.323193098960e+03 1.209257760166e+03 1.054394978199e+03 1.208046773812e+03 1.917257264479e+03 1.724073772897e+03 5.711924139773e+02 1.080876629680e+03 5.687612930549e+02 1.309770457176e+03 1.219796667204e+03 1.345713899213e+03 1.414080615409e+03 7.603699728985e+02 1.426660375089e+03 7.403054382597e+02 1.339678819327e+03 1.585663058807e+03 9.959639710058e+02 1.057441301300e+03 1.895975588735e+03 9.902181575094e+02 1.121704875557e+03 8.986382895033e+02 1.928207860206e+03 1.883194741585e+03 1.521105150130e+03 8.656057677701e+02 1.879489038797e+03 1.941862636562e+03 1.366012418051e+03 1.412801323281e+03 1.564957805682e+03 9.794296106444e+02 1.951025061947e+03 1.535753432259e+03 1.139599307158e+03 6.227358285338e+02 6.041233909939e+02 2.004528844172e+02 8.914057829051e+02 1.317835066122e+03 1.558610825926e+03 1.628191346009e+03 1.555286814260e+03 1.165418822741e+03 2.355272167887e+03 1.865164862192e+03 1.404678954728e+02 1.113032460606e+03 1.804379491384e+03 1.395185141806e+03 1.635872404173e+03 2.226518356251e+02 1.683754286634e+03 2.071114725039e+02 2.368546940965e+03 1.177237707936e+03 6.789543999613e+02 1.637676353373e+03 2.134576038401e+03 8.817751409407e+02 4.249726320039e+02 1.932068492609e+03 6.215924962032e+02 2.118129876276e+03 1.765783581437e+03 9.201076388415e+02 2.423616872447e+03 1.548336006247e+02 1.164586805854e+03 3.462726848447e+02 1.531014728693e+03 2.165073701327e+03 2.414984428455e+03 2.392463626637e+03 6.291774914728e+02 2.298184280793e+03 2.034821488498e+03 5.337824175602e+02 1.801495410936e+03 1.074862906067e+03 6.006983938888e+02 1.492859116844e+02 1.967435431887e+03 1.313066659931e+02 4.997771885507e+02 2.434904733894e+03 1.217926911276e+02 2.870891917248e+02 9.191300872453e+02 2.284863848495e+03 1.756161804116e+03 1.035730057401e+03 1.916352285701e+03 7.873915286878e+02 4.467833419885e+02 7.876715833198e+02 7.105590284594e+02 7.232229035097e+02 1.014785847636e+02 2.173233116703e+03 2.151043694291e+02 4.352788176356e+02 5.927472397610e+02 6.705708960633e+02 5.187516341892e+02 1.599717498996e+02 2.314355397126e+03 8.971414254620e+02 8.742525497792e+02 1.784308739458e+02 2.043824901960e+03 2.392091445888e+03 1.951638307832e+03 5.192911898570e+02 2.000713478390e+03 2.204204880670e+03 1.529603908223e+03 9.668502573625e+02 2.101925097993e+03 2.423307185782e+03 1.950318767020e+02 2.147517478425e+03 2.029039397329e+02 1.339010794706e+03 8.180225920599e+02 6.038841162728e+02 2.068246921454e+03 4.254382751313e+02 2.102799425503e+03 2.050047561208e+03 3.066216118914e+02 6.055031537707e+01 2.297590175081e+02 1.868217739417e+03 2.185212830102e+03 4.320919950112e+02 4.223695316329e+02 2.094042006466e+03 3.568281286862e+02 1.355508408171e+03 3.936141634056e+02 1.722353873753e+03 1.006277893184e+03 4.305951128695e+02 1.197600649919e+03 2.265603406654e+03 2.522442591603e+02 4.776569823743e+02 1.893078164744e+03 1.250654613438e+02 2.126022477360e+03 2.126304782970e+03 9.464628183323e+01 2.255379447834e+03 2.051576157741e+03 2.445443180370e+03 6.728241529503e+02 2.234050422839e+03 1.821800265891e+03 2.243683966606e+03 2.251425027465e+03 2.215598049827e+03 2.280310935718e+03 2.276893511280e+03 1.640675721827e+03 2.146955558910e+03 2.038497250745e+03 1.917679066027e+03 2.116880888083e+03 2.425058647476e+02 4.139121488114e+02 3.137356011857e+02 3.684233339455e+02 8.005572398496e+02 1.689777914835e+03 5.270253047863e+02 3.331667408360e+02 2.424305383775e+03 2.357235432653e+03 2.103377550926e+02 1.267494432683e+02 2.293704729421e+03 1.666181552876e+03 4.348951708954e+02 1.704629120099e+03 2.733641057406e+02 1.701172517215e+03 3.368310652313e+02 4.100386071041e+02 2.062827275113e+03 2.454462277614e+02 6.655613628774e+02 2.248786529059e+02 6.264281876851e+02 1.953787935604e+03 2.048242134539e+02 2.096493685180e+03 6.751373311621e+02 1.846906108166e+03 2.486045645134e+03 8.247895690047e+02 4.514526797697e+02 2.308517314262e+03 5.738608714354e+02 2.360114303239e+03 1.972563449316e+03 2.477860824441e+02 3.183455934854e+02 1.609925083094e+02 2.274185010304e+03 1.961776292056e+03 2.390359600943e+02 2.193248937231e+03 9.455504472512e+02 1.743307779472e+03 1.851263053111e+03 3.879209143245e+02 2.006385770281e+03 2.645412109696e+02 1.832706987579e+03 2.266941990293e+03 4.416767912372e+02 6.037902348941e+02 7.762073676946e+02 6.889099616398e+01 2.705968438743e+02 1.877430719450e+03 1.861891195189e+03 7.956746350323e+01 2.415288191133e+03 2.323608957075e+03 1.777626200697e+03 5.162062083150e+01 2.589499569018e+02 1.389682849951e+02 2.427673108901e+03 2.155974721153e+03 2.456897871473e+03 2.185162661178e+03 1.085424138799e+03 4.418324699291e+02 2.007147621133e+03 8.571873465906e+01 2.306368896725e+02 2.243217805659e+03 7.185804990815e+02 6.873636513436e+02 2.348396133234e+03 1.265299007152e+03 1.687602095952e+03 7.640569556215e+01 1.802590418363e+03 2.292135949660e+03 2.363790620656e+03 2.838133003634e+02 1.623515027497e+02 3.238436209366e+02 1.825732534387e+02 3.831945735255e+02 6.704744713308e+02 1.930181594630e+03 4.805299836727e+02 2.489080701485e+03 2.221934138349e+03 2.463872297396e+03 2.324874271927e+02 2.005252983006e+03 3.999064632298e+02 1.552257063574e+03 2.496341300643e+03 2.348293566443e+03 2.344859646059e+03 6.449085805861e+02 1.782350583454e+02 7.853070323242e+01 1.822491260684e+02 5.430746763480e+02 2.072015004551e+03 2.084783046727e+03 2.053200681560e+03 2.193436544290e+03 2.095476491660e+03 2.322442559787e+03 2.024015037704e+03 2.265514122788e+03 1.181733828665e+03 7.456581684728e+02 3.042425146031e+02 1.984509115793e+03 2.185589425826e+03 2.403511674575e+03 9.118069743590e+02 2.286861277429e+03 3.225643780008e+02 1.865403854806e+03 7.191650031050e+02 1.543150251625e+03 1.510655890843e+02 2.268192263135e+03 2.246848967053e+03 1.846785770631e+03 2.731741744249e+02 2.180969243342e+03 2.487794006974e+03 1.725863876129e+03 2.038952628138e+03 2.013201051382e+03 2.374798242632e+03 2.487480759109e+03 2.098517711874e+03 1.892209841536e+02 2.106712894906e+03 2.237286951834e+03 7.276316430610e+02 8.639968890773e+02 6.384573916836e+01 3.880969664367e+02 6.858818338209e+02 5.103982946382e+02 1.691672624984e+03 1.452849395859e+03 3.142038775644e+02 1.969774228094e+03 2.471583345320e+03 5.876337166284e+02 2.166883657493e+03 1.773360564925e+03 3.114146387537e+02 3.964414283456e+02 4.501186800736e+02 2.380968153069e+03 5.743286526820e+01 2.352225060859e+03 2.164495187897e+03 2.397487943846e+03 2.908675944558e+02 2.391847594981e+03 2.096726880250e+03 6.698111751864e+02 1.980788255063e+03 5.832099576954e+02 2.219323228951e+03 6.912160459374e+02 3.881535024229e+02 8.364681844025e+02 3.759772379616e+02 2.068740396983e+03 2.345617553887e+03 6.040302718422e+02 3.011887130319e+02 2.170909938730e+02 2.163346787113e+03 2.045339376395e+03 3.726441250738e+02 1.795386510800e+02 1.935413703714e+03 2.017134425889e+03 1.678630453665e+03 4.411013934944e+02 2.381405939897e+03 1.664720179