<?xml version="1.0"?>
<!-- Time step: 129 | Time: 1.900000000000e+04 -->
<VTKFile type="UnstructuredGrid" version="0.1" byte_order="LittleEndian">
  <UnstructuredGrid>
    <Piece NumberOfPoints="6824" NumberOfCells="13330">
      <Points>
        <DataArray type="Float64" NumberOfComponents="3" format="ascii">
          0.000000000000e+00 0.000000000000e+00 0.000000000000e+00
          0.000000000000e+00 0.000000000000e+00 2.600000000000e-01
          5.300000000000e-01 0.000000000000e+00 2.600000000000e-01
          5.300000000000e-01 0.000000000000e+00 0.000000000000e+00
          0.000000000000e+00 0.000000000000e+00 4.999999999991e-03
          0.000000000000e+00 0.000000000000e+00 9.999999999982e-03
          0.000000000000e+00 0.000000000000e+00 1.499999999997e-02
          0.000000000000e+00 0.000000000000e+00 1.999999999996e-02
          0.000000000000e+00 0.000000000000e+00 2.499999999996e-02
          0.000000000000e+00 0.000000000000e+00 2.999999999995e-02
          0.000000000000e+00 0.000000000000e+00 3.499999999994e-02
          0.000000000000e+00 0.000000000000e+00 3.999999999992e-02
          0.000000000000e+00 0.000000000000e+00 4.499999999991e-02
          0.000000000000e+00 0.000000000000e+00 4.999999999990e-02
          0.000000000000e+00 0.000000000000e+00 5.499999999988e-02
          0.000000000000e+00 0.000000000000e+00 5.999999999987e-02
          0.000000000000e+00 0.000000000000e+00 6.499999999985e-02
          0.000000000000e+00 0.000000000000e+00 6.999999999983e-02
          0.000000000000e+00 0.000000000000e+00 7.499999999983e-02
          0.000000000000e+00 0.000000000000e+00 7.999999999981e-02
          0.000000000000e+00 0.000000000000e+00 8.499999999979e-02
          0.000000000000e+00 0.000000000000e+00 8.999999999978e-02
          0.000000000000e+00 0.000000000000e+00 9.499999999977e-02
          0.000000000000e+00 0.000000000000e+00 9.999999999975e-02
          0.000000000000e+00 0.000000000000e+00 1.049999999997e-01
          0.000000000000e+00 0.000000000000e+00 1.099999999997e-01
          0.000000000000e+00 0.000000000000e+00 1.149999999997e-01
          0.000000000000e+00 0.000000000000e+00 1.199999999997e-01
          0.000000000000e+00 0.000000000000e+00 1.249999999997e-01
          0.000000000000e+00 0.000000000000e+00 1.299999999997e-01
          0.000000000000e+00 0.000000000000e+00 1.349999999997e-01
          0.000000000000e+00 0.000000000000e+00 1.399999999997e-01
          0.000000000000e+00 0.000000000000e+00 1.449999999997e-01
          0.000000000000e+00 0.000000000000e+00 1.499999999997e-01
          0.000000000000e+00 0.000000000000e+00 1.549999999997e-01
          0.000000000000e+00 0.000000000000e+00 1.599999999997e-01
          0.000000000000e+00 0.000000000000e+00 1.649999999998e-01
          0.000000000000e+00 0.000000000000e+00 1.699999999998e-01
          0.000000000000e+00 0.000000000000e+00 1.749999999998e-01
          0.000000000000e+00 0.000000000000e+00 1.799999999998e-01
          0.000000000000e+00 0.000000000000e+00 1.849999999998e-01
          0.000000000000e+00 0.000000000000e+00 1.899999999998e-01
          0.000000000000e+00 0.000000000000e+00 1.949999999998e-01
          0.000000000000e+00 0.000000000000e+00 1.999999999999e-01
          0.000000000000e+00 0.000000000000e+00 2.049999999999e-01
          0.000000000000e+00 0.000000000000e+00 2.099999999999e-01
          0.000000000000e+00 0.000000000000e+00 2.149999999999e-01
          0.000000000000e+00 0.000000000000e+00 2.199999999999e-01
          0.000000000000e+00 0.000000000000e+00 2.249999999999e-01
          0.000000000000e+00 0.000000000000e+00 2.299999999999e-01
          0.000000000000e+00 0.000000000000e+00 2.349999999999e-01
          0.000000000000e+00 0.000000000000e+00 2.399999999999e-01
          0.000000000000e+00 0.000000000000e+00 2.450000000000e-01
          0.000000000000e+00 0.000000000000e+00 2.500000000000e-01
          0.000000000000e+00 0.000000000000e+00 2.550000000000e-01
          4.999999999991e-03 0.000000000000e+00 2.600000000000e-01
          9.999999999981e-03 0.000000000000e+00 2.600000000000e-01
          1.499999999997e-02 0.000000000000e+00 2.600000000000e-01
          1.999999999996e-02 0.000000000000e+00 2.600000000000e-01
          2.499999999995e-02 0.000000000000e+00 2.600000000000e-01
          2.999999999994e-02 0.000000000000e+00 2.600000000000e-01
          3.499999999993e-02 0.000000000000e+00 2.600000000000e-01
          3.999999999992e-02 0.000000000000e+00 2.600000000000e-01
          4.499999999992e-02 0.000000000000e+00 2.600000000000e-01
          4.999999999991e-02 0.000000000000e+00 2.600000000000e-01
          5.499999999990e-02 0.000000000000e+00 2.600000000000e-01
          5.999999999990e-02 0.000000000000e+00 2.600000000000e-01
          6.499999999989e-02 0.000000000000e+00 2.600000000000e-01
          6.999999999988e-02 0.000000000000e+00 2.600000000000e-01
          7.499999999986e-02 0.000000000000e+00 2.600000000000e-01
          7.999999999985e-02 0.000000000000e+00 2.600000000000e-01
          8.499999999983e-02 0.000000000000e+00 2.600000000000e-01
          8.999999999981e-02 0.000000000000e+00 2.600000000000e-01
          9.499999999980e-02 0.000000000000e+00 2.600000000000e-01
          9.999999999979e-02 0.000000000000e+00 2.600000000000e-01
          1.049999999998e-01 0.000000000000e+00 2.600000000000e-01
          1.099999999998e-01 0.000000000000e+00 2.600000000000e-01
          1.149999999997e-01 0.000000000000e+00 2.600000000000e-01
          1.199999999997e-01 0.000000000000e+00 2.600000000000e-01
          1.249999999997e-01 0.000000000000e+00 2.600000000000e-01
          1.299999999997e-01 0.000000000000e+00 2.600000000000e-01
          1.349999999997e-01 0.000000000000e+00 2.600000000000e-01
          1.399999999997e-01 0.000000000000e+00 2.600000000000e-01
          1.449999999997e-01 0.000000000000e+00 2.600000000000e-01
          1.499999999996e-01 0.000000000000e+00 2.600000000000e-01
          1.549999999996e-01 0.000000000000e+00 2.600000000000e-01
          1.599999999996e-01 0.000000000000e+00 2.600000000000e-01
          1.649999999996e-01 0.000000000000e+00 2.600000000000e-01
          1.699999999996e-01 0.000000000000e+00 2.600000000000e-01
          1.749999999996e-01 0.000000000000e+00 2.600000000000e-01
          1.799999999995e-01 0.000000000000e+00 2.600000000000e-01
          1.849999999995e-01 0.000000000000e+00 2.600000000000e-01
          1.899999999995e-01 0.000000000000e+00 2.600000000000e-01
          1.949999999995e-01 0.000000000000e+00 2.600000000000e-01
          1.999999999995e-01 0.000000000000e+00 2.600000000000e-01
          2.049999999995e-01 0.000000000000e+00 2.600000000000e-01
          2.099999999995e-01 0.000000000000e+00 2.600000000000e-01
          2.149999999994e-01 0.000000000000e+00 2.600000000000e-01
          2.199999999994e-01 0.000000000000e+00 2.600000000000e-01
          2.249999999994e-01 0.000000000000e+00 2.600000000000e-01
          2.299999999994e-01 0.000000000000e+00 2.600000000000e-01
          2.349999999994e-01 0.000000000000e+00 2.600000000000e-01
          2.399999999994e-01 0.000000000000e+00 2.600000000000e-01
          2.449999999993e-01 0.000000000000e+00 2.600000000000e-01
          2.499999999993e-01 0.000000000000e+00 2.600000000000e-01
          2.549999999993e-01 0.000000000000e+00 2.600000000000e-01
          2.599999999993e-01 0.000000000000e+00 2.600000000000e-01
          2.649999999993e-01 0.000000000000e+00 2.600000000000e-01
          2.699999999993e-01 0.000000000000e+00 2.600000000000e-01
          2.749999999993e-01 0.000000000000e+00 2.600000000000e-01
          2.799999999993e-01 0.000000000000e+00 2.600000000000e-01
          2.849999999993e-01 0.000000000000e+00 2.600000000000e-01
          2.899999999993e-01 0.000000000000e+00 2.600000000000e-01
          2.949999999993e-01 0.000000000000e+00 2.600000000000e-01
          2.999999999994e-01 0.000000000000e+00 2.600000000000e-01
          3.049999999994e-01 0.000000000000e+00 2.600000000000e-01
          3.099999999994e-01 0.000000000000e+00 2.600000000000e-01
          3.149999999994e-01 0.000000000000e+00 2.600000000000e-01
          3.199999999994e-01 0.000000000000e+00 2.600000000000e-01
          3.249999999994e-01 0.000000000000e+00 2.600000000000e-01
          3.299999999994e-01 0.000000000000e+00 2.600000000000e-01
          3.349999999995e-01 0.000000000000e+00 2.600000000000e-01
          3.399999999995e-01 0.000000000000e+00 2.600000000000e-01
          3.449999999995e-01 0.000000000000e+00 2.600000000000e-01
          3.499999999995e-01 0.000000000000e+00 2.600000000000e-01
          3.549999999995e-01 0.000000000000e+00 2.600000000000e-01
          3.599999999995e-01 0.000000000000e+00 2.600000000000e-01
          3.649999999996e-01 0.000000000000e+00 2.600000000000e-01
          3.699999999996e-01 0.000000000000e+00 2.600000000000e-01
          3.749999999996e-01 0.000000000000e+00 2.600000000000e-01
          3.799999999996e-01 0.000000000000e+00 2.600000000000e-01
          3.849999999996e-01 0.000000000000e+00 2.600000000000e-01
          3.899999999996e-01 0.000000000000e+00 2.600000000000e-01
          3.949999999996e-01 0.000000000000e+00 2.600000000000e-01
          3.999999999996e-01 0.000000000000e+00 2.600000000000e-01
          4.049999999996e-01 0.000000000000e+00 2.600000000000e-01
          4.099999999996e-01 0.000000000000e+00 2.600000000000e-01
          4.149999999997e-01 0.000000000000e+00 2.600000000000e-01
          4.199999999997e-01 0.000000000000e+00 2.600000000000e-01
          4.249999999997e-01 0.000000000000e+00 2.600000000000e-01
          4.299999999997e-01 0.000000000000e+00 2.600000000000e-01
          4.349999999997e-01 0.000000000000e+00 2.600000000000e-01
          4.399999999997e-01 0.000000000000e+00 2.600000000000e-01
          4.449999999997e-01 0.000000000000e+00 2.600000000000e-01
[...]
      <PointData Scalars="PRESSURE1">
        <DataArray type="Float64" Name="PRESSURE1" format="ascii">
          2.566590300000e+03 -5.032530000000e+01 1.962000000000e+01 2.570220000000e+03 2.516265000000e+03 2.465939700000e+03 2.415614400000e+03 2.365289100000e+03 2.314963800000e+03 2.264638500001e+03 2.214313200001e+03 2.163987900001e+03 2.113662600001e+03 2.063337300001e+03 2.013012000001e+03 1.962686700001e+03 1.912361400001e+03 1.862036100002e+03 1.811710800002e+03 1.761385500002e+03 1.711060200002e+03 1.660734900002e+03 1.610409600002e+03 1.560084300003e+03 1.509759000003e+03 1.459433700003e+03 1.409108400003e+03 1.358783100003e+03 1.308457800003e+03 1.258132500003e+03 1.207807200003e+03 1.157481900003e+03 1.107156600003e+03 1.056831300003e+03 1.006506000003e+03 9.561807000026e+02 9.058554000024e+02 8.555301000022e+02 8.052048000022e+02 7.548795000020e+02 7.045542000019e+02 6.542289000018e+02 6.039036000017e+02 5.535783000015e+02 5.032530000014e+02 4.529277000013e+02 4.026024000011e+02 3.522771000010e+02 3.019518000009e+02 2.516265000007e+02 2.013012000006e+02 1.509759000005e+02 1.006506000004e+02 5.032530000026e+01 1.810262739710e-10 -4.643395027180e+01 -4.377495985815e+01 -4.155488742981e+01 -3.961823046945e+01 -3.787532556657e+01 -3.628431870939e+01 -3.481504105374e+01 -3.344794828894e+01 -3.215610934085e+01 -3.093856048003e+01 -2.978430802599e+01 -2.868474106156e+01 -2.763195421642e+01 -2.662301167966e+01 -2.565017670791e+01 -2.471486006435e+01 -2.381112795727e+01 -2.293498828788e+01 -2.208669559270e+01 -2.126351978595e+01 -2.046245791237e+01 -1.968244676959e+01 -1.892338613707e+01 -1.818055974825e+01 -1.745541006237e+01 -1.674585009197e+01 -1.605231605379e+01 -1.537276843516e+01 -1.470709370297e+01 -1.405459460178e+01 -1.341288630969e+01 -1.278288531951e+01 -1.216480477367e+01 -1.155699988888e+01 -1.095906608930e+01 -1.036980006646e+01 -9.790594772733e+00 -9.219160254439e+00 -8.656705042008e+00 -8.102497420558e+00 -7.555422297051e+00 -7.015651185942e+00 -6.483356349180e+00 -5.957750871512e+00 -5.439017177389e+00 -4.926112555381e+00 -4.419373437401e+00 -3.918829469779e+00 -3.423755890038e+00 -2.933988739998e+00 -2.450048266006e+00 -1.970864931125e+00 -1.496906461123e+00 -1.027608185276e+00 -5.630371110013e-01 -1.029736233946e-01 3.529342102674e-01 8.046026144547e-01 1.252111165668e+00 1.695792586296e+00 2.135560937674e+00 2.571645850185e+00 3.004385400136e+00 3.433398082437e+00 3.859156964187e+00 4.281952753211e+00 4.701665023187e+00 5.118144616222e+00 5.531800700911e+00 5.942827384356e+00 6.350930769441e+00 6.756668046214e+00 7.159863289545e+00 7.560688839530e+00 7.959213162592e+00 8.355554971966e+00 8.749758448528e+00 9.141983961388e+00 9.532305669462e+00 9.920816340630e+00 1.030740414457e+01 1.069245768061e+01 1.107578498509e+01 1.145782193024e+01 1.183822537751e+01 1.221734622667e+01 1.259516418237e+01 1.297178743624e+01 1.334723910996e+01 1.372157006747e+01 1.409496037201e+01 1.446740739027e+01 1.483899225686e+01 1.520977687299e+01 1.557980243320e+01 1.594922138160e+01 1.631798313939e+01 1.668624125892e+01 1.705398780187e+01 1.742131961826e+01 1.778831577744e+01 1.815501267846e+01 1.852146174045e+01 1.888773828712e+01 1.925390316344e+01 6.866999999997e+01 1.177199999998e+02 1.667699999998e+02 2.158199999997e+02 2.648699999996e+02 3.139199999995e+02 3.629699999995e+02 4.120199999993e+02 4.610699999991e+02 5.101199999990e+02 5.591699999989e+02 6.082199999988e+02 6.572699999986e+02 7.063199999985e+02 7.553699999983e+02 8.044199999981e+02 8.534699999980e+02 9.025199999979e+02 9.515699999978e+02 1.000619999998e+03 1.049669999998e+03 1.098719999997e+03 1.147769999997e+03 1.196819999997e+03 1.245869999997e+03 1.294919999997e+03 1.343969999997e+03 1.393019999997e+03 1.442069999997e+03 1.491119999997e+03 1.540169999997e+03 1.589219999998e+03 1.638269999998e+03 1.687319999998e+03 1.736369999998e+03 1.785419999998e+03 1.834469999998e+03 1.883519999998e+03 1.932569999998e+03 1.981619999999e+03 2.030669999999e+03 2.079719999999e+03 2.128769999999e+03 2.177819999999e+03 2.226869999999e+03 2.275919999999e+03 2.324969999999e+03 2.374019999999e+03 2.423070000000e+03 2.472120000000e+03 2.521170000000e+03 2.569895727690e+03 2.569571561810e+03 2.569247609032e+03 2.568923965340e+03 2.568600750091e+03 2.568278053715e+03 2.567956013405e+03 2.567634720838e+03 2.567314358747e+03 2.566995057437e+03 2.566676950158e+03 2.566360155342e+03 2.566044864782e+03 2.565731401597e+03 2.565419748241e+03 2.565110323206e+03 2.564803277322e+03 2.564499124374e+03 2.564198151294e+03 2.563900603561e+03 2.563606862549e+03 2.563318046217e+03 2.563034754183e+03 2.562757426017e+03 2.562488732141e+03 2.562228576591e+03 2.561982233409e+03 2.561750301368e+03 2.561546804450e+03 2.561384514037e+03 2.561311519680e+03 2.561334422490e+03 2.561440781200e+03 2.561562900497e+03 2.561703766431e+03 2.561857056996e+03 2.561997815765e+03 2.562136521171e+03 2.562273778641e+03 2.562412377187e+03 2.562541720419e+03 2.562665392354e+03 2.562786775626e+03 2.562896544090e+03 2.563000379126e+03 2.563106565805e+03 2.563208250332e+03 2.563305502035e+03 2.563398424158e+03 2.563490091412e+03 2.563577686775e+03 2.563662859490e+03 2.563745325067e+03 2.563825666040e+03 2.563903859401e+03 2.563980044103e+03 2.564054439490e+03 2.564127038538e+03 2.564197914102e+03 2.564267291614e+03 2.564335110307e+03 2.564401470199e+03 2.564466475138e+03 2.564530235842e+03 2.564592763474e+03 2.564654208421e+03 2.564714574536e+03 2.564773883997e+03 2.564832254501e+03 2.564889749851e+03 2.564946278719e+03 2.565002020469e+03 2.565056940592e+03 2.565111097262e+03 2.565164463761e+03 2.565217119091e+03 2.565269084437e+03 2.565320416058e+03 2.565371134319e+03 2.565421225063e+03 2.565470746537e+03 2.565519705367e+03 2.565568176391e+03 2.565616112726e+03 2.565663581241e+03 2.565710608833e+03 2.565757205425e+03 2.565803373804e+03 2.565849184139e+03 2.565894609130e+03 2.565939703907e+03 2.565984463837e+03 2.566028947500e+03 2.566073152805e+03 2.566117094323e+03 2.566160836822e+03 2.566204352687e+03 2.566247703272e+03 2.566290872388e+03 2.566333908675e+03 2.566376828615e+03 2.566419642397e+03 2.566462377534e+03 2.566505051782e+03 2.566547685594e+03 8.148625628340e+02 7.947927690007e+02 1.757091336785e+03 2.188987416050e+03 4.110221759903e+02 2.206271281721e+03 3.470265815190e+02 6.213900361736e+02 1.285615378500e+03 2.329468043178e+03 2.312778692520e+02 5.065120566756e+02 1.973929483205e+03 5.634457184858e+02 1.904180680168e+03 2.322394035057e+03 2.345164633190e+02 6.295046800354e+02 2.343759156400e+03 2.416655637430e+02 7.998180259383e+02 6.107566664861e+02 1.911151930485e+03 2.176700001802e+03 3.556375265327e+02 1.955603412781e+03 5.732147254863e+02 6.177033487172e+02 2.004640324169e+03 1.769372283229e+03 4.565484944447e+02 8.159025676158e+02 1.739153475997e+03 1.779899644050e+03 3.065968582806e+02 8.213505616590e+02 1.982278036881e+03 2.303121973448e+03 4.856120357370e+02 1.982632773544e+03 6.280826344081e+02 6.751483264170e+02 1.852708029222e+03 1.971226685473e+03 2.069446542295e+03 2.099066450128e+03 2.693081028353e+02 2.742643979199e+02 2.035051898046e+03 2.121175518185e+03 2.105578699242e+03 4.492236504240e+02 4.715287591620e+02 2.150256845546e+03 2.121986437597e+03 3.599584719344e+02 3.705241302465e+02 2.170943301368e+03 3.166929734432e+02 2.340202576762e+03 4.241277103714e+02 2.270157570783e+03 1.413320785887e+02 2.214551158081e+03 2.317376774578e+03 2.418449503043e+03 2.703707337863e+02 2.273383149929e+03 2.662008485743e+02 1.988326301997e+02 2.447835717811e+03 2.237011315100e+02 2.398107837179e+03 2.472669184176e+03 2.200360603175e+02 2.452634817406e+03 1.178494667032e+02 2.413515805037e+03 2.422824546008e+03 1.673817251730e+02 2.464528110654e+03 2.459862149572e+03 2.522121354502e+03 2.489022093962e+03 9.295995410866e+01 7.674330465321e+02 1.731723507804e+03 7.856548920442e+02 1.357775901160e+03 4.663866861333e+02 2.093828190401e+03 2.081621681871e+03 3.735635973280e+02 4.537146542226e+02 2.749984284504e+02 2.276441441531e+03 9.508228929921e+02 1.739342260314e+03 1.951870937371e+03 2.308210231881e+03 1.548887078202e+03 9.687787785642e+02 3.044677056158e+02 1.609252562821e+03 2.392306025330e+03 1.585789228694e+03 4.418532143101e+02 2.109425621904e+03 1.296766980394e+02 9.799685413602e+02 1.642025134350e+03 9.161759137637e+02 3.824035351616e+02 1.125203177584e+03 2.140573868263e+03 3.488382785044e+02 1.389875354071e+02 9.265800798701e+02 1.660092303790e+03 2.024240794960e+03 5.526143225895e+02 2.677627789328e+02 2.387797661517e+03 1.626063136026e+02 2.204886053428e+03 1.436603774225e+03 1.069427333141e+03 2.021529335879e+02 2.389771582903e+03 2.210072759947e+03 2.316332043120e+03 3.185727799499e+02 2.345218443383e+03 3.251426963939e+02 2.264490661289e+03 2.370304805234e+03 2.140100203411e+03 2.386399963609e+03 2.202435061155e+03 2.371923346169e+03 1.349391252898e+03 2.183473755345e+03 3.892497667069e+02 1.490188562601e+02 2.427996572303e+03 6.340646266683e+01 2.482573716056e+03 1.868784527097e+03 7.376264805958e+02 2.041898271482e+03 7.494104439862e+02 1.666420396430e+03 2.380235830651e+03 2.413761174499e+03 2.095218055927e+02 1.642813317679e+02 8.646583224688e+01 7.063334019376e+02 2.348546726713e+02 2.333145778647e+03 1.155273740985e+02 9.369990522234e+02 1.193835051158e+03 2.263051594266e+03 6.167666480024e+02 1.104282053000e+03 6.215656019714e+02 2.335256767385e+02 2.367665366856e+03 1.964052430884e+03 6.076110886481e+02 2.352732251925e+02 1.261885328967e+02 1.568027304915e+02 2.329284352709e+03 1.972362985509e+03 1.596376428270e+03 1.974342430757e+03 4.919444777878e+02 2.056041209752e+03 1.675063104325e+03 1.691310343224e+02 5.257072122420e+02 2.076253993322e+03 2.231023081112e+03 3.392695343562e+02 2.105722263140e+03 2.123269850860e+03 2.361276390436e+03 9.980159103959e+02 2.445036675116e+03 6.887574503130e+02 1.748392164406e+03 1.168188589417e+02 1.252283956457e+02 7.561549259368e+02 2.065349220116e+03 1.260584418585e+02 1.117495959243e+02 1.860451249093e+03 2.171981378228e+03 9.442699273172e+02 5.384297054902e+02 1.777100372441e+02 4.289079544174e+02 2.033720619641e+02 7.447674873055e+02 7.923231209625e+01 5.587855499998e+02 2.442135373705e+03 1.737646702185e+03 2.104345643702e+03 3.166977745369e+02 7.611446278728e+02 2.374070456867e+03 1.493494897196e+02 5.267254711333e+02 7.008116374957e+02 2.135127629341e+03 4.441728710812e+02 2.187270685249e+03 5.308368198863e+02 2.478055860891e+03 3.788560312571e+02 1.153179647043e+02 2.460882480106e+03 4.693726342792e+02 3.254588539347e+02 2.416115971777e+03 1.075409994749e+02 2.455882240731e+03 2.226673743078e+03 2.705739014663e+02 2.418211097573e+03 2.911394881581e+02 2.884653054234e+02 1.071542759941e+02 2.455486334564e+03 4.867363662963e+02 5.138726708010e+02 1.823835613821e+03 4.785649140096e+02 2.475693246976e+03 4.934514554559e+02 5.794850791016e+02 5.326428880621e+02 1.310392319437e+02 6.220395486756e+02 1.905698184190e+03 2.908674757352e+02 2.268442157851e+03 3.441694131047e+02 8.574504766842e+01 2.478952622234e+03 2.043612393032e+03 2.334556232852e+03 2.147403873295e+02 4.212306318835e+02 3.066883751708e+02 1.894911853461e+03 3.631221102035e+02 2.466159818317e+03 7.704883840334e+02 2.426269973223e+03 9.024308543863e+01 2.474494407747e+03 2.290675412152e+03 6.922425493676e+01 5.389008972512e+02 1.921067271655e+03 2.482679444535e+03 2.256330757858e+03 2.331048486356e+03 1.061849347801e+02 2.381955153937e+03 2.261685622261e+02 2.283643684447e+03 3.094159277020e+02 7.283129046873e+02 1.889338928308e+03 1.716903964282e+02 6.421351407522e+02 3.683238554912e+02 8.676246132596e+01 2.385130792096e+03 1.925694861071e+02 2.244763489041e+03 1.884480749302e+03 2.408694030984e+02 1.807016907674e+03 1.210413986491e+02 2.308324509857e+03 2.423149911271e+03 4.252799966831e+01 2.345779615508e+03 2.069604557236e+02 2.920364788929e+02 2.268958241981e+03 2.513625443336e+03 2.804453145687e+02 2.194334718780e+03 2.313378792271e+02 2.353202358948e+03 5.940766737647e+01 2.402197047689e+03 2.494130630096e+03 2.102842618022e+03 2.345923126350e+03 2.490822904168e+03 4.931232800602e+02 2.319689545893e+03 2.057918641719e+02 2.523944339186e+03 1.650500304733e+02 2.414838680257e+03 1.814211783990e+02 6.274356776630e+02 1.270294757253e+02 2.491451632462e+03 2.228683253767e+03 4.461370334316e+02 1.527818840524e+02 2.476243768905e+02 2.439474044916e+03 6.374140489858e+02 2.522392880138e+03 6.051977208133e+02 1.946987430548e+03 2.288984213438e+03 2.401034615736e+03 2.257983430523e+03 2.094671345068e+02 2.974171865877e+02 4.158667190815e+02 2.226353282255e+03 8.485809919659e+01 1.781955390652e+02 8.100406365553e+01 1.985605579828e+02 2.189159749278e+03 2.426856326653e+03 2.444711966757e+03 2.489117913266e+03 2.404863351754e+03 2.355877370446e+02 3.224434004872e+02 9.118271171221e+01 6.234816449088e+02 5.301080559138e+02 6.527713523957e+02 6.714113342071e+02 4.450369031523e+02 1.910002769622e+03 1.319614842763e+02 1.086725516939e+02 2.383079750642e+03 2.026730898704e+03 2.452340968971e+03 1.460765524082e+02 2.185594080182e+03 1.747464701001e+03 1.889110382803e+03 8.081857999557e+02 1.752142762027e+03 1.536221879474e+03 1.323193015575e+03 1.209257703904e+03 1.054394976618e+03 1.208046769602e+03 1.917257290676e+03 1.724073825122e+03 5.711923681586e+02 1.080876607296e+03 5.687612787437e+02 1.309770449431e+03 1.219796597412e+03 1.345713902252e+03 1.414080569325e+03 7.603699685838e+02 1.426660363229e+03 7.403054147329e+02 1.339678842152e+03 1.585663066930e+03 9.959639301004e+02 1.057441252079e+03 1.895975679870e+03 9.902180977821e+02 1.121704873149e+03 8.986382257808e+02 1.928207862568e+03 1.883194815307e+03 1.521105155456e+03 8.656057575706e+02 1.879489169413e+03 1.941862745829e+03 1.366012419206e+03 1.412801324186e+03 1.564957835594e+03 9.794296092638e+02 1.951025091084e+03 1.535753437138e+03 1.139599312895e+03 6.227358178676e+02 6.041233360649e+02 2.004528607806e+02 8.914057816388e+02 1.317835066493e+03 1.558610829284e+03 1.628191387099e+03 1.555286833831e+03 1.165418822983e+03 2.355272305059e+03 1.865164943392e+03 1.404678500972e+02 1.113032473824e+03 1.804379504360e+03 1.395185143714e+03 1.635872406459e+03 2.226518092526e+02 1.683754300682e+03 2.071114417845e+02 2.368547048832e+03 1.177237718665e+03 6.789543931739e+02 1.637676366564e+03 2.134576156660e+03 8.817750765581e+02 4.249726086855e+02 1.932068583916e+03 6.215924917469e+02 2.118129949147e+03 1.765783618140e+03 9.201075734932e+02 2.423616880677e+03 1.548335590383e+02 1.164586805927e+03 3.462726387908e+02 1.531014742099e+03 2.165073858489e+03 2.414984073374e+03 2.392463966631e+03 6.291774822873e+02 2.298184502930e+03 2.034821518093e+03 5.337823615441e+02 1.801495433891e+03 1.074862916245e+03 6.006983362879e+02 1.492858595811e+02 1.967435468985e+03 1.313066160305e+02 4.997771798554e+02 2.434904719307e+03 1.217926540425e+02 2.870891705044e+02 9.191300864798e+02 2.284863986408e+03 1.756161816424e+03 1.035730057229e+03 1.916352320673e+03 7.873914708797e+02 4.467832893212e+02 7.876715362929e+02 7.105590262511e+02 7.232228443128e+02 1.014785329057e+02 2.173233122248e+03 2.151043219359e+02 4.352787630345e+02 5.927471822442e+02 6.705708381622e+02 5.187516290327e+02 1.599716980571e+02 2.314355471093e+03 8.971414248043e+02 8.742525034687e+02 1.784308545003e+02 2.043825005674e+03 2.392091576093e+03 1.951638326317e+03 5.192911510463e+02 2.000713530020e+03 2.204204981681e+03 1.529603909021e+03 9.668502569551e+02 2.101925168746e+03 2.423307199486e+03 1.950318287386e+02 2.147517535941e+03 2.029038901810e+02 1.339010794878e+03 8.180225543234e+02 6.038840589116e+02 2.068246933276e+03 4.254382255859e+02 2.102799433793e+03 2.050047620084e+03 3.066215598012e+02 6.055026417707e+01 2.297589687127e+02 1.868217748939e+03 2.185212832502e+03 4.320919890675e+02 4.223695150698e+02 2.094042010274e+03 3.568280755223e+02 1.355508412211e+03 3.936141563342e+02 1.722353876444e+03 1.006277900031e+03 4.305950615206e+02 1.197600655648e+03 2.265603463389e+03 2.522442091386e+02 4.776569271746e+02 1.893078205511e+03 1.250654095626e+02 2.126022556373e+03 2.126304785351e+03 9.464623072878e+01 2.255379578752e+03 2.051576162924e+03 2.445443167532e+03 6.728240956645e+02 2.234050424598e+03 1.821800266683e+03 2.243684035326e+03 2.251425030809e+03 2.215598065258e+03 2.280310988845e+03 2.276893571294e+03 1.640675730802e+03 2.146955653013e+03 2.038497257913e+03 1.917679066812e+03 2.116880930383e+03 2.425058131330e+02 4.139121010588e+02 3.137355828589e+02 3.684232801572e+02 8.005572388610e+02 1.689777916981e+03 5.270252843446e+02 3.331666897397e+02 2.424305417997e+03 2.357235477403e+03 2.103377095742e+02 1.267494377088e+02 2.293704734229e+03 1.666181555914e+03 4.348951630053e+02 1.704629140683e+03 2.733640545719e+02 1.701172522296e+03 3.368310570321e+02 4.100385547112e+02 2.062827322258e+03 2.454462248947e+02 6.655613600486e+02 2.248786061254e+02 6.264281841703e+02 1.953787981120e+03 2.048241659812e+02 2.096493750101e+03 6.751373291890e+02 1.846906109716e+03 2.486045684003e+03 8.247895669861e+02 4.514526668784e+02 2.308517327064e+03 5.738608680898e+02 2.360114299875e+03 1.972563454232e+03 2.477860404794e+02 3.183455400603e+02 1.609924570678e+02 2.274185011686e+03 1.961776300776e+03 2.390359074205e+02 2.193249033888e+03 9.455504537489e+02 1.743307780323e+03 1.851263083841e+03 3.879209020779e+02 2.006385844309e+03 2.645412049800e+02 1.832706992361e+03 2.266942053817e+03 4.416767810609e+02 6.037902076255e+02 7.762073526417e+02 6.889094524610e+01 2.705968094339e+02 1.877430720579e+03 1.861891205920e+03 7.956741293076e+01 2.415288191482e+03 2.323608992304e+03 1.777626203983e+03 5.162057681826e+01 2.589499274033e+02 1.389682672831e+02 2.427673232666e+03 2.155974724284e+03 2.456897938196e+03 2.185162728652e+03 1.085424138747e+03 4.418324649048e+02 2.007147637140e+03 8.571868293856e+01 2.306368548701e+02 2.243217913313e+03 7.185804972145e+02 6.873636294325e+02 2.348396206945e+03 1.265299007197e+03 1.687602097647e+03 7.640567022792e+01 1.802590429376e+03 2.292136017403e+03 2.363790620822e+03 2.838132609733e+02 1.623514974091e+02 3.238436144549e+02 1.825732165224e+02 3.831945301739e+02 6.704744706415e+02 1.930181604969e+03 4.805299756625e+02 2.489080435636e+03 2.221934141761e+03 2.463872349126e+03 2.324874204341e+02 2.005252983820e+03 3.999064095575e+02 1.552257065125e+03 2.496341430236e+03 2.348293566016e+03 2.344859646233e+03 6.449085248872e+02 1.782350508153e+02 7.853068278066e+01 1.822491227589e+02 5.430746405607e+02 2.072015009202e+03 2.084783048929e+03 2.053200682249e+03 2.193436582592e+03 2.095476492187e+03 2.322442560785e+03 2.024015038633e+03 2.265514204848e+03 1.181733831086e+03 7.456581677362e+02 3.042425096189e+02 1.984509152090e+03 2.185589474176e+03 2.403511759863e+03 9.118069741600e+02 2.286861324333e+03 3.225643306570e+02 1.865403874384e+03 7.191649585953e+02 1.543150252176e+03 1.510655862863e+02 2.268192358057e+03 2.246848996424e+03 1.846785795795e+03 2.731741216544e+02 2.180969274771e+03 2.487794007608e+03 1.725863887543e+03 2.038952641335e+03 2.013201052834e+03 2.374798273089e+03 2.487480728321e+03 2.098517725142e+03 1.892209802826e+02 2.106712896631e+03 2.237287074199e+03 7.276316417615e+02 8.639968659962e+02 6.384568955814e+01 3.880969263668e+02 6.858817978645e+02 5.103982431174e+02 1.691672626301e+03 1.452849396005e+03 3.142038613725e+02 1.969774246336e+03 2.471583306645e+03 5.876336857001e+02 2.166883770162e+03 1.773360566510e+03 3.114145885599e+02 3.964414260974e+02 4.501186405825e+02 2.380968153926e+03 5.743282652013e+01 2.352225061868e+03 2.164495290811e+03 2.397487940304e+03 2.908675853769e+02 2.391847675979e+03 2.096726966597e+03 6.698111326833e+02 1.980788255307e+03 5.832099023617e+02 2.219323322511e+03 6.912159903568e+02 3.881534751023e+02 8.364681839735e+02 3.759772330104e+02 2.068740435049e+03 2.345617554662e+03 6.040302644650e+02 3.011887126903e+02 2.170909418885e+02 2.163346799690e+03 2.045339377613e+03 3.726441230078e+02 1.795386219355e+02 1.935413711871e+03 2.017134459739e+03 1.678630458520e+03 4.411013890710e+02 2.381406016318e+03 1.664720179