<?xml version="1.0"?>
<!-- Time step: 161 | Time: 2.900000000000e+04 -->
<VTKFile type="UnstructuredGrid" version="0.1" byte_order="LittleEndian">
  <UnstructuredGrid>
    <Piece NumberOfPoints="6824" NumberOfCells="13330">
      <Points>
        <DataArray type="Float64" NumberOfComponents="3" format="ascii">
          0.000000000000e+00 0.000000000000e+00 0.000000000000e+00
          0.000000000000e+00 0.000000000000e+00 2.600000000000e-01
          5.300000000000e-01 0.000000000000e+00 2.600000000000e-01
          5.300000000000e-01 0.000000000000e+00 0.000000000000e+00
          0.000000000000e+00 0.000000000000e+00 4.999999999991e-03
          0.000000000000e+00 0.000000000000e+00 9.999999999982e-03
          0.000000000000e+00 0.000000000000e+00 1.499999999997e-02
          0.000000000000e+00 0.000000000000e+00 1.999999999996e-02
          0.000000000000e+00 0.000000000000e+00 2.499999999996e-02
          0.000000000000e+00 0.000000000000e+00 2.999999999995e-02
          0.000000000000e+00 0.000000000000e+00 3.499999999994e-02
          0.000000000000e+00 0.000000000000e+00 3.999999999992e-02
          0.000000000000e+00 0.000000000000e+00 4.499999999991e-02
          0.000000000000e+00 0.000000000000e+00 4.999999999990e-02
          0.000000000000e+00 0.000000000000e+00 5.499999999988e-02
          0.000000000000e+00 0.000000000000e+00 5.999999999987e-02
          0.000000000000e+00 0.000000000000e+00 6.499999999985e-02
          0.000000000000e+00 0.000000000000e+00 6.999999999983e-02
          0.000000000000e+00 0.000000000000e+00 7.499999999983e-02
          0.000000000000e+00 0.000000000000e+00 7.999999999981e-02
          0.000000000000e+00 0.000000000000e+00 8.499999999979e-02
          0.000000000000e+00 0.000000000000e+00 8.999999999978e-02
          0.000000000000e+00 0.000000000000e+00 9.499999999977e-02
          0.000000000000e+00 0.000000000000e+00 9.999999999975e-02
          0.000000000000e+00 0.000000000000e+00 1.049999999997e-01
          0.000000000000e+00 0.000000000000e+00 1.099999999997e-01
          0.000000000000e+00 0.000000000000e+00 1.149999999997e-01
          0.000000000000e+00 0.000000000000e+00 1.199999999997e-01
          0.000000000000e+00 0.000000000000e+00 1.249999999997e-01
          0.000000000000e+00 0.000000000000e+00 1.299999999997e-01
          0.000000000000e+00 0.000000000000e+00 1.349999999997e-01
          0.000000000000e+00 0.000000000000e+00 1.399999999997e-01
          0.000000000000e+00 0.000000000000e+00 1.449999999997e-01
          0.000000000000e+00 0.000000000000e+00 1.499999999997e-01
          0.000000000000e+00 0.000000000000e+00 1.549999999997e-01
          0.000000000000e+00 0.000000000000e+00 1.599999999997e-01
          0.000000000000e+00 0.000000000000e+00 1.649999999998e-01
          0.000000000000e+00 0.000000000000e+00 1.699999999998e-01
          0.000000000000e+00 0.000000000000e+00 1.749999999998e-01
          0.000000000000e+00 0.000000000000e+00 1.799999999998e-01
          0.000000000000e+00 0.000000000000e+00 1.849999999998e-01
          0.000000000000e+00 0.000000000000e+00 1.899999999998e-01
          0.000000000000e+00 0.000000000000e+00 1.949999999998e-01
          0.000000000000e+00 0.000000000000e+00 1.999999999999e-01
          0.000000000000e+00 0.000000000000e+00 2.049999999999e-01
          0.000000000000e+00 0.000000000000e+00 2.099999999999e-01
          0.000000000000e+00 0.000000000000e+00 2.149999999999e-01
          0.000000000000e+00 0.000000000000e+00 2.199999999999e-01
          0.000000000000e+00 0.000000000000e+00 2.249999999999e-01
          0.000000000000e+00 0.000000000000e+00 2.299999999999e-01
          0.000000000000e+00 0.000000000000e+00 2.349999999999e-01
          0.000000000000e+00 0.000000000000e+00 2.399999999999e-01
          0.000000000000e+00 0.000000000000e+00 2.450000000000e-01
          0.000000000000e+00 0.000000000000e+00 2.500000000000e-01
          0.000000000000e+00 0.000000000000e+00 2.550000000000e-01
          4.999999999991e-03 0.000000000000e+00 2.600000000000e-01
          9.999999999981e-03 0.000000000000e+00 2.600000000000e-01
          1.499999999997e-02 0.000000000000e+00 2.600000000000e-01
          1.999999999996e-02 0.000000000000e+00 2.600000000000e-01
          2.499999999995e-02 0.000000000000e+00 2.600000000000e-01
          2.999999999994e-02 0.000000000000e+00 2.600000000000e-01
          3.499999999993e-02 0.000000000000e+00 2.600000000000e-01
          3.999999999992e-02 0.000000000000e+00 2.600000000000e-01
          4.499999999992e-02 0.000000000000e+00 2.600000000000e-01
          4.999999999991e-02 0.000000000000e+00 2.600000000000e-01
          5.499999999990e-02 0.000000000000e+00 2.600000000000e-01
          5.999999999990e-02 0.000000000000e+00 2.600000000000e-01
          6.499999999989e-02 0.000000000000e+00 2.600000000000e-01
          6.999999999988e-02 0.000000000000e+00 2.600000000000e-01
          7.499999999986e-02 0.000000000000e+00 2.600000000000e-01
          7.999999999985e-02 0.000000000000e+00 2.600000000000e-01
          8.499999999983e-02 0.000000000000e+00 2.600000000000e-01
          8.999999999981e-02 0.000000000000e+00 2.600000000000e-01
          9.499999999980e-02 0.000000000000e+00 2.600000000000e-01
          9.999999999979e-02 0.000000000000e+00 2.600000000000e-01
          1.049999999998e-01 0.000000000000e+00 2.600000000000e-01
          1.099999999998e-01 0.000000000000e+00 2.600000000000e-01
          1.149999999997e-01 0.000000000000e+00 2.600000000000e-01
          1.199999999997e-01 0.000000000000e+00 2.600000000000e-01
          1.249999999997e-01 0.000000000000e+00 2.600000000000e-01
          1.299999999997e-01 0.000000000000e+00 2.600000000000e-01
          1.349999999997e-01 0.000000000000e+00 2.600000000000e-01
          1.399999999997e-01 0.000000000000e+00 2.600000000000e-01
          1.449999999997e-01 0.000000000000e+00 2.600000000000e-01
          1.499999999996e-01 0.000000000000e+00 2.600000000000e-01
          1.549999999996e-01 0.000000000000e+00 2.600000000000e-01
          1.599999999996e-01 0.000000000000e+00 2.600000000000e-01
          1.649999999996e-01 0.000000000000e+00 2.600000000000e-01
          1.699999999996e-01 0.000000000000e+00 2.600000000000e-01
          1.749999999996e-01 0.000000000000e+00 2.600000000000e-01
          1.799999999995e-01 0.000000000000e+00 2.600000000000e-01
          1.849999999995e-01 0.000000000000e+00 2.600000000000e-01
          1.899999999995e-01 0.000000000000e+00 2.600000000000e-01
          1.949999999995e-01 0.000000000000e+00 2.600000000000e-01
          1.999999999995e-01 0.000000000000e+00 2.600000000000e-01
          2.049999999995e-01 0.000000000000e+00 2.600000000000e-01
          2.099999999995e-01 0.000000000000e+00 2.600000000000e-01
          2.149999999994e-01 0.000000000000e+00 2.600000000000e-01
          2.199999999994e-01 0.000000000000e+00 2.600000000000e-01
          2.249999999994e-01 0.000000000000e+00 2.600000000000e-01
          2.299999999994e-01 0.000000000000e+00 2.600000000000e-01
          2.349999999994e-01 0.000000000000e+00 2.600000000000e-01
          2.399999999994e-01 0.000000000000e+00 2.600000000000e-01
          2.449999999993e-01 0.000000000000e+00 2.600000000000e-01
          2.499999999993e-01 0.000000000000e+00 2.600000000000e-01
          2.549999999993e-01 0.000000000000e+00 2.600000000000e-01
          2.599999999993e-01 0.000000000000e+00 2.600000000000e-01
          2.649999999993e-01 0.000000000000e+00 2.600000000000e-01
          2.699999999993e-01 0.000000000000e+00 2.600000000000e-01
          2.749999999993e-01 0.000000000000e+00 2.600000000000e-01
          2.799999999993e-01 0.000000000000e+00 2.600000000000e-01
          2.849999999993e-01 0.000000000000e+00 2.600000000000e-01
          2.899999999993e-01 0.000000000000e+00 2.600000000000e-01
          2.949999999993e-01 0.000000000000e+00 2.600000000000e-01
          2.999999999994e-01 0.000000000000e+00 2.600000000000e-01
          3.049999999994e-01 0.000000000000e+00 2.600000000000e-01
          3.099999999994e-01 0.000000000000e+00 2.600000000000e-01
          3.149999999994e-01 0.000000000000e+00 2.600000000000e-01
          3.199999999994e-01 0.000000000000e+00 2.600000000000e-01
          3.249999999994e-01 0.000000000000e+00 2.600000000000e-01
          3.299999999994e-01 0.000000000000e+00 2.600000000000e-01
          3.349999999995e-01 0.000000000000e+00 2.600000000000e-01
          3.399999999995e-01 0.000000000000e+00 2.600000000000e-01
          3.449999999995e-01 0.000000000000e+00 2.600000000000e-01
          3.499999999995e-01 0.000000000000e+00 2.600000000000e-01
          3.549999999995e-01 0.000000000000e+00 2.600000000000e-01
          3.599999999995e-01 0.000000000000e+00 2.600000000000e-01
          3.649999999996e-01 0.000000000000e+00 2.600000000000e-01
          3.699999999996e-01 0.000000000000e+00 2.600000000000e-01
          3.749999999996e-01 0.000000000000e+00 2.600000000000e-01
          3.799999999996e-01 0.000000000000e+00 2.600000000000e-01
          3.849999999996e-01 0.000000000000e+00 2.600000000000e-01
          3.899999999996e-01 0.000000000000e+00 2.600000000000e-01
          3.949999999996e-01 0.000000000000e+00 2.600000000000e-01
          3.999999999996e-01 0.000000000000e+00 2.600000000000e-01
          4.049999999996e-01 0.000000000000e+00 2.600000000000e-01
          4.099999999996e-01 0.000000000000e+00 2.600000000000e-01
          4.149999999997e-01 0.000000000000e+00 2.600000000000e-01
          4.199999999997e-01 0.000000000000e+00 2.600000000000e-01
          4.249999999997e-01 0.000000000000e+00 2.600000000000e-01
          4.299999999997e-01 0.000000000000e+00 2.600000000000e-01
          4.349999999997e-01 0.000000000000e+00 2.600000000000e-01
          4.399999999997e-01 0.000000000000e+00 2.600000000000e-01
          4.449999999997e-01 0.000000000000e+00 2.600000000000e-01
[...]
      <PointData Scalars="PRESSURE1">
        <DataArray type="Float64" Name="PRESSURE1" format="ascii">
          2.566590300000e+03 -5.032530000000e+01 5.395500000000e+01 2.604555000000e+03 2.516265000000e+03 2.465939700000e+03 2.415614400000e+03 2.365289100000e+03 2.314963800000e+03 2.264638500001e+03 2.214313200001e+03 2.163987900001e+03 2.113662600001e+03 2.063337300001e+03 2.013012000001e+03 1.962686700001e+03 1.912361400001e+03 1.862036100002e+03 1.811710800002e+03 1.761385500002e+03 1.711060200002e+03 1.660734900002e+03 1.610409600002e+03 1.560084300003e+03 1.509759000003e+03 1.459433700003e+03 1.409108400003e+03 1.358783100003e+03 1.308457800003e+03 1.258132500003e+03 1.207807200003e+03 1.157481900003e+03 1.107156600003e+03 1.056831300003e+03 1.006506000003e+03 9.561807000026e+02 9.058554000024e+02 8.555301000022e+02 8.052048000022e+02 7.548795000020e+02 7.045542000019e+02 6.542289000018e+02 6.039036000017e+02 5.535783000015e+02 5.032530000014e+02 4.529277000013e+02 4.026024000011e+02 3.522771000010e+02 3.019518000009e+02 2.516265000007e+02 2.013012000006e+02 1.509759000005e+02 1.006506000004e+02 5.032530000026e+01 1.810262739710e-10 -4.587434689717e+01 -4.268367710823e+01 -3.994398753299e+01 -3.749736269344e+01 -3.525380158688e+01 -3.317265711541e+01 -3.122423287921e+01 -2.938976030706e+01 -2.764015374291e+01 -2.597685287564e+01 -2.438788987428e+01 -2.286372542976e+01 -2.139821886657e+01 -1.998522030835e+01 -1.861666145351e+01 -1.729487002793e+01 -1.601497081096e+01 -1.476951050104e+01 -1.355972630078e+01 -1.238273598956e+01 -1.123448560154e+01 -1.011353917938e+01 -9.017978818368e+00 -7.945447887072e+00 -6.895375749034e+00 -5.866436622199e+00 -4.858247303788e+00 -3.867799831862e+00 -2.895163781267e+00 -1.938490425803e+00 -9.966191661835e-01 -7.026087668593e-02 8.420132065998e-01 1.741377121887e+00 2.628811670805e+00 3.504717806056e+00 4.369035953154e+00 5.223755449253e+00 6.067642135440e+00 6.902281732062e+00 7.728598568006e+00 8.546487877979e+00 9.356076628434e+00 1.015827355460e+01 1.095301368809e+01 1.174153453867e+01 1.252360502924e+01 1.329929729861e+01 1.406946496289e+01 1.483439327797e+01 1.559366871333e+01 1.634841394205e+01 1.709829197113e+01 1.784392584609e+01 1.858534247229e+01 1.932281955391e+01 2.005674218215e+01 2.078712228267e+01 2.151409837001e+01 2.223801894089e+01 2.295887828387e+01 2.367692566173e+01 2.439247330634e+01 2.510530153346e+01 2.581580707528e+01 2.652424623893e+01 2.723058187034e+01 2.793475686971e+01 2.863708939602e+01 2.933774394168e+01 3.003657437727e+01 3.073395501805e+01 3.142981356376e+01 3.212428167301e+01 3.281742562036e+01 3.350933927387e+01 3.420007018882e+01 3.488972838105e+01 3.557837100555e+01 3.626606518249e+01 3.695277043368e+01 3.763869791649e+01 3.832376666294e+01 3.900820278503e+01 3.969184779414e+01 4.037488257653e+01 4.105730483879e+01 4.173917219913e+01 4.242050262104e+01 4.310132508813e+01 4.378172630517e+01 4.446170919581e+01 4.514131339533e+01 4.582056939498e+01 4.649949764771e+01 4.717816601612e+01 4.785655480284e+01 4.853473064779e+01 4.921269154570e+01 4.989047894291e+01 5.056812655666e+01 5.124565000644e+01 5.192307092374e+01 5.260042062858e+01 5.327772431927e+01 1.030050000000e+02 1.520549999998e+02 2.011049999998e+02 2.501549999997e+02 2.992049999996e+02 3.482549999995e+02 3.973049999995e+02 4.463549999993e+02 4.954049999991e+02 5.444549999990e+02 5.935049999989e+02 6.425549999988e+02 6.916049999986e+02 7.406549999985e+02 7.897049999983e+02 8.387549999981e+02 8.878049999980e+02 9.368549999979e+02 9.859049999978e+02 1.034954999998e+03 1.084004999998e+03 1.133054999997e+03 1.182104999997e+03 1.231154999997e+03 1.280204999997e+03 1.329254999997e+03 1.378304999997e+03 1.427354999997e+03 1.476404999997e+03 1.525454999997e+03 1.574504999997e+03 1.623554999998e+03 1.672604999998e+03 1.721654999998e+03 1.770704999998e+03 1.819754999998e+03 1.868804999998e+03 1.917854999998e+03 1.966904999998e+03 2.015954999999e+03 2.065004999999e+03 2.114054999999e+03 2.163104999999e+03 2.212154999999e+03 2.261204999999e+03 2.310254999999e+03 2.359304999999e+03 2.408354999999e+03 2.457405000000e+03 2.506455000000e+03 2.555505000000e+03 2.603891208100e+03 2.603227441927e+03 2.602563727139e+03 2.601900086604e+03 2.601236548456e+03 2.600573133468e+03 2.599909872975e+03 2.599246786785e+03 2.598583914722e+03 2.597921283554e+03 2.597258919295e+03 2.596596843134e+03 2.595935089992e+03 2.595273720387e+03 2.594612719860e+03 2.593952161977e+03 2.593292059379e+03 2.592632488831e+03 2.591973477775e+03 2.591315039679e+03 2.590657201552e+03 2.590000090785e+03 2.589343730841e+03 2.588688114665e+03 2.588033433671e+03 2.587379575760e+03 2.586726793504e+03 2.586074888097e+03 2.585424231688e+03 2.584774707036e+03 2.584126497695e+03 2.583479623207e+03 2.582834251060e+03 2.582190426057e+03 2.581548164814e+03 2.580907705441e+03 2.580269326018e+03 2.579632886831e+03 2.578998577308e+03 2.578366521071e+03 2.577737146999e+03 2.577110388534e+03 2.576486290355e+03 2.575865587103e+03 2.575248177135e+03 2.574633890966e+03 2.574023624053e+03 2.573417344900e+03 2.572815532833e+03 2.572218147544e+03 2.571626559082e+03 2.571039889232e+03 2.570459483547e+03 2.569885419639e+03 2.569318587608e+03 2.568759519303e+03 2.568208491984e+03 2.567667017379e+03 2.567136083057e+03 2.566615867543e+03 2.566108808664e+03 2.565616624620e+03 2.565141474522e+03 2.564685857024e+03 2.564254392578e+03 2.563852036906e+03 2.563492992382e+03 2.563199143080e+03 2.563006649368e+03 2.563004143955e+03 2.563127057481e+03 2.563305889383e+03 2.563488286724e+03 2.563683821553e+03 2.563858263190e+03 2.564026444819e+03 2.564184752853e+03 2.564332889348e+03 2.564470848412e+03 2.564596274709e+03 2.564712892426e+03 2.564822276079e+03 2.564926173521e+03 2.565024704823e+03 2.565118968850e+03 2.565209475841e+03 2.565296464872e+03 2.565380104400e+03 2.565461045795e+03 2.565539202627e+03 2.565615050236e+03 2.565688642621e+03 2.565760433526e+03 2.565830445108e+03 2.565898814433e+03 2.565965960645e+03 2.566031735332e+03 2.566096524427e+03 2.566160241255e+03 2.566223181727e+03 2.566285447191e+03 2.566347100679e+03 2.566408303543e+03 2.566469159114e+03 2.566529784650e+03 8.401481838924e+02 8.090581788977e+02 1.779663268982e+03 2.194044546210e+03 4.347789285918e+02 2.227865750014e+03 3.612633176681e+02 6.322944848777e+02 1.304034293107e+03 2.331368758433e+03 2.552074067581e+02 5.166544923425e+02 2.000151471002e+03 5.730373685476e+02 1.931662143028e+03 2.322599974484e+03 2.596368193592e+02 6.381861070683e+02 2.343178776838e+03 2.681279549772e+02 8.082101536525e+02 6.187865803611e+02 1.940493994885e+03 2.176451231566e+03 3.837658740378e+02 1.985849628146e+03 5.799208583214e+02 6.476644692081e+02 2.004535368047e+03 1.800308335812e+03 4.858080759717e+02 8.209533583112e+02 1.739453940923e+03 1.811987973681e+03 3.142700389563e+02 8.536920889059e+02 1.982132620561e+03 2.332138163915e+03 5.157870229291e+02 1.982493399357e+03 6.327299995359e+02 7.067389297518e+02 1.852651691374e+03 2.001795522295e+03 2.099925892340e+03 2.098890891038e+03 2.995099071115e+02 2.801812285270e+02 2.066158628194e+03 2.121016289974e+03 2.137259843145e+03 4.543397307426e+02 5.028994967044e+02 2.181242231638e+03 2.121858263331e+03 3.638609943609e+02 4.026561841459e+02 2.203378947235e+03 3.206050406750e+02 2.340062696026e+03 4.569107028760e+02 2.270040410892e+03 1.731251659049e+02 2.214484413518e+03 2.349724380610e+03 2.418321886211e+03 3.027052730948e+02 2.306798512410e+03 2.988296226260e+02 2.013429122414e+02 2.447736543721e+03 2.251866868540e+02 2.431098823005e+03 2.472584151747e+03 2.535733145068e+02 2.485746084336e+03 1.195712367096e+02 2.413483636723e+03 2.456697208570e+03 2.011681402952e+02 2.464497560193e+03 2.493717215588e+03 2.522094531055e+03 2.489008811124e+03 1.269707853999e+02 7.963193821961e+02 1.758908265526e+03 7.959299113383e+02 1.366599478270e+03 4.865950348826e+02 2.107550099418e+03 2.099864571746e+03 3.909430893938e+02 4.726540212963e+02 2.935766014400e+02 2.290065082253e+03 9.584733018227e+02 1.768318119876e+03 1.954704445515e+03 2.330376009877e+03 1.578890605674e+03 9.751384851106e+02 3.179708134105e+02 1.640664218972e+03 2.414970746703e+03 1.601546467503e+03 4.644628292369e+02 2.118527245958e+03 1.429809419878e+02 9.851001727333e+02 1.662612787283e+03 9.321939911308e+02 3.976306006665e+02 1.156664058311e+03 2.160946126243e+03 3.604796449771e+02 1.515280829774e+02 9.302194534963e+02 1.692586630391e+03 2.028155786840e+03 5.796177046864e+02 2.791753411095e+02 2.411783120151e+03 1.732033529587e+02 2.230936105473e+03 1.460975773336e+03 1.082646396836e+03 2.129948958700e+02 2.414650026672e+03 2.238427299728e+03 2.343101357536e+03 3.286528513586e+02 2.371144291675e+03 3.340944048841e+02 2.292174708122e+03 2.369775351877e+03 2.167571283816e+03 2.385937331934e+03 2.226565947447e+03 2.371558116157e+03 1.350627235084e+03 2.184889566396e+03 4.152269734496e+02 1.710793885353e+02 2.430947754887e+03 7.922426573120e+01 2.482249795507e+03 1.893358925393e+03 7.411001143746e+02 2.071789770138e+03 7.612076613282e+02 1.666443035993e+03 2.379962003797e+03 2.443373979424e+03 2.158970442350e+02 1.923224420250e+02 9.602071733447e+01 7.193359288407e+02 2.580265173427e+02 2.336199595741e+03 1.214485788923e+02 9.697387889585e+02 1.227311264254e+03 2.262819354931e+03 6.196489210801e+02 1.105560498841e+03 6.522033443659e+02 2.620669592047e+02 2.397968997268e+03 1.996193832155e+03 6.388771900106e+02 2.646129645199e+02 1.351617040392e+02 1.837957729238e+02 2.329091405050e+03 2.005562677788e+03 1.596372925121e+03 1.974297532952e+03 5.058840972092e+02 2.078484816180e+03 1.708442516815e+03 1.834919044428e+02 5.292803857451e+02 2.082477187304e+03 2.233152688394e+03 3.642834579208e+02 2.105628381454e+03 2.155819061421e+03 2.361113704183e+03 1.031341259299e+03 2.463456946609e+03 6.955623839752e+02 1.781610778548e+03 1.237613492805e+02 1.305624172153e+02 7.870574009141e+02 2.094433316640e+03 1.343196309607e+02 1.392803496386e+02 1.893827477893e+03 2.202227100065e+03 9.455327724199e+02 5.692782474899e+02 1.823018589410e+02 4.310171546986e+02 2.346678241667e+02 7.778650877384e+02 1.081919380615e+02 5.925144291946e+02 2.472999773584e+03 1.737625803283e+03 2.137873910745e+03 3.192263662067e+02 7.672920379883e+02 2.405837621735e+03 1.531180073909e+02 5.597367497800e+02 7.343487294770e+02 2.135084367521e+03 4.776846549511e+02 2.220541139591e+03 5.595060493526e+02 2.509862539505e+03 4.120740512481e+02 1.389374890546e+02 2.460657421946e+03 4.766523279035e+02 3.563971888045e+02 2.448373051329e+03 1.331662046862e+02 2.454980931646e+03 2.226556180134e+03 2.976949331112e+02 2.446590743872e+03 3.246103559920e+02 2.901541401962e+02 1.313859954182e+02 2.454872329951e+03 4.944647845791e+02 5.223349182019e+02 1.854018975875e+03 5.109419577795e+02 2.475496013745e+03 4.991881508859e+02 6.110114884265e+02 5.646324608548e+02 1.633074213533e+02 6.280462175313e+02 1.905717788756e+03 3.154373550721e+02 2.270612495633e+03 3.745971601689e+02 1.121939608925e+02 2.478148136240e+03 2.043499891840e+03 2.334260265815e+03 2.405705878153e+02 4.518947523444e+02 3.384847064743e+02 1.894820587509e+03 3.922451256313e+02 2.494979892819e+03 8.043777214906e+02 2.426117639973e+03 1.151720047838e+02 2.473495295023e+03 2.324357112601e+03 7.357911616876e+01 5.438132209281e+02 1.952271887532e+03 2.515254266578e+03 2.256183437048e+03 2.331013344271e+03 1.391280517871e+02 2.415677215665e+03 2.583147601310e+02 2.283544427002e+03 3.162408398494e+02 7.332390173886e+02 1.919883329405e+03 1.727520589831e+02 6.753453846844e+02 3.733995080629e+02 1.180780847160e+02 2.385210359808e+03 2.171523153281e+02 2.277584577835e+03 1.884421445744e+03 2.432917897796e+02 1.806961705911e+03 1.235251086625e+02 2.341548437534e+03 2.456437206565e+03 4.466841713683e+01 2.345762250677e+03 2.089791058783e+02 3.159940951074e+02 2.272139504414e+03 2.513506517869e+03 2.810000654109e+02 2.228337417237e+03 2.348943177413e+02 2.385902519446e+03 9.120641800956e+01 2.402149416906e+03 2.527429291835e+03 2.102632302373e+03 2.345800449130e+03 2.490780239875e+03 5.226321591242e+02 2.319626965792e+03 2.063211963137e+02 2.523888122540e+03 1.666930851281e+02 2.414754761258e+03 2.149554391327e+02 6.615283811858e+02 1.284034579841e+02 2.525129112778e+03 2.228628543669e+03 4.757284824087e+02 1.549311273649e+02 2.507707627023e+02 2.439458716468e+03 6.695322596360e+02 2.522297911571e+03 6.123580591859e+02 1.976871660877e+03 2.288853179465e+03 2.400970469293e+03 2.290205149425e+03 2.421845347462e+02 3.006321456675e+02 4.477948441021e+02 2.257903057336e+03 8.528731149099e+01 2.122484431225e+02 8.231628323918e+01 2.016326673447e+02 2.189071007785e+03 2.426743639286e+03 2.444666720212e+03 2.523177425061e+03 2.438930043292e+03 2.383909430128e+02 3.551867953061e+02 1.249558286944e+02 6.324326728375e+02 5.399585597283e+02 6.607271118978e+02 6.802691786036e+02 4.558657553235e+02 1.937826220009e+03 1.658163994611e+02 1.095429855197e+02 2.382946255502e+03 2.026582615269e+03 2.486441869803e+03 1.465108884057e+02 2.185486127850e+03 1.766259472382e+03 1.906726367681e+03 8.278255566469e+02 1.769069595903e+03 1.547325398393e+03 1.337813955122e+03 1.221191517255e+03 1.081115362761e+03 1.231093776221e+03 1.936589886356e+03 1.729710455889e+03 5.880409261407e+02 1.101004088316e+03 5.922373958239e+02 1.331100394957e+03 1.235646052622e+03 1.371998438115e+03 1.427474526895e+03 7.876546720453e+02 1.446547388660e+03 7.611051238565e+02 1.344514112623e+03 1.611724191547e+03 1.005009836594e+03 1.074736058528e+03 1.911375694300e+03 1.000586979754e+03 1.146559894895e+03 9.101020301067e+02 1.948666886025e+03 1.889660108047e+03 1.543559375814e+03 8.891847667221e+02 1.893271316174e+03 1.952257220823e+03 1.396484391629e+03 1.444285824057e+03 1.568155432848e+03 1.007940996870e+03 1.972682843007e+03 1.563271228190e+03 1.147307957041e+03 6.472957849371e+02 6.187835015303e+02 2.219385562587e+02 9.215372124721e+02 1.350340462265e+03 1.587482617509e+03 1.633111554627e+03 1.556276828985e+03 1.195145820771e+03 2.361206580679e+03 1.873807666817e+03 1.566884859879e+02 1.118533650303e+03 1.830260947482e+03 1.424493181680e+03 1.650208064497e+03 2.434567845440e+02 1.708440872236e+03 2.269139359948e+02 2.377372854862e+03 1.180034950357e+03 7.050651437943e+02 1.661210009874e+03 2.141301828859e+03 8.941473066399e+02 4.463341799170e+02 1.940580826100e+03 6.496359337851e+02 2.139586995288e+03 1.767089975932e+03 9.338671035130e+02 2.437136176907e+03 1.720983784536e+02 1.197055325096e+03 3.626007613618e+02 1.531338151109e+03 2.175321673681e+03 2.431810198610e+03 2.413223073174e+03 6.543278503152e+02 2.319055471316e+03 2.059200519148e+03 5.452037331755e+02 1.825091979847e+03 1.078147822598e+03 6.126765199762e+02 1.615853281916e+02 1.990936837166e+03 1.414254776133e+02 5.256589432615e+02 2.445434090583e+03 1.401369600845e+02 3.091292055098e+02 9.503639754328e+02 2.290962287785e+03 1.777688859271e+03 1.068427165488e+03 1.939064268728e+03 8.024585780820e+02 4.613068032794e+02 7.951087605793e+02 7.405514565054e+02 7.342796755510e+02 1.135564465729e+02 2.200097403851e+03 2.307549035728e+02 4.468310063936e+02 6.054854279360e+02 6.845502715272e+02 5.467070813876e+02 1.714627589967e+02 2.334023914388e+03 9.289827971409e+02 8.824077748031e+02 2.010477101699e+02 2.061120439040e+03 2.394863030412e+03 1.976951544589e+03 5.374370421866e+02 2.001085389071e+03 2.225126906959e+03 1.561909986729e+03 9.989682545040e+02 2.102902515333e+03 2.445029958388e+03 2.040457742924e+02 2.170783795651e+03 2.125917030141e+02 1.372536874685e+03 8.249426902097e+02 6.172187350393e+02 2.094351846403e+03 4.341472557084e+02 2.129421688072e+03 2.050538294282e+03 3.172659902703e+02 7.175275946930e+01 2.449791183877e+02 1.895051193333e+03 2.214241217837e+03 4.597890462072e+02 4.455122681119e+02 2.122507266849e+03 3.679037836467e+02 1.355621435297e+03 4.207043300001e+02 1.752401669072e+03 1.008550838892e+03 4.400306704898e+02 1.198754685743e+03 2.265197405021e+03 2.670321203821e+02 4.908537910594e+02 1.893501025123e+03 1.381081228189e+02 2.127545947113e+03 2.155934587644e+03 1.056561723181e+02 2.260863344411e+03 2.079502488026e+03 2.470976009811e+03 6.832947900684e+02 2.263667483195e+03 1.854552230860e+03 2.266691773488e+03 2.278019718540e+03 2.240569414527e+03 2.279930319130e+03 2.276457873457e+03 1.640668321495e+03 2.150027486009e+03 2.065730869936e+03 1.950436387999e+03 2.116632209388e+03 2.564067242612e+02 4.220194186269e+02 3.365382613443e+02 3.814632941537e+02 8.322141867448e+02 1.720355285238e+03 5.294186965531e+02 3.477882210860e+02 2.424072508908e+03 2.356918901054e+03 2.184262629470e+02 1.552930994855e+02 2.318991892787e+03 1.695774532348e+03 4.614006483499e+02 1.704752411900e+03 2.876824470346e+02 1.729418818855e+03 3.634257108263e+02 4.201297067278e+02 2.062669832647e+03 2.761918989837e+02 6.950050591212e+02 2.333609153697e+02 6.553255353895e+02 1.954099746940e+03 2.136192574269e+02 2.096991821069e+03 7.056944069993e+02 1.878403611529e+03 2.485771579676e+03 8.285979912434e+02 4.757274196554e+02 2.332918239599e+03 6.031956521696e+02 2.385717443755e+03 1.972541038827e+03 2.547102310338e+02 3.308976454002e+02 1.747803136415e+02 2.304408517131e+03 1.988775729776e+03 2.511236298965e+02 2.215717310482e+03 9.478511693635e+02 1.775912134121e+03 1.851313603499e+03 4.125852953915e+02 2.009545355783e+03 2.926125992950e+02 1.861307817385e+03 2.266499544363e+03 4.670511297311e+02 6.075218325197e+02 7.808484384523e+02 8.265465417295e+01 2.756034306756e+02 1.909587430477e+03 1.861849750034e+03 9.360000312212e+01 2.444057850680e+03 2.347090463880e+03 1.807208511349e+03 6.818719823379e+01 2.629630306897e+02 1.621190906700e+02 2.428798432653e+03 2.184464525398e+03 2.456330461402e+03 2.185061895996e+03 1.118741705424e+03 4.701683513982e+02 2.007069529189e+03 9.859752774706e+01 2.358431928185e+02 2.258813365866e+03 7.205385922520e+02 6.914868426218e+02 2.347802273592e+03 1.299308401834e+03 1.718758698445e+03 9.751186063444e+01 1.802553594474e+03 2.291645521994e+03 2.391715776724e+03 3.016827575385e+02 1.910230055340e+02 3.514716976730e+02 1.883744817221e+02 3.900422994714e+02 7.033568328596e+02 1.930136753083e+03 4.813841746776e+02 2.511284580562e+03 2.249160090097e+03 2.463478624264e+03 2.601094611099e+02 2.037897462102e+03 4.134915958383e+02 1.583225940050e+03 2.497053094957e+03 2.375390279772e+03 2.372409073405e+03 6.548007259564e+02 2.054658855748e+02 1.009125840815e+02 2.126210126994e+02 5.474551787385e+02 2.071991250235e+03 2.114903135375e+03 2.086047180934e+03 2.193195686321e+03 2.128625359718e+03 2.353693676006e+03 2.056415577213e+03 2.265464394890e+03 1.182095933926e+03 7.781959477591e+02 3.329695852208e+02 1.984372728648e+03 2.185275773351e+03 2.402773588080e+03 9.453006817430e+02 2.286534977465e+03 3.309213802017e+02 1.865326215450e+03 7.257739308001e+02 1.576068549413e+03 1.819794771870e+02 2.269067986942e+03 2.246666510389e+03 1.846725249178e+03 2.862235094009e+02 2.180780006476e+03 2.517612743428e+03 1.725837241683e+03 2.038886453787e+03 2.044683347170e+03 2.374597397821e+03 2.510618750791e+03 2.098447241056e+03 2.190603882043e+02 2.137457166272e+03 2.242018867604e+03 7.590588932193e+02 8.704172936615e+02 7.840956427747e+01 3.940104737386e+02 6.912639479970e+02 5.194082587728e+02 1.723404908580e+03 1.486714926399e+03 3.376454703764e+02 1.969688486902e+03 2.495526678971e+03 5.916216459770e+02 2.171985277610e+03 1.804785736207e+03 3.209661142973e+02 4.276209059806e+02 4.555672804812e+02 2.410279228897e+03 6.385312687534e+01 2.383134164149e+03 2.168358951142e+03 2.424030060524e+03 3.171048827939e+02 2.391153372682e+03 2.099808244839e+03 6.758129244255e+02 2.014607908644e+03 5.934899802869e+02 2.220889549896e+03 7.006480794800e+02 3.911890969338e+02 8.694477279044e+02 4.045633377739e+02 2.068534944021e+03 2.374004906144e+03 6.055531929566e+02 3.350393154493e+02 2.305378618552e+02 2.163276615878e+03 2.077163590302e+03 4.040951920574e+02 1.837073798670e+02 1.935378230094e+03 2.016966403615e+03 1.678620505971e+03 4.699297408548e+02 2.380752824319e+03 1.697568694967e+03 2.247700849240e+