<?xml version="1.0"?>
<!-- Time step: 161 | Time: 2.900000000000e+04 -->
<VTKFile type="UnstructuredGrid" version="0.1" byte_order="LittleEndian">
  <UnstructuredGrid>
    <Piece NumberOfPoints="6824" NumberOfCells="13330">
      <Points>
        <DataArray type="Float64" NumberOfComponents="3" format="ascii">
          0.000000000000e+00 0.000000000000e+00 0.000000000000e+00
          0.000000000000e+00 0.000000000000e+00 2.600000000000e-01
          5.300000000000e-01 0.000000000000e+00 2.600000000000e-01
          5.300000000000e-01 0.000000000000e+00 0.000000000000e+00
          0.000000000000e+00 0.000000000000e+00 4.999999999991e-03
          0.000000000000e+00 0.000000000000e+00 9.999999999982e-03
          0.000000000000e+00 0.000000000000e+00 1.499999999997e-02
          0.000000000000e+00 0.000000000000e+00 1.999999999996e-02
          0.000000000000e+00 0.000000000000e+00 2.499999999996e-02
          0.000000000000e+00 0.000000000000e+00 2.999999999995e-02
          0.000000000000e+00 0.000000000000e+00 3.499999999994e-02
          0.000000000000e+00 0.000000000000e+00 3.999999999992e-02
          0.000000000000e+00 0.000000000000e+00 4.499999999991e-02
          0.000000000000e+00 0.000000000000e+00 4.999999999990e-02
          0.000000000000e+00 0.000000000000e+00 5.499999999988e-02
          0.000000000000e+00 0.000000000000e+00 5.999999999987e-02
          0.000000000000e+00 0.000000000000e+00 6.499999999985e-02
          0.000000000000e+00 0.000000000000e+00 6.999999999983e-02
          0.000000000000e+00 0.000000000000e+00 7.499999999983e-02
          0.000000000000e+00 0.000000000000e+00 7.999999999981e-02
          0.000000000000e+00 0.000000000000e+00 8.499999999979e-02
          0.000000000000e+00 0.000000000000e+00 8.999999999978e-02
          0.000000000000e+00 0.000000000000e+00 9.499999999977e-02
          0.000000000000e+00 0.000000000000e+00 9.999999999975e-02
          0.000000000000e+00 0.000000000000e+00 1.049999999997e-01
          0.000000000000e+00 0.000000000000e+00 1.099999999997e-01
          0.000000000000e+00 0.000000000000e+00 1.149999999997e-01
          0.000000000000e+00 0.000000000000e+00 1.199999999997e-01
          0.000000000000e+00 0.000000000000e+00 1.249999999997e-01
          0.000000000000e+00 0.000000000000e+00 1.299999999997e-01
          0.000000000000e+00 0.000000000000e+00 1.349999999997e-01
          0.000000000000e+00 0.000000000000e+00 1.399999999997e-01
          0.000000000000e+00 0.000000000000e+00 1.449999999997e-01
          0.000000000000e+00 0.000000000000e+00 1.499999999997e-01
          0.000000000000e+00 0.000000000000e+00 1.549999999997e-01
          0.000000000000e+00 0.000000000000e+00 1.599999999997e-01
          0.000000000000e+00 0.000000000000e+00 1.649999999998e-01
          0.000000000000e+00 0.000000000000e+00 1.699999999998e-01
          0.000000000000e+00 0.000000000000e+00 1.749999999998e-01
          0.000000000000e+00 0.000000000000e+00 1.799999999998e-01
          0.000000000000e+00 0.000000000000e+00 1.849999999998e-01
          0.000000000000e+00 0.000000000000e+00 1.899999999998e-01
          0.000000000000e+00 0.000000000000e+00 1.949999999998e-01
          0.000000000000e+00 0.000000000000e+00 1.999999999999e-01
          0.000000000000e+00 0.000000000000e+00 2.049999999999e-01
          0.000000000000e+00 0.000000000000e+00 2.099999999999e-01
          0.000000000000e+00 0.000000000000e+00 2.149999999999e-01
          0.000000000000e+00 0.000000000000e+00 2.199999999999e-01
          0.000000000000e+00 0.000000000000e+00 2.249999999999e-01
          0.000000000000e+00 0.000000000000e+00 2.299999999999e-01
          0.000000000000e+00 0.000000000000e+00 2.349999999999e-01
          0.000000000000e+00 0.000000000000e+00 2.399999999999e-01
          0.000000000000e+00 0.000000000000e+00 2.450000000000e-01
          0.000000000000e+00 0.000000000000e+00 2.500000000000e-01
          0.000000000000e+00 0.000000000000e+00 2.550000000000e-01
          4.999999999991e-03 0.000000000000e+00 2.600000000000e-01
          9.999999999981e-03 0.000000000000e+00 2.600000000000e-01
          1.499999999997e-02 0.000000000000e+00 2.600000000000e-01
          1.999999999996e-02 0.000000000000e+00 2.600000000000e-01
          2.499999999995e-02 0.000000000000e+00 2.600000000000e-01
          2.999999999994e-02 0.000000000000e+00 2.600000000000e-01
          3.499999999993e-02 0.000000000000e+00 2.600000000000e-01
          3.999999999992e-02 0.000000000000e+00 2.600000000000e-01
          4.499999999992e-02 0.000000000000e+00 2.600000000000e-01
          4.999999999991e-02 0.000000000000e+00 2.600000000000e-01
          5.499999999990e-02 0.000000000000e+00 2.600000000000e-01
          5.999999999990e-02 0.000000000000e+00 2.600000000000e-01
          6.499999999989e-02 0.000000000000e+00 2.600000000000e-01
          6.999999999988e-02 0.000000000000e+00 2.600000000000e-01
          7.499999999986e-02 0.000000000000e+00 2.600000000000e-01
          7.999999999985e-02 0.000000000000e+00 2.600000000000e-01
          8.499999999983e-02 0.000000000000e+00 2.600000000000e-01
          8.999999999981e-02 0.000000000000e+00 2.600000000000e-01
          9.499999999980e-02 0.000000000000e+00 2.600000000000e-01
          9.999999999979e-02 0.000000000000e+00 2.600000000000e-01
          1.049999999998e-01 0.000000000000e+00 2.600000000000e-01
          1.099999999998e-01 0.000000000000e+00 2.600000000000e-01
          1.149999999997e-01 0.000000000000e+00 2.600000000000e-01
          1.199999999997e-01 0.000000000000e+00 2.600000000000e-01
          1.249999999997e-01 0.000000000000e+00 2.600000000000e-01
          1.299999999997e-01 0.000000000000e+00 2.600000000000e-01
          1.349999999997e-01 0.000000000000e+00 2.600000000000e-01
          1.399999999997e-01 0.000000000000e+00 2.600000000000e-01
          1.449999999997e-01 0.000000000000e+00 2.600000000000e-01
          1.499999999996e-01 0.000000000000e+00 2.600000000000e-01
          1.549999999996e-01 0.000000000000e+00 2.600000000000e-01
          1.599999999996e-01 0.000000000000e+00 2.600000000000e-01
          1.649999999996e-01 0.000000000000e+00 2.600000000000e-01
          1.699999999996e-01 0.000000000000e+00 2.600000000000e-01
          1.749999999996e-01 0.000000000000e+00 2.600000000000e-01
          1.799999999995e-01 0.000000000000e+00 2.600000000000e-01
          1.849999999995e-01 0.000000000000e+00 2.600000000000e-01
          1.899999999995e-01 0.000000000000e+00 2.600000000000e-01
          1.949999999995e-01 0.000000000000e+00 2.600000000000e-01
          1.999999999995e-01 0.000000000000e+00 2.600000000000e-01
          2.049999999995e-01 0.000000000000e+00 2.600000000000e-01
          2.099999999995e-01 0.000000000000e+00 2.600000000000e-01
          2.149999999994e-01 0.000000000000e+00 2.600000000000e-01
          2.199999999994e-01 0.000000000000e+00 2.600000000000e-01
          2.249999999994e-01 0.000000000000e+00 2.600000000000e-01
          2.299999999994e-01 0.000000000000e+00 2.600000000000e-01
          2.349999999994e-01 0.000000000000e+00 2.600000000000e-01
          2.399999999994e-01 0.000000000000e+00 2.600000000000e-01
          2.449999999993e-01 0.000000000000e+00 2.600000000000e-01
          2.499999999993e-01 0.000000000000e+00 2.600000000000e-01
          2.549999999993e-01 0.000000000000e+00 2.600000000000e-01
          2.599999999993e-01 0.000000000000e+00 2.600000000000e-01
          2.649999999993e-01 0.000000000000e+00 2.600000000000e-01
          2.699999999993e-01 0.000000000000e+00 2.600000000000e-01
          2.749999999993e-01 0.000000000000e+00 2.600000000000e-01
          2.799999999993e-01 0.000000000000e+00 2.600000000000e-01
          2.849999999993e-01 0.000000000000e+00 2.600000000000e-01
          2.899999999993e-01 0.000000000000e+00 2.600000000000e-01
          2.949999999993e-01 0.000000000000e+00 2.600000000000e-01
          2.999999999994e-01 0.000000000000e+00 2.600000000000e-01
          3.049999999994e-01 0.000000000000e+00 2.600000000000e-01
          3.099999999994e-01 0.000000000000e+00 2.600000000000e-01
          3.149999999994e-01 0.000000000000e+00 2.600000000000e-01
          3.199999999994e-01 0.000000000000e+00 2.600000000000e-01
          3.249999999994e-01 0.000000000000e+00 2.600000000000e-01
          3.299999999994e-01 0.000000000000e+00 2.600000000000e-01
          3.349999999995e-01 0.000000000000e+00 2.600000000000e-01
          3.399999999995e-01 0.000000000000e+00 2.600000000000e-01
          3.449999999995e-01 0.000000000000e+00 2.600000000000e-01
          3.499999999995e-01 0.000000000000e+00 2.600000000000e-01
          3.549999999995e-01 0.000000000000e+00 2.600000000000e-01
          3.599999999995e-01 0.000000000000e+00 2.600000000000e-01
          3.649999999996e-01 0.000000000000e+00 2.600000000000e-01
          3.699999999996e-01 0.000000000000e+00 2.600000000000e-01
          3.749999999996e-01 0.000000000000e+00 2.600000000000e-01
          3.799999999996e-01 0.000000000000e+00 2.600000000000e-01
          3.849999999996e-01 0.000000000000e+00 2.600000000000e-01
          3.899999999996e-01 0.000000000000e+00 2.600000000000e-01
          3.949999999996e-01 0.000000000000e+00 2.600000000000e-01
          3.999999999996e-01 0.000000000000e+00 2.600000000000e-01
          4.049999999996e-01 0.000000000000e+00 2.600000000000e-01
          4.099999999996e-01 0.000000000000e+00 2.600000000000e-01
          4.149999999997e-01 0.000000000000e+00 2.600000000000e-01
          4.199999999997e-01 0.000000000000e+00 2.600000000000e-01
          4.249999999997e-01 0.000000000000e+00 2.600000000000e-01
          4.299999999997e-01 0.000000000000e+00 2.600000000000e-01
          4.349999999997e-01 0.000000000000e+00 2.600000000000e-01
          4.399999999997e-01 0.000000000000e+00 2.600000000000e-01
          4.449999999997e-01 0.000000000000e+00 2.600000000000e-01
[...]
      <PointData Scalars="PRESSURE1">
        <DataArray type="Float64" Name="PRESSURE1" format="ascii">
          2.566590300000e+03 -5.032530000000e+01 5.395500000000e+01 2.604555000000e+03 2.516265000000e+03 2.465939700000e+03 2.415614400000e+03 2.365289100000e+03 2.314963800000e+03 2.264638500001e+03 2.214313200001e+03 2.163987900001e+03 2.113662600001e+03 2.063337300001e+03 2.013012000001e+03 1.962686700001e+03 1.912361400001e+03 1.862036100002e+03 1.811710800002e+03 1.761385500002e+03 1.711060200002e+03 1.660734900002e+03 1.610409600002e+03 1.560084300003e+03 1.509759000003e+03 1.459433700003e+03 1.409108400003e+03 1.358783100003e+03 1.308457800003e+03 1.258132500003e+03 1.207807200003e+03 1.157481900003e+03 1.107156600003e+03 1.056831300003e+03 1.006506000003e+03 9.561807000026e+02 9.058554000024e+02 8.555301000022e+02 8.052048000022e+02 7.548795000020e+02 7.045542000019e+02 6.542289000018e+02 6.039036000017e+02 5.535783000015e+02 5.032530000014e+02 4.529277000013e+02 4.026024000011e+02 3.522771000010e+02 3.019518000009e+02 2.516265000007e+02 2.013012000006e+02 1.509759000005e+02 1.006506000004e+02 5.032530000026e+01 1.810262739710e-10 -4.587434689654e+01 -4.268367710698e+01 -3.994398753110e+01 -3.749736269085e+01 -3.525380158353e+01 -3.317265711123e+01 -3.122423287413e+01 -2.938976030101e+01 -2.764015373582e+01 -2.597685286745e+01 -2.438788986495e+01 -2.286372541926e+01 -2.139821885488e+01 -1.998522029548e+01 -1.861666143947e+01 -1.729487001275e+01 -1.601497079470e+01 -1.476951048375e+01 -1.355972628255e+01 -1.238273597047e+01 -1.123448558169e+01 -1.011353915886e+01 -9.017978797291e+00 -7.945447865544e+00 -6.895375727162e+00 -5.866436600098e+00 -4.858247281563e+00 -3.867799809612e+00 -2.895163759090e+00 -1.938490403786e+00 -9.966191444057e-01 -7.026085522685e-02 8.420132276713e-01 1.741377142512e+00 2.628811690934e+00 3.504717825646e+00 4.369035972166e+00 5.223755467660e+00 6.067642153218e+00 6.902281749195e+00 7.728598584484e+00 8.546487893796e+00 9.356076643590e+00 1.015827356910e+01 1.095301370194e+01 1.174153455187e+01 1.252360504182e+01 1.329929731058e+01 1.406946497426e+01 1.483439328876e+01 1.559366872356e+01 1.634841395175e+01 1.709829198032e+01 1.784392585478e+01 1.858534248050e+01 1.932281956167e+01 2.005674218948e+01 2.078712228958e+01 2.151409837653e+01 2.223801894704e+01 2.295887828967e+01 2.367692566719e+01 2.439247331148e+01 2.510530153830e+01 2.581580707984e+01 2.652424624322e+01 2.723058187438e+01 2.793475687350e+01 2.863708939959e+01 2.933774394503e+01 3.003657438042e+01 3.073395502101e+01 3.142981356654e+01 3.212428167562e+01 3.281742562280e+01 3.350933927617e+01 3.420007019097e+01 3.488972838307e+01 3.557837100744e+01 3.626606518426e+01 3.695277043534e+01 3.763869791804e+01 3.832376666439e+01 3.900820278638e+01 3.969184779540e+01 4.037488257770e+01 4.105730483987e+01 4.173917220014e+01 4.242050262197e+01 4.310132508899e+01 4.378172630596e+01 4.446170919654e+01 4.514131339599e+01 4.582056939559e+01 4.649949764826e+01 4.717816601661e+01 4.785655480328e+01 4.853473064817e+01 4.921269154604e+01 4.989047894319e+01 5.056812655690e+01 5.124565000662e+01 5.192307092388e+01 5.260042062867e+01 5.327772431931e+01 1.030050000000e+02 1.520549999998e+02 2.011049999998e+02 2.501549999997e+02 2.992049999996e+02 3.482549999995e+02 3.973049999995e+02 4.463549999993e+02 4.954049999991e+02 5.444549999990e+02 5.935049999989e+02 6.425549999988e+02 6.916049999986e+02 7.406549999985e+02 7.897049999983e+02 8.387549999981e+02 8.878049999980e+02 9.368549999979e+02 9.859049999978e+02 1.034954999998e+03 1.084004999998e+03 1.133054999997e+03 1.182104999997e+03 1.231154999997e+03 1.280204999997e+03 1.329254999997e+03 1.378304999997e+03 1.427354999997e+03 1.476404999997e+03 1.525454999997e+03 1.574504999997e+03 1.623554999998e+03 1.672604999998e+03 1.721654999998e+03 1.770704999998e+03 1.819754999998e+03 1.868804999998e+03 1.917854999998e+03 1.966904999998e+03 2.015954999999e+03 2.065004999999e+03 2.114054999999e+03 2.163104999999e+03 2.212154999999e+03 2.261204999999e+03 2.310254999999e+03 2.359304999999e+03 2.408354999999e+03 2.457405000000e+03 2.506455000000e+03 2.555505000000e+03 2.603891208100e+03 2.603227441927e+03 2.602563727139e+03 2.601900086604e+03 2.601236548455e+03 2.600573133468e+03 2.599909872974e+03 2.599246786784e+03 2.598583914722e+03 2.597921283554e+03 2.597258919295e+03 2.596596843133e+03 2.595935089991e+03 2.595273720386e+03 2.594612719859e+03 2.593952161976e+03 2.593292059378e+03 2.592632488830e+03 2.591973477774e+03 2.591315039678e+03 2.590657201551e+03 2.590000090783e+03 2.589343730840e+03 2.588688114664e+03 2.588033433669e+03 2.587379575759e+03 2.586726793503e+03 2.586074888095e+03 2.585424231686e+03 2.584774707034e+03 2.584126497693e+03 2.583479623204e+03 2.582834251057e+03 2.582190426054e+03 2.581548164812e+03 2.580907705438e+03 2.580269326014e+03 2.579632886828e+03 2.578998577305e+03 2.578366521067e+03 2.577737146995e+03 2.577110388529e+03 2.576486290350e+03 2.575865587098e+03 2.575248177131e+03 2.574633890961e+03 2.574023624048e+03 2.573417344894e+03 2.572815532828e+03 2.572218147538e+03 2.571626559076e+03 2.571039889226e+03 2.570459483541e+03 2.569885419634e+03 2.569318587603e+03 2.568759519298e+03 2.568208491980e+03 2.567667017376e+03 2.567136083055e+03 2.566615867543e+03 2.566108808667e+03 2.565616624626e+03 2.565141474532e+03 2.564685857040e+03 2.564254392600e+03 2.563852036934e+03 2.563492992406e+03 2.563199143078e+03 2.563006649328e+03 2.563004144042e+03 2.563127058178e+03 2.563305890218e+03 2.563488287165e+03 2.563683821816e+03 2.563858263541e+03 2.564026445260e+03 2.564184753291e+03 2.564332889670e+03 2.564470848546e+03 2.564596274644e+03 2.564712892190e+03 2.564822275717e+03 2.564926173073e+03 2.565024704327e+03 2.565118968333e+03 2.565209475323e+03 2.565296464369e+03 2.565380103923e+03 2.565461045352e+03 2.565539202221e+03 2.565615049869e+03 2.565688642294e+03 2.565760433238e+03 2.565830444856e+03 2.565898814215e+03 2.565965960458e+03 2.566031735173e+03 2.566096524294e+03 2.566160241145e+03 2.566223181637e+03 2.566285447120e+03 2.566347100624e+03 2.566408303503e+03 2.566469159088e+03 2.566529784637e+03 8.401481838936e+02 8.090581789195e+02 1.779663268980e+03 2.194044546063e+03 4.347789285945e+02 2.227865750011e+03 3.612633176877e+02 6.322944849107e+02 1.304034293106e+03 2.331368758303e+03 2.552074067610e+02 5.166544923708e+02 2.000151471001e+03 5.730373685764e+02 1.931662143028e+03 2.322599974532e+03 2.596368193614e+02 6.381861070946e+02 2.343178776397e+03 2.681279549789e+02 8.082101536800e+02 6.187865803819e+02 1.940493994885e+03 2.176451230832e+03 3.837658740388e+02 1.985849628146e+03 5.799208583310e+02 6.476644692086e+02 2.004535367954e+03 1.800308335812e+03 4.858080759725e+02 8.209533582827e+02 1.739453941036e+03 1.811987973681e+03 3.142700389730e+02 8.536920889061e+02 1.982132620666e+03 2.332138163914e+03 5.157870229297e+02 1.982493399458e+03 6.327299995267e+02 7.067389297521e+02 1.852651691509e+03 2.001795522294e+03 2.099925892339e+03 2.098890890987e+03 2.995099071121e+02 2.801812285367e+02 2.066158628194e+03 2.121016289927e+03 2.137259843145e+03 4.543397307458e+02 5.028994967048e+02 2.181242231638e+03 2.121858263311e+03 3.638609943627e+02 4.026561841462e+02 2.203378947234e+03 3.206050406778e+02 2.340062695925e+03 4.569107028762e+02 2.270040410827e+03 1.731251659053e+02 2.214484413499e+03 2.349724380610e+03 2.418321886112e+03 3.027052730951e+02 2.306798512410e+03 2.988296226263e+02 2.013429122435e+02 2.447736543646e+03 2.251866868549e+02 2.431098823004e+03 2.472584151684e+03 2.535733145070e+02 2.485746084336e+03 1.195712367113e+02 2.413483636703e+03 2.456697208570e+03 2.011681402953e+02 2.464497560172e+03 2.493717215588e+03 2.522094531036e+03 2.489008811115e+03 1.269707853999e+02 7.963193821967e+02 1.758908265525e+03 7.959299113804e+02 1.366599478438e+03 4.865950348882e+02 2.107550099404e+03 2.099864571740e+03 3.909430894048e+02 4.726540213039e+02 2.935766014488e+02 2.290065082246e+03 9.584733018366e+02 1.768318119875e+03 1.954704445760e+03 2.330376009874e+03 1.578890605674e+03 9.751384850918e+02 3.179708134318e+02 1.640664218971e+03 2.414970746700e+03 1.601546467489e+03 4.644628292403e+02 2.118527245905e+03 1.429809420086e+02 9.851001726859e+02 1.662612787280e+03 9.321939911418e+02 3.976306006833e+02 1.156664058312e+03 2.160946126239e+03 3.604796450020e+02 1.515280829994e+02 9.302194534328e+02 1.692586630390e+03 2.028155786571e+03 5.796177046875e+02 2.791753411334e+02 2.411783120149e+03 1.732033529813e+02 2.230936105472e+03 1.460975773336e+03 1.082646396872e+03 2.129948958932e+02 2.414650026671e+03 2.238427299727e+03 2.343101357535e+03 3.286528513825e+02 2.371144291673e+03 3.340944049055e+02 2.292174708121e+03 2.369775351207e+03 2.167571283815e+03 2.385937331343e+03 2.226565947445e+03 2.371558115699e+03 1.350627234976e+03 2.184889565940e+03 4.152269734513e+02 1.710793885397e+02 2.430947754904e+03 7.922426574641e+01 2.482249795138e+03 1.893358925392e+03 7.411001143493e+02 2.071789770137e+03 7.612076613649e+02 1.666443036228e+03 2.379962003499e+03 2.443373979423e+03 2.158970442468e+02 1.923224420262e+02 9.602071735519e+01 7.193359288693e+02 2.580265173461e+02 2.336199595741e+03 1.214485789029e+02 9.697387889586e+02 1.227311264254e+03 2.262819354716e+03 6.196489210689e+02 1.105560498729e+03 6.522033443664e+02 2.620669592058e+02 2.397968997268e+03 1.996193832155e+03 6.388771900110e+02 2.646129645207e+02 1.351617040589e+02 1.837957729253e+02 2.329091404885e+03 2.005562677788e+03 1.596372925198e+03 1.974297532997e+03 5.058840972306e+02 2.078484816177e+03 1.708442516815e+03 1.834919044615e+02 5.292803857398e+02 2.082477187094e+03 2.233152688011e+03 3.642834579229e+02 2.105628381458e+03 2.155819061421e+03 2.361113704052e+03 1.031341259299e+03 2.463456946605e+03 6.955623839817e+02 1.781610778548e+03 1.237613492943e+02 1.305624172242e+02 7.870574009144e+02 2.094433316639e+03 1.343196309785e+02 1.392803496400e+02 1.893827477893e+03 2.202227100065e+03 9.455327723515e+02 5.692782474904e+02 1.823018589475e+02 4.310171546966e+02 2.346678241672e+02 7.778650877385e+02 1.081919380625e+02 5.925144291947e+02 2.472999773583e+03 1.737625803384e+03 2.137873910744e+03 3.192263662073e+02 7.672920379806e+02 2.405837621735e+03 1.531180073956e+02 5.597367497802e+02 7.343487294771e+02 2.135084367522e+03 4.776846549512e+02 2.220541139591e+03 5.595060493534e+02 2.509862539504e+03 4.120740512483e+02 1.389374890578e+02 2.460657422053e+03 4.766523279185e+02 3.563971888050e+02 2.448373051328e+03 1.331662046883e+02 2.454980932158e+03 2.226556180073e+03 2.976949331126e+02 2.446590743871e+03 3.246103559922e+02 2.901541401966e+02 1.313859954210e+02 2.454872330521e+03 4.944647845969e+02 5.223349182243e+02 1.854018975875e+03 5.109419577798e+02 2.475496013558e+03 4.991881508910e+02 6.110114884268e+02 5.646324608551e+02 1.633074213536e+02 6.280462175327e+02 1.905717788818e+03 3.154373550745e+02 2.270612495330e+03 3.745971601695e+02 1.121939608942e+02 2.478148136103e+03 2.043499891874e+03 2.334260265711e+03 2.405705878172e+02 4.518947523449e+02 3.384847064747e+02 1.894820587679e+03 3.922451256322e+02 2.494979892818e+03 8.043777214906e+02 2.426117639846e+03 1.151720047862e+02 2.473495295265e+03 2.324357112601e+03 7.357911617529e+01 5.438132209264e+02 1.952271887532e+03 2.515254266578e+03 2.256183436958e+03 2.331013344252e+03 1.391280517873e+02 2.415677215665e+03 2.583147601313e+02 2.283544426948e+03 3.162408398626e+02 7.332390173707e+02 1.919883329405e+03 1.727520589839e+02 6.753453846845e+02 3.733995080681e+02 1.180780847164e+02 2.385210360037e+03 2.171523153306e+02 2.277584577835e+03 1.884421445959e+03 2.432917897811e+02 1.806961706154e+03 1.235251086652e+02 2.341548437534e+03 2.456437206565e+03 4.466841713934e+01 2.345762250667e+03 2.089791058798e+02 3.159940951102e+02 2.272139504266e+03 2.513506517772e+03 2.810000654110e+02 2.228337417237e+03 2.348943177448e+02 2.385902519446e+03 9.120641800995e+01 2.402149416876e+03 2.527429291835e+03 2.102632302266e+03 2.345800449046e+03 2.490780239845e+03 5.226321591249e+02 2.319626965758e+03 2.063211963140e+02 2.523888122499e+03 1.666930851295e+02 2.414754761199e+03 2.149554391328e+02 6.615283811858e+02 1.284034579854e+02 2.525129112777e+03 2.228628543651e+03 4.757284824094e+02 1.549311273670e+02 2.507707627048e+02 2.439458716458e+03 6.695322596362e+02 2.522297911497e+03 6.123580591989e+02 1.976871660877e+03 2.288853179384e+03 2.400970469250e+03 2.290205149425e+03 2.421845347464e+02 3.006321456693e+02 4.477948441024e+02 2.257903057336e+03 8.528731149141e+01 2.122484431226e+02 8.231628324053e+01 2.016326673476e+02 2.189071007762e+03 2.426743639201e+03 2.444666720181e+03 2.523177425061e+03 2.438930043292e+03 2.383909430149e+02 3.551867953063e+02 1.249558286944e+02 6.324326728654e+02 5.399585597567e+02 6.607271119182e+02 6.802691786323e+02 4.558657553507e+02 1.937826220009e+03 1.658163994611e+02 1.095429855205e+02 2.382946255401e+03 2.026582615310e+03 2.486441869803e+03 1.465108884060e+02 2.185486127817e+03 1.766259472377e+03 1.906726367672e+03 8.278255566512e+02 1.769069595891e+03 1.547325398494e+03 1.337813955130e+03 1.221191517332e+03 1.081115362761e+03 1.231093776221e+03 1.936589886351e+03 1.729710456218e+03 5.880409261522e+02 1.101004088317e+03 5.922373958264e+02 1.331100394956e+03 1.235646052627e+03 1.371998438115e+03 1.427474526925e+03 7.876546720461e+02 1.446547388658e+03 7.611051238601e+02 1.344514112688e+03 1.611724191546e+03 1.005009836644e+03 1.074736058533e+03 1.911375694280e+03 1.000586979817e+03 1.146559894895e+03 9.101020301549e+02 1.948666886021e+03 1.889660107990e+03 1.543559375812e+03 8.891847667236e+02 1.893271316134e+03 1.952257220726e+03 1.396484391628e+03 1.444285824057e+03 1.568155433090e+03 1.007940996871e+03 1.972682843004e+03 1.563271228189e+03 1.147307957087e+03 6.472957849390e+02 6.187835015495e+02 2.219385562636e+02 9.215372124724e+02 1.350340462265e+03 1.587482617509e+03 1.633111555007e+03 1.556276828958e+03 1.195145820771e+03 2.361206580678e+03 1.873807666716e+03 1.566884860021e+02 1.118533650274e+03 1.830260947481e+03 1.424493181679e+03 1.650208064472e+03 2.434567845496e+02 1.708440872235e+03 2.269139360017e+02 2.377372854856e+03 1.180034950244e+03 7.050651437956e+02 1.661210009873e+03 2.141301828742e+03 8.941473066792e+02 4.463341799215e+02 1.940580825956e+03 6.496359337860e+02 2.139586995285e+03 1.767089976128e+03 9.338671035395e+02 2.437136176901e+03 1.720983784653e+02 1.197055325096e+03 3.626007613755e+02 1.531338151221e+03 2.175321673661e+03 2.431810198605e+03 2.413223073171e+03 6.543278503168e+02 2.319055471313e+03 2.059200519147e+03 5.452037332049e+02 1.825091979846e+03 1.078147822501e+03 6.126765200064e+02 1.615853282140e+02 1.990936837164e+03 1.414254776351e+02 5.256589432631e+02 2.445434090577e+03 1.401369600941e+02 3.091292055140e+02 9.503639754331e+02 2.290962287775e+03 1.777688859268e+03 1.068427165488e+03 1.939064268726e+03 8.024585780990e+02 4.613068032986e+02 7.951087605911e+02 7.405514565058e+02 7.342796755888e+02 1.135564465952e+02 2.200097403850e+03 2.307549035884e+02 4.468310064202e+02 6.054854279633e+02 6.845502715499e+02 5.467070813885e+02 1.714627590196e+02 2.334023914384e+03 9.289827971411e+02 8.824077748276e+02 2.010477101738e+02 2.061120439032e+03 2.394863030445e+03 1.976951544588e+03 5.374370421954e+02 2.001085388955e+03 2.225126906956e+03 1.561909986729e+03 9.989682545041e+02 2.102902515519e+03 2.445029958385e+03 2.040457743126e+02 2.170783795649e+03 2.125917030359e+02 1.372536874685e+03 8.249426902104e+02 6.172187350643e+02 2.094351846402e+03 4.341472557305e+02 2.129421688071e+03 2.050538294355e+03 3.172659902947e+02 7.175275949165e+01 2.449791184044e+02 1.895051193332e+03 2.214241217836e+03 4.597890462084e+02 4.455122681149e+02 2.122507266849e+03 3.679037836720e+02 1.355621435342e+03 4.207043300014e+02 1.752401669072e+03 1.008550838794e+03 4.400306705145e+02 1.198754685626e+03 2.265197404381e+03 2.670321203999e+02 4.908537910832e+02 1.893501025059e+03 1.381081228402e+02 2.127545946855e+03 2.155934587643e+03 1.056561723406e+02 2.260863344381e+03 2.079502488025e+03 2.470976009810e+03 6.832947901038e+02 2.263667483194e+03 1.854552230860e+03 2.266691773485e+03 2.278019718539e+03 2.240569414526e+03 2.279930318577e+03 2.276457872761e+03 1.640668321640e+03 2.150027485582e+03 2.065730869935e+03 1.950436387999e+03 2.116632209179e+03 2.564067242813e+02 4.220194186462e+02 3.365382613478e+02 3.814632941766e+02 8.322141867450e+02 1.720355285238e+03 5.294186965478e+02 3.477882211045e+02 2.424072508674e+03 2.356918900679e+03 2.184262629647e+02 1.552930994865e+02 2.318991892785e+03 1.695774532347e+03 4.614006483514e+02 1.704752412129e+03 2.876824470537e+02 1.729418818855e+03 3.634257108278e+02 4.201297067534e+02 2.062669832328e+03 2.761918989842e+02 6.950050591218e+02 2.333609153887e+02 6.553255353902e+02 1.954099746787e+03 2.136192574466e+02 2.096991821220e+03 7.056944069997e+02 1.878403611529e+03 2.485771579379e+03 8.285979912035e+02 4.757274196578e+02 2.332918239597e+03 6.031956521702e+02 2.385717443753e+03 1.972541038851e+03 2.547102310475e+02 3.308976454236e+02 1.747803136615e+02 2.304408517131e+03 1.988775729775e+03 2.511236299197e+02 2.215717310479e+03 9.478511692852e+02 1.775912134121e+03 1.851313603655e+03 4.125852953937e+02 2.009545355683e+03 2.926125992962e+02 1.861307817384e+03 2.266499543619e+03 4.670511297330e+02 6.075218325096e+02 7.808484384258e+02 8.265465419281e+01 2.756034306822e+02 1.909587430477e+03 1.861849750126e+03 9.360000314145e+01 2.444057850679e+03 2.347090463877e+03 1.807208511349e+03 6.818719824722e+01 2.629630306938e+02 1.621190906735e+02 2.428798432757e+03 2.184464525397e+03 2.456330460837e+03 2.185061895540e+03 1.118741705424e+03 4.701683513992e+02 2.007069529241e+03 9.859752776844e+01 2.358431928263e+02 2.258813365860e+03 7.205385922332e+02 6.914868426045e+02 2.347802272897e+03 1.299308401834e+03 1.718758698445e+03 9.751186063988e+01 1.802553594594e+03 2.291645521261e+03 2.391715776723e+03 3.016827575487e+02 1.910230055350e+02 3.514716976742e+02 1.883744817321e+02 3.900422994845e+02 7.033568328597e+02 1.930136753146e+03 4.813841746761e+02 2.511284580560e+03 2.249160090095e+03 2.463478623800e+03 2.601094611111e+02 2.037897462102e+03 4.134915958601e+02 1.583225940050e+03 2.497053094995e+03 2.375390279771e+03 2.372409073404e+03 6.548007259894e+02 2.054658855762e+02 1.009125840856e+02 2.126210127001e+02 5.474551787343e+02 2.071991250243e+03 2.114903135374e+03 2.086047180934e+03 2.193195686104e+03 2.128625359718e+03 2.353693676006e+03 2.056415577213e+03 2.265464394970e+03 1.182095933892e+03 7.781959477593e+02 3.329695852218e+02 1.984372728717e+03 2.185275772945e+03 2.402773588135e+03 9.453006817431e+02 2.286534977052e+03 3.309213802211e+02 1.865326215628e+03 7.257739308023e+02 1.576068549413e+03 1.819794771875e+02 2.269067986696e+03 2.246666510259e+03 1.846725249428e+03 2.862235094230e+02 2.180780006359e+03 2.517612743427e+03 1.725837241843e+03 2.038886453818e+03 2.044683347170e+03 2.374597397638e+03 2.510618750789e+03 2.098447241066e+03 2.190603882050e+02 2.137457166272e+03 2.242018867521e+03 7.590588932196e+02 8.704172936490e+02 7.840956429563e+01 3.940104737470e+02 6.912639479876e+02 5.194082587978e+02 1.723404908580e+03 1.486714926399e+03 3.376454703795e+02 1.969688486983e+03 2.495526678969e+03 5.916216459687e+02 2.171985277429e+03 1.804785736206e+03 3.209661143201e+02 4.276209059811e+02 4.555672804860e+02 2.410279228896e+03 6.385312688754e+01 2.383134164149e+03 2.168358950830e+03 2.424030060523e+03 3.171048827956e+02 2.391153372185e+03 2.099808244428e+03 6.758129244237e+02 2.014607908644e+03 5.934899803181e+02 2.220889549478e+03 7.006480795132e+02 3.911890969333e+02 8.694477279045e+02 4.045633377748e+02 2.068534943949e+03 2.374004906143e+03 6.055531929499e+02 3.350393154493e+02 2.305378618761e+02 2.163276615869e+03 2.077163590302e+03 4.040951920578e+02 1.837073798723e+02 1.935378230142e+03 2.016966403659e+03 1.678620506041e+03 4.699297408557e+02 2.380752823646e+03 1.697568694967e+03 2.247700848972e+