<?xml version="1.0"?>
<!-- Time step: 40 | Time: 9.000000000000e+03 -->
<VTKFile type="UnstructuredGrid" version="0.1" byte_order="LittleEndian">
  <UnstructuredGrid>
    <Piece NumberOfPoints="6824" NumberOfCells="13330">
      <Points>
        <DataArray type="Float64" NumberOfComponents="3" format="ascii">
          0.000000000000e+00 0.000000000000e+00 0.000000000000e+00
          0.000000000000e+00 0.000000000000e+00 2.600000000000e-01
          5.300000000000e-01 0.000000000000e+00 2.600000000000e-01
          5.300000000000e-01 0.000000000000e+00 0.000000000000e+00
          0.000000000000e+00 0.000000000000e+00 4.999999999991e-03
          0.000000000000e+00 0.000000000000e+00 9.999999999982e-03
          0.000000000000e+00 0.000000000000e+00 1.499999999997e-02
          0.000000000000e+00 0.000000000000e+00 1.999999999996e-02
          0.000000000000e+00 0.000000000000e+00 2.499999999996e-02
          0.000000000000e+00 0.000000000000e+00 2.999999999995e-02
          0.000000000000e+00 0.000000000000e+00 3.499999999994e-02
          0.000000000000e+00 0.000000000000e+00 3.999999999992e-02
          0.000000000000e+00 0.000000000000e+00 4.499999999991e-02
          0.000000000000e+00 0.000000000000e+00 4.999999999990e-02
          0.000000000000e+00 0.000000000000e+00 5.499999999988e-02
          0.000000000000e+00 0.000000000000e+00 5.999999999987e-02
          0.000000000000e+00 0.000000000000e+00 6.499999999985e-02
          0.000000000000e+00 0.000000000000e+00 6.999999999983e-02
          0.000000000000e+00 0.000000000000e+00 7.499999999983e-02
          0.000000000000e+00 0.000000000000e+00 7.999999999981e-02
          0.000000000000e+00 0.000000000000e+00 8.499999999979e-02
          0.000000000000e+00 0.000000000000e+00 8.999999999978e-02
          0.000000000000e+00 0.000000000000e+00 9.499999999977e-02
          0.000000000000e+00 0.000000000000e+00 9.999999999975e-02
          0.000000000000e+00 0.000000000000e+00 1.049999999997e-01
          0.000000000000e+00 0.000000000000e+00 1.099999999997e-01
          0.000000000000e+00 0.000000000000e+00 1.149999999997e-01
          0.000000000000e+00 0.000000000000e+00 1.199999999997e-01
          0.000000000000e+00 0.000000000000e+00 1.249999999997e-01
          0.000000000000e+00 0.000000000000e+00 1.299999999997e-01
          0.000000000000e+00 0.000000000000e+00 1.349999999997e-01
          0.000000000000e+00 0.000000000000e+00 1.399999999997e-01
          0.000000000000e+00 0.000000000000e+00 1.449999999997e-01
          0.000000000000e+00 0.000000000000e+00 1.499999999997e-01
          0.000000000000e+00 0.000000000000e+00 1.549999999997e-01
          0.000000000000e+00 0.000000000000e+00 1.599999999997e-01
          0.000000000000e+00 0.000000000000e+00 1.649999999998e-01
          0.000000000000e+00 0.000000000000e+00 1.699999999998e-01
          0.000000000000e+00 0.000000000000e+00 1.749999999998e-01
          0.000000000000e+00 0.000000000000e+00 1.799999999998e-01
          0.000000000000e+00 0.000000000000e+00 1.849999999998e-01
          0.000000000000e+00 0.000000000000e+00 1.899999999998e-01
          0.000000000000e+00 0.000000000000e+00 1.949999999998e-01
          0.000000000000e+00 0.000000000000e+00 1.999999999999e-01
          0.000000000000e+00 0.000000000000e+00 2.049999999999e-01
          0.000000000000e+00 0.000000000000e+00 2.099999999999e-01
          0.000000000000e+00 0.000000000000e+00 2.149999999999e-01
          0.000000000000e+00 0.000000000000e+00 2.199999999999e-01
          0.000000000000e+00 0.000000000000e+00 2.249999999999e-01
          0.000000000000e+00 0.000000000000e+00 2.299999999999e-01
          0.000000000000e+00 0.000000000000e+00 2.349999999999e-01
          0.000000000000e+00 0.000000000000e+00 2.399999999999e-01
          0.000000000000e+00 0.000000000000e+00 2.450000000000e-01
          0.000000000000e+00 0.000000000000e+00 2.500000000000e-01
          0.000000000000e+00 0.000000000000e+00 2.550000000000e-01
          4.999999999991e-03 0.000000000000e+00 2.600000000000e-01
          9.999999999981e-03 0.000000000000e+00 2.600000000000e-01
          1.499999999997e-02 0.000000000000e+00 2.600000000000e-01
          1.999999999996e-02 0.000000000000e+00 2.600000000000e-01
          2.499999999995e-02 0.000000000000e+00 2.600000000000e-01
          2.999999999994e-02 0.000000000000e+00 2.600000000000e-01
          3.499999999993e-02 0.000000000000e+00 2.600000000000e-01
          3.999999999992e-02 0.000000000000e+00 2.600000000000e-01
          4.499999999992e-02 0.000000000000e+00 2.600000000000e-01
          4.999999999991e-02 0.000000000000e+00 2.600000000000e-01
          5.499999999990e-02 0.000000000000e+00 2.600000000000e-01
          5.999999999990e-02 0.000000000000e+00 2.600000000000e-01
          6.499999999989e-02 0.000000000000e+00 2.600000000000e-01
          6.999999999988e-02 0.000000000000e+00 2.600000000000e-01
          7.499999999986e-02 0.000000000000e+00 2.600000000000e-01
          7.999999999985e-02 0.000000000000e+00 2.600000000000e-01
          8.499999999983e-02 0.000000000000e+00 2.600000000000e-01
          8.999999999981e-02 0.000000000000e+00 2.600000000000e-01
          9.499999999980e-02 0.000000000000e+00 2.600000000000e-01
          9.999999999979e-02 0.000000000000e+00 2.600000000000e-01
          1.049999999998e-01 0.000000000000e+00 2.600000000000e-01
          1.099999999998e-01 0.000000000000e+00 2.600000000000e-01
          1.149999999997e-01 0.000000000000e+00 2.600000000000e-01
          1.199999999997e-01 0.000000000000e+00 2.600000000000e-01
          1.249999999997e-01 0.000000000000e+00 2.600000000000e-01
          1.299999999997e-01 0.000000000000e+00 2.600000000000e-01
          1.349999999997e-01 0.000000000000e+00 2.600000000000e-01
          1.399999999997e-01 0.000000000000e+00 2.600000000000e-01
          1.449999999997e-01 0.000000000000e+00 2.600000000000e-01
          1.499999999996e-01 0.000000000000e+00 2.600000000000e-01
          1.549999999996e-01 0.000000000000e+00 2.600000000000e-01
          1.599999999996e-01 0.000000000000e+00 2.600000000000e-01
          1.649999999996e-01 0.000000000000e+00 2.600000000000e-01
          1.699999999996e-01 0.000000000000e+00 2.600000000000e-01
          1.749999999996e-01 0.000000000000e+00 2.600000000000e-01
          1.799999999995e-01 0.000000000000e+00 2.600000000000e-01
          1.849999999995e-01 0.000000000000e+00 2.600000000000e-01
          1.899999999995e-01 0.000000000000e+00 2.600000000000e-01
          1.949999999995e-01 0.000000000000e+00 2.600000000000e-01
          1.999999999995e-01 0.000000000000e+00 2.600000000000e-01
          2.049999999995e-01 0.000000000000e+00 2.600000000000e-01
          2.099999999995e-01 0.000000000000e+00 2.600000000000e-01
          2.149999999994e-01 0.000000000000e+00 2.600000000000e-01
          2.199999999994e-01 0.000000000000e+00 2.600000000000e-01
          2.249999999994e-01 0.000000000000e+00 2.600000000000e-01
          2.299999999994e-01 0.000000000000e+00 2.600000000000e-01
          2.349999999994e-01 0.000000000000e+00 2.600000000000e-01
          2.399999999994e-01 0.000000000000e+00 2.600000000000e-01
          2.449999999993e-01 0.000000000000e+00 2.600000000000e-01
          2.499999999993e-01 0.000000000000e+00 2.600000000000e-01
          2.549999999993e-01 0.000000000000e+00 2.600000000000e-01
          2.599999999993e-01 0.000000000000e+00 2.600000000000e-01
          2.649999999993e-01 0.000000000000e+00 2.600000000000e-01
          2.699999999993e-01 0.000000000000e+00 2.600000000000e-01
          2.749999999993e-01 0.000000000000e+00 2.600000000000e-01
          2.799999999993e-01 0.000000000000e+00 2.600000000000e-01
          2.849999999993e-01 0.000000000000e+00 2.600000000000e-01
          2.899999999993e-01 0.000000000000e+00 2.600000000000e-01
          2.949999999993e-01 0.000000000000e+00 2.600000000000e-01
          2.999999999994e-01 0.000000000000e+00 2.600000000000e-01
          3.049999999994e-01 0.000000000000e+00 2.600000000000e-01
          3.099999999994e-01 0.000000000000e+00 2.600000000000e-01
          3.149999999994e-01 0.000000000000e+00 2.600000000000e-01
          3.199999999994e-01 0.000000000000e+00 2.600000000000e-01
          3.249999999994e-01 0.000000000000e+00 2.600000000000e-01
          3.299999999994e-01 0.000000000000e+00 2.600000000000e-01
          3.349999999995e-01 0.000000000000e+00 2.600000000000e-01
          3.399999999995e-01 0.000000000000e+00 2.600000000000e-01
          3.449999999995e-01 0.000000000000e+00 2.600000000000e-01
          3.499999999995e-01 0.000000000000e+00 2.600000000000e-01
          3.549999999995e-01 0.000000000000e+00 2.600000000000e-01
          3.599999999995e-01 0.000000000000e+00 2.600000000000e-01
          3.649999999996e-01 0.000000000000e+00 2.600000000000e-01
          3.699999999996e-01 0.000000000000e+00 2.600000000000e-01
          3.749999999996e-01 0.000000000000e+00 2.600000000000e-01
          3.799999999996e-01 0.000000000000e+00 2.600000000000e-01
          3.849999999996e-01 0.000000000000e+00 2.600000000000e-01
          3.899999999996e-01 0.000000000000e+00 2.600000000000e-01
          3.949999999996e-01 0.000000000000e+00 2.600000000000e-01
          3.999999999996e-01 0.000000000000e+00 2.600000000000e-01
          4.049999999996e-01 0.000000000000e+00 2.600000000000e-01
          4.099999999996e-01 0.000000000000e+00 2.600000000000e-01
          4.149999999997e-01 0.000000000000e+00 2.600000000000e-01
          4.199999999997e-01 0.000000000000e+00 2.600000000000e-01
          4.249999999997e-01 0.000000000000e+00 2.600000000000e-01
          4.299999999997e-01 0.000000000000e+00 2.600000000000e-01
          4.349999999997e-01 0.000000000000e+00 2.600000000000e-01
          4.399999999997e-01 0.000000000000e+00 2.600000000000e-01
          4.449999999997e-01 0.000000000000e+00 2.600000000000e-01
[...]
      <PointData Scalars="PRESSURE1">
        <DataArray type="Float64" Name="PRESSURE1" format="ascii">
          2.566590300000e+03 -5.032530000000e+01 6.867000000000e+01 2.619270000000e+03 2.516265000000e+03 2.465939700000e+03 2.415614400000e+03 2.365289100000e+03 2.314963800000e+03 2.264638500001e+03 2.214313200001e+03 2.163987900001e+03 2.113662600001e+03 2.063337300001e+03 2.013012000001e+03 1.962686700001e+03 1.912361400001e+03 1.862036100002e+03 1.811710800002e+03 1.761385500002e+03 1.711060200002e+03 1.660734900002e+03 1.610409600002e+03 1.560084300003e+03 1.509759000003e+03 1.459433700003e+03 1.409108400003e+03 1.358783100003e+03 1.308457800003e+03 1.258132500003e+03 1.207807200003e+03 1.157481900003e+03 1.107156600003e+03 1.056831300003e+03 1.006506000003e+03 9.561807000026e+02 9.058554000024e+02 8.555301000022e+02 8.052048000022e+02 7.548795000020e+02 7.045542000019e+02 6.542289000018e+02 6.039036000017e+02 5.535783000015e+02 5.032530000014e+02 4.529277000013e+02 4.026024000011e+02 3.522771000010e+02 3.019518000009e+02 2.516265000007e+02 2.013012000006e+02 1.509759000005e+02 1.006506000004e+02 5.032530000026e+01 1.810262739710e-10 -4.570007890511e+01 -4.234389695253e+01 -3.944139836220e+01 -3.683336069138e+01 -3.442936087132e+01 -3.218890704958e+01 -3.008230840751e+01 -2.809095460205e+01 -2.618574996992e+01 -2.436801795702e+01 -2.262638841640e+01 -2.095035015110e+01 -1.933516773320e+01 -1.777349172436e+01 -1.625744477908e+01 -1.478931459795e+01 -1.336485340383e+01 -1.197579862836e+01 -1.062369647313e+01 -9.305602057162e+00 -8.017241819456e+00 -6.756669369760e+00 -5.522355266383e+00 -4.312221365791e+00 -3.125415623305e+00 -1.960717014606e+00 -8.173817492530e-01 3.075658832989e-01 1.414115150979e+00 2.504210274432e+00 3.579083180183e+00 4.638041939812e+00 5.682587626519e+00 6.713960926552e+00 7.733194093691e+00 8.740730665875e+00 9.736543351558e+00 1.072267491095e+01 1.169791862349e+01 1.266389780141e+01 1.362156759579e+01 1.457085192155e+01 1.551190300185e+01 1.644564942525e+01 1.737205148047e+01 1.829234817665e+01 1.920633639657e+01 2.011410513234e+01 2.101650531575e+01 2.191383389673e+01 2.280570631885e+01 2.369321920262e+01 2.457606408568e+01 2.545485198465e+01 2.632962030633e+01 2.720064422036e+01 2.806829933492e+01 2.893260682422e+01 2.979370567737e+01 3.065193267000e+01 3.150728895097e+01 3.236001521178e+01 3.321040867695e+01 3.405827034763e+01 3.490397415439e+01 3.574776236636e+01 3.658960437512e+01 3.742945087044e+01 3.826759910639e+01 3.910420347213e+01 3.993913243308e+01 4.077273161691e+01 4.160493707130e+01 4.243587116863e+01 4.326559612426e+01 4.409419919598e+01 4.492172507340e+01 4.574827516362e+01 4.657390239030e+01 4.739866869274e+01 4.822253827292e+01 4.904570317992e+01 4.986809086952e+01 5.068990643929e+01 5.151100702587e+01 5.233155661844e+01 5.315155348278e+01 5.397104991666e+01 5.479006243936e+01 5.560861741828e+01 5.642679317065e+01 5.724459250110e+01 5.806205122616e+01 5.887919690581e+01 5.969604803051e+01 6.051266567196e+01 6.132903221198e+01 6.214520755382e+01 6.296118994966e+01 6.377701663274e+01 6.459271788810e+01 6.540830774877e+01 6.622380563297e+01 6.703923964222e+01 6.785463238161e+01 1.177200000000e+02 1.667699999998e+02 2.158199999998e+02 2.648699999997e+02 3.139199999996e+02 3.629699999995e+02 4.120199999995e+02 4.610699999993e+02 5.101199999991e+02 5.591699999990e+02 6.082199999989e+02 6.572699999988e+02 7.063199999986e+02 7.553699999985e+02 8.044199999983e+02 8.534699999981e+02 9.025199999980e+02 9.515699999979e+02 1.000619999998e+03 1.049669999998e+03 1.098719999998e+03 1.147769999997e+03 1.196819999997e+03 1.245869999997e+03 1.294919999997e+03 1.343969999997e+03 1.393019999997e+03 1.442069999997e+03 1.491119999997e+03 1.540169999997e+03 1.589219999997e+03 1.638269999998e+03 1.687319999998e+03 1.736369999998e+03 1.785419999998e+03 1.834469999998e+03 1.883519999998e+03 1.932569999998e+03 1.981619999998e+03 2.030669999999e+03 2.079719999999e+03 2.128769999999e+03 2.177819999999e+03 2.226869999999e+03 2.275919999999e+03 2.324969999999e+03 2.374019999999e+03 2.423069999999e+03 2.472120000000e+03 2.521170000000e+03 2.570220000000e+03 2.618466628909e+03 2.617663280519e+03 2.616859977468e+03 2.616056739925e+03 2.615253592702e+03 2.614450554110e+03 2.613647651762e+03 2.612844903094e+03 2.612042343170e+03 2.611239995524e+03 2.610437883009e+03 2.609636024198e+03 2.608834449727e+03 2.608033212721e+03 2.607232300289e+03 2.606431776949e+03 2.605631653557e+03 2.604831997250e+03 2.604032831782e+03 2.603234168599e+03 2.602436030950e+03 2.601638529889e+03 2.600841685308e+03 2.600045490439e+03 2.599250111406e+03 2.598455449753e+03 2.597661724231e+03 2.596868760914e+03 2.596076881562e+03 2.595285982964e+03 2.594496222148e+03 2.593707613978e+03 2.592920300272e+03 2.592134316812e+03 2.591349674817e+03 2.590566574781e+03 2.589785249675e+03 2.589005575078e+03 2.588227706674e+03 2.587451742438e+03 2.586678036405e+03 2.585906523370e+03 2.585137230966e+03 2.584370758427e+03 2.583607007110e+03 2.582845821154e+03 2.582087914154e+03 2.581333240671e+03 2.580582157822e+03 2.579834601200e+03 2.579091617588e+03 2.578352475452e+03 2.577618164647e+03 2.576888672089e+03 2.576164589658e+03 2.575446217229e+03 2.574733642692e+03 2.574027780252e+03 2.573329142265e+03 2.572637612431e+03 2.571954465074e+03 2.571280324762e+03 2.570615862346e+03 2.569961632048e+03 2.569319002249e+03 2.568688304159e+03 2.568071574750e+03 2.567470757008e+03 2.566886561087e+03 2.566320715708e+03 2.565779322244e+03 2.565261988666e+03 2.564775729119e+03 2.564328995737e+03 2.563938859254e+03 2.563634091329e+03 2.563479381585e+03 2.563512168610e+03 2.563675249665e+03 2.563885808113e+03 2.564081123290e+03 2.564266010843e+03 2.564443526152e+03 2.564602936635e+03 2.564747856154e+03 2.564883555127e+03 2.565008035062e+03 2.565123530671e+03 2.565232598957e+03 2.565335364029e+03 2.565433094359e+03 2.565526154713e+03 2.565615656891e+03 2.565701737704e+03 2.565784768571e+03 2.565865561577e+03 2.565943886507e+03 2.566020462024e+03 2.566095148983e+03 2.566168480491e+03 2.566240640310e+03 2.566311743185e+03 2.566382071649e+03 2.566451805620e+03 2.566521146724e+03 8.508411245311e+02 8.143786812574e+02 1.789368705760e+03 2.198483111524e+03 4.447264862678e+02 2.237433870787e+03 3.666476773365e+02 6.361014435446e+02 1.311473784562e+03 2.335438420812e+03 2.652274762726e+02 5.201675723724e+02 2.011510837070e+03 5.762965139383e+02 1.943524373170e+03 2.325988925007e+03 2.702097937752e+02 6.410345822053e+02 2.344672893858e+03 2.793175315863e+02 8.108461605006e+02 6.213737436586e+02 1.953127899391e+03 2.178107104548e+03 3.957155211219e+02 1.998862805546e+03 5.819939636412e+02 6.604461816468e+02 2.005776393099e+03 1.813594353619e+03 4.982699055281e+02 8.223378509640e+02 1.741177633358e+03 1.825758598052e+03 3.168304911595e+02 8.675328995802e+02 1.982530720763e+03 2.344677767254e+03 5.286587259187e+02 1.982706568891e+03 6.339800426650e+02 7.202448088526e+02 1.852679432559e+03 2.014943632612e+03 2.113044203164e+03 2.098870531691e+03 3.123879817538e+02 2.820862903889e+02 2.079533677100e+03 2.120961201886e+03 2.150875787426e+03 4.558796226591e+02 5.163024899602e+02 2.194573597712e+03 2.121806994326e+03 3.650202470456e+02 4.163951987410e+02 2.217308590060e+03 3.217872505964e+02 2.339995527249e+03 4.709389188967e+02 2.269986519650e+03 1.867113208607e+02 2.214455260146e+03 2.363621006664e+03 2.418259480067e+03 3.165330698453e+02 2.321134100313e+03 3.127880128672e+02 2.021041445196e+02 2.447688315830e+03 2.256227279541e+02 2.445260865047e+03 2.472542829578e+03 2.679345442180e+02 2.499957912535e+03 1.200989559613e+02 2.413468381439e+03 2.471221966767e+03 2.156397913218e+02 2.464482921538e+03 2.508234814678e+03 2.522081596043e+03 2.489002435189e+03 1.415419435664e+02 8.086314705190e+02 1.770611145278e+03 7.993923139431e+02 1.369894098021e+03 4.948580311106e+02 2.113863254596e+03 2.107738216513e+03 3.978308789802e+02 4.803006411306e+02 3.010464034595e+02 2.297255859522e+03 9.607937195523e+02 1.780777328083e+03 1.958450377792e+03 2.340275840973e+03 1.591762704074e+03 9.770905651750e+02 3.230189524719e+02 1.654139802885e+03 2.425138580846e+03 1.607477910586e+03 4.738730687726e+02 2.123635827540e+03 1.479523219679e+02 9.867659738167e+02 1.671308287708e+03 9.383699848407e+02 4.034800091026e+02 1.170131882627e+03 2.169897800965e+03 3.646815877493e+02 1.561541502614e+02 9.314087539204e+02 1.706523234770e+03 2.032171840649e+03 5.910686192705e+02 2.832897890333e+02 2.422418849222e+03 1.769795490619e+02 2.242287002548e+03 1.471375847899e+03 1.087355979134e+03 2.168712926523e+02 2.425605297473e+03 2.250692814010e+03 2.354753697593e+03 3.321872720007e+02 2.382478045000e+03 3.371600924672e+02 2.304179017747e+03 2.369781871342e+03 2.179472700343e+03 2.385750596014e+03 2.237168807533e+03 2.371368264731e+03 1.352340466136e+03 2.188654269827e+03 4.262004820794e+02 1.802181506406e+02 2.436044763286e+03 8.536938055242e+01 2.482069765371e+03 1.903996895120e+03 7.419707838364e+02 2.084663921293e+03 7.653707010186e+02 1.667104890960e+03 2.379818424203e+03 2.456159118127e+03 2.179872333776e+02 2.042276923634e+02 9.936817762420e+01 7.240732653288e+02 2.676919402214e+02 2.340622495180e+03 1.233888457346e+02 9.837570293207e+02 1.241655011579e+03 2.262709741323e+03 6.203339892927e+02 1.106551778089e+03 6.652857045740e+02 2.741993063234e+02 2.411031741202e+03 2.009994687104e+03 6.522374833137e+02 2.771043796545e+02 1.382691317155e+02 1.952253795431e+02 2.328996462418e+03 2.019804481628e+03 1.596428808039e+03 1.974282489066e+03 5.111097975010e+02 2.088307151180e+03 1.722753682930e+03 1.889481036979e+02 5.302247537177e+02 2.086876885277e+03 2.237142692546e+03 3.748113541599e+02 2.105591059146e+03 2.169794395989e+03 2.361034068673e+03 1.045616334132e+03 2.472559353456e+03 6.976029765533e+02 1.795855678148e+03 1.260785006000e+02 1.322906665401e+02 8.002624439965e+02 2.106978502105e+03 1.371432206443e+02 1.509537124736e+02 1.908140864422e+03 2.215256432991e+03 9.461150370431e+02 5.824512479554e+02 1.837603940945e+02 4.315589256525e+02 2.480330170561e+02 7.920364126906e+02 1.205105796251e+02 6.069619493079e+02 2.486292220875e+03 1.737646941914e+03 2.152254363173e+03 3.199540128461e+02 7.690352025541e+02 2.419497232921e+03 1.543020968611e+02 5.738671040897e+02 7.487127877200e+02 2.135066671860e+03 4.920355753316e+02 2.234815931197e+03 5.717066652541e+02 2.523539759465e+03 4.262945228275e+02 1.488099691183e+02 2.464352191639e+03 4.790033332202e+02 3.696048600013e+02 2.462234002418e+03 1.439690581765e+02 2.456086957555e+03 2.229099375561e+03 3.091855277333e+02 2.458883430272e+03 3.389423907819e+02 2.906332123214e+02 1.415440419937e+02 2.457998047881e+03 4.969863667134e+02 5.251422236182e+02 1.866994131306e+03 5.247911327513e+02 2.475394915525e+03 5.009330150907e+02 6.244862104924e+02 5.783110854555e+02 1.771048416412e+02 6.298125317860e+02 1.907149600615e+03 3.257575328302e+02 2.274649076277e+03 3.875776187221e+02 1.233743364245e+02 2.478096262877e+03 2.043467352801e+03 2.337008015319e+03 2.514698446475e+02 4.649824061392e+02 3.520737999658e+02 1.894991325221e+03 4.046424920329e+02 2.507449383760e+03 8.188970908777e+02 2.426042120126e+03 1.256533825008e+02 2.475214223808e+03 2.338802668127e+03 7.497353487245e+01 5.452209758499e+02 1.965680646294e+03 2.529246063812e+03 2.256115199479e+03 2.330997116162e+03 1.532252840896e+02 2.430139863204e+03 2.720585204750e+02 2.283498782646e+03 3.184740508520e+02 7.345502843161e+02 1.933014877444e+03 1.730688568595e+02 6.895649032570e+02 3.749653533856e+02 1.314513499981e+02 2.388700931994e+03 2.274752466364e+02 2.291674768370e+03 1.885319594581e+03 2.440136218606e+02 1.807375129413e+03 1.242933929863e+02 2.355805478080e+03 2.470721209078e+03 4.533575012556e+01 2.345754200651e+03 2.095832688966e+02 3.260294751805e+02 2.276373078424e+03 2.513447701570e+03 2.811511607428e+02 2.242914995139e+03 2.359874282843e+02 2.399944568599e+03 1.047947939146e+02 2.402126834839e+03 2.541718264256e+03 2.102733886720e+03 2.345741880661e+03 2.490759685234e+03 5.352069274000e+02 2.319598029473e+03 2.064744626042e+02 2.523860875503e+03 1.671891230434e+02 2.414714461486e+03 2.293152453104e+02 6.761366263954e+02 1.288217577586e+02 2.539573757037e+03 2.228604476956e+03 4.883383860016e+02 1.555877262334e+02 2.517235558626e+02 2.439451416995e+03 6.832700703019e+02 2.522251362371e+03 6.145941657136e+02 1.989734064997e+03 2.288791907340e+03 2.400939957156e+03 2.304048785310e+03 2.561819060005e+02 3.015894326954e+02 4.614440537529e+02 2.271469564677e+03 8.541853966185e+01 2.268383202085e+02 8.271999108916e+01 2.025753275909e+02 2.189032745252e+03 2.426688787796e+03 2.444645069493e+03 2.537779135251e+03 2.453534609621e+03 2.392361467113e+02 3.691964755642e+02 1.394214974809e+02 6.353970286887e+02 5.433394950525e+02 6.632619602559e+02 6.831721194911e+02 4.596917630262e+02 1.949831073054e+03 1.803184002461e+02 1.098080835595e+02 2.382881403600e+03 2.026644497330e+03 2.501060570297e+03 1.466407134018e+02 2.185439430507e+03 1.774068131949e+03 1.913962460007e+03 8.358316976534e+02 1.775775042482e+03 1.551409082886e+03 1.343146716534e+03 1.225214062694e+03 1.092490709699e+03 1.240821035172e+03 1.944810574693e+03 1.733403429037e+03 5.946623972996e+02 1.109287170543e+03 6.020650374285e+02 1.340033745013e+03 1.241686677052e+03 1.383229869804e+03 1.432134316467e+03 7.992492345099e+02 1.454794957598e+03 7.696734503660e+02 1.347148200896e+03 1.622912104463e+03 1.007853494612e+03 1.081563206583e+03 1.917511507664e+03 1.003989730344e+03 1.157104082866e+03 9.140493980875e+02 1.957475685168e+03 1.893750425191e+03 1.553105770454e+03 8.990948921281e+02 1.898765820294e+03 1.957084624478e+03 1.409540398094e+03 1.457780168027e+03 1.571128481644e+03 1.020104481832e+03 1.982081373603e+03 1.575077657558e+03 1.149914482965e+03 6.576333874363e+02 6.243342001452e+02 2.308051996613e+02 9.344093069290e+02 1.364268693623e+03 1.599873091736e+03 1.636508255161e+03 1.558373810433e+03 1.207861438005e+03 2.366791075790e+03 1.878150571435e+03 1.630241363409e+02 1.120620980972e+03 1.841430957760e+03 1.437050458514e+03 1.655403053428e+03 2.519988038110e+02 1.719059247182e+03 2.349742748920e+02 2.383867363146e+03 1.181775302148e+03 7.161204166075e+02 1.671299524722e+03 2.145941697025e+03 8.985266555671e+02 4.551498640423e+02 1.945043291095e+03 6.615608620306e+02 2.149019287751e+03 1.769909198367e+03 9.389029279869e+02 2.445051467396e+03 1.789346844498e+02 1.210962194386e+03 3.689807409412e+02 1.532675462668e+03 2.181007793320e+03 2.440425669462e+03 2.422747290268e+03 6.649386553674e+02 2.328429064078e+03 2.069825773803e+03 5.492667491857e+02 1.835278500215e+03 1.079669452944e+03 6.169707460524e+02 1.661031553981e+02 2.001162178601e+03 1.450031427565e+02 5.365952522372e+02 2.452734197613e+03 1.474937595166e+02 3.182620081491e+02 9.637223305768e+02 2.296125547291e+03 1.786905431187e+03 1.082429367002e+03 1.948918152026e+03 8.081761138571e+02 4.668148228566e+02 7.973505588592e+02 7.533515999374e+02 7.381170209897e+02 1.179790999540e+02 2.211762417052e+03 2.368164894104e+02 4.509764642965e+02 6.101299480300e+02 6.897609778070e+02 5.585861975039e+02 1.756238609121e+02 2.343012961457e+03 9.426066044972e+02 8.849095923431e+02 2.104502487518e+02 2.068491033626e+03 2.399570487752e+03 1.987930003852e+03 5.446966147772e+02 2.003645369975e+03 2.234396705639e+03 1.575761340250e+03 1.012715665165e+03 2.106306241740e+03 2.454912814073e+03 2.071613561006e+02 2.181011750337e+03 2.159819959157e+02 1.386904434998e+03 8.269679009874e+02 6.221384599174e+02 2.105689140307e+03 4.370866112067e+02 2.140975415632e+03 2.053386439014e+03 3.210422404227e+02 7.579533430029e+01 2.508357587890e+02 1.906636857432e+03 2.226776051957e+03 4.715471066465e+02 4.551726692995e+02 2.134803557008e+03 3.718566484287e+02 1.356198813327e+03 4.321856446698e+02 1.765310067568e+03 1.009606268363e+03 4.432679947016e+02 1.199970757119e+03 2.265458928245e+03 2.726833800051e+02 4.957352610091e+02 1.895804145986e+03 1.429610232393e+02 2.131258317318e+03 2.168708810128e+03 1.096141098686e+02 2.265664221701e+03 2.091573499254e+03 2.482179913105e+03 6.868918271320e+02 2.276444889458e+03 1.868603025976e+03 2.276877457775e+03 2.289593384957e+03 2.251503924299e+03 2.279944469000e+03 2.276851699233e+03 1.640857293797e+03 2.154080225853e+03 2.077517918035e+03 1.964492356841e+03 2.116964147704e+03 2.616444908705e+02 4.247194548599e+02 3.460329052978e+02 3.862906590410e+02 8.457534934894e+02 1.733483929916e+03 5.299931461192e+02 3.533548124557e+02 2.423951750807e+03 2.356753364493e+03 2.211701624012e+02 1.674247696916e+02 2.330072155193e+03 1.708484943930e+03 4.726180040929e+02 1.705956696119e+03 2.931119209034e+02 1.741564746711e+03 3.746790307676e+02 4.236479909854e+02 2.063971330069e+03 2.893124036255e+02 7.075589155280e+02 2.362580662791e+02 6.676334482202e+02 1.956401239208e+03 2.166450401815e+02 2.099986672361e+03 7.187431901573e+02 1.891930068256e+03 2.485624109246e+03 8.296436387899e+02 4.859190065149e+02 2.343671455161e+03 6.156962140954e+02 2.396932707914e+03 1.972533461810e+03 2.569974073409e+02 3.355105647773e+02 1.799714873375e+02 2.317434710262e+03 2.000451181060e+03 2.555389517604e+02 2.225647385983e+03 9.487510442822e+02 1.789898256515e+03 1.852679278221e+03 4.229539193152e+02 2.013437665999e+03 3.045336725807e+02 1.873623095467e+03 2.267288979504e+03 4.777507667618e+02 6.084717147073e+02 7.820809445456e+02 8.783857194670e+01 2.771819112477e+02 1.923391066065e+03 1.861846231308e+03 9.890751216891e+01 2.456505352193e+03 2.357509945103e+03 1.819927204548e+03 7.468947599928e+01 2.642009759690e+02 1.717722311420e+02 2.433034426161e+03 2.196778353144e+03 2.456039536067e+03 2.187357865977e+03 1.133014862275e+03 4.822149812256e+02 2.007044029692e+03 1.033782942963e+02 2.375042370143e+02 2.266360734921e+03 7.210034020836e+02 6.925376565000e+02 2.348621647356e+03 1.313883088596e+03 1.732131651397e+03 1.061956805537e+02 1.802574051110e+03 2.292572207843e+03 2.403825399952e+03 3.088094712851e+02 2.032127519431e+02 3.631941005987e+02 1.902600815753e+02 3.922599045031e+02 7.174322816860e+02 1.930123610267e+03 4.815701921098e+02 2.521420279688e+03 2.260976978452e+03 2.463250059549e+03 2.718263942704e+02 2.051909007439e+03 4.185656212423e+02 1.596509459905e+03 2.501822432691e+03 2.387173927724e+03 2.384369162598e+03 6.581570422062e+02 2.170040704926e+02 1.102025031318e+02 2.255738133662e+02 5.486670734457e+02 2.071982111819e+03 2.127874820048e+03 2.100143923666e+03 2.193133342008e+03 2.142848396063e+03 2.367140905564e+03 2.070326352773e+03 2.268321054136e+03 1.182675496309e+03 7.921211483226e+02 3.451873417414e+02 1.985184810872e+03 2.185558997066e+03 2.404029260212e+03 9.596480010193e+02 2.286417347745e+03 3.337478119049e+02 1.865464886489e+03 7.277166701118e+02 1.590180947920e+03 1.951739819278e+02 2.272749721854e+03 2.246581120006e+03 1.847414738865e+03 2.910673312522e+02 2.180701999781e+03 2.530482660306e+03 1.725958676158e+03 2.038862270666e+03 2.058212705594e+03 2.374496516877e+03 2.521023331442e+03 2.098419383273e+03 2.317750573992e+02 2.150686957616e+03 2.246529583779e+03 7.724944137574e+02 8.722703053875e+02 8.396409517149e+01 3.958735748062e+02 6.927495685530e+02 5.224426544743e+02 1.737021085403e+03 1.501229369454e+03 3.474405080076e+02 1.969673735311e+03 2.506180749727e+03 5.926663867129e+02 2.176378993081e+03 1.818277437782e+03 3.242812298614e+02 4.409372771256e+02 4.572286854773e+02 2.422941735027e+03 6.598160520294e+01 2.396442648746e+03 2.172541494297e+03 2.435605770293e+03 3.281931575989e+02 2.392117669775e+03 2.103805570722e+03 6.775453805295e+02 2.029108155628e+03 5.970370886132e+02 2.224746516939e+03 7.037864285304e+02 3.920441363679e+02 8.835687876526e+02 4.167199427961e+02 2.068877836072e+03 2.386296143457e+03 6.058824080154e+02 3.495396790348e+02 2.355685745307e+02 2.163247096721e+03 2.090836144404e+03 4.175318364570e+02 1.850201813249e+02 1.935367259030e+03 2.017312199554e+03 1.678639006457e+03 4.821976672265e+02 2.381401632490e+03 1.711655206881e+03 2.247592179159e+03 3.