<?xml version="1.0"?>
<!-- Time step: 46 | Time: 9.000000000000e+03 -->
<VTKFile type="UnstructuredGrid" version="0.1" byte_order="LittleEndian">
  <UnstructuredGrid>
    <Piece NumberOfPoints="6824" NumberOfCells="13330">
      <Points>
        <DataArray type="Float64" NumberOfComponents="3" format="ascii">
          0.000000000000e+00 0.000000000000e+00 0.000000000000e+00
          0.000000000000e+00 0.000000000000e+00 2.600000000000e-01
          5.300000000000e-01 0.000000000000e+00 2.600000000000e-01
          5.300000000000e-01 0.000000000000e+00 0.000000000000e+00
          0.000000000000e+00 0.000000000000e+00 4.999999999991e-03
          0.000000000000e+00 0.000000000000e+00 9.999999999982e-03
          0.000000000000e+00 0.000000000000e+00 1.499999999997e-02
          0.000000000000e+00 0.000000000000e+00 1.999999999996e-02
          0.000000000000e+00 0.000000000000e+00 2.499999999996e-02
          0.000000000000e+00 0.000000000000e+00 2.999999999995e-02
          0.000000000000e+00 0.000000000000e+00 3.499999999994e-02
          0.000000000000e+00 0.000000000000e+00 3.999999999992e-02
          0.000000000000e+00 0.000000000000e+00 4.499999999991e-02
          0.000000000000e+00 0.000000000000e+00 4.999999999990e-02
          0.000000000000e+00 0.000000000000e+00 5.499999999988e-02
          0.000000000000e+00 0.000000000000e+00 5.999999999987e-02
          0.000000000000e+00 0.000000000000e+00 6.499999999985e-02
          0.000000000000e+00 0.000000000000e+00 6.999999999983e-02
          0.000000000000e+00 0.000000000000e+00 7.499999999983e-02
          0.000000000000e+00 0.000000000000e+00 7.999999999981e-02
          0.000000000000e+00 0.000000000000e+00 8.499999999979e-02
          0.000000000000e+00 0.000000000000e+00 8.999999999978e-02
          0.000000000000e+00 0.000000000000e+00 9.499999999977e-02
          0.000000000000e+00 0.000000000000e+00 9.999999999975e-02
          0.000000000000e+00 0.000000000000e+00 1.049999999997e-01
          0.000000000000e+00 0.000000000000e+00 1.099999999997e-01
          0.000000000000e+00 0.000000000000e+00 1.149999999997e-01
          0.000000000000e+00 0.000000000000e+00 1.199999999997e-01
          0.000000000000e+00 0.000000000000e+00 1.249999999997e-01
          0.000000000000e+00 0.000000000000e+00 1.299999999997e-01
          0.000000000000e+00 0.000000000000e+00 1.349999999997e-01
          0.000000000000e+00 0.000000000000e+00 1.399999999997e-01
          0.000000000000e+00 0.000000000000e+00 1.449999999997e-01
          0.000000000000e+00 0.000000000000e+00 1.499999999997e-01
          0.000000000000e+00 0.000000000000e+00 1.549999999997e-01
          0.000000000000e+00 0.000000000000e+00 1.599999999997e-01
          0.000000000000e+00 0.000000000000e+00 1.649999999998e-01
          0.000000000000e+00 0.000000000000e+00 1.699999999998e-01
          0.000000000000e+00 0.000000000000e+00 1.749999999998e-01
          0.000000000000e+00 0.000000000000e+00 1.799999999998e-01
          0.000000000000e+00 0.000000000000e+00 1.849999999998e-01
          0.000000000000e+00 0.000000000000e+00 1.899999999998e-01
          0.000000000000e+00 0.000000000000e+00 1.949999999998e-01
          0.000000000000e+00 0.000000000000e+00 1.999999999999e-01
          0.000000000000e+00 0.000000000000e+00 2.049999999999e-01
          0.000000000000e+00 0.000000000000e+00 2.099999999999e-01
          0.000000000000e+00 0.000000000000e+00 2.149999999999e-01
          0.000000000000e+00 0.000000000000e+00 2.199999999999e-01
          0.000000000000e+00 0.000000000000e+00 2.249999999999e-01
          0.000000000000e+00 0.000000000000e+00 2.299999999999e-01
          0.000000000000e+00 0.000000000000e+00 2.349999999999e-01
          0.000000000000e+00 0.000000000000e+00 2.399999999999e-01
          0.000000000000e+00 0.000000000000e+00 2.450000000000e-01
          0.000000000000e+00 0.000000000000e+00 2.500000000000e-01
          0.000000000000e+00 0.000000000000e+00 2.550000000000e-01
          4.999999999991e-03 0.000000000000e+00 2.600000000000e-01
          9.999999999981e-03 0.000000000000e+00 2.600000000000e-01
          1.499999999997e-02 0.000000000000e+00 2.600000000000e-01
          1.999999999996e-02 0.000000000000e+00 2.600000000000e-01
          2.499999999995e-02 0.000000000000e+00 2.600000000000e-01
          2.999999999994e-02 0.000000000000e+00 2.600000000000e-01
          3.499999999993e-02 0.000000000000e+00 2.600000000000e-01
          3.999999999992e-02 0.000000000000e+00 2.600000000000e-01
          4.499999999992e-02 0.000000000000e+00 2.600000000000e-01
          4.999999999991e-02 0.000000000000e+00 2.600000000000e-01
          5.499999999990e-02 0.000000000000e+00 2.600000000000e-01
          5.999999999990e-02 0.000000000000e+00 2.600000000000e-01
          6.499999999989e-02 0.000000000000e+00 2.600000000000e-01
          6.999999999988e-02 0.000000000000e+00 2.600000000000e-01
          7.499999999986e-02 0.000000000000e+00 2.600000000000e-01
          7.999999999985e-02 0.000000000000e+00 2.600000000000e-01
          8.499999999983e-02 0.000000000000e+00 2.600000000000e-01
          8.999999999981e-02 0.000000000000e+00 2.600000000000e-01
          9.499999999980e-02 0.000000000000e+00 2.600000000000e-01
          9.999999999979e-02 0.000000000000e+00 2.600000000000e-01
          1.049999999998e-01 0.000000000000e+00 2.600000000000e-01
          1.099999999998e-01 0.000000000000e+00 2.600000000000e-01
          1.149999999997e-01 0.000000000000e+00 2.600000000000e-01
          1.199999999997e-01 0.000000000000e+00 2.600000000000e-01
          1.249999999997e-01 0.000000000000e+00 2.600000000000e-01
          1.299999999997e-01 0.000000000000e+00 2.600000000000e-01
          1.349999999997e-01 0.000000000000e+00 2.600000000000e-01
          1.399999999997e-01 0.000000000000e+00 2.600000000000e-01
          1.449999999997e-01 0.000000000000e+00 2.600000000000e-01
          1.499999999996e-01 0.000000000000e+00 2.600000000000e-01
          1.549999999996e-01 0.000000000000e+00 2.600000000000e-01
          1.599999999996e-01 0.000000000000e+00 2.600000000000e-01
          1.649999999996e-01 0.000000000000e+00 2.600000000000e-01
          1.699999999996e-01 0.000000000000e+00 2.600000000000e-01
          1.749999999996e-01 0.000000000000e+00 2.600000000000e-01
          1.799999999995e-01 0.000000000000e+00 2.600000000000e-01
          1.849999999995e-01 0.000000000000e+00 2.600000000000e-01
          1.899999999995e-01 0.000000000000e+00 2.600000000000e-01
          1.949999999995e-01 0.000000000000e+00 2.600000000000e-01
          1.999999999995e-01 0.000000000000e+00 2.600000000000e-01
          2.049999999995e-01 0.000000000000e+00 2.600000000000e-01
          2.099999999995e-01 0.000000000000e+00 2.600000000000e-01
          2.149999999994e-01 0.000000000000e+00 2.600000000000e-01
          2.199999999994e-01 0.000000000000e+00 2.600000000000e-01
          2.249999999994e-01 0.000000000000e+00 2.600000000000e-01
          2.299999999994e-01 0.000000000000e+00 2.600000000000e-01
          2.349999999994e-01 0.000000000000e+00 2.600000000000e-01
          2.399999999994e-01 0.000000000000e+00 2.600000000000e-01
          2.449999999993e-01 0.000000000000e+00 2.600000000000e-01
          2.499999999993e-01 0.000000000000e+00 2.600000000000e-01
          2.549999999993e-01 0.000000000000e+00 2.600000000000e-01
          2.599999999993e-01 0.000000000000e+00 2.600000000000e-01
          2.649999999993e-01 0.000000000000e+00 2.600000000000e-01
          2.699999999993e-01 0.000000000000e+00 2.600000000000e-01
          2.749999999993e-01 0.000000000000e+00 2.600000000000e-01
          2.799999999993e-01 0.000000000000e+00 2.600000000000e-01
          2.849999999993e-01 0.000000000000e+00 2.600000000000e-01
          2.899999999993e-01 0.000000000000e+00 2.600000000000e-01
          2.949999999993e-01 0.000000000000e+00 2.600000000000e-01
          2.999999999994e-01 0.000000000000e+00 2.600000000000e-01
          3.049999999994e-01 0.000000000000e+00 2.600000000000e-01
          3.099999999994e-01 0.000000000000e+00 2.600000000000e-01
          3.149999999994e-01 0.000000000000e+00 2.600000000000e-01
          3.199999999994e-01 0.000000000000e+00 2.600000000000e-01
          3.249999999994e-01 0.000000000000e+00 2.600000000000e-01
          3.299999999994e-01 0.000000000000e+00 2.600000000000e-01
          3.349999999995e-01 0.000000000000e+00 2.600000000000e-01
          3.399999999995e-01 0.000000000000e+00 2.600000000000e-01
          3.449999999995e-01 0.000000000000e+00 2.600000000000e-01
          3.499999999995e-01 0.000000000000e+00 2.600000000000e-01
          3.549999999995e-01 0.000000000000e+00 2.600000000000e-01
          3.599999999995e-01 0.000000000000e+00 2.600000000000e-01
          3.649999999996e-01 0.000000000000e+00 2.600000000000e-01
          3.699999999996e-01 0.000000000000e+00 2.600000000000e-01
          3.749999999996e-01 0.000000000000e+00 2.600000000000e-01
          3.799999999996e-01 0.000000000000e+00 2.600000000000e-01
          3.849999999996e-01 0.000000000000e+00 2.600000000000e-01
          3.899999999996e-01 0.000000000000e+00 2.600000000000e-01
          3.949999999996e-01 0.000000000000e+00 2.600000000000e-01
          3.999999999996e-01 0.000000000000e+00 2.600000000000e-01
          4.049999999996e-01 0.000000000000e+00 2.600000000000e-01
          4.099999999996e-01 0.000000000000e+00 2.600000000000e-01
          4.149999999997e-01 0.000000000000e+00 2.600000000000e-01
          4.199999999997e-01 0.000000000000e+00 2.600000000000e-01
          4.249999999997e-01 0.000000000000e+00 2.600000000000e-01
          4.299999999997e-01 0.000000000000e+00 2.600000000000e-01
          4.349999999997e-01 0.000000000000e+00 2.600000000000e-01
          4.399999999997e-01 0.000000000000e+00 2.600000000000e-01
          4.449999999997e-01 0.000000000000e+00 2.600000000000e-01
[...]
      <PointData Scalars="PRESSURE1">
        <DataArray type="Float64" Name="PRESSURE1" format="ascii">
          2.566590300000e+03 -5.032530000000e+01 6.867000000000e+01 2.619270000000e+03 2.516265000000e+03 2.465939700000e+03 2.415614400000e+03 2.365289100000e+03 2.314963800000e+03 2.264638500001e+03 2.214313200001e+03 2.163987900001e+03 2.113662600001e+03 2.063337300001e+03 2.013012000001e+03 1.962686700001e+03 1.912361400001e+03 1.862036100002e+03 1.811710800002e+03 1.761385500002e+03 1.711060200002e+03 1.660734900002e+03 1.610409600002e+03 1.560084300003e+03 1.509759000003e+03 1.459433700003e+03 1.409108400003e+03 1.358783100003e+03 1.308457800003e+03 1.258132500003e+03 1.207807200003e+03 1.157481900003e+03 1.107156600003e+03 1.056831300003e+03 1.006506000003e+03 9.561807000026e+02 9.058554000024e+02 8.555301000022e+02 8.052048000022e+02 7.548795000020e+02 7.045542000019e+02 6.542289000018e+02 6.039036000017e+02 5.535783000015e+02 5.032530000014e+02 4.529277000013e+02 4.026024000011e+02 3.522771000010e+02 3.019518000009e+02 2.516265000007e+02 2.013012000006e+02 1.509759000005e+02 1.006506000004e+02 5.032530000026e+01 1.810262739710e-10 -4.570007380815e+01 -4.234388702956e+01 -3.944138372076e+01 -3.683334141387e+01 -3.442933704040e+01 -3.218887877272e+01 -3.008227581408e+01 -2.809091785370e+01 -2.618570923644e+01 -2.436797344173e+01 -2.262634037129e+01 -2.095029881720e+01 -1.933511340594e+01 -1.777343470309e+01 -1.625738535461e+01 -1.478925311575e+01 -1.336479020750e+01 -1.197573403923e+01 -1.062363084796e+01 -9.305535735729e+00 -8.017175110375e+00 -6.756602571110e+00 -5.522288678094e+00 -4.312155258064e+00 -3.125350252622e+00 -1.960652615637e+00 -8.173185382639e-01 3.076277320022e-01 1.414175476675e+00 2.504268946600e+00 3.579140093101e+00 4.638096999977e+00 5.682640764683e+00 6.714012096385e+00 7.733243265862e+00 8.740777826765e+00 9.736588500765e+00 1.072271805974e+01 1.169795979860e+01 1.266393703600e+01 1.362160492932e+01 1.457088740289e+01 1.551193668669e+01 1.644568137074e+01 1.737208175052e+01 1.829237682938e+01 1.920636349756e+01 2.011413075017e+01 2.101652951335e+01 2.191385673715e+01 2.280572787260e+01 2.369323952807e+01 2.457608324761e+01 2.545487004111e+01 2.632963731618e+01 2.720066023955e+01 2.806831441474e+01 2.893262101650e+01 2.979371903238e+01 3.065194523332e+01 3.150730076853e+01 3.236002632603e+01 3.321041912578e+01 3.405828017237e+01 3.490398339042e+01 3.574777104517e+01 3.658961252879e+01 3.742945853192e+01 3.826760630374e+01 3.910421023087e+01 3.993913878090e+01 4.077273757579e+01 4.160494266424e+01 4.243587641660e+01 4.326560104718e+01 4.409420381230e+01 4.492172940079e+01 4.574827921809e+01 4.657390618695e+01 4.739867224562e+01 4.822254159664e+01 4.904570628595e+01 4.986809377048e+01 5.068990914444e+01 5.151100954677e+01 5.233155896400e+01 5.315155566189e+01 5.397105193738e+01 5.479006430946e+01 5.560861914510e+01 5.642679476025e+01 5.724459395950e+01 5.806205255879e+01 5.887919811767e+01 5.969604912629e+01 6.051266665538e+01 6.132903308702e+01 6.214520832351e+01 6.296119061706e+01 6.377701720033e+01 6.459271835787e+01 6.540830812247e+01 6.622380591206e+01 6.703923982772e+01 6.785463247416e+01 1.177200000000e+02 1.667699999998e+02 2.158199999998e+02 2.648699999997e+02 3.139199999996e+02 3.629699999995e+02 4.120199999995e+02 4.610699999993e+02 5.101199999991e+02 5.591699999990e+02 6.082199999989e+02 6.572699999988e+02 7.063199999986e+02 7.553699999985e+02 8.044199999983e+02 8.534699999981e+02 9.025199999980e+02 9.515699999979e+02 1.000619999998e+03 1.049669999998e+03 1.098719999998e+03 1.147769999997e+03 1.196819999997e+03 1.245869999997e+03 1.294919999997e+03 1.343969999997e+03 1.393019999997e+03 1.442069999997e+03 1.491119999997e+03 1.540169999997e+03 1.589219999997e+03 1.638269999998e+03 1.687319999998e+03 1.736369999998e+03 1.785419999998e+03 1.834469999998e+03 1.883519999998e+03 1.932569999998e+03 1.981619999998e+03 2.030669999999e+03 2.079719999999e+03 2.128769999999e+03 2.177819999999e+03 2.226869999999e+03 2.275919999999e+03 2.324969999999e+03 2.374019999999e+03 2.423069999999e+03 2.472120000000e+03 2.521170000000e+03 2.570220000000e+03 2.618466628818e+03 2.617663280337e+03 2.616859977193e+03 2.616056739557e+03 2.615253592240e+03 2.614450553552e+03 2.613647651106e+03 2.612844902338e+03 2.612042342310e+03 2.611239994559e+03 2.610437881934e+03 2.609636023010e+03 2.608834448421e+03 2.608033211293e+03 2.607232298735e+03 2.606431775261e+03 2.605631651732e+03 2.604831995280e+03 2.604032829660e+03 2.603234166319e+03 2.602436028503e+03 2.601638527266e+03 2.600841682501e+03 2.600045487439e+03 2.599250108202e+03 2.598455446335e+03 2.597661720586e+03 2.596868757033e+03 2.596076877430e+03 2.595285978568e+03 2.594496217474e+03 2.593707609011e+03 2.592920294997e+03 2.592134311212e+03 2.591349668876e+03 2.590566568482e+03 2.589785242998e+03 2.589005568004e+03 2.588227699185e+03 2.587451734515e+03 2.586678028026e+03 2.585906514516e+03 2.585137221619e+03 2.584370748565e+03 2.583606996715e+03 2.582845810211e+03 2.582087902645e+03 2.581333228584e+03 2.580582145147e+03 2.579834587933e+03 2.579091603728e+03 2.578352461008e+03 2.577618149636e+03 2.576888656540e+03 2.576164573619e+03 2.575446200762e+03 2.574733625880e+03 2.574027763213e+03 2.573329125152e+03 2.572637595424e+03 2.571954448422e+03 2.571280308774e+03 2.570615847402e+03 2.569961618588e+03 2.569318990802e+03 2.568688295275e+03 2.568071569001e+03 2.567470754844e+03 2.566886562521e+03 2.566320719413e+03 2.565779323352e+03 2.565261975166e+03 2.564775671916e+03 2.564328782412e+03 2.563938200981e+03 2.563632253343e+03 2.563476018835e+03 2.563509013605e+03 2.563674658748e+03 2.563889850126e+03 2.564087063827e+03 2.564272127452e+03 2.564448932327e+03 2.564607065688e+03 2.564750495864e+03 2.564884800388e+03 2.565008163756e+03 2.565122844818e+03 2.565231338944e+03 2.565333758939e+03 2.565431311835e+03 2.565524326925e+03 2.565613863607e+03 2.565700040789e+03 2.565783203272e+03 2.565864146174e+03 2.565942631112e+03 2.566019367335e+03 2.566094211707e+03 2.566167695027e+03 2.566240000038e+03 2.566311240842e+03 2.566381701060e+03 2.566451561570e+03 2.566521025596e+03 8.508411268508e+02 8.143787204010e+02 1.789368701989e+03 2.198483077160e+03 4.447264916927e+02 2.237433864717e+03 3.666477216803e+02 6.361015298895e+02 1.311473782920e+03 2.335438460635e+03 2.652274820438e+02 5.201676562880e+02 2.011510834776e+03 5.762966057990e+02 1.943524371519e+03 2.325989310544e+03 2.702097982292e+02 6.410346832939e+02 2.344671606136e+03 2.793175348967e+02 8.108462895568e+02 6.213738394193e+02 1.953127898306e+03 2.178104605860e+03 3.957155232613e+02 1.998862804652e+03 5.819940412198e+02 6.604461827116e+02 2.005778240035e+03 1.813594353058e+03 4.982699070362e+02 8.223378921690e+02 1.741179228459e+03 1.825758597688e+03 3.168305611295e+02 8.675328999046e+02 1.982530623281e+03 2.344677765704e+03 5.286587270640e+02 1.982706323481e+03 6.339800844365e+02 7.202448094317e+02 1.852680170034e+03 2.014943631786e+03 2.113044202237e+03 2.098869436875e+03 3.123879830558e+02 2.820863464454e+02 2.079533676362e+03 2.120960277815e+03 2.150875786796e+03 4.558796740172e+02 5.163024907434e+02 2.194573596875e+03 2.121806367635e+03 3.650202835211e+02 4.163951993509e+02 2.217308589598e+03 3.217872871929e+02 2.339994529234e+03 4.709389193051e+02 2.269985764938e+03 1.867113216393e+02 2.214454935290e+03 2.363621006144e+03 2.418258573188e+03 3.165330704249e+02 2.321134100080e+03 3.127880133590e+02 2.021041672635e+02 2.447687627259e+03 2.256227410571e+02 2.445260864691e+03 2.472542242598e+03 2.679345444485e+02 2.499957912208e+03 1.200989715233e+02 2.413468173565e+03 2.471221966644e+03 2.156397914823e+02 2.464482718434e+03 2.508234814551e+03 2.522081414820e+03 2.489002346519e+03 1.415419436624e+02 8.086314716557e+02 1.770611143903e+03 7.993924291385e+02 1.369894478592e+03 4.948580424115e+02 2.113863231746e+03 2.107738204838e+03 3.978309017487e+02 4.803006563482e+02 3.010464217056e+02 2.297255844204e+03 9.607938726086e+02 1.780777327159e+03 1.958449555600e+03 2.340275835488e+03 1.591762703640e+03 9.770906731213e+02 3.230190028681e+02 1.654139802552e+03 2.425138575840e+03 1.607477884890e+03 4.738730755629e+02 2.123635785448e+03 1.479523732920e+02 9.867660276651e+02 1.671308282701e+03 9.383700025146e+02 4.034800453497e+02 1.170131882798e+03 2.169897793339e+03 3.646816536720e+02 1.561542068828e+02 9.314087473990e+02 1.706523234539e+03 2.032171167256e+03 5.910686216332e+02 2.832898544502e+02 2.422418845142e+03 1.769796159868e+02 2.242286999803e+03 1.471375846867e+03 1.087356028709e+03 2.168713594482e+02 2.425605293935e+03 2.250692812278e+03 2.354753695100e+03 3.321873451724e+02 2.382478042066e+03 3.371601672399e+02 2.304179015702e+03 2.369783450306e+03 2.179472698330e+03 2.385748937978e+03 2.237168803666e+03 2.371365537499e+03 1.352340540843e+03 2.188653762981e+03 4.262004854864e+02 1.802181595138e+02 2.436044749833e+03 8.536941432088e+01 2.482067819378e+03 1.903996892255e+03 7.419707994626e+02 2.084663920223e+03 7.653707825541e+02 1.667105275714e+03 2.379816164881e+03 2.456159116746e+03 2.179872915618e+02 2.042276947295e+02 9.936824513693e+01 7.240733239155e+02 2.676919470109e+02 2.340622494045e+03 1.233888987549e+02 9.837570295179e+02 1.241655011608e+03 2.262707582192e+03 6.203340069478e+02 1.106551631158e+03 6.652857054407e+02 2.741993083765e+02 2.411031740067e+03 2.009994686650e+03 6.522374840266e+02 2.771043813308e+02 1.382691996304e+02 1.952253825628e+02 2.328994925467e+03 2.019804481395e+03 1.596429261252e+03 1.974282659640e+03 5.111098441430e+02 2.088307146193e+03 1.722753682808e+03 1.889481473524e+02 5.302247833909e+02 2.086876751481e+03 2.237142708775e+03 3.748113584943e+02 2.105590751544e+03 2.169794395568e+03 2.361032856600e+03 1.045616334235e+03 2.472559345638e+03 6.976030635822e+02 1.795855677981e+03 1.260785606937e+02 1.322907149655e+02 8.002624446540e+02 2.106978500766e+03 1.371432870413e+02 1.509537151689e+02 1.908140864251e+03 2.215256431928e+03 9.461149880080e+02 5.824512488415e+02 1.837604365156e+02 4.315589421234e+02 2.480330179893e+02 7.920364129183e+02 1.205105815432e+02 6.069619494485e+02 2.486292219900e+03 1.737647599226e+03 2.152254362988e+03 3.199540351660e+02 7.690352763643e+02 2.419497232228e+03 1.543021314537e+02 5.738671044089e+02 7.487127878759e+02 2.135066550034e+03 4.920355755431e+02 2.234815930939e+03 5.717066668929e+02 2.523539758770e+03 4.262945231283e+02 1.488099754933e+02 2.464352208583e+03 4.790034100162e+02 3.696048610077e+02 2.462234001858e+03 1.439690623073e+02 2.456088519251e+03 2.229096922098e+03 3.091855305555e+02 2.458883428427e+03 3.389423910249e+02 2.906332268692e+02 1.415440475859e+02 2.457998095651e+03 4.969864482150e+02 5.251423111119e+02 1.866994130534e+03 5.247911332500e+02 2.475393457783e+03 5.009330755572e+02 6.244862111591e+02 5.783110860309e+02 1.771048422666e+02 6.298125998562e+02 1.907151586413e+03 3.257575377274e+02 2.274649136361e+03 3.875776198952e+02 1.233743398805e+02 2.478097527390e+03 2.043467153076e+03 2.337008713670e+03 2.514698484909e+02 4.649824071769e+02 3.520738007008e+02 1.894991801673e+03 4.046424937001e+02 2.507449382075e+03 8.188970909557e+02 2.426041007910e+03 1.256533873210e+02 2.475214494159e+03 2.338802667961e+03 7.497357444042e+01 5.452210244761e+02 1.965680645659e+03 2.529246063335e+03 2.256114160078e+03 2.330996907643e+03 1.532252845060e+02 2.430139863043e+03 2.720585211232e+02 2.283498165429e+03 3.184741155478e+02 7.345503266480e+02 1.933014876685e+03 1.730688662961e+02 6.895649034958e+02 3.749654030955e+02 1.314513509471e+02 2.388701088332e+03 2.274752517150e+02 2.291674767989e+03 1.885320625625e+03 2.440136436381e+02 1.807375651848e+03 1.242934155694e+02 2.355805477794e+03 2.470721208799e+03 4.533576957227e+01 2.345754096626e+03 2.095832869961e+02 3.260294807673e+02 2.276373089932e+03 2.513446855076e+03 2.811511653078e+02 2.242914995058e+03 2.359874611074e+02 2.399944568169e+03 1.047947946998e+02 2.402126526454e+03 2.541718263978e+03 2.102732306686e+03 2.345741032842e+03 2.490759397517e+03 5.352069287699e+02 2.319597650829e+03 2.064744671960e+02 2.523860490902e+03 1.671891377943e+02 2.414713894741e+03 2.293152455444e+02 6.761366264474e+02 1.288217701273e+02 2.539573756861e+03 2.228604208051e+03 4.883383873943e+02 1.555877456841e+02 2.517235846616e+02 2.439451316885e+03 6.832700707855e+02 2.522250696831e+03 6.145942519841e+02 1.989734064017e+03 2.288791012615e+03 2.400939536228e+03 2.304048784769e+03 2.561819064755e+02 3.015894620639e+02 4.614440544040e+02 2.271469563963e+03 8.541854352787e+01 2.268383202907e+02 8.272000295454e+01 2.025753556904e+02 2.189032312132e+03 2.426687998926e+03 2.444644769351e+03 2.537779135177e+03 2.453534609550e+03 2.392361721806e+02 3.691964760103e+02 1.394214976476e+02 6.353971291605e+02 5.433395824883e+02 6.632620606071e+02 6.831722267365e+02 4.596918385343e+02 1.949831071510e+03 1.803184003875e+02 1.098080913867e+02 2.382880452799e+03 2.026643991927e+03 2.501060570235e+03 1.466407172576e+02 2.185438856510e+03 1.774068122456e+03 1.913962445406e+03 8.358317057328e+02 1.775775024174e+03 1.551409097222e+03 1.343146712203e+03 1.225214174535e+03 1.092490710531e+03 1.240821035578e+03 1.944810565541e+03 1.733403551798e+03 5.946624199815e+02 1.109287173214e+03 6.020650424136e+02 1.340033744227e+03 1.241686678618e+03 1.383229869503e+03 1.432134309763e+03 7.992492361808e+02 1.454794954366e+03 7.696734573970e+02 1.347148677530e+03 1.622912103202e+03 1.007853687756e+03 1.081563213175e+03 1.917511479299e+03 1.003989891032e+03 1.157104083687e+03 9.140495007181e+02 1.957475678119e+03 1.893749992393e+03 1.553105768122e+03 8.990948950899e+02 1.898765771835e+03 1.957084524184e+03 1.409540397972e+03 1.457780167895e+03 1.571129461464e+03 1.020104482582e+03 1.982081368085e+03 1.575077656782e+03 1.149914750767e+03 6.576333911393e+02 6.243342386682e+02 2.308052095732e+02 9.344093075631e+02 1.364268693602e+03 1.599873091128e+03 1.636508900716e+03 1.558374726372e+03 1.207861438219e+03 2.366791056927e+03 1.878150311190e+03 1.630241673758e+02 1.120621130272e+03 1.841430955728e+03 1.437050458283e+03 1.655402998278e+03 2.519988152255e+02 1.719059245050e+03 2.349742891829e+02 2.383867345365e+03 1.181775305998e+03 7.161204190672e+02 1.671299522238e+03 2.145941643375e+03 8.985267303730e+02 4.551498730801e+02 1.945043087894e+03 6.615608637545e+02 2.149019281602e+03 1.769910668974e+03 9.389029711580e+02 2.445051455334e+03 1.789347094770e+02 1.210962194468e+03 3.689807699389e+02 1.532675783899e+03 2.181007766222e+03 2.440425660068e+03 2.422747283717e+03 6.649386586046e+02 2.328429057269e+03 2.069825770378e+03 5.492668239731e+02 1.835278496992e+03 1.079669431964e+03 6.169708171788e+02 1.661032136532e+02 2.001162174735e+03 1.450032103460e+02 5.365952554235e+02 2.452734183050e+03 1.474937795347e+02 3.182620166320e+02 9.637223309942e+02 2.296125526337e+03 1.786905426439e+03 1.082429367149e+03 1.948918147683e+03 8.081761441370e+02 4.668148643081e+02 7.973506699733e+02 7.533516008695e+02 7.381171143031e+02 1.179791592155e+02 2.211762414736e+03 2.368165237823e+02 4.509765336172e+02 6.101300088479e+02 6.897610228550e+02 5.585861994705e+02 1.756239239709e+02 2.343012953468e+03 9.426066048456e+02 8.849097356157e+02 2.104502565546e+02 2.068491019258e+03 2.399570478947e+03 1.987930001162e+03 5.446966321256e+02 2.003645261977e+03 2.234396698766e+03 1.575761340079e+03 1.012715665420e+03 2.106304450218e+03 2.454912808393e+03 2.071614257421e+02 2.181011745906e+03 2.159820657554e+02 1.386904434984e+03 8.269680018106e+02 6.221385132294e+02 2.105689137782e+03 4.370866918483e+02 2.140975413298e+03 2.053384991510e+03 3.210423109933e+02 7.579539772967e+01 2.508357960604e+02 1.906636855617e+03 2.226776050491e+03 4.715471088945e+02 4.551726754418e+02 2.134803555429e+03 3.718567184462e+02 1.356198585369e+03 4.321856473237e+02 1.765310066892e+03 1.009606202955e+03 4.432680756406e+02 1.199970579553e+03 2.265458771896e+03 2.726834203248e+02 4.957353151553e+02 1.895805839820e+03 1.429610763866e+02 2.131257188521e+03 2.168708808908e+03 1.096141743579e+02 2.265664200771e+03 2.091573497530e+03 2.482179909913e+03 6.868919237916e+02 2.276444888158e+03 1.868603025706e+03 2.276877453037e+03 2.289593382433e+03 2.251503920948e+03 2.279941935964e+03 2.276852190270e+03 1.640857883524e+03 2.154079980026e+03 2.077517916061e+03 1.964492356535e+03 2.116963147758e+03 2.616445379712e+02 4.247195329532e+02 3.460329123892e+02 3.862907137609e+02 8.457534939511e+02 1.733483929376e+03 5.299931626984e+02 3.533548537270e+02 2.423949966781e+03 2.356750584523e+03 2.211702304163e+02 1.674247718049e+02 2.330072151949e+03 1.708484943251e+03 4.726180070278e+02 1.705957574317e+03 2.931119647401e+02 1.741564745689e+03 3.746790338391e+02 4.236480687217e+02 2.063972786535e+03 2.893124047372e+02 7.075589166816e+02 2.362581359966e+02 6.676334496152e+02 1.956402369400e+03 2.166451098475e+02 2.099984505414e+03 7.187431909872e+02 1.891930067738e+03 2.485622218383e+03 8.296436500769e+02 4.859190112168e+02 2.343671451377e+03 6.156962154211e+02 2.396932704799e+03 1.972533560358e+03 2.569974705308e+02 3.355106230668e+02 1.799715352142e+02 2.317434709137e+03 2.000451179121e+03 2.555390123712e+02 2.225647380813e+03 9.487510012953e+02 1.789898256256e+03 1.852681014204e+03 4.229539238493e+02 2.013436737882e+03 3.045336748521e+02 1.873623094292e+03 2.267287964181e+03 4.777507704997e+02 6.084717431156e+02 7.820809774791e+02 8.783861991438e+01 2.771819587093e+02 1.923391065658e+03 1.861846774210e+03 9.890755822490e+01 2.456505350502e+03 2.357509940694e+03 1.819927203702e+03 7.468950519572e+01 2.642010134171e+02 1.717722381636e+02 2.433034429644e+03 2.196778351510e+03 2.456042242459e+03 2.187354570645e+03 1.133014862348e+03 4.822149831455e+02 2.007044089746e+03 1.033783484289e+02 2.375042857447e+02 2.266360721320e+03 7.210034061870e+02 6.925376857732e+02 2.348620009324e+03 1.313883088598e+03 1.732131650953e+03 1.061956916163e+02 1.802574786295e+03 2.292569807776e+03 2.403825397944e+03 3.088094925220e+02 2.032127539753e+02 3.631941030474e+02 1.902601346760e+02 3.922599726294e+02 7.174322819847e+02 1.930123920009e+03 4.815701974372e+02 2.521420274539e+03 2.260976976247e+03 2.463248455880e+03 2.718263968260e+02 2.051909007078e+03 4.185656712405e+02 1.596509459580e+03 2.501822424457e+03 2.387173925363e+03 2.384369160440e+03 6.581571414550e+02 2.170040733377e+02 1.102025115123e+02 2.255738146419e+02 5.486671138021e+02 2.071982098770e+03 2.127874819009e+03 2.100143923335e+03 2.193131092024e+03 2.142848395791e+03 2.367140904734e+03 2.070326352351e+03 2.268320406896e+03 1.182675284078e+03 7.921211486556e+02 3.451873436439e+02 1.985185791561e+03 2.185557873142e+03 2.404030469748e+03 9.596480011294e+02 2.286413906591e+03 3.337478854390e+02 1.865465557042e+03 7.277167547598e+02 1.590180947796e+03 1.951739830095e+02 2.272749862852e+03 2.246579652715e+03 1.847415351205e+03 2.910673851433e+02 2.180700491881e+03 2.530482658981e+03 1.725959463556e+03 2.038862258668e+03 2.058212704962e+03 2.374494942885e+03 2.521023326853e+03 2.098419213931e+03 2.317750588855e+02 2.150686956738e+03 2.246529565944e+03 7.724944143290e+02 8.722703939174e+02 8.396413744963e+01 3.958736341605e+02 6.927496231010e+02 5.224427423506e+02 1.737021085044e+03 1.501229369427e+03 3.474405141819e+02 1.969673942529e+03 2.506180745620e+03 5.926664195852e+02 2.176378943133e+03 1.818277437307e+03 3.242813038292e+02 4.409372780132e+02 4.572287410981e+02 2.422941733549e+03 6.598166119497e+01 2.396442647806e+03 2.172541407011e+03 2.435605767641e+03 3.281931610050e+02 2.392117221643e+03 2.103805006942e+03 6.775454494340e+02 2.029108155522e+03 5.970371780397e+02 2.224746429363e+03 7.037865373777e+02 3.920441630670e+02 8.835687878641e+02 4.167199446883e+02 2.068877025701e+03 2.386296141646e+03 6.058824154895e+02 3.495396791700e+02 2.355686250706e+02 2.163246816656e+03 2.090836143837e+03 4.175318372722e+02 1.850202198192e+02 1.935367497342e+03 2.017311719219e+03 1.678639504630e+03 4.821976689299e+02 2.381400691458e+03 1.711655206693e+03 2.247589707032e+03 3.