<?xml version="1.0"?>
<!-- Time step: 47 | Time: 9.000000000000e+03 -->
<VTKFile type="UnstructuredGrid" version="0.1" byte_order="LittleEndian">
  <UnstructuredGrid>
    <Piece NumberOfPoints="6824" NumberOfCells="13330">
      <Points>
        <DataArray type="Float64" NumberOfComponents="3" format="ascii">
          0.000000000000e+00 0.000000000000e+00 0.000000000000e+00
          0.000000000000e+00 0.000000000000e+00 2.600000000000e-01
          5.300000000000e-01 0.000000000000e+00 2.600000000000e-01
          5.300000000000e-01 0.000000000000e+00 0.000000000000e+00
          0.000000000000e+00 0.000000000000e+00 4.999999999991e-03
          0.000000000000e+00 0.000000000000e+00 9.999999999982e-03
          0.000000000000e+00 0.000000000000e+00 1.499999999997e-02
          0.000000000000e+00 0.000000000000e+00 1.999999999996e-02
          0.000000000000e+00 0.000000000000e+00 2.499999999996e-02
          0.000000000000e+00 0.000000000000e+00 2.999999999995e-02
          0.000000000000e+00 0.000000000000e+00 3.499999999994e-02
          0.000000000000e+00 0.000000000000e+00 3.999999999992e-02
          0.000000000000e+00 0.000000000000e+00 4.499999999991e-02
          0.000000000000e+00 0.000000000000e+00 4.999999999990e-02
          0.000000000000e+00 0.000000000000e+00 5.499999999988e-02
          0.000000000000e+00 0.000000000000e+00 5.999999999987e-02
          0.000000000000e+00 0.000000000000e+00 6.499999999985e-02
          0.000000000000e+00 0.000000000000e+00 6.999999999983e-02
          0.000000000000e+00 0.000000000000e+00 7.499999999983e-02
          0.000000000000e+00 0.000000000000e+00 7.999999999981e-02
          0.000000000000e+00 0.000000000000e+00 8.499999999979e-02
          0.000000000000e+00 0.000000000000e+00 8.999999999978e-02
          0.000000000000e+00 0.000000000000e+00 9.499999999977e-02
          0.000000000000e+00 0.000000000000e+00 9.999999999975e-02
          0.000000000000e+00 0.000000000000e+00 1.049999999997e-01
          0.000000000000e+00 0.000000000000e+00 1.099999999997e-01
          0.000000000000e+00 0.000000000000e+00 1.149999999997e-01
          0.000000000000e+00 0.000000000000e+00 1.199999999997e-01
          0.000000000000e+00 0.000000000000e+00 1.249999999997e-01
          0.000000000000e+00 0.000000000000e+00 1.299999999997e-01
          0.000000000000e+00 0.000000000000e+00 1.349999999997e-01
          0.000000000000e+00 0.000000000000e+00 1.399999999997e-01
          0.000000000000e+00 0.000000000000e+00 1.449999999997e-01
          0.000000000000e+00 0.000000000000e+00 1.499999999997e-01
          0.000000000000e+00 0.000000000000e+00 1.549999999997e-01
          0.000000000000e+00 0.000000000000e+00 1.599999999997e-01
          0.000000000000e+00 0.000000000000e+00 1.649999999998e-01
          0.000000000000e+00 0.000000000000e+00 1.699999999998e-01
          0.000000000000e+00 0.000000000000e+00 1.749999999998e-01
          0.000000000000e+00 0.000000000000e+00 1.799999999998e-01
          0.000000000000e+00 0.000000000000e+00 1.849999999998e-01
          0.000000000000e+00 0.000000000000e+00 1.899999999998e-01
          0.000000000000e+00 0.000000000000e+00 1.949999999998e-01
          0.000000000000e+00 0.000000000000e+00 1.999999999999e-01
          0.000000000000e+00 0.000000000000e+00 2.049999999999e-01
          0.000000000000e+00 0.000000000000e+00 2.099999999999e-01
          0.000000000000e+00 0.000000000000e+00 2.149999999999e-01
          0.000000000000e+00 0.000000000000e+00 2.199999999999e-01
          0.000000000000e+00 0.000000000000e+00 2.249999999999e-01
          0.000000000000e+00 0.000000000000e+00 2.299999999999e-01
          0.000000000000e+00 0.000000000000e+00 2.349999999999e-01
          0.000000000000e+00 0.000000000000e+00 2.399999999999e-01
          0.000000000000e+00 0.000000000000e+00 2.450000000000e-01
          0.000000000000e+00 0.000000000000e+00 2.500000000000e-01
          0.000000000000e+00 0.000000000000e+00 2.550000000000e-01
          4.999999999991e-03 0.000000000000e+00 2.600000000000e-01
          9.999999999981e-03 0.000000000000e+00 2.600000000000e-01
          1.499999999997e-02 0.000000000000e+00 2.600000000000e-01
          1.999999999996e-02 0.000000000000e+00 2.600000000000e-01
          2.499999999995e-02 0.000000000000e+00 2.600000000000e-01
          2.999999999994e-02 0.000000000000e+00 2.600000000000e-01
          3.499999999993e-02 0.000000000000e+00 2.600000000000e-01
          3.999999999992e-02 0.000000000000e+00 2.600000000000e-01
          4.499999999992e-02 0.000000000000e+00 2.600000000000e-01
          4.999999999991e-02 0.000000000000e+00 2.600000000000e-01
          5.499999999990e-02 0.000000000000e+00 2.600000000000e-01
          5.999999999990e-02 0.000000000000e+00 2.600000000000e-01
          6.499999999989e-02 0.000000000000e+00 2.600000000000e-01
          6.999999999988e-02 0.000000000000e+00 2.600000000000e-01
          7.499999999986e-02 0.000000000000e+00 2.600000000000e-01
          7.999999999985e-02 0.000000000000e+00 2.600000000000e-01
          8.499999999983e-02 0.000000000000e+00 2.600000000000e-01
          8.999999999981e-02 0.000000000000e+00 2.600000000000e-01
          9.499999999980e-02 0.000000000000e+00 2.600000000000e-01
          9.999999999979e-02 0.000000000000e+00 2.600000000000e-01
          1.049999999998e-01 0.000000000000e+00 2.600000000000e-01
          1.099999999998e-01 0.000000000000e+00 2.600000000000e-01
          1.149999999997e-01 0.000000000000e+00 2.600000000000e-01
          1.199999999997e-01 0.000000000000e+00 2.600000000000e-01
          1.249999999997e-01 0.000000000000e+00 2.600000000000e-01
          1.299999999997e-01 0.000000000000e+00 2.600000000000e-01
          1.349999999997e-01 0.000000000000e+00 2.600000000000e-01
          1.399999999997e-01 0.000000000000e+00 2.600000000000e-01
          1.449999999997e-01 0.000000000000e+00 2.600000000000e-01
          1.499999999996e-01 0.000000000000e+00 2.600000000000e-01
          1.549999999996e-01 0.000000000000e+00 2.600000000000e-01
          1.599999999996e-01 0.000000000000e+00 2.600000000000e-01
          1.649999999996e-01 0.000000000000e+00 2.600000000000e-01
          1.699999999996e-01 0.000000000000e+00 2.600000000000e-01
          1.749999999996e-01 0.000000000000e+00 2.600000000000e-01
          1.799999999995e-01 0.000000000000e+00 2.600000000000e-01
          1.849999999995e-01 0.000000000000e+00 2.600000000000e-01
          1.899999999995e-01 0.000000000000e+00 2.600000000000e-01
          1.949999999995e-01 0.000000000000e+00 2.600000000000e-01
          1.999999999995e-01 0.000000000000e+00 2.600000000000e-01
          2.049999999995e-01 0.000000000000e+00 2.600000000000e-01
          2.099999999995e-01 0.000000000000e+00 2.600000000000e-01
          2.149999999994e-01 0.000000000000e+00 2.600000000000e-01
          2.199999999994e-01 0.000000000000e+00 2.600000000000e-01
          2.249999999994e-01 0.000000000000e+00 2.600000000000e-01
          2.299999999994e-01 0.000000000000e+00 2.600000000000e-01
          2.349999999994e-01 0.000000000000e+00 2.600000000000e-01
          2.399999999994e-01 0.000000000000e+00 2.600000000000e-01
          2.449999999993e-01 0.000000000000e+00 2.600000000000e-01
          2.499999999993e-01 0.000000000000e+00 2.600000000000e-01
          2.549999999993e-01 0.000000000000e+00 2.600000000000e-01
          2.599999999993e-01 0.000000000000e+00 2.600000000000e-01
          2.649999999993e-01 0.000000000000e+00 2.600000000000e-01
          2.699999999993e-01 0.000000000000e+00 2.600000000000e-01
          2.749999999993e-01 0.000000000000e+00 2.600000000000e-01
          2.799999999993e-01 0.000000000000e+00 2.600000000000e-01
          2.849999999993e-01 0.000000000000e+00 2.600000000000e-01
          2.899999999993e-01 0.000000000000e+00 2.600000000000e-01
          2.949999999993e-01 0.000000000000e+00 2.600000000000e-01
          2.999999999994e-01 0.000000000000e+00 2.600000000000e-01
          3.049999999994e-01 0.000000000000e+00 2.600000000000e-01
          3.099999999994e-01 0.000000000000e+00 2.600000000000e-01
          3.149999999994e-01 0.000000000000e+00 2.600000000000e-01
          3.199999999994e-01 0.000000000000e+00 2.600000000000e-01
          3.249999999994e-01 0.000000000000e+00 2.600000000000e-01
          3.299999999994e-01 0.000000000000e+00 2.600000000000e-01
          3.349999999995e-01 0.000000000000e+00 2.600000000000e-01
          3.399999999995e-01 0.000000000000e+00 2.600000000000e-01
          3.449999999995e-01 0.000000000000e+00 2.600000000000e-01
          3.499999999995e-01 0.000000000000e+00 2.600000000000e-01
          3.549999999995e-01 0.000000000000e+00 2.600000000000e-01
          3.599999999995e-01 0.000000000000e+00 2.600000000000e-01
          3.649999999996e-01 0.000000000000e+00 2.600000000000e-01
          3.699999999996e-01 0.000000000000e+00 2.600000000000e-01
          3.749999999996e-01 0.000000000000e+00 2.600000000000e-01
          3.799999999996e-01 0.000000000000e+00 2.600000000000e-01
          3.849999999996e-01 0.000000000000e+00 2.600000000000e-01
          3.899999999996e-01 0.000000000000e+00 2.600000000000e-01
          3.949999999996e-01 0.000000000000e+00 2.600000000000e-01
          3.999999999996e-01 0.000000000000e+00 2.600000000000e-01
          4.049999999996e-01 0.000000000000e+00 2.600000000000e-01
          4.099999999996e-01 0.000000000000e+00 2.600000000000e-01
          4.149999999997e-01 0.000000000000e+00 2.600000000000e-01
          4.199999999997e-01 0.000000000000e+00 2.600000000000e-01
          4.249999999997e-01 0.000000000000e+00 2.600000000000e-01
          4.299999999997e-01 0.000000000000e+00 2.600000000000e-01
          4.349999999997e-01 0.000000000000e+00 2.600000000000e-01
          4.399999999997e-01 0.000000000000e+00 2.600000000000e-01
          4.449999999997e-01 0.000000000000e+00 2.600000000000e-01
[...]
      <PointData Scalars="PRESSURE1">
        <DataArray type="Float64" Name="PRESSURE1" format="ascii">
          2.566590300000e+03 -5.032530000000e+01 6.867000000000e+01 2.619270000000e+03 2.516265000000e+03 2.465939700000e+03 2.415614400000e+03 2.365289100000e+03 2.314963800000e+03 2.264638500001e+03 2.214313200001e+03 2.163987900001e+03 2.113662600001e+03 2.063337300001e+03 2.013012000001e+03 1.962686700001e+03 1.912361400001e+03 1.862036100002e+03 1.811710800002e+03 1.761385500002e+03 1.711060200002e+03 1.660734900002e+03 1.610409600002e+03 1.560084300003e+03 1.509759000003e+03 1.459433700003e+03 1.409108400003e+03 1.358783100003e+03 1.308457800003e+03 1.258132500003e+03 1.207807200003e+03 1.157481900003e+03 1.107156600003e+03 1.056831300003e+03 1.006506000003e+03 9.561807000026e+02 9.058554000024e+02 8.555301000022e+02 8.052048000022e+02 7.548795000020e+02 7.045542000019e+02 6.542289000018e+02 6.039036000017e+02 5.535783000015e+02 5.032530000014e+02 4.529277000013e+02 4.026024000011e+02 3.522771000010e+02 3.019518000009e+02 2.516265000007e+02 2.013012000006e+02 1.509759000005e+02 1.006506000004e+02 5.032530000026e+01 1.810262739710e-10 -4.570007335085e+01 -4.234388613721e+01 -3.944138246786e+01 -3.683333990958e+01 -3.442933541698e+01 -3.218887718757e+01 -3.008227444096e+01 -2.809091688085e+01 -2.618570882627e+01 -2.436797378078e+01 -2.262634162807e+01 -2.095030114995e+01 -1.933511694030e+01 -1.777343955538e+01 -1.625739160793e+01 -1.478926084132e+01 -1.336479944010e+01 -1.197574479040e+01 -1.062364310340e+01 -9.305549459868e+00 -8.017190250208e+00 -6.756619057162e+00 -5.522306418185e+00 -4.312174149070e+00 -3.125370182096e+00 -1.960673461380e+00 -8.173401700612e-01 3.076054357662e-01 1.414152645255e+00 2.504245700681e+00 3.579116547971e+00 4.638073278284e+00 5.682616977993e+00 6.713988345808e+00 7.733219642912e+00 8.740754416766e+00 9.736565385859e+00 1.072269530416e+01 1.169793746934e+01 1.266391518564e+01 1.362158360029e+01 1.457086663311e+01 1.551191650872e+01 1.644566180844e+01 1.737206282324e+01 1.829235854930e+01 1.920634587262e+01 2.011411378458e+01 2.101651320705e+01 2.191384108621e+01 2.280571286967e+01 2.369322516473e+01 2.457606951176e+01 2.545485691962e+01 2.632962479383e+01 2.720064830020e+01 2.806830304205e+01 2.893261019242e+01 2.979370873816e+01 3.065193545069e+01 3.150729147808e+01 3.236001750878e+01 3.321041076399e+01 3.405827224580e+01 3.490397588104e+01 3.574776393632e+01 3.658960580291e+01 3.742945217045e+01 3.826760029035e+01 3.910420455029e+01 3.993913341613e+01 4.077273251304e+01 4.160493788873e+01 4.243587191457e+01 4.326559680531e+01 4.409419981801e+01 4.492172564183e+01 4.574827568318e+01 4.657390286529e+01 4.739866912701e+01 4.822253867034e+01 4.904570354343e+01 4.986809120222e+01 5.068990674339e+01 5.151100730404e+01 5.233155687267e+01 5.315155371499e+01 5.397105012854e+01 5.479006263250e+01 5.560861759414e+01 5.642679333038e+01 5.724459264584e+01 5.806205135689e+01 5.887919702343e+01 5.969604813584e+01 6.051266576564e+01 6.132903229468e+01 6.214520762603e+01 6.296119001189e+01 6.377701668538e+01 6.459271793147e+01 6.540830778314e+01 6.622380565856e+01 6.703923965920e+01 6.785463239007e+01 1.177200000000e+02 1.667699999998e+02 2.158199999998e+02 2.648699999997e+02 3.139199999996e+02 3.629699999995e+02 4.120199999995e+02 4.610699999993e+02 5.101199999991e+02 5.591699999990e+02 6.082199999989e+02 6.572699999988e+02 7.063199999986e+02 7.553699999985e+02 8.044199999983e+02 8.534699999981e+02 9.025199999980e+02 9.515699999979e+02 1.000619999998e+03 1.049669999998e+03 1.098719999998e+03 1.147769999997e+03 1.196819999997e+03 1.245869999997e+03 1.294919999997e+03 1.343969999997e+03 1.393019999997e+03 1.442069999997e+03 1.491119999997e+03 1.540169999997e+03 1.589219999997e+03 1.638269999998e+03 1.687319999998e+03 1.736369999998e+03 1.785419999998e+03 1.834469999998e+03 1.883519999998e+03 1.932569999998e+03 1.981619999998e+03 2.030669999999e+03 2.079719999999e+03 2.128769999999e+03 2.177819999999e+03 2.226869999999e+03 2.275919999999e+03 2.324969999999e+03 2.374019999999e+03 2.423069999999e+03 2.472120000000e+03 2.521170000000e+03 2.570220000000e+03 2.618466628906e+03 2.617663280512e+03 2.616859977457e+03 2.616056739911e+03 2.615253592685e+03 2.614450554089e+03 2.613647651737e+03 2.612844903067e+03 2.612042343139e+03 2.611239995491e+03 2.610437882973e+03 2.609636024160e+03 2.608834449686e+03 2.608033212678e+03 2.607232300245e+03 2.606431776903e+03 2.605631653511e+03 2.604831997204e+03 2.604032831737e+03 2.603234168556e+03 2.602436030909e+03 2.601638529852e+03 2.600841685277e+03 2.600045490415e+03 2.599250111392e+03 2.598455449750e+03 2.597661724241e+03 2.596868760941e+03 2.596076881609e+03 2.595285983035e+03 2.594496222248e+03 2.593707614113e+03 2.592920300447e+03 2.592134317034e+03 2.591349675095e+03 2.590566575124e+03 2.589785250094e+03 2.589005575586e+03 2.588227707285e+03 2.587451743167e+03 2.586678037274e+03 2.585906524400e+03 2.585137232181e+03 2.584370759860e+03 2.583607008795e+03 2.582845823126e+03 2.582087916460e+03 2.581333243362e+03 2.580582160960e+03 2.579834604850e+03 2.579091621840e+03 2.578352480390e+03 2.577618170383e+03 2.576888678742e+03 2.576164597376e+03 2.575446226177e+03 2.574733653047e+03 2.574027792235e+03 2.573329156128e+03 2.572637628432e+03 2.571954483529e+03 2.571280346017e+03 2.570615886768e+03 2.569961660001e+03 2.569319034102e+03 2.568688340189e+03 2.568071615072e+03 2.567470801386e+03 2.566886608643e+03 2.566320764395e+03 2.565779366654e+03 2.565262019944e+03 2.564775728363e+03 2.564328920612e+03 2.563938600986e+03 2.563633354978e+03 2.563477368271e+03 2.563507765065e+03 2.563670092154e+03 2.563884276938e+03 2.564083034641e+03 2.564270037908e+03 2.564448542425e+03 2.564607913258e+03 2.564752184369e+03 2.564886996797e+03 2.565010560610e+03 2.565125220021e+03 2.565233569565e+03 2.565335771082e+03 2.565433072311e+03 2.565525830508e+03 2.565615122485e+03 2.565701075956e+03 2.565784043429e+03 2.565864815277e+03 2.565943158663e+03 2.566019775452e+03 2.566094524676e+03 2.566167930363e+03 2.566240172806e+03 2.566311364490e+03 2.566381785299e+03 2.566451613755e+03 2.566521050545e+03 8.508411245872e+02 8.143786882731e+02 1.789368705198e+03 2.198483178101e+03 4.447264869430e+02 2.237433870898e+03 3.666476968061e+02 6.361014966053e+02 1.311473779409e+03 2.335438531477e+03 2.652274770954e+02 5.201676314041e+02 2.011510836941e+03 5.762965833422e+02 1.943524373058e+03 2.325989488139e+03 2.702097943451e+02 6.410346700423e+02 2.344674044452e+03 2.793175319674e+02 8.108462859598e+02 6.213738347492e+02 1.953127899320e+03 2.178103726696e+03 3.957155213320e+02 1.998862805492e+03 5.819940509456e+02 6.604461817249e+02 2.005776922525e+03 1.813594353574e+03 4.982699056602e+02 8.223379579540e+02 1.741179036247e+03 1.825758598024e+03 3.168305538361e+02 8.675328995975e+02 1.982530069000e+03 2.344677767202e+03 5.286587260145e+02 1.982705471197e+03 6.339801138356e+02 7.202448088920e+02 1.852679531210e+03 2.014943632563e+03 2.113044203117e+03 2.098868759233e+03 3.123879818765e+02 2.820863472391e+02 2.079533677060e+03 2.120959769422e+03 2.150875787394e+03 4.558796852018e+02 5.163024900251e+02 2.194573597673e+03 2.121805937593e+03 3.650202919042e+02 4.163951987938e+02 2.217308590038e+03 3.217872938569e+02 2.339994704300e+03 4.709389189309e+02 2.269985756898e+03 1.867113209332e+02 2.214454833450e+03 2.363621006643e+03 2.418258804611e+03 3.165330698972e+02 2.321134100302e+03 3.127880129112e+02 2.021041706850e+02 2.447687789378e+03 2.256227436476e+02 2.445260865033e+03 2.472542379697e+03 2.679345442387e+02 2.499957912522e+03 1.200989734167e+02 2.413468201344e+03 2.471221966762e+03 2.156397913363e+02 2.464482754427e+03 2.508234814673e+03 2.522081451670e+03 2.489002362890e+03 1.415419435751e+02 8.086314705799e+02 1.770611145133e+03 7.993923900026e+02 1.369894285528e+03 4.948580329797e+02 2.113863257401e+03 2.107738216880e+03 3.978308853096e+02 4.803006441726e+02 3.010464081719e+02 2.297255863323e+03 9.607939092169e+02 1.780777327997e+03 1.958449262023e+03 2.340275841105e+03 1.591762704014e+03 9.770907587493e+02 3.230189772907e+02 1.654139802848e+03 2.425138580959e+03 1.607477886929e+03 4.738730696724e+02 2.123635840454e+03 1.479523491425e+02 9.867661468082e+02 1.671308286154e+03 9.383699820210e+02 4.034800226569e+02 1.170131882620e+03 2.169897801131e+03 3.646816276008e+02 1.561541827136e+02 9.314088566985e+02 1.706523234748e+03 2.032171441113e+03 5.910686194700e+02 2.832898302725e+02 2.422418849247e+03 1.769795952201e+02 2.242287002478e+03 1.471375847476e+03 1.087355973513e+03 2.168713375739e+02 2.425605297464e+03 2.250692813947e+03 2.354753697540e+03 3.321873245358e+02 2.382478044959e+03 3.371601523875e+02 2.304179017687e+03 2.369785117201e+03 2.179472700266e+03 2.385752361684e+03 2.237168807487e+03 2.371367814390e+03 1.352340948494e+03 2.188654425742e+03 4.262004824468e+02 1.802181522377e+02 2.436044794420e+03 8.536939406852e+01 2.482069599555e+03 1.903996894884e+03 7.419708430239e+02 2.084663921237e+03 7.653707398935e+02 1.667105198177e+03 2.379817402374e+03 2.456159118083e+03 2.179872892793e+02 2.042276926168e+02 9.936822854795e+01 7.240732871444e+02 2.676919412628e+02 2.340622554844e+03 1.233888968356e+02 9.837570293278e+02 1.241655011576e+03 2.262708042174e+03 6.203340290721e+02 1.106551832515e+03 6.652857046371e+02 2.741993065330e+02 2.411031741162e+03 2.009994687077e+03 6.522374833663e+02 2.771043798195e+02 1.382691853637e+02 1.952253798887e+02 2.328995333661e+03 2.019804481614e+03 1.596429260286e+03 1.974282312840e+03 5.111098165801e+02 2.088307151044e+03 1.722753682919e+03 1.889481240506e+02 5.302248011318e+02 2.086876897041e+03 2.237142945961e+03 3.748113546826e+02 2.105590382822e+03 2.169794395968e+03 2.361033161342e+03 1.045616334134e+03 2.472559354120e+03 6.976030835430e+02 1.795855678135e+03 1.260785552041e+02 1.322907147685e+02 8.002624440354e+02 2.106978502039e+03 1.371432759451e+02 1.509537127744e+02 1.908140864411e+03 2.215256432945e+03 9.461150729887e+02 5.824512480256e+02 1.837604386514e+02 4.315589501573e+02 2.480330171430e+02 7.920364127049e+02 1.205105798236e+02 6.069619493187e+02 2.486292220840e+03 1.737647322585e+03 2.152254363164e+03 3.199540410617e+02 7.690353184606e+02 2.419497232894e+03 1.543021340566e+02 5.738671041148e+02 7.487127877304e+02 2.135066409074e+03 4.920355753491e+02 2.234815931185e+03 5.717066653900e+02 2.523539759439e+03 4.262945228532e+02 1.488099700987e+02 2.464352252096e+03 4.790034087575e+02 3.696048600923e+02 2.462234002396e+03 1.439690587060e+02 2.456087832496e+03 2.229098696029e+03 3.091855280403e+02 2.458883430223e+03 3.389423908032e+02 2.906332306539e+02 1.415440428050e+02 2.457998115955e+03 4.969864434608e+02 5.251422997419e+02 1.866994131248e+03 5.247911327919e+02 2.475394110315e+03 5.009330869979e+02 6.244862105430e+02 5.783110855008e+02 1.771048416989e+02 6.298126214141e+02 1.907150689143e+03 3.257575334655e+02 2.274649267916e+03 3.875776188286e+02 1.233743368415e+02 2.478096142521e+03 2.043466506779e+03 2.337009174290e+03 2.514698451164e+02 4.649824062290e+02 3.520738000315e+02 1.894990872213e+03 4.046424921892e+02 2.507449383713e+03 8.188970908824e+02 2.426041351087e+03 1.256533831586e+02 2.475214258547e+03 2.338802668120e+03 7.497357548550e+01 5.452210433724e+02 1.965680646254e+03 2.529246063793e+03 2.256114178872e+03 2.330996910106e+03 1.532252841278e+02 2.430139863197e+03 2.720585205339e+02 2.283498158807e+03 3.184741130406e+02 7.345503721289e+02 1.933014877393e+03 1.730688678434e+02 6.895649032740e+02 3.749654100323e+02 1.314513500880e+02 2.388701110738e+03 2.274752473306e+02 2.291674768353e+03 1.885320274448e+03 2.440136477031e+02 1.807375081551e+03 1.242934179664e+02 2.355805478068e+03 2.470721209067e+03 4.533577127159e+01 2.345754099843e+03 2.095832900970e+02 3.260294759454e+02 2.276373181529e+03 2.513447112054e+03 2.811511665475e+02 2.242914995135e+03 2.359874654129e+02 2.399944568581e+03 1.047947939883e+02 2.402126567185e+03 2.541718264245e+03 2.102731922231e+03 2.345741163863e+03 2.490759454899e+03 5.352069275156e+02 2.319597657438e+03 2.064744681060e+02 2.523860576929e+03 1.671891400113e+02 2.414713999284e+03 2.293152453315e+02 6.761366263991e+02 1.288217717691e+02 2.539573757030e+03 2.228604135629e+03 4.883383861234e+02 1.555877482330e+02 2.517235893517e+02 2.439451332052e+03 6.832700703365e+02 2.522250875348e+03 6.145942587352e+02 1.989734064937e+03 2.288791068317e+03 2.400939597436e+03 2.304048785287e+03 2.561819060435e+02 3.015894681024e+02 4.614440538082e+02 2.271469564646e+03 8.541854400077e+01 2.268383202159e+02 8.272000429552e+01 2.025753593348e+02 2.189032143999e+03 2.426688186664e+03 2.444644820755e+03 2.537779135248e+03 2.453534609618e+03 2.392361764457e+02 3.691964756033e+02 1.394214974961e+02 6.353971124095e+02 5.433395588711e+02 6.632620586340e+02 6.831722110314e+02 4.596918121864e+02 1.949831072952e+03 1.803184002589e+02 1.098080924026e+02 2.382880667952e+03 2.026643089735e+03 2.501060570295e+03 1.466407178553e+02 2.185438660025e+03 1.774068129259e+03 1.913962457598e+03 8.358316974574e+02 1.775775034834e+03 1.551408925438e+03 1.343146682754e+03 1.225214067708e+03 1.092490709628e+03 1.240821034552e+03 1.944810573821e+03 1.733403028737e+03 5.946624021626e+02 1.109287168830e+03 6.020650379070e+02 1.340033743600e+03 1.241686661949e+03 1.383229869608e+03 1.432134244056e+03 7.992492345935e+02 1.454794954904e+03 7.696734506078e+02 1.347148742335e+03 1.622912104239e+03 1.007853665057e+03 1.081563201409e+03 1.917511500528e+03 1.003989828577e+03 1.157104082629e+03 9.140494442531e+02 1.957475684621e+03 1.893749997410e+03 1.553105769600e+03 8.990948920709e+02 1.898765802042e+03 1.957084588640e+03 1.409540398054e+03 1.457780167999e+03 1.571129176472e+03 1.020104481829e+03 1.982081373262e+03 1.575077657419e+03 1.149914770332e+03 6.576333877268e+02 6.243342119456e+02 2.308052015259e+02 9.344093069514e+02 1.364268693610e+03 1.599873091647e+03 1.636508350922e+03 1.558374944084e+03 1.207861437976e+03 2.366791095969e+03 1.878150363354e+03 1.630241479754e+02 1.120621269272e+03 1.841430957569e+03 1.437050458448e+03 1.655402996994e+03 2.519988061117e+02 1.719059246860e+03 2.349742781822e+02 2.383867372322e+03 1.181775571601e+03 7.161204167669e+02 1.671299524218e+03 2.145941730994e+03 8.985266796279e+02 4.551498654406e+02 1.945043183465e+03 6.615608621580e+02 2.149019287745e+03 1.769909713923e+03 9.389029311385e+02 2.445051469868e+03 1.789346926299e+02 1.210962194380e+03 3.689807505256e+02 1.532676160852e+03 2.181007803659e+03 2.440425670601e+03 2.422747290613e+03 6.649386556129e+02 2.328429064393e+03 2.069825773662e+03 5.492667929893e+02 1.835278499852e+03 1.079669627195e+03 6.169707828491e+02 1.661031895742e+02 2.001162178386e+03 1.450031914218e+02 5.365952525418e+02 2.452734202285e+03 1.474937652689e+02 3.182620095658e+02 9.637223305913e+02 2.296125574128e+03 1.786905430373e+03 1.082429367003e+03 1.948918151708e+03 8.081761175385e+02 4.668148390527e+02 7.973506903887e+02 7.533515999965e+02 7.381170744572e+02 1.179791356873e+02 2.211762416976e+03 2.368165028928e+02 4.509765056094e+02 6.101299756759e+02 6.897609918150e+02 5.585861976725e+02 1.756239009357e+02 2.343012962031e+03 9.426066045114e+02 8.849097447904e+02 2.104502500568e+02 2.068491033808e+03 2.399570529245e+03 1.987930003691e+03 5.446966181900e+02 2.003643540751e+03 2.234396705841e+03 1.575761340228e+03 1.012715665172e+03 2.106304916813e+03 2.454912814285e+03 2.071614111007e+02 2.181011750279e+03 2.159820480532e+02 1.386904434992e+03 8.269680402169e+02 6.221384812974e+02 2.105689140202e+03 4.370866782287e+02 2.140975415541e+03 2.053384107022e+03 3.210422883177e+02 7.579537593470e+01 2.508357741282e+02 1.906636857296e+03 2.226776051899e+03 4.715471068591e+02 4.551726700954e+02 2.134803556937e+03 3.718566934769e+02 1.356198682939e+03 4.321856449369e+02 1.765310067506e+03 1.009606352784e+03 4.432680568388e+02 1.199970860913e+03 2.265460056219e+03 2.726833973466e+02 4.957352861584e+02 1.895804252638e+03 1.429610522004e+02 2.131257869592e+03 2.168708810073e+03 1.096141528761e+02 2.265664260580e+03 2.091573499171e+03 2.482179913084e+03 6.868918901413e+02 2.276444889408e+03 1.868603025956e+03 2.276877457797e+03 2.289593384895e+03 2.251503924242e+03 2.279944661192e+03 2.276852341439e+03 1.640857692691e+03 2.154080326294e+03 2.077517917940e+03 1.964492356822e+03 2.116963477994e+03 2.616445135270e+02 4.247195238475e+02 3.460329063659e+02 3.862906867728e+02 8.457534935147e+02 1.733483929864e+03 5.299931757351e+02 3.533548298309e+02 2.423950846844e+03 2.356752339142e+03 2.211702202902e+02 1.674247699136e+02 2.330072155153e+03 1.708484943858e+03 4.726180043864e+02 1.705957665912e+03 2.931119407025e+02 1.741564746603e+03 3.746790310996e+02 4.236480464589e+02 2.063970938246e+03 2.893124037294e+02 7.075589156069e+02 2.362581239059e+02 6.676334483218e+02 1.956400485528e+03 2.166450962282e+02 2.099984523861e+03 7.187431902135e+02 1.891930068219e+03 2.485623517263e+03 8.296437186349e+02 4.859190070474e+02 2.343671455148e+03 6.156962141987e+02 2.396932707881e+03 1.972533391647e+03 2.569974664457e+02 3.355105967726e+02 1.799715112243e+02 2.317434710219e+03 2.000451180946e+03 2.555389875477e+02 2.225647386001e+03 9.487511116084e+02 1.789898256494e+03 1.852680512199e+03 4.229539198528e+02 2.013436900382e+03 3.045336728155e+02 1.873623095376e+03 2.267287207303e+03 4.777507671586e+02 6.084717682778e+02 7.820810340899e+02 8.783859630124e+01 2.771819622334e+02 1.923391066037e+03 1.861846316863e+03 9.890753484255e+01 2.456505352145e+03 2.357509945136e+03 1.819927204478e+03 7.468948666982e+01 2.642010181825e+02 1.717722322678e+02 2.433034480306e+03 2.196778353078e+03 2.456044479213e+03 2.187355449006e+03 1.133014862274e+03 4.822149814011e+02 2.007043545112e+03 1.033783244495e+02 2.375042877159e+02 2.266360737266e+03 7.210034317177e+02 6.925377233867e+02 2.348620943247e+03 1.313883088594e+03 1.732131651356e+03 1.061956828243e+02 1.802574321133e+03 2.292570082652e+03 2.403825399900e+03 3.088094772711e+02 2.032127521537e+02 3.631941008501e+02 1.902601339971e+02 3.922599718135e+02 7.174322817066e+02 1.930123505112e+03 4.815702012319e+02 2.521420279841e+03 2.260976978385e+03 2.463250904794e+03 2.718263945448e+02 2.051909007418e+03 4.185656444220e+02 1.596509459863e+03 2.501822470369e+03 2.387173927673e+03 2.384369162544e+03 6.581571137999e+02 2.170040708112e+02 1.102025046140e+02 2.255738134888e+02 5.486671339122e+02 2.071981985681e+03 2.127874819997e+03 2.100143923648e+03 2.193131164124e+03 2.142848396049e+03 2.367140905531e+03 2.070326352750e+03 2.268321760130e+03 1.182675408925e+03 7.921211483432e+02 3.451873419284e+02 1.985185310702e+03 2.185558859071e+03 2.404031520649e+03 9.596480010239e+02 2.286415507740e+03 3.337478741409e+02 1.865464686447e+03 7.277167821561e+02 1.590180947905e+03 1.951739820306e+02 2.272750206352e+03 2.246579758944e+03 1.847415000337e+03 2.910673595957e+02 2.180700313219e+03 2.530482660264e+03 1.725959057493e+03 2.038861872130e+03 2.058212705558e+03 2.374495497664e+03 2.521023331529e+03 2.098418924103e+03 2.317750575445e+02 2.150686957574e+03 2.246529643783e+03 7.724944137934e+02 8.722704538532e+02 8.396411480373e+01 3.958736387894e+02 6.927496587790e+02 5.224427258908e+02 1.737021085370e+03 1.501229369450e+03 3.474405088800e+02 1.969673237345e+03 2.506180749768e+03 5.926664437624e+02 2.176379061550e+03 1.818277437744e+03 3.242812858092e+02 4.409372772027e+02 4.572287510793e+02 2.422941734980e+03 6.598165726764e+01 2.396442648711e+03 2.172541608977e+03 2.435605770250e+03 3.281931579872e+02 2.392119175907e+03 2.103805427964e+03 6.775454773814e+02 2.029108155622e+03 5.970371497523e+02 2.224746849245e+03 7.037865132728e+02 3.920441720767e+02 8.835687876636e+02 4.167199429759e+02 2.068876886921e+03 2.386296143404e+03 6.058824267634e+02 3.495396790467e+02 2.355686003682e+02 2.163246637815e+03 2.090836144373e+03 4.175318365283e+02 1.850202225863e+02 1.935367182654e+03 2.017311282095e+03 1.678639380224e+03 4.821976673796e+02 2.381401483472e+03 1.711655206863e+03 2.247590237380e+03 3.