 TITLE = "Time curves in points"
 VARIABLES = "TIME "  "PRESSURE1"  "TEMPERATURE1"  "VELOCITY_X1" 
 ZONE T="POINT=POINT_LEFT"
0.000000000000e+00 1.000000000000e+06 2.500000000000e+01 0.000000000000e+00 
8.640000000000e+04 1.094637631110e+06 2.600000000000e+01 9.054865630530e-11 
1.728000000000e+05 1.111980631057e+06 2.700000000000e+01 1.111241524927e-10 
2.592000000000e+05 1.115073043300e+06 2.800000000000e+01 1.149175628088e-10 
3.456000000000e+05 1.115622230844e+06 2.900000000000e+01 1.155945509877e-10 
4.320000000000e+05 1.115719707700e+06 3.000000000000e+01 1.157147931065e-10 
5.184000000000e+05 1.115737007844e+06 3.100000000000e+01 1.157361355573e-10 
6.048000000000e+05 1.115740078233e+06 3.200000000000e+01 1.157399234194e-10 
6.912000000000e+05 1.115740623159e+06 3.300000000000e+01 1.157405956630e-10 
7.776000000000e+05 1.115740719873e+06 3.400000000000e+01 1.157407150287e-10 
8.640000000000e+05 1.115740737035e+06 3.500000000000e+01 1.157407361604e-10 
