 TITLE = "Time curves in points"
 VARIABLES = "TIME "  "PRESSURE1"  "TEMPERATURE1"  "VELOCITY_X1" 
 ZONE T="POINT=POINT_RIGHT"
0.000000000000e+00 1.000000000000e+06 2.500000000000e+01 0.000000000000e+00 
8.640000000000e+04 1.000000000000e+06 2.600000000000e+01 1.964436800426e-08 
1.728000000000e+05 1.000000000000e+06 2.700000000000e+01 2.244021762686e-08 
2.592000000000e+05 1.000000000000e+06 2.800000000000e+01 2.292749398472e-08 
3.456000000000e+05 1.000000000000e+06 2.900000000000e+01 2.301379184391e-08 
4.320000000000e+05 1.000000000000e+06 3.000000000000e+01 2.302910366133e-08 
5.184000000000e+05 1.000000000000e+06 3.100000000000e+01 2.303182106899e-08 
6.048000000000e+05 1.000000000000e+06 3.200000000000e+01 2.303230334540e-08 
6.912000000000e+05 1.000000000000e+06 3.300000000000e+01 2.303238893854e-08 
7.776000000000e+05 1.000000000000e+06 3.400000000000e+01 2.303240412932e-08 
8.640000000000e+05 1.000000000000e+06 3.500000000000e+01 2.303240682542e-08 
