<?xml version="1.0"?>
<!-- Time step: 11830 | Time: 5.000000000000e+03 -->
<VTKFile type="UnstructuredGrid" version="0.1" byte_order="LittleEndian">
  <UnstructuredGrid>
    <Piece NumberOfPoints="93" NumberOfCells="60">
      <Points>
        <DataArray type="Float64" NumberOfComponents="3" format="ascii">
          0.000000000000e+00 0.000000000000e+00 0.000000000000e+00
          4.000000000000e-03 0.000000000000e+00 0.000000000000e+00
          4.000000000000e-03 5.000000000000e-03 0.000000000000e+00
          0.000000000000e+00 5.000000000000e-03 0.000000000000e+00
          4.000000000000e-03 1.000000000000e-02 0.000000000000e+00
          0.000000000000e+00 1.000000000000e-02 0.000000000000e+00
          7.714781516967e-03 0.000000000000e+00 0.000000000000e+00
          7.714781516967e-03 5.000000000000e-03 0.000000000000e+00
          7.714781516967e-03 1.000000000000e-02 0.000000000000e+00
          1.116468194667e-02 0.000000000000e+00 0.000000000000e+00
          1.116468194667e-02 5.000000000000e-03 0.000000000000e+00
          1.116468194667e-02 1.000000000000e-02 0.000000000000e+00
          1.436858853457e-02 0.000000000000e+00 0.000000000000e+00
          1.436858853457e-02 5.000000000000e-03 0.000000000000e+00
          1.436858853457e-02 1.000000000000e-02 0.000000000000e+00
          1.734404177828e-02 0.000000000000e+00 0.000000000000e+00
          1.734404177828e-02 5.000000000000e-03 0.000000000000e+00
          1.734404177828e-02 1.000000000000e-02 0.000000000000e+00
          2.010733145687e-02 0.000000000000e+00 0.000000000000e+00
          2.010733145687e-02 5.000000000000e-03 0.000000000000e+00
          2.010733145687e-02 1.000000000000e-02 0.000000000000e+00
          2.267358581288e-02 0.000000000000e+00 0.000000000000e+00
          2.267358581288e-02 5.000000000000e-03 0.000000000000e+00
          2.267358581288e-02 1.000000000000e-02 0.000000000000e+00
          2.505685437526e-02 0.000000000000e+00 0.000000000000e+00
          2.505685437526e-02 5.000000000000e-03 0.000000000000e+00
          2.505685437526e-02 1.000000000000e-02 0.000000000000e+00
          2.727018487664e-02 0.000000000000e+00 0.000000000000e+00
          2.727018487664e-02 5.000000000000e-03 0.000000000000e+00
          2.727018487664e-02 1.000000000000e-02 0.000000000000e+00
          2.932569468600e-02 0.000000000000e+00 0.000000000000e+00
          2.932569468600e-02 5.000000000000e-03 0.000000000000e+00
          2.932569468600e-02 1.000000000000e-02 0.000000000000e+00
          3.123463714795e-02 0.000000000000e+00 0.000000000000e+00
          3.123463714795e-02 5.000000000000e-03 0.000000000000e+00
          3.123463714795e-02 1.000000000000e-02 0.000000000000e+00
          3.300746319159e-02 0.000000000000e+00 0.000000000000e+00
          3.300746319159e-02 5.000000000000e-03 0.000000000000e+00
          3.300746319159e-02 1.000000000000e-02 0.000000000000e+00
          3.465387854652e-02 0.000000000000e+00 0.000000000000e+00
          3.465387854652e-02 5.000000000000e-03 0.000000000000e+00
          3.465387854652e-02 1.000000000000e-02 0.000000000000e+00
          3.618289687896e-02 0.000000000000e+00 0.000000000000e+00
          3.618289687896e-02 5.000000000000e-03 0.000000000000e+00
          3.618289687896e-02 1.000000000000e-02 0.000000000000e+00
          3.760288913907e-02 0.000000000000e+00 0.000000000000e+00
          3.760288913907e-02 5.000000000000e-03 0.000000000000e+00
          3.760288913907e-02 1.000000000000e-02 0.000000000000e+00
          3.892162938960e-02 0.000000000000e+00 0.000000000000e+00
          3.892162938960e-02 5.000000000000e-03 0.000000000000e+00
          3.892162938960e-02 1.000000000000e-02 0.000000000000e+00
          4.014633736668e-02 0.000000000000e+00 0.000000000000e+00
          4.014633736668e-02 5.000000000000e-03 0.000000000000e+00
          4.014633736668e-02 1.000000000000e-02 0.000000000000e+00
          4.128371800592e-02 0.000000000000e+00 0.000000000000e+00
          4.128371800592e-02 5.000000000000e-03 0.000000000000e+00
          4.128371800592e-02 1.000000000000e-02 0.000000000000e+00
          4.233999815001e-02 0.000000000000e+00 0.000000000000e+00
          4.233999815001e-02 5.000000000000e-03 0.000000000000e+00
          4.233999815001e-02 1.000000000000e-02 0.000000000000e+00
          4.332096063902e-02 0.000000000000e+00 0.000000000000e+00
          4.332096063902e-02 5.000000000000e-03 0.000000000000e+00
          4.332096063902e-02 1.000000000000e-02 0.000000000000e+00
          4.423197596978e-02 0.000000000000e+00 0.000000000000e+00
          4.423197596978e-02 5.000000000000e-03 0.000000000000e+00
          4.423197596978e-02 1.000000000000e-02 0.000000000000e+00
          4.507803169786e-02 0.000000000000e+00 0.000000000000e+00
          4.507803169786e-02 5.000000000000e-03 0.000000000000e+00
          4.507803169786e-02 1.000000000000e-02 0.000000000000e+00
          4.586375974312e-02 0.000000000000e+00 0.000000000000e+00
          4.586375974312e-02 5.000000000000e-03 0.000000000000e+00
          4.586375974312e-02 1.000000000000e-02 0.000000000000e+00
          4.659346174809e-02 0.000000000000e+00 0.000000000000e+00
          4.659346174809e-02 5.000000000000e-03 0.000000000000e+00
          4.659346174809e-02 1.000000000000e-02 0.000000000000e+00
          4.727113262833e-02 0.000000000000e+00 0.000000000000e+00
          4.727113262833e-02 5.000000000000e-03 0.000000000000e+00
          4.727113262833e-02 1.000000000000e-02 0.000000000000e+00
          4.790048244345e-02 0.000000000000e+00 0.000000000000e+00
          4.790048244345e-02 5.000000000000e-03 0.000000000000e+00
          4.790048244345e-02 1.000000000000e-02 0.000000000000e+00
          4.848495670869e-02 0.000000000000e+00 0.000000000000e+00
          4.848495670869e-02 5.000000000000e-03 0.000000000000e+00
          4.848495670869e-02 1.000000000000e-02 0.000000000000e+00
          4.902775525810e-02 0.000000000000e+00 0.000000000000e+00
          4.902775525810e-02 5.000000000000e-03 0.000000000000e+00
          4.902775525810e-02 1.000000000000e-02 0.000000000000e+00
          4.953184976279e-02 0.000000000000e+00 0.000000000000e+00
          4.953184976279e-02 5.000000000000e-03 0.000000000000e+00
          4.953184976279e-02 1.000000000000e-02 0.000000000000e+00
          5.000000000000e-02 0.000000000000e+00 0.000000000000e+00
          5.000000000000e-02 5.000000000000e-03 0.000000000000e+00
          5.000000000000e-02 1.000000000000e-02 0.000000000000e+00
        </DataArray>
      </Points>
      <Cells>
        <DataArray type="Int64" Name="connectivity" format="ascii">
          0 1 2 3 
          3 2 4 5 
          1 6 7 2 
          2 7 8 4 
          6 9 10 7 
          7 10 11 8 
          9 12 13 10 
          10 13 14 11 
          12 15 16 13 
          13 16 17 14 
          15 18 19 16 
          16 19 20 17 
          18 21 22 19 
          19 22 23 20 
          21 24 25 22 
          22 25 26 23 
          24 27 28 25 
          25 28 29 26 
          27 30 31 28 
          28 31 32 29 
          30 33 34 31 
          31 34 35 32 
          33 36 37 34 
          34 37 38 35 
          36 39 40 37 
          37 40 41 38 
          39 42 43 40 
          40 43 44 41 
          42 45 46 43 
          43 46 47 44 
          45 48 49 46 
          46 49 50 47 
          48 51 52 49 
          49 52 53 50 
          51 54 55 52 
          52 55 56 53 
          54 57 58 55 
          55 58 59 56 
          57 60 61 58 
          58 61 62 59 
          60 63 64 61 
          61 64 65 62 
          63 66 67 64 
          64 67 68 65 
          66 69 70 67 
          67 70 71 68 
          69 72 73 70 
          70 73 74 71 
          72 75 76 73 
          73 76 77 74 
          75 78 79 76 
          76 79 80 77 
          78 81 82 79 
          79 82 83 80 
          81 84 85 82 
          82 85 86 83 
          84 87 88 85 
          85 88 89 86 
          87 90 91 88 
          88 91 92 89 
        </DataArray>
        <DataArray type="Int64" Name="offsets" format="ascii">
          4 8 12 16 20 24 28 32 36 40 44 48 52 56 60 64 68 72 76 80 84 88 92 96 100 104 108 112 116 120 124 128 132 136 140 144 148 152 156 160 164 168 172 176 180 184 188 192 196 200 204 208 212 216 220 224 228 232 236 240 
        </DataArray>
        <DataArray type="UInt8" Name="types" format="ascii">
          9 9 9 9 9 9 9 9 9 9 9 9 9 9 9 9 9 9 9 9 9 9 9 9 9 9 9 9 9 9 9 9 9 9 9 9 9 9 9 9 9 9 9 9 9 9 9 9 9 9 9 9 9 9 9 9 9 9 9 9 
        </DataArray>
      </Cells>
      <PointData Scalars="PRESSURE1">
        <DataArray type="Float64" Name="PRESSURE1" format="ascii">
          1.085466345735e+05 1.085466345735e+05 1.085466345735e+05 1.085466345735e+05 1.085466345735e+05 1.085466345735e+05 1.085466345735e+05 1.085466345735e+05 1.085466345735e+05 1.085466345735e+05 1.085466345735e+05 1.085466345735e+05 1.085466345735e+05 1.085466345735e+05 1.085466345735e+05 1.085466345735e+05 1.085466345735e+05 1.085466345735e+05 1.085466345735e+05 1.085466345735e+05 1.085466345735e+05 1.085466345735e+05 1.085466345735e+05 1.085466345735e+05 1.085466345735e+05 1.085466345735e+05 1.085466345735e+05 1.085466345735e+05 1.085466345735e+05 1.085466345735e+05 1.085466345735e+05 1.085466345735e+05 1.085466345735e+05 1.085466345735e+05 1.085466345735e+05 1.085466345735e+05 1.085466345735e+05 1.085466345735e+05 1.085466345735e+05 1.085466345735e+05 1.085466345735e+05 1.085466345735e+05 1.085466345735e+05 1.085466345735e+05 1.085466345735e+05 1.085466345735e+05 1.085466345735e+05 1.085466345735e+05 1.085466345735e+05 1.085466345735e+05 1.085466345735e+05 1.085466345735e+05 1.085466345735e+05 1.085466345735e+05 1.085466345735e+05 1.085466345735e+05 1.085466345735e+05 1.085466345735e+05 1.085466345735e+05 1.085466345735e+05 1.085466345735e+05 1.085466345735e+05 1.085466345735e+05 1.085466345735e+05 1.085466345735e+05 1.085466345735e+05 1.085466345735e+05 1.085466345735e+05 1.085466345735e+05 1.085466345735e+05 1.085466345735e+05 1.085466345735e+05 1.085466345735e+05 1.085466345735e+05 1.085466345735e+05 1.085466345735e+05 1.085466345735e+05 1.085466345735e+05 1.085466345735e+05 1.085466345735e+05 1.085466345735e+05 1.085466345735e+05 1.085466345735e+05 1.085466345735e+05 1.085466345735e+05 1.085466345735e+05 1.085466345735e+05 1.085466345735e+05 1.085466345735e+05 1.085466345735e+05 1.085466345735e+05 1.085466345735e+05 1.085466345735e+05 
        </DataArray>
        <DataArray type="Float64" Name="TEMPERATURE1" format="ascii">
          3.180625000047e+02 3.180621000047e+02 3.180621000047e+02 3.180625000047e+02 3.180621000047e+02 3.180625000047e+02 3.180610120584e+02 3.180610120584e+02 3.180610120584e+02 3.180593837517e+02 3.180593837517e+02 3.180593837517e+02 3.180573385963e+02 3.180573385963e+02 3.180573385963e+02 3.180549796101e+02 3.180549796101e+02 3.180549796101e+02 3.180523923853e+02 3.180523923853e+02 3.180523923853e+02 3.180496477174e+02 3.180496477174e+02 3.180496477174e+02 3.180468038559e+02 3.180468038559e+02 3.180468038559e+02 3.180439084301e+02 3.180439084301e+02 3.180439084301e+02 3.180410000955e+02 3.180410000955e+02 3.180410000955e+02 3.180381099408e+02 3.180381099408e+02 3.180381099408e+02 3.180352626891e+02 3.180352626891e+02 3.180352626891e+02 3.180324777223e+02 3.180324777223e+02 3.180324777223e+02 3.180297699541e+02 3.180297699541e+02 3.180297699541e+02 3.180271505729e+02 3.180271505729e+02 3.180271505729e+02 3.180246276739e+02 3.180246276739e+02 3.180246276739e+02 3.180222067946e+02 3.180222067946e+02 3.180222067946e+02 3.180198913704e+02 3.180198913704e+02 3.180198913704e+02 3.180176831186e+02 3.180176831186e+02 3.180176831186e+02 3.180155823640e+02 3.180155823640e+02 3.180155823640e+02 3.180135883123e+02 3.180135883123e+02 3.180135883123e+02 3.180116992812e+02 3.180116992812e+02 3.180116992812e+02 3.180099128933e+02 3.180099128933e+02 3.180099128933e+02 3.180082262378e+02 3.180082262378e+02 3.180082262378e+02 3.180066360052e+02 3.180066360052e+02 3.180066360052e+02 3.180051385993e+02 3.180051385993e+02 3.180051385993e+02 3.180037302290e+02 3.180037302290e+02 3.180037302290e+02 3.180024069851e+02 3.180024069851e+02 3.180024069851e+02 3.180011649012e+02 3.180011649012e+02 3.180011649012e+02 3.180000000047e+02 3.180000000047e+02 3.180000000047e+02 
        </DataArray>
        <DataArray type="Float64" Name="TEMPERATURE2" format="ascii">
          4.054966077887e+02 4.050966219318e+02 4.050966219318e+02 4.054966077887e+02 4.050966219318e+02 4.054966077887e+02 4.040087139542e+02 4.040087139542e+02 4.040087139542e+02 4.023804643833e+02 4.023804643833e+02 4.023804643833e+02 4.003353803784e+02 4.003353803784e+02 4.003353803784e+02 3.979764758095e+02 3.979764758095e+02 3.979764758095e+02 3.953893397585e+02 3.953893397585e+02 3.953893397585e+02 3.926447651762e+02 3.926447651762e+02 3.926447651762e+02 3.898009994593e+02 3.898009994593e+02 3.898009994593e+02 3.869056701292e+02 3.869056701292e+02 3.869056701292e+02 3.839974313922e+02 3.839974313922e+02 3.839974313922e+02 3.811073709880e+02 3.811073709880e+02 3.811073709880e+02 3.782602112390e+02 3.782602112390e+02 3.782602112390e+02 3.754753334829e+02 3.754753334829e+02 3.754753334829e+02 3.727676509936e+02 3.727676509936e+02 3.727676509936e+02 3.701483519851e+02 3.701483519851e+02 3.701483519851e+02 3.676255312693e+02 3.676255312693e+02 3.676255312693e+02 3.652047265335e+02 3.652047265335e+02 3.652047265335e+02 3.628893729625e+02 3.628893729625e+02 3.628893729625e+02 3.606811879973e+02 3.606811879973e+02 3.606811879973e+02 3.585804963635e+02 3.585804963635e+02 3.585804963635e+02 3.565865040686e+02 3.565865040686e+02 3.565865040686e+02 3.546975288372e+02 3.546975288372e+02 3.546975288372e+02 3.529111933966e+02 3.529111933966e+02 3.529111933966e+02 3.512245871080e+02 3.512245871080e+02 3.512245871080e+02 3.496344006605e+02 3.496344006605e+02 3.496344006605e+02 3.481370378674e+02 3.481370378674e+02 3.481370378674e+02 3.467287080252e+02 3.467287080252e+02 3.467287080252e+02 3.454055017995e+02 3.454055017995e+02 3.454055017995e+02 3.441634531696e+02 3.441634531696e+02 3.441634531696e+02 3.429985896027e+02 3.429985896027e+02 3.429985896027e+02 
        </DataArray>
        <DataArray type="Float64" Name="CONCENTRATION1" format="ascii">
          0.000000000000e+00 0.000000000000e+00 0.000000000000e+00 0.000000000000e+00 0.000000000000e+00 0.000000000000e+00 0.000000000000e+00 0.000000000000e+00 0.000000000000e+00 0.000000000000e+00 0.000000000000e+00 0.000000000000e+00 0.000000000000e+00 0.000000000000e+00 0.000000000000e+00 0.000000000000e+00 0.000000000000e+00 0.000000000000e+00 0.000000000000e+00 0.000000000000e+00 0.000000000000e+00 0.000000000000e+00 0.000000000000e+00 0.000000000000e+00 0.000000000000e+00 0.000000000000e+00 0.000000000000e+00 0.000000000000e+00 0.000000000000e+00 0.000000000000e+00 0.000000000000e+00 0.000000000000e+00 0.000000000000e+00 0.000000000000e+00 0.000000000000e+00 0.000000000000e+00 0.000000000000e+00 0.000000000000e+00 0.000000000000e+00 0.000000000000e+00 0.000000000000e+00 0.000000000000e+00 0.000000000000e+00 0.000000000000e+00 0.000000000000e+00 0.000000000000e+00 0.000000000000e+00 0.000000000000e+00 0.000000000000e+00 0.000000000000e+00 0.000000000000e+00 0.000000000000e+00 0.000000000000e+00 0.000000000000e+00 0.000000000000e+00 0.000000000000e+00 0.000000000000e+00 0.000000000000e+00 0.000000000000e+00 0.000000000000e+00 0.000000000000e+00 0.000000000000e+00 0.000000000000e+00 0.000000000000e+00 0.000000000000e+00 0.000000000000e+00 0.000000000000e+00 0.000000000000e+00 0.000000000000e+00 0.000000000000e+00 0.000000000000e+00 0.000000000000e+00 0.000000000000e+00 0.000000000000e+00 0.000000000000e+00 0.000000000000e+00 0.000000000000e+00 0.000000000000e+00 0.000000000000e+00 0.000000000000e+00 0.000000000000e+00 0.000000000000e+00 0.000000000000e+00 0.000000000000e+00 0.000000000000e+00 0.000000000000e+00 0.000000000000e+00 0.000000000000e+00 0.000000000000e+00 0.000000000000e+00 0.000000000000e+00 0.000000000000e+00 0.000000000000e+00 
        </DataArray>
      </PointData>
      <CellData>
      </CellData>
    </Piece>
  </UnstructuredGrid>
</VTKFile>
