VARIABLES = "X","Y","Z","VX","VY","VZ"
ZONE T="0.000000000000e+00s", I=100, F=POINT, C=BLACK
2.500000000000e-01 5.000000000000e-01 -2.000200000000e+03 0.000000000000e+00 0.000000000000e+00 0.000000000000e+00 
7.500000000000e-01 5.000000000000e-01 -2.000200000000e+03 0.000000000000e+00 0.000000000000e+00 0.000000000000e+00 
1.250000000000e+00 5.000000000000e-01 -2.000200000000e+03 0.000000000000e+00 0.000000000000e+00 0.000000000000e+00 
1.750000000000e+00 5.000000000000e-01 -2.000200000000e+03 0.000000000000e+00 0.000000000000e+00 0.000000000000e+00 
2.250000000000e+00 5.000000000000e-01 -2.000200000000e+03 0.000000000000e+00 0.000000000000e+00 0.000000000000e+00 
2.750000000000e+00 5.000000000000e-01 -2.000200000000e+03 0.000000000000e+00 0.000000000000e+00 0.000000000000e+00 
3.250000000000e+00 5.000000000000e-01 -2.000200000000e+03 0.000000000000e+00 0.000000000000e+00 0.000000000000e+00 
3.750000000000e+00 5.000000000000e-01 -2.000200000000e+03 0.000000000000e+00 0.000000000000e+00 0.000000000000e+00 
4.250000000000e+00 5.000000000000e-01 -2.000200000000e+03 0.000000000000e+00 0.000000000000e+00 0.000000000000e+00 
4.750000000000e+00 5.000000000000e-01 -2.000200000000e+03 0.000000000000e+00 0.000000000000e+00 0.000000000000e+00 
5.250000000000e+00 5.000000000000e-01 -2.000200000000e+03 0.000000000000e+00 0.000000000000e+00 0.000000000000e+00 
5.750000000000e+00 5.000000000000e-01 -2.000200000000e+03 0.000000000000e+00 0.000000000000e+00 0.000000000000e+00 
6.250000000000e+00 5.000000000000e-01 -2.000200000000e+03 0.000000000000e+00 0.000000000000e+00 0.000000000000e+00 
6.750000000000e+00 5.000000000000e-01 -2.000200000000e+03 0.000000000000e+00 0.000000000000e+00 0.000000000000e+00 
7.250000000000e+00 5.000000000000e-01 -2.000200000000e+03 0.000000000000e+00 0.000000000000e+00 0.000000000000e+00 
7.750000000000e+00 5.000000000000e-01 -2.000200000000e+03 0.000000000000e+00 0.000000000000e+00 0.000000000000e+00 
8.250000000000e+00 5.000000000000e-01 -2.000200000000e+03 0.000000000000e+00 0.000000000000e+00 0.000000000000e+00 
8.750000000000e+00 5.000000000000e-01 -2.000200000000e+03 0.000000000000e+00 0.000000000000e+00 0.000000000000e+00 
9.250000000000e+00 5.000000000000e-01 -2.000200000000e+03 0.000000000000e+00 0.000000000000e+00 0.000000000000e+00 
9.750000000000e+00 5.000000000000e-01 -2.000200000000e+03 0.000000000000e+00 0.000000000000e+00 0.000000000000e+00 
2.500000000000e-01 5.000000000000e-01 -2.000600000000e+03 0.000000000000e+00 0.000000000000e+00 0.000000000000e+00 
7.500000000000e-01 5.000000000000e-01 -2.000600000000e+03 0.000000000000e+00 0.000000000000e+00 0.000000000000e+00 
1.250000000000e+00 5.000000000000e-01 -2.000600000000e+03 0.000000000000e+00 0.000000000000e+00 0.000000000000e+00 
1.750000000000e+00 5.000000000000e-01 -2.000600000000e+03 0.000000000000e+00 0.000000000000e+00 0.000000000000e+00 
2.250000000000e+00 5.000000000000e-01 -2.000600000000e+03 0.000000000000e+00 0.000000000000e+00 0.000000000000e+00 
2.750000000000e+00 5.000000000000e-01 -2.000600000000e+03 0.000000000000e+00 0.000000000000e+00 0.000000000000e+00 
3.250000000000e+00 5.000000000000e-01 -2.000600000000e+03 0.000000000000e+00 0.000000000000e+00 0.000000000000e+00 
3.750000000000e+00 5.000000000000e-01 -2.000600000000e+03 0.000000000000e+00 0.000000000000e+00 0.000000000000e+00 
4.250000000000e+00 5.000000000000e-01 -2.000600000000e+03 0.000000000000e+00 0.000000000000e+00 0.000000000000e+00 
4.750000000000e+00 5.000000000000e-01 -2.000600000000e+03 0.000000000000e+00 0.000000000000e+00 0.000000000000e+00 
5.250000000000e+00 5.000000000000e-01 -2.000600000000e+03 0.000000000000e+00 0.000000000000e+00 0.000000000000e+00 
5.750000000000e+00 5.000000000000e-01 -2.000600000000e+03 0.000000000000e+00 0.000000000000e+00 0.000000000000e+00 
6.250000000000e+00 5.000000000000e-01 -2.000600000000e+03 0.000000000000e+00 0.000000000000e+00 0.000000000000e+00 
6.750000000000e+00 5.000000000000e-01 -2.000600000000e+03 0.000000000000e+00 0.000000000000e+00 0.000000000000e+00 
7.250000000000e+00 5.000000000000e-01 -2.000600000000e+03 0.000000000000e+00 0.000000000000e+00 0.000000000000e+00 
7.750000000000e+00 5.000000000000e-01 -2.000600000000e+03 0.000000000000e+00 0.000000000000e+00 0.000000000000e+00 
8.250000000000e+00 5.000000000000e-01 -2.000600000000e+03 0.000000000000e+00 0.000000000000e+00 0.000000000000e+00 
8.750000000000e+00 5.000000000000e-01 -2.000600000000e+03 0.000000000000e+00 0.000000000000e+00 0.000000000000e+00 
9.250000000000e+00 5.000000000000e-01 -2.000600000000e+03 0.000000000000e+00 0.000000000000e+00 0.000000000000e+00 
9.750000000000e+00 5.000000000000e-01 -2.000600000000e+03 0.000000000000e+00 0.000000000000e+00 0.000000000000e+00 
2.500000000000e-01 5.000000000000e-01 -2.001000000000e+03 0.000000000000e+00 0.000000000000e+00 0.000000000000e+00 
7.500000000000e-01 5.000000000000e-01 -2.001000000000e+03 0.000000000000e+00 0.000000000000e+00 0.000000000000e+00 
1.250000000000e+00 5.000000000000e-01 -2.001000000000e+03 0.000000000000e+00 0.000000000000e+00 0.000000000000e+00 
1.750000000000e+00 5.000000000000e-01 -2.001000000000e+03 0.000000000000e+00 0.000000000000e+00 0.000000000000e+00 
2.250000000000e+00 5.000000000000e-01 -2.001000000000e+03 0.000000000000e+00 0.000000000000e+00 0.000000000000e+00 
2.750000000000e+00 5.000000000000e-01 -2.001000000000e+03 0.000000000000e+00 0.000000000000e+00 0.000000000000e+00 
3.250000000000e+00 5.000000000000e-01 -2.001000000000e+03 0.000000000000e+00 0.000000000000e+00 0.000000000000e+00 
3.750000000000e+00 5.000000000000e-01 -2.001000000000e+03 0.000000000000e+00 0.000000000000e+00 0.000000000000e+00 
4.250000000000e+00 5.000000000000e-01 -2.001000000000e+03 0.000000000000e+00 0.000000000000e+00 0.000000000000e+00 
4.750000000000e+00 5.000000000000e-01 -2.001000000000e+03 0.000000000000e+00 0.000000000000e+00 0.000000000000e+00 
5.250000000000e+00 5.000000000000e-01 -2.001000000000e+03 0.000000000000e+00 0.000000000000e+00 0.000000000000e+00 
5.750000000000e+00 5.000000000000e-01 -2.001000000000e+03 0.000000000000e+00 0.000000000000e+00 0.000000000000e+00 
6.250000000000e+00 5.000000000000e-01 -2.001000000000e+03 0.000000000000e+00 0.000000000000e+00 0.000000000000e+00 
6.750000000000e+00 5.000000000000e-01 -2.001000000000e+03 0.000000000000e+00 0.000000000000e+00 0.000000000000e+00 
7.250000000000e+00 5.000000000000e-01 -2.001000000000e+03 0.000000000000e+00 0.000000000000e+00 0.000000000000e+00 
7.750000000000e+00 5.000000000000e-01 -2.001000000000e+03 0.000000000000e+00 0.000000000000e+00 0.000000000000e+00 
8.250000000000e+00 5.000000000000e-01 -2.001000000000e+03 0.000000000000e+00 0.000000000000e+00 0.000000000000e+00 
8.750000000000e+00 5.000000000000e-01 -2.001000000000e+03 0.000000000000e+00 0.000000000000e+00 0.000000000000e+00 
9.250000000000e+00 5.000000000000e-01 -2.001000000000e+03 0.000000000000e+00 0.000000000000e+00 0.000000000000e+00 
9.750000000000e+00 5.000000000000e-01 -2.001000000000e+03 0.000000000000e+00 0.000000000000e+00 0.000000000000e+00 
2.500000000000e-01 5.000000000000e-01 -2.001400000000e+03 0.000000000000e+00 0.000000000000e+00 0.000000000000e+00 
7.500000000000e-01 5.000000000000e-01 -2.001400000000e+03 0.000000000000e+00 0.000000000000e+00 0.000000000000e+00 
1.250000000000e+00 5.000000000000e-01 -2.001400000000e+03 0.000000000000e+00 0.000000000000e+00 0.000000000000e+00 
1.750000000000e+00 5.000000000000e-01 -2.001400000000e+03 0.000000000000e+00 0.000000000000e+00 0.000000000000e+00 
2.250000000000e+00 5.000000000000e-01 -2.001400000000e+03 0.000000000000e+00 0.000000000000e+00 0.000000000000e+00 
2.750000000000e+00 5.000000000000e-01 -2.001400000000e+03 0.000000000000e+00 0.000000000000e+00 0.000000000000e+00 
3.250000000000e+00 5.000000000000e-01 -2.001400000000e+03 0.000000000000e+00 0.000000000000e+00 0.000000000000e+00 
3.750000000000e+00 5.000000000000e-01 -2.001400000000e+03 0.000000000000e+00 0.000000000000e+00 0.000000000000e+00 
4.250000000000e+00 5.000000000000e-01 -2.001400000000e+03 0.000000000000e+00 0.000000000000e+00 0.000000000000e+00 
4.750000000000e+00 5.000000000000e-01 -2.001400000000e+03 0.000000000000e+00 0.000000000000e+00 0.000000000000e+00 
5.250000000000e+00 5.000000000000e-01 -2.001400000000e+03 0.000000000000e+00 0.000000000000e+00 0.000000000000e+00 
5.750000000000e+00 5.000000000000e-01 -2.001400000000e+03 0.000000000000e+00 0.000000000000e+00 0.000000000000e+00 
6.250000000000e+00 5.000000000000e-01 -2.001400000000e+03 0.000000000000e+00 0.000000000000e+00 0.000000000000e+00 
6.750000000000e+00 5.000000000000e-01 -2.001400000000e+03 0.000000000000e+00 0.000000000000e+00 0.000000000000e+00 
7.250000000000e+00 5.000000000000e-01 -2.001400000000e+03 0.000000000000e+00 0.000000000000e+00 0.000000000000e+00 
7.750000000000e+00 5.000000000000e-01 -2.001400000000e+03 0.000000000000e+00 0.000000000000e+00 0.000000000000e+00 
8.250000000000e+00 5.000000000000e-01 -2.001400000000e+03 0.000000000000e+00 0.000000000000e+00 0.000000000000e+00 
8.750000000000e+00 5.000000000000e-01 -2.001400000000e+03 0.000000000000e+00 0.000000000000e+00 0.000000000000e+00 
9.250000000000e+00 5.000000000000e-01 -2.001400000000e+03 0.000000000000e+00 0.000000000000e+00 0.000000000000e+00 
9.750000000000e+00 5.000000000000e-01 -2.001400000000e+03 0.000000000000e+00 0.000000000000e+00 0.000000000000e+00 
2.500000000000e-01 5.000000000000e-01 -2.001800000000e+03 0.000000000000e+00 0.000000000000e+00 0.000000000000e+00 
7.500000000000e-01 5.000000000000e-01 -2.001800000000e+03 0.000000000000e+00 0.000000000000e+00 0.000000000000e+00 
1.250000000000e+00 5.000000000000e-01 -2.001800000000e+03 0.000000000000e+00 0.000000000000e+00 0.000000000000e+00 
1.750000000000e+00 5.000000000000e-01 -2.001800000000e+03 0.000000000000e+00 0.000000000000e+00 0.000000000000e+00 
2.250000000000e+00 5.000000000000e-01 -2.001800000000e+03 0.000000000000e+00 0.000000000000e+00 0.000000000000e+00 
2.750000000000e+00 5.000000000000e-01 -2.001800000000e+03 0.000000000000e+00 0.000000000000e+00 0.000000000000e+00 
3.250000000000e+00 5.000000000000e-01 -2.001800000000e+03 0.000000000000e+00 0.000000000000e+00 0.000000000000e+00 
3.750000000000e+00 5.000000000000e-01 -2.001800000000e+03 0.000000000000e+00 0.000000000000e+00 0.000000000000e+00 
4.250000000000e+00 5.000000000000e-01 -2.001800000000e+03 0.000000000000e+00 0.000000000000e+00 0.000000000000e+00 
4.750000000000e+00 5.000000000000e-01 -2.001800000000e+03 0.000000000000e+00 0.000000000000e+00 0.000000000000e+00 
5.250000000000e+00 5.000000000000e-01 -2.001800000000e+03 0.000000000000e+00 0.000000000000e+00 0.000000000000e+00 
5.750000000000e+00 5.000000000000e-01 -2.001800000000e+03 0.000000000000e+00 0.000000000000e+00 0.000000000000e+00 
6.250000000000e+00 5.000000000000e-01 -2.001800000000e+03 0.000000000000e+00 0.000000000000e+00 0.000000000000e+00 
6.750000000000e+00 5.000000000000e-01 -2.001800000000e+03 0.000000000000e+00 0.000000000000e+00 0.000000000000e+00 
7.250000000000e+00 5.000000000000e-01 -2.001800000000e+03 0.000000000000e+00 0.000000000000e+00 0.000000000000e+00 
7.750000000000e+00 5.000000000000e-01 -2.001800000000e+03 0.000000000000e+00 0.000000000000e+00 0.000000000000e+00 
8.250000000000e+00 5.000000000000e-01 -2.001800000000e+03 0.000000000000e+00 0.000000000000e+00 0.000000000000e+00 
8.750000000000e+00 5.000000000000e-01 -2.001800000000e+03 0.000000000000e+00 0.000000000000e+00 0.000000000000e+00 
9.250000000000e+00 5.000000000000e-01 -2.001800000000e+03 0.000000000000e+00 0.000000000000e+00 0.000000000000e+00 
9.750000000000e+00 5.000000000000e-01 -2.001800000000e+03 0.000000000000e+00 0.000000000000e+00 0.000000000000e+00 
VARIABLES = "X","Y","Z","VX","VY","VZ"
ZONE T="1.000000000000e+00s", I=100, F=POINT, C=BLACK
2.500000000000e-01 5.000000000000e-01 -2.000200000000e+03 -6.791127994254e-09 0.000000000000e+00 -6.732253443805e-08 
7.500000000000e-01 5.000000000000e-01 -2.000200000000e+03 5.059747112677e-08 0.000000000000e+00 -2.886265604610e-08 
1.250000000000e+00 5.000000000000e-01 -2.000200000000e+03 2.134203578732e-08 0.000000000000e+00 -1.589859780419e-08 
1.750000000000e+00 5.000000000000e-01 -2.000200000000e+03 9.258894532709e-09 0.000000000000e+00 -1.085390253843e-08 
2.250000000000e+00 5.000000000000e-01 -2.000200000000e+03 4.050734213151e-09 0.000000000000e+00 -8.746074952000e-09 
2.750000000000e+00 5.000000000000e-01 -2.000200000000e+03 1.794572159676e-09 0.000000000000e+00 -7.828204200959e-09 
3.250000000000e+00 5.000000000000e-01 -2.000200000000e+03 8.183850050630e-10 0.000000000000e+00 -7.411548146893e-09 
3.750000000000e+00 5.000000000000e-01 -2.000200000000e+03 3.915923754372e-10 0.000000000000e+00 -7.212210947264e-09 
4.250000000000e+00 5.000000000000e-01 -2.000200000000e+03 1.967724707568e-10 0.000000000000e+00 -7.112458291288e-09 
4.750000000000e+00 5.000000000000e-01 -2.000200000000e+03 9.714925778853e-11 0.000000000000e+00 -7.064710413813e-09 
5.250000000000e+00 5.000000000000e-01 -2.000200000000e+03 3.206054091445e-11 0.000000000000e+00 -7.052722467167e-09 
5.750000000000e+00 5.000000000000e-01 -2.000200000000e+03 -3.107291554729e-11 0.000000000000e+00 -7.078147732642e-09 
6.250000000000e+00 5.000000000000e-01 -2.000200000000e+03 -1.222399663483e-10 0.000000000000e+00 -7.161082262009e-09 
6.750000000000e+00 5.000000000000e-01 -2.000200000000e+03 -2.908225641418e-10 0.000000000000e+00 -7.354163774018e-09 
7.250000000000e+00 5.000000000000e-01 -2.000200000000e+03 -6.406840535788e-10 0.000000000000e+00 -7.780393745396e-09 
7.750000000000e+00 5.000000000000e-01 -2.000200000000e+03 -1.404121658198e-09 0.000000000000e+00 -8.724661843585e-09 
8.250000000000e+00 5.000000000000e-01 -2.000200000000e+03 -3.108177816008e-09 0.000000000000e+00 -1.086293473101e-08 
8.750000000000e+00 5.000000000000e-01 -2.000200000000e+03 -6.955730911214e-09 0.000000000000e+00 -1.590630737174e-08 
9.250000000000e+00 5.000000000000e-01 -2.000200000000e+03 -1.572424595656e-08 0.000000000000e+00 -2.881155149053e-08 
9.750000000000e+00 5.000000000000e-01 -2.000200000000e+03 -5.351144211841e-08 0.000000000000e+00 -6.732253443805e-08 
2.500000000000e-01 5.000000000000e-01 -2.000600000000e+03 -2.883096039474e-09 0.000000000000e+00 -5.877629588757e-08 
7.500000000000e-01 5.000000000000e-01 -2.000600000000e+03 2.114691919620e-08 0.000000000000e+00 -3.529137068080e-08 
1.250000000000e+00 5.000000000000e-01 -2.000600000000e+03 1.148341579655e-08 0.000000000000e+00 -2.166868902072e-08 
1.750000000000e+00 5.000000000000e-01 -2.000600000000e+03 5.437329883730e-09 0.000000000000e+00 -1.509906799914e-08 
2.250000000000e+00 5.000000000000e-01 -2.000600000000e+03 2.457744069011e-09 0.000000000000e+00 -1.210865202615e-08 
2.750000000000e+00 5.000000000000e-01 -2.000600000000e+03 1.102614958634e-09 0.000000000000e+00 -1.076145001134e-08 
3.250000000000e+00 5.000000000000e-01 -2.000600000000e+03 5.053162183580e-10 0.000000000000e+00 -1.014158780858e-08 
3.750000000000e+00 5.000000000000e-01 -2.000600000000e+03 2.422589268485e-10 0.000000000000e+00 -9.843445582949e-09 
4.250000000000e+00 5.000000000000e-01 -2.000600000000e+03 1.218226312013e-10 0.000000000000e+00 -9.693939940687e-09 
4.750000000000e+00 5.000000000000e-01 -2.000600000000e+03 6.016867904509e-11 0.000000000000e+00 -9.622284055443e-09 
5.250000000000e+00 5.000000000000e-01 -2.000600000000e+03 1.988719336625e-11 0.000000000000e+00 -9.604151635943e-09 
5.750000000000e+00 5.000000000000e-01 -2.000600000000e+03 -1.916010343279e-11 0.000000000000e+00 -9.641902101841e-09 
6.250000000000e+00 5.000000000000e-01 -2.000600000000e+03 -7.551248724109e-11 0.000000000000e+00 -9.765368937130e-09 
6.750000000000e+00 5.000000000000e-01 -2.000600000000e+03 -1.796680353237e-10 0.000000000000e+00 -1.005252647464e-08 
7.250000000000e+00 5.000000000000e-01 -2.000600000000e+03 -3.956505707530e-10 0.000000000000e+00 -1.068383090511e-08 
7.750000000000e+00 5.000000000000e-01 -2.000600000000e+03 -8.659858566433e-10 0.000000000000e+00 -1.206629547111e-08 
8.250000000000e+00 5.000000000000e-01 -2.000600000000e+03 -1.910035858373e-09 0.000000000000e+00 -1.510023906634e-08 
8.750000000000e+00 5.000000000000e-01 -2.000600000000e+03 -4.232383289776e-09 0.000000000000e+00 -2.168652748594e-08 
9.250000000000e+00 5.000000000000e-01 -2.000600000000e+03 -9.313295571066e-09 0.000000000000e+00 -3.529270972455e-08 
9.750000000000e+00 5.000000000000e-01 -2.000600000000e+03 -2.270268804382e-08 0.000000000000e+00 -5.877629588757e-08 
2.500000000000e-01 5.000000000000e-01 -2.001000000000e+03 -3.285406221423e-13 0.000000000000e+00 -5.878053300908e-08 
7.500000000000e-01 5.000000000000e-01 -2.001000000000e+03 2.506086782478e-12 0.000000000000e+00 -3.401088192409e-08 
1.250000000000e+00 5.000000000000e-01 -2.001000000000e+03 6.223902993692e-13 0.000000000000e+00 -2.067988664660e-08 
1.750000000000e+00 5.000000000000e-01 -2.001000000000e+03 9.508232757212e-14 0.000000000000e+00 -1.438501210562e-08 
2.250000000000e+00 5.000000000000e-01 -2.001000000000e+03 -3.179790994444e-14 0.000000000000e+00 -1.154061440862e-08 
2.750000000000e+00 5.000000000000e-01 -2.001000000000e+03 -5.042868593852e-14 0.000000000000e+00 -1.026272976551e-08 
3.250000000000e+00 5.000000000000e-01 -2.001000000000e+03 -4.310578446589e-14 0.000000000000e+00 -9.675393241679e-09 
3.750000000000e+00 5.000000000000e-01 -2.001000000000e+03 -3.140941492963e-14 0.000000000000e+00 -9.393014466338e-09 
4.250000000000e+00 5.000000000000e-01 -2.001000000000e+03 -2.030558156415e-14 0.000000000000e+00 -9.251437084163e-09 
4.750000000000e+00 5.000000000000e-01 -2.001000000000e+03 -1.042991343724e-14 0.000000000000e+00 -9.183587976409e-09 
5.250000000000e+00 5.000000000000e-01 -2.001000000000e+03 -1.340826609893e-15 0.000000000000e+00 -9.166428881271e-09 
5.750000000000e+00 5.000000000000e-01 -2.001000000000e+03 7.628189762336e-15 0.000000000000e+00 -9.202204445274e-09 
6.250000000000e+00 5.000000000000e-01 -2.001000000000e+03 1.714347142782e-14 0.000000000000e+00 -9.319185796314e-09 
6.750000000000e+00 5.000000000000e-01 -2.001000000000e+03 2.773674052923e-14 0.000000000000e+00 -9.591282000126e-09 
7.250000000000e+00 5.000000000000e-01 -2.001000000000e+03 3.937304138068e-14 0.000000000000e+00 -1.018967057788e-08 
7.750000000000e+00 5.000000000000e-01 -2.001000000000e+03 4.977911038765e-14 0.000000000000e+00 -1.150127143754e-08 
8.250000000000e+00 5.000000000000e-01 -2.001000000000e+03 4.805937222228e-14 0.000000000000e+00 -1.438704681983e-08 
8.750000000000e+00 5.000000000000e-01 -2.001000000000e+03 -9.983233146449e-15 0.000000000000e+00 -2.069632665548e-08 
9.250000000000e+00 5.000000000000e-01 -2.001000000000e+03 -2.978007599858e-13 0.000000000000e+00 -3.400638689052e-08 
9.750000000000e+00 5.000000000000e-01 -2.001000000000e+03 -2.588136760188e-12 0.000000000000e+00 -5.878053300908e-08 
2.500000000000e-01 5.000000000000e-01 -2.001400000000e+03 2.882761513738e-09 0.000000000000e+00 -5.878476381696e-08 
7.500000000000e-01 5.000000000000e-01 -2.001400000000e+03 -2.114433006444e-08 0.000000000000e+00 -2.391786596608e-08 
1.250000000000e+00 5.000000000000e-01 -2.001400000000e+03 -1.148305291699e-08 0.000000000000e+00 -1.289078284787e-08 
1.750000000000e+00 5.000000000000e-01 -2.001400000000e+03 -5.437403747203e-09 0.000000000000e+00 -8.761310094659e-09 
2.250000000000e+00 5.000000000000e-01 -2.001400000000e+03 -2.457881409311e-09 0.000000000000e+00 -7.067164414941e-09 
2.750000000000e+00 5.000000000000e-01 -2.001400000000e+03 -1.102736103592e-09 0.000000000000e+00 -6.335178154577e-09 
3.250000000000e+00 5.000000000000e-01 -2.001400000000e+03 -5.054082747393e-10 0.000000000000e+00 -6.003964549019e-09 
3.750000000000e+00 5.000000000000e-01 -2.001400000000e+03 -2.423236835081e-10 0.000000000000e+00 -5.845708921060e-09 
4.250000000000e+00 5.000000000000e-01 -2.001400000000e+03 -1.218640517188e-10 0.000000000000e+00 -5.766553780454e-09 
4.750000000000e+00 5.000000000000e-01 -2.001400000000e+03 -6.018991275518e-11 0.000000000000e+00 -5.728676163965e-09 
5.250000000000e+00 5.000000000000e-01 -2.001400000000e+03 -1.988998352601e-11 0.000000000000e+00 -5.719185603717e-09 
5.750000000000e+00 5.000000000000e-01 -2.001400000000e+03 1.917553312728e-11 0.000000000000e+00 -5.739406168954e-09 
6.250000000000e+00 5.000000000000e-01 -2.001400000000e+03 7.554742660851e-11 0.000000000000e+00 -5.805321842111e-09 
6.750000000000e+00 5.000000000000e-01 -2.001400000000e+03 1.797252529970e-10 0.000000000000e+00 -5.958819468836e-09 
7.250000000000e+00 5.000000000000e-01 -2.001400000000e+03 3.957339696888e-10 0.000000000000e+00 -6.298002159873e-09 
7.750000000000e+00 5.000000000000e-01 -2.001400000000e+03 8.660991860619e-10 0.000000000000e+00 -7.051485822760e-09 
8.250000000000e+00 5.000000000000e-01 -2.001400000000e+03 1.910176990609e-09 0.000000000000e+00 -8.770064208698e-09 
8.750000000000e+00 5.000000000000e-01 -2.001400000000e+03 4.232521495310e-09 0.000000000000e+00 -1.289611472362e-08 
9.250000000000e+00 5.000000000000e-01 -2.001400000000e+03 9.313285928941e-09 0.000000000000e+00 -2.386740221635e-08 
9.750000000000e+00 5.000000000000e-01 -2.001400000000e+03 2.270005267101e-08 0.000000000000e+00 -5.878476381696e-08 
2.500000000000e-01 5.000000000000e-01 -2.001800000000e+03 6.791912315229e-09 0.000000000000e+00 8.552930392387e-09 
7.500000000000e-01 5.000000000000e-01 -2.001800000000e+03 -5.060341717564e-08 0.000000000000e+00 3.666503783739e-09 
1.250000000000e+00 5.000000000000e-01 -2.001800000000e+03 -2.134375617456e-08 0.000000000000e+00 2.019518819382e-09 
1.750000000000e+00 5.000000000000e-01 -2.001800000000e+03 -9.259499906440e-09 0.000000000000e+00 1.378674913777e-09 
2.250000000000e+00 5.000000000000e-01 -2.001800000000e+03 -4.051011097020e-09 0.000000000000e+00 1.110924320232e-09 
2.750000000000e+00 5.000000000000e-01 -2.001800000000e+03 -1.794731678987e-09 0.000000000000e+00 9.943338916351e-10 
3.250000000000e+00 5.000000000000e-01 -2.001800000000e+03 -8.184885823571e-10 0.000000000000e+00 9.414099498696e-10 
3.750000000000e+00 5.000000000000e-01 -2.001800000000e+03 -3.916611812198e-10 0.000000000000e+00 9.160903342775e-10 
4.250000000000e+00 5.000000000000e-01 -2.001800000000e+03 -1.968156201622e-10 0.000000000000e+00 9.034198836290e-10 
4.750000000000e+00 5.000000000000e-01 -2.001800000000e+03 -9.717131430343e-11 0.000000000000e+00 8.973549059270e-10 
5.250000000000e+00 5.000000000000e-01 -2.001800000000e+03 -3.206358588074e-11 0.000000000000e+00 8.958323380979e-10 
5.750000000000e+00 5.000000000000e-01 -2.001800000000e+03 3.108870373251e-11 0.000000000000e+00 8.990618376002e-10 
6.250000000000e+00 5.000000000000e-01 -2.001800000000e+03 1.222762633352e-10 0.000000000000e+00 9.095961060838e-10 
6.750000000000e+00 5.000000000000e-01 -2.001800000000e+03 2.908832902507e-10 0.000000000000e+00 9.341213472466e-10 
7.250000000000e+00 5.000000000000e-01 -2.001800000000e+03 6.407765559870e-10 0.000000000000e+00 9.882617401117e-10 
7.750000000000e+00 5.000000000000e-01 -2.001800000000e+03 1.404260587106e-09 0.000000000000e+00 1.108205778691e-09 
8.250000000000e+00 5.000000000000e-01 -2.001800000000e+03 3.108399962515e-09 0.000000000000e+00 1.379824409209e-09 
8.750000000000e+00 5.000000000000e-01 -2.001800000000e+03 6.956145099323e-09 0.000000000000e+00 2.020499847889e-09 
9.250000000000e+00 5.000000000000e-01 -2.001800000000e+03 1.572524888619e-08 0.000000000000e+00 3.660010970102e-09 
9.750000000000e+00 5.000000000000e-01 -2.001800000000e+03 5.351762700794e-08 0.000000000000e+00 8.552930392387e-09 
VARIABLES = "X","Y","Z","VX","VY","VZ"
ZONE T="2.000000000000e+00s", I=100, F=POINT, C=BLACK
2.500000000000e-01 5.000000000000e-01 -2.000200000000e+03 2.676730497549e-07 0.000000000000e+00 -1.797216972039e-08 
7.500000000000e-01 5.000000000000e-01 -2.000200000000e+03 -1.814059964281e-06 0.000000000000e+00 -2.699894797173e-09 
1.250000000000e+00 5.000000000000e-01 -2.000200000000e+03 -1.967557362821e-06 0.000000000000e+00 3.377854677802e-08 
1.750000000000e+00 5.000000000000e-01 -2.000200000000e+03 -2.278468050272e-06 0.000000000000e+00 9.664945891821e-08 
2.250000000000e+00 5.000000000000e-01 -2.000200000000e+03 -2.745224695722e-06 0.000000000000e+00 2.229984418050e-07 
2.750000000000e+00 5.000000000000e-01 -2.000200000000e+03 -3.354304237943e-06 0.000000000000e+00 4.853948234673e-07 
3.250000000000e+00 5.000000000000e-01 -2.000200000000e+03 -4.034871728469e-06 0.000000000000e+00 1.013495135782e-06 
3.750000000000e+00 5.000000000000e-01 -2.000200000000e+03 -4.590552397059e-06 0.000000000000e+00 1.993325937754e-06 
4.250000000000e+00 5.000000000000e-01 -2.000200000000e+03 -4.597896575520e-06 0.000000000000e+00 3.533303158892e-06 
4.750000000000e+00 5.000000000000e-01 -2.000200000000e+03 -3.371181297608e-06 0.000000000000e+00 5.160072822075e-06 
5.250000000000e+00 5.000000000000e-01 -2.000200000000e+03 -4.282001092984e-07 0.000000000000e+00 5.160072822075e-06 
5.750000000000e+00 5.000000000000e-01 -2.000200000000e+03 2.732786763295e-06 0.000000000000e+00 3.533302363408e-06 
6.250000000000e+00 5.000000000000e-01 -2.000200000000e+03 4.361925275399e-06 0.000000000000e+00 1.993324771044e-06 
6.750000000000e+00 5.000000000000e-01 -2.000200000000e+03 4.632092675904e-06 0.000000000000e+00 1.013493173588e-06 
7.250000000000e+00 5.000000000000e-01 -2.000200000000e+03 4.197173108411e-06 0.000000000000e+00 4.853928347568e-07 
7.750000000000e+00 5.000000000000e-01 -2.000200000000e+03 3.538727268729e-06 0.000000000000e+00 2.229968375785e-07 
8.250000000000e+00 5.000000000000e-01 -2.000200000000e+03 2.905299513919e-06 0.000000000000e+00 9.664825508548e-08 
8.750000000000e+00 5.000000000000e-01 -2.000200000000e+03 2.397577682432e-06 0.000000000000e+00 3.377762136475e-08 
9.250000000000e+00 5.000000000000e-01 -2.000200000000e+03 2.041674289698e-06 0.000000000000e+00 -2.700447923842e-09 
9.750000000000e+00 5.000000000000e-01 -2.000200000000e+03 2.107386689320e-06 0.000000000000e+00 -1.797216972039e-08 
2.500000000000e-01 5.000000000000e-01 -2.000600000000e+03 2.692258032063e-07 0.000000000000e+00 -1.238861124535e-07 
7.500000000000e-01 5.000000000000e-01 -2.000600000000e+03 -1.822577108907e-06 0.000000000000e+00 -1.771060686899e-08 
1.250000000000e+00 5.000000000000e-01 -2.000600000000e+03 -1.990358006550e-06 0.000000000000e+00 4.948947408253e-08 
1.750000000000e+00 5.000000000000e-01 -2.000600000000e+03 -2.315933768105e-06 0.000000000000e+00 1.472964480485e-07 
2.250000000000e+00 5.000000000000e-01 -2.000600000000e+03 -2.819650210205e-06 0.000000000000e+00 3.448931167290e-07 
2.750000000000e+00 5.000000000000e-01 -2.000600000000e+03 -3.510570650002e-06 0.000000000000e+00 7.691790394934e-07 
3.250000000000e+00 5.000000000000e-01 -2.000600000000e+03 -4.357802545259e-06 0.000000000000e+00 1.671048784006e-06 
3.750000000000e+00 5.000000000000e-01 -2.000600000000e+03 -5.217952346746e-06 0.000000000000e+00 3.495877804121e-06 
4.250000000000e+00 5.000000000000e-01 -2.000600000000e+03 -5.664595319848e-06 0.000000000000e+00 6.775919394550e-06 
4.750000000000e+00 5.000000000000e-01 -2.000600000000e+03 -4.672609658800e-06 0.000000000000e+00 1.101747703581e-05 
5.250000000000e+00 5.000000000000e-01 -2.000600000000e+03 -5.935033034686e-07 0.000000000000e+00 1.101747624033e-05 
5.750000000000e+00 5.000000000000e-01 -2.000600000000e+03 3.877730958786e-06 0.000000000000e+00 6.775917109137e-06 
6.250000000000e+00 5.000000000000e-01 -2.000600000000e+03 5.494361305318e-06 0.000000000000e+00 3.495874505214e-06 
6.750000000000e+00 5.000000000000e-01 -2.000600000000e+03 5.362313521589e-06 0.000000000000e+00 1.671044286848e-06 
7.250000000000e+00 5.000000000000e-01 -2.000600000000e+03 4.593005654690e-06 0.000000000000e+00 7.691751290589e-07 
7.750000000000e+00 5.000000000000e-01 -2.000600000000e+03 3.735817755941e-06 0.000000000000e+00 3.448903241687e-07 
8.250000000000e+00 5.000000000000e-01 -2.000600000000e+03 2.999999859862e-06 0.000000000000e+00 1.472944664061e-07 
8.750000000000e+00 5.000000000000e-01 -2.000600000000e+03 2.444175384120e-06 0.000000000000e+00 4.948802452159e-08 
9.250000000000e+00 5.000000000000e-01 -2.000600000000e+03 2.069311924659e-06 0.000000000000e+00 -1.771145009370e-08 
9.750000000000e+00 5.000000000000e-01 -2.000600000000e+03 2.119610994206e-06 0.000000000000e+00 -1.238861124535e-07 
2.500000000000e-01 5.000000000000e-01 -2.001000000000e+03 2.802126749912e-07 0.000000000000e+00 -1.912236307521e-09 
7.500000000000e-01 5.000000000000e-01 -2.001000000000e+03 -1.901776341093e-06 0.000000000000e+00 -1.600806169652e-09 
1.250000000000e+00 5.000000000000e-01 -2.001000000000e+03 -2.037081480309e-06 0.000000000000e+00 4.953411087951e-08 
1.750000000000e+00 5.000000000000e-01 -2.001000000000e+03 -2.378866236712e-06 0.000000000000e+00 1.438900080224e-07 
2.250000000000e+00 5.000000000000e-01 -2.001000000000e+03 -2.944076239996e-06 0.000000000000e+00 3.434457983849e-07 
2.750000000000e+00 5.000000000000e-01 -2.001000000000e+03 -3.778216882965e-06 0.000000000000e+00 7.945992943921e-07 
3.250000000000e+00 5.000000000000e-01 -2.001000000000e+03 -4.934903469926e-06 0.000000000000e+00 1.839508385091e-06 
3.750000000000e+00 5.000000000000e-01 -2.001000000000e+03 -6.424230178375e-06 0.000000000000e+00 4.278584916196e-06 
4.250000000000e+00 5.000000000000e-01 -2.001000000000e+03 -7.993142831784e-06 0.000000000000e+00 9.812179828083e-06 
4.750000000000e+00 5.000000000000e-01 -2.001000000000e+03 -8.231173445216e-06 0.000000000000e+00 2.025388917261e-05 
5.250000000000e+00 5.000000000000e-01 -2.001000000000e+03 -1.045499545678e-06 0.000000000000e+00 2.025388450074e-05 
5.750000000000e+00 5.000000000000e-01 -2.001000000000e+03 7.083120036688e-06 0.000000000000e+00 9.812178540234e-06 
6.250000000000e+00 5.000000000000e-01 -2.001000000000e+03 8.076830332911e-06 0.000000000000e+00 4.278579785646e-06 
6.750000000000e+00 5.000000000000e-01 -2.001000000000e+03 6.823307341272e-06 0.000000000000e+00 1.839502252862e-06 