 TITLE = "Profiles along polylines"
 VARIABLES = "DIST" "HEAD" "ConsTracer" "Comp_A" "Comp_B" "Comp_C" "Biomass" 
 ZONE T="TIME=0.000000000000e+00"
0.000000000000e+00 1.000000000000e+00 0.000000000000e+00 0.000000000000e+00 0.000000000000e+00 0.000000000000e+00 1.000000000000e-06 
5.000000000000e-03 1.000000000000e+00 0.000000000000e+00 0.000000000000e+00 0.000000000000e+00 0.000000000000e+00 1.000000000000e-06 
1.000000000000e-02 1.000000000000e+00 0.000000000000e+00 0.000000000000e+00 0.000000000000e+00 0.000000000000e+00 1.000000000000e-06 
1.500000000000e-02 1.000000000000e+00 0.000000000000e+00 0.000000000000e+00 0.000000000000e+00 0.000000000000e+00 1.000000000000e-06 
2.000000000000e-02 1.000000000000e+00 0.000000000000e+00 0.000000000000e+00 0.000000000000e+00 0.000000000000e+00 1.000000000000e-06 
2.500000000000e-02 1.000000000000e+00 0.000000000000e+00 0.000000000000e+00 0.000000000000e+00 0.000000000000e+00 1.000000000000e-06 
3.000000000000e-02 1.000000000000e+00 0.000000000000e+00 0.000000000000e+00 0.000000000000e+00 0.000000000000e+00 1.000000000000e-06 
3.500000000000e-02 1.000000000000e+00 0.000000000000e+00 0.000000000000e+00 0.000000000000e+00 0.000000000000e+00 1.000000000000e-06 
4.000000000000e-02 1.000000000000e+00 0.000000000000e+00 0.000000000000e+00 0.000000000000e+00 0.000000000000e+00 1.000000000000e-06 
4.500000000000e-02 1.000000000000e+00 0.000000000000e+00 0.000000000000e+00 0.000000000000e+00 0.000000000000e+00 1.000000000000e-06 
5.000000000000e-02 1.000000000000e+00 0.000000000000e+00 0.000000000000e+00 0.000000000000e+00 0.000000000000e+00 1.000000000000e-06 
5.500000000000e-02 1.000000000000e+00 0.000000000000e+00 0.000000000000e+00 0.000000000000e+00 0.000000000000e+00 1.000000000000e-06 
6.000000000000e-02 1.000000000000e+00 0.000000000000e+00 0.000000000000e+00 0.000000000000e+00 0.000000000000e+00 1.000000000000e-06 
6.500000000000e-02 1.000000000000e+00 0.000000000000e+00 0.000000000000e+00 0.000000000000e+00 0.000000000000e+00 1.000000000000e-06 
7.000000000000e-02 1.000000000000e+00 0.000000000000e+00 0.000000000000e+00 0.000000000000e+00 0.000000000000e+00 1.000000000000e-06 
7.500000000000e-02 1.000000000000e+00 0.000000000000e+00 0.000000000000e+00 0.000000000000e+00 0.000000000000e+00 1.000000000000e-06 
8.000000000000e-02 1.000000000000e+00 0.000000000000e+00 0.000000000000e+00 0.000000000000e+00 0.000000000000e+00 1.000000000000e-06 
8.500000000000e-02 1.000000000000e+00 0.000000000000e+00 0.000000000000e+00 0.000000000000e+00 0.000000000000e+00 1.000000000000e-06 
9.000000000000e-02 1.000000000000e+00 0.000000000000e+00 0.000000000000e+00 0.000000000000e+00 0.000000000000e+00 1.000000000000e-06 
9.500000000000e-02 1.000000000000e+00 0.000000000000e+00 0.000000000000e+00 0.000000000000e+00 0.000000000000e+00 1.000000000000e-06 
1.000000000000e-01 1.000000000000e+00 0.000000000000e+00 0.000000000000e+00 0.000000000000e+00 0.000000000000e+00 1.000000000000e-06 
1.050000000000e-01 1.000000000000e+00 0.000000000000e+00 0.000000000000e+00 0.000000000000e+00 0.000000000000e+00 1.000000000000e-06 
1.100000000000e-01 1.000000000000e+00 0.000000000000e+00 0.000000000000e+00 0.000000000000e+00 0.000000000000e+00 1.000000000000e-06 
1.150000000000e-01 1.000000000000e+00 0.000000000000e+00 0.000000000000e+00 0.000000000000e+00 0.000000000000e+00 1.000000000000e-06 
1.200000000000e-01 1.000000000000e+00 0.000000000000e+00 0.000000000000e+00 0.000000000000e+00 0.000000000000e+00 1.000000000000e-06 
1.250000000000e-01 1.000000000000e+00 0.000000000000e+00 0.000000000000e+00 0.000000000000e+00 0.000000000000e+00 1.000000000000e-06 
1.300000000000e-01 1.000000000000e+00 0.000000000000e+00 0.000000000000e+00 0.000000000000e+00 0.000000000000e+00 1.000000000000e-06 
1.350000000000e-01 1.000000000000e+00 0.000000000000e+00 0.000000000000e+00 0.000000000000e+00 0.000000000000e+00 1.000000000000e-06 
1.400000000000e-01 1.000000000000e+00 0.000000000000e+00 0.000000000000e+00 0.000000000000e+00 0.000000000000e+00 1.000000000000e-06 
1.450000000000e-01 1.000000000000e+00 0.000000000000e+00 0.000000000000e+00 0.000000000000e+00 0.000000000000e+00 1.000000000000e-06 
1.500000000000e-01 1.000000000000e+00 0.000000000000e+00 0.000000000000e+00 0.000000000000e+00 0.000000000000e+00 1.000000000000e-06 
1.550000000000e-01 1.000000000000e+00 0.000000000000e+00 0.000000000000e+00 0.000000000000e+00 0.000000000000e+00 1.000000000000e-06 
1.600000000000e-01 1.000000000000e+00 0.000000000000e+00 0.000000000000e+00 0.000000000000e+00 0.000000000000e+00 1.000000000000e-06 
1.650000000000e-01 1.000000000000e+00 0.000000000000e+00 0.000000000000e+00 0.000000000000e+00 0.000000000000e+00 1.000000000000e-06 
1.700000000000e-01 1.000000000000e+00 0.000000000000e+00 0.000000000000e+00 0.000000000000e+00 0.000000000000e+00 1.000000000000e-06 
1.750000000000e-01 1.000000000000e+00 0.000000000000e+00 0.000000000000e+00 0.000000000000e+00 0.000000000000e+00 1.000000000000e-06 
1.800000000000e-01 1.000000000000e+00 0.000000000000e+00 0.000000000000e+00 0.000000000000e+00 0.000000000000e+00 1.000000000000e-06 
1.850000000000e-01 1.000000000000e+00 0.000000000000e+00 0.000000000000e+00 0.000000000000e+00 0.000000000000e+00 1.000000000000e-06 
1.900000000000e-01 1.000000000000e+00 0.000000000000e+00 0.000000000000e+00 0.000000000000e+00 0.000000000000e+00 1.000000000000e-06 
1.950000000000e-01 1.000000000000e+00 0.000000000000e+00 0.000000000000e+00 0.000000000000e+00 0.000000000000e+00 1.000000000000e-06 
2.000000000000e-01 1.000000000000e+00 0.000000000000e+00 0.000000000000e+00 0.000000000000e+00 0.000000000000e+00 1.000000000000e-06 
 ZONE T="TIME=1.296000000000e+04"
0.000000000000e+00 1.009800041572e+00 1.918157610204e-11 1.482132610078e-15 2.059157927672e-04 9.939216636368e-18 9.851129656653e-07 
5.000000000000e-03 1.009800041572e+00 3.933893223234e-11 2.023582564296e-15 2.059157919610e-04 2.288023683358e-18 9.851129656695e-07 
1.000000000000e-02 1.009800041572e+00 3.582183782220e-11 1.345620405641e-15 2.059157988036e-04 1.361551650821e-18 9.851129656773e-07 
1.500000000000e-02 1.009800041572e+00 4.656410509706e-10 1.413306803377e-13 2.059157954047e-04 2.332591777030e-16 9.851129658054e-07 
2.000000000000e-02 1.009800041572e+00 3.782951413551e-09 1.258071128941e-12 2.059157897766e-04 2.550756863255e-17 9.851129662389e-07 
2.500000000000e-02 1.009800041572e+00 1.148371812000e-08 3.805372129848e-12 2.059157967971e-04 6.277159698763e-15 9.851129695794e-07 
3.000000000000e-02 1.009800041572e+00 2.570387133829e-08 8.475586459877e-12 2.059158071054e-04 1.438967289193e-15 9.851129783500e-07 
3.500000000000e-02 1.009800041572e+00 5.449212706437e-07 1.795900523004e-10 2.059156807431e-04 1.892356043943e-14 9.851130425728e-07 
4.000000000000e-02 1.009800041572e+00 3.003779112973e-06 9.903708014100e-10 2.059156087764e-04 6.588549703055e-13 9.851135176456e-07 
4.500000000000e-02 1.009800041572e+00 3.766064163425e-06 1.243196209944e-09 2.059199344956e-04 1.180382299459e-13 9.851153877188e-07 
5.000000000000e-02 1.009800041572e+00 3.901765850138e-05 1.286120715693e-08 2.059272172435e-04 2.050705379414e-11 9.851244835174e-07 
5.500000000000e-02 1.009800041572e+00 8.007074603065e-04 2.638910326808e-07 2.057684661975e-04 3.632771920486e-10 9.851792780216e-07 
6.000000000000e-02 1.009800041572e+00 8.343276534369e-03 2.750835294161e-06 2.039172387369e-04 2.484951836204e-09 9.861966936630e-07 
6.500000000000e-02 1.009800041572e+00 5.025444106161e-02 1.657473001242e-05 1.934516766088e-04 9.282782712264e-09 9.935993848664e-07 
7.000000000000e-02 1.009800041572e+00 1.810061075094e-01 5.971167376899e-05 1.607478109014e-04 2.037884884419e-08 1.011683377717e-06 
7.500000000000e-02 1.009800041572e+00 4.120252319571e-01 1.359408360056e-04 1.029788245230e-04 2.750847420330e-08 1.024993115142e-06 
8.000000000000e-02 1.009800041572e+00 6.430727780268e-01 2.121903959633e-04 4.522794781014e-05 2.362529303846e-08 1.018236520491e-06 
8.500000000000e-02 1.009800041572e+00 7.738433822771e-01 2.553559521023e-04 1.255139371071e-05 1.236389545742e-08 9.981488786810e-07 
9.000000000000e-02 1.009800041572e+00 8.156781786652e-01 2.691701071206e-04 2.082805653655e-06 3.690908905437e-09 9.869693484050e-07 
9.500000000000e-02 1.009800041572e+00 8.230918911952e-01 2.716197346648e-04 2.003770082474e-07 5.883012370729e-10 9.852304449039e-07 
1.000000000000e-01 1.009800041572e+00 8.237547246234e-01 2.718389804272e-04 1.925659075933e-08 7.743789153390e-11 9.851507941633e-07 
1.050000000000e-01 1.009800041572e+00 8.230918691797e-01 2.716197273995e-04 2.003770810270e-07 5.883005630860e-10 9.852304450037e-07 
1.100000000000e-01 1.009800041572e+00 8.156781734937e-01 2.691701054140e-04 2.082805662274e-06 3.690907641085e-09 9.869693483119e-07 
1.150000000000e-01 1.009800041572e+00 7.738433938572e-01 2.553559559223e-04 1.255139715830e-05 1.236389507844e-08 9.981488830022e-07 
1.200000000000e-01 1.009800041572e+00 6.430727493342e-01 2.121903864929e-04 4.522795661258e-05 2.362529364295e-08 1.018236524231e-06 
1.250000000000e-01 1.009800041572e+00 4.120252026530e-01 1.359408263342e-04 1.029788262861e-04 2.750847426956e-08 1.024993112953e-06 
1.300000000000e-01 1.009800041572e+00 1.810061158361e-01 5.971167651559e-05 1.607478052291e-04 2.037884973877e-08 1.011683378269e-06 
1.350000000000e-01 1.009800041572e+00 5.025444877797e-02 1.657473255816e-05 1.934516810348e-04 9.282783281107e-09 9.935993869236e-07 
1.400000000000e-01 1.009800041572e+00 8.343276722631e-03 2.750835356187e-06 2.039172414074e-04 2.484951916229e-09 9.861966936920e-07 
1.450000000000e-01 1.009800041572e+00 8.007077437075e-04 2.638911261549e-07 2.057684627491e-04 3.632772401660e-10 9.851792780701e-07 
1.500000000000e-01 1.009800041572e+00 3.901765973604e-05 1.286120757364e-08 2.059272131323e-04 2.050706088517e-11 9.851244835121e-07 
1.550000000000e-01 1.009800041572e+00 3.766072207768e-06 1.243198855234e-09 2.059199363996e-04 1.180388596050e-13 9.851153877207e-07 
1.600000000000e-01 1.009800041572e+00 3.003778032533e-06 9.903704480790e-10 2.059156145217e-04 6.588545391341e-13 9.851135176454e-07 
1.650000000000e-01 1.009800041572e+00 5.449217414984e-07 1.795902081253e-10 2.059156776338e-04 1.892358944119e-14 9.851130425728e-07 
1.700000000000e-01 1.009800041572e+00 2.570388021157e-08 8.475588436349e-12 2.059158029583e-04 1.438967231882e-15 9.851129783500e-07 
1.750000000000e-01 1.009800041572e+00 1.148372864895e-08 3.805375863717e-12 2.059157974689e-04 6.277165960186e-15 9.851129695794e-07 
1.800000000000e-01 1.009800041572e+00 3.782951481825e-09 1.258071218642e-12 2.059157967461e-04 2.550757140714e-17 9.851129662389e-07 
1.850000000000e-01 1.009800041572e+00 4.656417856216e-10 1.413309008197e-13 2.059157939376e-04 2.332596030885e-16 9.851129658054e-07 
1.900000000000e-01 1.009800041572e+00 3.582181351087e-11 1.345625750505e-15 2.059157905009e-04 1.361557519927e-18 9.851129656773e-07 
1.950000000000e-01 1.009800041572e+00 3.933896913412e-11 2.023591255297e-15 2.059157947038e-04 2.288007407346e-18 9.851129656695e-07 
2.000000000000e-01 1.009800041572e+00 1.918156731791e-11 1.482131226794e-15 2.059157979242e-04 9.939220650256e-18 9.851129656653e-07 
