VARIABLES  = "X","Y","Z", "HEAD", "Cons_Tracer", "Xylene", "Oxygen", "Metab_O", "CO2", "Biomass_Aerobic", "Goethite", "bioFe3", "Metab_Fe3", "Fe2", "Biomass_Ironreducer", "Sulfate", "S", "Meta_ProductS", "Biomass_Sulfatereducer"
ZONE T="0.000000000000e+00s", N=101, E=100, F=FEPOINT, ET=QUADRILATERAL
STRANDID=1, SOLUTIONTIME=0.000000000000e+00
0.000000000000e+00 0.000000000000e+00 0.000000000000e+00 2.000000000000e+00 0.000000000000e+00 0.000000000000e+00 1.000000000000e-05 0.000000000000e+00 0.000000000000e+00 1.000000000000e-06 2.000000000000e-01 2.000000000000e-02 0.000000000000e+00 0.000000000000e+00 1.000000000000e-06 1.000000000000e-05 0.000000000000e+00 0.000000000000e+00 1.000000000000e-06 
5.000000000000e-01 0.000000000000e+00 0.000000000000e+00 2.000000000000e+00 0.000000000000e+00 0.000000000000e+00 1.000000000000e-05 0.000000000000e+00 0.000000000000e+00 1.000000000000e-06 2.000000000000e-01 2.000000000000e-02 0.000000000000e+00 0.000000000000e+00 1.000000000000e-06 1.000000000000e-05 0.000000000000e+00 0.000000000000e+00 1.000000000000e-06 
1.000000000000e+00 0.000000000000e+00 0.000000000000e+00 2.000000000000e+00 0.000000000000e+00 0.000000000000e+00 1.000000000000e-05 0.000000000000e+00 0.000000000000e+00 1.000000000000e-06 2.000000000000e-01 2.000000000000e-02 0.000000000000e+00 0.000000000000e+00 1.000000000000e-06 1.000000000000e-05 0.000000000000e+00 0.000000000000e+00 1.000000000000e-06 
1.500000000000e+00 0.000000000000e+00 0.000000000000e+00 2.000000000000e+00 0.000000000000e+00 0.000000000000e+00 1.000000000000e-05 0.000000000000e+00 0.000000000000e+00 1.000000000000e-06 2.000000000000e-01 2.000000000000e-02 0.000000000000e+00 0.000000000000e+00 1.000000000000e-06 1.000000000000e-05 0.000000000000e+00 0.000000000000e+00 1.000000000000e-06 
2.000000000000e+00 0.000000000000e+00 0.000000000000e+00 2.000000000000e+00 0.000000000000e+00 0.000000000000e+00 1.000000000000e-05 0.000000000000e+00 0.000000000000e+00 1.000000000000e-06 2.000000000000e-01 2.000000000000e-02 0.000000000000e+00 0.000000000000e+00 1.000000000000e-06 1.000000000000e-05 0.000000000000e+00 0.000000000000e+00 1.000000000000e-06 
2.500000000000e+00 0.000000000000e+00 0.000000000000e+00 2.000000000000e+00 0.000000000000e+00 0.000000000000e+00 1.000000000000e-05 0.000000000000e+00 0.000000000000e+00 1.000000000000e-06 2.000000000000e-01 2.000000000000e-02 0.000000000000e+00 0.000000000000e+00 1.000000000000e-06 1.000000000000e-05 0.000000000000e+00 0.000000000000e+00 1.000000000000e-06 
3.000000000000e+00 0.000000000000e+00 0.000000000000e+00 2.000000000000e+00 0.000000000000e+00 0.000000000000e+00 1.000000000000e-05 0.000000000000e+00 0.000000000000e+00 1.000000000000e-06 2.000000000000e-01 2.000000000000e-02 0.000000000000e+00 0.000000000000e+00 1.000000000000e-06 1.000000000000e-05 0.000000000000e+00 0.000000000000e+00 1.000000000000e-06 
3.500000000000e+00 0.000000000000e+00 0.000000000000e+00 2.000000000000e+00 0.000000000000e+00 0.000000000000e+00 1.000000000000e-05 0.000000000000e+00 0.000000000000e+00 1.000000000000e-06 2.000000000000e-01 2.000000000000e-02 0.000000000000e+00 0.000000000000e+00 1.000000000000e-06 1.000000000000e-05 0.000000000000e+00 0.000000000000e+00 1.000000000000e-06 
4.000000000000e+00 0.000000000000e+00 0.000000000000e+00 2.000000000000e+00 0.000000000000e+00 0.000000000000e+00 1.000000000000e-05 0.000000000000e+00 0.000000000000e+00 1.000000000000e-06 2.000000000000e-01 2.000000000000e-02 0.000000000000e+00 0.000000000000e+00 1.000000000000e-06 1.000000000000e-05 0.000000000000e+00 0.000000000000e+00 1.000000000000e-06 
4.500000000000e+00 0.000000000000e+00 0.000000000000e+00 2.000000000000e+00 0.000000000000e+00 0.000000000000e+00 1.000000000000e-05 0.000000000000e+00 0.000000000000e+00 1.000000000000e-06 2.000000000000e-01 2.000000000000e-02 0.000000000000e+00 0.000000000000e+00 1.000000000000e-06 1.000000000000e-05 0.000000000000e+00 0.000000000000e+00 1.000000000000e-06 
5.000000000000e+00 0.000000000000e+00 0.000000000000e+00 2.000000000000e+00 0.000000000000e+00 0.000000000000e+00 1.000000000000e-05 0.000000000000e+00 0.000000000000e+00 1.000000000000e-06 2.000000000000e-01 2.000000000000e-02 0.000000000000e+00 0.000000000000e+00 1.000000000000e-06 1.000000000000e-05 0.000000000000e+00 0.000000000000e+00 1.000000000000e-06 
5.500000000000e+00 0.000000000000e+00 0.000000000000e+00 2.000000000000e+00 0.000000000000e+00 0.000000000000e+00 1.000000000000e-05 0.000000000000e+00 0.000000000000e+00 1.000000000000e-06 2.000000000000e-01 2.000000000000e-02 0.000000000000e+00 0.000000000000e+00 1.000000000000e-06 1.000000000000e-05 0.000000000000e+00 0.000000000000e+00 1.000000000000e-06 
6.000000000000e+00 0.000000000000e+00 0.000000000000e+00 2.000000000000e+00 0.000000000000e+00 0.000000000000e+00 1.000000000000e-05 0.000000000000e+00 0.000000000000e+00 1.000000000000e-06 2.000000000000e-01 2.000000000000e-02 0.000000000000e+00 0.000000000000e+00 1.000000000000e-06 1.000000000000e-05 0.000000000000e+00 0.000000000000e+00 1.000000000000e-06 
6.500000000000e+00 0.000000000000e+00 0.000000000000e+00 2.000000000000e+00 0.000000000000e+00 0.000000000000e+00 1.000000000000e-05 0.000000000000e+00 0.000000000000e+00 1.000000000000e-06 2.000000000000e-01 2.000000000000e-02 0.000000000000e+00 0.000000000000e+00 1.000000000000e-06 1.000000000000e-05 0.000000000000e+00 0.000000000000e+00 1.000000000000e-06 
7.000000000000e+00 0.000000000000e+00 0.000000000000e+00 2.000000000000e+00 0.000000000000e+00 0.000000000000e+00 1.000000000000e-05 0.000000000000e+00 0.000000000000e+00 1.000000000000e-06 2.000000000000e-01 2.000000000000e-02 0.000000000000e+00 0.000000000000e+00 1.000000000000e-06 1.000000000000e-05 0.000000000000e+00 0.000000000000e+00 1.000000000000e-06 
7.500000000000e+00 0.000000000000e+00 0.000000000000e+00 2.000000000000e+00 0.000000000000e+00 0.000000000000e+00 1.000000000000e-05 0.000000000000e+00 0.000000000000e+00 1.000000000000e-06 2.000000000000e-01 2.000000000000e-02 0.000000000000e+00 0.000000000000e+00 1.000000000000e-06 1.000000000000e-05 0.000000000000e+00 0.000000000000e+00 1.000000000000e-06 
8.000000000000e+00 0.000000000000e+00 0.000000000000e+00 2.000000000000e+00 0.000000000000e+00 0.000000000000e+00 1.000000000000e-05 0.000000000000e+00 0.000000000000e+00 1.000000000000e-06 2.000000000000e-01 2.000000000000e-02 0.000000000000e+00 0.000000000000e+00 1.000000000000e-06 1.000000000000e-05 0.000000000000e+00 0.000000000000e+00 1.000000000000e-06 
8.500000000000e+00 0.000000000000e+00 0.000000000000e+00 2.000000000000e+00 0.000000000000e+00 0.000000000000e+00 1.000000000000e-05 0.000000000000e+00 0.000000000000e+00 1.000000000000e-06 2.000000000000e-01 2.000000000000e-02 0.000000000000e+00 0.000000000000e+00 1.000000000000e-06 1.000000000000e-05 0.000000000000e+00 0.000000000000e+00 1.000000000000e-06 
9.000000000000e+00 0.000000000000e+00 0.000000000000e+00 2.000000000000e+00 0.000000000000e+00 0.000000000000e+00 1.000000000000e-05 0.000000000000e+00 0.000000000000e+00 1.000000000000e-06 2.000000000000e-01 2.000000000000e-02 0.000000000000e+00 0.000000000000e+00 1.000000000000e-06 1.000000000000e-05 0.000000000000e+00 0.000000000000e+00 1.000000000000e-06 
9.500000000000e+00 0.000000000000e+00 0.000000000000e+00 2.000000000000e+00 0.000000000000e+00 0.000000000000e+00 1.000000000000e-05 0.000000000000e+00 0.000000000000e+00 1.000000000000e-06 2.000000000000e-01 2.000000000000e-02 0.000000000000e+00 0.000000000000e+00 1.000000000000e-06 1.000000000000e-05 0.000000000000e+00 0.000000000000e+00 1.000000000000e-06 
1.000000000000e+01 0.000000000000e+00 0.000000000000e+00 2.000000000000e+00 0.000000000000e+00 0.000000000000e+00 1.000000000000e-05 0.000000000000e+00 0.000000000000e+00 1.000000000000e-06 2.000000000000e-01 2.000000000000e-02 0.000000000000e+00 0.000000000000e+00 1.000000000000e-06 1.000000000000e-05 0.000000000000e+00 0.000000000000e+00 1.000000000000e-06 
1.050000000000e+01 0.000000000000e+00 0.000000000000e+00 2.000000000000e+00 0.000000000000e+00 0.000000000000e+00 1.000000000000e-05 0.000000000000e+00 0.000000000000e+00 1.000000000000e-06 2.000000000000e-01 2.000000000000e-02 0.000000000000e+00 0.000000000000e+00 1.000000000000e-06 1.000000000000e-05 0.000000000000e+00 0.000000000000e+00 1.000000000000e-06 
1.100000000000e+01 0.000000000000e+00 0.000000000000e+00 2.000000000000e+00 0.000000000000e+00 0.000000000000e+00 1.000000000000e-05 0.000000000000e+00 0.000000000000e+00 1.000000000000e-06 2.000000000000e-01 2.000000000000e-02 0.000000000000e+00 0.000000000000e+00 1.000000000000e-06 1.000000000000e-05 0.000000000000e+00 0.000000000000e+00 1.000000000000e-06 
1.150000000000e+01 0.000000000000e+00 0.000000000000e+00 2.000000000000e+00 0.000000000000e+00 0.000000000000e+00 1.000000000000e-05 0.000000000000e+00 0.000000000000e+00 1.000000000000e-06 2.000000000000e-01 2.000000000000e-02 0.000000000000e+00 0.000000000000e+00 1.000000000000e-06 1.000000000000e-05 0.000000000000e+00 0.000000000000e+00 1.000000000000e-06 
1.200000000000e+01 0.000000000000e+00 0.000000000000e+00 2.000000000000e+00 0.000000000000e+00 0.000000000000e+00 1.000000000000e-05 0.000000000000e+00 0.000000000000e+00 1.000000000000e-06 2.000000000000e-01 2.000000000000e-02 0.000000000000e+00 0.000000000000e+00 1.000000000000e-06 1.000000000000e-05 0.000000000000e+00 0.000000000000e+00 1.000000000000e-06 
1.250000000000e+01 0.000000000000e+00 0.000000000000e+00 2.000000000000e+00 0.000000000000e+00 0.000000000000e+00 1.000000000000e-05 0.000000000000e+00 0.000000000000e+00 1.000000000000e-06 2.000000000000e-01 2.000000000000e-02 0.000000000000e+00 0.000000000000e+00 1.000000000000e-06 1.000000000000e-05 0.000000000000e+00 0.000000000000e+00 1.000000000000e-06 
1.300000000000e+01 0.000000000000e+00 0.000000000000e+00 2.000000000000e+00 0.000000000000e+00 0.000000000000e+00 1.000000000000e-05 0.000000000000e+00 0.000000000000e+00 1.000000000000e-06 2.000000000000e-01 2.000000000000e-02 0.000000000000e+00 0.000000000000e+00 1.000000000000e-06 1.000000000000e-05 0.000000000000e+00 0.000000000000e+00 1.000000000000e-06 
1.350000000000e+01 0.000000000000e+00 0.000000000000e+00 2.000000000000e+00 0.000000000000e+00 0.000000000000e+00 1.000000000000e-05 0.000000000000e+00 0.000000000000e+00 1.000000000000e-06 2.000000000000e-01 2.000000000000e-02 0.000000000000e+00 0.000000000000e+00 1.000000000000e-06 1.000000000000e-05 0.000000000000e+00 0.000000000000e+00 1.000000000000e-06 
1.400000000000e+01 0.000000000000e+00 0.000000000000e+00 2.000000000000e+00 0.000000000000e+00 0.000000000000e+00 1.000000000000e-05 0.000000000000e+00 0.000000000000e+00 1.000000000000e-06 2.000000000000e-01 2.000000000000e-02 0.000000000000e+00 0.000000000000e+00 1.000000000000e-06 1.000000000000e-05 0.000000000000e+00 0.000000000000e+00 1.000000000000e-06 
1.450000000000e+01 0.000000000000e+00 0.000000000000e+00 2.000000000000e+00 0.000000000000e+00 0.000000000000e+00 1.000000000000e-05 0.000000000000e+00 0.000000000000e+00 1.000000000000e-06 2.000000000000e-01 2.000000000000e-02 0.000000000000e+00 0.000000000000e+00 1.000000000000e-06 1.000000000000e-05 0.000000000000e+00 0.000000000000e+00 1.000000000000e-06 
1.500000000000e+01 0.000000000000e+00 0.000000000000e+00 2.000000000000e+00 0.000000000000e+00 0.000000000000e+00 1.000000000000e-05 0.000000000000e+00 0.000000000000e+00 1.000000000000e-06 2.000000000000e-01 2.000000000000e-02 0.000000000000e+00 0.000000000000e+00 1.000000000000e-06 1.000000000000e-05 0.000000000000e+00 0.000000000000e+00 1.000000000000e-06 
1.550000000000e+01 0.000000000000e+00 0.000000000000e+00 2.000000000000e+00 0.000000000000e+00 0.000000000000e+00 1.000000000000e-05 0.000000000000e+00 0.000000000000e+00 1.000000000000e-06 2.000000000000e-01 2.000000000000e-02 0.000000000000e+00 0.000000000000e+00 1.000000000000e-06 1.000000000000e-05 0.000000000000e+00 0.000000000000e+00 1.000000000000e-06 
1.600000000000e+01 0.000000000000e+00 0.000000000000e+00 2.000000000000e+00 0.000000000000e+00 0.000000000000e+00 1.000000000000e-05 0.000000000000e+00 0.000000000000e+00 1.000000000000e-06 2.000000000000e-01 2.000000000000e-02 0.000000000000e+00 0.000000000000e+00 1.000000000000e-06 1.000000000000e-05 0.000000000000e+00 0.000000000000e+00 1.000000000000e-06 
1.650000000000e+01 0.000000000000e+00 0.000000000000e+00 2.000000000000e+00 0.000000000000e+00 0.000000000000e+00 1.000000000000e-05 0.000000000000e+00 0.000000000000e+00 1.000000000000e-06 2.000000000000e-01 2.000000000000e-02 0.000000000000e+00 0.000000000000e+00 1.000000000000e-06 1.000000000000e-05 0.000000000000e+00 0.000000000000e+00 1.000000000000e-06 
1.700000000000e+01 0.000000000000e+00 0.000000000000e+00 2.000000000000e+00 0.000000000000e+00 0.000000000000e+00 1.000000000000e-05 0.000000000000e+00 0.000000000000e+00 1.000000000000e-06 2.000000000000e-01 2.000000000000e-02 0.000000000000e+00 0.000000000000e+00 1.000000000000e-06 1.000000000000e-05 0.000000000000e+00 0.000000000000e+00 1.000000000000e-06 
1.750000000000e+01 0.000000000000e+00 0.000000000000e+00 2.000000000000e+00 0.000000000000e+00 0.000000000000e+00 1.000000000000e-05 0.000000000000e+00 0.000000000000e+00 1.000000000000e-06 2.000000000000e-01 2.000000000000e-02 0.000000000000e+00 0.000000000000e+00 1.000000000000e-06 1.000000000000e-05 0.000000000000e+00 0.000000000000e+00 1.000000000000e-06 
1.800000000000e+01 0.000000000000e+00 0.000000000000e+00 2.000000000000e+00 0.000000000000e+00 0.000000000000e+00 1.000000000000e-05 0.000000000000e+00 0.000000000000e+00 1.000000000000e-06 2.000000000000e-01 2.000000000000e-02 0.000000000000e+00 0.000000000000e+00 1.000000000000e-06 1.000000000000e-05 0.000000000000e+00 0.000000000000e+00 1.000000000000e-06 
1.850000000000e+01 0.000000000000e+00 0.000000000000e+00 2.000000000000e+00 0.000000000000e+00 0.000000000000e+00 1.000000000000e-05 0.000000000000e+00 0.000000000000e+00 1.000000000000e-06 2.000000000000e-01 2.000000000000e-02 0.000000000000e+00 0.000000000000e+00 1.000000000000e-06 1.000000000000e-05 0.000000000000e+00 0.000000000000e+00 1.000000000000e-06 
1.900000000000e+01 0.000000000000e+00 0.000000000000e+00 2.000000000000e+00 0.000000000000e+00 0.000000000000e+00 1.000000000000e-05 0.000000000000e+00 0.000000000000e+00 1.000000000000e-06 2.000000000000e-01 2.000000000000e-02 0.000000000000e+00 0.000000000000e+00 1.000000000000e-06 1.000000000000e-05 0.000000000000e+00 0.000000000000e+00 1.000000000000e-06 
1.950000000000e+01 0.000000000000e+00 0.000000000000e+00 2.000000000000e+00 0.000000000000e+00 0.000000000000e+00 1.000000000000e-05 0.000000000000e+00 0.000000000000e+00 1.000000000000e-06 2.000000000000e-01 2.000000000000e-02 0.000000000000e+00 0.000000000000e+00 1.000000000000e-06 1.000000000000e-05 0.000000000000e+00 0.000000000000e+00 1.000000000000e-06 
2.000000000000e+01 0.000000000000e+00 0.000000000000e+00 2.000000000000e+00 0.000000000000e+00 0.000000000000e+00 1.000000000000e-05 0.000000000000e+00 0.000000000000e+00 1.000000000000e-06 2.000000000000e-01 2.000000000000e-02 0.000000000000e+00 0.000000000000e+00 1.000000000000e-06 1.000000000000e-05 0.000000000000e+00 0.000000000000e+00 1.000000000000e-06 
2.050000000000e+01 0.000000000000e+00 0.000000000000e+00 2.000000000000e+00 0.000000000000e+00 0.000000000000e+00 1.000000000000e-05 0.000000000000e+00 0.000000000000e+00 1.000000000000e-06 2.000000000000e-01 2.000000000000e-02 0.000000000000e+00 0.000000000000e+00 1.000000000000e-06 1.000000000000e-05 0.000000000000e+00 0.000000000000e+00 1.000000000000e-06 
2.100000000000e+01 0.000000000000e+00 0.000000000000e+00 2.000000000000e+00 0.000000000000e+00 0.000000000000e+00 1.000000000000e-05 0.000000000000e+00 0.000000000000e+00 1.000000000000e-06 2.000000000000e-01 2.000000000000e-02 0.000000000000e+00 0.000000000000e+00 1.000000000000e-06 1.000000000000e-05 0.000000000000e+00 0.000000000000e+00 1.000000000000e-06 
2.150000000000e+01 0.000000000000e+00 0.000000000000e+00 2.000000000000e+00 0.000000000000e+00 0.000000000000e+00 1.000000000000e-05 0.000000000000e+00 0.000000000000e+00 1.000000000000e-06 2.000000000000e-01 2.000000000000e-02 0.000000000000e+00 0.000000000000e+00 1.000000000000e-06 1.000000000000e-05 0.000000000000e+00 0.000000000000e+00 1.000000000000e-06 
2.200000000000e+01 0.000000000000e+00 0.000000000000e+00 2.000000000000e+00 0.000000000000e+00 0.000000000000e+00 1.000000000000e-05 0.000000000000e+00 0.000000000000e+00 1.000000000000e-06 2.000000000000e-01 2.000000000000e-02 0.000000000000e+00 0.000000000000e+00 1.000000000000e-06 1.000000000000e-05 0.000000000000e+00 0.000000000000e+00 1.000000000000e-06 
2.250000000000e+01 0.000000000000e+00 0.000000000000e+00 2.000000000000e+00 0.000000000000e+00 0.000000000000e+00 1.000000000000e-05 0.000000000000e+00 0.000000000000e+00 1.000000000000e-06 2.000000000000e-01 2.000000000000e-02 0.000000000000e+00 0.000000000000e+00 1.000000000000e-06 1.000000000000e-05 0.000000000000e+00 0.000000000000e+00 1.000000000000e-06 
2.300000000000e+01 0.000000000000e+00 0.000000000000e+00 2.000000000000e+00 0.000000000000e+00 0.000000000000e+00 1.000000000000e-05 0.000000000000e+00 0.000000000000e+00 1.000000000000e-06 2.000000000000e-01 2.000000000000e-02 0.000000000000e+00 0.000000000000e+00 1.000000000000e-06 1.000000000000e-05 0.000000000000e+00 0.000000000000e+00 1.000000000000e-06 
2.350000000000e+01 0.000000000000e+00 0.000000000000e+00 2.000000000000e+00 0.000000000000e+00 0.000000000000e+00 1.000000000000e-05 0.000000000000e+00 0.000000000000e+00 1.000000000000e-06 2.000000000000e-01 2.000000000000e-02 0.000000000000e+00 0.000000000000e+00 1.000000000000e-06 1.000000000000e-05 0.000000000000e+00 0.000000000000e+00 1.000000000000e-06 
2.400000000000e+01 0.000000000000e+00 0.000000000000e+00 2.000000000000e+00 0.000000000000e+00 0.000000000000e+00 1.000000000000e-05 0.000000000000e+00 0.000000000000e+00 1.000000000000e-06 2.000000000000e-01 2.000000000000e-02 0.000000000000e+00 0.000000000000e+00 1.000000000000e-06 1.000000000000e-05 0.000000000000e+00 0.000000000000e+00 1.000000000000e-06 
2.450000000000e+01 0.000000000000e+00 0.000000000000e+00 2.000000000000e+00 0.000000000000e+00 0.000000000000e+00 1.000000000000e-05 0.000000000000e+00 0.000000000000e+00 1.000000000000e-06 2.000000000000e-01 2.000000000000e-02 0.000000000000e+00 0.000000000000e+00 1.000000000000e-06 1.000000000000e-05 0.000000000000e+00 0.000000000000e+00 1.000000000000e-06 
2.500000000000e+01 0.000000000000e+00 0.000000000000e+00 2.000000000000e+00 0.000000000000e+00 0.000000000000e+00 1.000000000000e-05 0.000000000000e+00 0.000000000000e+00 1.000000000000e-06 2.000000000000e-01 2.000000000000e-02 0.000000000000e+00 0.000000000000e+00 1.000000000000e-06 1.000000000000e-05 0.000000000000e+00 0.000000000000e+00 1.000000000000e-06 
2.550000000000e+01 0.000000000000e+00 0.000000000000e+00 2.000000000000e+00 0.000000000000e+00 0.000000000000e+00 1.000000000000e-05 0.000000000000e+00 0.000000000000e+00 1.000000000000e-06 2.000000000000e-01 2.000000000000e-02 0.000000000000e+00 0.000000000000e+00 1.000000000000e-06 1.000000000000e-05 0.000000000000e+00 0.000000000000e+00 1.000000000000e-06 
2.600000000000e+01 0.000000000000e+00 0.000000000000e+00 2.000000000000e+00 0.000000000000e+00 0.000000000000e+00 1.000000000000e-05 0.000000000000e+00 0.000000000000e+00 1.000000000000e-06 2.000000000000e-01 2.000000000000e-02 0.000000000000e+00 0.000000000000e+00 1.000000000000e-06 1.000000000000e-05 0.000000000000e+00 0.000000000000e+00 1.000000000000e-06 
2.650000000000e+01 0.000000000000e+00 0.000000000000e+00 2.000000000000e+00 0.000000000000e+00 0.000000000000e+00 1.000000000000e-05 0.000000000000e+00 0.000000000000e+00 1.000000000000e-06 2.000000000000e-01 2.000000000000e-02 0.000000000000e+00 0.000000000000e+00 1.000000000000e-06 1.000000000000e-05 0.000000000000e+00 0.000000000000e+00 1.000000000000e-06 
2.700000000000e+01 0.000000000000e+00 0.000000000000e+00 2.000000000000e+00 0.000000000000e+00 0.000000000000e+00 1.000000000000e-05 0.000000000000e+00 0.000000000000e+00 1.000000000000e-06 2.000000000000e-01 2.000000000000e-02 0.000000000000e+00 0.000000000000e+00 1.000000000000e-06 1.000000000000e-05 0.000000000000e+00 0.000000000000e+00 1.000000000000e-06 
2.750000000000e+01 0.000000000000e+00 0.000000000000e+00 2.000000000000e+00 0.000000000000e+00 0.000000000000e+00 1.000000000000e-05 0.000000000000e+00 0.000000000000e+00 1.000000000000e-06 2.000000000000e-01 2.000000000000e-02 0.000000000000e+00 0.000000000000e+00 1.000000000000e-06 1.000000000000e-05 0.000000000000e+00 0.000000000000e+00 1.000000000000e-06 
2.800000000000e+01 0.000000000000e+00 0.000000000000e+00 2.000000000000e+00 0.000000000000e+00 0.000000000000e+00 1.000000000000e-05 0.000000000000e+00 0.000000000000e+00 1.000000000000e-06 2.000000000000e-01 2.000000000000e-02 0.000000000000e+00 0.000000000000e+00 1.000000000000e-06 1.000000000000e-05 0.000000000000e+00 0.000000000000e+00 1.000000000000e-06 
2.850000000000e+01 0.000000000000e+00 0.000000000000e+00 2.000000000000e+00 0.000000000000e+00 0.000000000000e+00 1.000000000000e-05 0.000000000000e+00 0.000000000000e+00 1.000000000000e-06 2.000000000000e-01 2.000000000000e-02 0.000000000000e+00 0.000000000000e+00 1.000000000000e-06 1.000000000000e-05 0.000000000000e+00 0.000000000000e+00 1.000000000000e-06 
2.900000000000e+01 0.000000000000e+00 0.000000000000e+00 2.000000000000e+00 0.000000000000e+00 0.000000000000e+00 1.000000000000e-05 0.000000000000e+00 0.000000000000e+00 1.000000000000e-06 2.000000000000e-01 2.000000000000e-02 0.000000000000e+00 0.000000000000e+00 1.000000000000e-06 1.000000000000e-05 0.000000000000e+00 0.000000000000e+00 1.000000000000e-06 
2.950000000000e+01 0.000000000000e+00 0.000000000000e+00 2.000000000000e+00 0.000000000000e+00 0.000000000000e+00 1.000000000000e-05 0.000000000000e+00 0.000000000000e+00 1.000000000000e-06 2.000000000000e-01 2.000000000000e-02 0.000000000000e+00 0.000000000000e+00 1.000000000000e-06 1.000000000000e-05 0.000000000000e+00 0.000000000000e+00 1.000000000000e-06 
3.000000000000e+01 0.000000000000e+00 0.000000000000e+00 2.000000000000e+00 0.000000000000e+00 0.000000000000e+00 1.000000000000e-05 0.000000000000e+00 0.000000000000e+00 1.000000000000e-06 2.000000000000e-01 2.000000000000e-02 0.000000000000e+00 0.000000000000e+00 1.000000000000e-06 1.000000000000e-05 0.000000000000e+00 0.000000000000e+00 1.000000000000e-06 
3.050000000000e+01 0.000000000000e+00 0.000000000000e+00 2.000000000000e+00 0.000000000000e+00 0.000000000000e+00 1.000000000000e-05 0.000000000000e+00 0.000000000000e+00 1.000000000000e-06 2.000000000000e-01 2.000000000000e-02 0.000000000000e+00 0.000000000000e+00 1.000000000000e-06 1.000000000000e-05 0.000000000000e+00 0.000000000000e+00 1.000000000000e-06 
3.100000000000e+01 0.000000000000e+00 0.000000000000e+00 2.000000000000e+00 0.000000000000e+00 0.000000000000e+00 1.000000000000e-05 0.000000000000e+00 0.000000000000e+00 1.000000000000e-06 2.000000000000e-01 2.000000000000e-02 0.000000000000e+00 0.000000000000e+00 1.000000000000e-06 1.000000000000e-05 0.000000000000e+00 0.000000000000e+00 1.000000000000e-06 
3.150000000000e+01 0.000000000000e+00 0.000000000000e+00 2.000000000000e+00 0.000000000000e+00 0.000000000000e+00 1.000000000000e-05 0.000000000000e+00 0.000000000000e+00 1.000000000000e-06 2.000000000000e-01 2.000000000000e-02 0.000000000000e+00 0.000000000000e+00 1.000000000000e-06 1.000000000000e-05 0.000000000000e+00 0.000000000000e+00 1.000000000000e-06 
3.200000000000e+01 0.000000000000e+00 0.000000000000e+00 2.000000000000e+00 0.000000000000e+00 0.000000000000e+00 1.000000000000e-05 0.000000000000e+00 0.000000000000e+00 1.000000000000e-06 2.000000000000e-01 2.000000000000e-02 0.000000000000e+00 0.000000000000e+00 1.000000000000e-06 1.000000000000e-05 0.000000000000e+00 0.000000000000e+00 1.000000000000e-06 
3.250000000000e+01 0.000000000000e+00 0.000000000000e+00 2.000000000000e+00 0.000000000000e+00 0.000000000000e+00 1.000000000000e-05 0.000000000000e+00 0.000000000000e+00 1.000000000000e-06 2.000000000000e-01 2.000000000000e-02 0.000000000000e+00 0.000000000000e+00 1.000000000000e-06 1.000000000000e-05 0.000000000000e+00 0.000000000000e+00 1.000000000000e-06 
3.300000000000e+01 0.000000000000e+00 0.000000000000e+00 2.000000000000e+00 0.000000000000e+00 0.000000000000e+00 1.000000000000e-05 0.000000000000e+00 0.000000000000e+00 1.000000000000e-06 2.000000000000e-01 2.000000000000e-02 0.000000000000e+00 0.000000000000e+00 1.000000000000e-06 1.000000000000e-05 0.000000000000e+00 0.000000000000e+00 1.000000000000e-06 
3.350000000000e+01 0.000000000000e+00 0.000000000000e+00 2.000000000000e+00 0.000000000000e+00 0.000000000000e+00 1.000000000000e-05 0.000000000000e+00 0.000000000000e+00 1.000000000000e-06 2.000000000000e-01 2.000000000000e-02 0.000000000000e+00 0.000000000000e+00 1.000000000000e-06 1.000000000000e-05 0.000000000000e+00 0.000000000000e+00 1.000000000000e-06 
3.400000000000e+01 0.000000000000e+00 0.000000000000e+00 2.000000000000e+00 0.000000000000e+00 0.000000000000e+00 1.000000000000e-05 0.000000000000e+00 0.000000000000e+00 1.000000000000e-06 2.000000000000e-01 2.000000000000e-02 0.000000000000e+00 0.000000000000e+00 1.000000000000e-06 1.000000000000e-05 0.000000000000e+00 0.000000000000e+00 1.000000000000e-06 
3.450000000000e+01 0.000000000000e+00 0.000000000000e+00 2.000000000000e+00 0.000000000000e+00 0.000000000000e+00 1.000000000000e-05 0.000000000000e+00 0.000000000000e+00 1.000000000000e-06 2.000000000000e-01 2.000000000000e-02 0.000000000000e+00 0.000000000000e+00 1.000000000000e-06 1.000000000000e-05 0.000000000000e+00 0.000000000000e+00 1.000000000000e-06 
3.500000000000e+01 0.000000000000e+00 0.000000000000e+00 2.000000000000e+00 0.000000000000e+00 0.000000000000e+00 1.000000000000e-05 0.000000000000e+00 0.000000000000e+00 1.000000000000e-06 2.000000000000e-01 2.000000000000e-02 0.000000000000e+00 0.000000000000e+00 1.000000000000e-06 1.000000000000e-05 0.000000000000e+00 0.000000000000e+00 1.000000000000e-06 
3.550000000000e+01 0.000000000000e+00 0.000000000000e+00 2.000000000000e+00 0.000000000000e+00 0.000000000000e+00 1.000000000000e-05 0.000000000000e+00 0.000000000000e+00 1.000000000000e-06 2.000000000000e-01 2.000000000000e-02 0.000000000000e+00 0.000000000000e+00 1.000000000000e-06 1.000000000000e-05 0.000000000000e+00 0.000000000000e+00 1.000000000000e-06 
3.600000000000e+01 0.000000000000e+00 0.000000000000e+00 2.000000000000e+00 0.000000000000e+00 0.000000000000e+00 1.000000000000e-05 0.000000000000e+00 0.000000000000e+00 1.000000000000e-06 2.000000000000e-01 2.000000000000e-02 0.000000000000e+00 0.000000000000e+00 1.000000000000e-06 1.000000000000e-05 0.000000000000e+00 0.000000000000e+00 1.000000000000e-06 
3.650000000000e+01 0.000000000000e+00 0.000000000000e+00 2.000000000000e+00 0.000000000000e+00 0.000000000000e+00 1.000000000000e-05 0.000000000000e+00 0.000000000000e+00 1.000000000000e-06 2.000000000000e-01 2.000000000000e-02 0.000000000000e+00 0.000000000000e+00 1.000000000000e-06 1.000000000000e-05 0.000000000000e+00 0.000000000000e+00 1.000000000000e-06 
3.700000000000e+01 0.000000000000e+00 0.000000000000e+00 2.000000000000e+00 0.000000000000e+00 0.000000000000e+00 1.000000000000e-05 0.000000000000e+00 0.000000000000e+00 1.000000000000e-06 2.000000000000e-01 2.000000000000e-02 0.000000000000e+00 0.000000000000e+00 1.000000000000e-06 1.000000000000e-05 0.000000000000e+00 0.000000000000e+00 1.000000000000e-06 
3.750000000000e+01 0.000000000000e+00 0.000000000000e+00 2.000000000000e+00 0.000000000000e+00 0.000000000000e+00 1.000000000000e-05 0.000000000000e+00 0.000000000000e+00 1.000000000000e-06 2.000000000000e-01 2.000000000000e-02 0.000000000000e+00 0.000000000000e+00 1.000000000000e-06 1.000000000000e-05 0.000000000000e+00 0.000000000000e+00 1.000000000000e-06 
3.800000000000e+01 0.000000000000e+00 0.000000000000e+00 2.000000000000e+00 0.000000000000e+00 0.000000000000e+00 1.000000000000e-05 0.000000000000e+00 0.000000000000e+00 1.000000000000e-06 2.000000000000e-01 2.000000000000e-02 0.000000000000e+00 0.000000000000e+00 1.000000000000e-06 1.000000000000e-05 0.000000000000e+00 0.000000000000e+00 1.000000000000e-06 
3.850000000000e+01 0.000000000000e+00 0.000000000000e+00 2.000000000000e+00 0.000000000000e+00 0.000000000000e+00 1.000000000000e-05 0.000000000000e+00 0.000000000000e+00 1.000000000000e-06 2.000000000000e-01 2.000000000000e-02 0.000000000000e+00 0.000000000000e+00 1.000000000000e-06 1.000000000000e-05 0.000000000000e+00 0.000000000000e+00 1.000000000000e-06 
3.900000000000e+01 0.000000000000e+00 0.000000000000e+00 2.000000000000e+00 0.000000000000e+00 0.000000000000e+00 1.000000000000e-05 0.000000000000e+00 0.000000000000e+00 1.000000000000e-06 2.000000000000e-01 2.000000000000e-02 0.000000000000e+00 0.000000000000e+00 1.000000000000e-06 1.000000000000e-05 0.000000000000e+00 0.000000000000e+00 1.000000000000e-06 
3.950000000000e+01 0.000000000000e+00 0.000000000000e+00 2.000000000000e+00 0.000000000000e+00 0.000000000000e+00 1.000000000000e-05 0.000000000000e+00 0.000000000000e+00 1.000000000000e-06 2.000000000000e-01 2.000000000000e-02 0.000000000000e+00 0.000000000000e+00 1.000000000000e-06 1.000000000000e-05 0.000000000000e+00 0.000000000000e+00 1.000000000000e-06 
4.000000000000e+01 0.000000000000e+00 0.000000000000e+00 2.000000000000e+00 0.000000000000e+00 0.000000000000e+00 1.000000000000e-05 0.000000000000e+00 0.000000000000e+00 1.000000000000e-06 2.000000000000e-01 2.000000000000e-02 0.000000000000e+00 0.000000000000e+00 1.000000000000e-06 1.000000000000e-05 0.000000000000e+00 0.000000000000e+00 1.000000000000e-06 