 TITLE = "Time curves in points"
 VARIABLES = "TIME "  "PRESSURE1"  "TEMPERATURE1"  "VELOCITY_X1"  "VELOCITY_Y1"  "VELOCITY_Z1" 
 ZONE T="POINT=POINT17"
0.000000000000e+00 1.750000000000e+06 6.000000000000e+01 0.000000000000e+00 0.000000000000e+00 0.000000000000e+00 
1.000000000000e+00 1.753836364093e+06 5.999999999697e+01 -3.810119051408e-03 -2.742129719517e-04 -2.055476565860e-02 
3.710000000000e+00 1.769939411949e+06 5.999999999697e+01 -3.047653880164e-03 -6.100740523296e-04 -1.504073481691e-02 
1.091860000000e+01 1.794165085870e+06 5.999999999696e+01 -1.766924231692e-03 -7.415442079952e-04 -7.435544025145e-03 
2.973304600000e+01 1.814117786606e+06 5.999999999694e+01 -7.380408160511e-04 -4.803771617572e-04 -2.565876782155e-03 
7.789802776000e+01 1.828151585592e+06 5.999999999693e+01 -2.864984428423e-04 -2.034547220279e-04 -9.580369492426e-04 
1.987921319600e+02 1.839158169061e+06 5.999999999692e+01 -1.466911559105e-04 -8.742432573565e-05 -5.521029461959e-04 
4.961916283600e+02 1.846370810979e+06 5.999999999690e+01 -9.059238915941e-05 -4.869066669502e-05 -3.658222564831e-04 
1.212924414660e+03 1.848459941785e+06 5.999999999687e+01 -5.513519177000e-05 -2.799794003579e-05 -2.369226244282e-04 
2.904413790660e+03 1.843365336424e+06 5.999999999685e+01 -2.888206835140e-05 -9.405692421376e-06 -1.455222053483e-04 
6.811754248660e+03 1.826854455227e+06 5.999999999686e+01 -9.746431848671e-06 9.454903370081e-06 -8.210911984840e-05 
1.564234368266e+04 1.792576771788e+06 5.999999999700e+01 3.314087659863e-06 2.578145466942e-05 -3.993645894255e-05 
3.515794633266e+04 1.736214046344e+06 5.999999999748e+01 1.081983409247e-05 3.660629103463e-05 -1.493452872847e-05 
7.731164805266e+04 1.662488802297e+06 5.999999999868e+01 1.293321001257e-05 4.142745601999e-05 -3.571598422006e-06 
1.662559586927e+05 1.585481768500e+06 6.000000000097e+01 1.206220287957e-05 4.253409275937e-05 -2.594230693563e-07 
3.494812385927e+05 1.524679171995e+06 6.000000000336e+01 1.123547873127e-05 4.247835941590e-05 1.569282583372e-07 
7.177640511927e+05 1.492693032555e+06 6.000000000163e+01 1.107707884931e-05 4.236004646862e-05 7.099534261508e-08 
1.439598363893e+06 1.482688994750e+06 5.999999999383e+01 1.109485655694e-05 4.232340817245e-05 2.132120604212e-08 
2.818301900893e+06 1.480938285191e+06 5.999999998136e+01 1.110398668515e-05 4.231753847340e-05 1.164532758672e-08 
5.382690479893e+06 1.480770124857e+06 5.999999940979e+01 1.110511506581e-05 4.231700631385e-05 1.069023768228e-08 
1.002423380889e+07 1.480761225175e+06 5.999971610643e+01 1.110518015449e-05 4.231697892588e-05 1.063927806077e-08 
1.819335006789e+07 1.480760961532e+06 5.998795355944e+01 1.110518214469e-05 4.231697812446e-05 1.063776408662e-08 
3.216253886789e+07 1.480760957064e+06 5.987127981939e+01 1.110518217859e-05 4.231697811074e-05 1.063773870964e-08 
5.535139227789e+07 1.480760957020e+06 5.941982454803e+01 1.110518217873e-05 4.231697811032e-05 1.063773818364e-08 
9.268544626789e+07 1.480760957019e+06 5.850928900164e+01 1.110518217917e-05 4.231697811030e-05 1.063773853698e-08 
1.509265704979e+08 1.480760957019e+06 5.735092737143e+01 1.110518217890e-05 4.231697811053e-05 1.063773820175e-08 
2.388706680779e+08 1.480760957023e+06 5.630328882195e+01 1.110518217927e-05 4.231697811104e-05 1.063773911057e-08 
3.672690505779e+08 1.480760957018e+06 5.558157674589e+01 1.110518217833e-05 4.231697811013e-05 1.063773843664e-08 
5.483107698779e+08 1.480760957019e+06 5.518430058848e+01 1.110518217902e-05 4.231697811056e-05 1.063773846899e-08 
7.945275080779e+08 1.480760957017e+06 5.499732389501e+01 1.110518217878e-05 4.231697811025e-05 1.063773843159e-08 
1.117071435178e+09 1.480760957019e+06 5.490990002666e+01 1.110518217909e-05 4.231697811060e-05 1.063773848847e-08 
1.523476783278e+09 1.480760957019e+06 5.485924894236e+01 1.110518217911e-05 4.231697811079e-05 1.063773850594e-08 
2.015227254478e+09 1.480760957018e+06 5.482182767719e+01 1.110518217909e-05 4.231697811081e-05 1.063773825602e-08 
2.585657801078e+09 1.480760957017e+06 5.479242063261e+01 1.110518217947e-05 4.231697811055e-05 1.063773838627e-08 
3.218835707878e+09 1.480760957019e+06 5.477057477708e+01 1.110518217897e-05 4.231697811051e-05 1.063773834193e-08 
3.890004289078e+09 1.480760957019e+06 5.475560622516e+01 1.110518217878e-05 4.231697811061e-05 1.063773821666e-08 
4.567884556078e+09 1.480760957022e+06 5.474603458522e+01 1.110518217873e-05 4.231697811094e-05 1.063773851466e-08 
