 TITLE = "Time curves in points"
 VARIABLES = "TIME "  "PRESSURE1"  "TEMPERATURE1"  "VELOCITY_X1"  "VELOCITY_Y1"  "VELOCITY_Z1" 
 ZONE T="POINT=POINT15"
0.000000000000e+00 1.750000000000e+06 6.000000000000e+01 0.000000000000e+00 0.000000000000e+00 0.000000000000e+00 
1.000000000000e+00 1.745330941369e+06 5.987243367638e+01 -2.761646219230e-03 1.707151060895e-03 -1.930835120712e-02 
3.710000000000e+00 1.745564329616e+06 5.987260352207e+01 -1.692012880011e-03 1.002769587911e-03 -1.165033219792e-02 
1.091860000000e+01 1.750989600882e+06 5.987277693977e+01 -6.447093638035e-04 3.665504281745e-04 -4.374528678704e-03 
2.973304600000e+01 1.761688777851e+06 5.987291929574e+01 -2.013876445764e-04 9.814881743076e-05 -1.298422871756e-03 
7.789802776000e+01 1.775922146057e+06 5.987309986810e+01 -9.753538184371e-05 3.850634687224e-05 -5.912311777040e-04 
1.987921319600e+02 1.788288224359e+06 5.987342609670e+01 -6.611137742588e-05 2.526445901451e-05 -3.972611012923e-04 
4.961916283600e+02 1.795892583239e+06 5.987403403130e+01 -4.647963356784e-05 1.724369703015e-05 -2.771758739807e-04 
1.212924414660e+03 1.798012470446e+06 5.987513121514e+01 -3.211564240977e-05 1.013640348962e-05 -1.841892455852e-04 
2.904413790660e+03 1.793001287284e+06 5.987706311859e+01 -2.113513505316e-05 4.668682517596e-06 -1.129710112344e-04 
6.811754248660e+03 1.776793021959e+06 5.988050345350e+01 -1.231044286844e-05 1.781049038335e-06 -6.197848806059e-05 
1.564234368266e+04 1.743013807681e+06 5.988697824788e+01 -5.302461087981e-06 1.531652811838e-06 -2.994522199390e-05 
3.515794633266e+04 1.687197612262e+06 5.989999727498e+01 -5.502578787231e-08 3.466862061265e-06 -1.474013905576e-05 
7.731164805266e+04 1.613905086883e+06 5.992552736068e+01 3.717068094506e-06 6.824425335647e-06 -1.193809627956e-05 
1.662559586927e+05 1.537190347999e+06 5.996343926408e+01 6.437537475097e-06 1.059804753196e-05 -1.549890291799e-05 
3.494812385927e+05 1.476586260270e+06 5.997630048239e+01 8.275727907441e-06 1.365844726625e-05 -2.001192566951e-05 
7.177640511927e+05 1.444708018614e+06 5.988976501983e+01 9.206990431675e-06 1.529039712509e-05 -2.263530549799e-05 
1.439598363893e+06 1.434739435912e+06 5.977771671735e+01 9.497491294246e-06 1.580458109675e-05 -2.347497647321e-05 
2.818301900893e+06 1.432995108375e+06 5.992768309215e+01 9.548455266777e-06 1.589488900040e-05 -2.362273179914e-05 
5.382690479893e+06 1.432827568949e+06 6.012886420465e+01 9.553359154648e-06 1.590357719415e-05 -2.363694436369e-05 
1.002423380889e+07 1.432818702303e+06 5.932592620308e+01 9.553618907177e-06 1.590403730989e-05 -2.363769685559e-05 
1.819335006789e+07 1.432818439640e+06 5.687197101857e+01 9.553626605414e-06 1.590405094443e-05 -2.363771914989e-05 
3.216253886789e+07 1.432818435189e+06 5.337799171894e+01 9.553626735541e-06 1.590405117525e-05 -2.363771952815e-05 
5.535139227789e+07 1.432818435145e+06 4.998667918594e+01 9.553626736391e-06 1.590405117726e-05 -2.363771953268e-05 
9.268544626789e+07 1.432818435144e+06 4.742617082320e+01 9.553626736812e-06 1.590405117762e-05 -2.363771953231e-05 
1.509265704979e+08 1.432818435144e+06 4.580959357039e+01 9.553626736718e-06 1.590405117765e-05 -2.363771953288e-05 
2.388706680779e+08 1.432818435148e+06 4.491443160840e+01 9.553626736654e-06 1.590405117744e-05 -2.363771953229e-05 
3.672690505779e+08 1.432818435143e+06 4.446068881046e+01 9.553626736639e-06 1.590405117749e-05 -2.363771953255e-05 
5.483107698779e+08 1.432818435144e+06 4.423951676089e+01 9.553626736802e-06 1.590405117775e-05 -2.363771953290e-05 
7.945275080779e+08 1.432818435142e+06 4.413039456094e+01 9.553626736803e-06 1.590405117768e-05 -2.363771953260e-05 
1.117071435178e+09 1.432818435144e+06 4.407376727098e+01 9.553626736678e-06 1.590405117744e-05 -2.363771953218e-05 
1.523476783278e+09 1.432818435144e+06 4.404238738720e+01 9.553626736410e-06 1.590405117730e-05 -2.363771953279e-05 
2.015227254478e+09 1.432818435143e+06 4.402398334559e+01 9.553626736588e-06 1.590405117744e-05 -2.363771953257e-05 
2.585657801078e+09 1.432818435143e+06 4.401284466492e+01 9.553626736688e-06 1.590405117747e-05 -2.363771953224e-05 
3.218835707878e+09 1.432818435144e+06 4.400607636271e+01 9.553626736486e-06 1.590405117747e-05 -2.363771953316e-05 
3.890004289078e+09 1.432818435144e+06 4.400202147110e+01 9.553626736708e-06 1.590405117759e-05 -2.363771953267e-05 
4.567884556078e+09 1.432818435147e+06 4.399964010938e+01 9.553626736788e-06 1.590405117753e-05 -2.363771953208e-05 
