 TITLE = "Time curves in points"
 VARIABLES = "TIME "  "PRESSURE1"  "TEMPERATURE1"  "VELOCITY_X1"  "VELOCITY_Y1"  "VELOCITY_Z1" 
 ZONE T="POINT=POINT16"
0.000000000000e+00 1.750000000000e+06 6.000000000000e+01 0.000000000000e+00 0.000000000000e+00 0.000000000000e+00 
1.000000000000e+00 1.750427044131e+06 6.000084640515e+01 -2.597589250982e-03 -2.634474813145e-03 -7.325013755562e-03 
3.710000000000e+00 1.757923065994e+06 6.000084638503e+01 -2.232911275695e-03 -2.389581515974e-03 -6.471604999751e-03 
1.091860000000e+01 1.782388631688e+06 6.000084636867e+01 -1.401168883856e-03 -1.622026910674e-03 -4.232559262116e-03 
2.973304600000e+01 1.817834814481e+06 6.000084631141e+01 -5.816114938360e-04 -7.359609136142e-04 -1.844638284450e-03 
7.789802776000e+01 1.847224778429e+06 6.000084603832e+01 -2.093953728803e-04 -2.821801293060e-04 -6.881945499734e-04 
1.987921319600e+02 1.864707574587e+06 6.000084524372e+01 -1.106249807197e-04 -1.479895892153e-04 -3.620207917299e-04 
4.961916283600e+02 1.874055392672e+06 6.000084331923e+01 -7.360563628393e-05 -9.839117235475e-05 -2.407570837543e-04 
1.212924414660e+03 1.877397673510e+06 6.000083868827e+01 -4.973378372431e-05 -6.720435825201e-05 -1.636980963330e-04 
2.904413790660e+03 1.873466205364e+06 6.000082720558e+01 -3.317688091937e-05 -4.401668759837e-05 -1.080885470094e-04 
6.811754248660e+03 1.858034080416e+06 6.000079862340e+01 -2.142019377636e-05 -2.594948362836e-05 -6.636507240149e-05 
1.564234368266e+04 1.824534492412e+06 6.000072912828e+01 -1.277099078856e-05 -1.222443742652e-05 -3.505348892468e-05 
3.515794633266e+04 1.768634285301e+06 6.000056624068e+01 -7.462776739168e-06 -2.727914750952e-06 -1.432404558592e-05 
7.731164805266e+04 1.695217643255e+06 6.000020833836e+01 -5.876335926120e-06 3.098288751029e-06 -3.949455895862e-06 
1.662559586927e+05 1.618423257480e+06 5.999952200288e+01 -6.482960658387e-06 6.377795015999e-06 -2.266758962613e-07 
3.494812385927e+05 1.557714995225e+06 5.999855402701e+01 -7.353342283292e-06 8.097757718362e-06 9.384140840381e-07 
7.177640511927e+05 1.525749235876e+06 5.999808861320e+01 -7.791587089290e-06 8.837372432231e-06 1.345181947699e-06 
1.439598363893e+06 1.515746611448e+06 5.999949879985e+01 -7.917160472156e-06 9.050857692673e-06 1.463225758175e-06 
2.818301900893e+06 1.513995761162e+06 6.000120519501e+01 -7.938042630436e-06 9.087141090551e-06 1.483887984178e-06 
5.382690479893e+06 1.513827572157e+06 5.999877246853e+01 -7.940003262770e-06 9.090589981820e-06 1.485884510122e-06 
1.002423380889e+07 1.513818670647e+06 5.999875594162e+01 -7.940106081799e-06 9.090771827288e-06 1.485990528961e-06 
1.819335006789e+07 1.513818406947e+06 5.999836305757e+01 -7.940109117100e-06 9.090777206852e-06 1.485993673995e-06 
3.216253886789e+07 1.513818402476e+06 6.001230605393e+01 -7.940109168440e-06 9.090777297961e-06 1.485993727350e-06 
5.535139227789e+07 1.513818402433e+06 6.034062081906e+01 -7.940109168998e-06 9.090777299041e-06 1.485993728057e-06 
9.268544626789e+07 1.513818402430e+06 6.155510569774e+01 -7.940109169041e-06 9.090777298886e-06 1.485993727779e-06 
1.509265704979e+08 1.513818402432e+06 6.381287115530e+01 -7.940109168933e-06 9.090777299024e-06 1.485993728126e-06 
2.388706680779e+08 1.513818402435e+06 6.650720060352e+01 -7.940109168957e-06 9.090777298966e-06 1.485993728012e-06 
3.672690505779e+08 1.513818402431e+06 6.884156005790e+01 -7.940109168998e-06 9.090777299096e-06 1.485993728134e-06 
5.483107698779e+08 1.513818402433e+06 7.044699739101e+01 -7.940109168796e-06 9.090777298952e-06 1.485993728217e-06 
7.945275080779e+08 1.513818402430e+06 7.139565718743e+01 -7.940109169046e-06 9.090777298967e-06 1.485993727886e-06 
1.117071435178e+09 1.513818402432e+06 7.191314480886e+01 -7.940109168972e-06 9.090777299020e-06 1.485993728064e-06 
1.523476783278e+09 1.513818402432e+06 7.218865172669e+01 -7.940109168897e-06 9.090777298959e-06 1.485993728084e-06 
2.015227254478e+09 1.513818402432e+06 7.233632068099e+01 -7.940109168949e-06 9.090777299047e-06 1.485993728135e-06 
2.585657801078e+09 1.513818402432e+06 7.241671914300e+01 -7.940109168925e-06 9.090777298966e-06 1.485993728056e-06 
3.218835707878e+09 1.513818402431e+06 7.246104964980e+01 -7.940109168978e-06 9.090777299126e-06 1.485993728205e-06 
3.890004289078e+09 1.513818402432e+06 7.248565199816e+01 -7.940109168995e-06 9.090777298993e-06 1.485993727995e-06 
4.567884556078e+09 1.513818402435e+06 7.249933467902e+01 -7.940109168941e-06 9.090777298948e-06 1.485993728008e-06 
