<?xml version="1.0"?>
<!-- Time step: 1 | Time: 8.640000000000e+04 -->
<VTKFile type="UnstructuredGrid" version="0.1" byte_order="LittleEndian">
  <UnstructuredGrid>
    <Piece NumberOfPoints="402" NumberOfCells="200">
      <Points>
        <DataArray type="Float64" NumberOfComponents="3" format="ascii">
          0.000000000000e+00 0.000000000000e+00 0.000000000000e+00
          1.000000000000e+02 0.000000000000e+00 0.000000000000e+00
          1.000000000000e+02 5.000000000000e-01 0.000000000000e+00
          0.000000000000e+00 5.000000000000e-01 0.000000000000e+00
          5.000000000000e+01 0.000000000000e+00 0.000000000000e+00
          5.000000000000e+01 5.000000000000e-01 0.000000000000e+00
          5.000000000000e-01 0.000000000000e+00 0.000000000000e+00
          1.000000000000e+00 0.000000000000e+00 0.000000000000e+00
          1.500000000000e+00 0.000000000000e+00 0.000000000000e+00
          2.000000000000e+00 0.000000000000e+00 0.000000000000e+00
          2.500000000000e+00 0.000000000000e+00 0.000000000000e+00
          3.000000000000e+00 0.000000000000e+00 0.000000000000e+00
          3.500000000000e+00 0.000000000000e+00 0.000000000000e+00
          4.000000000000e+00 0.000000000000e+00 0.000000000000e+00
          4.500000000000e+00 0.000000000000e+00 0.000000000000e+00
          5.000000000000e+00 0.000000000000e+00 0.000000000000e+00
          5.500000000000e+00 0.000000000000e+00 0.000000000000e+00
          6.000000000000e+00 0.000000000000e+00 0.000000000000e+00
          6.500000000000e+00 0.000000000000e+00 0.000000000000e+00
          7.000000000000e+00 0.000000000000e+00 0.000000000000e+00
          7.500000000000e+00 0.000000000000e+00 0.000000000000e+00
          8.000000000000e+00 0.000000000000e+00 0.000000000000e+00
          8.500000000000e+00 0.000000000000e+00 0.000000000000e+00
          9.000000000000e+00 0.000000000000e+00 0.000000000000e+00
          9.500000000000e+00 0.000000000000e+00 0.000000000000e+00
          1.000000000000e+01 0.000000000000e+00 0.000000000000e+00
          1.050000000000e+01 0.000000000000e+00 0.000000000000e+00
          1.100000000000e+01 0.000000000000e+00 0.000000000000e+00
          1.150000000000e+01 0.000000000000e+00 0.000000000000e+00
          1.200000000000e+01 0.000000000000e+00 0.000000000000e+00
          1.250000000000e+01 0.000000000000e+00 0.000000000000e+00
          1.300000000000e+01 0.000000000000e+00 0.000000000000e+00
          1.350000000000e+01 0.000000000000e+00 0.000000000000e+00
          1.400000000000e+01 0.000000000000e+00 0.000000000000e+00
          1.450000000000e+01 0.000000000000e+00 0.000000000000e+00
          1.500000000000e+01 0.000000000000e+00 0.000000000000e+00
          1.550000000000e+01 0.000000000000e+00 0.000000000000e+00
          1.600000000000e+01 0.000000000000e+00 0.000000000000e+00
          1.650000000000e+01 0.000000000000e+00 0.000000000000e+00
          1.700000000000e+01 0.000000000000e+00 0.000000000000e+00
          1.750000000000e+01 0.000000000000e+00 0.000000000000e+00
          1.800000000000e+01 0.000000000000e+00 0.000000000000e+00
          1.850000000000e+01 0.000000000000e+00 0.000000000000e+00
          1.900000000000e+01 0.000000000000e+00 0.000000000000e+00
          1.950000000000e+01 0.000000000000e+00 0.000000000000e+00
          2.000000000000e+01 0.000000000000e+00 0.000000000000e+00
          2.050000000000e+01 0.000000000000e+00 0.000000000000e+00
          2.100000000000e+01 0.000000000000e+00 0.000000000000e+00
          2.150000000000e+01 0.000000000000e+00 0.000000000000e+00
          2.200000000000e+01 0.000000000000e+00 0.000000000000e+00
          2.250000000000e+01 0.000000000000e+00 0.000000000000e+00
          2.300000000000e+01 0.000000000000e+00 0.000000000000e+00
          2.350000000000e+01 0.000000000000e+00 0.000000000000e+00
          2.400000000000e+01 0.000000000000e+00 0.000000000000e+00
          2.450000000000e+01 0.000000000000e+00 0.000000000000e+00
          2.500000000000e+01 0.000000000000e+00 0.000000000000e+00
          2.550000000000e+01 0.000000000000e+00 0.000000000000e+00
          2.600000000000e+01 0.000000000000e+00 0.000000000000e+00
          2.650000000000e+01 0.000000000000e+00 0.000000000000e+00
          2.700000000000e+01 0.000000000000e+00 0.000000000000e+00
          2.750000000000e+01 0.000000000000e+00 0.000000000000e+00
          2.800000000000e+01 0.000000000000e+00 0.000000000000e+00
          2.850000000000e+01 0.000000000000e+00 0.000000000000e+00
          2.900000000000e+01 0.000000000000e+00 0.000000000000e+00
          2.950000000000e+01 0.000000000000e+00 0.000000000000e+00
          3.000000000000e+01 0.000000000000e+00 0.000000000000e+00
          3.050000000000e+01 0.000000000000e+00 0.000000000000e+00
          3.100000000000e+01 0.000000000000e+00 0.000000000000e+00
          3.150000000000e+01 0.000000000000e+00 0.000000000000e+00
          3.200000000000e+01 0.000000000000e+00 0.000000000000e+00
          3.250000000000e+01 0.000000000000e+00 0.000000000000e+00
          3.300000000000e+01 0.000000000000e+00 0.000000000000e+00
          3.350000000000e+01 0.000000000000e+00 0.000000000000e+00
          3.400000000000e+01 0.000000000000e+00 0.000000000000e+00
          3.450000000000e+01 0.000000000000e+00 0.000000000000e+00
          3.500000000000e+01 0.000000000000e+00 0.000000000000e+00
          3.550000000000e+01 0.000000000000e+00 0.000000000000e+00
          3.600000000000e+01 0.000000000000e+00 0.000000000000e+00
          3.650000000000e+01 0.000000000000e+00 0.000000000000e+00
          3.700000000000e+01 0.000000000000e+00 0.000000000000e+00
          3.750000000000e+01 0.000000000000e+00 0.000000000000e+00
          3.800000000000e+01 0.000000000000e+00 0.000000000000e+00
          3.850000000000e+01 0.000000000000e+00 0.000000000000e+00
          3.900000000000e+01 0.000000000000e+00 0.000000000000e+00
          3.950000000000e+01 0.000000000000e+00 0.000000000000e+00
          4.000000000000e+01 0.000000000000e+00 0.000000000000e+00
          4.050000000000e+01 0.000000000000e+00 0.000000000000e+00
          4.100000000000e+01 0.000000000000e+00 0.000000000000e+00
          4.150000000000e+01 0.000000000000e+00 0.000000000000e+00
          4.200000000000e+01 0.000000000000e+00 0.000000000000e+00
          4.250000000000e+01 0.000000000000e+00 0.000000000000e+00
          4.300000000000e+01 0.000000000000e+00 0.000000000000e+00
          4.350000000000e+01 0.000000000000e+00 0.000000000000e+00
          4.400000000000e+01 0.000000000000e+00 0.000000000000e+00
          4.450000000000e+01 0.000000000000e+00 0.000000000000e+00
          4.500000000000e+01 0.000000000000e+00 0.000000000000e+00
          4.550000000000e+01 0.000000000000e+00 0.000000000000e+00
          4.600000000000e+01 0.000000000000e+00 0.000000000000e+00
          4.650000000000e+01 0.000000000000e+00 0.000000000000e+00
          4.700000000000e+01 0.000000000000e+00 0.000000000000e+00
          4.750000000000e+01 0.000000000000e+00 0.000000000000e+00
          4.800000000000e+01 0.000000000000e+00 0.000000000000e+00
          4.850000000000e+01 0.000000000000e+00 0.000000000000e+00
          4.900000000000e+01 0.000000000000e+00 0.000000000000e+00
          4.950000000000e+01 0.000000000000e+00 0.000000000000e+00
          5.000000000000e-01 5.000000000000e-01 0.000000000000e+00
          1.000000000000e+00 5.000000000000e-01 0.000000000000e+00
          1.500000000000e+00 5.000000000000e-01 0.000000000000e+00
          2.000000000000e+00 5.000000000000e-01 0.000000000000e+00
          2.500000000000e+00 5.000000000000e-01 0.000000000000e+00
          3.000000000000e+00 5.000000000000e-01 0.000000000000e+00
          3.500000000000e+00 5.000000000000e-01 0.000000000000e+00
          4.000000000000e+00 5.000000000000e-01 0.000000000000e+00
          4.500000000000e+00 5.000000000000e-01 0.000000000000e+00
          5.000000000000e+00 5.000000000000e-01 0.000000000000e+00
          5.500000000000e+00 5.000000000000e-01 0.000000000000e+00
          6.000000000000e+00 5.000000000000e-01 0.000000000000e+00
          6.500000000000e+00 5.000000000000e-01 0.000000000000e+00
          7.000000000000e+00 5.000000000000e-01 0.000000000000e+00
          7.500000000000e+00 5.000000000000e-01 0.000000000000e+00
          8.000000000000e+00 5.000000000000e-01 0.000000000000e+00
          8.500000000000e+00 5.000000000000e-01 0.000000000000e+00
          9.000000000000e+00 5.000000000000e-01 0.000000000000e+00
          9.500000000000e+00 5.000000000000e-01 0.000000000000e+00
          1.000000000000e+01 5.000000000000e-01 0.000000000000e+00
          1.050000000000e+01 5.000000000000e-01 0.000000000000e+00
          1.100000000000e+01 5.000000000000e-01 0.000000000000e+00
          1.150000000000e+01 5.000000000000e-01 0.000000000000e+00
          1.200000000000e+01 5.000000000000e-01 0.000000000000e+00
          1.250000000000e+01 5.000000000000e-01 0.000000000000e+00
          1.300000000000e+01 5.000000000000e-01 0.000000000000e+00
          1.350000000000e+01 5.000000000000e-01 0.000000000000e+00
          1.400000000000e+01 5.000000000000e-01 0.000000000000e+00
          1.450000000000e+01 5.000000000000e-01 0.000000000000e+00
          1.500000000000e+01 5.000000000000e-01 0.000000000000e+00
          1.550000000000e+01 5.000000000000e-01 0.000000000000e+00
          1.600000000000e+01 5.000000000000e-01 0.000000000000e+00
          1.650000000000e+01 5.000000000000e-01 0.000000000000e+00
          1.700000000000e+01 5.000000000000e-01 0.000000000000e+00
          1.750000000000e+01 5.000000000000e-01 0.000000000000e+00
          1.800000000000e+01 5.000000000000e-01 0.000000000000e+00
          1.850000000000e+01 5.000000000000e-01 0.000000000000e+00
          1.900000000000e+01 5.000000000000e-01 0.000000000000e+00
          1.950000000000e+01 5.000000000000e-01 0.000000000000e+00
[...]
      <PointData Scalars="PRESSURE1">
        <DataArray type="Float64" Name="PRESSURE1" format="ascii">
          9.810000000000e+03 0.000000000000e+00 0.000000000000e+00 9.810000000000e+03 4.904999999992e+03 4.904999999992e+03 9.760950000000e+03 9.711900000000e+03 9.662850000000e+03 9.613800000000e+03 9.564750000000e+03 9.515699999999e+03 9.466649999999e+03 9.417599999999e+03 9.368549999999e+03 9.319499999999e+03 9.270449999999e+03 9.221399999999e+03 9.172349999999e+03 9.123299999999e+03 9.074249999999e+03 9.025199999999e+03 8.976149999999e+03 8.927099999999e+03 8.878049999999e+03 8.828999999999e+03 8.779949999998e+03 8.730899999998e+03 8.681849999998e+03 8.632799999998e+03 8.583749999998e+03 8.534699999998e+03 8.485649999998e+03 8.436599999998e+03 8.387549999998e+03 8.338499999998e+03 8.289449999998e+03 8.240399999998e+03 8.191349999998e+03 8.142299999998e+03 8.093249999998e+03 8.044199999997e+03 7.995149999997e+03 7.946099999997e+03 7.897049999997e+03 7.847999999997e+03 7.798949999997e+03 7.749899999997e+03 7.700849999997e+03 7.651799999997e+03 7.602749999997e+03 7.553699999997e+03 7.504649999997e+03 7.455599999997e+03 7.406549999996e+03 7.357499999996e+03 7.308449999996e+03 7.259399999996e+03 7.210349999996e+03 7.161299999996e+03 7.112249999996e+03 7.063199999996e+03 7.014149999996e+03 6.965099999996e+03 6.916049999996e+03 6.866999999996e+03 6.817949999996e+03 6.768899999995e+03 6.719849999995e+03 6.670799999995e+03 6.621749999995e+03 6.572699999995e+03 6.523649999995e+03 6.474599999995e+03 6.425549999995e+03 6.376499999995e+03 6.327449999995e+03 6.278399999995e+03 6.229349999995e+03 6.180299999995e+03 6.131249999994e+03 6.082199999994e+03 6.033149999994e+03 5.984099999994e+03 5.935049999994e+03 5.885999999994e+03 5.836949999994e+03 5.787899999994e+03 5.738849999994e+03 5.689799999994e+03 5.640749999994e+03 5.591699999994e+03 5.542649999993e+03 5.493599999993e+03 5.444549999993e+03 5.395499999993e+03 5.346449999993e+03 5.297399999993e+03 5.248349999993e+03 5.199299999993e+03 5.150249999993e+03 5.101199999993e+03 5.052149999993e+03 5.003099999993e+03 4.954049999992e+03 9.760950000000e+03 9.711900000000e+03 9.662850000000e+03 9.613800000000e+03 9.564750000000e+03 9.515699999999e+03 9.466649999999e+03 9.417599999999e+03 9.368549999999e+03 9.319499999999e+03 9.270449999999e+03 9.221399999999e+03 9.172349999999e+03 9.123299999999e+03 9.074249999999e+03 9.025199999999e+03 8.976149999999e+03 8.927099999999e+03 8.878049999999e+03 8.828999999999e+03 8.779949999998e+03 8.730899999998e+03 8.681849999998e+03 8.632799999998e+03 8.583749999998e+03 8.534699999998e+03 8.485649999998e+03 8.436599999998e+03 8.387549999998e+03 8.338499999998e+03 8.289449999998e+03 8.240399999998e+03 8.191349999998e+03 8.142299999998e+03 8.093249999998e+03 8.044199999997e+03 7.995149999997e+03 7.946099999997e+03 7.897049999997e+03 7.847999999997e+03 7.798949999997e+03 7.749899999997e+03 7.700849999997e+03 7.651799999997e+03 7.602749999997e+03 7.553699999997e+03 7.504649999997e+03 7.455599999997e+03 7.406549999996e+03 7.357499999996e+03 7.308449999996e+03 7.259399999996e+03 7.210349999996e+03 7.161299999996e+03 7.112249999996e+03 7.063199999996e+03 7.014149999996e+03 6.965099999996e+03 6.916049999996e+03 6.866999999996e+03 6.817949999996e+03 6.768899999995e+03 6.719849999995e+03 6.670799999995e+03 6.621749999995e+03 6.572699999995e+03 6.523649999995e+03 6.474599999995e+03 6.425549999995e+03 6.376499999995e+03 6.327449999995e+03 6.278399999995e+03 6.229349999995e+03 6.180299999995e+03 6.131249999994e+03 6.082199999994e+03 6.033149999994e+03 5.984099999994e+03 5.935049999994e+03 5.885999999994e+03 5.836949999994e+03 5.787899999994e+03 5.738849999994e+03 5.689799999994e+03 5.640749999994e+03 5.591699999994e+03 5.542649999993e+03 5.493599999993e+03 5.444549999993e+03 5.395499999993e+03 5.346449999993e+03 5.297399999993e+03 5.248349999993e+03 5.199299999993e+03 5.150249999993e+03 5.101199999993e+03 5.052149999993e+03 5.003099999993e+03 4.954049999992e+03 4.855949999992e+03 4.806899999992e+03 4.757849999992e+03 4.708799999992e+03 4.659749999992e+03 4.610699999992e+03 4.561649999992e+03 4.512599999992e+03 4.463549999992e+03 4.414499999992e+03 4.365449999992e+03 4.316399999992e+03 4.267349999991e+03 4.218299999991e+03 4.169249999991e+03 4.120199999991e+03 4.071149999991e+03 4.022099999991e+03 3.973049999991e+03 3.923999999991e+03 3.874949999991e+03 3.825899999991e+03 3.776849999991e+03 3.727799999991e+03 3.678749999991e+03 3.629699999991e+03 3.580649999991e+03 3.531599999991e+03 3.482549999991e+03 3.433499999991e+03 3.384449999991e+03 3.335399999991e+03 3.286349999991e+03 3.237299999991e+03 3.188249999991e+03 3.139199999991e+03 3.090149999991e+03 3.041099999991e+03 2.992049999991e+03 2.942999999991e+03 2.893949999991e+03 2.844899999991e+03 2.795849999991e+03 2.746799999991e+03 2.697749999991e+03 2.648699999991e+03 2.599649999991e+03 2.550599999991e+03 2.501549999991e+03 2.452499999991e+03 2.403449999991e+03 2.354399999991e+03 2.305349999991e+03 2.256299999991e+03 2.207249999992e+03 2.158199999992e+03 2.109149999992e+03 2.060099999992e+03 2.011049999992e+03 1.961999999992e+03 1.912949999992e+03 1.863899999992e+03 1.814849999992e+03 1.765799999993e+03 1.716749999993e+03 1.667699999993e+03 1.618649999993e+03 1.569599999993e+03 1.520549999993e+03 1.471499999993e+03 1.422449999994e+03 1.373399999994e+03 1.324349999994e+03 1.275299999994e+03 1.226249999994e+03 1.177199999995e+03 1.128149999995e+03 1.079099999995e+03 1.030049999995e+03 9.809999999954e+02 9.319499999956e+02 8.828999999958e+02 8.338499999960e+02 7.847999999962e+02 7.357499999964e+02 6.866999999967e+02 6.376499999969e+02 5.885999999971e+02 5.395499999974e+02 4.904999999976e+02 4.414499999978e+02 3.923999999981e+02 3.433499999983e+02 2.942999999985e+02 2.452499999988e+02 1.961999999990e+02 1.471499999993e+02 9.809999999951e+01 4.904999999975e+01 4.855949999992e+03 4.806899999992e+03 4.757849999992e+03 4.708799999992e+03 4.659749999992e+03 4.610699999992e+03 4.561649999992e+03 4.512599999992e+03 4.463549999992e+03 4.414499999992e+03 4.365449999992e+03 4.316399999992e+03 4.267349999991e+03 4.218299999991e+03 4.169249999991e+03 4.120199999991e+03 4.071149999991e+03 4.022099999991e+03 3.973049999991e+03 3.923999999991e+03 3.874949999991e+03 3.825899999991e+03 3.776849999991e+03 3.727799999991e+03 3.678749999991e+03 3.629699999991e+03 3.580649999991e+03 3.531599999991e+03 3.482549999991e+03 3.433499999991e+03 3.384449999991e+03 3.335399999991e+03 3.286349999991e+03 3.237299999991e+03 3.188249999991e+03 3.139199999991e+03 3.090149999991e+03 3.041099999991e+03 2.992049999991e+03 2.942999999991e+03 2.893949999991e+03 2.844899999991e+03 2.795849999991e+03 2.746799999991e+03 2.697749999991e+03 2.648699999991e+03 2.599649999991e+03 2.550599999991e+03 2.501549999991e+03 2.452499999991e+03 2.403449999991e+03 2.354399999991e+03 2.305349999991e+03 2.256299999991e+03 2.207249999992e+03 2.158199999992e+03 2.109149999992e+03 2.060099999992e+03 2.011049999992e+03 1.961999999992e+03 1.912949999992e+03 1.863899999992e+03 1.814849999992e+03 1.765799999993e+03 1.716749999993e+03 1.667699999993e+03 1.618649999993e+03 1.569599999993e+03 1.520549999993e+03 1.471499999993e+03 1.422449999994e+03 1.373399999994e+03 1.324349999994e+03 1.275299999994e+03 1.226249999994e+03 1.177199999995e+03 1.128149999995e+03 1.079099999995e+03 1.030049999995e+03 9.809999999954e+02 9.319499999956e+02 8.828999999958e+02 8.338499999960e+02 7.847999999962e+02 7.357499999964e+02 6.866999999967e+02 6.376499999969e+02 5.885999999971e+02 5.395499999974e+02 4.904999999976e+02 4.414499999978e+02 3.923999999981e+02 3.433499999983e+02 2.942999999985e+02 2.452499999988e+02 1.961999999990e+02 1.471499999993e+02 9.809999999951e+01 4.904999999976e+01 
        </DataArray>
        <DataArray type="Float64" Name="GL_NODAL_VELOCITY1" NumberOfComponents="3" format="ascii">
          9.810000000021e-08 -6.232874916738e-22 0.000000000000e+00 9.809999999951e-08 1.057259537068e-21 0.000000000000e+00 9.809999999951e-08 1.064068702486e-21 0.000000000000e+00 9.810000000019e-08 -5.403486105715e-22 0.000000000000e+00 9.810000000016e-08 -1.986509139482e-21 0.000000000000e+00 9.810000000016e-08 -1.621256328114e-21 0.000000000000e+00 9.810000000016e-08 -2.891904759524e-20 0.000000000000e+00 9.810000000018e-08 -1.950041765143e-20 0.000000000000e+00 9.810000000020e-08 -3.061625660946e-20 0.000000000000e+00 9.810000000014e-08 1.565496455241e-20 0.000000000000e+00 9.810000000018e-08 4.748179711080e-22 0.000000000000e+00 9.810000000017e-08 1.566864568574e-20 0.000000000000e+00 9.810000000013e-08 1.946404771393e-21 0.000000000000e+00 9.810000000015e-08 -1.250570218356e-20 0.000000000000e+00 9.810000000014e-08 -2.711431371822e-20 0.000000000000e+00 9.810000000014e-08 2.178069288889e-20 0.000000000000e+00 9.810000000015e-08 -2.426761036299e-21 0.000000000000e+00 9.810000000014e-08 4.125856372547e-21 0.000000000000e+00 9.810000000014e-08 -2.118380027695e-20 0.000000000000e+00 9.810000000013e-08 1.718113536467e-20 0.000000000000e+00 9.810000000012e-08 1.454820860996e-21 0.000000000000e+00 9.810000000014e-08 4.772997438424e-21 0.000000000000e+00 9.810000000015e-08 1.244776965882e-20 0.000000000000e+00 9.810000000012e-08 -1.144480510255e-20 0.000000000000e+00 9.810000000013e-08 -8.427935292741e-21 0.000000000000e+00 9.810000000013e-08 -1.939332000767e-20 0.000000000000e+00 9.810000000013e-08 1.599014340968e-21 0.000000000000e+00 9.810000000014e-08 1.822835283759e-20 0.000000000000e+00 9.810000000013e-08 -2.072252481821e-20 0.000000000000e+00 9.810000000014e-08 1.649005628262e-20 0.000000000000e+00 9.810000000014e-08 8.097900273408e-22 0.000000000000e+00 9.810000000012e-08 2.385663578499e-23 0.000000000000e+00 9.810000000011e-08 1.405351762693e-20 0.000000000000e+00 9.810000000013e-08 7.448362578184e-21 0.000000000000e+00 9.810000000014e-08 -1.382031170399e-20 0.000000000000e+00 9.810000000012e-08 -2.292083663756e-20 0.000000000000e+00 9.810000000011e-08 1.385535510580e-20 0.000000000000e+00 9.810000000014e-08 -1.352175181121e-20 0.000000000000e+00 9.810000000014e-08 -5.106117235006e-21 0.000000000000e+00 9.810000000013e-08 -1.521312305279e-20 0.000000000000e+00 9.810000000014e-08 -2.641133114075e-21 0.000000000000e+00 9.810000000013e-08 -3.603799848789e-21 0.000000000000e+00 9.810000000014e-08 -3.585132496422e-21 0.000000000000e+00 9.810000000015e-08 -1.991407244085e-20 0.000000000000e+00 9.810000000015e-08 9.981626761098e-22 0.000000000000e+00 9.810000000016e-08 6.168962314409e-21 0.000000000000e+00 9.810000000014e-08 6.923521645743e-21 0.000000000000e+00 9.810000000015e-08 6.730012483046e-21 0.000000000000e+00 9.810000000016e-08 -1.002573302007e-20 0.000000000000e+00 9.810000000015e-08 4.219766088434e-21 0.000000000000e+00 9.810000000015e-08 -1.637130390901e-21 0.000000000000e+00 9.810000000015e-08 1.307383163223e-20 0.000000000000e+00 9.810000000016e-08 9.112220563834e-21 0.000000000000e+00 9.810000000015e-08 -1.559473249292e-21 0.000000000000e+00 9.810000000016e-08 1.473333732913e-21 0.000000000000e+00 9.810000000015e-08 1.867995732009e-20 0.000000000000e+00 9.810000000015e-08 8.204074885521e-21 0.000000000000e+00 9.810000000016e-08 -5.354467932739e-21 0.000000000000e+00 9.810000000015e-08 -1.427672363215e-20 0.000000000000e+00 9.810000000016e-08 5.956654817853e-21 0.000000000000e+00 9.810000000015e-08 1.294442191314e-21 0.000000000000e+00 9.810000000015e-08 1.408300457118e-20 0.000000000000e+00 9.810000000015e-08 8.144324389271e-21 0.000000000000e+00 9.810000000015e-08 -5.868717400826e-21 0.000000000000e+00 9.810000000016e-08 4.426650379360e-21 0.000000000000e+00 9.810000000017e-08 -8.284316205085e-21 0.000000000000e+00 9.810000000015e-08 -1.071115919207e-20 0.000000000000e+00 9.810000000015e-08 2.699182469626e-21 0.000000000000e+00 9.810000000016e-08 1.010364009900e-20 0.000000000000e+00 9.810000000016e-08 -6.247835212157e-22 0.000000000000e+00 9.810000000016e-08 3.894958861577e-21 0.000000000000e+00 9.810000000016e-08 -5.952018138063e-21 0.000000000000e+00 9.810000000016e-08 4.497775795135e-21 0.000000000000e+00 9.810000000017e-08 -5.098416647129e-22 0.000000000000e+00 9.810000000016e-08 2.430228283905e-21 0.000000000000e+00 9.810000000016e-08 -1.597701112968e-21 0.000000000000e+00 9.810000000017e-08 1.085926247666e-20 0.000000000000e+00 9.810000000017e-08 6.868354395905e-21 0.000000000000e+00 9.810000000016e-08 2.096128060875e-20 0.000000000000e+00 9.810000000016e-08 -5.292833666907e-22 0.000000000000e+00 9.810000000018e-08 -2.763756033953e-21 0.000000000000e+00 9.810000000016e-08 9.916711387594e-21 0.000000000000e+00 9.810000000017e-08 1.129341605459e-20 0.000000000000e+00 9.810000000017e-08 -5.568726693640e-21 0.000000000000e+00 9.810000000017e-08 2.633583978083e-21 0.000000000000e+00 9.810000000017e-08 7.958260671835e-21 0.000000000000e+00 9.810000000015e-08 -1.328418553916e-20 0.000000000000e+00 9.810000000016e-08 2.150457235355e-20 0.000000000000e+00 9.810000000017e-08 -3.682720700317e-21 0.000000000000e+00 9.810000000015e-08 1.435250846700e-21 0.000000000000e+00 9.810000000015e-08 1.303445477016e-20 0.000000000000e+00 9.810000000017e-08 4.222039471729e-21 0.000000000000e+00 9.810000000017e-08 1.139009585627e-20 0.000000000000e+00 9.810000000016e-08 -3.620781632671e-21 0.000000000000e+00 9.810000000017e-08 1.737182240831e-20 0.000000000000e+00 9.810000000017e-08 -3.778331222328e-21 0.000000000000e+00 9.810000000016e-08 -6.432450889937e-21 0.000000000000e+00 9.810000000016e-08 -3.610522583321e-21 0.000000000000e+00 9.810000000017e-08 -4.799490629198e-21 0.000000000000e+00 9.810000000015e-08 -1.317064645609e-21 0.000000000000e+00 9.810000000016e-08 1.704953218721e-21 0.000000000000e+00 9.810000000017e-08 -2.207260668865e-21 0.000000000000e+00 9.810000000016e-08 -1.184977943400e-20 0.000000000000e+00 9.810000000016e-08 3.459626391766e-21 0.000000000000e+00 9.810000000017e-08 5.942281580096e-21 0.000000000000e+00 9.810000000015e-08 -2.892114359615e-20 0.000000000000e+00 9.810000000018e-08 -1.753514513831e-20 0.000000000000e+00 9.810000000021e-08 -3.037549810289e-20 0.000000000000e+00 9.810000000015e-08 1.423047236665e-20 0.000000000000e+00 9.810000000017e-08 -1.512597305409e-21 0.000000000000e+00 9.810000000018e-08 1.689837866636e-20 0.000000000000e+00 9.810000000012e-08 1.000315538258e-20 0.000000000000e+00 9.810000000013e-08 -1.414410816648e-20 0.000000000000e+00 9.810000000016e-08 -3.440935904683e-20 0.000000000000e+00 9.810000000015e-08 2.532217230668e-20 0.000000000000e+00 9.810000000014e-08 -3.833278252309e-21 0.000000000000e+00 9.810000000014e-08 4.661963712098e-21 0.000000000000e+00 9.810000000014e-08 -1.703803808263e-20 0.000000000000e+00 9.810000000014e-08 1.271784261990e-20 0.000000000000e+00 9.810000000011e-08 7.717604132786e-21 0.000000000000e+00 9.810000000014e-08 4.642988005697e-21 0.000000000000e+00 9.810000000014e-08 1.093357140931e-20 0.000000000000e+00 9.810000000011e-08 -9.010093930319e-21 0.000000000000e+00 9.810000000013e-08 -5.411197207567e-21 0.000000000000e+00 9.810000000013e-08 -2.372562506987e-20 0.000000000000e+00 9.810000000015e-08 5.652802547723e-21 0.000000000000e+00 9.810000000013e-08 9.993371574127e-21 0.000000000000e+00 9.810000000012e-08 -1.671632643550e-20 0.000000000000e+00 9.810000000015e-08 1.324146557816e-20 0.000000000000e+00 9.810000000014e-08 -4.905179964853e-22 0.000000000000e+00 9.810000000013e-08 -2.514216656653e-22 0.000000000000e+00 9.810000000012e-08 1.429599745779e-20 0.000000000000e+00 9.810000000012e-08 8.480874675190e-21 0.000000000000e+00 9.810000000013e-08 -1.341339034355e-20 0.000000000000e+00 9.810000000013e-08 -1.962533376596e-20 0.000000000000e+00 9.810000000012e-08 1.621281010777e-20 0.000000000000e+00 9.810000000013e-08 -1.388899633914e-20 0.000000000000e+00 9.810000000014e-08 -2.279725994241e-21 0.000000000000e+00 9.810000000013e-08 -1.899715836995e-20 0.000000000000e+00 9.810000000014e-08 2.179323647744e-21 0.000000000000e+00 9.810000000013e-08 -2.187402413426e-21 0.000000000000e+00 9.810000000014e-08 -9.462955807150e-21 0.000000000000e+00 9.810000000016e-08 -1.565649936240e-20 0.000000000000e+00 9.810000000016e-08 1.422086345715e-21 0.000000000000e+00 9.810000000016e-08 2.873425865665e-21 0.000000000000e+00 9.810000000015e-08 5.447619790301e-21 0.000000000000e+00 9.810000000014e-08 8.611089474300e-21 0.000000000000e+00 9.810000000016e-08 -1.159991919635e-20 0.000000000000e+00 9.810000000016e-08 3.290192683967e-21 0.000000000000e+00 9.810000000015e-08 -1.429329822124e-21 0.000000000000e+00 9.810000000015e-08 1.164605453143e-20 0.000000000000e+00 9.810000000015e-08 1.346161144374e-20 0.000000000000e+00 9.810000000015e-08 -4.516054271433e-21 0.000000000000e+00 9.810000000017e-08 4.811055156353e-21 0.000000000000e+00 9.810000000015e-08 1.712242313238e-20 0.000000000000e+00 9.810000000015e-08 9.689455990979e-21 0.000000000000e+00 9.810000000015e-08 -5.636469509206e-21 0.000000000000e+00 9.810000000016e-08 -1.428420103263e-20 0.000000000000e+00 9.810000000016e-08 4.072401469915e-21 0.000000000000e+00 9.810000000015e-08 -1.616192616456e-22 0.000000000000e+00 9.810000000015e-08 1.386297755964e-20 0.000000000000e+00 9.810000000014e-08 4.227008457503e-21 0.000000000000e+00 9.810000000014e-08 -5.427024601639e-21 0.000000000000e+00 9.810000000016e-08 -7.706502669285e-22 0.000000000000e+00 9.810000000016e-08 -5.059445098966e-21 0.000000000000e+00 9.810000000015e-08 -1.508559536596e-20 0.000000000000e+00 9.810000000016e-08 1.978580275902e-21 0.000000000000e+00 9.810000000016e-08 1.190357454676e-20 0.000000000000e+00 9.810000000016e-08 3.332617689022e-22 0.000000000000e+00 9.810000000016e-08 6.533822198258e-21 0.000000000000e+00 9.810000000016e-08 -6.462360266727e-21 0.000000000000e+00 9.810000000016e-08 4.391626256968e-21 0.000000000000e+00 9.810000000017e-08 1.296119801636e-21 0.000000000000e+00 9.810000000016e-08 -1.685803569445e-22 0.000000000000e+00 9.810000000016e-08 1.288988841140e-21 0.000000000000e+00 9.810000000017e-08 1.127665019640e-20 0.000000000000e+00 9.810000000017e-08 7.448905166780e-21 0.000000000000e+00 9.810000000016e-08 1.918204649668e-20 0.000000000000e+00 9.810000000015e-08 2.649576204363e-21 0.000000000000e+00 9.810000000018e-08 -1.729002381234e-21 0.000000000000e+00 9.810000000017e-08 1.317020543410e-20 0.000000000000e+00 9.810000000016e-08 1.032489324216e-20 0.000000000000e+00 9.810000000017e-08 -5.350139268126e-21 0.000000000000e+00 9.810000000017e-08 6.613851606230e-21 0.000000000000e+00 9.810000000016e-08 8.286114368443e-21 0.000000000000e+00 9.810000000016e-08 -1.384108612749e-20 0.000000000000e+00 9.810000000016e-08 2.178139264843e-20 0.000000000000e+00 9.810000000016e-08 -4.177712773070e-23 0.000000000000e+00 9.810000000016e-08 9.330049994616e-22 0.000000000000e+00 9.810000000015e-08 1.285419656156e-20 0.000000000000e+00 9.810000000017e-08 2.281352310378e-21 0.000000000000e+00 9.810000000016e-08 1.304983877733e-20 0.000000000000e+00 9.810000000016e-08 -4.246855999948e-21 0.000000000000e+00 9.810000000017e-08 1.508218961539e-20 0.000000000000e+00 9.810000000016e-08 -1.036341418671e-21 0.000000000000e+00 9.810000000016e-08 -7.331143650592e-21 0.000000000000e+00 9.810000000016e-08 -1.023143599834e-21 0.000000000000e+00 9.810000000017e-08 -6.024002610652e-21 0.000000000000e+00 9.810000000016e-08 3.978899127423e-21 0.000000000000e+00 9.810000000016e-08 7.276491380904e-24 0.000000000000e+00 9.810000000016e-08 -3.154354700793e-21 0.000000000000e+00 9.810000000016e-08 -6.698734727034e-21 0.000000000000e+00 9.810000000017e-08 3.381906694949e-21 0.000000000000e+00 9.810000000016e-08 5.315773700741e-21 0.000000000000e+00 9.810000000015e-08 4.192474878645e-21 0.000000000000e+00 9.810000000015e-08 -4.976337032669e-21 0.000000000000e+00 9.810000000015e-08 1.118157785646e-20 0.000000000000e+00 9.810000000015e-08 6.322331364788e-21 0.000000000000e+00 9.810000000016e-08 4.087416479082e-21 0.000000000000e+00 9.810000000016e-08 -7.509776653021e-21 0.000000000000e+00 9.810000000014e-08 3.687296765525e-21 0.0000000000