VARIABLES  = "X","Y","Z", "TEMPERATURE1"
ZONE T="0.000000000000e+00s", N=110, E=90, F=FEPOINT, ET=QUADRILATERAL
STRANDID=1, SOLUTIONTIME=0.000000000000e+00
0.000000000000e+00 0.000000000000e+00 3.400000000000e-01 3.000000000000e+01 
1.000000000000e-02 0.000000000000e+00 3.400000000000e-01 3.000000000000e+01 
2.000000000000e-02 0.000000000000e+00 3.400000000000e-01 3.000000000000e+01 
3.000000000000e-02 0.000000000000e+00 3.400000000000e-01 3.000000000000e+01 
4.000000000000e-02 0.000000000000e+00 3.400000000000e-01 3.000000000000e+01 
5.000000000000e-02 0.000000000000e+00 3.400000000000e-01 3.000000000000e+01 
6.000000000000e-02 0.000000000000e+00 3.400000000000e-01 3.000000000000e+01 
7.000000000000e-02 0.000000000000e+00 3.400000000000e-01 3.000000000000e+01 
8.000000000000e-02 0.000000000000e+00 3.400000000000e-01 3.000000000000e+01 
9.000000000000e-02 0.000000000000e+00 3.400000000000e-01 3.000000000000e+01 
1.000000000000e-01 0.000000000000e+00 3.400000000000e-01 3.000000000000e+01 
0.000000000000e+00 0.000000000000e+00 3.300000000000e-01 3.000000000000e+01 
1.000000000000e-02 0.000000000000e+00 3.300000000000e-01 3.000000000000e+01 
2.000000000000e-02 0.000000000000e+00 3.300000000000e-01 3.000000000000e+01 
3.000000000000e-02 0.000000000000e+00 3.300000000000e-01 3.000000000000e+01 
4.000000000000e-02 0.000000000000e+00 3.300000000000e-01 3.000000000000e+01 
5.000000000000e-02 0.000000000000e+00 3.300000000000e-01 3.000000000000e+01 
6.000000000000e-02 0.000000000000e+00 3.300000000000e-01 3.000000000000e+01 
7.000000000000e-02 0.000000000000e+00 3.300000000000e-01 3.000000000000e+01 
8.000000000000e-02 0.000000000000e+00 3.300000000000e-01 3.000000000000e+01 
9.000000000000e-02 0.000000000000e+00 3.300000000000e-01 3.000000000000e+01 
1.000000000000e-01 0.000000000000e+00 3.300000000000e-01 3.000000000000e+01 
0.000000000000e+00 0.000000000000e+00 3.200000000000e-01 3.000000000000e+01 
1.000000000000e-02 0.000000000000e+00 3.200000000000e-01 3.000000000000e+01 
2.000000000000e-02 0.000000000000e+00 3.200000000000e-01 3.000000000000e+01 
3.000000000000e-02 0.000000000000e+00 3.200000000000e-01 3.000000000000e+01 
4.000000000000e-02 0.000000000000e+00 3.200000000000e-01 3.000000000000e+01 
5.000000000000e-02 0.000000000000e+00 3.200000000000e-01 3.000000000000e+01 
6.000000000000e-02 0.000000000000e+00 3.200000000000e-01 3.000000000000e+01 
7.000000000000e-02 0.000000000000e+00 3.200000000000e-01 3.000000000000e+01 
8.000000000000e-02 0.000000000000e+00 3.200000000000e-01 3.000000000000e+01 
9.000000000000e-02 0.000000000000e+00 3.200000000000e-01 3.000000000000e+01 
1.000000000000e-01 0.000000000000e+00 3.200000000000e-01 3.000000000000e+01 
0.000000000000e+00 0.000000000000e+00 3.100000000000e-01 3.000000000000e+01 
1.000000000000e-02 0.000000000000e+00 3.100000000000e-01 3.000000000000e+01 
2.000000000000e-02 0.000000000000e+00 3.100000000000e-01 3.000000000000e+01 
3.000000000000e-02 0.000000000000e+00 3.100000000000e-01 3.000000000000e+01 
4.000000000000e-02 0.000000000000e+00 3.100000000000e-01 3.000000000000e+01 
5.000000000000e-02 0.000000000000e+00 3.100000000000e-01 3.000000000000e+01 
6.000000000000e-02 0.000000000000e+00 3.100000000000e-01 3.000000000000e+01 
7.000000000000e-02 0.000000000000e+00 3.100000000000e-01 3.000000000000e+01 
8.000000000000e-02 0.000000000000e+00 3.100000000000e-01 3.000000000000e+01 
9.000000000000e-02 0.000000000000e+00 3.100000000000e-01 3.000000000000e+01 
1.000000000000e-01 0.000000000000e+00 3.100000000000e-01 3.000000000000e+01 
0.000000000000e+00 0.000000000000e+00 3.000000000000e-01 3.000000000000e+01 
1.000000000000e-02 0.000000000000e+00 3.000000000000e-01 3.000000000000e+01 
2.000000000000e-02 0.000000000000e+00 3.000000000000e-01 3.000000000000e+01 
3.000000000000e-02 0.000000000000e+00 3.000000000000e-01 3.000000000000e+01 
4.000000000000e-02 0.000000000000e+00 3.000000000000e-01 3.000000000000e+01 
5.000000000000e-02 0.000000000000e+00 3.000000000000e-01 3.000000000000e+01 
6.000000000000e-02 0.000000000000e+00 3.000000000000e-01 3.000000000000e+01 
7.000000000000e-02 0.000000000000e+00 3.000000000000e-01 3.000000000000e+01 
8.000000000000e-02 0.000000000000e+00 3.000000000000e-01 3.000000000000e+01 
9.000000000000e-02 0.000000000000e+00 3.000000000000e-01 3.000000000000e+01 
1.000000000000e-01 0.000000000000e+00 3.000000000000e-01 3.000000000000e+01 
0.000000000000e+00 0.000000000000e+00 2.900000000000e-01 3.000000000000e+01 
1.000000000000e-02 0.000000000000e+00 2.900000000000e-01 3.000000000000e+01 
2.000000000000e-02 0.000000000000e+00 2.900000000000e-01 3.000000000000e+01 
3.000000000000e-02 0.000000000000e+00 2.900000000000e-01 3.000000000000e+01 
4.000000000000e-02 0.000000000000e+00 2.900000000000e-01 3.000000000000e+01 
5.000000000000e-02 0.000000000000e+00 2.900000000000e-01 3.000000000000e+01 
6.000000000000e-02 0.000000000000e+00 2.900000000000e-01 3.000000000000e+01 
7.000000000000e-02 0.000000000000e+00 2.900000000000e-01 3.000000000000e+01 
8.000000000000e-02 0.000000000000e+00 2.900000000000e-01 3.000000000000e+01 
9.000000000000e-02 0.000000000000e+00 2.900000000000e-01 3.000000000000e+01 
1.000000000000e-01 0.000000000000e+00 2.900000000000e-01 3.000000000000e+01 
0.000000000000e+00 0.000000000000e+00 2.800000000000e-01 3.000000000000e+01 
1.000000000000e-02 0.000000000000e+00 2.800000000000e-01 3.000000000000e+01 
2.000000000000e-02 0.000000000000e+00 2.800000000000e-01 3.000000000000e+01 
3.000000000000e-02 0.000000000000e+00 2.800000000000e-01 3.000000000000e+01 
4.000000000000e-02 0.000000000000e+00 2.800000000000e-01 3.000000000000e+01 
5.000000000000e-02 0.000000000000e+00 2.800000000000e-01 3.000000000000e+01 
6.000000000000e-02 0.000000000000e+00 2.800000000000e-01 3.000000000000e+01 
7.000000000000e-02 0.000000000000e+00 2.800000000000e-01 3.000000000000e+01 
8.000000000000e-02 0.000000000000e+00 2.800000000000e-01 3.000000000000e+01 
9.000000000000e-02 0.000000000000e+00 2.800000000000e-01 3.000000000000e+01 
1.000000000000e-01 0.000000000000e+00 2.800000000000e-01 3.000000000000e+01 
0.000000000000e+00 0.000000000000e+00 2.700000000000e-01 3.000000000000e+01 
1.000000000000e-02 0.000000000000e+00 2.700000000000e-01 3.000000000000e+01 
2.000000000000e-02 0.000000000000e+00 2.700000000000e-01 3.000000000000e+01 
3.000000000000e-02 0.000000000000e+00 2.700000000000e-01 3.000000000000e+01 
4.000000000000e-02 0.000000000000e+00 2.700000000000e-01 3.000000000000e+01 
5.000000000000e-02 0.000000000000e+00 2.700000000000e-01 3.000000000000e+01 
6.000000000000e-02 0.000000000000e+00 2.700000000000e-01 3.000000000000e+01 
7.000000000000e-02 0.000000000000e+00 2.700000000000e-01 3.000000000000e+01 
8.000000000000e-02 0.000000000000e+00 2.700000000000e-01 3.000000000000e+01 
9.000000000000e-02 0.000000000000e+00 2.700000000000e-01 3.000000000000e+01 
1.000000000000e-01 0.000000000000e+00 2.700000000000e-01 3.000000000000e+01 
0.000000000000e+00 0.000000000000e+00 2.600000000000e-01 3.000000000000e+01 
1.000000000000e-02 0.000000000000e+00 2.600000000000e-01 3.000000000000e+01 
2.000000000000e-02 0.000000000000e+00 2.600000000000e-01 3.000000000000e+01 
3.000000000000e-02 0.000000000000e+00 2.600000000000e-01 3.000000000000e+01 
4.000000000000e-02 0.000000000000e+00 2.600000000000e-01 3.000000000000e+01 
5.000000000000e-02 0.000000000000e+00 2.600000000000e-01 3.000000000000e+01 
6.000000000000e-02 0.000000000000e+00 2.600000000000e-01 3.000000000000e+01 
7.000000000000e-02 0.000000000000e+00 2.600000000000e-01 3.000000000000e+01 
8.000000000000e-02 0.000000000000e+00 2.600000000000e-01 3.000000000000e+01 
9.000000000000e-02 0.000000000000e+00 2.600000000000e-01 3.000000000000e+01 
1.000000000000e-01 0.000000000000e+00 2.600000000000e-01 3.000000000000e+01 
0.000000000000e+00 0.000000000000e+00 2.500000000000e-01 3.000000000000e+01 
1.000000000000e-02 0.000000000000e+00 2.500000000000e-01 3.000000000000e+01 
2.000000000000e-02 0.000000000000e+00 2.500000000000e-01 3.000000000000e+01 
3.000000000000e-02 0.000000000000e+00 2.500000000000e-01 3.000000000000e+01 
4.000000000000e-02 0.000000000000e+00 2.500000000000e-01 3.000000000000e+01 
5.000000000000e-02 0.000000000000e+00 2.500000000000e-01 3.000000000000e+01 
6.000000000000e-02 0.000000000000e+00 2.500000000000e-01 3.000000000000e+01 
7.000000000000e-02 0.000000000000e+00 2.500000000000e-01 3.000000000000e+01 
8.000000000000e-02 0.000000000000e+00 2.500000000000e-01 3.000000000000e+01 
9.000000000000e-02 0.000000000000e+00 2.500000000000e-01 3.000000000000e+01 
1.000000000000e-01 0.000000000000e+00 2.500000000000e-01 3.000000000000e+01 
12  13  2  1  
13  14  3  2  
14  15  4  3  
15  16  5  4  
16  17  6  5  
17  18  7  6  
18  19  8  7  
19  20  9  8  
20  21  10  9  
21  22  11  10  
23  24  13  12  
24  25  14  13  
25  26  15  14  
26  27  16  15  
27  28  17  16  
28  29  18  17  
29  30  19  18  
30  31  20  19  
31  32  21  20  
32  33  22  21  
34  35  24  23  
35  36  25  24  
36  37  26  25  
37  38  27  26  
38  39  28  27  
39  40  29  28  
40  41  30  29  
41  42  31  30  
42  43  32  31  
43  44  33  32  
45  46  35  34  
46  47  36  35  
47  48  37  36  
48  49  38  37  
49  50  39  38  
50  51  40  39  
51  52  41  40  
52  53  42  41  
53  54  43  42  
54  55  44  43  
56  57  46  45  
57  58  47  46  
58  59  48  47  
59  60  49  48  
60  61  50  49  
61  62  51  50  
62  63  52  51  
63  64  53  52  
64  65  54  53  
65  66  55  54  
67  68  57  56  
68  69  58  57  
69  70  59  58  
70  71  60  59  
71  72  61  60  
72  73  62  61  
73  74  63  62  
74  75  64  63  
75  76  65  64  
76  77  66  65  
78  79  68  67  
79  80  69  68  
80  81  70  69  
81  82  71  70  
82  83  72  71  
83  84  73  72  
84  85  74  73  
85  86  75  74  
86  87  76  75  
87  88  77  76  
89  90  79  78  
90  91  80  79  
91  92  81  80  
92  93  82  81  
93  94  83  82  
94  95  84  83  
95  96  85  84  
96  97  86  85  
97  98  87  86  
98  99  88  87  
100  101  90  89  
101  102  91  90  
102  103  92  91  
103  104  93  92  
104  105  94  93  
105  106  95  94  
106  107  96  95  
107  108  97  96  
108  109  98  97  
109  110  99  98  
VARIABLES  = "X","Y","Z", "TEMPERATURE1"
ZONE T="1.000000000000e-02s", N=110, E=90, F=FEPOINT, ET=QUADRILATERAL
STRANDID=1, SOLUTIONTIME=1.000000000000e-02
0.000000000000e+00 0.000000000000e+00 3.400000000000e-01 3.559201601514e+01 
1.000000000000e-02 0.000000000000e+00 3.400000000000e-01 1.870949554277e+01 
2.000000000000e-02 0.000000000000e+00 3.400000000000e-01 7.000000000037e+01 
3.000000000000e-02 0.000000000000e+00 3.400000000000e-01 7.000000000037e+01 
4.000000000000e-02 0.000000000000e+00 3.400000000000e-01 7.000000000037e+01 
5.000000000000e-02 0.000000000000e+00 3.400000000000e-01 7.000000000037e+01 
6.000000000000e-02 0.000000000000e+00 3.400000000000e-01 7.000000000037e+01 
7.000000000000e-02 0.000000000000e+00 3.400000000000e-01 7.000000000037e+01 
8.000000000000e-02 0.000000000000e+00 3.400000000000e-01 7.000000000037e+01 
9.000000000000e-02 0.000000000000e+00 3.400000000000e-01 1.870949769409e+01 
1.000000000000e-01 0.000000000000e+00 3.400000000000e-01 3.559200732715e+01 
0.000000000000e+00 0.000000000000e+00 3.300000000000e-01 2.851760596202e+01 
1.000000000000e-02 0.000000000000e+00 3.300000000000e-01 3.299270218205e+01 
2.000000000000e-02 0.000000000000e+00 3.300000000000e-01 1.939888272813e+01 
3.000000000000e-02 0.000000000000e+00 3.300000000000e-01 1.939937729185e+01 
4.000000000000e-02 0.000000000000e+00 3.300000000000e-01 1.939924395323e+01 
5.000000000000e-02 0.000000000000e+00 3.300000000000e-01 1.939928782641e+01 
6.000000000000e-02 0.000000000000e+00 3.300000000000e-01 1.939924400004e+01 
7.000000000000e-02 0.000000000000e+00 3.300000000000e-01 1.939937710284e+01 
8.000000000000e-02 0.000000000000e+00 3.300000000000e-01 1.939888344461e+01 
9.000000000000e-02 0.000000000000e+00 3.300000000000e-01 3.299270239934e+01 
1.000000000000e-01 0.000000000000e+00 3.300000000000e-01 2.851760436895e+01 
0.000000000000e+00 0.000000000000e+00 3.200000000000e-01 3.039297037727e+01 
1.000000000000e-02 0.000000000000e+00 3.200000000000e-01 2.920674170295e+01 
2.000000000000e-02 0.000000000000e+00 3.200000000000e-01 3.280959932560e+01 
3.000000000000e-02 0.000000000000e+00 3.200000000000e-01 3.280933758867e+01 
4.000000000000e-02 0.000000000000e+00 3.200000000000e-01 3.280940816197e+01 
5.000000000000e-02 0.000000000000e+00 3.200000000000e-01 3.280938493074e+01 
6.000000000000e-02 0.000000000000e+00 3.200000000000e-01 3.280940816292e+01 
7.000000000000e-02 0.000000000000e+00 3.200000000000e-01 3.280933758485e+01 
8.000000000000e-02 0.000000000000e+00 3.200000000000e-01 3.280959934003e+01 
9.000000000000e-02 0.000000000000e+00 3.200000000000e-01 2.920674122896e+01 
1.000000000000e-01 0.000000000000e+00 3.200000000000e-01 3.039297227227e+01 
0.000000000000e+00 0.000000000000e+00 3.100000000000e-01 2.989582686018e+01 
1.000000000000e-02 0.000000000000e+00 3.100000000000e-01 3.021026429316e+01 
2.000000000000e-02 0.000000000000e+00 3.100000000000e-01 2.925537622741e+01 
3.000000000000e-02 0.000000000000e+00 3.100000000000e-01 2.925548025358e+01 
4.000000000000e-02 0.000000000000e+00 3.100000000000e-01 2.925545220266e+01 
5.000000000000e-02 0.000000000000e+00 3.100000000000e-01 2.925546143744e+01 
6.000000000000e-02 0.000000000000e+00 3.100000000000e-01 2.925545220119e+01 
7.000000000000e-02 0.000000000000e+00 3.100000000000e-01 2.925548025953e+01 
8.000000000000e-02 0.000000000000e+00 3.100000000000e-01 2.925537620492e+01 
9.000000000000e-02 0.000000000000e+00 3.100000000000e-01 3.021026451371e+01 
1.000000000000e-01 0.000000000000e+00 3.100000000000e-01 2.989582600951e+01 
0.000000000000e+00 0.000000000000e+00 3.000000000000e-01 3.002761542800e+01 
1.000000000000e-02 0.000000000000e+00 3.000000000000e-01 2.994426648333e+01 
2.000000000000e-02 0.000000000000e+00 3.000000000000e-01 3.019734651853e+01 
3.000000000000e-02 0.000000000000e+00 3.000000000000e-01 3.019730976443e+01 
4.000000000000e-02 0.000000000000e+00 3.000000000000e-01 3.019731967596e+01 
5.000000000000e-02 0.000000000000e+00 3.000000000000e-01 3.019731641249e+01 
6.000000000000e-02 0.000000000000e+00 3.000000000000e-01 3.019731967715e+01 
7.000000000000e-02 0.000000000000e+00 3.000000000000e-01 3.019730975968e+01 
8.000000000000e-02 0.000000000000e+00 3.000000000000e-01 3.019734653650e+01 
9.000000000000e-02 0.000000000000e+00 3.000000000000e-01 2.994426639008e+01 
1.000000000000e-01 0.000000000000e+00 3.000000000000e-01 3.002761572103e+01 
0.000000000000e+00 0.000000000000e+00 2.900000000000e-01 2.999267936894e+01 
1.000000000000e-02 0.000000000000e+00 2.900000000000e-01 3.001477294184e+01 
2.000000000000e-02 0.000000000000e+00 2.900000000000e-01 2.994769753791e+01 
3.000000000000e-02 0.000000000000e+00 2.900000000000e-01 2.994770971321e+01 
4.000000000000e-02 0.000000000000e+00 2.900000000000e-01 2.994770642957e+01 
5.000000000000e-02 0.000000000000e+00 2.900000000000e-01 2.994770751122e+01 
6.000000000000e-02 0.000000000000e+00 2.900000000000e-01 2.994770642794e+01 
7.000000000000e-02 0.000000000000e+00 2.900000000000e-01 2.994770971964e+01 
8.000000000000e-02 0.000000000000e+00 2.900000000000e-01 2.994769751371e+01 
9.000000000000e-02 0.000000000000e+00 2.900000000000e-01 3.001477300742e+01 
1.000000000000e-01 0.000000000000e+00 2.900000000000e-01 2.999267937551e+01 
0.000000000000e+00 0.000000000000e+00 2.800000000000e-01 3.000194068885e+01 
1.000000000000e-02 0.000000000000e+00 2.800000000000e-01 2.999608427462e+01 
2.000000000000e-02 0.000000000000e+00 2.800000000000e-01 3.001386169359e+01 
3.000000000000e-02 0.000000000000e+00 2.800000000000e-01 3.001385782149e+01 
4.000000000000e-02 0.000000000000e+00 2.800000000000e-01 3.001385886626e+01 
5.000000000000e-02 0.000000000000e+00 2.800000000000e-01 3.001385852061e+01 
6.000000000000e-02 0.000000000000e+00 2.800000000000e-01 3.001385887123e+01 
7.000000000000e-02 0.000000000000e+00 2.800000000000e-01 3.001385780194e+01 
8.000000000000e-02 0.000000000000e+00 2.800000000000e-01 3.001386176720e+01 
9.000000000000e-02 0.000000000000e+00 2.800000000000e-01 2.999608412671e+01 
1.000000000000e-01 0.000000000000e+00 2.800000000000e-01 3.000194027997e+01 
0.000000000000e+00 0.000000000000e+00 2.700000000000e-01 2.999948534680e+01 
1.000000000000e-02 0.000000000000e+00 2.700000000000e-01 3.000103772547e+01 
2.000000000000e-02 0.000000000000e+00 2.700000000000e-01 2.999632606340e+01 
3.000000000000e-02 0.000000000000e+00 2.700000000000e-01 2.999632726108e+01 
4.000000000000e-02 0.000000000000e+00 2.700000000000e-01 2.999632693640e+01 
5.000000000000e-02 0.000000000000e+00 2.700000000000e-01 2.999632704938e+01 
6.000000000000e-02 0.000000000000e+00 2.700000000000e-01 2.999632691805e+01 
7.000000000000e-02 0.000000000000e+00 2.700000000000e-01 2.999632733318e+01 
8.000000000000e-02 0.000000000000e+00 2.700000000000e-01 2.999632579206e+01 
9.000000000000e-02 0.000000000000e+00 2.700000000000e-01 3.000103825087e+01 
1.000000000000e-01 0.000000000000e+00 2.700000000000e-01 2.999948701497e+01 
0.000000000000e+00 0.000000000000e+00 2.600000000000e-01 3.000013715867e+01 
1.000000000000e-02 0.000000000000e+00 2.600000000000e-01 2.999972566452e+01 
2.000000000000e-02 0.000000000000e+00 2.600000000000e-01 3.000097442646e+01 
3.000000000000e-02 0.000000000000e+00 2.600000000000e-01 3.000097406206e+01 
4.000000000000e-02 0.000000000000e+00 2.600000000000e-01 3.000097416653e+01 
5.000000000000e-02 0.000000000000e+00 2.600000000000e-01 3.000097410930e+01 
6.000000000000e-02 0.000000000000e+00 2.600000000000e-01 3.000097423562e+01 
7.000000000000e-02 0.000000000000e+00 2.600000000000e-01 3.000097379063e+01 
8.000000000000e-02 0.000000000000e+00 2.600000000000e-01 3.000097544807e+01 
9.000000000000e-02 0.000000000000e+00 2.600000000000e-01 2.999972603291e+01 
1.000000000000e-01 0.000000000000e+00 2.600000000000e-01 3.000013614523e+01 
0.000000000000e+00 0.000000000000e+00 2.500000000000e-01 2.999996463153e+01 
1.000000000000e-02 0.000000000000e+00 2.500000000000e-01 3.000007370738e+01 
2.000000000000e-02 0.000000000000e+00 2.500000000000e-01 2.999974274070e+01 
3.000000000000e-02 0.000000000000e+00 2.500000000000e-01 2.999974284788e+01 
4.000000000000e-02 0.000000000000e+00 2.500000000000e-01 2.999974282222e+01 
5.000000000000e-02 0.000000000000e+00 2.500000000000e-01 2.999974281863e+01 
6.000000000000e-02 0.000000000000e+00 2.500000000000e-01 2.999974286159e+01 
7.000000000000e-02 0.000000000000e+00 2.500000000000e-01 2.999974268620e+01 
8.000000000000e-02 0.000000000000e+00 2.500000000000e-01 2.999974336151e+01 
9.000000000000e-02 0.000000000000e+00 2.500000000000e-01 3.000007260936e+01 
1.000000000000e-01 0.000000000000e+00 2.500000000000e-01 2.999996385535e+01 
12  13  2  1  
13  14  3  2  
14  15  4  3  
15  16  5  4  
16  17  6  5  
17  18  7  6  
18  19  8  7  
19  20  9  8  
20  21  10  9  
21  22  11  10  
23  24  13  12  
24  25  14  13  
25  26  15  14  
26  27  16  15  
27  28  17  16  
28  29  18  17  
29  30  19  18  
30  31  20  19  
31  32  21  20  
32  33  22  21  
34  35  24  23  
35  36  25  24  
36  37  26  25  
37  38  27  26  
38  39  28  27  
39  40  29  28  
40  41  30  29  
41  42  31  30  
42  43  32  31  
43  44  33  32  
45  46  35  34  
46  47  36  35  
47  48  37  36  
48  49  38  37  
49  50  39  38  
50  51  40  39  
51  52  41  40  
52  53  42  41  
53  54  43  42  
54  55  44  43  
56  57  46  45  
57  58  47  46  
58  59  48  47  
59  60  49  48  
60  61  50  49  
61  62  51  50  
62  63  52  51  
63  64  53  52  
64  65  54  53  
65  66  55  54  
67  68  57  56  
68  69  58  57  
69  70  59  58  
70  71  60  59  
71  72  61  60  
72  73  62  61  
73  74  63  62  
74  75  64  63  
75  76  65  64  
76  77  66  65  
78  79  68  67  
79  80  69  68  
80  81  70  69  
81  82  71  70  
82  83  72  71  
83  84  73  72  
84  85  74  73  
85  86  75  74  
86  87  76  75  
87  88  77  76  
89  90  79  78  
90  91  80  79  
91  92  81  80  
92  93  82  81  
93  94  83  82  
94  95  84  83  
95  96  85  84  
96  97  86  85  
97  98  87  86  
98  99  88  87  
100  101  90  89  
101  102  91  90  
102  103  92  91  
103  104  93  92  
104  105  94  93  
105  106  95  94  
106  107  96  95  
107  108  97  96  
108  109  98  97  
109  110  99  98  
VARIABLES  = "X","Y","Z", "TEMPERATURE1"
ZONE T="7.000000000000e-02s", N=110, E=90, F=FEPOINT, ET=QUADRILATERAL
STRANDID=1, SOLUTIONTIME=7.000000000000e-02
0.000000000000e+00 0.000000000000e+00 3.400000000000e-01 3.492590059054e+01 
1.000000000000e-02 0.000000000000e+00 3.400000000000e-01 1.947807269416e+01 
2.000000000000e-02 0.000000000000e+00 3.400000000000e-01 7.000000000095e+01 
3.000000000000e-02 0.000000000000e+00 3.400000000000e-01 7.000000000095e+01 
4.000000000000e-02 0.000000000000e+00 3.400000000000e-01 7.000000000095e+01 
5.000000000000e-02 0.000000000000e+00 3.400000000000e-01 7.000000000095e+01 
6.000000000000e-02 0.000000000000e+00 3.400000000000e-01 7.000000000095e+01 
7.000000000000e-02 0.000000000000e+00 3.400000000000e-01 7.000000000095e+01 
8.000000000000e-02 0.000000000000e+00 3.400000000000e-01 7.000000000095e+01 
9.000000000000e-02 0.000000000000e+00 3.400000000000e-01 1.947808024484e+01 
1.000000000000e-01 0.000000000000e+00 3.400000000000e-01 3.492585641681e+01 
0.000000000000e+00 0.000000000000e+00 3.300000000000e-01 2.876537479627e+01 
1.000000000000e-02 0.000000000000e+00 3.300000000000e-01 3.262649001994e+01 
2.000000000000e-02 0.000000000000e+00 3.300000000000e-01 2.006546749757e+01 
3.000000000000e-02 0.000000000000e+00 3.300000000000e-01 2.008402953746e+01 
4.000000000000e-02 0.000000000000e+00 3.300000000000e-01 2.007929611645e+01 
5.000000000000e-02 0.000000000000e+00 3.300000000000e-01 2.008076101247e+01 
6.000000000000e-02 0.000000000000e+00 3.300000000000e-01 2.007929648100e+01 
7.000000000000e-02 0.000000000000e+00 3.300000000000e-01 2.008402763189e+01 
8.000000000000e-02 0.000000000000e+00 3.300000000000e-01 2.006547754430e+01 
9.000000000000e-02 0.000000000000e+00 3.300000000000e-01 3.262649257051e+01 
1.000000000000e-01 0.000000000000e+00 3.300000000000e-01 2.876536799493e+01 
0.000000000000e+00 0.000000000000e+00 3.200000000000e-01 3.030923426917e+01 
1.000000000000e-02 0.000000000000e+00 3.200000000000e-01 2.934483206954e+01 
2.000000000000e-02 0.000000000000e+00 3.200000000000e-01 3.246551021706e+01 
3.000000000000e-02 0.000000000000e+00 3.200000000000e-01 3.245617604722e+01 
4.000000000000e-02 0.000000000000e+00 3.200000000000e-01 3.245856166504e+01 
5.000000000000e-02 0.000000000000e+00 3.200000000000e-01 3.245782149639e+01 
6.000000000000e-02 0.000000000000e+00 3.200000000000e-01 3.245856159245e+01 
7.000000000000e-02 0.000000000000e+00 3.200000000000e-01 3.245617635445e+01 
8.000000000000e-02 0.000000000000e+00 3.200000000000e-01 3.246550917469e+01 
9.000000000000e-02 0.000000000000e+00 3.200000000000e-01 2.934482942383e+01 
1.000000000000e-01 0.000000000000e+00 3.200000000000e-01 3.030924400199e+01 
0.000000000000e+00 0.000000000000e+00 3.100000000000e-01 2.992260217397e+01 
1.000000000000e-02 0.000000000000e+00 3.100000000000e-01 3.016330759292e+01 
2.000000000000e-02 0.000000000000e+00 3.100000000000e-01 2.938861309487e+01 
3.000000000000e-02 0.000000000000e+00 3.100000000000e-01 2.939213238934e+01 
4.000000000000e-02 0.000000000000e+00 3.100000000000e-01 2.939123089368e+01 
5.000000000000e-02 0.000000000000e+00 3.100000000000e-01 2.939151129847e+01 
6.000000000000e-02 0.000000000000e+00 3.100000000000e-01 2.939123090598e+01 
7.000000000000e-02 0.000000000000e+00 3.100000000000e-01 2.939213233222e+01 
8.000000000000e-02 0.000000000000e+00 3.100000000000e-01 2.938861327682e+01 
9.000000000000e-02 0.000000000000e+00 3.100000000000e-01 3.016330875333e+01 
1.000000000000e-01 0.000000000000e+00 3.100000000000e-01 2.992259778454e+01 
0.000000000000e+00 0.000000000000e+00 3.000000000000e-01 3.001935695700e+01 
1.000000000000e-02 0.000000000000e+00 3.000000000000e-01 2.995932641965e+01 
2.000000000000e-02 0.000000000000e+00 3.000000000000e-01 3.015147669212e+01 
3.000000000000e-02 0.000000000000e+00 3.000000000000e-01 3.015029725344e+01 
4.000000000000e-02 0.000000000000e+00 3.000000000000e-01 3.015060006052e+01 
5.000000000000e-02 0.000000000000e+00 3.000000000000e-01 3.015050563866e+01 
6.000000000000e-02 0.000000000000e+00 3.000000000000e-01 3.015060005981e+01 
7.000000000000e-02 0.000000000000e+00 3.000000000000e-01 3.015029725764e+01 
8.000000000000e-02 0.000000000000e+00 3.000000000000e-01 3.015147668691e+01 
9.000000000000e-02 0.000000000000e+00 3.000000000000e-01 2.995932599375e+01 
1.000000000000e-01 0.000000000000e+00 3.000000000000e-01 3.001935851982e+01 
0.000000000000e+00 0.000000000000e+00 2.900000000000e-01 2.999516283647e+01 
1.000000000000e-02 0.000000000000e+00 2.900000000000e-01 3.001012146103e+01 
2.000000000000e-02 0.000000000000e+00 2.900000000000e-01 2.996250580434e+01 
3.000000000000e-02 0.000000000000e+00 2.900000000000e-01 2.996287636267e+01 
4.000000000000e-02 0.000000000000e+00 2.900000000000e-01 2.996278101128e+01 
5.000000000000e-02 0.000000000000e+00 2.900000000000e-01 2.996281081833e+01 
6.000000000000e-02 0.000000000000e+00 2.900000000000e-01 2.996278100943e+01 
7.000000000000e-02 0.000000000000e+00 2.900000000000e-01 2.996287636980e+01 
8.000000000000e-02 0.000000000000e+00 2.900000000000e-01 2.996250577455e+01 
9.000000000000e-02 0.000000000000e+00 2.900000000000e-01 3.001012163580e+01 
1.000000000000e-01 0.000000000000e+00 2.900000000000e-01 2.999516246364e+01 
0.000000000000e+00 0.000000000000e+00 2.800000000000e-01 3.000120777345e+01 
1.000000000000e-02 0.000000000000e+00 2.800000000000e-01 2.999748372222e+01 
2.000000000000e-02 0.000000000000e+00 2.800000000000e-01 3.000927124213e+01 
3.000000000000e-02 0.000000000000e+00 2.800000000000e-01 3.000915947859e+01 
4.000000000000e-02 0.000000000000e+00 2.800000000000e-01 3.000918830274e+01 
5.000000000000e-02 0.000000000000e+00 2.800000000000e-01 3.000917926798e+01 
6.000000000000e-02 0.000000000000e+00 2.800000000000e-01 3.000918830949e+01 
7.000000000000e-02 0.000000000000e+00 2.800000000000e-01 3.000915945176e+01 
8.000000000000e-02 0.000000000000e+00 2.800000000000e-01 3.000927134449e+01 
9.000000000000e-02 0.000000000000e+00 2.800000000000e-01 2.999748352549e+01 
1.000000000000e-01 0.000000000000e+00 2.800000000000e-01 3.000120731735e+01 
0.000000000000e+00 0.000000000000e+00 2.700000000000e-01 2.999969846182e+01 
1.000000000000e-02 0.000000000000e+00 2.700000000000e-01 3.000062468118e+01 
2.000000000000e-02 0.000000000000e+00 2.700000000000e-01 2.999770979877e+01 
3.000000000000e-02 0.000000000000e+00 2.700000000000e-01 2.999774257134e+01 
4.000000000000e-02 0.000000000000e+00 2.700000000000e-01 2.999773409812e+01 
5.000000000000e-02 0.000000000000e+00 2.700000000000e-01 2.999773676842e+01 
6.000000000000e-02 0.000000000000e+00 2.700000000000e-01 2.999773407187e+01 
7.000000000000e-02 0.000000000000e+00 2.700000000000e-01 2.999774267630e+01 
8.000000000000e-02 0.000000000000e+00 2.700000000000e-01 2.999770940060e+01 
9.000000000000e-02 0.000000000000e+00 2.700000000000e-01 3.000062531619e+01 
1.000000000000e-01 0.000000000000e+00 2.700000000000e-01 2.999970089924e+01 
0.000000000000e+00 0.000000000000e+00 2.600000000000e-01 3.000007624115e+01 
1.000000000000e-02 0.000000000000e+00 2.600000000000e-01 2.999984612201e+01 
2.000000000000e-02 0.000000000000e+00 2.600000000000e-01 3.000056607360e+01 
3.000000000000e-02 0.000000000000e+00 2.600000000000e-01 3.000055665774e+01 
4.000000000000e-02 0.000000000000e+00 2.600000000000e-01 3.000055910595e+01 
5.000000000000e-02 0.000000000000e+00 2.600000000000e-01 3.000055830100e+01 
6.000000000000e-02 0.000000000000e+00 2.600000000000e-01 3.000055921118e+01 
7.000000000000e-02 0.000000000000e+00 2.600000000000e-01 3.000055623517e+01 
8.000000000000e-02 0.000000000000e+00 2.600000000000e-01 3.000056768380e+01 
9.000000000000e-02 0.000000000000e+00 2.600000000000e-01 2.999984680915e+01 
1.000000000000e-01 0.000000000000e+00 2.600000000000e-01 3.000007472267e+01 
0.000000000000e+00 0.000000000000e+00 2.500000000000e-01 2.999998248930e+01 
1.000000000000e-02 0.000000000000e+00 2.500000000000e-01 3.000003959543e+01 
2.000000000000e-02 0.000000000000e+00 2.500000000000e-01 2.999986200643e+01 
3.000000000000e-02 0.000000000000e+00 2.500000000000e-01 2.999986466671e+01 
4.000000000000e-02 0.000000000000e+00 2.500000000000e-01 2.999986397970e+01 
5.000000000000e-02 0.000000000000e+00 2.500000000000e-01 2.999986418236e+01 
6.000000000000e-02 0.000000000000e+00 2.500000000000e-01 2.999986402734e+01 
7.000000000000e-02 0.000000000000e+00 2.500000000000e-01 2.999986447016e+01 
8.000000000000e-02 0.000000000000e+00 2.500000000000e-01 2.999986275847e+01 
9.000000000000e-02 0.000000000000e+00 2.500000000000e-01 3.000003798525e+01 
1.000000000000e-01 0.000000000000e+00 2.500000000000e-01 2.999998130264e+01 
12  13  2  1  
13  14  3  2  
14  15  4  3  
15  16  5  4  
16  17  6  5  
17  18  7  6  
18  19  8  7  
19  20  9  8  
20  21  10  9  
21  22  11  10  
23  24  13  12  
24  25  14  13  
25  26  15  14  
26  27  16  15  
27  28  17  16  
28  29  18  17  
29  30  19  18  
30  31  20  19  
31  32  21  20  
32  33  22  21  
34  35  24  23  
35  36  25  24  
36  37  26  25  
37  38  27  26  
38  39  28  27  
39  40  29  28  
40  41  30  29  
41  42  31  30  
42  43  32  31  
43  44  33  32  
45  46  35  34  
46  47  36  35  
47  48  37  36  
48  49  38  37  
49  50  39  38  
50  51  40  39  
51  52  41  40  
52  53  42  41  
53  54  43  42  
54  55  44  43  
56  57  46  45  
57  58  47  46  
58  59  48  47  
59  60  49  48  
60  61  50  49  
61  62  51  50  
62  63  52  51  
63  64  53  52  
64  65  54  53  
65  66  55  54  
67  68  57  56  
68  69  58  57  
69  70  59  58  
70  71  60  59  
71  72  61  60  
72  73  62  61  
73  74  63  62  
74  75  64  63  
75  76  65  64  
76  77  66  65  
78  79  68  67  
79  80  69  68  
80  81  70  69  