 TITLE = "Time curves in points"
 VARIABLES = "TIME "  "PRESSURE1"  "PRESSURE2"  "PRESSURE_W"  "SATURATION1" SATURATION2  "VELOCITY_X1"  "VELOCITY_Y1"  "VELOCITY_X2"  "VELOCITY_Y2"  p_(1st_Invariant)  q_(2nd_Invariant)   Effective_Strain
 ZONE T="POINT=POINT6"
0.000000000000e+00 1.000000000000e+05 1.000000000000e+05 0.000000000000e+00 9.251121356155e-01 7.488786438454e-02 0.000000000000e+00 0.000000000000e+00 0.000000000000e+00 0.000000000000e+00 -0.000000000000e+00 0.000000000000e+00  0.000000000000e+00
1.000000000000e-02 9.999999996316e+04 9.999999999176e+04 2.859601227101e-05 9.251121356947e-01 7.488786430534e-02 -3.548891452844e-15 -9.238128939688e-07 4.022528668424e-14 -2.360506186754e-11 -4.264370632013e+03 5.431597984653e+03  2.534745727495e-04
7.000000000000e-02 9.999999995771e+04 9.999999995135e+04 -6.358561222441e-06 9.251121357064e-01 7.488786429361e-02 7.793925935049e-16 -9.238121489610e-07 -3.270433867093e-14 -2.359868056531e-11 -3.369198240119e+02 1.285392739413e+04  5.998499454631e-04
4.300000000000e-01 9.999999450870e+04 9.999999945748e+04 4.948780377163e-03 9.251121474218e-01 7.488785257825e-02 9.931828201163e-15 -9.237390587247e-07 -2.423544929455e-13 -2.353818601651e-11 2.322675915462e+04 5.806244380942e+04  2.709580750612e-03
1.430000000000e+00 9.999922222267e+04 9.999999899955e+04 7.767768823687e-01 9.251138078361e-01 7.488619216394e-02 -5.535361914819e-13 -9.182200326474e-07 -2.698977664942e-13 -2.360614321235e-11 8.867333223472e+04 1.838067751373e+05  8.577649602387e-03
2.430000000000e+00 9.999699057701e+04 9.999999856942e+04 3.007992409592e+00 9.251186058723e-01 7.488139412770e-02 -1.106123182192e-12 -9.055029892524e-07 -2.946997332820e-13 -2.366981436064e-11 1.541174472442e+05 3.095595647650e+05  1.444611307459e-02
3.430000000000e+00 9.999298843678e+04 9.999999815584e+04 7.009719065420e+00 9.251272104704e-01 7.487278952963e-02 -1.854528542146e-12 -8.867833717174e-07 -3.181165747820e-13 -2.373027983155e-11 2.195561004903e+05 4.353050662786e+05  2.031423643587e-02
4.430000000000e+00 9.998725213648e+04 9.999999775298e+04 1.274561650124e+01 9.251395435111e-01 7.486045648893e-02 -2.811319773665e-12 -8.643050196269e-07 -3.408983236816e-13 -2.378819719476e-11 2.849905801822e+05 5.610446692612e+05  2.618208456553e-02
5.430000000000e+00 9.997999931381e+04 9.999999735750e+04 1.999804368272e+01 9.251551370736e-01 7.484486292642e-02 -3.909304520777e-12 -8.400699646350e-07 -3.635042370818e-13 -2.384405500362e-11 3.504248788983e+05 6.867867372721e+05  3.205004774860e-02
6.430000000000e+00 9.997150166396e+04 9.999999696736e+04 2.849530340124e+01 9.251734070135e-01 7.482659298653e-02 -5.061171217590e-12 -8.154736606420e-07 -3.862274875898e-13 -2.389823140180e-11 4.158567082625e+05 8.125253886870e+05  3.791785148616e-02
7.430000000000e+00 9.996201944203e+04 9.999999658132e+04 3.797713928838e+01 9.251937937825e-01 7.480620621753e-02 -6.190106292584e-12 -7.913640169821e-07 -4.092584504143e-13 -2.395101654017e-11 4.812843362440e+05 9.382561335808e+05  4.378528623488e-02
8.430000000000e+00 9.995177689953e+04 9.999999619858e+04 4.821929904963e+01 9.252158152401e-01 7.478418475995e-02 -7.240939404461e-12 -7.682010293234e-07 -4.327216881144e-13 -2.400263050767e-11 5.467150448676e+05 1.063995320858e+06  4.965311497817e-02
9.430000000000e+00 9.994095802839e+04 9.999999581863e+04 5.903779024417e+01 9.252390758037e-01 7.476092419629e-02 -8.180571278399e-12 -7.461981891926e-07 -4.566985424496e-13 -2.405323973017e-11 6.121416770191e+05 1.189726243921e+06  5.552055805507e-02
