VARIABLES  = "X","Y","Z", "TEMPERATURE1"
ZONE T="0.000000000000e+00s", N=110, E=90, F=FEPOINT, ET=QUADRILATERAL
STRANDID=1, SOLUTIONTIME=0.000000000000e+00
0.000000000000e+00 0.000000000000e+00 3.400000000000e-01 3.000000000000e+01 
1.000000000000e-02 0.000000000000e+00 3.400000000000e-01 3.000000000000e+01 
2.000000000000e-02 0.000000000000e+00 3.400000000000e-01 3.000000000000e+01 
3.000000000000e-02 0.000000000000e+00 3.400000000000e-01 3.000000000000e+01 
4.000000000000e-02 0.000000000000e+00 3.400000000000e-01 3.000000000000e+01 
5.000000000000e-02 0.000000000000e+00 3.400000000000e-01 3.000000000000e+01 
6.000000000000e-02 0.000000000000e+00 3.400000000000e-01 3.000000000000e+01 
7.000000000000e-02 0.000000000000e+00 3.400000000000e-01 3.000000000000e+01 
8.000000000000e-02 0.000000000000e+00 3.400000000000e-01 3.000000000000e+01 
9.000000000000e-02 0.000000000000e+00 3.400000000000e-01 3.000000000000e+01 
1.000000000000e-01 0.000000000000e+00 3.400000000000e-01 3.000000000000e+01 
0.000000000000e+00 0.000000000000e+00 3.300000000000e-01 3.000000000000e+01 
1.000000000000e-02 0.000000000000e+00 3.300000000000e-01 3.000000000000e+01 
2.000000000000e-02 0.000000000000e+00 3.300000000000e-01 3.000000000000e+01 
3.000000000000e-02 0.000000000000e+00 3.300000000000e-01 3.000000000000e+01 
4.000000000000e-02 0.000000000000e+00 3.300000000000e-01 3.000000000000e+01 
5.000000000000e-02 0.000000000000e+00 3.300000000000e-01 3.000000000000e+01 
6.000000000000e-02 0.000000000000e+00 3.300000000000e-01 3.000000000000e+01 
7.000000000000e-02 0.000000000000e+00 3.300000000000e-01 3.000000000000e+01 
8.000000000000e-02 0.000000000000e+00 3.300000000000e-01 3.000000000000e+01 
9.000000000000e-02 0.000000000000e+00 3.300000000000e-01 3.000000000000e+01 
1.000000000000e-01 0.000000000000e+00 3.300000000000e-01 3.000000000000e+01 
0.000000000000e+00 0.000000000000e+00 3.200000000000e-01 3.000000000000e+01 
1.000000000000e-02 0.000000000000e+00 3.200000000000e-01 3.000000000000e+01 
2.000000000000e-02 0.000000000000e+00 3.200000000000e-01 3.000000000000e+01 
3.000000000000e-02 0.000000000000e+00 3.200000000000e-01 3.000000000000e+01 
4.000000000000e-02 0.000000000000e+00 3.200000000000e-01 3.000000000000e+01 
5.000000000000e-02 0.000000000000e+00 3.200000000000e-01 3.000000000000e+01 
6.000000000000e-02 0.000000000000e+00 3.200000000000e-01 3.000000000000e+01 
7.000000000000e-02 0.000000000000e+00 3.200000000000e-01 3.000000000000e+01 
8.000000000000e-02 0.000000000000e+00 3.200000000000e-01 3.000000000000e+01 
9.000000000000e-02 0.000000000000e+00 3.200000000000e-01 3.000000000000e+01 
1.000000000000e-01 0.000000000000e+00 3.200000000000e-01 3.000000000000e+01 
0.000000000000e+00 0.000000000000e+00 3.100000000000e-01 3.000000000000e+01 
1.000000000000e-02 0.000000000000e+00 3.100000000000e-01 3.000000000000e+01 
2.000000000000e-02 0.000000000000e+00 3.100000000000e-01 3.000000000000e+01 
3.000000000000e-02 0.000000000000e+00 3.100000000000e-01 3.000000000000e+01 
4.000000000000e-02 0.000000000000e+00 3.100000000000e-01 3.000000000000e+01 
5.000000000000e-02 0.000000000000e+00 3.100000000000e-01 3.000000000000e+01 
6.000000000000e-02 0.000000000000e+00 3.100000000000e-01 3.000000000000e+01 
7.000000000000e-02 0.000000000000e+00 3.100000000000e-01 3.000000000000e+01 
8.000000000000e-02 0.000000000000e+00 3.100000000000e-01 3.000000000000e+01 
9.000000000000e-02 0.000000000000e+00 3.100000000000e-01 3.000000000000e+01 
1.000000000000e-01 0.000000000000e+00 3.100000000000e-01 3.000000000000e+01 
0.000000000000e+00 0.000000000000e+00 3.000000000000e-01 3.000000000000e+01 
1.000000000000e-02 0.000000000000e+00 3.000000000000e-01 3.000000000000e+01 
2.000000000000e-02 0.000000000000e+00 3.000000000000e-01 3.000000000000e+01 
3.000000000000e-02 0.000000000000e+00 3.000000000000e-01 3.000000000000e+01 
4.000000000000e-02 0.000000000000e+00 3.000000000000e-01 3.000000000000e+01 
5.000000000000e-02 0.000000000000e+00 3.000000000000e-01 3.000000000000e+01 
6.000000000000e-02 0.000000000000e+00 3.000000000000e-01 3.000000000000e+01 
7.000000000000e-02 0.000000000000e+00 3.000000000000e-01 3.000000000000e+01 
8.000000000000e-02 0.000000000000e+00 3.000000000000e-01 3.000000000000e+01 
9.000000000000e-02 0.000000000000e+00 3.000000000000e-01 3.000000000000e+01 
1.000000000000e-01 0.000000000000e+00 3.000000000000e-01 3.000000000000e+01 
0.000000000000e+00 0.000000000000e+00 2.900000000000e-01 3.000000000000e+01 
1.000000000000e-02 0.000000000000e+00 2.900000000000e-01 3.000000000000e+01 
2.000000000000e-02 0.000000000000e+00 2.900000000000e-01 3.000000000000e+01 
3.000000000000e-02 0.000000000000e+00 2.900000000000e-01 3.000000000000e+01 
4.000000000000e-02 0.000000000000e+00 2.900000000000e-01 3.000000000000e+01 
5.000000000000e-02 0.000000000000e+00 2.900000000000e-01 3.000000000000e+01 
6.000000000000e-02 0.000000000000e+00 2.900000000000e-01 3.000000000000e+01 
7.000000000000e-02 0.000000000000e+00 2.900000000000e-01 3.000000000000e+01 
8.000000000000e-02 0.000000000000e+00 2.900000000000e-01 3.000000000000e+01 
9.000000000000e-02 0.000000000000e+00 2.900000000000e-01 3.000000000000e+01 
1.000000000000e-01 0.000000000000e+00 2.900000000000e-01 3.000000000000e+01 
0.000000000000e+00 0.000000000000e+00 2.800000000000e-01 3.000000000000e+01 
1.000000000000e-02 0.000000000000e+00 2.800000000000e-01 3.000000000000e+01 
2.000000000000e-02 0.000000000000e+00 2.800000000000e-01 3.000000000000e+01 
3.000000000000e-02 0.000000000000e+00 2.800000000000e-01 3.000000000000e+01 
4.000000000000e-02 0.000000000000e+00 2.800000000000e-01 3.000000000000e+01 
5.000000000000e-02 0.000000000000e+00 2.800000000000e-01 3.000000000000e+01 
6.000000000000e-02 0.000000000000e+00 2.800000000000e-01 3.000000000000e+01 
7.000000000000e-02 0.000000000000e+00 2.800000000000e-01 3.000000000000e+01 
8.000000000000e-02 0.000000000000e+00 2.800000000000e-01 3.000000000000e+01 
9.000000000000e-02 0.000000000000e+00 2.800000000000e-01 3.000000000000e+01 
1.000000000000e-01 0.000000000000e+00 2.800000000000e-01 3.000000000000e+01 
0.000000000000e+00 0.000000000000e+00 2.700000000000e-01 3.000000000000e+01 
1.000000000000e-02 0.000000000000e+00 2.700000000000e-01 3.000000000000e+01 
2.000000000000e-02 0.000000000000e+00 2.700000000000e-01 3.000000000000e+01 
3.000000000000e-02 0.000000000000e+00 2.700000000000e-01 3.000000000000e+01 
4.000000000000e-02 0.000000000000e+00 2.700000000000e-01 3.000000000000e+01 
5.000000000000e-02 0.000000000000e+00 2.700000000000e-01 3.000000000000e+01 
6.000000000000e-02 0.000000000000e+00 2.700000000000e-01 3.000000000000e+01 
7.000000000000e-02 0.000000000000e+00 2.700000000000e-01 3.000000000000e+01 
8.000000000000e-02 0.000000000000e+00 2.700000000000e-01 3.000000000000e+01 
9.000000000000e-02 0.000000000000e+00 2.700000000000e-01 3.000000000000e+01 
1.000000000000e-01 0.000000000000e+00 2.700000000000e-01 3.000000000000e+01 
0.000000000000e+00 0.000000000000e+00 2.600000000000e-01 3.000000000000e+01 
1.000000000000e-02 0.000000000000e+00 2.600000000000e-01 3.000000000000e+01 
2.000000000000e-02 0.000000000000e+00 2.600000000000e-01 3.000000000000e+01 
3.000000000000e-02 0.000000000000e+00 2.600000000000e-01 3.000000000000e+01 
4.000000000000e-02 0.000000000000e+00 2.600000000000e-01 3.000000000000e+01 
5.000000000000e-02 0.000000000000e+00 2.600000000000e-01 3.000000000000e+01 
6.000000000000e-02 0.000000000000e+00 2.600000000000e-01 3.000000000000e+01 
7.000000000000e-02 0.000000000000e+00 2.600000000000e-01 3.000000000000e+01 
8.000000000000e-02 0.000000000000e+00 2.600000000000e-01 3.000000000000e+01 
9.000000000000e-02 0.000000000000e+00 2.600000000000e-01 3.000000000000e+01 
1.000000000000e-01 0.000000000000e+00 2.600000000000e-01 3.000000000000e+01 
0.000000000000e+00 0.000000000000e+00 2.500000000000e-01 3.000000000000e+01 
1.000000000000e-02 0.000000000000e+00 2.500000000000e-01 3.000000000000e+01 
2.000000000000e-02 0.000000000000e+00 2.500000000000e-01 3.000000000000e+01 
3.000000000000e-02 0.000000000000e+00 2.500000000000e-01 3.000000000000e+01 
4.000000000000e-02 0.000000000000e+00 2.500000000000e-01 3.000000000000e+01 
5.000000000000e-02 0.000000000000e+00 2.500000000000e-01 3.000000000000e+01 
6.000000000000e-02 0.000000000000e+00 2.500000000000e-01 3.000000000000e+01 
7.000000000000e-02 0.000000000000e+00 2.500000000000e-01 3.000000000000e+01 
8.000000000000e-02 0.000000000000e+00 2.500000000000e-01 3.000000000000e+01 
9.000000000000e-02 0.000000000000e+00 2.500000000000e-01 3.000000000000e+01 
1.000000000000e-01 0.000000000000e+00 2.500000000000e-01 3.000000000000e+01 
12  13  2  1  
13  14  3  2  
14  15  4  3  
15  16  5  4  
16  17  6  5  
17  18  7  6  
18  19  8  7  
19  20  9  8  
20  21  10  9  
21  22  11  10  
23  24  13  12  
24  25  14  13  
25  26  15  14  
26  27  16  15  
27  28  17  16  
28  29  18  17  
29  30  19  18  
30  31  20  19  
31  32  21  20  
32  33  22  21  
34  35  24  23  
35  36  25  24  
36  37  26  25  
37  38  27  26  
38  39  28  27  
39  40  29  28  
40  41  30  29  
41  42  31  30  
42  43  32  31  
43  44  33  32  
45  46  35  34  
46  47  36  35  
47  48  37  36  
48  49  38  37  
49  50  39  38  
50  51  40  39  
51  52  41  40  
52  53  42  41  
53  54  43  42  
54  55  44  43  
56  57  46  45  
57  58  47  46  
58  59  48  47  
59  60  49  48  
60  61  50  49  
61  62  51  50  
62  63  52  51  
63  64  53  52  
64  65  54  53  
65  66  55  54  
67  68  57  56  
68  69  58  57  
69  70  59  58  
70  71  60  59  
71  72  61  60  
72  73  62  61  
73  74  63  62  
74  75  64  63  
75  76  65  64  
76  77  66  65  
78  79  68  67  
79  80  69  68  
80  81  70  69  
81  82  71  70  
82  83  72  71  
83  84  73  72  
84  85  74  73  
85  86  75  74  
86  87  76  75  
87  88  77  76  
89  90  79  78  
90  91  80  79  
91  92  81  80  
92  93  82  81  
93  94  83  82  
94  95  84  83  
95  96  85  84  
96  97  86  85  
97  98  87  86  
98  99  88  87  
100  101  90  89  
101  102  91  90  
102  103  92  91  
103  104  93  92  
104  105  94  93  
105  106  95  94  
106  107  96  95  
107  108  97  96  
108  109  98  97  
109  110  99  98  
VARIABLES  = "X","Y","Z", "TEMPERATURE1"
ZONE T="1.000000000000e-02s", N=110, E=90, F=FEPOINT, ET=QUADRILATERAL
STRANDID=1, SOLUTIONTIME=1.000000000000e-02
0.000000000000e+00 0.000000000000e+00 3.400000000000e-01 3.559200384516e+01 
1.000000000000e-02 0.000000000000e+00 3.400000000000e-01 1.870950564142e+01 
2.000000000000e-02 0.000000000000e+00 3.400000000000e-01 7.000000000037e+01 
3.000000000000e-02 0.000000000000e+00 3.400000000000e-01 7.000000000037e+01 
4.000000000000e-02 0.000000000000e+00 3.400000000000e-01 7.000000000037e+01 
5.000000000000e-02 0.000000000000e+00 3.400000000000e-01 7.000000000037e+01 
6.000000000000e-02 0.000000000000e+00 3.400000000000e-01 7.000000000037e+01 
7.000000000000e-02 0.000000000000e+00 3.400000000000e-01 7.000000000037e+01 
8.000000000000e-02 0.000000000000e+00 3.400000000000e-01 7.000000000037e+01 
9.000000000000e-02 0.000000000000e+00 3.400000000000e-01 1.870948555016e+01 
1.000000000000e-01 0.000000000000e+00 3.400000000000e-01 3.559202635246e+01 
0.000000000000e+00 0.000000000000e+00 3.300000000000e-01 2.851763137126e+01 
1.000000000000e-02 0.000000000000e+00 3.300000000000e-01 3.299264872300e+01 
2.000000000000e-02 0.000000000000e+00 3.300000000000e-01 1.939906749242e+01 
3.000000000000e-02 0.000000000000e+00 3.300000000000e-01 1.939956386721e+01 
4.000000000000e-02 0.000000000000e+00 3.300000000000e-01 1.939942884705e+01 
5.000000000000e-02 0.000000000000e+00 3.300000000000e-01 1.939947588333e+01 
6.000000000000e-02 0.000000000000e+00 3.300000000000e-01 1.939942535073e+01 
7.000000000000e-02 0.000000000000e+00 3.300000000000e-01 1.939957214073e+01 
8.000000000000e-02 0.000000000000e+00 3.300000000000e-01 1.939905377022e+01 
9.000000000000e-02 0.000000000000e+00 3.300000000000e-01 3.299265171532e+01 
1.000000000000e-01 0.000000000000e+00 3.300000000000e-01 2.851762399786e+01 
0.000000000000e+00 0.000000000000e+00 3.200000000000e-01 3.039296641699e+01 
1.000000000000e-02 0.000000000000e+00 3.200000000000e-01 2.920674964994e+01 
2.000000000000e-02 0.000000000000e+00 3.200000000000e-01 3.280957271483e+01 
3.000000000000e-02 0.000000000000e+00 3.200000000000e-01 3.280931077062e+01 
4.000000000000e-02 0.000000000000e+00 3.200000000000e-01 3.280938136394e+01 
5.000000000000e-02 0.000000000000e+00 3.200000000000e-01 3.280935822710e+01 
6.000000000000e-02 0.000000000000e+00 3.200000000000e-01 3.280938115097e+01 
7.000000000000e-02 0.000000000000e+00 3.200000000000e-01 3.280931138103e+01 
8.000000000000e-02 0.000000000000e+00 3.200000000000e-01 3.280957126202e+01 
9.000000000000e-02 0.000000000000e+00 3.200000000000e-01 2.920674850876e+01 
1.000000000000e-01 0.000000000000e+00 3.200000000000e-01 3.039296787674e+01 
0.000000000000e+00 0.000000000000e+00 3.100000000000e-01 2.989582824919e+01 
1.000000000000e-02 0.000000000000e+00 3.100000000000e-01 3.021026144217e+01 
2.000000000000e-02 0.000000000000e+00 3.100000000000e-01 2.925538592709e+01 
3.000000000000e-02 0.000000000000e+00 3.100000000000e-01 2.925549002031e+01 
4.000000000000e-02 0.000000000000e+00 3.100000000000e-01 2.925546195011e+01 
5.000000000000e-02 0.000000000000e+00 3.100000000000e-01 2.925547120014e+01 
6.000000000000e-02 0.000000000000e+00 3.100000000000e-01 2.925546192830e+01 
7.000000000000e-02 0.000000000000e+00 3.100000000000e-01 2.925549007783e+01 
8.000000000000e-02 0.000000000000e+00 3.100000000000e-01 2.925538583101e+01 
9.000000000000e-02 0.000000000000e+00 3.100000000000e-01 3.021026185057e+01 
1.000000000000e-01 0.000000000000e+00 3.100000000000e-01 2.989582729451e+01 
0.000000000000e+00 0.000000000000e+00 3.000000000000e-01 3.002761510075e+01 
1.000000000000e-02 0.000000000000e+00 3.000000000000e-01 2.994426715101e+01 
2.000000000000e-02 0.000000000000e+00 3.000000000000e-01 3.019734425736e+01 
3.000000000000e-02 0.000000000000e+00 3.000000000000e-01 3.019730748558e+01 
4.000000000000e-02 0.000000000000e+00 3.000000000000e-01 3.019731740343e+01 
5.000000000000e-02 0.000000000000e+00 3.000000000000e-01 3.019731413468e+01 
6.000000000000e-02 0.000000000000e+00 3.000000000000e-01 3.019731740669e+01 
7.000000000000e-02 0.000000000000e+00 3.000000000000e-01 3.019730748014e+01 
8.000000000000e-02 0.000000000000e+00 3.000000000000e-01 3.019734425712e+01 
9.000000000000e-02 0.000000000000e+00 3.000000000000e-01 2.994426700979e+01 
1.000000000000e-01 0.000000000000e+00 3.000000000000e-01 3.002761539635e+01 
0.000000000000e+00 0.000000000000e+00 2.900000000000e-01 2.999267946062e+01 
1.000000000000e-02 0.000000000000e+00 2.900000000000e-01 3.001477275452e+01 
2.000000000000e-02 0.000000000000e+00 2.900000000000e-01 2.994769817315e+01 
3.000000000000e-02 0.000000000000e+00 2.900000000000e-01 2.994771035301e+01 
4.000000000000e-02 0.000000000000e+00 2.900000000000e-01 2.994770706806e+01 
5.000000000000e-02 0.000000000000e+00 2.900000000000e-01 2.994770815046e+01 
6.000000000000e-02 0.000000000000e+00 2.900000000000e-01 2.994770706606e+01 
7.000000000000e-02 0.000000000000e+00 2.900000000000e-01 2.994771035989e+01 
8.000000000000e-02 0.000000000000e+00 2.900000000000e-01 2.994769815113e+01 
9.000000000000e-02 0.000000000000e+00 2.900000000000e-01 3.001477283310e+01 
1.000000000000e-01 0.000000000000e+00 2.900000000000e-01 2.999267946362e+01 
0.000000000000e+00 0.000000000000e+00 2.800000000000e-01 3.000194066514e+01 
1.000000000000e-02 0.000000000000e+00 2.800000000000e-01 2.999608432306e+01 
2.000000000000e-02 0.000000000000e+00 2.800000000000e-01 3.001386152940e+01 
3.000000000000e-02 0.000000000000e+00 2.800000000000e-01 3.001385765608e+01 
4.000000000000e-02 0.000000000000e+00 2.800000000000e-01 3.001385870125e+01 
5.000000000000e-02 0.000000000000e+00 2.800000000000e-01 3.001385835528e+01 
6.000000000000e-02 0.000000000000e+00 2.800000000000e-01 3.001385870640e+01 
7.000000000000e-02 0.000000000000e+00 2.800000000000e-01 3.001385763631e+01 
8.000000000000e-02 0.000000000000e+00 2.800000000000e-01 3.001386160231e+01 
9.000000000000e-02 0.000000000000e+00 2.800000000000e-01 2.999608417175e+01 
1.000000000000e-01 0.000000000000e+00 2.800000000000e-01 3.000194025686e+01 
0.000000000000e+00 0.000000000000e+00 2.700000000000e-01 2.999948535315e+01 
1.000000000000e-02 0.000000000000e+00 2.700000000000e-01 3.000103771249e+01 
2.000000000000e-02 0.000000000000e+00 2.700000000000e-01 2.999632610740e+01 
3.000000000000e-02 0.000000000000e+00 2.700000000000e-01 2.999632730539e+01 
4.000000000000e-02 0.000000000000e+00 2.700000000000e-01 2.999632698062e+01 
5.000000000000e-02 0.000000000000e+00 2.700000000000e-01 2.999632709366e+01 
6.000000000000e-02 0.000000000000e+00 2.700000000000e-01 2.999632696223e+01 
7.000000000000e-02 0.000000000000e+00 2.700000000000e-01 2.999632737753e+01 
8.000000000000e-02 0.000000000000e+00 2.700000000000e-01 2.999632583624e+01 
9.000000000000e-02 0.000000000000e+00 2.700000000000e-01 3.000103823880e+01 
1.000000000000e-01 0.000000000000e+00 2.700000000000e-01 2.999948702113e+01 
0.000000000000e+00 0.000000000000e+00 2.600000000000e-01 3.000013715699e+01 
1.000000000000e-02 0.000000000000e+00 2.600000000000e-01 2.999972566795e+01 
2.000000000000e-02 0.000000000000e+00 2.600000000000e-01 3.000097441486e+01 
3.000000000000e-02 0.000000000000e+00 2.600000000000e-01 3.000097405038e+01 
4.000000000000e-02 0.000000000000e+00 2.600000000000e-01 3.000097415487e+01 
5.000000000000e-02 0.000000000000e+00 2.600000000000e-01 3.000097409762e+01 
6.000000000000e-02 0.000000000000e+00 2.600000000000e-01 3.000097422397e+01 
7.000000000000e-02 0.000000000000e+00 2.600000000000e-01 3.000097377892e+01 
8.000000000000e-02 0.000000000000e+00 2.600000000000e-01 3.000097543642e+01 
9.000000000000e-02 0.000000000000e+00 2.600000000000e-01 2.999972603610e+01 
1.000000000000e-01 0.000000000000e+00 2.600000000000e-01 3.000013614360e+01 
0.000000000000e+00 0.000000000000e+00 2.500000000000e-01 2.999996463198e+01 
1.000000000000e-02 0.000000000000e+00 2.500000000000e-01 3.000007370648e+01 
2.000000000000e-02 0.000000000000e+00 2.500000000000e-01 2.999974274379e+01 
3.000000000000e-02 0.000000000000e+00 2.500000000000e-01 2.999974285098e+01 
4.000000000000e-02 0.000000000000e+00 2.500000000000e-01 2.999974282532e+01 
5.000000000000e-02 0.000000000000e+00 2.500000000000e-01 2.999974282173e+01 
6.000000000000e-02 0.000000000000e+00 2.500000000000e-01 2.999974286469e+01 
7.000000000000e-02 0.000000000000e+00 2.500000000000e-01 2.999974268931e+01 
8.000000000000e-02 0.000000000000e+00 2.500000000000e-01 2.999974336461e+01 
9.000000000000e-02 0.000000000000e+00 2.500000000000e-01 3.000007260851e+01 
1.000000000000e-01 0.000000000000e+00 2.500000000000e-01 2.999996385578e+01 
12  13  2  1  
13  14  3  2  
14  15  4  3  
15  16  5  4  
16  17  6  5  
17  18  7  6  
18  19  8  7  
19  20  9  8  
20  21  10  9  
21  22  11  10  
23  24  13  12  
24  25  14  13  
25  26  15  14  
26  27  16  15  
27  28  17  16  
28  29  18  17  
29  30  19  18  
30  31  20  19  
31  32  21  20  
32  33  22  21  
34  35  24  23  
35  36  25  24  
36  37  26  25  
37  38  27  26  
38  39  28  27  
39  40  29  28  
40  41  30  29  
41  42  31  30  
42  43  32  31  
43  44  33  32  
45  46  35  34  
46  47  36  35  
47  48  37  36  
48  49  38  37  
49  50  39  38  
50  51  40  39  
51  52  41  40  
52  53  42  41  
53  54  43  42  
54  55  44  43  
56  57  46  45  
57  58  47  46  
58  59  48  47  
59  60  49  48  
60  61  50  49  
61  62  51  50  
62  63  52  51  
63  64  53  52  
64  65  54  53  
65  66  55  54  
67  68  57  56  
68  69  58  57  
69  70  59  58  
70  71  60  59  
71  72  61  60  
72  73  62  61  
73  74  63  62  
74  75  64  63  
75  76  65  64  
76  77  66  65  
78  79  68  67  
79  80  69  68  
80  81  70  69  
81  82  71  70  
82  83  72  71  
83  84  73  72  
84  85  74  73  
85  86  75  74  
86  87  76  75  
87  88  77  76  
89  90  79  78  
90  91  80  79  
91  92  81  80  
92  93  82  81  
93  94  83  82  
94  95  84  83  
95  96  85  84  
96  97  86  85  
97  98  87  86  
98  99  88  87  
100  101  90  89  
101  102  91  90  
102  103  92  91  
103  104  93  92  
104  105  94  93  
105  106  95  94  
106  107  96  95  
107  108  97  96  
108  109  98  97  
109  110  99  98  
VARIABLES  = "X","Y","Z", "TEMPERATURE1"
ZONE T="7.000000000000e-02s", N=110, E=90, F=FEPOINT, ET=QUADRILATERAL
STRANDID=1, SOLUTIONTIME=7.000000000000e-02
0.000000000000e+00 0.000000000000e+00 3.400000000000e-01 3.492608484915e+01 
1.000000000000e-02 0.000000000000e+00 3.400000000000e-01 1.947745457439e+01 
2.000000000000e-02 0.000000000000e+00 3.400000000000e-01 7.000000000095e+01 
3.000000000000e-02 0.000000000000e+00 3.400000000000e-01 7.000000000095e+01 
4.000000000000e-02 0.000000000000e+00 3.400000000000e-01 7.000000000095e+01 
5.000000000000e-02 0.000000000000e+00 3.400000000000e-01 7.000000000095e+01 
6.000000000000e-02 0.000000000000e+00 3.400000000000e-01 7.000000000095e+01 
7.000000000000e-02 0.000000000000e+00 3.400000000000e-01 7.000000000095e+01 
8.000000000000e-02 0.000000000000e+00 3.400000000000e-01 7.000000000095e+01 
9.000000000000e-02 0.000000000000e+00 3.400000000000e-01 1.947798955937e+01 
1.000000000000e-01 0.000000000000e+00 3.400000000000e-01 3.492589064449e+01 
0.000000000000e+00 0.000000000000e+00 3.300000000000e-01 2.876534979967e+01 
1.000000000000e-02 0.000000000000e+00 3.300000000000e-01 3.262657846892e+01 
2.000000000000e-02 0.000000000000e+00 3.300000000000e-01 2.006562453307e+01 
3.000000000000e-02 0.000000000000e+00 3.300000000000e-01 2.008383847529e+01 
4.000000000000e-02 0.000000000000e+00 3.300000000000e-01 2.007916262697e+01 
5.000000000000e-02 0.000000000000e+00 3.300000000000e-01 2.008056977447e+01 
6.000000000000e-02 0.000000000000e+00 3.300000000000e-01 2.007916507710e+01 
7.000000000000e-02 0.000000000000e+00 3.300000000000e-01 2.008403764285e+01 
8.000000000000e-02 0.000000000000e+00 3.300000000000e-01 2.006525572407e+01 
9.000000000000e-02 0.000000000000e+00 3.300000000000e-01 3.262652662323e+01 
1.000000000000e-01 0.000000000000e+00 3.300000000000e-01 2.876535908292e+01 
0.000000000000e+00 0.000000000000e+00 3.200000000000e-01 3.030924357875e+01 
1.000000000000e-02 0.000000000000e+00 3.200000000000e-01 2.934479818546e+01 
2.000000000000e-02 0.000000000000e+00 3.200000000000e-01 3.246558690765e+01 
3.000000000000e-02 0.000000000000e+00 3.200000000000e-01 3.245631900257e+01 
4.000000000000e-02 0.000000000000e+00 3.200000000000e-01 3.245870059261e+01 
5.000000000000e-02 0.000000000000e+00 3.200000000000e-01 3.245796199783e+01 
6.000000000000e-02 0.000000000000e+00 3.200000000000e-01 3.245870905439e+01 
7.000000000000e-02 0.000000000000e+00 3.200000000000e-01 3.245628713222e+01 
8.000000000000e-02 0.000000000000e+00 3.200000000000e-01 3.246556963913e+01 
9.000000000000e-02 0.000000000000e+00 3.200000000000e-01 2.934481290582e+01 
1.000000000000e-01 0.000000000000e+00 3.200000000000e-01 3.030924578939e+01 
0.000000000000e+00 0.000000000000e+00 3.100000000000e-01 2.992259895628e+01 
1.000000000000e-02 0.000000000000e+00 3.100000000000e-01 3.016331632671e+01 
2.000000000000e-02 0.000000000000e+00 3.100000000000e-01 2.938858667246e+01 
3.000000000000e-02 0.000000000000e+00 3.100000000000e-01 2.939208166772e+01 
4.000000000000e-02 0.000000000000e+00 3.100000000000e-01 2.939118351676e+01 
5.000000000000e-02 0.000000000000e+00 3.100000000000e-01 2.939146166856e+01 
6.000000000000e-02 0.000000000000e+00 3.100000000000e-01 2.939118283157e+01 
7.000000000000e-02 0.000000000000e+00 3.100000000000e-01 2.939208843971e+01 
8.000000000000e-02 0.000000000000e+00 3.100000000000e-01 2.938858643049e+01 
9.000000000000e-02 0.000000000000e+00 3.100000000000e-01 3.016331381156e+01 
1.000000000000e-01 0.000000000000e+00 3.100000000000e-01 2.992259647687e+01 
0.000000000000e+00 0.000000000000e+00 3.000000000000e-01 3.001935760274e+01 
1.000000000000e-02 0.000000000000e+00 3.000000000000e-01 2.995932433989e+01 
2.000000000000e-02 0.000000000000e+00 3.000000000000e-01 3.015148146690e+01 
3.000000000000e-02 0.000000000000e+00 3.000000000000e-01 3.015030709206e+01 
4.000000000000e-02 0.000000000000e+00 3.000000000000e-01 3.015060945452e+01 
5.000000000000e-02 0.000000000000e+00 3.000000000000e-01 3.015051529132e+01 
6.000000000000e-02 0.000000000000e+00 3.000000000000e-01 3.015060986646e+01 
7.000000000000e-02 0.000000000000e+00 3.000000000000e-01 3.015030503616e+01 
8.000000000000e-02 0.000000000000e+00 3.000000000000e-01 3.015148146346e+01 
9.000000000000e-02 0.000000000000e+00 3.000000000000e-01 2.995932488141e+01 
1.000000000000e-01 0.000000000000e+00 3.000000000000e-01 3.001935871065e+01 
0.000000000000e+00 0.000000000000e+00 2.900000000000e-01 2.999516264022e+01 
1.000000000000e-02 0.000000000000e+00 2.900000000000e-01 3.001012201921e+01 
2.000000000000e-02 0.000000000000e+00 2.900000000000e-01 2.996250420778e+01 
3.000000000000e-02 0.000000000000e+00 2.900000000000e-01 2.996287334500e+01 
4.000000000000e-02 0.000000000000e+00 2.900000000000e-01 2.996277816789e+01 
5.000000000000e-02 0.000000000000e+00 2.900000000000e-01 2.996280786188e+01 
6.000000000000e-02 0.000000000000e+00 2.900000000000e-01 2.996277809649e+01 
7.000000000000e-02 0.000000000000e+00 2.900000000000e-01 2.996287380282e+01 
8.000000000000e-02 0.000000000000e+00 2.900000000000e-01 2.996250422757e+01 
9.000000000000e-02 0.000000000000e+00 2.900000000000e-01 3.001012195216e+01 
1.000000000000e-01 0.000000000000e+00 2.900000000000e-01 2.999516238894e+01 
0.000000000000e+00 0.000000000000e+00 2.800000000000e-01 3.000120781826e+01 
1.000000000000e-02 0.000000000000e+00 2.800000000000e-01 2.999748358724e+01 
2.000000000000e-02 0.000000000000e+00 2.800000000000e-01 3.000927157836e+01 
3.000000000000e-02 0.000000000000e+00 2.800000000000e-01 3.000916015006e+01 
4.000000000000e-02 0.000000000000e+00 2.800000000000e-01 3.000918893927e+01 
5.000000000000e-02 0.000000000000e+00 2.800000000000e-01 3.000917992568e+01 
6.000000000000e-02 0.000000000000e+00 2.800000000000e-01 3.000918896875e+01 
7.000000000000e-02 0.000000000000e+00 2.800000000000e-01 3.000915999896e+01 
8.000000000000e-02 0.000000000000e+00 2.800000000000e-01 3.000927168050e+01 
9.000000000000e-02 0.000000000000e+00 2.800000000000e-01 2.999748345101e+01 
1.000000000000e-01 0.000000000000e+00 2.800000000000e-01 3.000120733271e+01 
0.000000000000e+00 0.000000000000e+00 2.700000000000e-01 2.999969844960e+01 
1.000000000000e-02 0.000000000000e+00 2.700000000000e-01 3.000062471633e+01 
2.000000000000e-02 0.000000000000e+00 2.700000000000e-01 2.999770970347e+01 
3.000000000000e-02 0.000000000000e+00 2.700000000000e-01 2.999774238887e+01 
4.000000000000e-02 0.000000000000e+00 2.700000000000e-01 2.999773392582e+01 
5.000000000000e-02 0.000000000000e+00 2.700000000000e-01 2.999773658969e+01 
6.000000000000e-02 0.000000000000e+00 2.700000000000e-01 2.999773389459e+01 
7.000000000000e-02 0.000000000000e+00 2.700000000000e-01 2.999774252335e+01 
8.000000000000e-02 0.000000000000e+00 2.700000000000e-01 2.999770930749e+01 
9.000000000000e-02 0.000000000000e+00 2.700000000000e-01 3.000062533598e+01 
1.000000000000e-01 0.000000000000e+00 2.700000000000e-01 2.999970089464e+01 
0.000000000000e+00 0.000000000000e+00 2.600000000000e-01 3.000007624413e+01 
1.000000000000e-02 0.000000000000e+00 2.600000000000e-01 2.999984611326e+01 
2.000000000000e-02 0.000000000000e+00 2.600000000000e-01 3.000056609606e+01 
3.000000000000e-02 0.000000000000e+00 2.600000000000e-01 3.000055670162e+01 
4.000000000000e-02 0.000000000000e+00 2.600000000000e-01 3.000055914745e+01 
5.000000000000e-02 0.000000000000e+00 2.600000000000e-01 3.000055834397e+01 
6.000000000000e-02 0.000000000000e+00 2.600000000000e-01 3.000055925405e+01 
7.000000000000e-02 0.000000000000e+00 2.600000000000e-01 3.000055627138e+01 
8.000000000000e-02 0.000000000000e+00 2.600000000000e-01 3.000056770606e+01 
9.000000000000e-02 0.000000000000e+00 2.600000000000e-01 2.999984680428e+01 
1.000000000000e-01 0.000000000000e+00 2.600000000000e-01 3.000007472375e+01 
0.000000000000e+00 0.000000000000e+00 2.500000000000e-01 2.999998248851e+01 
1.000000000000e-02 0.000000000000e+00 2.500000000000e-01 3.000003959764e+01 
2.000000000000e-02 0.000000000000e+00 2.500000000000e-01 2.999986200052e+01 
3.000000000000e-02 0.000000000000e+00 2.500000000000e-01 2.999986465536e+01 
4.000000000000e-02 0.000000000000e+00 2.500000000000e-01 2.999986396898e+01 
5.000000000000e-02 0.000000000000e+00 2.500000000000e-01 2.999986417125e+01 
6.000000000000e-02 0.000000000000e+00 2.500000000000e-01 2.999986401629e+01 
7.000000000000e-02 0.000000000000e+00 2.500000000000e-01 2.999986446072e+01 
8.000000000000e-02 0.000000000000e+00 2.500000000000e-01 2.999986275260e+01 
9.000000000000e-02 0.000000000000e+00 2.500000000000e-01 3.000003798651e+01 
1.000000000000e-01 0.000000000000e+00 2.500000000000e-01 2.999998130235e+01 
12  13  2  1  
13  14  3  2  
14  15  4  3  
15  16  5  4  
16  17  6  5  
17  18  7  6  
18  19  8  7  
19  20  9  8  
20  21  10  9  
21  22  11  10  
23  24  13  12  
24  25  14  13  
25  26  15  14  
26  27  16  15  
27  28  17  16  
28  29  18  17  
29  30  19  18  
30  31  20  19  
31  32  21  20  
32  33  22  21  
34  35  24  23  
35  36  25  24  
36  37  26  25  
37  38  27  26  
38  39  28  27  
39  40  29  28  
40  41  30  29  
41  42  31  30  
42  43  32  31  
43  44  33  32  
45  46  35  34  
46  47  36  35  
47  48  37  36  
48  49  38  37  
49  50  39  38  
50  51  40  39  
51  52  41  40  
52  53  42  41  
53  54  43  42  
54  55  44  43  
56  57  46  45  
57  58  47  46  
58  59  48  47  
59  60  49  48  
60  61  50  49  
61  62  51  50  
62  63  52  51  
63  64  53  52  
64  65  54  53  
65  66  55  54  
67  68  57  56  
68  69  58  57  
69  70  59  58  
70  71  60  59  
71  72  61  60  
72  73  62  61  
73  74  63  62  
74  75  64  63  
75  76  65  64  
76  77  66  65  
78  79  68  67  
79  80  69  68  
80  81  70  69  