 TITLE = "Time curves in points"
 VARIABLES = "TIME "  "TEMPERATURE1"  p_(1st_Invariant)  q_(2nd_Invariant)   Effective_Strain
 ZONE T="POINT=POINT6"
0.000000000000e+00 3.000000000000e+01 -0.000000000000e+00 0.000000000000e+00  0.000000000000e+00
1.000000000000e-02 3.000000037347e+01 5.572804089232e+03 3.095284812505e+03  1.444466248903e-04
7.000000000000e-02 3.000000053882e+01 1.933457001585e+04 5.469935854375e+03  2.552636802865e-04
4.200845218825e-01 3.000000015840e+01 6.189877425901e+04 2.717431703234e+04  1.268134796373e-03
1.420084521883e+00 3.000000021318e+01 1.666175641713e+05 1.210846125504e+05  5.650615392417e-03
2.420084521883e+00 3.000000020430e+01 3.106117334667e+05 1.869490903250e+05  8.724291481834e-03
3.420084521883e+00 3.000000014954e+01 5.331614999325e+05 2.029453120525e+05  9.470783117299e-03
4.420084521883e+00 3.000000006764e+01 9.128260478382e+05 1.977203117968e+05  9.226956450399e-03
5.420084521883e+00 2.999999997175e+01 1.606721747154e+06 5.082734642457e+05  2.371944089795e-02
6.420084521883e+00 2.999999986988e+01 2.929082092631e+06 1.447494600111e+06  6.754976607034e-02
7.420084521883e+00 2.999999976658e+01 5.508372153811e+06 3.495476132655e+06  1.631222504675e-01
8.420084521883e+00 2.999999966430e+01 1.060152334247e+07 7.728179913734e+06  3.606484527060e-01
9.420084521883e+00 2.999999956427e+01 2.072239809399e+07 1.632056385273e+07  7.616264220011e-01
