VARIABLES  = "X","Y","Z", "TEMPERATURE1"
ZONE T="0.000000000000e+00s", N=122, E=100, F=FEPOINT, ET=QUADRILATERAL
STRANDID=1, SOLUTIONTIME=0.000000000000e+00
1.000000000000e-01 0.000000000000e+00 2.600000000000e-01 3.000000000000e+01 
0.000000000000e+00 0.000000000000e+00 2.500000000000e-01 3.000000000000e+01 
1.000000000000e-02 0.000000000000e+00 2.500000000000e-01 3.000000000000e+01 
2.000000000000e-02 0.000000000000e+00 2.500000000000e-01 3.000000000000e+01 
3.000000000000e-02 0.000000000000e+00 2.500000000000e-01 3.000000000000e+01 
4.000000000000e-02 0.000000000000e+00 2.500000000000e-01 3.000000000000e+01 
5.000000000000e-02 0.000000000000e+00 2.500000000000e-01 3.000000000000e+01 
6.000000000000e-02 0.000000000000e+00 2.500000000000e-01 3.000000000000e+01 
7.000000000000e-02 0.000000000000e+00 2.500000000000e-01 3.000000000000e+01 
8.000000000000e-02 0.000000000000e+00 2.500000000000e-01 3.000000000000e+01 
9.000000000000e-02 0.000000000000e+00 2.500000000000e-01 3.000000000000e+01 
1.000000000000e-01 0.000000000000e+00 2.500000000000e-01 3.000000000000e+01 
0.000000000000e+00 0.000000000000e+00 2.400000000000e-01 3.000000000000e+01 
1.000000000000e-02 0.000000000000e+00 2.400000000000e-01 3.000000000000e+01 
2.000000000000e-02 0.000000000000e+00 2.400000000000e-01 3.000000000000e+01 
3.000000000000e-02 0.000000000000e+00 2.400000000000e-01 3.000000000000e+01 
4.000000000000e-02 0.000000000000e+00 2.400000000000e-01 3.000000000000e+01 
5.000000000000e-02 0.000000000000e+00 2.400000000000e-01 3.000000000000e+01 
6.000000000000e-02 0.000000000000e+00 2.400000000000e-01 3.000000000000e+01 
7.000000000000e-02 0.000000000000e+00 2.400000000000e-01 3.000000000000e+01 
8.000000000000e-02 0.000000000000e+00 2.400000000000e-01 3.000000000000e+01 
9.000000000000e-02 0.000000000000e+00 2.400000000000e-01 3.000000000000e+01 
1.000000000000e-01 0.000000000000e+00 2.400000000000e-01 3.000000000000e+01 
0.000000000000e+00 0.000000000000e+00 2.300000000000e-01 3.000000000000e+01 
1.000000000000e-02 0.000000000000e+00 2.300000000000e-01 3.000000000000e+01 
2.000000000000e-02 0.000000000000e+00 2.300000000000e-01 3.000000000000e+01 
3.000000000000e-02 0.000000000000e+00 2.300000000000e-01 3.000000000000e+01 
4.000000000000e-02 0.000000000000e+00 2.300000000000e-01 3.000000000000e+01 
5.000000000000e-02 0.000000000000e+00 2.300000000000e-01 3.000000000000e+01 
6.000000000000e-02 0.000000000000e+00 2.300000000000e-01 3.000000000000e+01 
7.000000000000e-02 0.000000000000e+00 2.300000000000e-01 3.000000000000e+01 
8.000000000000e-02 0.000000000000e+00 2.300000000000e-01 3.000000000000e+01 
9.000000000000e-02 0.000000000000e+00 2.300000000000e-01 3.000000000000e+01 
1.000000000000e-01 0.000000000000e+00 2.300000000000e-01 3.000000000000e+01 
0.000000000000e+00 0.000000000000e+00 2.200000000000e-01 3.000000000000e+01 
1.000000000000e-02 0.000000000000e+00 2.200000000000e-01 3.000000000000e+01 
2.000000000000e-02 0.000000000000e+00 2.200000000000e-01 3.000000000000e+01 
3.000000000000e-02 0.000000000000e+00 2.200000000000e-01 3.000000000000e+01 
4.000000000000e-02 0.000000000000e+00 2.200000000000e-01 3.000000000000e+01 
5.000000000000e-02 0.000000000000e+00 2.200000000000e-01 3.000000000000e+01 
6.000000000000e-02 0.000000000000e+00 2.200000000000e-01 3.000000000000e+01 
7.000000000000e-02 0.000000000000e+00 2.200000000000e-01 3.000000000000e+01 
8.000000000000e-02 0.000000000000e+00 2.200000000000e-01 3.000000000000e+01 
9.000000000000e-02 0.000000000000e+00 2.200000000000e-01 3.000000000000e+01 
1.000000000000e-01 0.000000000000e+00 2.200000000000e-01 3.000000000000e+01 
0.000000000000e+00 0.000000000000e+00 2.100000000000e-01 3.000000000000e+01 
1.000000000000e-02 0.000000000000e+00 2.100000000000e-01 3.000000000000e+01 
2.000000000000e-02 0.000000000000e+00 2.100000000000e-01 3.000000000000e+01 
3.000000000000e-02 0.000000000000e+00 2.100000000000e-01 3.000000000000e+01 
4.000000000000e-02 0.000000000000e+00 2.100000000000e-01 3.000000000000e+01 
5.000000000000e-02 0.000000000000e+00 2.100000000000e-01 3.000000000000e+01 
6.000000000000e-02 0.000000000000e+00 2.100000000000e-01 3.000000000000e+01 
7.000000000000e-02 0.000000000000e+00 2.100000000000e-01 3.000000000000e+01 
8.000000000000e-02 0.000000000000e+00 2.100000000000e-01 3.000000000000e+01 
9.000000000000e-02 0.000000000000e+00 2.100000000000e-01 3.000000000000e+01 
1.000000000000e-01 0.000000000000e+00 2.100000000000e-01 3.000000000000e+01 
0.000000000000e+00 0.000000000000e+00 2.000000000000e-01 3.000000000000e+01 
1.000000000000e-02 0.000000000000e+00 2.000000000000e-01 3.000000000000e+01 
2.000000000000e-02 0.000000000000e+00 2.000000000000e-01 3.000000000000e+01 
3.000000000000e-02 0.000000000000e+00 2.000000000000e-01 3.000000000000e+01 
4.000000000000e-02 0.000000000000e+00 2.000000000000e-01 3.000000000000e+01 
5.000000000000e-02 0.000000000000e+00 2.000000000000e-01 3.000000000000e+01 
6.000000000000e-02 0.000000000000e+00 2.000000000000e-01 3.000000000000e+01 
7.000000000000e-02 0.000000000000e+00 2.000000000000e-01 3.000000000000e+01 
8.000000000000e-02 0.000000000000e+00 2.000000000000e-01 3.000000000000e+01 
9.000000000000e-02 0.000000000000e+00 2.000000000000e-01 3.000000000000e+01 
1.000000000000e-01 0.000000000000e+00 2.000000000000e-01 3.000000000000e+01 
0.000000000000e+00 0.000000000000e+00 1.900000000000e-01 3.000000000000e+01 
1.000000000000e-02 0.000000000000e+00 1.900000000000e-01 3.000000000000e+01 
2.000000000000e-02 0.000000000000e+00 1.900000000000e-01 3.000000000000e+01 
3.000000000000e-02 0.000000000000e+00 1.900000000000e-01 3.000000000000e+01 
4.000000000000e-02 0.000000000000e+00 1.900000000000e-01 3.000000000000e+01 
5.000000000000e-02 0.000000000000e+00 1.900000000000e-01 3.000000000000e+01 
6.000000000000e-02 0.000000000000e+00 1.900000000000e-01 3.000000000000e+01 
7.000000000000e-02 0.000000000000e+00 1.900000000000e-01 3.000000000000e+01 
8.000000000000e-02 0.000000000000e+00 1.900000000000e-01 3.000000000000e+01 
9.000000000000e-02 0.000000000000e+00 1.900000000000e-01 3.000000000000e+01 
1.000000000000e-01 0.000000000000e+00 1.900000000000e-01 3.000000000000e+01 
0.000000000000e+00 0.000000000000e+00 1.800000000000e-01 3.000000000000e+01 
1.000000000000e-02 0.000000000000e+00 1.800000000000e-01 3.000000000000e+01 
2.000000000000e-02 0.000000000000e+00 1.800000000000e-01 3.000000000000e+01 
3.000000000000e-02 0.000000000000e+00 1.800000000000e-01 3.000000000000e+01 
4.000000000000e-02 0.000000000000e+00 1.800000000000e-01 3.000000000000e+01 
5.000000000000e-02 0.000000000000e+00 1.800000000000e-01 3.000000000000e+01 
6.000000000000e-02 0.000000000000e+00 1.800000000000e-01 3.000000000000e+01 
7.000000000000e-02 0.000000000000e+00 1.800000000000e-01 3.000000000000e+01 
8.000000000000e-02 0.000000000000e+00 1.800000000000e-01 3.000000000000e+01 
9.000000000000e-02 0.000000000000e+00 1.800000000000e-01 3.000000000000e+01 
1.000000000000e-01 0.000000000000e+00 1.800000000000e-01 3.000000000000e+01 
0.000000000000e+00 0.000000000000e+00 1.700000000000e-01 3.000000000000e+01 
1.000000000000e-02 0.000000000000e+00 1.700000000000e-01 3.000000000000e+01 
2.000000000000e-02 0.000000000000e+00 1.700000000000e-01 3.000000000000e+01 
3.000000000000e-02 0.000000000000e+00 1.700000000000e-01 3.000000000000e+01 
4.000000000000e-02 0.000000000000e+00 1.700000000000e-01 3.000000000000e+01 
5.000000000000e-02 0.000000000000e+00 1.700000000000e-01 3.000000000000e+01 
6.000000000000e-02 0.000000000000e+00 1.700000000000e-01 3.000000000000e+01 
7.000000000000e-02 0.000000000000e+00 1.700000000000e-01 3.000000000000e+01 
8.000000000000e-02 0.000000000000e+00 1.700000000000e-01 3.000000000000e+01 
9.000000000000e-02 0.000000000000e+00 2.600000000000e-01 3.000000000000e+01 
1.000000000000e-01 0.000000000000e+00 2.700000000000e-01 3.000000000000e+01 
9.000000000000e-02 0.000000000000e+00 2.700000000000e-01 3.000000000000e+01 
1.000000000000e-02 0.000000000000e+00 2.600000000000e-01 3.000000000000e+01 
0.000000000000e+00 0.000000000000e+00 2.600000000000e-01 3.000000000000e+01 
2.000000000000e-02 0.000000000000e+00 2.600000000000e-01 3.000000000000e+01 
3.000000000000e-02 0.000000000000e+00 2.600000000000e-01 3.000000000000e+01 
4.000000000000e-02 0.000000000000e+00 2.600000000000e-01 3.000000000000e+01 
5.000000000000e-02 0.000000000000e+00 2.600000000000e-01 3.000000000000e+01 
6.000000000000e-02 0.000000000000e+00 2.600000000000e-01 3.000000000000e+01 
7.000000000000e-02 0.000000000000e+00 2.600000000000e-01 3.000000000000e+01 
8.000000000000e-02 0.000000000000e+00 2.600000000000e-01 3.000000000000e+01 
9.000000000000e-02 0.000000000000e+00 1.700000000000e-01 3.000000000000e+01 
1.000000000000e-01 0.000000000000e+00 1.700000000000e-01 3.000000000000e+01 
0.000000000000e+00 0.000000000000e+00 1.600000000000e-01 3.000000000000e+01 
1.000000000000e-02 0.000000000000e+00 1.600000000000e-01 3.000000000000e+01 
2.000000000000e-02 0.000000000000e+00 1.600000000000e-01 3.000000000000e+01 
3.000000000000e-02 0.000000000000e+00 1.600000000000e-01 3.000000000000e+01 
4.000000000000e-02 0.000000000000e+00 1.600000000000e-01 3.000000000000e+01 
5.000000000000e-02 0.000000000000e+00 1.600000000000e-01 3.000000000000e+01 
6.000000000000e-02 0.000000000000e+00 1.600000000000e-01 3.000000000000e+01 
7.000000000000e-02 0.000000000000e+00 1.600000000000e-01 3.000000000000e+01 
8.000000000000e-02 0.000000000000e+00 1.600000000000e-01 3.000000000000e+01 
9.000000000000e-02 0.000000000000e+00 1.600000000000e-01 3.000000000000e+01 
13  14  3  2  
14  15  4  3  
15  16  5  4  
16  17  6  5  
17  18  7  6  
18  19  8  7  
19  20  9  8  
20  21  10  9  
21  22  11  10  
22  23  12  11  
24  25  14  13  
25  26  15  14  
26  27  16  15  
27  28  17  16  
28  29  18  17  
29  30  19  18  
30  31  20  19  
31  32  21  20  
32  33  22  21  
33  34  23  22  
35  36  25  24  
36  37  26  25  
37  38  27  26  
38  39  28  27  
39  40  29  28  
40  41  30  29  
41  42  31  30  
42  43  32  31  
43  44  33  32  
44  45  34  33  
46  47  36  35  
47  48  37  36  
48  49  38  37  
49  50  39  38  
50  51  40  39  
51  52  41  40  
52  53  42  41  
53  54  43  42  
54  55  44  43  
55  56  45  44  
57  58  47  46  
58  59  48  47  
59  60  49  48  
60  61  50  49  
61  62  51  50  
62  63  52  51  
63  64  53  52  
64  65  54  53  
65  66  55  54  
66  67  56  55  
68  69  58  57  
69  70  59  58  
70  71  60  59  
71  72  61  60  
72  73  62  61  
73  74  63  62  
74  75  64  63  
75  76  65  64  
76  77  66  65  
77  78  67  66  
79  80  69  68  
80  81  70  69  
81  82  71  70  
82  83  72  71  
83  84  73  72  
84  85  74  73  
85  86  75  74  
86  87  76  75  
87  88  77  76  
88  89  78  77  
90  91  80  79  
91  92  81  80  
92  93  82  81  
93  94  83  82  
94  95  84  83  
95  96  85  84  
96  97  86  85  
97  98  87  86  
99  1  100  101  
11  12  1  99  
2  3  102  103  
3  4  104  102  
4  5  105  104  
5  6  106  105  
6  7  107  106  
7  8  108  107  
8  9  109  108  
9  10  110  109  
10  11  99  110  
98  111  88  87  
111  112  89  88  
113  114  91  90  
114  115  92  91  
115  116  93  92  
116  117  94  93  
117  118  95  94  
118  119  96  95  
119  120  97  96  
120  121  98  97  
121  122  111  98  
VARIABLES  = "X","Y","Z", "TEMPERATURE1"
ZONE T="1.000000000000e-02s", N=122, E=100, F=FEPOINT, ET=QUADRILATERAL
STRANDID=1, SOLUTIONTIME=1.000000000000e-02
1.000000000000e-01 0.000000000000e+00 2.600000000000e-01 3.000013614523e+01 
0.000000000000e+00 0.000000000000e+00 2.500000000000e-01 2.999996463153e+01 
1.000000000000e-02 0.000000000000e+00 2.500000000000e-01 3.000007370738e+01 
2.000000000000e-02 0.000000000000e+00 2.500000000000e-01 2.999974274070e+01 
3.000000000000e-02 0.000000000000e+00 2.500000000000e-01 2.999974284788e+01 
4.000000000000e-02 0.000000000000e+00 2.500000000000e-01 2.999974282222e+01 
5.000000000000e-02 0.000000000000e+00 2.500000000000e-01 2.999974281863e+01 
6.000000000000e-02 0.000000000000e+00 2.500000000000e-01 2.999974286159e+01 
7.000000000000e-02 0.000000000000e+00 2.500000000000e-01 2.999974268620e+01 
8.000000000000e-02 0.000000000000e+00 2.500000000000e-01 2.999974336151e+01 
9.000000000000e-02 0.000000000000e+00 2.500000000000e-01 3.000007260936e+01 
1.000000000000e-01 0.000000000000e+00 2.500000000000e-01 2.999996385535e+01 
0.000000000000e+00 0.000000000000e+00 2.400000000000e-01 3.000000937609e+01 
1.000000000000e-02 0.000000000000e+00 2.400000000000e-01 2.999998046299e+01 
2.000000000000e-02 0.000000000000e+00 2.400000000000e-01 3.000006818119e+01 
3.000000000000e-02 0.000000000000e+00 2.400000000000e-01 3.000006814935e+01 
4.000000000000e-02 0.000000000000e+00 2.400000000000e-01 3.000006815799e+01 
5.000000000000e-02 0.000000000000e+00 2.400000000000e-01 3.000006815499e+01 
6.000000000000e-02 0.000000000000e+00 2.400000000000e-01 3.000006815673e+01 
7.000000000000e-02 0.000000000000e+00 2.400000000000e-01 3.000006816990e+01 
8.000000000000e-02 0.000000000000e+00 2.400000000000e-01 3.000006808081e+01 
9.000000000000e-02 0.000000000000e+00 2.400000000000e-01 2.999998072172e+01 
1.000000000000e-01 0.000000000000e+00 2.400000000000e-01 3.000000962691e+01 
0.000000000000e+00 0.000000000000e+00 2.300000000000e-01 2.999999751474e+01 
1.000000000000e-02 0.000000000000e+00 2.300000000000e-01 3.000000517901e+01 
2.000000000000e-02 0.000000000000e+00 2.300000000000e-01 2.999998193025e+01 
3.000000000000e-02 0.000000000000e+00 2.300000000000e-01 2.999998194010e+01 
4.000000000000e-02 0.000000000000e+00 2.300000000000e-01 2.999998193551e+01 
5.000000000000e-02 0.000000000000e+00 2.300000000000e-01 2.999998194420e+01 
6.000000000000e-02 0.000000000000e+00 2.300000000000e-01 2.999998191780e+01 
7.000000000000e-02 0.000000000000e+00 2.300000000000e-01 2.999998195218e+01 
8.000000000000e-02 0.000000000000e+00 2.300000000000e-01 2.999998196634e+01 
9.000000000000e-02 0.000000000000e+00 2.300000000000e-01 3.000000512836e+01 
1.000000000000e-01 0.000000000000e+00 2.300000000000e-01 2.999999744490e+01 
0.000000000000e+00 0.000000000000e+00 2.200000000000e-01 3.000000065802e+01 
1.000000000000e-02 0.000000000000e+00 2.200000000000e-01 2.999999862634e+01 
2.000000000000e-02 0.000000000000e+00 2.200000000000e-01 3.000000478858e+01 
3.000000000000e-02 0.000000000000e+00 2.200000000000e-01 3.000000478367e+01 
4.000000000000e-02 0.000000000000e+00 2.200000000000e-01 3.000000479284e+01 
5.000000000000e-02 0.000000000000e+00 2.200000000000e-01 3.000000476076e+01 
6.000000000000e-02 0.000000000000e+00 2.200000000000e-01 3.000000486642e+01 
7.000000000000e-02 0.000000000000e+00 2.200000000000e-01 3.000000471097e+01 
8.000000000000e-02 0.000000000000e+00 2.200000000000e-01 3.000000475651e+01 
9.000000000000e-02 0.000000000000e+00 2.200000000000e-01 2.999999856690e+01 
1.000000000000e-01 0.000000000000e+00 2.200000000000e-01 3.000000069766e+01 
0.000000000000e+00 0.000000000000e+00 2.100000000000e-01 2.999999982899e+01 
1.000000000000e-02 0.000000000000e+00 2.100000000000e-01 3.000000036835e+01 
2.000000000000e-02 0.000000000000e+00 2.100000000000e-01 2.999999873290e+01 
3.000000000000e-02 0.000000000000e+00 2.100000000000e-01 2.999999874219e+01 
4.000000000000e-02 0.000000000000e+00 2.100000000000e-01 2.999999870997e+01 
5.000000000000e-02 0.000000000000e+00 2.100000000000e-01 2.999999883070e+01 
6.000000000000e-02 0.000000000000e+00 2.100000000000e-01 2.999999843064e+01 
7.000000000000e-02 0.000000000000e+00 2.100000000000e-01 2.999999902342e+01 
8.000000000000e-02 0.000000000000e+00 2.100000000000e-01 2.999999882729e+01 
9.000000000000e-02 0.000000000000e+00 2.100000000000e-01 3.000000065867e+01 
1.000000000000e-01 0.000000000000e+00 2.100000000000e-01 2.999999973934e+01 
0.000000000000e+00 0.000000000000e+00 2.000000000000e-01 3.000000003273e+01 
1.000000000000e-02 0.000000000000e+00 2.000000000000e-01 2.999999988722e+01 
2.000000000000e-02 0.000000000000e+00 2.000000000000e-01 3.000000032864e+01 
3.000000000000e-02 0.000000000000e+00 2.000000000000e-01 3.000000029636e+01 
4.000000000000e-02 0.000000000000e+00 2.000000000000e-01 3.000000041721e+01 
5.000000000000e-02 0.000000000000e+00 2.000000000000e-01 2.999999996184e+01 
6.000000000000e-02 0.000000000000e+00 2.000000000000e-01 3.000000147155e+01 
7.000000000000e-02 0.000000000000e+00 2.000000000000e-01 2.999999923346e+01 
8.000000000000e-02 0.000000000000e+00 2.000000000000e-01 2.999999997951e+01 
9.000000000000e-02 0.000000000000e+00 2.000000000000e-01 2.999999877438e+01 
1.000000000000e-01 0.000000000000e+00 2.000000000000e-01 3.000000035511e+01 
0.000000000000e+00 0.000000000000e+00 1.900000000000e-01 3.000000003921e+01 
1.000000000000e-02 0.000000000000e+00 1.900000000000e-01 3.000000008790e+01 
2.000000000000e-02 0.000000000000e+00 1.900000000000e-01 2.999999994042e+01 
3.000000000000e-02 0.000000000000e+00 1.900000000000e-01 3.000000006150e+01 
4.000000000000e-02 0.000000000000e+00 1.900000000000e-01 2.999999960584e+01 
5.000000000000e-02 0.000000000000e+00 1.900000000000e-01 3.000000132368e+01 
6.000000000000e-02 0.000000000000e+00 1.900000000000e-01 2.999999562766e+01 
7.000000000000e-02 0.000000000000e+00 1.900000000000e-01 3.000000407230e+01 
8.000000000000e-02 0.000000000000e+00 1.900000000000e-01 3.000000125613e+01 
9.000000000000e-02 0.000000000000e+00 1.900000000000e-01 3.000000429129e+01 
1.000000000000e-01 0.000000000000e+00 1.900000000000e-01 2.999999882716e+01 
0.000000000000e+00 0.000000000000e+00 1.800000000000e-01 2.999999980922e+01 
1.000000000000e-02 0.000000000000e+00 1.800000000000e-01 2.999999975875e+01 
2.000000000000e-02 0.000000000000e+00 1.800000000000e-01 2.999999991224e+01 
3.000000000000e-02 0.000000000000e+00 1.800000000000e-01 2.999999945591e+01 
4.000000000000e-02 0.000000000000e+00 1.800000000000e-01 3.000000117461e+01 
5.000000000000e-02 0.000000000000e+00 1.800000000000e-01 2.999999469411e+01 
6.000000000000e-02 0.000000000000e+00 1.800000000000e-01 3.000001618438e+01 
7.000000000000e-02 0.000000000000e+00 1.800000000000e-01 2.999998432313e+01 
8.000000000000e-02 0.000000000000e+00 1.800000000000e-01 2.999999494729e+01 
9.000000000000e-02 0.000000000000e+00 1.800000000000e-01 2.999998389825e+01 
1.000000000000e-01 0.000000000000e+00 1.800000000000e-01 3.000000438081e+01 
0.000000000000e+00 0.000000000000e+00 1.700000000000e-01 3.000000073164e+01 
1.000000000000e-02 0.000000000000e+00 1.700000000000e-01 3.000000088708e+01 
2.000000000000e-02 0.000000000000e+00 1.700000000000e-01 3.000000041482e+01 
3.000000000000e-02 0.000000000000e+00 1.700000000000e-01 3.000000213587e+01 
4.000000000000e-02 0.000000000000e+00 1.700000000000e-01 2.999999565290e+01 
5.000000000000e-02 0.000000000000e+00 1.700000000000e-01 3.000002010042e+01 
6.000000000000e-02 0.000000000000e+00 1.700000000000e-01 2.999996342687e+01 
7.000000000000e-02 0.000000000000e+00 1.700000000000e-01 3.000002257259e+01 
8.000000000000e-02 0.000000000000e+00 1.700000000000e-01 3.000000682411e+01 
9.000000000000e-02 0.000000000000e+00 2.600000000000e-01 2.999972603291e+01 
1.000000000000e-01 0.000000000000e+00 2.700000000000e-01 2.999948701497e+01 
9.000000000000e-02 0.000000000000e+00 2.700000000000e-01 3.000103825087e+01 
1.000000000000e-02 0.000000000000e+00 2.600000000000e-01 2.999972566452e+01 
0.000000000000e+00 0.000000000000e+00 2.600000000000e-01 3.000013715867e+01 
2.000000000000e-02 0.000000000000e+00 2.600000000000e-01 3.000097442646e+01 
3.000000000000e-02 0.000000000000e+00 2.600000000000e-01 3.000097406206e+01 
4.000000000000e-02 0.000000000000e+00 2.600000000000e-01 3.000097416653e+01 
5.000000000000e-02 0.000000000000e+00 2.600000000000e-01 3.000097410930e+01 
6.000000000000e-02 0.000000000000e+00 2.600000000000e-01 3.000097423562e+01 
7.000000000000e-02 0.000000000000e+00 2.600000000000e-01 3.000097379063e+01 
8.000000000000e-02 0.000000000000e+00 2.600000000000e-01 3.000097544807e+01 
9.000000000000e-02 0.000000000000e+00 1.700000000000e-01 3.000001125569e+01 
1.000000000000e-01 0.000000000000e+00 1.700000000000e-01 2.999995840927e+01 
0.000000000000e+00 0.000000000000e+00 1.600000000000e-01 3.000000082996e+01 
1.000000000000e-02 0.000000000000e+00 1.600000000000e-01 3.000000068829e+01 
2.000000000000e-02 0.000000000000e+00 1.600000000000e-01 3.000000111860e+01 
3.000000000000e-02 0.000000000000e+00 1.600000000000e-01 2.999999953110e+01 
4.000000000000e-02 0.000000000000e+00 1.600000000000e-01 3.000000551223e+01 
5.000000000000e-02 0.000000000000e+00 1.600000000000e-01 2.999998295114e+01 
6.000000000000e-02 0.000000000000e+00 1.600000000000e-01 3.000001616278e+01 
7.000000000000e-02 0.000000000000e+00 1.600000000000e-01 2.999998430114e+01 
8.000000000000e-02 0.000000000000e+00 1.600000000000e-01 2.999999492540e+01 
9.000000000000e-02 0.000000000000e+00 1.600000000000e-01 2.999998390419e+01 
13  14  3  2  
14  15  4  3  
15  16  5  4  
16  17  6  5  
17  18  7  6  
18  19  8  7  
19  20  9  8  
20  21  10  9  
21  22  11  10  
22  23  12  11  
24  25  14  13  
25  26  15  14  
26  27  16  15  
27  28  17  16  
28  29  18  17  
29  30  19  18  
30  31  20  19  
31  32  21  20  
32  33  22  21  
33  34  23  22  
35  36  25  24  
36  37  26  25  
37  38  27  26  
38  39  28  27  
39  40  29  28  
40  41  30  29  
41  42  31  30  
42  43  32  31  
43  44  33  32  
44  45  34  33  
46  47  36  35  
47  48  37  36  
48  49  38  37  
49  50  39  38  
50  51  40  39  
51  52  41  40  
52  53  42  41  
53  54  43  42  
54  55  44  43  
55  56  45  44  
57  58  47  46  
58  59  48  47  
59  60  49  48  
60  61  50  49  
61  62  51  50  
62  63  52  51  
63  64  53  52  
64  65  54  53  
65  66  55  54  
66  67  56  55  
68  69  58  57  
69  70  59  58  
70  71  60  59  
71  72  61  60  
72  73  62  61  
73  74  63  62  
74  75  64  63  
75  76  65  64  
76  77  66  65  
77  78  67  66  
79  80  69  68  
80  81  70  69  
81  82  71  70  
82  83  72  71  
83  84  73  72  
84  85  74  73  
85  86  75  74  
86  87  76  75  
87  88  77  76  
88  89  78  77  
90  91  80  79  
91  92  81  80  
92  93  82  81  
93  94  83  82  
94  95  84  83  
95  96  85  84  
96  97  86  85  
97  98  87  86  
99  1  100  101  
11  12  1  99  
2  3  102  103  
3  4  104  102  
4  5  105  104  
5  6  106  105  
6  7  107  106  
7  8  108  107  
8  9  109  108  
9  10  110  109  
10  11  99  110  
98  111  88  87  
111  112  89  88  
113  114  91  90  
114  115  92  91  
115  116  93  92  
116  117  94  93  
117  118  95  94  
118  119  96  95  
119  120  97  96  
120  121  98  97  
121  122  111  98  
VARIABLES  = "X","Y","Z", "TEMPERATURE1"
ZONE T="7.000000000000e-02s", N=122, E=100, F=FEPOINT, ET=QUADRILATERAL
STRANDID=1, SOLUTIONTIME=7.000000000000e-02
1.000000000000e-01 0.000000000000e+00 2.600000000000e-01 3.000007472267e+01 
0.000000000000e+00 0.000000000000e+00 2.500000000000e-01 2.999998248930e+01 
1.000000000000e-02 0.000000000000e+00 2.500000000000e-01 3.000003959543e+01 
2.000000000000e-02 0.000000000000e+00 2.500000000000e-01 2.999986200643e+01 
3.000000000000e-02 0.000000000000e+00 2.500000000000e-01 2.999986466671e+01 
4.000000000000e-02 0.000000000000e+00 2.500000000000e-01 2.999986397970e+01 
5.000000000000e-02 0.000000000000e+00 2.500000000000e-01 2.999986418236e+01 
6.000000000000e-02 0.000000000000e+00 2.500000000000e-01 2.999986402734e+01 
7.000000000000e-02 0.000000000000e+00 2.500000000000e-01 2.999986447016e+01 
8.000000000000e-02 0.000000000000e+00 2.500000000000e-01 2.999986275847e+01 
9.000000000000e-02 0.000000000000e+00 2.500000000000e-01 3.000003798525e+01 
1.000000000000e-01 0.000000000000e+00 2.500000000000e-01 2.999998130264e+01 
0.000000000000e+00 0.000000000000e+00 2.400000000000e-01 3.000000435390e+01 
1.000000000000e-02 0.000000000000e+00 2.400000000000e-01 2.999999020002e+01 
2.000000000000e-02 0.000000000000e+00 2.400000000000e-01 3.000003394305e+01 
3.000000000000e-02 0.000000000000e+00 2.400000000000e-01 3.000003320001e+01 
4.000000000000e-02 0.000000000000e+00 2.400000000000e-01 3.000003339334e+01 
5.000000000000e-02 0.000000000000e+00 2.400000000000e-01 3.000003333249e+01 
6.000000000000e-02 0.000000000000e+00 2.400000000000e-01 3.000003339070e+01 
7.000000000000e-02 0.000000000000e+00 2.400000000000e-01 3.000003322469e+01 
8.000000000000e-02 0.000000000000e+00 2.400000000000e-01 3.000003382850e+01 
9.000000000000e-02 0.000000000000e+00 2.400000000000e-01 2.999999056685e+01 
1.000000000000e-01 0.000000000000e+00 2.400000000000e-01 3.000000469818e+01 
0.000000000000e+00 0.000000000000e+00 2.300000000000e-01 2.999999891844e+01 
1.000000000000e-02 0.000000000000e+00 2.300000000000e-01 3.000000242313e+01 
2.000000000000e-02 0.000000000000e+00 2.300000000000e-01 2.999999166409e+01 
3.000000000000e-02 0.000000000000e+00 2.300000000000e-01 2.999999187017e+01 
4.000000000000e-02 0.000000000000e+00 2.300000000000e-01 2.999999181475e+01 
5.000000000000e-02 0.000000000000e+00 2.300000000000e-01 2.999999183879e+01 
6.000000000000e-02 0.000000000000e+00 2.300000000000e-01 2.999999179757e+01 
7.000000000000e-02 0.000000000000e+00 2.300000000000e-01 2.999999188365e+01 
8.000000000000e-02 0.000000000000e+00 2.300000000000e-01 2.999999170480e+01 
9.000000000000e-02 0.000000000000e+00 2.300000000000e-01 3.000000235101e+01 
1.000000000000e-01 0.000000000000e+00 2.300000000000e-01 2.999999882955e+01 
0.000000000000e+00 0.000000000000e+00 2.200000000000e-01 3.000000026665e+01 
1.000000000000e-02 0.000000000000e+00 2.200000000000e-01 2.999999940136e+01 
2.000000000000e-02 0.000000000000e+00 2.200000000000e-01 3.000000204240e+01 
3.000000000000e-02 0.000000000000e+00 2.200000000000e-01 3.000000198422e+01 
4.000000000000e-02 0.000000000000e+00 2.200000000000e-01 3.000000200670e+01 
5.000000000000e-02 0.000000000000e+00 2.200000000000e-01 3.000000197185e+01 
6.000000000000e-02 0.000000000000e+00 2.200000000000e-01 3.000000208305e+01 
7.000000000000e-02 0.000000000000e+00 2.200000000000e-01 3.000000189911e+01 
8.000000000000e-02 0.000000000000e+00 2.200000000000e-01 3.000000199987e+01 
9.000000000000e-02 0.000000000000e+00 2.200000000000e-01 2.999999933643e+01 
1.000000000000e-01 0.000000000000e+00 2.200000000000e-01 3.000000031265e+01 
0.000000000000e+00 0.000000000000e+00 2.100000000000e-01 2.999999993744e+01 
1.000000000000e-02 0.000000000000e+00 2.100000000000e-01 3.000000015268e+01 
2.000000000000e-02 0.000000000000e+00 2.100000000000e-01 2.999999950259e+01 
3.000000000000e-02 0.000000000000e+00 2.100000000000e-01 2.999999952600e+01 
4.000000000000e-02 0.000000000000e+00 2.100000000000e-01 2.999999949103e+01 
5.000000000000e-02 0.000000000000e+00 2.100000000000e-01 2.999999961328e+01 
6.000000000000e-02 0.000000000000e+00 2.100000000000e-01 2.999999918278e+01 
7.000000000000e-02 0.000000000000e+00 2.100000000000e-01 2.999999987487e+01 
8.000000000000e-02 0.000000000000e+00 2.100000000000e-01 2.999999964488e+01 
9.000000000000e-02 0.000000000000e+00 2.100000000000e-01 3.000000050125e+01 
1.000000000000e-01 0.000000000000e+00 2.100000000000e-01 2.999999983088e+01 
0.000000000000e+00 0.000000000000e+00 2.000000000000e-01 2.999999999868e+01 
1.000000000000e-02 0.000000000000e+00 2.000000000000e-01 2.999999994438e+01 
2.000000000000e-02 0.000000000000e+00 2.000000000000e-01 3.000000011013e+01 
3.000000000000e-02 0.000000000000e+00 2.000000000000e-01 3.000000007477e+01 
4.000000000000e-02 0.000000000000e+00 2.000000000000e-01 3.000000019886e+01 
5.000000000000e-02 0.000000000000e+00 2.000000000000e-01 2.999999971549e+01 
6.000000000000e-02 0.000000000000e+00 2.000000000000e-01 3.000000143624e+01 
7.000000000000e-02 0.000000000000e+00 2.000000000000e-01 2.999999867458e+01 
8.000000000000e-02 0.000000000000e+00 2.000000000000e-01 2.999999954300e+01 
9.000000000000e-02 0.000000000000e+00 2.000000000000e-01 2.999999852468e+01 
1.000000000000e-01 0.000000000000e+00 2.000000000000e-01 3.000000040408e+01 
0.000000000000e+00 0.000000000000e+00 1.900000000000e-01 3.000000006510e+01 
1.000000000000e-02 0.000000000000e+00 1.900000000000e-01 3.000000008884e+01 
2.000000000000e-02 0.000000000000e+00 1.900000000000e-01 3.000000001726e+01 
3.000000000000e-02 0.000000000000e+00 1.900000000000e-01 3.000000014247e+01 
4.000000000000e-02 0.000000000000e+00 1.900000000000e-01 2.999999965353e+01 
5.000000000000e-02 0.000000000000e+00 1.900000000000e-01 3.000000158129e+01 
6.000000000000e-02 0.000000000000e+00 1.900000000000e-01 2.999999469056e+01 
7.000000000000e-02 0.000000000000e+00 1.900000000000e-01 3.000000575365e+01 
8.000000000000e-02 0.000000000000e+00 1.900000000000e-01 3.000000230391e+01 
9.000000000000e-02 0.000000000000e+00 1.900000000000e-01 3.000000578594e+01 
1.000000000000e-01 0.000000000000e+00 1.900000000000e-01 2.999999845519e+01 
0.000000000000e+00 0.000000000000e+00 1.800000000000e-01 2.999999972037e+01 
1.000000000000e-02 0.000000000000e+00 1.800000000000e-01 2.999999967957e+01 
2.000000000000e-02 0.000000000000e+00 1.800000000000e-01 2.999999981404e+01 
3.000000000000e-02 0.000000000000e+00 1.800000000000e-01 2.999999932417e+01 
4.000000000000e-02 0.000000000000e+00 1.800000000000e-01 3.000000126438e+01 
5.000000000000e-02 0.000000000000e+00 1.800000000000e-01 2.999999357546e+01 
6.000000000000e-02 0.000000000000e+00 1.800000000000e-01 3.000002115970e+01 
7.000000000000e-02 0.000000000000e+00 1.800000000000e-01 2.999997685034e+01 
8.000000000000e-02 0.000000000000e+00 1.800000000000e-01 2.999999059161e+01 
9.000000000000e-02 0.000000000000e+00 1.800000000000e-01 2.999997684977e+01 
1.000000000000e-01 0.000000000000e+00 1.800000000000e-01 3.000000612757e+01 
0.000000000000e+00 0.000000000000e+00 1.700000000000e-01 3.000000112536e+01 
1.000000000000e-02 0.000000000000e+00 1.700000000000e-01 3.000000128019e+01 
2.000000000000e-02 0.000000000000e+00 1.700000000000e-01 3.000000077414e+01 
3.000000000000e-02 0.000000000000e+00 1.700000000000e-01 3.000000275522e+01 
4.000000000000e-02 0.000000000000e+00 1.700000000000e-01 2.999999486804e+01 
5.000000000000e-02 0.000000000000e+00 1.700000000000e-01 3.000002627207e+01 