VARIABLES  = "X","Y","Z", "PRESSURE1", "PRESSURE2", "PRESSURE_W", "SATURATION1", SATURATION2, "VELOCITY_X1", "VELOCITY_Y1", "VELOCITY_X2", "VELOCITY_Y2"
ZONE T="0.000000000000e+00s", N=121, E=99, F=FEPOINT, ET=QUADRILATERAL
STRANDID=1, SOLUTIONTIME=0.000000000000e+00
9.000000000000e-02 0.000000000000e+00 1.700000000000e-01 1.000000000000e+05 1.000000000000e+05 0.000000000000e+00 9.251121356155e-01 7.488786438454e-02 0.000000000000e+00 0.000000000000e+00 0.000000000000e+00 0.000000000000e+00 
1.000000000000e-01 0.000000000000e+00 1.700000000000e-01 1.000000000000e+05 1.000000000000e+05 0.000000000000e+00 9.251121356155e-01 7.488786438454e-02 0.000000000000e+00 0.000000000000e+00 0.000000000000e+00 0.000000000000e+00 
0.000000000000e+00 0.000000000000e+00 1.600000000000e-01 1.000000000000e+05 1.000000000000e+05 0.000000000000e+00 9.251121356155e-01 7.488786438454e-02 0.000000000000e+00 0.000000000000e+00 0.000000000000e+00 0.000000000000e+00 
1.000000000000e-02 0.000000000000e+00 1.600000000000e-01 1.000000000000e+05 1.000000000000e+05 0.000000000000e+00 9.251121356155e-01 7.488786438454e-02 0.000000000000e+00 0.000000000000e+00 0.000000000000e+00 0.000000000000e+00 
2.000000000000e-02 0.000000000000e+00 1.600000000000e-01 1.000000000000e+05 1.000000000000e+05 0.000000000000e+00 9.251121356155e-01 7.488786438454e-02 0.000000000000e+00 0.000000000000e+00 0.000000000000e+00 0.000000000000e+00 
3.000000000000e-02 0.000000000000e+00 1.600000000000e-01 1.000000000000e+05 1.000000000000e+05 0.000000000000e+00 9.251121356155e-01 7.488786438454e-02 0.000000000000e+00 0.000000000000e+00 0.000000000000e+00 0.000000000000e+00 
4.000000000000e-02 0.000000000000e+00 1.600000000000e-01 1.000000000000e+05 1.000000000000e+05 0.000000000000e+00 9.251121356155e-01 7.488786438454e-02 0.000000000000e+00 0.000000000000e+00 0.000000000000e+00 0.000000000000e+00 
5.000000000000e-02 0.000000000000e+00 1.600000000000e-01 1.000000000000e+05 1.000000000000e+05 0.000000000000e+00 9.251121356155e-01 7.488786438454e-02 0.000000000000e+00 0.000000000000e+00 0.000000000000e+00 0.000000000000e+00 
6.000000000000e-02 0.000000000000e+00 1.600000000000e-01 1.000000000000e+05 1.000000000000e+05 0.000000000000e+00 9.251121356155e-01 7.488786438454e-02 0.000000000000e+00 0.000000000000e+00 0.000000000000e+00 0.000000000000e+00 
7.000000000000e-02 0.000000000000e+00 1.600000000000e-01 1.000000000000e+05 1.000000000000e+05 0.000000000000e+00 9.251121356155e-01 7.488786438454e-02 0.000000000000e+00 0.000000000000e+00 0.000000000000e+00 0.000000000000e+00 
8.000000000000e-02 0.000000000000e+00 1.600000000000e-01 1.000000000000e+05 1.000000000000e+05 0.000000000000e+00 9.251121356155e-01 7.488786438454e-02 0.000000000000e+00 0.000000000000e+00 0.000000000000e+00 0.000000000000e+00 
9.000000000000e-02 0.000000000000e+00 1.600000000000e-01 1.000000000000e+05 1.000000000000e+05 0.000000000000e+00 9.251121356155e-01 7.488786438454e-02 0.000000000000e+00 0.000000000000e+00 0.000000000000e+00 0.000000000000e+00 
1.000000000000e-01 0.000000000000e+00 1.600000000000e-01 1.000000000000e+05 1.000000000000e+05 0.000000000000e+00 9.251121356155e-01 7.488786438454e-02 0.000000000000e+00 0.000000000000e+00 0.000000000000e+00 0.000000000000e+00 
0.000000000000e+00 0.000000000000e+00 1.500000000000e-01 1.000000000000e+05 1.000000000000e+05 0.000000000000e+00 9.251121356155e-01 7.488786438454e-02 0.000000000000e+00 0.000000000000e+00 0.000000000000e+00 0.000000000000e+00 
1.000000000000e-02 0.000000000000e+00 1.500000000000e-01 1.000000000000e+05 1.000000000000e+05 0.000000000000e+00 9.251121356155e-01 7.488786438454e-02 0.000000000000e+00 0.000000000000e+00 0.000000000000e+00 0.000000000000e+00 
2.000000000000e-02 0.000000000000e+00 1.500000000000e-01 1.000000000000e+05 1.000000000000e+05 0.000000000000e+00 9.251121356155e-01 7.488786438454e-02 0.000000000000e+00 0.000000000000e+00 0.000000000000e+00 0.000000000000e+00 
3.000000000000e-02 0.000000000000e+00 1.500000000000e-01 1.000000000000e+05 1.000000000000e+05 0.000000000000e+00 9.251121356155e-01 7.488786438454e-02 0.000000000000e+00 0.000000000000e+00 0.000000000000e+00 0.000000000000e+00 
4.000000000000e-02 0.000000000000e+00 1.500000000000e-01 1.000000000000e+05 1.000000000000e+05 0.000000000000e+00 9.251121356155e-01 7.488786438454e-02 0.000000000000e+00 0.000000000000e+00 0.000000000000e+00 0.000000000000e+00 
5.000000000000e-02 0.000000000000e+00 1.500000000000e-01 1.000000000000e+05 1.000000000000e+05 0.000000000000e+00 9.251121356155e-01 7.488786438454e-02 0.000000000000e+00 0.000000000000e+00 0.000000000000e+00 0.000000000000e+00 
6.000000000000e-02 0.000000000000e+00 1.500000000000e-01 1.000000000000e+05 1.000000000000e+05 0.000000000000e+00 9.251121356155e-01 7.488786438454e-02 0.000000000000e+00 0.000000000000e+00 0.000000000000e+00 0.000000000000e+00 
7.000000000000e-02 0.000000000000e+00 1.500000000000e-01 1.000000000000e+05 1.000000000000e+05 0.000000000000e+00 9.251121356155e-01 7.488786438454e-02 0.000000000000e+00 0.000000000000e+00 0.000000000000e+00 0.000000000000e+00 
8.000000000000e-02 0.000000000000e+00 1.500000000000e-01 1.000000000000e+05 1.000000000000e+05 0.000000000000e+00 9.251121356155e-01 7.488786438454e-02 0.000000000000e+00 0.000000000000e+00 0.000000000000e+00 0.000000000000e+00 
9.000000000000e-02 0.000000000000e+00 1.500000000000e-01 1.000000000000e+05 1.000000000000e+05 0.000000000000e+00 9.251121356155e-01 7.488786438454e-02 0.000000000000e+00 0.000000000000e+00 0.000000000000e+00 0.000000000000e+00 
1.000000000000e-01 0.000000000000e+00 1.500000000000e-01 1.000000000000e+05 1.000000000000e+05 0.000000000000e+00 9.251121356155e-01 7.488786438454e-02 0.000000000000e+00 0.000000000000e+00 0.000000000000e+00 0.000000000000e+00 
0.000000000000e+00 0.000000000000e+00 1.400000000000e-01 1.000000000000e+05 1.000000000000e+05 0.000000000000e+00 9.251121356155e-01 7.488786438454e-02 0.000000000000e+00 0.000000000000e+00 0.000000000000e+00 0.000000000000e+00 
1.000000000000e-02 0.000000000000e+00 1.400000000000e-01 1.000000000000e+05 1.000000000000e+05 0.000000000000e+00 9.251121356155e-01 7.488786438454e-02 0.000000000000e+00 0.000000000000e+00 0.000000000000e+00 0.000000000000e+00 
2.000000000000e-02 0.000000000000e+00 1.400000000000e-01 1.000000000000e+05 1.000000000000e+05 0.000000000000e+00 9.251121356155e-01 7.488786438454e-02 0.000000000000e+00 0.000000000000e+00 0.000000000000e+00 0.000000000000e+00 
3.000000000000e-02 0.000000000000e+00 1.400000000000e-01 1.000000000000e+05 1.000000000000e+05 0.000000000000e+00 9.251121356155e-01 7.488786438454e-02 0.000000000000e+00 0.000000000000e+00 0.000000000000e+00 0.000000000000e+00 
4.000000000000e-02 0.000000000000e+00 1.400000000000e-01 1.000000000000e+05 1.000000000000e+05 0.000000000000e+00 9.251121356155e-01 7.488786438454e-02 0.000000000000e+00 0.000000000000e+00 0.000000000000e+00 0.000000000000e+00 
5.000000000000e-02 0.000000000000e+00 1.400000000000e-01 1.000000000000e+05 1.000000000000e+05 0.000000000000e+00 9.251121356155e-01 7.488786438454e-02 0.000000000000e+00 0.000000000000e+00 0.000000000000e+00 0.000000000000e+00 
6.000000000000e-02 0.000000000000e+00 1.400000000000e-01 1.000000000000e+05 1.000000000000e+05 0.000000000000e+00 9.251121356155e-01 7.488786438454e-02 0.000000000000e+00 0.000000000000e+00 0.000000000000e+00 0.000000000000e+00 
7.000000000000e-02 0.000000000000e+00 1.400000000000e-01 1.000000000000e+05 1.000000000000e+05 0.000000000000e+00 9.251121356155e-01 7.488786438454e-02 0.000000000000e+00 0.000000000000e+00 0.000000000000e+00 0.000000000000e+00 
8.000000000000e-02 0.000000000000e+00 1.400000000000e-01 1.000000000000e+05 1.000000000000e+05 0.000000000000e+00 9.251121356155e-01 7.488786438454e-02 0.000000000000e+00 0.000000000000e+00 0.000000000000e+00 0.000000000000e+00 
9.000000000000e-02 0.000000000000e+00 1.400000000000e-01 1.000000000000e+05 1.000000000000e+05 0.000000000000e+00 9.251121356155e-01 7.488786438454e-02 0.000000000000e+00 0.000000000000e+00 0.000000000000e+00 0.000000000000e+00 
1.000000000000e-01 0.000000000000e+00 1.400000000000e-01 1.000000000000e+05 1.000000000000e+05 0.000000000000e+00 9.251121356155e-01 7.488786438454e-02 0.000000000000e+00 0.000000000000e+00 0.000000000000e+00 0.000000000000e+00 
0.000000000000e+00 0.000000000000e+00 1.300000000000e-01 1.000000000000e+05 1.000000000000e+05 0.000000000000e+00 9.251121356155e-01 7.488786438454e-02 0.000000000000e+00 0.000000000000e+00 0.000000000000e+00 0.000000000000e+00 
1.000000000000e-02 0.000000000000e+00 1.300000000000e-01 1.000000000000e+05 1.000000000000e+05 0.000000000000e+00 9.251121356155e-01 7.488786438454e-02 0.000000000000e+00 0.000000000000e+00 0.000000000000e+00 0.000000000000e+00 
2.000000000000e-02 0.000000000000e+00 1.300000000000e-01 1.000000000000e+05 1.000000000000e+05 0.000000000000e+00 9.251121356155e-01 7.488786438454e-02 0.000000000000e+00 0.000000000000e+00 0.000000000000e+00 0.000000000000e+00 
3.000000000000e-02 0.000000000000e+00 1.300000000000e-01 1.000000000000e+05 1.000000000000e+05 0.000000000000e+00 9.251121356155e-01 7.488786438454e-02 0.000000000000e+00 0.000000000000e+00 0.000000000000e+00 0.000000000000e+00 
4.000000000000e-02 0.000000000000e+00 1.300000000000e-01 1.000000000000e+05 1.000000000000e+05 0.000000000000e+00 9.251121356155e-01 7.488786438454e-02 0.000000000000e+00 0.000000000000e+00 0.000000000000e+00 0.000000000000e+00 
5.000000000000e-02 0.000000000000e+00 1.300000000000e-01 1.000000000000e+05 1.000000000000e+05 0.000000000000e+00 9.251121356155e-01 7.488786438454e-02 0.000000000000e+00 0.000000000000e+00 0.000000000000e+00 0.000000000000e+00 
6.000000000000e-02 0.000000000000e+00 1.300000000000e-01 1.000000000000e+05 1.000000000000e+05 0.000000000000e+00 9.251121356155e-01 7.488786438454e-02 0.000000000000e+00 0.000000000000e+00 0.000000000000e+00 0.000000000000e+00 
7.000000000000e-02 0.000000000000e+00 1.300000000000e-01 1.000000000000e+05 1.000000000000e+05 0.000000000000e+00 9.251121356155e-01 7.488786438454e-02 0.000000000000e+00 0.000000000000e+00 0.000000000000e+00 0.000000000000e+00 
8.000000000000e-02 0.000000000000e+00 1.300000000000e-01 1.000000000000e+05 1.000000000000e+05 0.000000000000e+00 9.251121356155e-01 7.488786438454e-02 0.000000000000e+00 0.000000000000e+00 0.000000000000e+00 0.000000000000e+00 
9.000000000000e-02 0.000000000000e+00 1.300000000000e-01 1.000000000000e+05 1.000000000000e+05 0.000000000000e+00 9.251121356155e-01 7.488786438454e-02 0.000000000000e+00 0.000000000000e+00 0.000000000000e+00 0.000000000000e+00 
1.000000000000e-01 0.000000000000e+00 1.300000000000e-01 1.000000000000e+05 1.000000000000e+05 0.000000000000e+00 9.251121356155e-01 7.488786438454e-02 0.000000000000e+00 0.000000000000e+00 0.000000000000e+00 0.000000000000e+00 
0.000000000000e+00 0.000000000000e+00 1.200000000000e-01 1.000000000000e+05 1.000000000000e+05 0.000000000000e+00 9.251121356155e-01 7.488786438454e-02 0.000000000000e+00 0.000000000000e+00 0.000000000000e+00 0.000000000000e+00 
1.000000000000e-02 0.000000000000e+00 1.200000000000e-01 1.000000000000e+05 1.000000000000e+05 0.000000000000e+00 9.251121356155e-01 7.488786438454e-02 0.000000000000e+00 0.000000000000e+00 0.000000000000e+00 0.000000000000e+00 
2.000000000000e-02 0.000000000000e+00 1.200000000000e-01 1.000000000000e+05 1.000000000000e+05 0.000000000000e+00 9.251121356155e-01 7.488786438454e-02 0.000000000000e+00 0.000000000000e+00 0.000000000000e+00 0.000000000000e+00 
3.000000000000e-02 0.000000000000e+00 1.200000000000e-01 1.000000000000e+05 1.000000000000e+05 0.000000000000e+00 9.251121356155e-01 7.488786438454e-02 0.000000000000e+00 0.000000000000e+00 0.000000000000e+00 0.000000000000e+00 
4.000000000000e-02 0.000000000000e+00 1.200000000000e-01 1.000000000000e+05 1.000000000000e+05 0.000000000000e+00 9.251121356155e-01 7.488786438454e-02 0.000000000000e+00 0.000000000000e+00 0.000000000000e+00 0.000000000000e+00 
5.000000000000e-02 0.000000000000e+00 1.200000000000e-01 1.000000000000e+05 1.000000000000e+05 0.000000000000e+00 9.251121356155e-01 7.488786438454e-02 0.000000000000e+00 0.000000000000e+00 0.000000000000e+00 0.000000000000e+00 
6.000000000000e-02 0.000000000000e+00 1.200000000000e-01 1.000000000000e+05 1.000000000000e+05 0.000000000000e+00 9.251121356155e-01 7.488786438454e-02 0.000000000000e+00 0.000000000000e+00 0.000000000000e+00 0.000000000000e+00 
7.000000000000e-02 0.000000000000e+00 1.200000000000e-01 1.000000000000e+05 1.000000000000e+05 0.000000000000e+00 9.251121356155e-01 7.488786438454e-02 0.000000000000e+00 0.000000000000e+00 0.000000000000e+00 0.000000000000e+00 
8.000000000000e-02 0.000000000000e+00 1.200000000000e-01 1.000000000000e+05 1.000000000000e+05 0.000000000000e+00 9.251121356155e-01 7.488786438454e-02 0.000000000000e+00 0.000000000000e+00 0.000000000000e+00 0.000000000000e+00 
9.000000000000e-02 0.000000000000e+00 1.200000000000e-01 1.000000000000e+05 1.000000000000e+05 0.000000000000e+00 9.251121356155e-01 7.488786438454e-02 0.000000000000e+00 0.000000000000e+00 0.000000000000e+00 0.000000000000e+00 
1.000000000000e-01 0.000000000000e+00 1.200000000000e-01 1.000000000000e+05 1.000000000000e+05 0.000000000000e+00 9.251121356155e-01 7.488786438454e-02 0.000000000000e+00 0.000000000000e+00 0.000000000000e+00 0.000000000000e+00 
0.000000000000e+00 0.000000000000e+00 1.100000000000e-01 1.000000000000e+05 1.000000000000e+05 0.000000000000e+00 9.251121356155e-01 7.488786438454e-02 0.000000000000e+00 0.000000000000e+00 0.000000000000e+00 0.000000000000e+00 
1.000000000000e-02 0.000000000000e+00 1.100000000000e-01 1.000000000000e+05 1.000000000000e+05 0.000000000000e+00 9.251121356155e-01 7.488786438454e-02 0.000000000000e+00 0.000000000000e+00 0.000000000000e+00 0.000000000000e+00 
2.000000000000e-02 0.000000000000e+00 1.100000000000e-01 1.000000000000e+05 1.000000000000e+05 0.000000000000e+00 9.251121356155e-01 7.488786438454e-02 0.000000000000e+00 0.000000000000e+00 0.000000000000e+00 0.000000000000e+00 
3.000000000000e-02 0.000000000000e+00 1.100000000000e-01 1.000000000000e+05 1.000000000000e+05 0.000000000000e+00 9.251121356155e-01 7.488786438454e-02 0.000000000000e+00 0.000000000000e+00 0.000000000000e+00 0.000000000000e+00 
4.000000000000e-02 0.000000000000e+00 1.100000000000e-01 1.000000000000e+05 1.000000000000e+05 0.000000000000e+00 9.251121356155e-01 7.488786438454e-02 0.000000000000e+00 0.000000000000e+00 0.000000000000e+00 0.000000000000e+00 
5.000000000000e-02 0.000000000000e+00 1.100000000000e-01 1.000000000000e+05 1.000000000000e+05 0.000000000000e+00 9.251121356155e-01 7.488786438454e-02 0.000000000000e+00 0.000000000000e+00 0.000000000000e+00 0.000000000000e+00 
6.000000000000e-02 0.000000000000e+00 1.100000000000e-01 1.000000000000e+05 1.000000000000e+05 0.000000000000e+00 9.251121356155e-01 7.488786438454e-02 0.000000000000e+00 0.000000000000e+00 0.000000000000e+00 0.000000000000e+00 
7.000000000000e-02 0.000000000000e+00 1.100000000000e-01 1.000000000000e+05 1.000000000000e+05 0.000000000000e+00 9.251121356155e-01 7.488786438454e-02 0.000000000000e+00 0.000000000000e+00 0.000000000000e+00 0.000000000000e+00 
8.000000000000e-02 0.000000000000e+00 1.100000000000e-01 1.000000000000e+05 1.000000000000e+05 0.000000000000e+00 9.251121356155e-01 7.488786438454e-02 0.000000000000e+00 0.000000000000e+00 0.000000000000e+00 0.000000000000e+00 
9.000000000000e-02 0.000000000000e+00 1.100000000000e-01 1.000000000000e+05 1.000000000000e+05 0.000000000000e+00 9.251121356155e-01 7.488786438454e-02 0.000000000000e+00 0.000000000000e+00 0.000000000000e+00 0.000000000000e+00 
1.000000000000e-01 0.000000000000e+00 1.100000000000e-01 1.000000000000e+05 1.000000000000e+05 0.000000000000e+00 9.251121356155e-01 7.488786438454e-02 0.000000000000e+00 0.000000000000e+00 0.000000000000e+00 0.000000000000e+00 
0.000000000000e+00 0.000000000000e+00 1.000000000000e-01 1.000000000000e+05 1.000000000000e+05 0.000000000000e+00 9.251121356155e-01 7.488786438454e-02 0.000000000000e+00 0.000000000000e+00 0.000000000000e+00 0.000000000000e+00 
1.000000000000e-02 0.000000000000e+00 1.000000000000e-01 1.000000000000e+05 1.000000000000e+05 0.000000000000e+00 9.251121356155e-01 7.488786438454e-02 0.000000000000e+00 0.000000000000e+00 0.000000000000e+00 0.000000000000e+00 
2.000000000000e-02 0.000000000000e+00 1.000000000000e-01 1.000000000000e+05 1.000000000000e+05 0.000000000000e+00 9.251121356155e-01 7.488786438454e-02 0.000000000000e+00 0.000000000000e+00 0.000000000000e+00 0.000000000000e+00 
3.000000000000e-02 0.000000000000e+00 1.000000000000e-01 1.000000000000e+05 1.000000000000e+05 0.000000000000e+00 9.251121356155e-01 7.488786438454e-02 0.000000000000e+00 0.000000000000e+00 0.000000000000e+00 0.000000000000e+00 
4.000000000000e-02 0.000000000000e+00 1.000000000000e-01 1.000000000000e+05 1.000000000000e+05 0.000000000000e+00 9.251121356155e-01 7.488786438454e-02 0.000000000000e+00 0.000000000000e+00 0.000000000000e+00 0.000000000000e+00 
5.000000000000e-02 0.000000000000e+00 1.000000000000e-01 1.000000000000e+05 1.000000000000e+05 0.000000000000e+00 9.251121356155e-01 7.488786438454e-02 0.000000000000e+00 0.000000000000e+00 0.000000000000e+00 0.000000000000e+00 
6.000000000000e-02 0.000000000000e+00 1.000000000000e-01 1.000000000000e+05 1.000000000000e+05 0.000000000000e+00 9.251121356155e-01 7.488786438454e-02 0.000000000000e+00 0.000000000000e+00 0.000000000000e+00 0.000000000000e+00 
7.000000000000e-02 0.000000000000e+00 1.000000000000e-01 1.000000000000e+05 1.000000000000e+05 0.000000000000e+00 9.251121356155e-01 7.488786438454e-02 0.000000000000e+00 0.000000000000e+00 0.000000000000e+00 0.000000000000e+00 
8.000000000000e-02 0.000000000000e+00 1.000000000000e-01 1.000000000000e+05 1.000000000000e+05 0.000000000000e+00 9.251121356155e-01 7.488786438454e-02 0.000000000000e+00 0.000000000000e+00 0.000000000000e+00 0.000000000000e+00 
9.000000000000e-02 0.000000000000e+00 1.000000000000e-01 1.000000000000e+05 1.000000000000e+05 0.000000000000e+00 9.251121356155e-01 7.488786438454e-02 0.000000000000e+00 0.000000000000e+00 0.000000000000e+00 0.000000000000e+00 
1.000000000000e-01 0.000000000000e+00 1.000000000000e-01 1.000000000000e+05 1.000000000000e+05 0.000000000000e+00 9.251121356155e-01 7.488786438454e-02 0.000000000000e+00 0.000000000000e+00 0.000000000000e+00 0.000000000000e+00 
0.000000000000e+00 0.000000000000e+00 9.000000000000e-02 1.000000000000e+05 1.000000000000e+05 0.000000000000e+00 9.251121356155e-01 7.488786438454e-02 0.000000000000e+00 0.000000000000e+00 0.000000000000e+00 0.000000000000e+00 
1.000000000000e-02 0.000000000000e+00 9.000000000000e-02 1.000000000000e+05 1.000000000000e+05 0.000000000000e+00 9.251121356155e-01 7.488786438454e-02 0.000000000000e+00 0.000000000000e+00 0.000000000000e+00 0.000000000000e+00 
2.000000000000e-02 0.000000000000e+00 9.000000000000e-02 1.000000000000e+05 1.000000000000e+05 0.000000000000e+00 9.251121356155e-01 7.488786438454e-02 0.000000000000e+00 0.000000000000e+00 0.000000000000e+00 0.000000000000e+00 
3.000000000000e-02 0.000000000000e+00 9.000000000000e-02 1.000000000000e+05 1.000000000000e+05 0.000000000000e+00 9.251121356155e-01 7.488786438454e-02 0.000000000000e+00 0.000000000000e+00 0.000000000000e+00 0.000000000000e+00 
4.000000000000e-02 0.000000000000e+00 9.000000000000e-02 1.000000000000e+05 1.000000000000e+05 0.000000000000e+00 9.251121356155e-01 7.488786438454e-02 0.000000000000e+00 0.000000000000e+00 0.000000000000e+00 0.000000000000e+00 
5.000000000000e-02 0.000000000000e+00 9.000000000000e-02 1.000000000000e+05 1.000000000000e+05 0.000000000000e+00 9.251121356155e-01 7.488786438454e-02 0.000000000000e+00 0.000000000000e+00 0.000000000000e+00 0.000000000000e+00 
6.000000000000e-02 0.000000000000e+00 9.000000000000e-02 1.000000000000e+05 1.000000000000e+05 0.000000000000e+00 9.251121356155e-01 7.488786438454e-02 0.000000000000e+00 0.000000000000e+00 0.000000000000e+00 0.000000000000e+00 
7.000000000000e-02 0.000000000000e+00 9.000000000000e-02 1.000000000000e+05 1.000000000000e+05 0.000000000000e+00 9.251121356155e-01 7.488786438454e-02 0.000000000000e+00 0.000000000000e+00 0.000000000000e+00 0.000000000000e+00 
8.000000000000e-02 0.000000000000e+00 9.000000000000e-02 1.000000000000e+05 1.000000000000e+05 0.000000000000e+00 9.251121356155e-01 7.488786438454e-02 0.000000000000e+00 0.000000000000e+00 0.000000000000e+00 0.000000000000e+00 
9.000000000000e-02 0.000000000000e+00 9.000000000000e-02 1.000000000000e+05 1.000000000000e+05 0.000000000000e+00 9.251121356155e-01 7.488786438454e-02 0.000000000000e+00 0.000000000000e+00 0.000000000000e+00 0.000000000000e+00 
1.000000000000e-01 0.000000000000e+00 9.000000000000e-02 1.000000000000e+05 1.000000000000e+05 0.000000000000e+00 9.251121356155e-01 7.488786438454e-02 0.000000000000e+00 0.000000000000e+00 0.000000000000e+00 0.000000000000e+00 
0.000000000000e+00 0.000000000000e+00 8.000000000000e-02 1.000000000000e+05 1.000000000000e+05 0.000000000000e+00 9.251121356155e-01 7.488786438454e-02 0.000000000000e+00 0.000000000000e+00 0.000000000000e+00 0.000000000000e+00 
1.000000000000e-02 0.000000000000e+00 8.000000000000e-02 1.000000000000e+05 1.000000000000e+05 0.000000000000e+00 9.251121356155e-01 7.488786438454e-02 0.000000000000e+00 0.000000000000e+00 0.000000000000e+00 0.000000000000e+00 
2.000000000000e-02 0.000000000000e+00 8.000000000000e-02 1.000000000000e+05 1.000000000000e+05 0.000000000000e+00 9.251121356155e-01 7.488786438454e-02 0.000000000000e+00 0.000000000000e+00 0.000000000000e+00 0.000000000000e+00 
3.000000000000e-02 0.000000000000e+00 8.000000000000e-02 1.000000000000e+05 1.000000000000e+05 0.000000000000e+00 9.251121356155e-01 7.488786438454e-02 0.000000000000e+00 0.000000000000e+00 0.000000000000e+00 0.000000000000e+00 
4.000000000000e-02 0.000000000000e+00 8.000000000000e-02 1.000000000000e+05 1.000000000000e+05 0.000000000000e+00 9.251121356155e-01 7.488786438454e-02 0.000000000000e+00 0.000000000000e+00 0.000000000000e+00 0.000000000000e+00 
5.000000000000e-02 0.000000000000e+00 8.000000000000e-02 1.000000000000e+05 1.000000000000e+05 0.000000000000e+00 9.251121356155e-01 7.488786438454e-02 0.000000000000e+00 0.000000000000e+00 0.000000000000e+00 0.000000000000e+00 
6.000000000000e-02 0.000000000000e+00 8.000000000000e-02 1.000000000000e+05 1.000000000000e+05 0.000000000000e+00 9.251121356155e-01 7.488786438454e-02 0.000000000000e+00 0.000000000000e+00 0.000000000000e+00 0.000000000000e+00 
8.000000000000e-02 0.000000000000e+00 1.700000000000e-01 1.000000000000e+05 1.000000000000e+05 0.000000000000e+00 9.251121356155e-01 7.488786438454e-02 0.000000000000e+00 0.000000000000e+00 0.000000000000e+00 0.000000000000e+00 
9.000000000000e-02 0.000000000000e+00 1.800000000000e-01 1.000000000000e+05 1.000000000000e+05 0.000000000000e+00 9.251121356155e-01 7.488786438454e-02 0.000000000000e+00 0.000000000000e+00 0.000000000000e+00 0.000000000000e+00 
8.000000000000e-02 0.000000000000e+00 1.800000000000e-01 1.000000000000e+05 1.000000000000e+05 0.000000000000e+00 9.251121356155e-01 7.488786438454e-02 0.000000000000e+00 0.000000000000e+00 0.000000000000e+00 0.000000000000e+00 
1.000000000000e-01 0.000000000000e+00 1.800000000000e-01 1.000000000000e+05 1.000000000000e+05 0.000000000000e+00 9.251121356155e-01 7.488786438454e-02 0.000000000000e+00 0.000000000000e+00 0.000000000000e+00 0.000000000000e+00 
1.000000000000e-02 0.000000000000e+00 1.700000000000e-01 1.000000000000e+05 1.000000000000e+05 0.000000000000e+00 9.251121356155e-01 7.488786438454e-02 0.000000000000e+00 0.000000000000e+00 0.000000000000e+00 0.000000000000e+00 
0.000000000000e+00 0.000000000000e+00 1.700000000000e-01 1.000000000000e+05 1.000000000000e+05 0.000000000000e+00 9.251121356155e-01 7.488786438454e-02 0.000000000000e+00 0.000000000000e+00 0.000000000000e+00 0.000000000000e+00 
2.000000000000e-02 0.000000000000e+00 1.700000000000e-01 1.000000000000e+05 1.000000000000e+05 0.000000000000e+00 9.251121356155e-01 7.488786438454e-02 0.000000000000e+00 0.000000000000e+00 0.000000000000e+00 0.000000000000e+00 
3.000000000000e-02 0.000000000000e+00 1.700000000000e-01 1.000000000000e+05 1.000000000000e+05 0.000000000000e+00 9.251121356155e-01 7.488786438454e-02 0.000000000000e+00 0.000000000000e+00 0.000000000000e+00 0.000000000000e+00 
4.000000000000e-02 0.000000000000e+00 1.700000000000e-01 1.000000000000e+05 1.000000000000e+05 0.000000000000e+00 9.251121356155e-01 7.488786438454e-02 0.000000000000e+00 0.000000000000e+00 0.000000000000e+00 0.000000000000e+00 
5.000000000000e-02 0.000000000000e+00 1.700000000000e-01 1.000000000000e+05 1.000000000000e+05 0.000000000000e+00 9.251121356155e-01 7.488786438454e-02 0.000000000000e+00 0.000000000000e+00 0.000000000000e+00 0.000000000000e+00 
6.000000000000e-02 0.000000000000e+00 1.700000000000e-01 1.000000000000e+05 1.000000000000e+05 0.000000000000e+00 9.251121356155e-01 7.488786438454e-02 0.000000000000e+00 0.000000000000e+00 0.000000000000e+00 0.000000000000e+00 
7.000000000000e-02 0.000000000000e+00 1.700000000000e-01 1.000000000000e+05 1.000000000000e+05 0.000000000000e+00 9.251121356155e-01 7.488786438454e-02 0.000000000000e+00 0.000000000000e+00 0.000000000000e+00 0.000000000000e+00 
7.000000000000e-02 0.000000000000e+00 8.000000000000e-02 1.000000000000e+05 1.000000000000e+05 0.000000000000e+00 9.251121356155e-01 7.488786438454e-02 0.000000000000e+00 0.000000000000e+00 0.000000000000e+00 0.000000000000e+00 
8.000000000000e-02 0.000000000000e+00 8.000000000000e-02 1.000000000000e+05 1.000000000000e+05 0.000000000000e+00 9.251121356155e-01 7.488786438454e-02 0.000000000000e+00 0.000000000000e+00 0.000000000000e+00 0.000000000000e+00 
9.000000000000e-02 0.000000000000e+00 8.000000000000e-02 1.000000000000e+05 1.000000000000e+05 0.000000000000e+00 9.251121356155e-01 7.488786438454e-02 0.000000000000e+00 0.000000000000e+00 0.000000000000e+00 0.000000000000e+00 
1.000000000000e-01 0.000000000000e+00 8.000000000000e-02 1.000000000000e+05 1.000000000000e+05 0.000000000000e+00 9.251121356155e-01 7.488786438454e-02 0.000000000000e+00 0.000000000000e+00 0.000000000000e+00 0.000000000000e+00 
0.000000000000e+00 0.000000000000e+00 7.000000000000e-02 1.000000000000e+05 1.000000000000e+05 0.000000000000e+00 9.251121356155e-01 7.488786438454e-02 0.000000000000e+00 0.000000000000e+00 0.000000000000e+00 0.000000000000e+00 
1.000000000000e-02 0.000000000000e+00 7.000000000000e-02 1.000000000000e+05 1.000000000000e+05 0.000000000000e+00 9.251121356155e-01 7.488786438454e-02 0.000000000000e+00 0.000000000000e+00 0.000000000000e+00 0.000000000000e+00 
2.000000000000e-02 0.000000000000e+00 7.000000000000e-02 1.000000000000e+05 1.000000000000e+05 0.000000000000e+00 9.251121356155e-01 7.488786438454e-02 0.000000000000e+00 0.000000000000e+00 0.000000000000e+00 0.000000000000e+00 
3.000000000000e-02 0.000000000000e+00 7.000000000000e-02 1.000000000000e+05 1.000000000000e+05 0.000000000000e+00 9.251121356155e-01 7.488786438454e-02 0.000000000000e+00 0.000000000000e+00 0.000000000000e+00 0.000000000000e+00 
4.000000000000e-02 0.000000000000e+00 7.000000000000e-02 1.000000000000e+05 1.000000000000e+05 0.000000000000e+00 9.251121356155e-01 7.488786438454e-02 0.000000000000e+00 0.000000000000e+00 0.000000000000e+00 0.000000000000e+00 
5.000000000000e-02 0.000000000000e+00 7.000000000000e-02 1.000000000000e+05 1.000000000000e+05 0.000000000000e+00 9.251121356155e-01 7.488786438454e-02 0.000000000000e+00 0.000000000000e+00 0.000000000000e+00 0.000000000000e+00 
6.000000000000e-02 0.000000000000e+00 7.000000000000e-02 1.000000000000e+05 1.000000000000e+05 0.000000000000e+00 9.251121356155e-01 7.488786438454e-02 0.000000000000e+00 0.000000000000e+00 0.000000000000e+00 0.000000000000e+00 
7.000000000000e-02 0.000000000000e+00 7.000000000000e-02 1.000000000000e+05 1.000000000000e+05 0.000000000000e+00 9.251121356155e-01 7.488786438454e-02 0.000000000000e+00 0.000000000000e+00 0.000000000000e+00 0.000000000000e+00 
12  13  2  1  
14  15  4  3  
15  16  5  4  
16  17  6  5  
17  18  7  6  
18  19  8  7  
19  20  9  8  
20  21  10  9  
21  22  11  10  
22  23  12  11  
23  24  13  12  
25  26  15  14  
26  27  16  15  
27  28  17  16  
28  29  18  17  
29  30  19  18  
30  31  20  19  
31  32  21  20  
32  33  22  21  
33  34  23  22  
34  35  24  23  
36  37  26  25  
37  38  27  26  
38  39  28  27  
39  40  29  28  
40  41  30  29  
41  42  31  30  
42  43  32  31  
43  44  33  32  
44  45  34  33  
45  46  35  34  
47  48  37  36  
48  49  38  37  
49  50  39  38  
50  51  40  39  
51  52  41  40  
52  53  42  41  
53  54  43  42  
54  55  44  43  
55  56  45  44  
56  57  46  45  
58  59  48  47  
59  60  49  48  
60  61  50  49  
61  62  51  50  
62  63  52  51  
63  64  53  52  
64  65  54  53  
65  66  55  54  
66  67  56  55  
67  68  57  56  
69  70  59  58  
70  71  60  59  
71  72  61  60  
72  73  62  61  
73  74  63  62  
74  75  64  63  
75  76  65  64  
76  77  66  65  
77  78  67  66  
78  79  68  67  
80  81  70  69  
81  82  71  70  
82  83  72  71  
83  84  73  72  
84  85  74  73  
85  86  75  74  
86  87  76  75  
87  88  77  76  
88  89  78  77  
89  90  79  78  
91  92  81  80  
92  93  82  81  
93  94  83  82  
94  95  84  83  
95  96  85  84  
96  97  86  85  
98  1  99  100  
1  2  101  99  
11  12  1  98  
3  4  102  103  
4  5  104  102  
5  6  105  104  
6  7  106  105  
7  8  107  106  
8  9  108  107  
9  10  109  108  
10  11  98  109  
97  110  87  86  
110  111  88  87  
111  112  89  88  
112  113  90  89  
114  115  92  91  
115  116  93  92  
116  117  94  93  
117  118  95  94  
118  119  96  95  
119  120  97  96  
120  121  110  97  
VARIABLES  = "X","Y","Z", "PRESSURE1", "PRESSURE2", "PRESSURE_W", "SATURATION1", SATURATION2, "VELOCITY_X1", "VELOCITY_Y1", "VELOCITY_X2", "VELOCITY_Y2"
ZONE T="1.000000000000e-02s", N=121, E=99, F=FEPOINT, ET=QUADRILATERAL
STRANDID=1, SOLUTIONTIME=1.000000000000e-02