 TITLE = "Time curves in points"
 VARIABLES = "TIME "  "PRESSURE1"  "PRESSURE2"  "PRESSURE_W"  "SATURATION1" SATURATION2  "VELOCITY_X1"  "VELOCITY_Y1"  "VELOCITY_X2"  "VELOCITY_Y2"  p_(1st_Invariant)  q_(2nd_Invariant)   Effective_Strain
 ZONE T="POINT=POINT6"
0.000000000000e+00 1.000000000000e+05 1.000000000000e+05 0.000000000000e+00 9.251121356155e-01 7.488786438454e-02 0.000000000000e+00 0.000000000000e+00 0.000000000000e+00 0.000000000000e+00 -0.000000000000e+00 0.000000000000e+00  0.000000000000e+00
1.000000000000e-02 1.000000326488e+05 9.999999877622e+04 -3.387259817100e-02 9.251120654205e-01 7.488793457947e-02 -4.144491478272e-10 -9.238427406757e-07 -4.005983373619e-13 -2.480307474487e-11 5.572804089232e+03 3.095284812505e+03  1.444466248903e-04
7.000000000000e-02 1.000000070566e+05 1.000000018617e+05 -5.194916084292e-03 9.251121204437e-01 7.488787955633e-02 -2.685629703348e-10 -9.238239026287e-07 1.403792532291e-13 -2.610999754543e-11 1.933457001585e+04 5.469935854375e+03  2.552636802865e-04
4.200845218825e-01 9.999996938388e+04 9.999999418159e+04 2.479771082290e-02 9.251122014401e-01 7.488779855991e-02 -1.021597904913e-10 -9.234930427935e-07 -1.063206862946e-12 -2.456695757636e-11 6.189877425901e+04 2.717431703234e+04  1.268134796373e-03
1.420084521883e+00 9.999888719802e+04 9.999999961317e+04 1.112415150274e+00 9.251145281388e-01 7.488547186124e-02 -1.204332712534e-09 -9.154096854979e-07 -2.362222297300e-13 -2.563483312612e-11 1.666175641713e+05 1.210846125504e+05  5.650615392417e-03
2.420084521883e+00 9.999620786145e+04 1.000000049174e+05 3.797055937030e+00 9.251202887101e-01 7.487971128992e-02 -3.489188910252e-09 -9.003534330769e-07 5.736961457669e-13 -2.667389565525e-11 3.106117334667e+05 1.869490903250e+05  8.724291481834e-03
3.420084521883e+00 9.999180419409e+04 1.000000101112e+05 8.205917149418e+00 9.251297565911e-01 7.487024340887e-02 -6.523620530134e-09 -8.805027100507e-07 1.366993789431e-12 -2.768738168445e-11 5.331614999325e+05 2.029453120525e+05  9.470783117299e-03
4.420084521883e+00 9.998581257871e+04 1.000000152058e+05 1.420262712697e+01 9.251426385590e-01 7.485736144096e-02 -9.854034960324e-09 -8.580519790164e-07 2.143683319121e-12 -2.867970387998e-11 9.128260478382e+05 1.977203117968e+05  9.226956450399e-03
5.420084521883e+00 9.997847375212e+04 1.000000202092e+05 2.154645709076e+01 9.251584170299e-01 7.484158297010e-02 -1.314620073500e-08 -8.346195633743e-07 2.903738643498e-12 -2.965419200375e-11 1.606721747154e+06 5.082734642457e+05  2.371944089795e-02
6.420084521883e+00 9.997004259794e+04 1.000000251272e+05 2.998252929399e+01 9.251765440041e-01 7.482345599585e-02 -1.620089059782e-08 -8.112383400303e-07 3.647197689138e-12 -3.061328349104e-11 2.929082092631e+06 1.447494600111e+06  6.754976607034e-02
7.420084521883e+00 9.996074904935e+04 1.000000299645e+05 3.928091518661e+01 9.251965251256e-01 7.480347487437e-02 -1.892115137775e-08 -7.885049860604e-07 4.374219499977e-12 -3.155877906881e-11 5.508372153811e+06 3.495476132655e+06  1.631222504675e-01
8.420084521883e+00 9.995078654093e+04 1.000000347251e+05 4.924818413732e+01 9.252179445102e-01 7.478205548980e-02 -2.127517369755e-08 -7.667287593550e-07 5.085093335840e-12 -3.249204249774e-11 1.060152334247e+07 7.728179913734e+06  3.606484527060e-01
9.420084521883e+00 9.994031266742e+04 1.000000394124e+05 5.972674495127e+01 9.252404633292e-01 7.475953667076e-02 -2.326827805841e-08 -7.460414550718e-07 5.780220325497e-12 -3.341413817654e-11 2.072239809399e+07 1.632056385273e+07  7.616264220011e-01
