VARIABLES  = "X","Y","Z", "PRESSURE1", "PRESSURE2", "PRESSURE_W", "SATURATION1", SATURATION2, "VELOCITY_X1", "VELOCITY_Y1", "VELOCITY_X2", "VELOCITY_Y2"
ZONE T="0.000000000000e+00s", N=104, E=84, F=FEPOINT, ET=QUADRILATERAL
STRANDID=1, SOLUTIONTIME=0.000000000000e+00
7.000000000000e-02 0.000000000000e+00 8.000000000000e-02 1.000000000000e+05 1.000000000000e+05 0.000000000000e+00 9.251121356155e-01 7.488786438454e-02 0.000000000000e+00 0.000000000000e+00 0.000000000000e+00 0.000000000000e+00 
8.000000000000e-02 0.000000000000e+00 8.000000000000e-02 1.000000000000e+05 1.000000000000e+05 0.000000000000e+00 9.251121356155e-01 7.488786438454e-02 0.000000000000e+00 0.000000000000e+00 0.000000000000e+00 0.000000000000e+00 
9.000000000000e-02 0.000000000000e+00 8.000000000000e-02 1.000000000000e+05 1.000000000000e+05 0.000000000000e+00 9.251121356155e-01 7.488786438454e-02 0.000000000000e+00 0.000000000000e+00 0.000000000000e+00 0.000000000000e+00 
1.000000000000e-01 0.000000000000e+00 8.000000000000e-02 1.000000000000e+05 1.000000000000e+05 0.000000000000e+00 9.251121356155e-01 7.488786438454e-02 0.000000000000e+00 0.000000000000e+00 0.000000000000e+00 0.000000000000e+00 
0.000000000000e+00 0.000000000000e+00 7.000000000000e-02 1.000000000000e+05 1.000000000000e+05 0.000000000000e+00 9.251121356155e-01 7.488786438454e-02 0.000000000000e+00 0.000000000000e+00 0.000000000000e+00 0.000000000000e+00 
1.000000000000e-02 0.000000000000e+00 7.000000000000e-02 1.000000000000e+05 1.000000000000e+05 0.000000000000e+00 9.251121356155e-01 7.488786438454e-02 0.000000000000e+00 0.000000000000e+00 0.000000000000e+00 0.000000000000e+00 
2.000000000000e-02 0.000000000000e+00 7.000000000000e-02 1.000000000000e+05 1.000000000000e+05 0.000000000000e+00 9.251121356155e-01 7.488786438454e-02 0.000000000000e+00 0.000000000000e+00 0.000000000000e+00 0.000000000000e+00 
3.000000000000e-02 0.000000000000e+00 7.000000000000e-02 1.000000000000e+05 1.000000000000e+05 0.000000000000e+00 9.251121356155e-01 7.488786438454e-02 0.000000000000e+00 0.000000000000e+00 0.000000000000e+00 0.000000000000e+00 
4.000000000000e-02 0.000000000000e+00 7.000000000000e-02 1.000000000000e+05 1.000000000000e+05 0.000000000000e+00 9.251121356155e-01 7.488786438454e-02 0.000000000000e+00 0.000000000000e+00 0.000000000000e+00 0.000000000000e+00 
5.000000000000e-02 0.000000000000e+00 7.000000000000e-02 1.000000000000e+05 1.000000000000e+05 0.000000000000e+00 9.251121356155e-01 7.488786438454e-02 0.000000000000e+00 0.000000000000e+00 0.000000000000e+00 0.000000000000e+00 
6.000000000000e-02 0.000000000000e+00 7.000000000000e-02 1.000000000000e+05 1.000000000000e+05 0.000000000000e+00 9.251121356155e-01 7.488786438454e-02 0.000000000000e+00 0.000000000000e+00 0.000000000000e+00 0.000000000000e+00 
7.000000000000e-02 0.000000000000e+00 7.000000000000e-02 1.000000000000e+05 1.000000000000e+05 0.000000000000e+00 9.251121356155e-01 7.488786438454e-02 0.000000000000e+00 0.000000000000e+00 0.000000000000e+00 0.000000000000e+00 
8.000000000000e-02 0.000000000000e+00 7.000000000000e-02 1.000000000000e+05 1.000000000000e+05 0.000000000000e+00 9.251121356155e-01 7.488786438454e-02 0.000000000000e+00 0.000000000000e+00 0.000000000000e+00 0.000000000000e+00 
9.000000000000e-02 0.000000000000e+00 7.000000000000e-02 1.000000000000e+05 1.000000000000e+05 0.000000000000e+00 9.251121356155e-01 7.488786438454e-02 0.000000000000e+00 0.000000000000e+00 0.000000000000e+00 0.000000000000e+00 
1.000000000000e-01 0.000000000000e+00 7.000000000000e-02 1.000000000000e+05 1.000000000000e+05 0.000000000000e+00 9.251121356155e-01 7.488786438454e-02 0.000000000000e+00 0.000000000000e+00 0.000000000000e+00 0.000000000000e+00 
0.000000000000e+00 0.000000000000e+00 6.000000000000e-02 1.000000000000e+05 1.000000000000e+05 0.000000000000e+00 9.251121356155e-01 7.488786438454e-02 0.000000000000e+00 0.000000000000e+00 0.000000000000e+00 0.000000000000e+00 
1.000000000000e-02 0.000000000000e+00 6.000000000000e-02 1.000000000000e+05 1.000000000000e+05 0.000000000000e+00 9.251121356155e-01 7.488786438454e-02 0.000000000000e+00 0.000000000000e+00 0.000000000000e+00 0.000000000000e+00 
2.000000000000e-02 0.000000000000e+00 6.000000000000e-02 1.000000000000e+05 1.000000000000e+05 0.000000000000e+00 9.251121356155e-01 7.488786438454e-02 0.000000000000e+00 0.000000000000e+00 0.000000000000e+00 0.000000000000e+00 
3.000000000000e-02 0.000000000000e+00 6.000000000000e-02 1.000000000000e+05 1.000000000000e+05 0.000000000000e+00 9.251121356155e-01 7.488786438454e-02 0.000000000000e+00 0.000000000000e+00 0.000000000000e+00 0.000000000000e+00 
4.000000000000e-02 0.000000000000e+00 6.000000000000e-02 1.000000000000e+05 1.000000000000e+05 0.000000000000e+00 9.251121356155e-01 7.488786438454e-02 0.000000000000e+00 0.000000000000e+00 0.000000000000e+00 0.000000000000e+00 
5.000000000000e-02 0.000000000000e+00 6.000000000000e-02 1.000000000000e+05 1.000000000000e+05 0.000000000000e+00 9.251121356155e-01 7.488786438454e-02 0.000000000000e+00 0.000000000000e+00 0.000000000000e+00 0.000000000000e+00 
6.000000000000e-02 0.000000000000e+00 6.000000000000e-02 1.000000000000e+05 1.000000000000e+05 0.000000000000e+00 9.251121356155e-01 7.488786438454e-02 0.000000000000e+00 0.000000000000e+00 0.000000000000e+00 0.000000000000e+00 
7.000000000000e-02 0.000000000000e+00 6.000000000000e-02 1.000000000000e+05 1.000000000000e+05 0.000000000000e+00 9.251121356155e-01 7.488786438454e-02 0.000000000000e+00 0.000000000000e+00 0.000000000000e+00 0.000000000000e+00 
8.000000000000e-02 0.000000000000e+00 6.000000000000e-02 1.000000000000e+05 1.000000000000e+05 0.000000000000e+00 9.251121356155e-01 7.488786438454e-02 0.000000000000e+00 0.000000000000e+00 0.000000000000e+00 0.000000000000e+00 
9.000000000000e-02 0.000000000000e+00 6.000000000000e-02 1.000000000000e+05 1.000000000000e+05 0.000000000000e+00 9.251121356155e-01 7.488786438454e-02 0.000000000000e+00 0.000000000000e+00 0.000000000000e+00 0.000000000000e+00 
1.000000000000e-01 0.000000000000e+00 6.000000000000e-02 1.000000000000e+05 1.000000000000e+05 0.000000000000e+00 9.251121356155e-01 7.488786438454e-02 0.000000000000e+00 0.000000000000e+00 0.000000000000e+00 0.000000000000e+00 
0.000000000000e+00 0.000000000000e+00 5.000000000000e-02 1.000000000000e+05 1.000000000000e+05 0.000000000000e+00 9.251121356155e-01 7.488786438454e-02 0.000000000000e+00 0.000000000000e+00 0.000000000000e+00 0.000000000000e+00 
1.000000000000e-02 0.000000000000e+00 5.000000000000e-02 1.000000000000e+05 1.000000000000e+05 0.000000000000e+00 9.251121356155e-01 7.488786438454e-02 0.000000000000e+00 0.000000000000e+00 0.000000000000e+00 0.000000000000e+00 
2.000000000000e-02 0.000000000000e+00 5.000000000000e-02 1.000000000000e+05 1.000000000000e+05 0.000000000000e+00 9.251121356155e-01 7.488786438454e-02 0.000000000000e+00 0.000000000000e+00 0.000000000000e+00 0.000000000000e+00 
3.000000000000e-02 0.000000000000e+00 5.000000000000e-02 1.000000000000e+05 1.000000000000e+05 0.000000000000e+00 9.251121356155e-01 7.488786438454e-02 0.000000000000e+00 0.000000000000e+00 0.000000000000e+00 0.000000000000e+00 
4.000000000000e-02 0.000000000000e+00 5.000000000000e-02 1.000000000000e+05 1.000000000000e+05 0.000000000000e+00 9.251121356155e-01 7.488786438454e-02 0.000000000000e+00 0.000000000000e+00 0.000000000000e+00 0.000000000000e+00 
5.000000000000e-02 0.000000000000e+00 5.000000000000e-02 1.000000000000e+05 1.000000000000e+05 0.000000000000e+00 9.251121356155e-01 7.488786438454e-02 0.000000000000e+00 0.000000000000e+00 0.000000000000e+00 0.000000000000e+00 
6.000000000000e-02 0.000000000000e+00 5.000000000000e-02 1.000000000000e+05 1.000000000000e+05 0.000000000000e+00 9.251121356155e-01 7.488786438454e-02 0.000000000000e+00 0.000000000000e+00 0.000000000000e+00 0.000000000000e+00 
7.000000000000e-02 0.000000000000e+00 5.000000000000e-02 1.000000000000e+05 1.000000000000e+05 0.000000000000e+00 9.251121356155e-01 7.488786438454e-02 0.000000000000e+00 0.000000000000e+00 0.000000000000e+00 0.000000000000e+00 
8.000000000000e-02 0.000000000000e+00 5.000000000000e-02 1.000000000000e+05 1.000000000000e+05 0.000000000000e+00 9.251121356155e-01 7.488786438454e-02 0.000000000000e+00 0.000000000000e+00 0.000000000000e+00 0.000000000000e+00 
9.000000000000e-02 0.000000000000e+00 5.000000000000e-02 1.000000000000e+05 1.000000000000e+05 0.000000000000e+00 9.251121356155e-01 7.488786438454e-02 0.000000000000e+00 0.000000000000e+00 0.000000000000e+00 0.000000000000e+00 
1.000000000000e-01 0.000000000000e+00 5.000000000000e-02 1.000000000000e+05 1.000000000000e+05 0.000000000000e+00 9.251121356155e-01 7.488786438454e-02 0.000000000000e+00 0.000000000000e+00 0.000000000000e+00 0.000000000000e+00 
0.000000000000e+00 0.000000000000e+00 4.000000000000e-02 1.000000000000e+05 1.000000000000e+05 0.000000000000e+00 9.251121356155e-01 7.488786438454e-02 0.000000000000e+00 0.000000000000e+00 0.000000000000e+00 0.000000000000e+00 
1.000000000000e-02 0.000000000000e+00 4.000000000000e-02 1.000000000000e+05 1.000000000000e+05 0.000000000000e+00 9.251121356155e-01 7.488786438454e-02 0.000000000000e+00 0.000000000000e+00 0.000000000000e+00 0.000000000000e+00 
2.000000000000e-02 0.000000000000e+00 4.000000000000e-02 1.000000000000e+05 1.000000000000e+05 0.000000000000e+00 9.251121356155e-01 7.488786438454e-02 0.000000000000e+00 0.000000000000e+00 0.000000000000e+00 0.000000000000e+00 
3.000000000000e-02 0.000000000000e+00 4.000000000000e-02 1.000000000000e+05 1.000000000000e+05 0.000000000000e+00 9.251121356155e-01 7.488786438454e-02 0.000000000000e+00 0.000000000000e+00 0.000000000000e+00 0.000000000000e+00 
4.000000000000e-02 0.000000000000e+00 4.000000000000e-02 1.000000000000e+05 1.000000000000e+05 0.000000000000e+00 9.251121356155e-01 7.488786438454e-02 0.000000000000e+00 0.000000000000e+00 0.000000000000e+00 0.000000000000e+00 
5.000000000000e-02 0.000000000000e+00 4.000000000000e-02 1.000000000000e+05 1.000000000000e+05 0.000000000000e+00 9.251121356155e-01 7.488786438454e-02 0.000000000000e+00 0.000000000000e+00 0.000000000000e+00 0.000000000000e+00 
6.000000000000e-02 0.000000000000e+00 4.000000000000e-02 1.000000000000e+05 1.000000000000e+05 0.000000000000e+00 9.251121356155e-01 7.488786438454e-02 0.000000000000e+00 0.000000000000e+00 0.000000000000e+00 0.000000000000e+00 
7.000000000000e-02 0.000000000000e+00 4.000000000000e-02 1.000000000000e+05 1.000000000000e+05 0.000000000000e+00 9.251121356155e-01 7.488786438454e-02 0.000000000000e+00 0.000000000000e+00 0.000000000000e+00 0.000000000000e+00 
8.000000000000e-02 0.000000000000e+00 4.000000000000e-02 1.000000000000e+05 1.000000000000e+05 0.000000000000e+00 9.251121356155e-01 7.488786438454e-02 0.000000000000e+00 0.000000000000e+00 0.000000000000e+00 0.000000000000e+00 
9.000000000000e-02 0.000000000000e+00 4.000000000000e-02 1.000000000000e+05 1.000000000000e+05 0.000000000000e+00 9.251121356155e-01 7.488786438454e-02 0.000000000000e+00 0.000000000000e+00 0.000000000000e+00 0.000000000000e+00 
1.000000000000e-01 0.000000000000e+00 4.000000000000e-02 1.000000000000e+05 1.000000000000e+05 0.000000000000e+00 9.251121356155e-01 7.488786438454e-02 0.000000000000e+00 0.000000000000e+00 0.000000000000e+00 0.000000000000e+00 
0.000000000000e+00 0.000000000000e+00 3.000000000000e-02 1.000000000000e+05 1.000000000000e+05 0.000000000000e+00 9.251121356155e-01 7.488786438454e-02 0.000000000000e+00 0.000000000000e+00 0.000000000000e+00 0.000000000000e+00 
1.000000000000e-02 0.000000000000e+00 3.000000000000e-02 1.000000000000e+05 1.000000000000e+05 0.000000000000e+00 9.251121356155e-01 7.488786438454e-02 0.000000000000e+00 0.000000000000e+00 0.000000000000e+00 0.000000000000e+00 
2.000000000000e-02 0.000000000000e+00 3.000000000000e-02 1.000000000000e+05 1.000000000000e+05 0.000000000000e+00 9.251121356155e-01 7.488786438454e-02 0.000000000000e+00 0.000000000000e+00 0.000000000000e+00 0.000000000000e+00 
3.000000000000e-02 0.000000000000e+00 3.000000000000e-02 1.000000000000e+05 1.000000000000e+05 0.000000000000e+00 9.251121356155e-01 7.488786438454e-02 0.000000000000e+00 0.000000000000e+00 0.000000000000e+00 0.000000000000e+00 
4.000000000000e-02 0.000000000000e+00 3.000000000000e-02 1.000000000000e+05 1.000000000000e+05 0.000000000000e+00 9.251121356155e-01 7.488786438454e-02 0.000000000000e+00 0.000000000000e+00 0.000000000000e+00 0.000000000000e+00 
5.000000000000e-02 0.000000000000e+00 3.000000000000e-02 1.000000000000e+05 1.000000000000e+05 0.000000000000e+00 9.251121356155e-01 7.488786438454e-02 0.000000000000e+00 0.000000000000e+00 0.000000000000e+00 0.000000000000e+00 
6.000000000000e-02 0.000000000000e+00 3.000000000000e-02 1.000000000000e+05 1.000000000000e+05 0.000000000000e+00 9.251121356155e-01 7.488786438454e-02 0.000000000000e+00 0.000000000000e+00 0.000000000000e+00 0.000000000000e+00 
7.000000000000e-02 0.000000000000e+00 3.000000000000e-02 1.000000000000e+05 1.000000000000e+05 0.000000000000e+00 9.251121356155e-01 7.488786438454e-02 0.000000000000e+00 0.000000000000e+00 0.000000000000e+00 0.000000000000e+00 
8.000000000000e-02 0.000000000000e+00 3.000000000000e-02 1.000000000000e+05 1.000000000000e+05 0.000000000000e+00 9.251121356155e-01 7.488786438454e-02 0.000000000000e+00 0.000000000000e+00 0.000000000000e+00 0.000000000000e+00 
9.000000000000e-02 0.000000000000e+00 3.000000000000e-02 1.000000000000e+05 1.000000000000e+05 0.000000000000e+00 9.251121356155e-01 7.488786438454e-02 0.000000000000e+00 0.000000000000e+00 0.000000000000e+00 0.000000000000e+00 
1.000000000000e-01 0.000000000000e+00 3.000000000000e-02 1.000000000000e+05 1.000000000000e+05 0.000000000000e+00 9.251121356155e-01 7.488786438454e-02 0.000000000000e+00 0.000000000000e+00 0.000000000000e+00 0.000000000000e+00 
0.000000000000e+00 0.000000000000e+00 2.000000000000e-02 1.000000000000e+05 1.000000000000e+05 0.000000000000e+00 9.251121356155e-01 7.488786438454e-02 0.000000000000e+00 0.000000000000e+00 0.000000000000e+00 0.000000000000e+00 
1.000000000000e-02 0.000000000000e+00 2.000000000000e-02 1.000000000000e+05 1.000000000000e+05 0.000000000000e+00 9.251121356155e-01 7.488786438454e-02 0.000000000000e+00 0.000000000000e+00 0.000000000000e+00 0.000000000000e+00 
2.000000000000e-02 0.000000000000e+00 2.000000000000e-02 1.000000000000e+05 1.000000000000e+05 0.000000000000e+00 9.251121356155e-01 7.488786438454e-02 0.000000000000e+00 0.000000000000e+00 0.000000000000e+00 0.000000000000e+00 
3.000000000000e-02 0.000000000000e+00 2.000000000000e-02 1.000000000000e+05 1.000000000000e+05 0.000000000000e+00 9.251121356155e-01 7.488786438454e-02 0.000000000000e+00 0.000000000000e+00 0.000000000000e+00 0.000000000000e+00 
4.000000000000e-02 0.000000000000e+00 2.000000000000e-02 1.000000000000e+05 1.000000000000e+05 0.000000000000e+00 9.251121356155e-01 7.488786438454e-02 0.000000000000e+00 0.000000000000e+00 0.000000000000e+00 0.000000000000e+00 
5.000000000000e-02 0.000000000000e+00 2.000000000000e-02 1.000000000000e+05 1.000000000000e+05 0.000000000000e+00 9.251121356155e-01 7.488786438454e-02 0.000000000000e+00 0.000000000000e+00 0.000000000000e+00 0.000000000000e+00 
6.000000000000e-02 0.000000000000e+00 2.000000000000e-02 1.000000000000e+05 1.000000000000e+05 0.000000000000e+00 9.251121356155e-01 7.488786438454e-02 0.000000000000e+00 0.000000000000e+00 0.000000000000e+00 0.000000000000e+00 
7.000000000000e-02 0.000000000000e+00 2.000000000000e-02 1.000000000000e+05 1.000000000000e+05 0.000000000000e+00 9.251121356155e-01 7.488786438454e-02 0.000000000000e+00 0.000000000000e+00 0.000000000000e+00 0.000000000000e+00 
8.000000000000e-02 0.000000000000e+00 2.000000000000e-02 1.000000000000e+05 1.000000000000e+05 0.000000000000e+00 9.251121356155e-01 7.488786438454e-02 0.000000000000e+00 0.000000000000e+00 0.000000000000e+00 0.000000000000e+00 
9.000000000000e-02 0.000000000000e+00 2.000000000000e-02 1.000000000000e+05 1.000000000000e+05 0.000000000000e+00 9.251121356155e-01 7.488786438454e-02 0.000000000000e+00 0.000000000000e+00 0.000000000000e+00 0.000000000000e+00 
1.000000000000e-01 0.000000000000e+00 2.000000000000e-02 1.000000000000e+05 1.000000000000e+05 0.000000000000e+00 9.251121356155e-01 7.488786438454e-02 0.000000000000e+00 0.000000000000e+00 0.000000000000e+00 0.000000000000e+00 
0.000000000000e+00 0.000000000000e+00 1.000000000000e-02 1.000000000000e+05 1.000000000000e+05 0.000000000000e+00 9.251121356155e-01 7.488786438454e-02 0.000000000000e+00 0.000000000000e+00 0.000000000000e+00 0.000000000000e+00 
1.000000000000e-02 0.000000000000e+00 1.000000000000e-02 1.000000000000e+05 1.000000000000e+05 0.000000000000e+00 9.251121356155e-01 7.488786438454e-02 0.000000000000e+00 0.000000000000e+00 0.000000000000e+00 0.000000000000e+00 
2.000000000000e-02 0.000000000000e+00 1.000000000000e-02 1.000000000000e+05 1.000000000000e+05 0.000000000000e+00 9.251121356155e-01 7.488786438454e-02 0.000000000000e+00 0.000000000000e+00 0.000000000000e+00 0.000000000000e+00 
3.000000000000e-02 0.000000000000e+00 1.000000000000e-02 1.000000000000e+05 1.000000000000e+05 0.000000000000e+00 9.251121356155e-01 7.488786438454e-02 0.000000000000e+00 0.000000000000e+00 0.000000000000e+00 0.000000000000e+00 
4.000000000000e-02 0.000000000000e+00 1.000000000000e-02 1.000000000000e+05 1.000000000000e+05 0.000000000000e+00 9.251121356155e-01 7.488786438454e-02 0.000000000000e+00 0.000000000000e+00 0.000000000000e+00 0.000000000000e+00 
5.000000000000e-02 0.000000000000e+00 1.000000000000e-02 1.000000000000e+05 1.000000000000e+05 0.000000000000e+00 9.251121356155e-01 7.488786438454e-02 0.000000000000e+00 0.000000000000e+00 0.000000000000e+00 0.000000000000e+00 
6.000000000000e-02 0.000000000000e+00 1.000000000000e-02 1.000000000000e+05 1.000000000000e+05 0.000000000000e+00 9.251121356155e-01 7.488786438454e-02 0.000000000000e+00 0.000000000000e+00 0.000000000000e+00 0.000000000000e+00 
7.000000000000e-02 0.000000000000e+00 1.000000000000e-02 1.000000000000e+05 1.000000000000e+05 0.000000000000e+00 9.251121356155e-01 7.488786438454e-02 0.000000000000e+00 0.000000000000e+00 0.000000000000e+00 0.000000000000e+00 
8.000000000000e-02 0.000000000000e+00 1.000000000000e-02 1.000000000000e+05 1.000000000000e+05 0.000000000000e+00 9.251121356155e-01 7.488786438454e-02 0.000000000000e+00 0.000000000000e+00 0.000000000000e+00 0.000000000000e+00 
9.000000000000e-02 0.000000000000e+00 1.000000000000e-02 1.000000000000e+05 1.000000000000e+05 0.000000000000e+00 9.251121356155e-01 7.488786438454e-02 0.000000000000e+00 0.000000000000e+00 0.000000000000e+00 0.000000000000e+00 
1.000000000000e-01 0.000000000000e+00 1.000000000000e-02 1.000000000000e+05 1.000000000000e+05 0.000000000000e+00 9.251121356155e-01 7.488786438454e-02 0.000000000000e+00 0.000000000000e+00 0.000000000000e+00 0.000000000000e+00 
0.000000000000e+00 0.000000000000e+00 0.000000000000e+00 1.000000000000e+05 1.000000000000e+05 0.000000000000e+00 9.251121356155e-01 7.488786438454e-02 0.000000000000e+00 0.000000000000e+00 0.000000000000e+00 0.000000000000e+00 
1.000000000000e-02 0.000000000000e+00 0.000000000000e+00 1.000000000000e+05 1.000000000000e+05 0.000000000000e+00 9.251121356155e-01 7.488786438454e-02 0.000000000000e+00 0.000000000000e+00 0.000000000000e+00 0.000000000000e+00 
2.000000000000e-02 0.000000000000e+00 0.000000000000e+00 1.000000000000e+05 1.000000000000e+05 0.000000000000e+00 9.251121356155e-01 7.488786438454e-02 0.000000000000e+00 0.000000000000e+00 0.000000000000e+00 0.000000000000e+00 
3.000000000000e-02 0.000000000000e+00 0.000000000000e+00 1.000000000000e+05 1.000000000000e+05 0.000000000000e+00 9.251121356155e-01 7.488786438454e-02 0.000000000000e+00 0.000000000000e+00 0.000000000000e+00 0.000000000000e+00 
4.000000000000e-02 0.000000000000e+00 0.000000000000e+00 1.000000000000e+05 1.000000000000e+05 0.000000000000e+00 9.251121356155e-01 7.488786438454e-02 0.000000000000e+00 0.000000000000e+00 0.000000000000e+00 0.000000000000e+00 
5.000000000000e-02 0.000000000000e+00 0.000000000000e+00 1.000000000000e+05 1.000000000000e+05 0.000000000000e+00 9.251121356155e-01 7.488786438454e-02 0.000000000000e+00 0.000000000000e+00 0.000000000000e+00 0.000000000000e+00 
6.000000000000e-02 0.000000000000e+00 0.000000000000e+00 1.000000000000e+05 1.000000000000e+05 0.000000000000e+00 9.251121356155e-01 7.488786438454e-02 0.000000000000e+00 0.000000000000e+00 0.000000000000e+00 0.000000000000e+00 
7.000000000000e-02 0.000000000000e+00 0.000000000000e+00 1.000000000000e+05 1.000000000000e+05 0.000000000000e+00 9.251121356155e-01 7.488786438454e-02 0.000000000000e+00 0.000000000000e+00 0.000000000000e+00 0.000000000000e+00 
8.000000000000e-02 0.000000000000e+00 0.000000000000e+00 1.000000000000e+05 1.000000000000e+05 0.000000000000e+00 9.251121356155e-01 7.488786438454e-02 0.000000000000e+00 0.000000000000e+00 0.000000000000e+00 0.000000000000e+00 
9.000000000000e-02 0.000000000000e+00 0.000000000000e+00 1.000000000000e+05 1.000000000000e+05 0.000000000000e+00 9.251121356155e-01 7.488786438454e-02 0.000000000000e+00 0.000000000000e+00 0.000000000000e+00 0.000000000000e+00 
1.000000000000e-01 0.000000000000e+00 0.000000000000e+00 1.000000000000e+05 1.000000000000e+05 0.000000000000e+00 9.251121356155e-01 7.488786438454e-02 0.000000000000e+00 0.000000000000e+00 0.000000000000e+00 0.000000000000e+00 
6.000000000000e-02 0.000000000000e+00 8.000000000000e-02 1.000000000000e+05 1.000000000000e+05 0.000000000000e+00 9.251121356155e-01 7.488786438454e-02 0.000000000000e+00 0.000000000000e+00 0.000000000000e+00 0.000000000000e+00 
7.000000000000e-02 0.000000000000e+00 9.000000000000e-02 1.000000000000e+05 1.000000000000e+05 0.000000000000e+00 9.251121356155e-01 7.488786438454e-02 0.000000000000e+00 0.000000000000e+00 0.000000000000e+00 0.000000000000e+00 
6.000000000000e-02 0.000000000000e+00 9.000000000000e-02 1.000000000000e+05 1.000000000000e+05 0.000000000000e+00 9.251121356155e-01 7.488786438454e-02 0.000000000000e+00 0.000000000000e+00 0.000000000000e+00 0.000000000000e+00 
8.000000000000e-02 0.000000000000e+00 9.000000000000e-02 1.000000000000e+05 1.000000000000e+05 0.000000000000e+00 9.251121356155e-01 7.488786438454e-02 0.000000000000e+00 0.000000000000e+00 0.000000000000e+00 0.000000000000e+00 
9.000000000000e-02 0.000000000000e+00 9.000000000000e-02 1.000000000000e+05 1.000000000000e+05 0.000000000000e+00 9.251121356155e-01 7.488786438454e-02 0.000000000000e+00 0.000000000000e+00 0.000000000000e+00 0.000000000000e+00 
1.000000000000e-01 0.000000000000e+00 9.000000000000e-02 1.000000000000e+05 1.000000000000e+05 0.000000000000e+00 9.251121356155e-01 7.488786438454e-02 0.000000000000e+00 0.000000000000e+00 0.000000000000e+00 0.000000000000e+00 
1.000000000000e-02 0.000000000000e+00 8.000000000000e-02 1.000000000000e+05 1.000000000000e+05 0.000000000000e+00 9.251121356155e-01 7.488786438454e-02 0.000000000000e+00 0.000000000000e+00 0.000000000000e+00 0.000000000000e+00 
0.000000000000e+00 0.000000000000e+00 8.000000000000e-02 1.000000000000e+05 1.000000000000e+05 0.000000000000e+00 9.251121356155e-01 7.488786438454e-02 0.000000000000e+00 0.000000000000e+00 0.000000000000e+00 0.000000000000e+00 
2.000000000000e-02 0.000000000000e+00 8.000000000000e-02 1.000000000000e+05 1.000000000000e+05 0.000000000000e+00 9.251121356155e-01 7.488786438454e-02 0.000000000000e+00 0.000000000000e+00 0.000000000000e+00 0.000000000000e+00 
3.000000000000e-02 0.000000000000e+00 8.000000000000e-02 1.000000000000e+05 1.000000000000e+05 0.000000000000e+00 9.251121356155e-01 7.488786438454e-02 0.000000000000e+00 0.000000000000e+00 0.000000000000e+00 0.000000000000e+00 
4.000000000000e-02 0.000000000000e+00 8.000000000000e-02 1.000000000000e+05 1.000000000000e+05 0.000000000000e+00 9.251121356155e-01 7.488786438454e-02 0.000000000000e+00 0.000000000000e+00 0.000000000000e+00 0.000000000000e+00 
5.000000000000e-02 0.000000000000e+00 8.000000000000e-02 1.000000000000e+05 1.000000000000e+05 0.000000000000e+00 9.251121356155e-01 7.488786438454e-02 0.000000000000e+00 0.000000000000e+00 0.000000000000e+00 0.000000000000e+00 
12  13  2  1  
13  14  3  2  
14  15  4  3  
16  17  6  5  
17  18  7  6  
18  19  8  7  
19  20  9  8  
20  21  10  9  
21  22  11  10  
22  23  12  11  
23  24  13  12  
24  25  14  13  
25  26  15  14  
27  28  17  16  
28  29  18  17  
29  30  19  18  
30  31  20  19  
31  32  21  20  
32  33  22  21  
33  34  23  22  
34  35  24  23  
35  36  25  24  
36  37  26  25  
38  39  28  27  
39  40  29  28  
40  41  30  29  
41  42  31  30  
42  43  32  31  
43  44  33  32  
44  45  34  33  
45  46  35  34  
46  47  36  35  
47  48  37  36  
49  50  39  38  
50  51  40  39  
51  52  41  40  
52  53  42  41  
53  54  43  42  
54  55  44  43  
55  56  45  44  
56  57  46  45  
57  58  47  46  
58  59  48  47  
60  61  50  49  
61  62  51  50  
62  63  52  51  
63  64  53  52  
64  65  54  53  
65  66  55  54  
66  67  56  55  
67  68  57  56  
68  69  58  57  
69  70  59  58  
71  72  61  60  
72  73  62  61  
73  74  63  62  
74  75  64  63  
75  76  65  64  
76  77  66  65  
77  78  67  66  
78  79  68  67  
79  80  69  68  
80  81  70  69  
82  83  72  71  
83  84  73  72  
84  85  74  73  
85  86  75  74  
86  87  76  75  
87  88  77  76  
88  89  78  77  
89  90  79  78  
90  91  80  79  
91  92  81  80  
93  1  94  95  
1  2  96  94  
11  12  1  93  
2  3  97  96  
3  4  98  97  
5  6  99  100  
6  7  101  99  
7  8  102  101  
8  9  103  102  
9  10  104  103  
10  11  93  104  
VARIABLES  = "X","Y","Z", "PRESSURE1", "PRESSURE2", "PRESSURE_W", "SATURATION1", SATURATION2, "VELOCITY_X1", "VELOCITY_Y1", "VELOCITY_X2", "VELOCITY_Y2"
ZONE T="1.000000000000e-02s", N=104, E=84, F=FEPOINT, ET=QUADRILATERAL
STRANDID=1, SOLUTIONTIME=1.000000000000e-02
7.000000000000e-02 0.000000000000e+00 8.000000000000e-02 1.000000082385e+05 1.000000041133e+05 -4.125195351662e-03 9.251121179027e-01 7.488788209730e-02 4.755816338345e-10 -9.238832762176e-07 4.549547813293e-13 -2.413590641496e-11 
8.000000000000e-02 0.000000000000e+00 8.000000000000e-02 1.000000024789e+05 1.000000021497e+05 -3.291419416200e-04 9.251121302859e-01 7.488786971413e-02 -2.690569178074e-11 -9.238081782385e-07 -1.990074363572e-13 -2.362284357308e-11 
9.000000000000e-02 0.000000000000e+00 8.000000000000e-02 1.000000044959e+05 1.000000060850e+05 1.589058170794e-03 9.251121259492e-01 7.488787405082e-02 8.756330425706e-13 -9.238241886355e-07 3.924394034345e-13 -2.415979187375e-11 
1.000000000000e-01 0.000000000000e+00 8.000000000000e-02 9.999999877668e+04 9.999999826157e+04 -5.151096847840e-04 9.251121382456e-01 7.488786175440e-02 1.981504864941e-11 -9.237987787650e-07 1.579264282856e-12 -2.321081580358e-11 
0.000000000000e+00 0.000000000000e+00 7.000000000000e-02 1.000000019037e+05 1.000000040092e+05 2.105443374603e-03 9.251121315224e-01 7.488786847760e-02 1.825275635416e-11 -9.238249941655e-07 2.968392108650e-13 -2.387925392005e-11 
1.000000000000e-02 0.000000000000e+00 7.000000000000e-02 1.000000023715e+05 1.000000025387e+05 1.671755308053e-04 9.251121305167e-01 7.488786948330e-02 2.307595280468e-12 -9.238034026220e-07 -1.484196065322e-13 -2.378036643764e-11 
2.000000000000e-02 0.000000000000e+00 7.000000000000e-02 1.000000038643e+05 1.000000054797e+05 1.615354267415e-03 9.251121273071e-01 7.488787269285e-02 3.345532129030e-12 -9.238405295233e-07 2.968392385288e-13 -2.397814391970e-11 
3.000000000000e-02 0.000000000000e+00 7.000000000000e-02 1.000000001411e+05 9.999999959770e+04 -5.433515325421e-04 9.251121353122e-01 7.488786468780e-02 -3.837736347583e-12 -9.237642577262e-07 -5.936784355935e-13 -2.358258832423e-11 
4.000000000000e-02 0.000000000000e+00 7.000000000000e-02 1.000000089313e+05 1.000000113617e+05 2.430415246636e-03 9.251121164133e-01 7.488788358674e-02 8.544257057694e-12 -9.239144850086e-07 1.187357085685e-12 -2.437370039295e-11 
5.000000000000e-02 0.000000000000e+00 7.000000000000e-02 9.999999019172e+04 9.999998783373e+04 -2.357992983889e-03 9.251121567032e-01 7.488784329675e-02 -3.071774292474e-11 -9.236431963605e-07 -2.383897093202e-12 -2.279147559608e-11 
6.000000000000e-02 0.000000000000e+00 7.000000000000e-02 1.000000260264e+05 1.000000349806e+05 8.954244403867e-03 9.251120796588e-01 7.488792034121e-02 -1.861547344233e-11 -9.243028512675e-07 -1.020397779766e-12 -2.596626289325e-11 
7.000000000000e-02 0.000000000000e+00 7.000000000000e-02 9.999999634791e+04 9.999999794351e+04 1.595605383045e-03 9.251121434675e-01 7.488785653255e-02 4.243356782335e-11 -9.237959872715e-07 3.639121186834e-12 -2.303540506721e-11 
8.000000000000e-02 0.000000000000e+00 7.000000000000e-02 9.999999898312e+04 9.999999892529e+04 -5.782107473351e-05 9.251121378018e-01 7.488786219824e-02 1.056552382072e-11 -9.238104174024e-07 9.950372681114e-14 -2.390741067704e-11 
9.000000000000e-02 0.000000000000e+00 7.000000000000e-02 9.999999760597e+04 9.999999695766e+04 -6.483091856353e-04 9.251121407626e-01 7.488785923738e-02 -1.278291343303e-12 -9.238186857675e-07 -1.962197393027e-13 -2.398961691227e-11 
1.000000000000e-01 0.000000000000e+00 7.000000000000e-02 1.000000006557e+05 1.000000008694e+05 2.136634575436e-04 9.251121342057e-01 7.488786579433e-02 -8.117236518586e-12 -9.238101969158e-07 -7.896324078329e-13 -2.339739545617e-11 
0.000000000000e+00 0.000000000000e+00 6.000000000000e-02 9.999999971621e+04 9.999999799557e+04 -1.720642860164e-03 9.251121362256e-01 7.488786377440e-02 -2.937817000145e-11 -9.238179346857e-07 -1.484195810007e-13 -2.383248117488e-11 
1.000000000000e-02 0.000000000000e+00 6.000000000000e-02 9.999999733178e+04 9.999999873082e+04 1.399036962539e-03 9.251121413521e-01 7.488785864787e-02 9.663639478490e-12 -9.238173548549e-07 7.420979847574e-14 -2.372116582050e-11 
2.000000000000e-02 0.000000000000e+00 6.000000000000e-02 1.000000010333e+05 9.999999726032e+04 -3.773014148464e-03 9.251121333938e-01 7.488786660621e-02 -2.098258995272e-11 -9.238097608336e-07 -1.484196180088e-13 -2.394379725175e-11 