VARIABLES  = "X","Y","Z", "TEMPERATURE1"
ZONE T="0.000000000000e+00s", N=122, E=100, F=FEPOINT, ET=QUADRILATERAL
STRANDID=1, SOLUTIONTIME=0.000000000000e+00
1.000000000000e-01 0.000000000000e+00 2.600000000000e-01 3.000000000000e+01 
0.000000000000e+00 0.000000000000e+00 2.500000000000e-01 3.000000000000e+01 
1.000000000000e-02 0.000000000000e+00 2.500000000000e-01 3.000000000000e+01 
2.000000000000e-02 0.000000000000e+00 2.500000000000e-01 3.000000000000e+01 
3.000000000000e-02 0.000000000000e+00 2.500000000000e-01 3.000000000000e+01 
4.000000000000e-02 0.000000000000e+00 2.500000000000e-01 3.000000000000e+01 
5.000000000000e-02 0.000000000000e+00 2.500000000000e-01 3.000000000000e+01 
6.000000000000e-02 0.000000000000e+00 2.500000000000e-01 3.000000000000e+01 
7.000000000000e-02 0.000000000000e+00 2.500000000000e-01 3.000000000000e+01 
8.000000000000e-02 0.000000000000e+00 2.500000000000e-01 3.000000000000e+01 
9.000000000000e-02 0.000000000000e+00 2.500000000000e-01 3.000000000000e+01 
1.000000000000e-01 0.000000000000e+00 2.500000000000e-01 3.000000000000e+01 
0.000000000000e+00 0.000000000000e+00 2.400000000000e-01 3.000000000000e+01 
1.000000000000e-02 0.000000000000e+00 2.400000000000e-01 3.000000000000e+01 
2.000000000000e-02 0.000000000000e+00 2.400000000000e-01 3.000000000000e+01 
3.000000000000e-02 0.000000000000e+00 2.400000000000e-01 3.000000000000e+01 
4.000000000000e-02 0.000000000000e+00 2.400000000000e-01 3.000000000000e+01 
5.000000000000e-02 0.000000000000e+00 2.400000000000e-01 3.000000000000e+01 
6.000000000000e-02 0.000000000000e+00 2.400000000000e-01 3.000000000000e+01 
7.000000000000e-02 0.000000000000e+00 2.400000000000e-01 3.000000000000e+01 
8.000000000000e-02 0.000000000000e+00 2.400000000000e-01 3.000000000000e+01 
9.000000000000e-02 0.000000000000e+00 2.400000000000e-01 3.000000000000e+01 
1.000000000000e-01 0.000000000000e+00 2.400000000000e-01 3.000000000000e+01 
0.000000000000e+00 0.000000000000e+00 2.300000000000e-01 3.000000000000e+01 
1.000000000000e-02 0.000000000000e+00 2.300000000000e-01 3.000000000000e+01 
2.000000000000e-02 0.000000000000e+00 2.300000000000e-01 3.000000000000e+01 
3.000000000000e-02 0.000000000000e+00 2.300000000000e-01 3.000000000000e+01 
4.000000000000e-02 0.000000000000e+00 2.300000000000e-01 3.000000000000e+01 
5.000000000000e-02 0.000000000000e+00 2.300000000000e-01 3.000000000000e+01 
6.000000000000e-02 0.000000000000e+00 2.300000000000e-01 3.000000000000e+01 
7.000000000000e-02 0.000000000000e+00 2.300000000000e-01 3.000000000000e+01 
8.000000000000e-02 0.000000000000e+00 2.300000000000e-01 3.000000000000e+01 
9.000000000000e-02 0.000000000000e+00 2.300000000000e-01 3.000000000000e+01 
1.000000000000e-01 0.000000000000e+00 2.300000000000e-01 3.000000000000e+01 
0.000000000000e+00 0.000000000000e+00 2.200000000000e-01 3.000000000000e+01 
1.000000000000e-02 0.000000000000e+00 2.200000000000e-01 3.000000000000e+01 
2.000000000000e-02 0.000000000000e+00 2.200000000000e-01 3.000000000000e+01 
3.000000000000e-02 0.000000000000e+00 2.200000000000e-01 3.000000000000e+01 
4.000000000000e-02 0.000000000000e+00 2.200000000000e-01 3.000000000000e+01 
5.000000000000e-02 0.000000000000e+00 2.200000000000e-01 3.000000000000e+01 
6.000000000000e-02 0.000000000000e+00 2.200000000000e-01 3.000000000000e+01 
7.000000000000e-02 0.000000000000e+00 2.200000000000e-01 3.000000000000e+01 
8.000000000000e-02 0.000000000000e+00 2.200000000000e-01 3.000000000000e+01 
9.000000000000e-02 0.000000000000e+00 2.200000000000e-01 3.000000000000e+01 
1.000000000000e-01 0.000000000000e+00 2.200000000000e-01 3.000000000000e+01 
0.000000000000e+00 0.000000000000e+00 2.100000000000e-01 3.000000000000e+01 
1.000000000000e-02 0.000000000000e+00 2.100000000000e-01 3.000000000000e+01 
2.000000000000e-02 0.000000000000e+00 2.100000000000e-01 3.000000000000e+01 
3.000000000000e-02 0.000000000000e+00 2.100000000000e-01 3.000000000000e+01 
4.000000000000e-02 0.000000000000e+00 2.100000000000e-01 3.000000000000e+01 
5.000000000000e-02 0.000000000000e+00 2.100000000000e-01 3.000000000000e+01 
6.000000000000e-02 0.000000000000e+00 2.100000000000e-01 3.000000000000e+01 
7.000000000000e-02 0.000000000000e+00 2.100000000000e-01 3.000000000000e+01 
8.000000000000e-02 0.000000000000e+00 2.100000000000e-01 3.000000000000e+01 
9.000000000000e-02 0.000000000000e+00 2.100000000000e-01 3.000000000000e+01 
1.000000000000e-01 0.000000000000e+00 2.100000000000e-01 3.000000000000e+01 
0.000000000000e+00 0.000000000000e+00 2.000000000000e-01 3.000000000000e+01 
1.000000000000e-02 0.000000000000e+00 2.000000000000e-01 3.000000000000e+01 
2.000000000000e-02 0.000000000000e+00 2.000000000000e-01 3.000000000000e+01 
3.000000000000e-02 0.000000000000e+00 2.000000000000e-01 3.000000000000e+01 
4.000000000000e-02 0.000000000000e+00 2.000000000000e-01 3.000000000000e+01 
5.000000000000e-02 0.000000000000e+00 2.000000000000e-01 3.000000000000e+01 
6.000000000000e-02 0.000000000000e+00 2.000000000000e-01 3.000000000000e+01 
7.000000000000e-02 0.000000000000e+00 2.000000000000e-01 3.000000000000e+01 
8.000000000000e-02 0.000000000000e+00 2.000000000000e-01 3.000000000000e+01 
9.000000000000e-02 0.000000000000e+00 2.000000000000e-01 3.000000000000e+01 
1.000000000000e-01 0.000000000000e+00 2.000000000000e-01 3.000000000000e+01 
0.000000000000e+00 0.000000000000e+00 1.900000000000e-01 3.000000000000e+01 
1.000000000000e-02 0.000000000000e+00 1.900000000000e-01 3.000000000000e+01 
2.000000000000e-02 0.000000000000e+00 1.900000000000e-01 3.000000000000e+01 
3.000000000000e-02 0.000000000000e+00 1.900000000000e-01 3.000000000000e+01 
4.000000000000e-02 0.000000000000e+00 1.900000000000e-01 3.000000000000e+01 
5.000000000000e-02 0.000000000000e+00 1.900000000000e-01 3.000000000000e+01 
6.000000000000e-02 0.000000000000e+00 1.900000000000e-01 3.000000000000e+01 
7.000000000000e-02 0.000000000000e+00 1.900000000000e-01 3.000000000000e+01 
8.000000000000e-02 0.000000000000e+00 1.900000000000e-01 3.000000000000e+01 
9.000000000000e-02 0.000000000000e+00 1.900000000000e-01 3.000000000000e+01 
1.000000000000e-01 0.000000000000e+00 1.900000000000e-01 3.000000000000e+01 
0.000000000000e+00 0.000000000000e+00 1.800000000000e-01 3.000000000000e+01 
1.000000000000e-02 0.000000000000e+00 1.800000000000e-01 3.000000000000e+01 
2.000000000000e-02 0.000000000000e+00 1.800000000000e-01 3.000000000000e+01 
3.000000000000e-02 0.000000000000e+00 1.800000000000e-01 3.000000000000e+01 
4.000000000000e-02 0.000000000000e+00 1.800000000000e-01 3.000000000000e+01 
5.000000000000e-02 0.000000000000e+00 1.800000000000e-01 3.000000000000e+01 
6.000000000000e-02 0.000000000000e+00 1.800000000000e-01 3.000000000000e+01 
7.000000000000e-02 0.000000000000e+00 1.800000000000e-01 3.000000000000e+01 
8.000000000000e-02 0.000000000000e+00 1.800000000000e-01 3.000000000000e+01 
9.000000000000e-02 0.000000000000e+00 1.800000000000e-01 3.000000000000e+01 
1.000000000000e-01 0.000000000000e+00 1.800000000000e-01 3.000000000000e+01 
0.000000000000e+00 0.000000000000e+00 1.700000000000e-01 3.000000000000e+01 
1.000000000000e-02 0.000000000000e+00 1.700000000000e-01 3.000000000000e+01 
2.000000000000e-02 0.000000000000e+00 1.700000000000e-01 3.000000000000e+01 
3.000000000000e-02 0.000000000000e+00 1.700000000000e-01 3.000000000000e+01 
4.000000000000e-02 0.000000000000e+00 1.700000000000e-01 3.000000000000e+01 
5.000000000000e-02 0.000000000000e+00 1.700000000000e-01 3.000000000000e+01 
6.000000000000e-02 0.000000000000e+00 1.700000000000e-01 3.000000000000e+01 
7.000000000000e-02 0.000000000000e+00 1.700000000000e-01 3.000000000000e+01 
8.000000000000e-02 0.000000000000e+00 1.700000000000e-01 3.000000000000e+01 
9.000000000000e-02 0.000000000000e+00 2.600000000000e-01 3.000000000000e+01 
1.000000000000e-01 0.000000000000e+00 2.700000000000e-01 3.000000000000e+01 
9.000000000000e-02 0.000000000000e+00 2.700000000000e-01 3.000000000000e+01 
1.000000000000e-02 0.000000000000e+00 2.600000000000e-01 3.000000000000e+01 
0.000000000000e+00 0.000000000000e+00 2.600000000000e-01 3.000000000000e+01 
2.000000000000e-02 0.000000000000e+00 2.600000000000e-01 3.000000000000e+01 
3.000000000000e-02 0.000000000000e+00 2.600000000000e-01 3.000000000000e+01 
4.000000000000e-02 0.000000000000e+00 2.600000000000e-01 3.000000000000e+01 
5.000000000000e-02 0.000000000000e+00 2.600000000000e-01 3.000000000000e+01 
6.000000000000e-02 0.000000000000e+00 2.600000000000e-01 3.000000000000e+01 
7.000000000000e-02 0.000000000000e+00 2.600000000000e-01 3.000000000000e+01 
8.000000000000e-02 0.000000000000e+00 2.600000000000e-01 3.000000000000e+01 
9.000000000000e-02 0.000000000000e+00 1.700000000000e-01 3.000000000000e+01 
1.000000000000e-01 0.000000000000e+00 1.700000000000e-01 3.000000000000e+01 
0.000000000000e+00 0.000000000000e+00 1.600000000000e-01 3.000000000000e+01 
1.000000000000e-02 0.000000000000e+00 1.600000000000e-01 3.000000000000e+01 
2.000000000000e-02 0.000000000000e+00 1.600000000000e-01 3.000000000000e+01 
3.000000000000e-02 0.000000000000e+00 1.600000000000e-01 3.000000000000e+01 
4.000000000000e-02 0.000000000000e+00 1.600000000000e-01 3.000000000000e+01 
5.000000000000e-02 0.000000000000e+00 1.600000000000e-01 3.000000000000e+01 
6.000000000000e-02 0.000000000000e+00 1.600000000000e-01 3.000000000000e+01 
7.000000000000e-02 0.000000000000e+00 1.600000000000e-01 3.000000000000e+01 
8.000000000000e-02 0.000000000000e+00 1.600000000000e-01 3.000000000000e+01 
9.000000000000e-02 0.000000000000e+00 1.600000000000e-01 3.000000000000e+01 
13  14  3  2  
14  15  4  3  
15  16  5  4  
16  17  6  5  
17  18  7  6  
18  19  8  7  
19  20  9  8  
20  21  10  9  
21  22  11  10  
22  23  12  11  
24  25  14  13  
25  26  15  14  
26  27  16  15  
27  28  17  16  
28  29  18  17  
29  30  19  18  
30  31  20  19  
31  32  21  20  
32  33  22  21  
33  34  23  22  
35  36  25  24  
36  37  26  25  
37  38  27  26  
38  39  28  27  
39  40  29  28  
40  41  30  29  
41  42  31  30  
42  43  32  31  
43  44  33  32  
44  45  34  33  
46  47  36  35  
47  48  37  36  
48  49  38  37  
49  50  39  38  
50  51  40  39  
51  52  41  40  
52  53  42  41  
53  54  43  42  
54  55  44  43  
55  56  45  44  
57  58  47  46  
58  59  48  47  
59  60  49  48  
60  61  50  49  
61  62  51  50  
62  63  52  51  
63  64  53  52  
64  65  54  53  
65  66  55  54  
66  67  56  55  
68  69  58  57  
69  70  59  58  
70  71  60  59  
71  72  61  60  
72  73  62  61  
73  74  63  62  
74  75  64  63  
75  76  65  64  
76  77  66  65  
77  78  67  66  
79  80  69  68  
80  81  70  69  
81  82  71  70  
82  83  72  71  
83  84  73  72  
84  85  74  73  
85  86  75  74  
86  87  76  75  
87  88  77  76  
88  89  78  77  
90  91  80  79  
91  92  81  80  
92  93  82  81  
93  94  83  82  
94  95  84  83  
95  96  85  84  
96  97  86  85  
97  98  87  86  
99  1  100  101  
11  12  1  99  
2  3  102  103  
3  4  104  102  
4  5  105  104  
5  6  106  105  
6  7  107  106  
7  8  108  107  
8  9  109  108  
9  10  110  109  
10  11  99  110  
98  111  88  87  
111  112  89  88  
113  114  91  90  
114  115  92  91  
115  116  93  92  
116  117  94  93  
117  118  95  94  
118  119  96  95  
119  120  97  96  
120  121  98  97  
121  122  111  98  
VARIABLES  = "X","Y","Z", "TEMPERATURE1"
ZONE T="1.000000000000e-02s", N=122, E=100, F=FEPOINT, ET=QUADRILATERAL
STRANDID=1, SOLUTIONTIME=1.000000000000e-02
1.000000000000e-01 0.000000000000e+00 2.600000000000e-01 3.000013614360e+01 
0.000000000000e+00 0.000000000000e+00 2.500000000000e-01 2.999996463198e+01 
1.000000000000e-02 0.000000000000e+00 2.500000000000e-01 3.000007370648e+01 
2.000000000000e-02 0.000000000000e+00 2.500000000000e-01 2.999974274379e+01 
3.000000000000e-02 0.000000000000e+00 2.500000000000e-01 2.999974285098e+01 
4.000000000000e-02 0.000000000000e+00 2.500000000000e-01 2.999974282532e+01 
5.000000000000e-02 0.000000000000e+00 2.500000000000e-01 2.999974282173e+01 
6.000000000000e-02 0.000000000000e+00 2.500000000000e-01 2.999974286469e+01 
7.000000000000e-02 0.000000000000e+00 2.500000000000e-01 2.999974268931e+01 
8.000000000000e-02 0.000000000000e+00 2.500000000000e-01 2.999974336461e+01 
9.000000000000e-02 0.000000000000e+00 2.500000000000e-01 3.000007260851e+01 
1.000000000000e-01 0.000000000000e+00 2.500000000000e-01 2.999996385578e+01 
0.000000000000e+00 0.000000000000e+00 2.400000000000e-01 3.000000937597e+01 
1.000000000000e-02 0.000000000000e+00 2.400000000000e-01 2.999998046323e+01 
2.000000000000e-02 0.000000000000e+00 2.400000000000e-01 3.000006818037e+01 
3.000000000000e-02 0.000000000000e+00 2.400000000000e-01 3.000006814853e+01 
4.000000000000e-02 0.000000000000e+00 2.400000000000e-01 3.000006815717e+01 
5.000000000000e-02 0.000000000000e+00 2.400000000000e-01 3.000006815417e+01 
6.000000000000e-02 0.000000000000e+00 2.400000000000e-01 3.000006815591e+01 
7.000000000000e-02 0.000000000000e+00 2.400000000000e-01 3.000006816907e+01 
8.000000000000e-02 0.000000000000e+00 2.400000000000e-01 3.000006807999e+01 
9.000000000000e-02 0.000000000000e+00 2.400000000000e-01 2.999998072195e+01 
1.000000000000e-01 0.000000000000e+00 2.400000000000e-01 3.000000962680e+01 
0.000000000000e+00 0.000000000000e+00 2.300000000000e-01 2.999999751477e+01 
1.000000000000e-02 0.000000000000e+00 2.300000000000e-01 3.000000517895e+01 
2.000000000000e-02 0.000000000000e+00 2.300000000000e-01 2.999998193047e+01 
3.000000000000e-02 0.000000000000e+00 2.300000000000e-01 2.999998194032e+01 
4.000000000000e-02 0.000000000000e+00 2.300000000000e-01 2.999998193573e+01 
5.000000000000e-02 0.000000000000e+00 2.300000000000e-01 2.999998194441e+01 
6.000000000000e-02 0.000000000000e+00 2.300000000000e-01 2.999998191802e+01 
7.000000000000e-02 0.000000000000e+00 2.300000000000e-01 2.999998195240e+01 
8.000000000000e-02 0.000000000000e+00 2.300000000000e-01 2.999998196655e+01 
9.000000000000e-02 0.000000000000e+00 2.300000000000e-01 3.000000512830e+01 
1.000000000000e-01 0.000000000000e+00 2.300000000000e-01 2.999999744493e+01 
0.000000000000e+00 0.000000000000e+00 2.200000000000e-01 3.000000065801e+01 
1.000000000000e-02 0.000000000000e+00 2.200000000000e-01 2.999999862636e+01 
2.000000000000e-02 0.000000000000e+00 2.200000000000e-01 3.000000478852e+01 
3.000000000000e-02 0.000000000000e+00 2.200000000000e-01 3.000000478361e+01 
4.000000000000e-02 0.000000000000e+00 2.200000000000e-01 3.000000479278e+01 
5.000000000000e-02 0.000000000000e+00 2.200000000000e-01 3.000000476071e+01 
6.000000000000e-02 0.000000000000e+00 2.200000000000e-01 3.000000486636e+01 
7.000000000000e-02 0.000000000000e+00 2.200000000000e-01 3.000000471091e+01 
8.000000000000e-02 0.000000000000e+00 2.200000000000e-01 3.000000475646e+01 
9.000000000000e-02 0.000000000000e+00 2.200000000000e-01 2.999999856691e+01 
1.000000000000e-01 0.000000000000e+00 2.200000000000e-01 3.000000069765e+01 
0.000000000000e+00 0.000000000000e+00 2.100000000000e-01 2.999999982899e+01 
1.000000000000e-02 0.000000000000e+00 2.100000000000e-01 3.000000036835e+01 
2.000000000000e-02 0.000000000000e+00 2.100000000000e-01 2.999999873291e+01 
3.000000000000e-02 0.000000000000e+00 2.100000000000e-01 2.999999874220e+01 
4.000000000000e-02 0.000000000000e+00 2.100000000000e-01 2.999999870998e+01 
5.000000000000e-02 0.000000000000e+00 2.100000000000e-01 2.999999883072e+01 
6.000000000000e-02 0.000000000000e+00 2.100000000000e-01 2.999999843066e+01 
7.000000000000e-02 0.000000000000e+00 2.100000000000e-01 2.999999902343e+01 
8.000000000000e-02 0.000000000000e+00 2.100000000000e-01 2.999999882731e+01 
9.000000000000e-02 0.000000000000e+00 2.100000000000e-01 3.000000065866e+01 
1.000000000000e-01 0.000000000000e+00 2.100000000000e-01 2.999999973934e+01 
0.000000000000e+00 0.000000000000e+00 2.000000000000e-01 3.000000003273e+01 
1.000000000000e-02 0.000000000000e+00 2.000000000000e-01 2.999999988722e+01 
2.000000000000e-02 0.000000000000e+00 2.000000000000e-01 3.000000032864e+01 
3.000000000000e-02 0.000000000000e+00 2.000000000000e-01 3.000000029635e+01 
4.000000000000e-02 0.000000000000e+00 2.000000000000e-01 3.000000041720e+01 
5.000000000000e-02 0.000000000000e+00 2.000000000000e-01 2.999999996184e+01 
6.000000000000e-02 0.000000000000e+00 2.000000000000e-01 3.000000147155e+01 
7.000000000000e-02 0.000000000000e+00 2.000000000000e-01 2.999999923346e+01 
8.000000000000e-02 0.000000000000e+00 2.000000000000e-01 2.999999997951e+01 
9.000000000000e-02 0.000000000000e+00 2.000000000000e-01 2.999999877438e+01 
1.000000000000e-01 0.000000000000e+00 2.000000000000e-01 3.000000035510e+01 
0.000000000000e+00 0.000000000000e+00 1.900000000000e-01 3.000000003921e+01 
1.000000000000e-02 0.000000000000e+00 1.900000000000e-01 3.000000008790e+01 
2.000000000000e-02 0.000000000000e+00 1.900000000000e-01 2.999999994042e+01 
3.000000000000e-02 0.000000000000e+00 1.900000000000e-01 3.000000006150e+01 
4.000000000000e-02 0.000000000000e+00 1.900000000000e-01 2.999999960584e+01 
5.000000000000e-02 0.000000000000e+00 1.900000000000e-01 3.000000132368e+01 
6.000000000000e-02 0.000000000000e+00 1.900000000000e-01 2.999999562766e+01 
7.000000000000e-02 0.000000000000e+00 1.900000000000e-01 3.000000407229e+01 
8.000000000000e-02 0.000000000000e+00 1.900000000000e-01 3.000000125613e+01 
9.000000000000e-02 0.000000000000e+00 1.900000000000e-01 3.000000429128e+01 
1.000000000000e-01 0.000000000000e+00 1.900000000000e-01 2.999999882717e+01 
0.000000000000e+00 0.000000000000e+00 1.800000000000e-01 2.999999980922e+01 
1.000000000000e-02 0.000000000000e+00 1.800000000000e-01 2.999999975875e+01 
2.000000000000e-02 0.000000000000e+00 1.800000000000e-01 2.999999991224e+01 
3.000000000000e-02 0.000000000000e+00 1.800000000000e-01 2.999999945591e+01 
4.000000000000e-02 0.000000000000e+00 1.800000000000e-01 3.000000117461e+01 
5.000000000000e-02 0.000000000000e+00 1.800000000000e-01 2.999999469412e+01 
6.000000000000e-02 0.000000000000e+00 1.800000000000e-01 3.000001618436e+01 
7.000000000000e-02 0.000000000000e+00 1.800000000000e-01 2.999998432316e+01 
8.000000000000e-02 0.000000000000e+00 1.800000000000e-01 2.999999494730e+01 
9.000000000000e-02 0.000000000000e+00 1.800000000000e-01 2.999998389825e+01 
1.000000000000e-01 0.000000000000e+00 1.800000000000e-01 3.000000438079e+01 
0.000000000000e+00 0.000000000000e+00 1.700000000000e-01 3.000000073164e+01 
1.000000000000e-02 0.000000000000e+00 1.700000000000e-01 3.000000088708e+01 
2.000000000000e-02 0.000000000000e+00 1.700000000000e-01 3.000000041483e+01 
3.000000000000e-02 0.000000000000e+00 1.700000000000e-01 3.000000213587e+01 
4.000000000000e-02 0.000000000000e+00 1.700000000000e-01 2.999999565291e+01 
5.000000000000e-02 0.000000000000e+00 1.700000000000e-01 3.000002010039e+01 
6.000000000000e-02 0.000000000000e+00 1.700000000000e-01 2.999996342689e+01 
7.000000000000e-02 0.000000000000e+00 1.700000000000e-01 3.000002257256e+01 
8.000000000000e-02 0.000000000000e+00 1.700000000000e-01 3.000000682410e+01 
9.000000000000e-02 0.000000000000e+00 2.600000000000e-01 2.999972603610e+01 
1.000000000000e-01 0.000000000000e+00 2.700000000000e-01 2.999948702113e+01 
9.000000000000e-02 0.000000000000e+00 2.700000000000e-01 3.000103823880e+01 
1.000000000000e-02 0.000000000000e+00 2.600000000000e-01 2.999972566795e+01 
0.000000000000e+00 0.000000000000e+00 2.600000000000e-01 3.000013715699e+01 
2.000000000000e-02 0.000000000000e+00 2.600000000000e-01 3.000097441486e+01 
3.000000000000e-02 0.000000000000e+00 2.600000000000e-01 3.000097405038e+01 
4.000000000000e-02 0.000000000000e+00 2.600000000000e-01 3.000097415487e+01 
5.000000000000e-02 0.000000000000e+00 2.600000000000e-01 3.000097409762e+01 
6.000000000000e-02 0.000000000000e+00 2.600000000000e-01 3.000097422397e+01 
7.000000000000e-02 0.000000000000e+00 2.600000000000e-01 3.000097377892e+01 
8.000000000000e-02 0.000000000000e+00 2.600000000000e-01 3.000097543642e+01 
9.000000000000e-02 0.000000000000e+00 1.700000000000e-01 3.000001125566e+01 
1.000000000000e-01 0.000000000000e+00 1.700000000000e-01 2.999995840927e+01 
0.000000000000e+00 0.000000000000e+00 1.600000000000e-01 3.000000082996e+01 
1.000000000000e-02 0.000000000000e+00 1.600000000000e-01 3.000000068830e+01 
2.000000000000e-02 0.000000000000e+00 1.600000000000e-01 3.000000111860e+01 
3.000000000000e-02 0.000000000000e+00 1.600000000000e-01 2.999999953110e+01 
4.000000000000e-02 0.000000000000e+00 1.600000000000e-01 3.000000551223e+01 
5.000000000000e-02 0.000000000000e+00 1.600000000000e-01 2.999998295115e+01 
6.000000000000e-02 0.000000000000e+00 1.600000000000e-01 3.000001616275e+01 
7.000000000000e-02 0.000000000000e+00 1.600000000000e-01 2.999998430116e+01 
8.000000000000e-02 0.000000000000e+00 1.600000000000e-01 2.999999492541e+01 
9.000000000000e-02 0.000000000000e+00 1.600000000000e-01 2.999998390419e+01 
13  14  3  2  
14  15  4  3  
15  16  5  4  
16  17  6  5  
17  18  7  6  
18  19  8  7  
19  20  9  8  
20  21  10  9  
21  22  11  10  
22  23  12  11  
24  25  14  13  
25  26  15  14  
26  27  16  15  
27  28  17  16  
28  29  18  17  
29  30  19  18  
30  31  20  19  
31  32  21  20  
32  33  22  21  
33  34  23  22  
35  36  25  24  
36  37  26  25  
37  38  27  26  
38  39  28  27  
39  40  29  28  
40  41  30  29  
41  42  31  30  
42  43  32  31  
43  44  33  32  
44  45  34  33  
46  47  36  35  
47  48  37  36  
48  49  38  37  
49  50  39  38  
50  51  40  39  
51  52  41  40  
52  53  42  41  
53  54  43  42  
54  55  44  43  
55  56  45  44  
57  58  47  46  
58  59  48  47  
59  60  49  48  
60  61  50  49  
61  62  51  50  
62  63  52  51  
63  64  53  52  
64  65  54  53  
65  66  55  54  
66  67  56  55  
68  69  58  57  
69  70  59  58  
70  71  60  59  
71  72  61  60  
72  73  62  61  
73  74  63  62  
74  75  64  63  
75  76  65  64  
76  77  66  65  
77  78  67  66  
79  80  69  68  
80  81  70  69  
81  82  71  70  
82  83  72  71  
83  84  73  72  
84  85  74  73  
85  86  75  74  
86  87  76  75  
87  88  77  76  
88  89  78  77  
90  91  80  79  
91  92  81  80  
92  93  82  81  
93  94  83  82  
94  95  84  83  
95  96  85  84  
96  97  86  85  
97  98  87  86  
99  1  100  101  
11  12  1  99  
2  3  102  103  
3  4  104  102  
4  5  105  104  
5  6  106  105  
6  7  107  106  
7  8  108  107  
8  9  109  108  
9  10  110  109  
10  11  99  110  
98  111  88  87  
111  112  89  88  
113  114  91  90  
114  115  92  91  
115  116  93  92  
116  117  94  93  
117  118  95  94  
118  119  96  95  
119  120  97  96  
120  121  98  97  
121  122  111  98  
VARIABLES  = "X","Y","Z", "TEMPERATURE1"
ZONE T="7.000000000000e-02s", N=122, E=100, F=FEPOINT, ET=QUADRILATERAL
STRANDID=1, SOLUTIONTIME=7.000000000000e-02
1.000000000000e-01 0.000000000000e+00 2.600000000000e-01 3.000007472375e+01 
0.000000000000e+00 0.000000000000e+00 2.500000000000e-01 2.999998248851e+01 
1.000000000000e-02 0.000000000000e+00 2.500000000000e-01 3.000003959764e+01 
2.000000000000e-02 0.000000000000e+00 2.500000000000e-01 2.999986200052e+01 
3.000000000000e-02 0.000000000000e+00 2.500000000000e-01 2.999986465536e+01 
4.000000000000e-02 0.000000000000e+00 2.500000000000e-01 2.999986396898e+01 
5.000000000000e-02 0.000000000000e+00 2.500000000000e-01 2.999986417125e+01 
6.000000000000e-02 0.000000000000e+00 2.500000000000e-01 2.999986401629e+01 
7.000000000000e-02 0.000000000000e+00 2.500000000000e-01 2.999986446072e+01 
8.000000000000e-02 0.000000000000e+00 2.500000000000e-01 2.999986275260e+01 
9.000000000000e-02 0.000000000000e+00 2.500000000000e-01 3.000003798651e+01 
1.000000000000e-01 0.000000000000e+00 2.500000000000e-01 2.999998130235e+01 
0.000000000000e+00 0.000000000000e+00 2.400000000000e-01 3.000000435410e+01 
1.000000000000e-02 0.000000000000e+00 2.400000000000e-01 2.999999019946e+01 
2.000000000000e-02 0.000000000000e+00 2.400000000000e-01 3.000003394450e+01 
3.000000000000e-02 0.000000000000e+00 2.400000000000e-01 3.000003320282e+01 
4.000000000000e-02 0.000000000000e+00 2.400000000000e-01 3.000003339600e+01 
5.000000000000e-02 0.000000000000e+00 2.400000000000e-01 3.000003333525e+01 
6.000000000000e-02 0.000000000000e+00 2.400000000000e-01 3.000003339344e+01 
7.000000000000e-02 0.000000000000e+00 2.400000000000e-01 3.000003322702e+01 
8.000000000000e-02 0.000000000000e+00 2.400000000000e-01 3.000003382995e+01 
9.000000000000e-02 0.000000000000e+00 2.400000000000e-01 2.999999056653e+01 
1.000000000000e-01 0.000000000000e+00 2.400000000000e-01 3.000000469825e+01 
0.000000000000e+00 0.000000000000e+00 2.300000000000e-01 2.999999891839e+01 
1.000000000000e-02 0.000000000000e+00 2.300000000000e-01 3.000000242327e+01 
2.000000000000e-02 0.000000000000e+00 2.300000000000e-01 2.999999166371e+01 
3.000000000000e-02 0.000000000000e+00 2.300000000000e-01 2.999999186946e+01 
4.000000000000e-02 0.000000000000e+00 2.300000000000e-01 2.999999181408e+01 
5.000000000000e-02 0.000000000000e+00 2.300000000000e-01 2.999999183809e+01 
6.000000000000e-02 0.000000000000e+00 2.300000000000e-01 2.999999179688e+01 
7.000000000000e-02 0.000000000000e+00 2.300000000000e-01 2.999999188306e+01 
8.000000000000e-02 0.000000000000e+00 2.300000000000e-01 2.999999170442e+01 
9.000000000000e-02 0.000000000000e+00 2.300000000000e-01 3.000000235109e+01 
1.000000000000e-01 0.000000000000e+00 2.300000000000e-01 2.999999882953e+01 
0.000000000000e+00 0.000000000000e+00 2.200000000000e-01 3.000000026666e+01 
1.000000000000e-02 0.000000000000e+00 2.200000000000e-01 2.999999940132e+01 
2.000000000000e-02 0.000000000000e+00 2.200000000000e-01 3.000000204250e+01 
3.000000000000e-02 0.000000000000e+00 2.200000000000e-01 3.000000198440e+01 
4.000000000000e-02 0.000000000000e+00 2.200000000000e-01 3.000000200687e+01 
5.000000000000e-02 0.000000000000e+00 2.200000000000e-01 3.000000197202e+01 
6.000000000000e-02 0.000000000000e+00 2.200000000000e-01 3.000000208323e+01 
7.000000000000e-02 0.000000000000e+00 2.200000000000e-01 3.000000189926e+01 
8.000000000000e-02 0.000000000000e+00 2.200000000000e-01 3.000000199996e+01 
9.000000000000e-02 0.000000000000e+00 2.200000000000e-01 2.999999933641e+01 
1.000000000000e-01 0.000000000000e+00 2.200000000000e-01 3.000000031266e+01 
0.000000000000e+00 0.000000000000e+00 2.100000000000e-01 2.999999993743e+01 
1.000000000000e-02 0.000000000000e+00 2.100000000000e-01 3.000000015269e+01 
2.000000000000e-02 0.000000000000e+00 2.100000000000e-01 2.999999950257e+01 
3.000000000000e-02 0.000000000000e+00 2.100000000000e-01 2.999999952595e+01 
4.000000000000e-02 0.000000000000e+00 2.100000000000e-01 2.999999949099e+01 
5.000000000000e-02 0.000000000000e+00 2.100000000000e-01 2.999999961323e+01 
6.000000000000e-02 0.000000000000e+00 2.100000000000e-01 2.999999918273e+01 
7.000000000000e-02 0.000000000000e+00 2.100000000000e-01 2.999999987484e+01 
8.000000000000e-02 0.000000000000e+00 2.100000000000e-01 2.999999964485e+01 
9.000000000000e-02 0.000000000000e+00 2.100000000000e-01 3.000000050125e+01 
1.000000000000e-01 0.000000000000e+00 2.100000000000e-01 2.999999983088e+01 
0.000000000000e+00 0.000000000000e+00 2.000000000000e-01 2.999999999868e+01 
1.000000000000e-02 0.000000000000e+00 2.000000000000e-01 2.999999994437e+01 
2.000000000000e-02 0.000000000000e+00 2.000000000000e-01 3.000000011014e+01 
3.000000000000e-02 0.000000000000e+00 2.000000000000e-01 3.000000007478e+01 
4.000000000000e-02 0.000000000000e+00 2.000000000000e-01 3.000000019888e+01 
5.000000000000e-02 0.000000000000e+00 2.000000000000e-01 2.999999971550e+01 
6.000000000000e-02 0.000000000000e+00 2.000000000000e-01 3.000000143625e+01 
7.000000000000e-02 0.000000000000e+00 2.000000000000e-01 2.999999867458e+01 
8.000000000000e-02 0.000000000000e+00 2.000000000000e-01 2.999999954300e+01 
9.000000000000e-02 0.000000000000e+00 2.000000000000e-01 2.999999852468e+01 
1.000000000000e-01 0.000000000000e+00 2.000000000000e-01 3.000000040408e+01 
0.000000000000e+00 0.000000000000e+00 1.900000000000e-01 3.000000006510e+01 
1.000000000000e-02 0.000000000000e+00 1.900000000000e-01 3.000000008884e+01 
2.000000000000e-02 0.000000000000e+00 1.900000000000e-01 3.000000001726e+01 
3.000000000000e-02 0.000000000000e+00 1.900000000000e-01 3.000000014247e+01 
4.000000000000e-02 0.000000000000e+00 1.900000000000e-01 2.999999965353e+01 
5.000000000000e-02 0.000000000000e+00 1.900000000000e-01 3.000000158130e+01 
6.000000000000e-02 0.000000000000e+00 1.900000000000e-01 2.999999469052e+01 
7.000000000000e-02 0.000000000000e+00 1.900000000000e-01 3.000000575367e+01 
8.000000000000e-02 0.000000000000e+00 1.900000000000e-01 3.000000230393e+01 
9.000000000000e-02 0.000000000000e+00 1.900000000000e-01 3.000000578593e+01 
1.000000000000e-01 0.000000000000e+00 1.900000000000e-01 2.999999845517e+01 
0.000000000000e+00 0.000000000000e+00 1.800000000000e-01 2.999999972038e+01 
1.000000000000e-02 0.000000000000e+00 1.800000000000e-01 2.999999967957e+01 
2.000000000000e-02 0.000000000000e+00 1.800000000000e-01 2.999999981404e+01 
3.000000000000e-02 0.000000000000e+00 1.800000000000e-01 2.999999932417e+01 
4.000000000000e-02 0.000000000000e+00 1.800000000000e-01 3.000000126439e+01 
5.000000000000e-02 0.000000000000e+00 1.800000000000e-01 2.999999357542e+01 
6.000000000000e-02 0.000000000000e+00 1.800000000000e-01 3.000002115984e+01 
7.000000000000e-02 0.000000000000e+00 1.800000000000e-01 2.999997685025e+01 
8.000000000000e-02 0.000000000000e+00 1.800000000000e-01 2.999999059155e+01 
9.000000000000e-02 0.000000000000e+00 1.800000000000e-01 2.999997684981e+01 
1.000000000000e-01 0.000000000000e+00 1.800000000000e-01 3.000000612767e+01 
0.000000000000e+00 0.000000000000e+00 1.700000000000e-01 3.000000112535e+01 
1.000000000000e-02 0.000000000000e+00 1.700000000000e-01 3.000000128018e+01 
2.000000000000e-02 0.000000000000e+00 1.700000000000e-01 3.000000077413e+01 
3.000000000000e-02 0.000000000000e+00 1.700000000000e-01 3.000000275522e+01 
4.000000000000e-02 0.000000000000e+00 1.700000000000e-01 2.999999486798e+01 
5.000000000000e-02 0.000000000000e+00 1.700000000000e-01 3.000002627223e+01 