 TITLE = "Time curves in points"
 VARIABLES = "TIME "  "DISPLACEMENT_X1"  "DISPLACEMENT_Y1"  "STRESS_XX"  "STRESS_XY"  "STRESS_YY"  "STRESS_ZZ"  "STRAIN_XX"  "STRAIN_XY"  "STRAIN_YY"  "STRAIN_PLS"  p_(1st_Invariant)  q_(2nd_Invariant)   Effective_Strain
 ZONE T="POINT=POINT6"
0.000000000000e+00 0.000000000000e+00 0.000000000000e+00 0.000000000000e+00 0.000000000000e+00 0.000000000000e+00 0.000000000000e+00 0.000000000000e+00 0.000000000000e+00 0.000000000000e+00 0.000000000000e+00 -0.000000000000e+00 0.000000000000e+00  0.000000000000e+00
1.000000000000e-02 7.337146566122e-10 -7.022514125497e-06 7.660205516518e+03 5.850756061731e-02 1.477731632111e+03 3.655174747410e+03 1.869014358917e-04 5.460705657615e-09 -1.016140120473e-04 0.000000000000e+00 -4.264370632013e+03 5.431597984653e+03  2.534745727495e-04
7.000000000000e-02 -6.801745739121e-10 -2.417567286313e-05 7.782086960218e+03 -1.572192801123e-01 -7.060115793298e+03 2.887883051161e+02 3.496872705714e-04 -1.467379947715e-08 -3.429488579260e-04 0.000000000000e+00 -3.369198240119e+02 1.285392739413e+04  5.998499454631e-04
4.300000000000e-01 4.202854652396e-08 -1.270902006634e-04 8.513164672892e+03 3.304994811702e+00 -5.828479139047e+04 -1.990865074628e+04 1.326351386228e-03 3.084661824255e-07 -1.790886563395e-03 0.000000000000e+00 2.322675915462e+04 5.806244380942e+04  2.709580750612e-03
1.430000000000e+00 1.228138571351e-07 -4.129362101535e-04 1.054517721992e+04 9.165688898144e+00 -2.005594605266e+05 -7.600571339750e+04 4.039041562146e-03 8.554642971601e-07 -5.812508199358e-03 0.000000000000e+00 8.867333223472e+04 1.838067751373e+05  8.577649602387e-03
2.430000000000e+00 1.090640391479e-07 -6.987785553852e-04 1.257847074790e+04 8.773866309322e+00 -3.428301433638e+05 -1.321006691169e+05 6.751693193688e-03 8.188941888701e-07 -9.834042131523e-03 0.000000000000e+00 1.541174472442e+05 3.095595647650e+05  1.444611307459e-02
3.430000000000e+00 5.302004360283e-08 -9.846003812983e-04 1.461261751536e+04 4.444982797289e+00 -4.850899756713e+05 -1.881909433150e+05 9.464166172083e-03 4.148650610803e-07 -1.385528817663e-02 0.000000000000e+00 2.195561004903e+05 4.353050662786e+05  2.031423643587e-02
4.430000000000e+00 2.168745000576e-09 -1.270407385196e-03 1.664759162662e+04 1.606520965755e-01 -6.273416919978e+05 -2.442776401754e+05 1.217651081743e-02 1.499419568039e-08 -1.787632241838e-02 0.000000000000e+00 2.849905801822e+05 5.610446692612e+05  2.618208456553e-02
5.430000000000e+00 6.709991958891e-08 -1.556221876471e-03 1.868407001893e+04 5.495620958720e+00 -7.695945248030e+05 -3.003641819110e+05 1.488891842339e-02 5.129246228139e-07 -2.189741600163e-02 0.000000000000e+00 3.504248788983e+05 6.867867372721e+05  3.205004774860e-02
6.430000000000e+00 8.957323887913e-08 -1.842028461665e-03 2.072117712738e+04 7.385517880919e+00 -9.118426948569e+05 -3.564486070579e+05 1.760125659531e-02 6.893150022191e-07 -2.591839076395e-02 0.000000000000e+00 4.158567082625e+05 8.125253886870e+05  3.791785148616e-02
7.430000000000e+00 -2.667713436196e-08 -2.127815329285e-03 2.275821106766e+04 -2.232554455380e+00 -1.054081788780e+06 -4.125294310197e+05 2.031342329741e-02 -2.083717491688e-07 -2.993911002882e-02 0.000000000000e+00 4.812843362440e+05 9.382561335808e+05  4.378528623488e-02
8.430000000000e+00 5.806177555212e-08 -2.413625211692e-03 2.479678053863e+04 4.927120686742e+00 -1.196329019610e+06 -4.686128955320e+05 2.302578488330e-02 4.598645974293e-07 -3.396008579029e-02 0.000000000000e+00 5.467150448676e+05 1.063995320858e+06  4.965311497817e-02
9.430000000000e+00 7.054834672945e-08 -2.699414192208e-03 2.683495561994e+04 5.538814581987e+00 -1.338567120751e+06 -5.246928659259e+05 2.573796500547e-02 5.169560276522e-07 -3.798079855852e-02 0.000000000000e+00 6.121416770191e+05 1.189726243921e+06  5.552055805507e-02
