 TITLE = "Time curves in points"
 VARIABLES = "TIME "  "TEMPERATURE1"  p_(1st_Invariant)  q_(2nd_Invariant)   Effective_Strain
 ZONE T="POINT=POINT6"
0.000000000000e+00 3.000000000000e+01 -0.000000000000e+00 0.000000000000e+00  0.000000000000e+00
1.000000000000e-02 3.000000037347e+01 -4.264370632013e+03 5.431597984653e+03  2.534745727495e-04
7.000000000000e-02 3.000000053884e+01 -3.369198240119e+02 1.285392739413e+04  5.998499454631e-04
4.300000000000e-01 3.000000019752e+01 2.322675915462e+04 5.806244380942e+04  2.709580750612e-03
1.430000000000e+00 3.000000024943e+01 8.867333223472e+04 1.838067751373e+05  8.577649602387e-03
2.430000000000e+00 3.000000023502e+01 1.541174472442e+05 3.095595647650e+05  1.444611307459e-02
3.430000000000e+00 3.000000017536e+01 2.195561004903e+05 4.353050662786e+05  2.031423643587e-02
4.430000000000e+00 3.000000008973e+01 2.849905801822e+05 5.610446692612e+05  2.618208456553e-02
5.430000000000e+00 2.999999999107e+01 3.504248788983e+05 6.867867372721e+05  3.205004774860e-02
6.430000000000e+00 2.999999988715e+01 4.158567082625e+05 8.125253886870e+05  3.791785148616e-02
7.430000000000e+00 2.999999978229e+01 4.812843362440e+05 9.382561335808e+05  4.378528623488e-02
8.430000000000e+00 2.999999967879e+01 5.467150448676e+05 1.063995320858e+06  4.965311497817e-02
9.430000000000e+00 2.999999957779e+01 6.121416770191e+05 1.189726243921e+06  5.552055805507e-02
