VARIABLES  = "X","Y","Z", "TEMPERATURE1"
ZONE T="0.000000000000e+00s", N=121, E=99, F=FEPOINT, ET=QUADRILATERAL
STRANDID=1, SOLUTIONTIME=0.000000000000e+00
9.000000000000e-02 0.000000000000e+00 1.700000000000e-01 3.000000000000e+01 
1.000000000000e-01 0.000000000000e+00 1.700000000000e-01 3.000000000000e+01 
0.000000000000e+00 0.000000000000e+00 1.600000000000e-01 3.000000000000e+01 
1.000000000000e-02 0.000000000000e+00 1.600000000000e-01 3.000000000000e+01 
2.000000000000e-02 0.000000000000e+00 1.600000000000e-01 3.000000000000e+01 
3.000000000000e-02 0.000000000000e+00 1.600000000000e-01 3.000000000000e+01 
4.000000000000e-02 0.000000000000e+00 1.600000000000e-01 3.000000000000e+01 
5.000000000000e-02 0.000000000000e+00 1.600000000000e-01 3.000000000000e+01 
6.000000000000e-02 0.000000000000e+00 1.600000000000e-01 3.000000000000e+01 
7.000000000000e-02 0.000000000000e+00 1.600000000000e-01 3.000000000000e+01 
8.000000000000e-02 0.000000000000e+00 1.600000000000e-01 3.000000000000e+01 
9.000000000000e-02 0.000000000000e+00 1.600000000000e-01 3.000000000000e+01 
1.000000000000e-01 0.000000000000e+00 1.600000000000e-01 3.000000000000e+01 
0.000000000000e+00 0.000000000000e+00 1.500000000000e-01 3.000000000000e+01 
1.000000000000e-02 0.000000000000e+00 1.500000000000e-01 3.000000000000e+01 
2.000000000000e-02 0.000000000000e+00 1.500000000000e-01 3.000000000000e+01 
3.000000000000e-02 0.000000000000e+00 1.500000000000e-01 3.000000000000e+01 
4.000000000000e-02 0.000000000000e+00 1.500000000000e-01 3.000000000000e+01 
5.000000000000e-02 0.000000000000e+00 1.500000000000e-01 3.000000000000e+01 
6.000000000000e-02 0.000000000000e+00 1.500000000000e-01 3.000000000000e+01 
7.000000000000e-02 0.000000000000e+00 1.500000000000e-01 3.000000000000e+01 
8.000000000000e-02 0.000000000000e+00 1.500000000000e-01 3.000000000000e+01 
9.000000000000e-02 0.000000000000e+00 1.500000000000e-01 3.000000000000e+01 
1.000000000000e-01 0.000000000000e+00 1.500000000000e-01 3.000000000000e+01 
0.000000000000e+00 0.000000000000e+00 1.400000000000e-01 3.000000000000e+01 
1.000000000000e-02 0.000000000000e+00 1.400000000000e-01 3.000000000000e+01 
2.000000000000e-02 0.000000000000e+00 1.400000000000e-01 3.000000000000e+01 
3.000000000000e-02 0.000000000000e+00 1.400000000000e-01 3.000000000000e+01 
4.000000000000e-02 0.000000000000e+00 1.400000000000e-01 3.000000000000e+01 
5.000000000000e-02 0.000000000000e+00 1.400000000000e-01 3.000000000000e+01 
6.000000000000e-02 0.000000000000e+00 1.400000000000e-01 3.000000000000e+01 
7.000000000000e-02 0.000000000000e+00 1.400000000000e-01 3.000000000000e+01 
8.000000000000e-02 0.000000000000e+00 1.400000000000e-01 3.000000000000e+01 
9.000000000000e-02 0.000000000000e+00 1.400000000000e-01 3.000000000000e+01 
1.000000000000e-01 0.000000000000e+00 1.400000000000e-01 3.000000000000e+01 
0.000000000000e+00 0.000000000000e+00 1.300000000000e-01 3.000000000000e+01 
1.000000000000e-02 0.000000000000e+00 1.300000000000e-01 3.000000000000e+01 
2.000000000000e-02 0.000000000000e+00 1.300000000000e-01 3.000000000000e+01 
3.000000000000e-02 0.000000000000e+00 1.300000000000e-01 3.000000000000e+01 
4.000000000000e-02 0.000000000000e+00 1.300000000000e-01 3.000000000000e+01 
5.000000000000e-02 0.000000000000e+00 1.300000000000e-01 3.000000000000e+01 
6.000000000000e-02 0.000000000000e+00 1.300000000000e-01 3.000000000000e+01 
7.000000000000e-02 0.000000000000e+00 1.300000000000e-01 3.000000000000e+01 
8.000000000000e-02 0.000000000000e+00 1.300000000000e-01 3.000000000000e+01 
9.000000000000e-02 0.000000000000e+00 1.300000000000e-01 3.000000000000e+01 
1.000000000000e-01 0.000000000000e+00 1.300000000000e-01 3.000000000000e+01 
0.000000000000e+00 0.000000000000e+00 1.200000000000e-01 3.000000000000e+01 
1.000000000000e-02 0.000000000000e+00 1.200000000000e-01 3.000000000000e+01 
2.000000000000e-02 0.000000000000e+00 1.200000000000e-01 3.000000000000e+01 
3.000000000000e-02 0.000000000000e+00 1.200000000000e-01 3.000000000000e+01 
4.000000000000e-02 0.000000000000e+00 1.200000000000e-01 3.000000000000e+01 
5.000000000000e-02 0.000000000000e+00 1.200000000000e-01 3.000000000000e+01 
6.000000000000e-02 0.000000000000e+00 1.200000000000e-01 3.000000000000e+01 
7.000000000000e-02 0.000000000000e+00 1.200000000000e-01 3.000000000000e+01 
8.000000000000e-02 0.000000000000e+00 1.200000000000e-01 3.000000000000e+01 
9.000000000000e-02 0.000000000000e+00 1.200000000000e-01 3.000000000000e+01 
1.000000000000e-01 0.000000000000e+00 1.200000000000e-01 3.000000000000e+01 
0.000000000000e+00 0.000000000000e+00 1.100000000000e-01 3.000000000000e+01 
1.000000000000e-02 0.000000000000e+00 1.100000000000e-01 3.000000000000e+01 
2.000000000000e-02 0.000000000000e+00 1.100000000000e-01 3.000000000000e+01 
3.000000000000e-02 0.000000000000e+00 1.100000000000e-01 3.000000000000e+01 
4.000000000000e-02 0.000000000000e+00 1.100000000000e-01 3.000000000000e+01 
5.000000000000e-02 0.000000000000e+00 1.100000000000e-01 3.000000000000e+01 
6.000000000000e-02 0.000000000000e+00 1.100000000000e-01 3.000000000000e+01 
7.000000000000e-02 0.000000000000e+00 1.100000000000e-01 3.000000000000e+01 
8.000000000000e-02 0.000000000000e+00 1.100000000000e-01 3.000000000000e+01 
9.000000000000e-02 0.000000000000e+00 1.100000000000e-01 3.000000000000e+01 
1.000000000000e-01 0.000000000000e+00 1.100000000000e-01 3.000000000000e+01 
0.000000000000e+00 0.000000000000e+00 1.000000000000e-01 3.000000000000e+01 
1.000000000000e-02 0.000000000000e+00 1.000000000000e-01 3.000000000000e+01 
2.000000000000e-02 0.000000000000e+00 1.000000000000e-01 3.000000000000e+01 
3.000000000000e-02 0.000000000000e+00 1.000000000000e-01 3.000000000000e+01 
4.000000000000e-02 0.000000000000e+00 1.000000000000e-01 3.000000000000e+01 
5.000000000000e-02 0.000000000000e+00 1.000000000000e-01 3.000000000000e+01 
6.000000000000e-02 0.000000000000e+00 1.000000000000e-01 3.000000000000e+01 
7.000000000000e-02 0.000000000000e+00 1.000000000000e-01 3.000000000000e+01 
8.000000000000e-02 0.000000000000e+00 1.000000000000e-01 3.000000000000e+01 
9.000000000000e-02 0.000000000000e+00 1.000000000000e-01 3.000000000000e+01 
1.000000000000e-01 0.000000000000e+00 1.000000000000e-01 3.000000000000e+01 
0.000000000000e+00 0.000000000000e+00 9.000000000000e-02 3.000000000000e+01 
1.000000000000e-02 0.000000000000e+00 9.000000000000e-02 3.000000000000e+01 
2.000000000000e-02 0.000000000000e+00 9.000000000000e-02 3.000000000000e+01 
3.000000000000e-02 0.000000000000e+00 9.000000000000e-02 3.000000000000e+01 
4.000000000000e-02 0.000000000000e+00 9.000000000000e-02 3.000000000000e+01 
5.000000000000e-02 0.000000000000e+00 9.000000000000e-02 3.000000000000e+01 
6.000000000000e-02 0.000000000000e+00 9.000000000000e-02 3.000000000000e+01 
7.000000000000e-02 0.000000000000e+00 9.000000000000e-02 3.000000000000e+01 
8.000000000000e-02 0.000000000000e+00 9.000000000000e-02 3.000000000000e+01 
9.000000000000e-02 0.000000000000e+00 9.000000000000e-02 3.000000000000e+01 
1.000000000000e-01 0.000000000000e+00 9.000000000000e-02 3.000000000000e+01 
0.000000000000e+00 0.000000000000e+00 8.000000000000e-02 3.000000000000e+01 
1.000000000000e-02 0.000000000000e+00 8.000000000000e-02 3.000000000000e+01 
2.000000000000e-02 0.000000000000e+00 8.000000000000e-02 3.000000000000e+01 
3.000000000000e-02 0.000000000000e+00 8.000000000000e-02 3.000000000000e+01 
4.000000000000e-02 0.000000000000e+00 8.000000000000e-02 3.000000000000e+01 
5.000000000000e-02 0.000000000000e+00 8.000000000000e-02 3.000000000000e+01 
6.000000000000e-02 0.000000000000e+00 8.000000000000e-02 3.000000000000e+01 
8.000000000000e-02 0.000000000000e+00 1.700000000000e-01 3.000000000000e+01 
9.000000000000e-02 0.000000000000e+00 1.800000000000e-01 3.000000000000e+01 
8.000000000000e-02 0.000000000000e+00 1.800000000000e-01 3.000000000000e+01 
1.000000000000e-01 0.000000000000e+00 1.800000000000e-01 3.000000000000e+01 
1.000000000000e-02 0.000000000000e+00 1.700000000000e-01 3.000000000000e+01 
0.000000000000e+00 0.000000000000e+00 1.700000000000e-01 3.000000000000e+01 
2.000000000000e-02 0.000000000000e+00 1.700000000000e-01 3.000000000000e+01 
3.000000000000e-02 0.000000000000e+00 1.700000000000e-01 3.000000000000e+01 
4.000000000000e-02 0.000000000000e+00 1.700000000000e-01 3.000000000000e+01 
5.000000000000e-02 0.000000000000e+00 1.700000000000e-01 3.000000000000e+01 
6.000000000000e-02 0.000000000000e+00 1.700000000000e-01 3.000000000000e+01 
7.000000000000e-02 0.000000000000e+00 1.700000000000e-01 3.000000000000e+01 
7.000000000000e-02 0.000000000000e+00 8.000000000000e-02 3.000000000000e+01 
8.000000000000e-02 0.000000000000e+00 8.000000000000e-02 3.000000000000e+01 
9.000000000000e-02 0.000000000000e+00 8.000000000000e-02 3.000000000000e+01 
1.000000000000e-01 0.000000000000e+00 8.000000000000e-02 3.000000000000e+01 
0.000000000000e+00 0.000000000000e+00 7.000000000000e-02 3.000000000000e+01 
1.000000000000e-02 0.000000000000e+00 7.000000000000e-02 3.000000000000e+01 
2.000000000000e-02 0.000000000000e+00 7.000000000000e-02 3.000000000000e+01 
3.000000000000e-02 0.000000000000e+00 7.000000000000e-02 3.000000000000e+01 
4.000000000000e-02 0.000000000000e+00 7.000000000000e-02 3.000000000000e+01 
5.000000000000e-02 0.000000000000e+00 7.000000000000e-02 3.000000000000e+01 
6.000000000000e-02 0.000000000000e+00 7.000000000000e-02 3.000000000000e+01 
7.000000000000e-02 0.000000000000e+00 7.000000000000e-02 3.000000000000e+01 
12  13  2  1  
14  15  4  3  
15  16  5  4  
16  17  6  5  
17  18  7  6  
18  19  8  7  
19  20  9  8  
20  21  10  9  
21  22  11  10  
22  23  12  11  
23  24  13  12  
25  26  15  14  
26  27  16  15  
27  28  17  16  
28  29  18  17  
29  30  19  18  
30  31  20  19  
31  32  21  20  
32  33  22  21  
33  34  23  22  
34  35  24  23  
36  37  26  25  
37  38  27  26  
38  39  28  27  
39  40  29  28  
40  41  30  29  
41  42  31  30  
42  43  32  31  
43  44  33  32  
44  45  34  33  
45  46  35  34  
47  48  37  36  
48  49  38  37  
49  50  39  38  
50  51  40  39  
51  52  41  40  
52  53  42  41  
53  54  43  42  
54  55  44  43  
55  56  45  44  
56  57  46  45  
58  59  48  47  
59  60  49  48  
60  61  50  49  
61  62  51  50  
62  63  52  51  
63  64  53  52  
64  65  54  53  
65  66  55  54  
66  67  56  55  
67  68  57  56  
69  70  59  58  
70  71  60  59  
71  72  61  60  
72  73  62  61  
73  74  63  62  
74  75  64  63  
75  76  65  64  
76  77  66  65  
77  78  67  66  
78  79  68  67  
80  81  70  69  
81  82  71  70  
82  83  72  71  
83  84  73  72  
84  85  74  73  
85  86  75  74  
86  87  76  75  
87  88  77  76  
88  89  78  77  
89  90  79  78  
91  92  81  80  
92  93  82  81  
93  94  83  82  
94  95  84  83  
95  96  85  84  
96  97  86  85  
98  1  99  100  
1  2  101  99  
11  12  1  98  
3  4  102  103  
4  5  104  102  
5  6  105  104  
6  7  106  105  
7  8  107  106  
8  9  108  107  
9  10  109  108  
10  11  98  109  
97  110  87  86  
110  111  88  87  
111  112  89  88  
112  113  90  89  
114  115  92  91  
115  116  93  92  
116  117  94  93  
117  118  95  94  
118  119  96  95  
119  120  97  96  
120  121  110  97  
VARIABLES  = "X","Y","Z", "TEMPERATURE1"
ZONE T="1.000000000000e-02s", N=121, E=99, F=FEPOINT, ET=QUADRILATERAL
STRANDID=1, SOLUTIONTIME=1.000000000000e-02
9.000000000000e-02 0.000000000000e+00 1.700000000000e-01 3.000001125569e+01 
1.000000000000e-01 0.000000000000e+00 1.700000000000e-01 2.999995840927e+01 
0.000000000000e+00 0.000000000000e+00 1.600000000000e-01 3.000000082996e+01 
1.000000000000e-02 0.000000000000e+00 1.600000000000e-01 3.000000068829e+01 
2.000000000000e-02 0.000000000000e+00 1.600000000000e-01 3.000000111860e+01 
3.000000000000e-02 0.000000000000e+00 1.600000000000e-01 2.999999953110e+01 
4.000000000000e-02 0.000000000000e+00 1.600000000000e-01 3.000000551223e+01 
5.000000000000e-02 0.000000000000e+00 1.600000000000e-01 2.999998295114e+01 
6.000000000000e-02 0.000000000000e+00 1.600000000000e-01 3.000001616278e+01 
7.000000000000e-02 0.000000000000e+00 1.600000000000e-01 2.999998430114e+01 
8.000000000000e-02 0.000000000000e+00 1.600000000000e-01 2.999999492540e+01 
9.000000000000e-02 0.000000000000e+00 1.600000000000e-01 2.999998390419e+01 
1.000000000000e-01 0.000000000000e+00 1.600000000000e-01 3.000001102398e+01 
0.000000000000e+00 0.000000000000e+00 1.500000000000e-01 2.999999978018e+01 
1.000000000000e-02 0.000000000000e+00 1.500000000000e-01 2.999999981776e+01 
2.000000000000e-02 0.000000000000e+00 1.500000000000e-01 2.999999970358e+01 
3.000000000000e-02 0.000000000000e+00 1.500000000000e-01 3.000000012451e+01 
4.000000000000e-02 0.000000000000e+00 1.500000000000e-01 2.999999853891e+01 
5.000000000000e-02 0.000000000000e+00 1.500000000000e-01 3.000000451890e+01 
6.000000000000e-02 0.000000000000e+00 1.500000000000e-01 2.999999571601e+01 
7.000000000000e-02 0.000000000000e+00 1.500000000000e-01 3.000000416135e+01 
8.000000000000e-02 0.000000000000e+00 1.500000000000e-01 3.000000134498e+01 
9.000000000000e-02 0.000000000000e+00 1.500000000000e-01 3.000000426648e+01 
1.000000000000e-01 0.000000000000e+00 1.500000000000e-01 2.999999707834e+01 
0.000000000000e+00 0.000000000000e+00 1.400000000000e-01 3.000000005855e+01 
1.000000000000e-02 0.000000000000e+00 1.400000000000e-01 3.000000004872e+01 
2.000000000000e-02 0.000000000000e+00 1.400000000000e-01 3.000000007890e+01 
3.000000000000e-02 0.000000000000e+00 1.400000000000e-01 2.999999996730e+01 
4.000000000000e-02 0.000000000000e+00 1.400000000000e-01 3.000000038769e+01 
5.000000000000e-02 0.000000000000e+00 1.400000000000e-01 2.999999880249e+01 
6.000000000000e-02 0.000000000000e+00 1.400000000000e-01 3.000000113632e+01 
7.000000000000e-02 0.000000000000e+00 1.400000000000e-01 2.999999889615e+01 
8.000000000000e-02 0.000000000000e+00 1.400000000000e-01 2.999999964251e+01 
9.000000000000e-02 0.000000000000e+00 1.400000000000e-01 2.999999886852e+01 
1.000000000000e-01 0.000000000000e+00 1.400000000000e-01 3.000000077349e+01 
0.000000000000e+00 0.000000000000e+00 1.300000000000e-01 2.999999998361e+01 
1.000000000000e-02 0.000000000000e+00 1.300000000000e-01 2.999999998633e+01 
2.000000000000e-02 0.000000000000e+00 1.300000000000e-01 2.999999997822e+01 
3.000000000000e-02 0.000000000000e+00 1.300000000000e-01 3.000000000787e+01 
4.000000000000e-02 0.000000000000e+00 1.300000000000e-01 2.999999989626e+01 
5.000000000000e-02 0.000000000000e+00 1.300000000000e-01 3.000000031706e+01 
6.000000000000e-02 0.000000000000e+00 1.300000000000e-01 2.999999969610e+01 
7.000000000000e-02 0.000000000000e+00 1.300000000000e-01 3.000000029647e+01 
8.000000000000e-02 0.000000000000e+00 1.300000000000e-01 3.000000009939e+01 
9.000000000000e-02 0.000000000000e+00 1.300000000000e-01 3.000000030339e+01 
1.000000000000e-01 0.000000000000e+00 1.300000000000e-01 2.999999979877e+01 
0.000000000000e+00 0.000000000000e+00 1.200000000000e-01 3.000000000801e+01 
1.000000000000e-02 0.000000000000e+00 1.200000000000e-01 3.000000000739e+01 
2.000000000000e-02 0.000000000000e+00 1.200000000000e-01 3.000000000948e+01 
3.000000000000e-02 0.000000000000e+00 1.200000000000e-01 3.000000000147e+01 
4.000000000000e-02 0.000000000000e+00 1.200000000000e-01 3.000000003169e+01 
5.000000000000e-02 0.000000000000e+00 1.200000000000e-01 2.999999991778e+01 
6.000000000000e-02 0.000000000000e+00 1.200000000000e-01 3.000000009131e+01 
7.000000000000e-02 0.000000000000e+00 1.200000000000e-01 2.999999990725e+01 
8.000000000000e-02 0.000000000000e+00 1.200000000000e-01 2.999999995645e+01 
9.000000000000e-02 0.000000000000e+00 1.200000000000e-01 2.999999990727e+01 
1.000000000000e-01 0.000000000000e+00 1.200000000000e-01 3.000000003934e+01 
0.000000000000e+00 0.000000000000e+00 1.100000000000e-01 2.999999998437e+01 
1.000000000000e-02 0.000000000000e+00 1.100000000000e-01 2.999999998471e+01 
2.000000000000e-02 0.000000000000e+00 1.100000000000e-01 2.999999998390e+01 
3.000000000000e-02 0.000000000000e+00 1.100000000000e-01 2.999999998667e+01 
4.000000000000e-02 0.000000000000e+00 1.100000000000e-01 2.999999997627e+01 
5.000000000000e-02 0.000000000000e+00 1.100000000000e-01 3.000000001545e+01 
6.000000000000e-02 0.000000000000e+00 1.100000000000e-01 2.999999993568e+01 
7.000000000000e-02 0.000000000000e+00 1.100000000000e-01 3.000000007857e+01 
8.000000000000e-02 0.000000000000e+00 1.100000000000e-01 3.000000007689e+01 
9.000000000000e-02 0.000000000000e+00 1.100000000000e-01 3.000000007198e+01 
1.000000000000e-01 0.000000000000e+00 1.100000000000e-01 3.000000004272e+01 
0.000000000000e+00 0.000000000000e+00 1.000000000000e-01 3.000000005544e+01 
1.000000000000e-02 0.000000000000e+00 1.000000000000e-01 3.000000005525e+01 
2.000000000000e-02 0.000000000000e+00 1.000000000000e-01 3.000000005598e+01 
3.000000000000e-02 0.000000000000e+00 1.000000000000e-01 3.000000005288e+01 
4.000000000000e-02 0.000000000000e+00 1.000000000000e-01 3.000000006464e+01 
5.000000000000e-02 0.000000000000e+00 1.000000000000e-01 3.000000002039e+01 
6.000000000000e-02 0.000000000000e+00 1.000000000000e-01 3.000000016893e+01 
7.000000000000e-02 0.000000000000e+00 1.000000000000e-01 2.999999977603e+01 
8.000000000000e-02 0.000000000000e+00 1.000000000000e-01 2.999999973346e+01 
9.000000000000e-02 0.000000000000e+00 1.000000000000e-01 2.999999980289e+01 
1.000000000000e-01 0.000000000000e+00 1.000000000000e-01 2.999999978833e+01 
0.000000000000e+00 0.000000000000e+00 9.000000000000e-02 2.999999979207e+01 
1.000000000000e-02 0.000000000000e+00 9.000000000000e-02 2.999999979306e+01 
2.000000000000e-02 0.000000000000e+00 9.000000000000e-02 2.999999979038e+01 
3.000000000000e-02 0.000000000000e+00 9.000000000000e-02 2.999999980025e+01 
4.000000000000e-02 0.000000000000e+00 9.000000000000e-02 2.999999976317e+01 
5.000000000000e-02 0.000000000000e+00 9.000000000000e-02 2.999999990266e+01 
6.000000000000e-02 0.000000000000e+00 9.000000000000e-02 2.999999938262e+01 
7.000000000000e-02 0.000000000000e+00 9.000000000000e-02 3.000000082639e+01 
8.000000000000e-02 0.000000000000e+00 9.000000000000e-02 3.000000099972e+01 
9.000000000000e-02 0.000000000000e+00 9.000000000000e-02 3.000000072524e+01 
1.000000000000e-01 0.000000000000e+00 9.000000000000e-02 3.000000081272e+01 
0.000000000000e+00 0.000000000000e+00 8.000000000000e-02 3.000000078461e+01 
1.000000000000e-02 0.000000000000e+00 8.000000000000e-02 3.000000078124e+01 
2.000000000000e-02 0.000000000000e+00 8.000000000000e-02 3.000000079120e+01 
3.000000000000e-02 0.000000000000e+00 8.000000000000e-02 3.000000075450e+01 
4.000000000000e-02 0.000000000000e+00 8.000000000000e-02 3.000000089240e+01 
5.000000000000e-02 0.000000000000e+00 8.000000000000e-02 3.000000037347e+01 
6.000000000000e-02 0.000000000000e+00 8.000000000000e-02 3.000000232477e+01 
8.000000000000e-02 0.000000000000e+00 1.700000000000e-01 3.000000682411e+01 
9.000000000000e-02 0.000000000000e+00 1.800000000000e-01 2.999998389825e+01 
8.000000000000e-02 0.000000000000e+00 1.800000000000e-01 2.999999494729e+01 
1.000000000000e-01 0.000000000000e+00 1.800000000000e-01 3.000000438081e+01 
1.000000000000e-02 0.000000000000e+00 1.700000000000e-01 3.000000088708e+01 
0.000000000000e+00 0.000000000000e+00 1.700000000000e-01 3.000000073164e+01 
2.000000000000e-02 0.000000000000e+00 1.700000000000e-01 3.000000041482e+01 
3.000000000000e-02 0.000000000000e+00 1.700000000000e-01 3.000000213587e+01 
4.000000000000e-02 0.000000000000e+00 1.700000000000e-01 2.999999565290e+01 
5.000000000000e-02 0.000000000000e+00 1.700000000000e-01 3.000002010042e+01 
6.000000000000e-02 0.000000000000e+00 1.700000000000e-01 2.999996342687e+01 
7.000000000000e-02 0.000000000000e+00 1.700000000000e-01 3.000002257259e+01 
7.000000000000e-02 0.000000000000e+00 8.000000000000e-02 3.000000169294e+01 
8.000000000000e-02 0.000000000000e+00 8.000000000000e-02 3.000000007928e+01 
9.000000000000e-02 0.000000000000e+00 8.000000000000e-02 3.000000098239e+01 
1.000000000000e-01 0.000000000000e+00 8.000000000000e-02 3.000000068485e+01 
0.000000000000e+00 0.000000000000e+00 7.000000000000e-02 3.000000078391e+01 
1.000000000000e-02 0.000000000000e+00 7.000000000000e-02 3.000000078205e+01 
2.000000000000e-02 0.000000000000e+00 7.000000000000e-02 3.000000078770e+01 
3.000000000000e-02 0.000000000000e+00 7.000000000000e-02 3.000000076700e+01 
4.000000000000e-02 0.000000000000e+00 7.000000000000e-02 3.000000084479e+01 
5.000000000000e-02 0.000000000000e+00 7.000000000000e-02 3.000000055201e+01 
6.000000000000e-02 0.000000000000e+00 7.000000000000e-02 3.000000165625e+01 
7.000000000000e-02 0.000000000000e+00 7.000000000000e-02 2.999999952748e+01 
12  13  2  1  
14  15  4  3  
15  16  5  4  
16  17  6  5  
17  18  7  6  
18  19  8  7  
19  20  9  8  
20  21  10  9  
21  22  11  10  
22  23  12  11  
23  24  13  12  
25  26  15  14  
26  27  16  15  
27  28  17  16  
28  29  18  17  
29  30  19  18  
30  31  20  19  
31  32  21  20  
32  33  22  21  
33  34  23  22  
34  35  24  23  
36  37  26  25  
37  38  27  26  
38  39  28  27  
39  40  29  28  
40  41  30  29  
41  42  31  30  
42  43  32  31  
43  44  33  32  
44  45  34  33  
45  46  35  34  
47  48  37  36  
48  49  38  37  
49  50  39  38  
50  51  40  39  
51  52  41  40  
52  53  42  41  
53  54  43  42  
54  55  44  43  
55  56  45  44  
56  57  46  45  
58  59  48  47  
59  60  49  48  
60  61  50  49  
61  62  51  50  
62  63  52  51  
63  64  53  52  
64  65  54  53  
65  66  55  54  
66  67  56  55  
67  68  57  56  
69  70  59  58  
70  71  60  59  
71  72  61  60  
72  73  62  61  
73  74  63  62  
74  75  64  63  
75  76  65  64  
76  77  66  65  
77  78  67  66  
78  79  68  67  
80  81  70  69  
81  82  71  70  
82  83  72  71  
83  84  73  72  
84  85  74  73  
85  86  75  74  
86  87  76  75  
87  88  77  76  
88  89  78  77  
89  90  79  78  
91  92  81  80  
92  93  82  81  
93  94  83  82  
94  95  84  83  
95  96  85  84  
96  97  86  85  
98  1  99  100  
1  2  101  99  
11  12  1  98  
3  4  102  103  
4  5  104  102  
5  6  105  104  
6  7  106  105  
7  8  107  106  
8  9  108  107  
9  10  109  108  
10  11  98  109  
97  110  87  86  
110  111  88  87  
111  112  89  88  
112  113  90  89  
114  115  92  91  
115  116  93  92  
116  117  94  93  
117  118  95  94  
118  119  96  95  
119  120  97  96  
120  121  110  97  
VARIABLES  = "X","Y","Z", "TEMPERATURE1"
ZONE T="7.000000000000e-02s", N=121, E=99, F=FEPOINT, ET=QUADRILATERAL
STRANDID=1, SOLUTIONTIME=7.000000000000e-02
9.000000000000e-02 0.000000000000e+00 1.700000000000e-01 3.000001692842e+01 
1.000000000000e-01 0.000000000000e+00 1.700000000000e-01 2.999993946378e+01 
0.000000000000e+00 0.000000000000e+00 1.600000000000e-01 3.000000122255e+01 
1.000000000000e-02 0.000000000000e+00 1.600000000000e-01 3.000000106843e+01 
2.000000000000e-02 0.000000000000e+00 1.600000000000e-01 3.000000156939e+01 
3.000000000000e-02 0.000000000000e+00 1.600000000000e-01 2.999999960227e+01 
4.000000000000e-02 0.000000000000e+00 1.600000000000e-01 3.000000745269e+01 
5.000000000000e-02 0.000000000000e+00 1.600000000000e-01 2.999997608982e+01 
6.000000000000e-02 0.000000000000e+00 1.600000000000e-01 3.000002095625e+01 
7.000000000000e-02 0.000000000000e+00 1.600000000000e-01 2.999997690111e+01 
8.000000000000e-02 0.000000000000e+00 1.600000000000e-01 2.999999054720e+01 
9.000000000000e-02 0.000000000000e+00 1.600000000000e-01 2.999997695648e+01 
1.000000000000e-01 0.000000000000e+00 1.600000000000e-01 3.000001470994e+01 
0.000000000000e+00 0.000000000000e+00 1.500000000000e-01 2.999999969615e+01 
1.000000000000e-02 0.000000000000e+00 1.500000000000e-01 2.999999973551e+01 
2.000000000000e-02 0.000000000000e+00 1.500000000000e-01 2.999999960771e+01 
3.000000000000e-02 0.000000000000e+00 1.500000000000e-01 3.000000010455e+01 
4.000000000000e-02 0.000000000000e+00 1.500000000000e-01 2.999999813163e+01 
5.000000000000e-02 0.000000000000e+00 1.500000000000e-01 3.000000597320e+01 
6.000000000000e-02 0.000000000000e+00 1.500000000000e-01 2.999999476384e+01 
7.000000000000e-02 0.000000000000e+00 1.500000000000e-01 3.000000576995e+01 
8.000000000000e-02 0.000000000000e+00 1.500000000000e-01 3.000000234282e+01 
9.000000000000e-02 0.000000000000e+00 1.500000000000e-01 3.000000575264e+01 
1.000000000000e-01 0.000000000000e+00 1.500000000000e-01 2.999999631971e+01 
0.000000000000e+00 0.000000000000e+00 1.400000000000e-01 3.000000007505e+01 
1.000000000000e-02 0.000000000000e+00 1.400000000000e-01 3.000000006636e+01 
2.000000000000e-02 0.000000000000e+00 1.400000000000e-01 3.000000009779e+01 
3.000000000000e-02 0.000000000000e+00 1.400000000000e-01 2.999999997255e+01 
4.000000000000e-02 0.000000000000e+00 1.400000000000e-01 3.000000046825e+01 
5.000000000000e-02 0.000000000000e+00 1.400000000000e-01 2.999999850830e+01 
6.000000000000e-02 0.000000000000e+00 1.400000000000e-01 3.000000130815e+01 
7.000000000000e-02 0.000000000000e+00 1.400000000000e-01 2.999999855818e+01 
8.000000000000e-02 0.000000000000e+00 1.400000000000e-01 2.999999941793e+01 
9.000000000000e-02 0.000000000000e+00 1.400000000000e-01 2.999999856441e+01 
1.000000000000e-01 0.000000000000e+00 1.400000000000e-01 3.000000091862e+01 
0.000000000000e+00 0.000000000000e+00 1.300000000000e-01 2.999999997979e+01 
1.000000000000e-02 0.000000000000e+00 1.300000000000e-01 2.999999998306e+01 
2.000000000000e-02 0.000000000000e+00 1.300000000000e-01 2.999999997416e+01 
3.000000000000e-02 0.000000000000e+00 1.300000000000e-01 3.000000000598e+01 
4.000000000000e-02 0.000000000000e+00 1.300000000000e-01 2.999999988131e+01 
5.000000000000e-02 0.000000000000e+00 1.300000000000e-01 3.000000037164e+01 
6.000000000000e-02 0.000000000000e+00 1.300000000000e-01 2.999999967005e+01 
7.000000000000e-02 0.000000000000e+00 1.300000000000e-01 3.000000036377e+01 
8.000000000000e-02 0.000000000000e+00 1.300000000000e-01 3.000000014905e+01 
9.000000000000e-02 0.000000000000e+00 1.300000000000e-01 3.000000036246e+01 
1.000000000000e-01 0.000000000000e+00 1.300000000000e-01 2.999999977410e+01 
0.000000000000e+00 0.000000000000e+00 1.200000000000e-01 3.000000000867e+01 
1.000000000000e-02 0.000000000000e+00 1.200000000000e-01 3.000000000895e+01 
2.000000000000e-02 0.000000000000e+00 1.200000000000e-01 3.000000001026e+01 
3.000000000000e-02 0.000000000000e+00 1.200000000000e-01 3.000000000223e+01 
4.000000000000e-02 0.000000000000e+00 1.200000000000e-01 3.000000003428e+01 
5.000000000000e-02 0.000000000000e+00 1.200000000000e-01 2.999999990896e+01 
6.000000000000e-02 0.000000000000e+00 1.200000000000e-01 3.000000009499e+01 
7.000000000000e-02 0.000000000000e+00 1.200000000000e-01 2.999999989258e+01 
8.000000000000e-02 0.000000000000e+00 1.200000000000e-01 2.999999994109e+01 
9.000000000000e-02 0.000000000000e+00 1.200000000000e-01 2.999999989462e+01 
1.000000000000e-01 0.000000000000e+00 1.200000000000e-01 3.000000003848e+01 
0.000000000000e+00 0.000000000000e+00 1.100000000000e-01 2.999999998028e+01 
1.000000000000e-02 0.000000000000e+00 1.100000000000e-01 2.999999998137e+01 
2.000000000000e-02 0.000000000000e+00 1.100000000000e-01 2.999999998002e+01 
3.000000000000e-02 0.000000000000e+00 1.100000000000e-01 2.999999998299e+01 
4.000000000000e-02 0.000000000000e+00 1.100000000000e-01 2.999999997193e+01 
5.000000000000e-02 0.000000000000e+00 1.100000000000e-01 3.000000001477e+01 
6.000000000000e-02 0.000000000000e+00 1.100000000000e-01 2.999999992423e+01 
7.000000000000e-02 0.000000000000e+00 1.100000000000e-01 3.000000009295e+01 
8.000000000000e-02 0.000000000000e+00 1.100000000000e-01 3.000000010092e+01 
9.000000000000e-02 0.000000000000e+00 1.100000000000e-01 3.000000008996e+01 
1.000000000000e-01 0.000000000000e+00 1.100000000000e-01 3.000000005978e+01 
0.000000000000e+00 0.000000000000e+00 1.000000000000e-01 3.000000007275e+01 
1.000000000000e-02 0.000000000000e+00 1.000000000000e-01 3.000000007330e+01 
2.000000000000e-02 0.000000000000e+00 1.000000000000e-01 3.000000007317e+01 
3.000000000000e-02 0.000000000000e+00 1.000000000000e-01 3.000000006956e+01 
4.000000000000e-02 0.000000000000e+00 1.000000000000e-01 3.000000008428e+01 
5.000000000000e-02 0.000000000000e+00 1.000000000000e-01 3.000000002759e+01 
6.000000000000e-02 0.000000000000e+00 1.000000000000e-01 3.000000022662e+01 
7.000000000000e-02 0.000000000000e+00 1.000000000000e-01 2.999999971036e+01 
8.000000000000e-02 0.000000000000e+00 1.000000000000e-01 2.999999962631e+01 
9.000000000000e-02 0.000000000000e+00 1.000000000000e-01 2.999999972365e+01 
1.000000000000e-01 0.000000000000e+00 1.000000000000e-01 2.999999970221e+01 
0.000000000000e+00 0.000000000000e+00 9.000000000000e-02 2.999999970634e+01 
1.000000000000e-02 0.000000000000e+00 9.000000000000e-02 2.999999970869e+01 
2.000000000000e-02 0.000000000000e+00 9.000000000000e-02 2.999999970506e+01 
3.000000000000e-02 0.000000000000e+00 9.000000000000e-02 2.999999971830e+01 
4.000000000000e-02 0.000000000000e+00 9.000000000000e-02 2.999999966730e+01 
5.000000000000e-02 0.000000000000e+00 9.000000000000e-02 2.999999986448e+01 
6.000000000000e-02 0.000000000000e+00 9.000000000000e-02 2.999999910962e+01 
7.000000000000e-02 0.000000000000e+00 9.000000000000e-02 3.000000114055e+01 
8.000000000000e-02 0.000000000000e+00 9.000000000000e-02 3.000000148937e+01 
9.000000000000e-02 0.000000000000e+00 9.000000000000e-02 3.000000109545e+01 
1.000000000000e-01 0.000000000000e+00 9.000000000000e-02 3.000000121127e+01 
0.000000000000e+00 0.000000000000e+00 8.000000000000e-02 3.000000117742e+01 
1.000000000000e-02 0.000000000000e+00 8.000000000000e-02 3.000000117140e+01 
2.000000000000e-02 0.000000000000e+00 8.000000000000e-02 3.000000118574e+01 
3.000000000000e-02 0.000000000000e+00 8.000000000000e-02 3.000000113268e+01 
4.000000000000e-02 0.000000000000e+00 8.000000000000e-02 3.000000133838e+01 
5.000000000000e-02 0.000000000000e+00 8.000000000000e-02 3.000000053884e+01 
6.000000000000e-02 0.000000000000e+00 8.000000000000e-02 3.000000363386e+01 