 TITLE = "Time curves in points"
 VARIABLES = "TIME "  "DISPLACEMENT_X1"  "DISPLACEMENT_Y1"  "STRESS_XX"  "STRESS_XY"  "STRESS_YY"  "STRESS_ZZ"  "STRAIN_XX"  "STRAIN_XY"  "STRAIN_YY"  "STRAIN_PLS"  p_(1st_Invariant)  q_(2nd_Invariant)   Effective_Strain
 ZONE T="POINT=POINT6"
0.000000000000e+00 0.000000000000e+00 0.000000000000e+00 0.000000000000e+00 0.000000000000e+00 0.000000000000e+00 0.000000000000e+00 0.000000000000e+00 0.000000000000e+00 0.000000000000e+00 0.000000000000e+00 -0.000000000000e+00 0.000000000000e+00  0.000000000000e+00
1.000000000000e-02 1.189492739824e-09 1.307403785394e-06 -7.619572177404e+03 6.724357180047e-02 -4.322150790921e+03 -4.776689299372e+03 -1.326678676415e-04 6.276066701377e-09 2.121179706106e-05 0.000000000000e+00 5.572804089232e+03 3.095284812505e+03  1.444466248903e-04
7.000000000000e-02 6.563299239347e-09 -7.505626400944e-06 -2.277754649649e+04 4.295068921166e-01 -1.865367485059e+04 -1.657248870048e+04 -2.895693638138e-04 4.008730993088e-08 -9.712202033846e-05 0.000000000000e+00 1.933457001585e+04 5.469935854375e+03  2.552636802865e-04
4.200845218825e-01 -1.452550766438e-09 -9.083145066011e-05 -5.262693935289e+04 -4.450457736278e-01 -8.001329116819e+04 -5.305609225595e+04 2.002713547643e-05 -4.153760553860e-08 -1.258002615905e-03 0.000000000000e+00 6.189877425901e+04 2.717431703234e+04  1.268134796373e-03
1.420084521883e+00 1.233579687863e-07 -3.430634072296e-04 -1.117188077214e+05 8.986679742155e+00 -2.453188297428e+05 -1.428150550496e+05 1.451158208653e-03 8.387567759345e-07 -4.783509485683e-03 0.000000000000e+00 1.666175641713e+05 1.210846125504e+05  5.650615392417e-03
2.420084521883e+00 3.177107792132e-07 -5.616855548182e-04 -2.319357179242e+05 2.311146541704e+01 -4.336608537465e+05 -2.662386287296e+05 1.600802504251e-03 2.157070105590e-06 -7.813037167457e-03 0.000000000000e+00 3.106117334667e+05 1.869490903250e+05  8.724291481834e-03
3.420084521883e+00 5.985404731851e-07 -7.131069469283e-04 -4.744044161714e+05 4.271712124106e+01 -6.680845122234e+05 -4.569955714028e+05 -8.124127558702e-04 3.986931315832e-06 -9.850817238295e-03 0.000000000000e+00 5.331614999325e+05 2.029453120525e+05  9.470783117299e-03
4.420084521883e+00 1.258479060809e-06 -7.301384378892e-04 -9.613770433040e+05 8.980882989215e+01 -9.946787734777e+05 -7.824223267330e+05 -8.351220106646e-03 8.382157456601e-06 -9.905300848089e-03 0.000000000000e+00 9.128260478382e+05 1.977203117968e+05  9.226956450399e-03
5.420084521883e+00 2.453914687587e-06 -4.783902722749e-04 -1.937358722817e+06 1.743998416148e+02 -1.505616449662e+06 -1.377190068983e+06 -2.614120384557e-02 1.627731855071e-05 -5.993231098356e-03 0.000000000000e+00 1.606721747154e+06 5.082734642457e+05  2.371944089795e-02
6.420084521883e+00 4.957897209498e-06 3.109069021312e-04 -3.891358814856e+06 3.528739894269e+02 -2.385245669382e+06 -2.510641793656e+06 -6.443346098932e-02 3.293490567984e-05 5.851819132787e-03 0.000000000000e+00 2.929082092631e+06 1.447494600111e+06  6.754976607034e-02
7.420084521883e+00 1.006627703476e-05 2.175305849965e-03 -7.801396489172e+06 7.176771320654e+02 -4.002258126188e+06 -4.721461846074e+06 -1.437302833446e-01 6.698319899277e-05 3.356284026136e-02 0.000000000000e+00 5.508372153811e+06 3.495476132655e+06  1.631222504675e-01
8.420084521883e+00 2.026042412654e-05 6.189901992641e-03 -1.562350977009e+07 1.444914321992e+03 -7.094040249559e+06 -9.087020007760e+06 -3.050361889089e-01 1.348586700526e-04 9.300572204941e-02 0.000000000000e+00 1.060152334247e+07 7.728179913734e+06  3.606484527060e-01
9.420084521883e+00 4.073553751845e-05 1.450488773107e-02 -3.126977431396e+07 2.908837361427e+03 -1.313536445897e+07 -1.776205550904e+07 -6.303602108961e-01 2.714914870665e-04 2.159122490032e-01 0.000000000000e+00 2.072239809399e+07 1.632056385273e+07  7.616264220011e-01
