 TITLE = "Time curves in points"
 VARIABLES = "TIME "  "WATER1"  "PRESSURE1"  "TEMPERATURE1"  "VELOCITY_X1"  "VELOCITY_Y1"  "VELOCITY_Z1" 
 ZONE T="POINT=POINT2"
0.000000000000e+00 0.000000000000e+00 1.013250000000e+05 3.181500000000e+02 0.000000000000e+00 0.000000000000e+00 0.000000000000e+00 
8.640000000000e+04 5.553105319962e-08 1.061353834215e+04 3.181500000000e+02 1.066699998452e-08 0.000000000000e+00 0.000000000000e+00 
1.728000000000e+05 5.972853169031e-07 1.061353836443e+04 3.181500000000e+02 1.066700000699e-08 0.000000000000e+00 0.000000000000e+00 
2.592000000000e+05 3.090740161856e-06 1.061353833297e+04 3.181500000000e+02 1.066699997539e-08 0.000000000000e+00 0.000000000000e+00 
3.456000000000e+05 1.103725334901e-05 1.061353835946e+04 3.181500000000e+02 1.066700000225e-08 0.000000000000e+00 0.000000000000e+00 
4.320000000000e+05 3.099968743696e-05 1.061353837192e+04 3.181500000000e+02 1.066700001464e-08 0.000000000000e+00 0.000000000000e+00 
5.184000000000e+05 7.330944510044e-05 1.061353836989e+04 3.181500000000e+02 1.066700001256e-08 0.000000000000e+00 0.000000000000e+00 
6.048000000000e+05 1.522000374845e-04 1.061353837149e+04 3.181500000000e+02 1.066700001407e-08 0.000000000000e+00 0.000000000000e+00 
6.912000000000e+05 2.853104337716e-04 1.061353835352e+04 3.181500000000e+02 1.066699999630e-08 0.000000000000e+00 0.000000000000e+00 
7.776000000000e+05 4.926827045270e-04 1.061353836580e+04 3.181500000000e+02 1.066700000844e-08 0.000000000000e+00 0.000000000000e+00 
8.640000000000e+05 7.954072440030e-04 3.502606411213e-32 3.181500000000e+02 3.666995956119e-44 0.000000000000e+00 0.000000000000e+00 
9.504000000000e+05 1.183741369252e-03 -7.812336109991e-69 3.181500000000e+02 -7.327685589829e-81 0.000000000000e+00 0.000000000000e+00 
1.036800000000e+06 1.686484253106e-03 7.128089231398e-105 3.181500000000e+02 7.332273558656e-117 0.000000000000e+00 0.000000000000e+00 
1.123200000000e+06 2.313271255415e-03 2.307879703014e-141 3.181500000000e+02 2.293894388728e-153 0.000000000000e+00 0.000000000000e+00 
1.209600000000e+06 3.068719630592e-03 1.068387020274e-180 3.181500000000e+02 1.155095962468e-192 0.000000000000e+00 0.000000000000e+00 
1.296000000000e+06 3.951774237283e-03 -4.847784962297e-217 3.181500000000e+02 -4.911414290100e-229 0.000000000000e+00 0.000000000000e+00 
1.382400000000e+06 4.955690101656e-03 3.949037218958e-253 3.181500000000e+02 3.938000640806e-265 0.000000000000e+00 0.000000000000e+00 
1.468800000000e+06 6.068632756107e-03 -3.741328748042e-290 3.181500000000e+02 -3.577343210647e-302 0.000000000000e+00 0.000000000000e+00 
1.555200000000e+06 7.274744176414e-03 2.032333285813e-313 3.181500000000e+02 0.000000000000e+00 0.000000000000e+00 0.000000000000e+00 
1.641600000000e+06 8.555456961358e-03 1.744637678420e-312 3.181500000000e+02 0.000000000000e+00 0.000000000000e+00 0.000000000000e+00 
1.728000000000e+06 9.890843196803e-03 -1.063418013574e-312 3.181500000000e+02 0.000000000000e+00 0.000000000000e+00 0.000000000000e+00 
1.814400000000e+06 1.126083336164e-02 -4.761539918080e-312 3.181500000000e+02 0.000000000000e+00 0.000000000000e+00 0.000000000000e+00 
1.900800000000e+06 1.264620609081e-02 5.488947525763e-314 3.181500000000e+02 0.000000000000e+00 0.000000000000e+00 0.000000000000e+00 
1.987200000000e+06 1.402931036371e-02 -3.942019874905e-312 3.181500000000e+02 0.000000000000e+00 0.000000000000e+00 0.000000000000e+00 
2.073600000000e+06 1.539452698295e-02 4.360294470734e-313 3.181500000000e+02 0.000000000000e+00 0.000000000000e+00 0.000000000000e+00 
2.160000000000e+06 1.672850376129e-02 1.837617943217e-312 3.181500000000e+02 0.000000000000e+00 0.000000000000e+00 0.000000000000e+00 
2.246400000000e+06 1.802021124007e-02 -9.044959739111e-313 3.181500000000e+02 0.000000000000e+00 0.000000000000e+00 0.000000000000e+00 
2.332800000000e+06 1.926086743869e-02 -7.484082028277e-313 3.181500000000e+02 0.000000000000e+00 0.000000000000e+00 0.000000000000e+00 
2.419200000000e+06 2.044377541858e-02 -2.995755447442e-313 3.181500000001e+02 0.000000000000e+00 0.000000000000e+00 0.000000000000e+00 
2.505600000000e+06 2.156410973971e-02 3.516687293532e-312 3.181500000001e+02 0.000000000000e+00 0.000000000000e+00 0.000000000000e+00 
2.592000000000e+06 2.261867947608e-02 -6.621575502567e-312 3.181500000001e+02 0.000000000000e+00 0.000000000000e+00 0.000000000000e+00 
2.678400000000e+06 2.360568765939e-02 -9.835011036501e-313 3.181500000001e+02 0.000000000000e+00 0.000000000000e+00 0.000000000000e+00 
2.764800000000e+06 2.452450045598e-02 8.189498194387e-315 3.181500000001e+02 0.000000000000e+00 0.000000000000e+00 0.000000000000e+00 
2.851200000000e+06 2.537543422220e-02 2.025195644668e-312 3.181500000001e+02 0.000000000000e+00 0.000000000000e+00 0.000000000000e+00 
2.937600000000e+06 2.615956474788e-02 3.129877605849e-314 3.181500000001e+02 0.000000000000e+00 0.000000000000e+00 0.000000000000e+00 
3.024000000000e+06 2.687856029166e-02 -9.239045342350e-314 3.181500000001e+02 0.000000000000e+00 0.000000000000e+00 0.000000000000e+00 
3.110400000000e+06 2.753453820507e-02 -2.321211851069e-312 3.181500000001e+02 0.000000000000e+00 0.000000000000e+00 0.000000000000e+00 
3.196800000000e+06 2.812994381674e-02 1.411648170246e-312 3.181500000001e+02 0.000000000000e+00 0.000000000000e+00 0.000000000000e+00 
3.283200000000e+06 2.866744961592e-02 -1.343111990691e-312 3.181500000001e+02 0.000000000000e+00 0.000000000000e+00 0.000000000000e+00 
3.369600000000e+06 2.914987248529e-02 1.967012689347e-312 3.181500000001e+02 0.000000000000e+00 0.000000000000e+00 0.000000000000e+00 
3.456000000000e+06 2.958010667151e-02 1.358213835622e-312 3.181500000001e+02 0.000000000000e+00 0.000000000000e+00 0.000000000000e+00 
3.542400000000e+06 2.996107026403e-02 -1.693627662976e-313 3.181500000001e+02 0.000000000000e+00 0.000000000000e+00 0.000000000000e+00 
3.628800000000e+06 3.029566311716e-02 1.173415057012e-312 3.181500000001e+02 0.000000000000e+00 0.000000000000e+00 0.000000000000e+00 
3.715200000000e+06 3.058673435702e-02 -4.767745660879e-312 3.181500000001e+02 0.000000000000e+00 0.000000000000e+00 0.000000000000e+00 
3.801600000000e+06 3.083705783608e-02 1.495401186727e-312 3.181500000001e+02 0.000000000000e+00 0.000000000000e+00 0.000000000000e+00 
3.888000000000e+06 3.104931411551e-02 1.003751495471e-312 3.181500000001e+02 0.000000000000e+00 0.000000000000e+00 0.000000000000e+00 
3.974400000000e+06 3.122607776096e-02 -6.534530663954e-313 3.181500000001e+02 0.000000000000e+00 0.000000000000e+00 0.000000000000e+00 
4.060800000000e+06 3.136980892340e-02 1.522635039962e-312 3.181500000001e+02 0.000000000000e+00 0.000000000000e+00 0.000000000000e+00 
4.147200000000e+06 3.148284834247e-02 5.729110694061e-312 3.181500000001e+02 0.000000000000e+00 0.000000000000e+00 0.000000000000e+00 
4.233600000000e+06 3.156741505430e-02 1.240866581039e-312 3.181500000001e+02 0.000000000000e+00 0.000000000000e+00 0.000000000000e+00 
4.320000000000e+06 3.162560621049e-02 1.656826711958e-312 3.181500000002e+02 0.000000000000e+00 0.000000000000e+00 0.000000000000e+00 
4.406400000000e+06 3.165939852093e-02 2.928831348028e-312 3.181500000002e+02 0.000000000000e+00 0.000000000000e+00 0.000000000000e+00 
4.492800000000e+06 3.167065092316e-02 -1.661285631092e-313 3.181500000002e+02 0.000000000000e+00 0.000000000000e+00 0.000000000000e+00 
4.579200000000e+06 3.166110815576e-02 -2.615648409537e-313 3.181500000002e+02 0.000000000000e+00 0.000000000000e+00 0.000000000000e+00 
4.665600000000e+06 3.163240497637e-02 3.001746729882e-312 3.181500000002e+02 0.000000000000e+00 0.000000000000e+00 0.000000000000e+00 
4.752000000000e+06 3.158607081658e-02 1.409424548525e-312 3.181500000002e+02 0.000000000000e+00 0.000000000000e+00 0.000000000000e+00 
4.838400000000e+06 3.152353470886e-02 3.326036683351e-312 3.181500000002e+02 0.000000000000e+00 0.000000000000e+00 0.000000000000e+00 
4.924800000000e+06 3.144613035597e-02 1.861573088729e-312 3.181500000002e+02 0.000000000000e+00 0.000000000000e+00 0.000000000000e+00 
5.011200000000e+06 3.135510124172e-02 -2.523832702922e-312 3.181500000002e+02 0.000000000000e+00 0.000000000000e+00 0.000000000000e+00 
5.097600000000e+06 3.125160570556e-02 -2.144374623849e-312 3.181500000002e+02 0.000000000000e+00 0.000000000000e+00 0.000000000000e+00 
5.184000000000e+06 3.113672192232e-02 1.469419567461e-312 3.181500000002e+02 0.000000000000e+00 0.000000000000e+00 0.000000000000e+00 
5.270400000000e+06 3.101145274359e-02 -1.517273565219e-312 3.181500000002e+02 0.000000000000e+00 0.000000000000e+00 0.000000000000e+00 
5.356800000000e+06 3.087673036957e-02 -6.321195760096e-312 3.181500000002e+02 0.000000000000e+00 0.000000000000e+00 0.000000000000e+00 
5.443200000000e+06 3.073342082982e-02 2.669478053575e-312 3.181500000002e+02 0.000000000000e+00 0.000000000000e+00 0.000000000000e+00 
5.529600000000e+06 3.058232825921e-02 -7.911155687476e-313 3.181500000002e+02 0.000000000000e+00 0.000000000000e+00 0.000000000000e+00 
5.616000000000e+06 3.042419896131e-02 1.403498637146e-312 3.181500000002e+02 0.000000000000e+00 0.000000000000e+00 0.000000000000e+00 
5.702400000000e+06 3.025972525617e-02 9.775853612389e-313 3.181500000002e+02 0.000000000000e+00 0.000000000000e+00 0.000000000000e+00 
5.788800000000e+06 3.008954911324e-02 3.476986318188e-313 3.181500000002e+02 0.000000000000e+00 0.000000000000e+00 0.000000000000e+00 
5.875200000000e+06 2.991426557265e-02 -2.550094230850e-313 3.181500000002e+02 0.000000000000e+00 0.000000000000e+00 0.000000000000e+00 
5.961600000000e+06 2.973442596035e-02 -5.558933126410e-313 3.181500000002e+02 0.000000000000e+00 0.000000000000e+00 0.000000000000e+00 
6.048000000000e+06 2.955054090397e-02 -6.194760024071e-313 3.181500000002e+02 0.000000000000e+00 0.000000000000e+00 0.000000000000e+00 
6.134400000000e+06 2.936308315743e-02 3.371113788738e-312 3.181500000003e+02 0.000000000000e+00 0.000000000000e+00 0.000000000000e+00 
6.220800000000e+06 2.917249024263e-02 -2.363556121708e-312 3.181500000003e+02 0.000000000000e+00 0.000000000000e+00 0.000000000000e+00 
6.307200000000e+06 2.897916691758e-02 6.804252955618e-313 3.181500000003e+02 0.000000000000e+00 0.000000000000e+00 0.000000000000e+00 
6.393600000000e+06 2.878348747978e-02 6.437251337621e-313 3.181500000003e+02 0.000000000000e+00 0.000000000000e+00 0.000000000000e+00 
6.480000000000e+06 2.858579791427e-02 -4.643710343446e-313 3.181500000003e+02 0.000000000000e+00 0.000000000000e+00 0.000000000000e+00 
6.566400000000e+06 2.838641789529e-02 1.554106341338e-312 3.181500000003e+02 0.000000000000e+00 0.000000000000e+00 0.000000000000e+00 
6.652800000000e+06 2.818564265041e-02 6.061828719106e-313 3.181500000003e+02 0.000000000000e+00 0.000000000000e+00 0.000000000000e+00 
6.739200000000e+06 2.798374469576e-02 -9.946067698434e-313 3.181500000003e+02 0.000000000000e+00 0.000000000000e+00 0.000000000000e+00 
6.825600000000e+06 2.778097545042e-02 8.944624991903e-313 3.181500000003e+02 0.000000000000e+00 0.000000000000e+00 0.000000000000e+00 
6.912000000000e+06 2.757756673802e-02 1.311493820778e-312 3.181500000003e+02 0.000000000000e+00 0.000000000000e+00 0.000000000000e+00 
6.998400000000e+06 2.737373218290e-02 -2.287747599657e-312 3.181500000003e+02 0.000000000000e+00 0.000000000000e+00 0.000000000000e+00 
7.084800000000e+06 2.716966850801e-02 -4.235634438552e-312 3.181500000003e+02 0.000000000000e+00 0.000000000000e+00 0.000000000000e+00 
7.171200000000e+06 2.696555674115e-02 1.337765336357e-312 3.181500000003e+02 0.000000000000e+00 0.000000000000e+00 0.000000000000e+00 
7.257600000000e+06 2.676156333588e-02 2.406625513257e-313 3.181500000003e+02 0.000000000000e+00 0.000000000000e+00 0.000000000000e+00 
7.344000000000e+06 2.655784121311e-02 3.754171781029e-312 3.181500000003e+02 0.000000000000e+00 0.000000000000e+00 0.000000000000e+00 
7.430400000000e+06 2.635453072873e-02 -1.277215605542e-312 3.181500000003e+02 0.000000000000e+00 0.000000000000e+00 0.000000000000e+00 
7.516800000000e+06 2.615176057267e-02 -2.105369674255e-312 3.181500000003e+02 0.000000000000e+00 0.000000000000e+00 0.000000000000e+00 
7.603200000000e+06 2.594964860414e-02 -4.362332790443e-312 3.181500000003e+02 0.000000000000e+00 0.000000000000e+00 0.000000000000e+00 
7.689600000000e+06 2.574830262754e-02 -4.459367470463e-312 3.181500000004e+02 0.000000000000e+00 0.000000000000e+00 0.000000000000e+00 
7.776000000000e+06 2.554782111335e-02 -9.022009359389e-314 3.181500000004e+02 0.000000000000e+00 0.000000000000e+00 0.000000000000e+00 
7.862400000000e+06 2.534829386792e-02 -2.586978114982e-312 3.181500000004e+02 0.000000000000e+00 0.000000000000e+00 0.000000000000e+00 
7.948800000000e+06 2.514980265568e-02 -9.523551982563e-313 3.181500000004e+02 0.000000000000e+00 0.000000000000e+00 0.000000000000e+00 
8.035200000000e+06 2.495242177741e-02 -4.846803741757e-313 3.181500000004e+02 0.000000000000e+00 0.000000000000e+00 0.000000000000e+00 
8.121600000000e+06 2.475621860749e-02 1.438647847951e-312 3.181500000004e+02 0.000000000000e+00 0.000000000000e+00 0.000000000000e+00 
8.208000000000e+06 2.456125409321e-02 8.004937237877e-313 3.181500000004e+02 0.000000000000e+00 0.000000000000e+00 0.000000000000e+00 
8.294400000000e+06 2.436758321883e-02 3.724431786564e-313 3.181500000004e+02 0.000000000000e+00 0.000000000000e+00 0.000000000000e+00 
8.380800000000e+06 2.417525543689e-02 -2.117430728547e-312 3.181500000004e+02 0.000000000000e+00 0.000000000000e+00 0.000000000000e+00 
8.467200000000e+06 2.398431506916e-02 -4.339904224655e-312 3.181500000004e+02 0.000000000000e+00 0.000000000000e+00 0.000000000000e+00 
8.553600000000e+06 2.379480167935e-02 -3.076842020718e-312 3.181500000004e+02 0.000000000000e+00 0.000000000000e+00 0.000000000000e+00 
8.640000000000e+06 2.360675041969e-02 5.319470980416e-312 3.181500000004e+02 0.000000000000e+00 0.000000000000e+00 0.000000000000e+00 
8.726400000000e+06 2.342019235310e-02 3.250310886619e-312 3.181500000004e+02 0.000000000000e+00 0.000000000000e+00 0.000000000000e+00 
8.812800000000e+06 2.323515475290e-02 -1.158817671762e-312 3.181500000004e+02 0.000000000000e+00 0.000000000000e+00 0.000000000000e+00 
8.899200000000e+06 2.305166138145e-02 -1.992291641377e-313 3.181500000004e+02 0.000000000000e+00 0.000000000000e+00 0.000000000000e+00 
8.985600000000e+06 2.286973274935e-02 1.633699879981e-312 3.181500000004e+02 0.000000000000e+00 0.000000000000e+00 0.000000000000e+00 
9.072000000000e+06 2.268938635655e-02 -2.116441648530e-312 3.181500000004e+02 0.000000000000e+00 0.000000000000e+00 0.000000000000e+00 
9.158400000000e+06 2.251063691662e-02 -1.544212209982e-312 3.181500000004e+02 0.000000000000e+00 0.000000000000e+00 0.000000000000e+00 
9.244800000000e+06 2.233349656547e-02 -6.709422764618e-313 3.181500000004e+02 0.000000000000e+00 0.000000000000e+00 0.000000000000e+00 
9.331200000000e+06 2.215797505543e-02 -4.797560707779e-312 3.181500000005e+02 0.000000000000e+00 0.000000000000e+00 0.000000000000e+00 
9.417600000000e+06 2.198407993595e-02 -1.802867476925e-312 3.181500000005e+02 0.000000000000e+00 0.000000000000e+00 0.000000000000e+00 
9.504000000000e+06 2.181181672167e-02 -1.902656076389e-313 3.181500000005e+02 0.000000000000e+00 0.000000000000e+00 0.000000000000e+00 
9.590400000000e+06 2.164118904889e-02 -2.344892582062e-312 3.181500000005e+02 0.000000000000e+00 0.000000000000e+00 0.000000000000e+00 
9.676800000000e+06 2.147219882114e-02 8.354306480732e-313 3.181500000005e+02 0.000000000000e+00 0.000000000000e+00 0.000000000000e+00 
9.763200000000e+06 2.130484634468e-02 -8.240528872362e-313 3.181500000005e+02 0.000000000000e+00 0.000000000000e+00 0.000000000000e+00 
9.849600000000e+06 2.113913045460e-02 4.099536724733e-312 3.181500000005e+02 0.000000000000e+00 0.000000000000e+00 0.000000000000e+00 
9.936000000000e+06 2.097504863220e-02 6.244276141818e-312 3.181500000005e+02 0.000000000000e+00 0.000000000000e+00 0.000000000000e+00 
1.002240000000e+07 2.081259711423e-02 -1.420949078775e-312 3.181500000005e+02 0.000000000000e+00 0.000000000000e+00 0.000000000000e+00 
1.010880000000e+07 2.065177099456e-02 9.070577748571e-313 3.181500000005e+02 0.000000000000e+00 0.000000000000e+00 0.000000000000e+00 
1.019520000000e+07 2.049256431880e-02 8.450274382534e-313 3.181500000005e+02 0.000000000000e+00 0.000000000000e+00 0.000000000000e+00 
1.028160000000e+07 2.033497017240e-02 1.981218712047e-312 3.181500000005e+02 0.000000000000e+00 0.000000000000e+00 0.000000000000e+00 
1.036800000000e+07 2.017898076261e-02 7.645108227183e-313 3.181500000005e+02 0.000000000000e+00 0.000000000000e+00 0.000000000000e+00 
1.045440000000e+07 2.002458749471e-02 -6.331029510005e-313 3.181500000005e+02 0.000000000000e+00 0.000000000000e+00 0.000000000000e+00 
1.054080000000e+07 1.987178104304e-02 -4.286449636041e-312 3.181500000005e+02 0.000000000000e+00 0.000000000000e+00 0.000000000000e+00 
1.062720000000e+07 1.972055141702e-02 1.681688649796e-313 3.181500000005e+02 0.000000000000e+00 0.000000000000e+00 0.000000000000e+00 
1.071360000000e+07 1.957088802259e-02 -1.808884328037e-312 3.181500000005e+02 0.000000000000e+00 0.000000000000e+00 0.000000000000e+00 
1.080000000000e+07 1.942277971935e-02 -2.463741506078e-312 3.181500000005e+02 0.000000000000e+00 0.000000000000e+00 0.000000000000e+00 
1.088640000000e+07 1.927621487374e-02 1.304744899520e-312 3.181500000005e+02 0.000000000000e+00 0.000000000000e+00 0.000000000000e+00 
1.097280000000e+07 1.913118140845e-02 2.833781421920e-312 3.181500000005e+02 0.000000000000e+00 0.000000000000e+00 0.000000000000e+00 
1.105920000000e+07 1.898766684839e-02 1.856579354699e-312 3.181500000005e+02 0.000000000000e+00 0.000000000000e+00 0.000000000000e+00 
1.114560000000e+07 1.884565836343e-02 3.122832279986e-312 3.181500000006e+02 0.000000000000e+00 0.000000000000e+00 0.000000000000e+00 
1.123200000000e+07 1.870514280807e-02 -4.223650809910e-312 3.181500000006e+02 0.000000000000e+00 0.000000000000e+00 0.000000000000e+00 
1.131840000000e+07 1.856610675833e-02 5.825804544995e-312 3.181500000006e+02 0.000000000000e+00 0.000000000000e+00 0.000000000000e+00 
1.140480000000e+07 1.842853654604e-02 8.525524232875e-313 3.181500000006e+02 0.000000000000e+00 0.000000000000e+00 0.000000000000e+00 
1.149120000000e+07 1.829241829061e-02 -1.313064244426e-312 3.181500000006e+02 0.000000000000e+00 0.000000000000e+00 0.000000000000e+00 
1.157760000000e+07 1.815773792860e-02 1.653020916417e-312 3.181500000006e+02 0.000000000000e+00 0.000000000000e+00 0.000000000000e+00 
1.166400000000e+07 1.802448124107e-02 3.105930523261e-312 3.181500000006e+02 0.000000000000e+00 0.000000000000e+00 0.000000000000e+00 
1.175040000000e+07 1.789263387900e-02 -1.895743408634e-314 3.181500000006e+02 0.000000000000e+00 0.000000000000e+00 0.000000000000e+00 
1.183680000000e+07 1.776218138685e-02 2.366381515135e-312 3.181500000006e+02 0.000000000000e+00 0.000000000000e+00 0.000000000000e+00 
1.192320000000e+07 1.763310922435e-02 -1.998532866296e-312 3.181500000006e+02 0.000000000000e+00 0.000000000000e+00 0.000000000000e+00 
1.200960000000e+07 1.750540278672e-02 9.190540556807e-313 3.181500000006e+02 0.000000000000e+00 0.000000000000e+00 0.000000000000e+00 
1.209600000000e+07 1.737904742334e-02 2.197202699096e-312 3.181500000006e+02 0.000000000000e+00 0.000000000000e+00 0.000000000000e+00 
1.218240000000e+07 1.725402845505e-02 -3.745830490957e-312 3.181500000006e+02 0.000000000000e+00 0.000000000000e+00 0.000000000000e+00 
1.226880000000e+07 1.713033119011e-02 -1.085115033406e-312 3.181500000006e+02 0.000000000000e+00 0.000000000000e+00 0.000000000000e+00 
1.235520000000e+07 1.700794093894e-02 -1.611833358617e-313 3.181500000006e+02 0.000000000000e+00 0.000000000000e+00 0.000000000000e+00 
1.244160000000e+07 1.688684302773e-02 4.306682113151e-313 3.181500000006e+02 0.000000000000e+00 0.000000000000e+00 0.000000000000e+00 
1.252800000000e+07 1.676702281094e-02 -5.497394953067e-312 3.181500000006e+02 0.000000000000e+00 0.000000000000e+00 0.000000000000e+00 
1.261440000000e+07 1.664846568288e-02 -1.025815839223e-312 3.181500000006e+02 0.000000000000e+00 0.000000000000e+00 0.000000000000e+00 
1.270080000000e+07 1.653115708828e-02 -4.744838087296e-312 3.181500000006e+02 0.000000000000e+00 0.000000000000e+00 0.000000000000e+00 
1.278720000000e+07 1.641508253205e-02 9.444375349456e-313 3.181500000006e+02 0.000000000000e+00 0.000000000000e+00 0.000000000000e+00 
1.287360000000e+07 1.630022758817e-02 3.962288820675e-312 3.181500000007e+02 0.000000000000e+00 0.000000000000e+00 0.000000000000e+00 
1.296000000000e+07 1.618657790791e-02 -7.284182945441e-313 3.181500000007e+02 0.000000000000e+00 0.000000000000e+00 0.000000000000e+00 
1.304640000000e+07 1.607411922726e-02 1.155392437919e-312 3.181500000007e+02 0.000000000000e+00 0.000000000000e+00 0.000000000000e+00 
1.313280000000e+07 1.596283737378e-02 -2.000695243255e-312 3.181500000007e+02 0.000000000000e+00 0.000000000000e+00 0.000000000000e+00 
1.321920000000e+07 1.585271827276e-02 -3.202212363258e-312 3.181500000007e+02 0.000000000000e+00 0.000000000000e+00 0.000000000000e+00 
1.330560000000e+07 1.574374795285e-02 -2.436325494856e-312 3.181500000007e+02 0.000000000000e+00 0.000000000000e+00 0.000000000000e+00 
1.339200000000e+07 1.563591255120e-02 3.250391349355e-313 3.181500000007e+02 0.000000000000e+00 0.000000000000e+00 0.000000000000e+00 
1.347840000000e+07 1.552919831799e-02 -2.811956630151e-312 3.181500000007e+02 0.000000000000e+00 0.000000000000e+00 0.000000000000e+00 
1.356480000000e+07 1.542359162064e-02 8.243672641513e-313 3.181500000007e+02 0.000000000000e+00 0.000000000000e+00 0.000000000000e+00 
1.365120000000e+07 1.531907894743e-02 4.233602378176e-313 3.181500000007e+02 0.000000000000e+00 0.000000000000e+00 0.000000000000e+00 
1.373760000000e+07 1.521564691090e-02 -1.920356755564e-312 3.181500000007e+02 0.000000000000e+00 0.000000000000e+00 0.000000000000e+00 
1.382400000000e+07 1.511328225068e-02 1.675940528513e-313 3.181500000007e+02 0.000000000000e+00 0.000000000000e+00 0.000000000000e+00 
1.391040000000e+07 1.501197183617e-02 1.671004349238e-312 3.181500000007e+02 0.000000000000e+00 0.000000000000e+00 0.000000000000e+00 
1.399680000000e+07 1.491170266871e-02 -3.341891531726e-313 3.181500000007e+02 0.000000000000e+00 0.000000000000e+00 0.000000000000e+00 
1.408320000000e+07 1.481246188359e-02 9.177303567563e-313 3.181500000007e+02 0.000000000000e+00 0.000000000000e+00 0.000000000000e+00 
1.416960000000e+07 1.471423675172e-02 -1.344820265443e-312 3.181500000007e+02 0.000000000000e+00 0.000000000000e+00 0.000000000000e+00 
1.425600000000e+07 1.461701468105e-02 -4.843016936895e-312 3.181500000007e+02 0.000000000000e+00 0.000000000000e+00 0.000000000000e+00 
1.434240000000e+07 1.452078321771e-02 3.349072194052e-312 3.181500000007e+02 0.000000000000e+00 0.000000000000e+00 0.000000000000e+00 
1.442880000000e+07 1.442553004700e-02 6.359441817111e-313 3.181500000007e+02 0.000000000000e+00 0.000000000000e+00 0.000000000000e+00 
1.451520000000e+07 1.433124299414e-02 -3.056787929701e-312 3.181500000007e+02 0.000000000000e+00 0.000000000000e+00 0.000000000000e+00 
1.460160000000e+07 1.423791002478e-02 -3.216233501900e-312 3.181500000007e+02 0.000000000000e+00 0.000000000000e+00 0.000000000000e+00 
1.468800000000e+07 1.414551924541e-02 -2.178703199729e-312 3.181500000008e+02 0.000000000000e+00 0.000000000000e+00 0.000000000000e+00 
1.477440000000e+07 1.405405890354e-02 -2.122373036410e-312 3.181500000008e+02 0.000000000000e+00 0.000000000000e+00 0.000000000000e+00 
1.486080000000e+07 1.396351738776e-02 -5.276349763797e-313 3.181500000008e+02 0.000000000000e+00 0.000000000000e+00 0.000000000000e+00 
1.494720000000e+07 1.387388322768e-02 -1.227837014836e-312 3.181500000008e+02 0.000000000000e+00 0.000000000000e+00 0.000000000000e+00 
1.503360000000e+07 1.378514509366e-02 -4.030289841544e-312 3.181500000008e+02 0.000000000000e+00 0.000000000000e+00 0.000000000000e+00 
1.512000000000e+07 1.369729179653e-02 -2.195860825937e-312 3.181500000008e+02 0.000000000000e+00 0.000000000000e+00 0.000000000000e+00 
1.520640000000e+07 1.361031228708e-02 1.551243857761e-312 3.181500000008e+02 0.000000000000e+00 0.000000000000e+00 0.000000000000e+00 
1.529280000000e+07 1.352419565556e-02 1.983715459740e-312 3.181500000008e+02 0.000000000000e+00 0.000000000000e+00 0.000000000000e+00 
1.537920000000e+07 1.343893113099e-02 1.163358799027e-312 3.181500000008e+02 0.000000000000e+00 0.000000000000e+00 0.000000000000e+00 
1.546560000000e+07 1.335450808048e-02 -3.065302805710e-312 3.181500000008e+02 0.000000000000e+00 0.000000000000e+00 0.000000000000e+00 
1.555200000000e+07 1.327091600835e-02 6.762634564753e-314 3.181500000008e+02 0.000000000000e+00 0.000000000000e+00 0.000000000000e+00 
1.563840000000e+07 1.318814455532e-02 5.096293355953e-313 3.181500000008e+02 0.000000000000e+00 0.000000000000e+00 0.000000000000e+00 
1.572480000000e+07 1.310618349751e-02 -6.401285406694e-312 3.181500000008e+02 0.000000000000e+00 0.000000000000e+00 0.000000000000e+00 
1.581120000000e+07 1.302502274548e-02 2.721686418647e-313 3.181500000008e+02 0.000000000000e+00 0.000000000000e+00 0.000000000000e+00 
1.589760000000e+07 1.294465234309e-02 -9.785722838435e-313 3.181500000008e+02 0.000000000000e+00 0.000000000000e+00 0.000000000000e+00 
1.598400000000e+07 1.286506246649e-02 -9.777551191909e-313 3.181500000008e+02 0.000000000000e+00 0.000000000000e+00 0.000000000000e+00 
1.607040000000e+07 1.278624342287e-02 -1.144757564557e-312 3.181500000008e+02 0.000000000000e+00 0.000000000000e+00 0.000000000000e+00 
1.615680000000e+07 1.270818564934e-02 1.700077101946e-313 3.181500000008e+02 0.000000000000e+00 0.000000000000e+00 0.000000000000e+00 
1.624320000000e+07 1.263087971165e-02 -2.221507452228e-313 3.181500000008e+02 0.000000000000e+00 0.000000000000e+00 0.000000000000e+00 
1.632960000000e+07 1.255431630294e-02 6.929008346284e-312 3.181500000008e+02 0.000000000000e+00 0.000000000000e+00 0.000000000000e+00 
1.641600000000e+07 1.247848624247e-02 1.668778592431e-312 3.181500000008e+02 0.000000000000e+00 0.000000000000e+00 0.000000000000e+00 
1.650240000000e+07 1.240338047429e-02 -3.056763198237e-313 3.181500000009e+02 0.000000000000e+00 0.000000000000e+00 0.000000000000e+00 
1.658880000000e+07 1.232899006588e-02 2.854174609029e-312 3.181500000009e+02 0.000000000000e+00 0.000000000000e+00 0.000000000000e+00 
1.667520000000e+07 1.225530620684e-02 -4.774625109488e-312 3.181500000009e+02 0.000000000000e+00 0.000000000000e+00 0.000000000000e+00 
1.676160000000e+07 1.218232020749e-02 3.211147610364e-313 3.181500000009e+02 0.000000000000e+00 0.000000000000e+00 0.000000000000e+00 
1.684800000000e+07 1.211002349751e-02 4.771454107844e-313 3.181500000009e+02 0.000000000000e+00 0.000000000000e+00 0.000000000000e+00 
1.693440000000e+07 1.203840762449e-02 -5.563871774778e-312 3.181500000009e+02 0.000000000000e+00 0.000000000000e+00 0.000000000000e+00 
1.702080000000e+07 1.196746425261e-02 -2.418592013231e-312 3.181500000009e+02 0.000000000000e+00 0.000000000000e+00 0.000000000000e+00 
1.710720000000e+07 1.189718516117e-02 -9.639803027576e-313 3.181500000009e+02 0.000000000000e+00 0.000000000000e+00 0.000000000000e+00 
1.719360000000e+07 1.182756224319e-02 2.005458670441e-312 3.181500000009e+02 0.000000000000e+00 0.000000000000e+00 0.000000000000e+00 
1.728000000000e+07 1.175858750399e-02 1.606916481696e-312 3.181500000009e+02 0.000000000000e+00 0.000000000000e+00 0.000000000000e+00 
1.736640000000e+07 1.169025305980e-02 2.682764920549e-312 3.181500000009e+02 0.000000000000e+00 0.000000000000e+00 0.000000000000e+00 
1.745280000000e+07 1.162255113629e-02 3.155536209571e-313 3.181500000009e+02 0.000000000000e+00 0.000000000000e+00 0.000000000000e+00 
1.753920000000e+07 1.155547406720e-02 4.567405799521e-312 3.181500000009e+02 0.000000000000e+00 0.000000000000e+00 0.000000000000e+00 
1.762560000000e+07 1.148901429291e-02 4.072749195195e-312 3.181500000009e+02 0.000000000000e+00 0.000000000000e+00 0.000000000000e+00 
1.771200000000e+07 1.142316435902e-02 9.753774043724e-314 3.181500000009e+02 0.000000000000e+00 0.000000000000e+00 0.000000000000e+00 
1.779840000000e+07 1.135791691496e-02 -3.384923880826e-312 3.181500000009e+02 0.000000000000e+00 0.000000000000e+00 0.000000000000e+00 
1.788480000000e+07 1.129326471259e-02 -1.290918737739e-312 3.181500000009e+02 0.000000000000e+00 0.000000000000e+00 0.000000000000e+00 
1.797120000000e+07 1.122920060481e-02 1.317347519028e-312 3.181500000009e+02 0.000000000000e+00 0.000000000000e+00 0.000000000000e+00 
1.805760000000e+07 1.116571754416e-02 -1.108904054572e-312 3.181500000009e+02 0.000000000000e+00 0.000000000000e+00 0.000000000000e+00 
1.814400000000e+07 1.110280858147e-02 3.987360805399e-312 3.181500000009e+02 0.000000000000e+00 0.000000000000e+00 0.000000000000e+00 
1.823040000000e+07 1.104046686448e-02 2.445513707841e-312 3.181500000009e+02 0.000000000000e+00 0.000000000000e+00 0.000000000000e+00 
1.831680000000e+07 1.097868563651e-02 1.647781840574e-312 3.181500000009e+02 0.000000000000e+00 0.000000000000e+00 0.000000000000e+00 
1.840320000000e+07 1.091745823508e-02 -2.396318096536e-313 3.181500000009e+02 0.000000000000e+00 0.000000000000e+00 0.000000000000e+00 
1.848960000000e+07 1.085677809060e-02 -1.839512855070e-312 3.181500000009e+02 0.000000000000e+00 0.000000000000e+00 0.000000000000e+00 
1.857600000000e+07 1.079663872503e-02 4.068753208590e-313 3.181500000009e+02 0.000000000000e+00 0.000000000000e+00 0.000000000000e+00 
1.866240000000e+07 1.073703375063e-02 -2.767816934490e-312 3.181500000009e+02 0.000000000000e+00 0.000000000000e+00 0.000000000000e+00 
1.874880000000e+07 1.067795686858e-02 1.823257529187e-312 3.181500000009e+02 0.000000000000e+00 0.000000000000e+00 0.000000000000e+00 
1.883520000000e+07 1.061940186776e-02 1.032713530489e-312 3.181500000009e+02 0.000000000000e+00 0.000000000000e+00 0.000000000000e+00 
1.892160000000e+07 1.056136262346e-02 -1.830255160433e-312 3.181500000010e+02 0.000000000000e+00 0.000000000000e+00 0.000000000000e+00 