 TITLE = "Time curves in points"
 VARIABLES = "TIME "  "WATER1"  "PRESSURE1"  "TEMPERATURE1"  "VELOCITY_X1"  "VELOCITY_Y1"  "VELOCITY_Z1" 
 ZONE T="POINT=POINT3"
0.000000000000e+00 0.000000000000e+00 1.013250000000e+05 3.181500000000e+02 0.000000000000e+00 0.000000000000e+00 0.000000000000e+00 
8.640000000000e+04 2.455023970041e-15 1.056032998444e+04 3.181500000000e+02 1.066699998428e-08 0.000000000000e+00 0.000000000000e+00 
1.728000000000e+05 5.787821006315e-14 1.056033000660e+04 3.181500000000e+02 1.066700000669e-08 0.000000000000e+00 0.000000000000e+00 
2.592000000000e+05 5.769649979272e-13 1.056032997530e+04 3.181500000000e+02 1.066699997493e-08 0.000000000000e+00 0.000000000000e+00 
3.456000000000e+05 3.781185521594e-12 1.056033000166e+04 3.181500000000e+02 1.066700000173e-08 0.000000000000e+00 0.000000000000e+00 
4.320000000000e+05 1.881669121325e-11 1.056033001406e+04 3.181500000000e+02 1.066700001425e-08 0.000000000000e+00 0.000000000000e+00 
5.184000000000e+05 7.648122849017e-11 1.056033001203e+04 3.181500000000e+02 1.066700001208e-08 0.000000000000e+00 0.000000000000e+00 
6.048000000000e+05 2.653904072143e-10 1.056033001363e+04 3.181500000000e+02 1.066700001383e-08 0.000000000000e+00 0.000000000000e+00 
6.912000000000e+05 8.099721620145e-10 1.056032999575e+04 3.181500000000e+02 1.066699999566e-08 0.000000000000e+00 0.000000000000e+00 
7.776000000000e+05 2.221323263126e-09 1.056033000797e+04 3.181500000000e+02 1.066700000820e-08 0.000000000000e+00 0.000000000000e+00 
8.640000000000e+05 5.563099612123e-09 3.484888184863e-32 3.181500000000e+02 3.516079225771e-44 0.000000000000e+00 0.000000000000e+00 
9.504000000000e+05 1.227646721529e-08 -7.773747774385e-69 3.181500000000e+02 -7.897293637984e-81 0.000000000000e+00 0.000000000000e+00 
1.036800000000e+06 2.550336087089e-08 7.091979736036e-105 3.181500000000e+02 7.160107931575e-117 0.000000000000e+00 0.000000000000e+00 
1.123200000000e+06 5.019936509351e-08 2.296470644801e-141 3.181500000000e+02 2.265391968777e-153 0.000000000000e+00 0.000000000000e+00 
1.209600000000e+06 9.414202771088e-08 1.062832540361e-180 3.181500000000e+02 1.008164142682e-192 0.000000000000e+00 0.000000000000e+00 
1.296000000000e+06 1.690163763008e-07 -4.823537439871e-217 3.181500000000e+02 -4.855035440455e-229 0.000000000000e+00 0.000000000000e+00 
1.382400000000e+06 2.916973152478e-07 3.929366829319e-253 3.181500000000e+02 3.931438372604e-265 0.000000000000e+00 0.000000000000e+00 
1.468800000000e+06 4.856918934324e-07 -3.722610618009e-290 3.181500000000e+02 -3.785118642751e-302 0.000000000000e+00 0.000000000000e+00 
1.555200000000e+06 7.826812028403e-07 2.014200880615e-313 3.181500000000e+02 0.000000000000e+00 0.000000000000e+00 0.000000000000e+00 
1.641600000000e+06 1.224080893424e-06 1.737794255032e-312 3.181500000000e+02 0.000000000000e+00 0.000000000000e+00 0.000000000000e+00 
1.728000000000e+06 1.862523851161e-06 -1.071305400695e-312 3.181500000000e+02 0.000000000000e+00 0.000000000000e+00 0.000000000000e+00 
1.814400000000e+06 2.763160888900e-06 -4.745240362788e-312 3.181500000000e+02 0.000000000000e+00 0.000000000000e+00 0.000000000000e+00 
1.900800000000e+06 4.004676833484e-06 5.474863295704e-314 3.181500000000e+02 0.000000000000e+00 0.000000000000e+00 0.000000000000e+00 
1.987200000000e+06 5.679930449301e-06 -3.947287992155e-312 3.181500000000e+02 0.000000000000e+00 0.000000000000e+00 0.000000000000e+00 
2.073600000000e+06 7.896146251935e-06 4.244752564071e-313 3.181500000000e+02 0.000000000000e+00 0.000000000000e+00 0.000000000000e+00 
2.160000000000e+06 1.077461239010e-05 1.825123173743e-312 3.181500000000e+02 0.000000000000e+00 0.000000000000e+00 0.000000000000e+00 
2.246400000000e+06 1.444986864329e-05 -8.968040194958e-313 3.181500000000e+02 0.000000000000e+00 0.000000000000e+00 0.000000000000e+00 
2.332800000000e+06 1.906839916096e-05 -7.412888019097e-313 3.181500000000e+02 0.000000000000e+00 0.000000000000e+00 0.000000000000e+00 
2.419200000000e+06 2.478687299341e-05 -3.075046956839e-313 3.181500000000e+02 0.000000000000e+00 0.000000000000e+00 0.000000000000e+00 
2.505600000000e+06 3.176999939582e-05 3.503678631197e-312 3.181500000000e+02 0.000000000000e+00 0.000000000000e+00 0.000000000000e+00 
2.592000000000e+06 4.018808272843e-05 -6.600566029196e-312 3.181500000000e+02 0.000000000000e+00 0.000000000000e+00 0.000000000000e+00 
2.678400000000e+06 5.021437274598e-05 -9.961737932377e-313 3.181500000000e+02 0.000000000000e+00 0.000000000000e+00 0.000000000000e+00 
2.764800000000e+06 6.202231014892e-05 1.615787862813e-314 3.181500000000e+02 0.000000000000e+00 0.000000000000e+00 0.000000000000e+00 
2.851200000000e+06 7.578276506444e-05 2.023235296557e-312 3.181500000000e+02 0.000000000000e+00 0.000000000000e+00 0.000000000000e+00 
2.937600000000e+06 9.166135868025e-05 2.767606483854e-314 3.181500000000e+02 0.000000000000e+00 0.000000000000e+00 0.000000000000e+00 
3.024000000000e+06 1.098159468589e-04 -9.478860909651e-314 3.181500000000e+02 0.000000000000e+00 0.000000000000e+00 0.000000000000e+00 
3.110400000000e+06 1.303943305745e-04 -2.318599873883e-312 3.181500000000e+02 0.000000000000e+00 0.000000000000e+00 0.000000000000e+00 
3.196800000000e+06 1.535322427259e-04 1.398597592479e-312 3.181500000000e+02 0.000000000000e+00 0.000000000000e+00 0.000000000000e+00 
3.283200000000e+06 1.793516454202e-04 -1.335745568976e-312 3.181500000000e+02 0.000000000000e+00 0.000000000000e+00 0.000000000000e+00 
3.369600000000e+06 2.079593570843e-04 1.960533984301e-312 3.181500000000e+02 0.000000000000e+00 0.000000000000e+00 0.000000000000e+00 
3.456000000000e+06 2.394460154285e-04 1.347925715880e-312 3.181500000000e+02 0.000000000000e+00 0.000000000000e+00 0.000000000000e+00 
3.542400000000e+06 2.738853707707e-04 -1.659161179990e-313 3.181500000000e+02 0.000000000000e+00 0.000000000000e+00 0.000000000000e+00 
3.628800000000e+06 3.113338947755e-04 1.175868699681e-312 3.181500000000e+02 0.000000000000e+00 0.000000000000e+00 0.000000000000e+00 
3.715200000000e+06 3.518306823142e-04 -4.752364432552e-312 3.181500000000e+02 0.000000000000e+00 0.000000000000e+00 0.000000000000e+00 
3.801600000000e+06 3.953976188367e-04 1.487144720405e-312 3.181500000000e+02 0.000000000000e+00 0.000000000000e+00 0.000000000000e+00 
3.888000000000e+06 4.420397821983e-04 1.008907424840e-312 3.181500000000e+02 0.000000000000e+00 0.000000000000e+00 0.000000000000e+00 
3.974400000000e+06 4.917460460706e-04 -6.497054013245e-313 3.181500000000e+02 0.000000000000e+00 0.000000000000e+00 0.000000000000e+00 
4.060800000000e+06 5.444898516396e-04 1.511336431258e-312 3.181500000000e+02 0.000000000000e+00 0.000000000000e+00 0.000000000000e+00 
4.147200000000e+06 6.002301149763e-04 5.716232635747e-312 3.181500000000e+02 0.000000000000e+00 0.000000000000e+00 0.000000000000e+00 
4.233600000000e+06 6.589122390191e-04 1.231818907038e-312 3.181500000000e+02 0.000000000000e+00 0.000000000000e+00 0.000000000000e+00 
4.320000000000e+06 7.204692012858e-04 1.649602867835e-312 3.181500000000e+02 0.000000000000e+00 0.000000000000e+00 0.000000000000e+00 
4.406400000000e+06 7.848226910342e-04 2.918081010522e-312 3.181500000000e+02 0.000000000000e+00 0.000000000000e+00 0.000000000000e+00 
4.492800000000e+06 8.518842724448e-04 -1.640868956808e-313 3.181500000000e+02 0.000000000000e+00 0.000000000000e+00 0.000000000000e+00 
4.579200000000e+06 9.215565533497e-04 -2.610309224314e-313 3.181500000000e+02 0.000000000000e+00 0.000000000000e+00 0.000000000000e+00 
4.665600000000e+06 9.937343419764e-04 3.002757017721e-312 3.181500000000e+02 0.000000000000e+00 0.000000000000e+00 0.000000000000e+00 
4.752000000000e+06 1.068305777020e-03 1.406152419454e-312 3.181500000000e+02 0.000000000000e+00 0.000000000000e+00 0.000000000000e+00 
4.838400000000e+06 1.145153419037e-03 3.320189049263e-312 3.181500000000e+02 0.000000000000e+00 0.000000000000e+00 0.000000000000e+00 
4.924800000000e+06 1.224155293633e-03 1.857040035569e-312 3.181500000000e+02 0.000000000000e+00 0.000000000000e+00 0.000000000000e+00 
5.011200000000e+06 1.305185879158e-03 -2.510802130816e-312 3.181500000000e+02 0.000000000000e+00 0.000000000000e+00 0.000000000000e+00 
5.097600000000e+06 1.388117033632e-03 -2.137606292021e-312 3.181500000000e+02 0.000000000000e+00 0.000000000000e+00 0.000000000000e+00 
5.184000000000e+06 1.472818857361e-03 1.466701664221e-312 3.181500000000e+02 0.000000000000e+00 0.000000000000e+00 0.000000000000e+00 
5.270400000000e+06 1.559160489245e-03 -1.514377170681e-312 3.181500000000e+02 0.000000000000e+00 0.000000000000e+00 0.000000000000e+00 
5.356800000000e+06 1.647010836038e-03 -6.309610622600e-312 3.181500000000e+02 0.000000000000e+00 0.000000000000e+00 0.000000000000e+00 
5.443200000000e+06 1.736239234923e-03 2.659588484554e-312 3.181500000000e+02 0.000000000000e+00 0.000000000000e+00 0.000000000000e+00 
5.529600000000e+06 1.826716050612e-03 -7.959821957880e-313 3.181500000000e+02 0.000000000000e+00 0.000000000000e+00 0.000000000000e+00 
5.616000000000e+06 1.918313208930e-03 1.403593785528e-312 3.181500000000e+02 0.000000000000e+00 0.000000000000e+00 0.000000000000e+00 
5.702400000000e+06 2.010904669339e-03 9.752151039213e-313 3.181500000000e+02 0.000000000000e+00 0.000000000000e+00 0.000000000000e+00 
5.788800000000e+06 2.104366839334e-03 3.419526265447e-313 3.181500000000e+02 0.000000000000e+00 0.000000000000e+00 0.000000000000e+00 
5.875200000000e+06 2.198578933879e-03 -2.526541472804e-313 3.181500000000e+02 0.000000000000e+00 0.000000000000e+00 0.000000000000e+00 
5.961600000000e+06 2.293423283284e-03 -5.644844917933e-313 3.181500000000e+02 0.000000000000e+00 0.000000000000e+00 0.000000000000e+00 
6.048000000000e+06 2.388785593041e-03 -6.123593748327e-313 3.181500000000e+02 0.000000000000e+00 0.000000000000e+00 0.000000000000e+00 
6.134400000000e+06 2.484555159135e-03 3.358095059648e-312 3.181500000000e+02 0.000000000000e+00 0.000000000000e+00 0.000000000000e+00 
6.220800000000e+06 2.580625042383e-03 -2.361592707944e-312 3.181500000000e+02 0.000000000000e+00 0.000000000000e+00 0.000000000000e+00 
6.307200000000e+06 2.676892205250e-03 6.752609325277e-313 3.181500000000e+02 0.000000000000e+00 0.000000000000e+00 0.000000000000e+00 
6.393600000000e+06 2.773257614509e-03 6.432220641799e-313 3.181500000000e+02 0.000000000000e+00 0.000000000000e+00 0.000000000000e+00 
6.480000000000e+06 2.869626312990e-03 -4.510219270207e-313 3.181500000000e+02 0.000000000000e+00 0.000000000000e+00 0.000000000000e+00 
6.566400000000e+06 2.965907463487e-03 1.543961521384e-312 3.181500000000e+02 0.000000000000e+00 0.000000000000e+00 0.000000000000e+00 
6.652800000000e+06 3.062014367775e-03 6.028209209892e-313 3.181500000000e+02 0.000000000000e+00 0.000000000000e+00 0.000000000000e+00 
6.739200000000e+06 3.157864463461e-03 -9.839777317726e-313 3.181500000000e+02 0.000000000000e+00 0.000000000000e+00 0.000000000000e+00 
6.825600000000e+06 3.253379301271e-03 8.934452551693e-313 3.181500000000e+02 0.000000000000e+00 0.000000000000e+00 0.000000000000e+00 
6.912000000000e+06 3.348484505145e-03 1.304168623549e-312 3.181500000000e+02 0.000000000000e+00 0.000000000000e+00 0.000000000000e+00 
6.998400000000e+06 3.443109717382e-03 -2.274461623883e-312 3.181500000000e+02 0.000000000000e+00 0.000000000000e+00 0.000000000000e+00 
7.084800000000e+06 3.537188530861e-03 -4.223744526223e-312 3.181500000000e+02 0.000000000000e+00 0.000000000000e+00 0.000000000000e+00 
7.171200000000e+06 3.630658410231e-03 1.322333498208e-312 3.181500000000e+02 0.000000000000e+00 0.000000000000e+00 0.000000000000e+00 
7.257600000000e+06 3.723460603768e-03 2.431313959498e-313 3.181500000000e+02 0.000000000000e+00 0.000000000000e+00 0.000000000000e+00 
7.344000000000e+06 3.815540047473e-03 3.740475900609e-312 3.181500000000e+02 0.000000000000e+00 0.000000000000e+00 0.000000000000e+00 
7.430400000000e+06 3.906845262809e-03 -1.277306740343e-312 3.181500000000e+02 0.000000000000e+00 0.000000000000e+00 0.000000000000e+00 
7.516800000000e+06 3.997328249373e-03 -2.101581860179e-312 3.181500000000e+02 0.000000000000e+00 0.000000000000e+00 0.000000000000e+00 
7.603200000000e+06 4.086944373619e-03 -4.345302259010e-312 3.181500000000e+02 0.000000000000e+00 0.000000000000e+00 0.000000000000e+00 
7.689600000000e+06 4.175652254690e-03 -4.440427241027e-312 3.181500000000e+02 0.000000000000e+00 0.000000000000e+00 0.000000000000e+00 
7.776000000000e+06 4.263413648242e-03 -8.130991928243e-314 3.181500000000e+02 0.000000000000e+00 0.000000000000e+00 0.000000000000e+00 
7.862400000000e+06 4.350193329092e-03 -2.577014169047e-312 3.181500000000e+02 0.000000000000e+00 0.000000000000e+00 0.000000000000e+00 
7.948800000000e+06 4.435958973392e-03 -9.417081269871e-313 3.181500000000e+02 0.000000000000e+00 0.000000000000e+00 0.000000000000e+00 
8.035200000000e+06 4.520681040959e-03 -4.833366035282e-313 3.181500000000e+02 0.000000000000e+00 0.000000000000e+00 0.000000000000e+00 
8.121600000000e+06 4.604332658312e-03 1.439067245031e-312 3.181500000000e+02 0.000000000000e+00 0.000000000000e+00 0.000000000000e+00 
8.208000000000e+06 4.686889502885e-03 7.958514940663e-313 3.181500000000e+02 0.000000000000e+00 0.000000000000e+00 0.000000000000e+00 
8.294400000000e+06 4.768329688822e-03 3.648494745801e-313 3.181500000000e+02 0.000000000000e+00 0.000000000000e+00 0.000000000000e+00 
8.380800000000e+06 4.848633654714e-03 -2.115590430813e-312 3.181500000000e+02 0.000000000000e+00 0.000000000000e+00 0.000000000000e+00 
8.467200000000e+06 4.927784053561e-03 -4.328948999015e-312 3.181500000000e+02 0.000000000000e+00 0.000000000000e+00 0.000000000000e+00 
8.553600000000e+06 5.005765645200e-03 -3.062919048311e-312 3.181500000001e+02 0.000000000000e+00 0.000000000000e+00 0.000000000000e+00 
8.640000000000e+06 5.082565191419e-03 5.293579013877e-312 3.181500000001e+02 0.000000000000e+00 0.000000000000e+00 0.000000000000e+00 
8.726400000000e+06 5.158171353901e-03 3.230564227984e-312 3.181500000001e+02 0.000000000000e+00 0.000000000000e+00 0.000000000000e+00 
8.812800000000e+06 5.232574595131e-03 -1.147991188083e-312 3.181500000001e+02 0.000000000000e+00 0.000000000000e+00 0.000000000000e+00 
8.899200000000e+06 5.305767082372e-03 -1.938745213050e-313 3.181500000001e+02 0.000000000000e+00 0.000000000000e+00 0.000000000000e+00 
8.985600000000e+06 5.377742594759e-03 1.622780959569e-312 3.181500000001e+02 0.000000000000e+00 0.000000000000e+00 0.000000000000e+00 
9.072000000000e+06 5.448496433578e-03 -2.111920383851e-312 3.181500000001e+02 0.000000000000e+00 0.000000000000e+00 0.000000000000e+00 
9.158400000000e+06 5.518025335735e-03 -1.530666579856e-312 3.181500000001e+02 0.000000000000e+00 0.000000000000e+00 0.000000000000e+00 
9.244800000000e+06 5.586327390435e-03 -6.702532446169e-313 3.181500000001e+02 0.000000000000e+00 0.000000000000e+00 0.000000000000e+00 
9.331200000000e+06 5.653401959046e-03 -4.785959940447e-312 3.181500000001e+02 0.000000000000e+00 0.000000000000e+00 0.000000000000e+00 
9.417600000000e+06 5.719249598136e-03 -1.795933918582e-312 3.181500000001e+02 0.000000000000e+00 0.000000000000e+00 0.000000000000e+00 
9.504000000000e+06 5.783871985633e-03 -1.888133600962e-313 3.181500000001e+02 0.000000000000e+00 0.000000000000e+00 0.000000000000e+00 
9.590400000000e+06 5.847271850076e-03 -2.342311538994e-312 3.181500000001e+02 0.000000000000e+00 0.000000000000e+00 0.000000000000e+00 
9.676800000000e+06 5.909452902881e-03 8.303333082208e-313 3.181500000001e+02 0.000000000000e+00 0.000000000000e+00 0.000000000000e+00 
9.763200000000e+06 5.970419773583e-03 -8.195158286561e-313 3.181500000001e+02 0.000000000000e+00 0.000000000000e+00 0.000000000000e+00 
9.849600000000e+06 6.030177947962e-03 4.090634584161e-312 3.181500000001e+02 0.000000000000e+00 0.000000000000e+00 0.000000000000e+00 
9.936000000000e+06 6.088733708994e-03 6.236351364668e-312 3.181500000001e+02 0.000000000000e+00 0.000000000000e+00 0.000000000000e+00 
1.002240000000e+07 6.146094080547e-03 -1.428591492220e-312 3.181500000001e+02 0.000000000000e+00 0.000000000000e+00 0.000000000000e+00 
1.010880000000e+07 6.202266773738e-03 9.097361244562e-313 3.181500000001e+02 0.000000000000e+00 0.000000000000e+00 0.000000000000e+00 
1.019520000000e+07 6.257260135864e-03 8.472884555174e-313 3.181500000001e+02 0.000000000000e+00 0.000000000000e+00 0.000000000000e+00 
1.028160000000e+07 6.311083101841e-03 1.986886584184e-312 3.181500000001e+02 0.000000000000e+00 0.000000000000e+00 0.000000000000e+00 
1.036800000000e+07 6.363745148043e-03 7.485269336699e-313 3.181500000001e+02 0.000000000000e+00 0.000000000000e+00 0.000000000000e+00 
1.045440000000e+07 6.415256248475e-03 -6.386864435680e-313 3.181500000001e+02 0.000000000000e+00 0.000000000000e+00 0.000000000000e+00 
1.054080000000e+07 6.465626833179e-03 -4.277244907869e-312 3.181500000001e+02 0.000000000000e+00 0.000000000000e+00 0.000000000000e+00 
1.062720000000e+07 6.514867748809e-03 1.682336032411e-313 3.181500000001e+02 0.000000000000e+00 0.000000000000e+00 0.000000000000e+00 
1.071360000000e+07 6.562990221264e-03 -1.813136063247e-312 3.181500000001e+02 0.000000000000e+00 0.000000000000e+00 0.000000000000e+00 
1.080000000000e+07 6.610005820324e-03 -2.454131908704e-312 3.181500000001e+02 0.000000000000e+00 0.000000000000e+00 0.000000000000e+00 
1.088640000000e+07 6.655926426189e-03 1.312726781270e-312 3.181500000001e+02 0.000000000000e+00 0.000000000000e+00 0.000000000000e+00 
1.097280000000e+07 6.700764197850e-03 2.822452466370e-312 3.181500000001e+02 0.000000000000e+00 0.000000000000e+00 0.000000000000e+00 
1.105920000000e+07 6.744531543216e-03 1.849180014146e-312 3.181500000001e+02 0.000000000000e+00 0.000000000000e+00 0.000000000000e+00 
1.114560000000e+07 6.787241090911e-03 3.111879242439e-312 3.181500000001e+02 0.000000000000e+00 0.000000000000e+00 0.000000000000e+00 
1.123200000000e+07 6.828905663682e-03 -4.212433885010e-312 3.181500000001e+02 0.000000000000e+00 0.000000000000e+00 0.000000000000e+00 
1.131840000000e+07 6.869538253334e-03 5.813713129341e-312 3.181500000001e+02 0.000000000000e+00 0.000000000000e+00 0.000000000000e+00 
1.140480000000e+07 6.909151997128e-03 8.432689061166e-313 3.181500000001e+02 0.000000000000e+00 0.000000000000e+00 0.000000000000e+00 
1.149120000000e+07 6.947760155578e-03 -1.305235174946e-312 3.181500000001e+02 0.000000000000e+00 0.000000000000e+00 0.000000000000e+00 
1.157760000000e+07 6.985376091570e-03 1.645565604639e-312 3.181500000001e+02 0.000000000000e+00 0.000000000000e+00 0.000000000000e+00 
1.166400000000e+07 7.022013250759e-03 3.098777915030e-312 3.181500000001e+02 0.000000000000e+00 0.000000000000e+00 0.000000000000e+00 
1.175040000000e+07 7.057685143162e-03 -1.907828074491e-314 3.181500000001e+02 0.000000000000e+00 0.000000000000e+00 0.000000000000e+00 
1.183680000000e+07 7.092405325909e-03 2.366084088777e-312 3.181500000001e+02 0.000000000000e+00 0.000000000000e+00 0.000000000000e+00 
1.192320000000e+07 7.126187387082e-03 -1.994691394023e-312 3.181500000001e+02 0.000000000000e+00 0.000000000000e+00 0.000000000000e+00 
1.200960000000e+07 7.159044930588e-03 9.262822410744e-313 3.181500000001e+02 0.000000000000e+00 0.000000000000e+00 0.000000000000e+00 
1.209600000000e+07 7.190991562031e-03 2.194006959590e-312 3.181500000001e+02 0.000000000000e+00 0.000000000000e+00 0.000000000000e+00 
1.218240000000e+07 7.222040875507e-03 -3.735625050478e-312 3.181500000001e+02 0.000000000000e+00 0.000000000000e+00 0.000000000000e+00 
1.226880000000e+07 7.252206441298e-03 -1.082376415911e-312 3.181500000001e+02 0.000000000000e+00 0.000000000000e+00 0.000000000000e+00 
1.235520000000e+07 7.281501794407e-03 -1.558156375814e-313 3.181500000001e+02 0.000000000000e+00 0.000000000000e+00 0.000000000000e+00 
1.244160000000e+07 7.309940423891e-03 4.335153925425e-313 3.181500000001e+02 0.000000000000e+00 0.000000000000e+00 0.000000000000e+00 
1.252800000000e+07 7.337535762954e-03 -5.481239207661e-312 3.181500000001e+02 0.000000000000e+00 0.000000000000e+00 0.000000000000e+00 
1.261440000000e+07 7.364301179758e-03 -1.016775197589e-312 3.181500000001e+02 0.000000000000e+00 0.000000000000e+00 0.000000000000e+00 
1.270080000000e+07 7.390249968915e-03 -4.730312206235e-312 3.181500000001e+02 0.000000000000e+00 0.000000000000e+00 0.000000000000e+00 
1.278720000000e+07 7.415395343619e-03 9.407008628847e-313 3.181500000001e+02 0.000000000000e+00 0.000000000000e+00 0.000000000000e+00 
1.287360000000e+07 7.439750428392e-03 3.959605220813e-312 3.181500000001e+02 0.000000000000e+00 0.000000000000e+00 0.000000000000e+00 
1.296000000000e+07 7.463328252401e-03 -7.337113960758e-313 3.181500000001e+02 0.000000000000e+00 0.000000000000e+00 0.000000000000e+00 
1.304640000000e+07 7.486141743321e-03 1.157554129342e-312 3.181500000001e+02 0.000000000000e+00 0.000000000000e+00 0.000000000000e+00 
1.313280000000e+07 7.508203721709e-03 -1.998466247443e-312 3.181500000001e+02 0.000000000000e+00 0.000000000000e+00 0.000000000000e+00 
1.321920000000e+07 7.529526895869e-03 -3.199543202890e-312 3.181500000001e+02 0.000000000000e+00 0.000000000000e+00 0.000000000000e+00 
1.330560000000e+07 7.550123857168e-03 -2.431255536453e-312 3.181500000001e+02 0.000000000000e+00 0.000000000000e+00 0.000000000000e+00 
1.339200000000e+07 7.570007075786e-03 3.177240128862e-313 3.181500000002e+02 0.000000000000e+00 0.000000000000e+00 0.000000000000e+00 
1.347840000000e+07 7.589188896875e-03 -2.802865160052e-312 3.181500000002e+02 0.000000000000e+00 0.000000000000e+00 0.000000000000e+00 
1.356480000000e+07 7.607681537096e-03 8.338388529635e-313 3.181500000002e+02 0.000000000000e+00 0.000000000000e+00 0.000000000000e+00 
1.365120000000e+07 7.625497081525e-03 4.195718814161e-313 3.181500000002e+02 0.000000000000e+00 0.000000000000e+00 0.000000000000e+00 
1.373760000000e+07 7.642647480887e-03 -1.913423393973e-312 3.181500000002e+02 0.000000000000e+00 0.000000000000e+00 0.000000000000e+00 
1.382400000000e+07 7.659144549121e-03 1.751888518808e-313 3.181500000002e+02 0.000000000000e+00 0.000000000000e+00 0.000000000000e+00 
1.391040000000e+07 7.674999961238e-03 1.659354443268e-312 3.181500000002e+02 0.000000000000e+00 0.000000000000e+00 0.000000000000e+00 
1.399680000000e+07 7.690225251463e-03 -3.399346657398e-313 3.181500000002e+02 0.000000000000e+00 0.000000000000e+00 0.000000000000e+00 
1.408320000000e+07 7.704831811642e-03 9.228745797429e-313 3.181500000002e+02 0.000000000000e+00 0.000000000000e+00 0.000000000000e+00 
1.416960000000e+07 7.718830889896e-03 -1.331011969886e-312 3.181500000002e+02 0.000000000000e+00 0.000000000000e+00 0.000000000000e+00 
1.425600000000e+07 7.732233589509e-03 -4.816307004448e-312 3.181500000002e+02 0.000000000000e+00 0.000000000000e+00 0.000000000000e+00 
1.434240000000e+07 7.745050868034e-03 3.323844999445e-312 3.181500000002e+02 0.000000000000e+00 0.000000000000e+00 0.000000000000e+00 
1.442880000000e+07 7.757293536602e-03 6.364874386522e-313 3.181500000002e+02 0.000000000000e+00 0.000000000000e+00 0.000000000000e+00 
1.451520000000e+07 7.768972259423e-03 -3.041594345732e-312 3.181500000002e+02 0.000000000000e+00 0.000000000000e+00 0.000000000000e+00 
1.460160000000e+07 7.780097553464e-03 -3.198281923661e-312 3.181500000002e+02 0.000000000000e+00 0.000000000000e+00 0.000000000000e+00 
1.468800000000e+07 7.790679788292e-03 -2.169099399449e-312 3.181500000002e+02 0.000000000000e+00 0.000000000000e+00 0.000000000000e+00 
1.477440000000e+07 7.800729186078e-03 -2.114313627266e-312 3.181500000002e+02 0.000000000000e+00 0.000000000000e+00 0.000000000000e+00 
1.486080000000e+07 7.810255821739e-03 -5.326196929405e-313 3.181500000002e+02 0.000000000000e+00 0.000000000000e+00 0.000000000000e+00 
1.494720000000e+07 7.819269623220e-03 -1.222297525346e-312 3.181500000002e+02 0.000000000000e+00 0.000000000000e+00 0.000000000000e+00 
1.503360000000e+07 7.827780371892e-03 -4.031389645550e-312 3.181500000002e+02 0.000000000000e+00 0.000000000000e+00 0.000000000000e+00 
1.512000000000e+07 7.835797703081e-03 -2.196035128617e-312 3.181500000002e+02 0.000000000000e+00 0.000000000000e+00 0.000000000000e+00 
1.520640000000e+07 7.843331106688e-03 1.543600827179e-312 3.181500000002e+02 0.000000000000e+00 0.000000000000e+00 0.000000000000e+00 
1.529280000000e+07 7.850389927922e-03 1.983905782127e-312 3.181500000002e+02 0.000000000000e+00 0.000000000000e+00 0.000000000000e+00 
1.537920000000e+07 7.856983368115e-03 1.157471784068e-312 3.181500000002e+02 0.000000000000e+00 0.000000000000e+00 0.000000000000e+00 
1.546560000000e+07 7.863120485630e-03 -3.060338087272e-312 3.181500000002e+02 0.000000000000e+00 0.000000000000e+00 0.000000000000e+00 
1.555200000000e+07 7.868810196841e-03 6.987145014402e-314 3.181500000002e+02 0.000000000000e+00 0.000000000000e+00 0.000000000000e+00 
1.563840000000e+07 7.874061277186e-03 5.119704399124e-313 3.181500000002e+02 0.000000000000e+00 0.000000000000e+00 0.000000000000e+00 
1.572480000000e+07 7.878882362292e-03 -6.380323423783e-312 3.181500000002e+02 0.000000000000e+00 0.000000000000e+00 0.000000000000e+00 
1.581120000000e+07 7.883281949148e-03 2.679403813290e-313 3.181500000002e+02 0.000000000000e+00 0.000000000000e+00 0.000000000000e+00 
1.589760000000e+07 7.887268397345e-03 -9.806726295464e-313 3.181500000002e+02 0.000000000000e+00 0.000000000000e+00 0.000000000000e+00 
1.598400000000e+07 7.890849930358e-03 -9.724925628923e-313 3.181500000002e+02 0.000000000000e+00 0.000000000000e+00 0.000000000000e+00 
1.607040000000e+07 7.894034636878e-03 -1.138758051419e-312 3.181500000002e+02 0.000000000000e+00 0.000000000000e+00 0.000000000000e+00 
1.615680000000e+07 7.896830472180e-03 1.582311539752e-313 3.181500000002e+02 0.000000000000e+00 0.000000000000e+00 0.000000000000e+00 
1.624320000000e+07 7.899245259529e-03 -2.235980879338e-313 3.181500000002e+02 0.000000000000e+00 0.000000000000e+00 0.000000000000e+00 
1.632960000000e+07 7.901286691624e-03 6.908317000325e-312 3.181500000002e+02 0.000000000000e+00 0.000000000000e+00 0.000000000000e+00 
1.641600000000e+07 7.902962332061e-03 1.660078003701e-312 3.181500000002e+02 0.000000000000e+00 0.000000000000e+00 0.000000000000e+00 
1.650240000000e+07 7.904279616830e-03 -3.066590650340e-313 3.181500000002e+02 0.000000000000e+00 0.000000000000e+00 0.000000000000e+00 
1.658880000000e+07 7.905245855827e-03 2.854947748149e-312 3.181500000002e+02 0.000000000000e+00 0.000000000000e+00 0.000000000000e+00 
1.667520000000e+07 7.905868234397e-03 -4.770389323937e-312 3.181500000002e+02 0.000000000000e+00 0.000000000000e+00 0.000000000000e+00 
1.676160000000e+07 7.906153814874e-03 3.158322122775e-313 3.181500000002e+02 0.000000000000e+00 0.000000000000e+00 0.000000000000e+00 
1.684800000000e+07 7.906109538155e-03 4.779838737621e-313 3.181500000002e+02 0.000000000000e+00 0.000000000000e+00 0.000000000000e+00 
1.693440000000e+07 7.905742225273e-03 -5.549870183221e-312 3.181500000002e+02 0.000000000000e+00 0.000000000000e+00 0.000000000000e+00 
1.702080000000e+07 7.905058578978e-03 -2.398778200245e-312 3.181500000002e+02 0.000000000000e+00 0.000000000000e+00 0.000000000000e+00 
1.710720000000e+07 7.904065185336e-03 -9.555637485139e-313 3.181500000002e+02 0.000000000000e+00 0.000000000000e+00 0.000000000000e+00 
1.719360000000e+07 7.902768515317e-03 1.994715806291e-312 3.181500000002e+02 0.000000000000e+00 0.000000000000e+00 0.000000000000e+00 
1.728000000000e+07 7.901174926399e-03 1.604831282134e-312 3.181500000003e+02 0.000000000000e+00 0.000000000000e+00 0.000000000000e+00 
1.736640000000e+07 7.899290664164e-03 2.684269330634e-312 3.181500000003e+02 0.000000000000e+00 0.000000000000e+00 0.000000000000e+00 
1.745280000000e+07 7.897121863897e-03 3.153764136216e-313 3.181500000003e+02 0.000000000000e+00 0.000000000000e+00 0.000000000000e+00 
1.753920000000e+07 7.894674552185e-03 4.554062723025e-312 3.181500000003e+02 0.000000000000e+00 0.000000000000e+00 0.000000000000e+00 
1.762560000000e+07 7.891954648507e-03 4.064493852684e-312 3.181500000003e+02 0.000000000000e+00 0.000000000000e+00 0.000000000000e+00 
1.771200000000e+07 7.888967966819e-03 1.033768262067e-313 3.181500000003e+02 0.000000000000e+00 0.000000000000e+00 0.000000000000e+00 
1.779840000000e+07 7.885720217142e-03 -3.372521355805e-312 3.181500000003e+02 0.000000000000e+00 0.000000000000e+00 0.000000000000e+00 
1.788480000000e+07 7.882217007127e-03 -1.290078763054e-312 3.181500000003e+02 0.000000000000e+00 0.000000000000e+00 0.000000000000e+00 
1.797120000000e+07 7.878463843626e-03 1.320669192423e-312 3.181500000003e+02 0.000000000000e+00 0.000000000000e+00 0.000000000000e+00 
1.805760000000e+07 7.874466134247e-03 -1.113113121403e-312 3.181500000003e+02 0.000000000000e+00 0.000000000000e+00 0.000000000000e+00 
1.814400000000e+07 7.870229188897e-03 3.972115401405e-312 3.181500000003e+02 0.000000000000e+00 0.000000000000e+00 0.000000000000e+00 
1.823040000000e+07 7.865758221317e-03 2.439107134165e-312 3.181500000003e+02 0.000000000000e+00 0.000000000000e+00 0.000000000000e+00 
1.831680000000e+07 7.861058350603e-03 1.643034279367e-312 3.181500000003e+02 0.000000000000e+00 0.000000000000e+00 0.000000000000e+00 
1.840320000000e+07 7.856134602718e-03 -2.385502336167e-313 3.181500000003e+02 0.000000000000e+00 0.000000000000e+00 0.000000000000e+00 
1.848960000000e+07 7.850991911988e-03 -1.834274179588e-312 3.181500000003e+02 0.000000000000e+00 0.000000000000e+00 0.000000000000e+00 
1.857600000000e+07 7.845635122580e-03 3.937057979291e-313 3.181500000003e+02 0.000000000000e+00 0.000000000000e+00 0.000000000000e+00 
1.866240000000e+07 7.840068989975e-03 -2.756332067010e-312 3.181500000003e+02 0.000000000000e+00 0.000000000000e+00 0.000000000000e+00 
1.874880000000e+07 7.834298182418e-03 1.815472392390e-312 3.181500000003e+02 0.000000000000e+00 0.000000000000e+00 0.000000000000e+00 
1.883520000000e+07 7.828327282360e-03 1.026057318427e-312 3.181500000003e+02 0.000000000000e+00 0.000000000000e+00 0.000000000000e+00 
1.892160000000e+07 7.822160787873e-03 -1.824535345258e-312 3.181500000003e+02 0.000000000000e+00 0.000000000000e+00 0.000000000000e+00 