VARIABLES  = "X","Y","Z", "HEAD", "c3h5o3", "o2", "no3", "so4", "ca", "fe2", "hplus", "oh", "h2co3", "hco3", "co3", "mn2", "h2s", "hs", "s2minus", "c3h6o3", "c3h5o2", "c3h6o2", "c2h3o2", "c2h4o2", "fes", "feco3", "feooh", "c3h5o3bio", "c3h5o2bio", "o2bio", "no3bio", "so4bio", "mno2bio", "feoohbio", "baco", "bacn", "bacc", "bacm", "bacf", "bacs", "mno2", "caco3", "tracer_mob"
ZONE T="0.000000000000e+00s", N=77, E=76, F=FEPOINT, ET=QUADRILATERAL
STRANDID=1, SOLUTIONTIME=0.000000000000e+00
0.000000000000e+00 0.000000000000e+00 0.000000000000e+00 0.000000000000e+00 0.000000000000e+00 0.000000000000e+00 0.000000000000e+00 0.000000000000e+00 0.000000000000e+00 0.000000000000e+00 0.000000000000e+00 0.000000000000e+00 0.000000000000e+00 0.000000000000e+00 0.000000000000e+00 0.000000000000e+00 0.000000000000e+00 0.000000000000e+00 0.000000000000e+00 0.000000000000e+00 0.000000000000e+00 0.000000000000e+00 0.000000000000e+00 0.000000000000e+00 0.000000000000e+00 0.000000000000e+00 0.000000000000e+00 0.000000000000e+00 0.000000000000e+00 0.000000000000e+00 0.000000000000e+00 0.000000000000e+00 0.000000000000e+00 0.000000000000e+00 0.000000000000e+00 0.000000000000e+00 0.000000000000e+00 0.000000000000e+00 0.000000000000e+00 0.000000000000e+00 0.000000000000e+00 0.000000000000e+00 0.000000000000e+00 
3.866667000000e-03 0.000000000000e+00 0.000000000000e+00 0.000000000000e+00 1.200000000000e-03 1.900000000000e-04 3.000000000000e-04 2.300000000000e-04 7.419500000000e-04 4.049300000000e-07 2.200000000000e-03 1.000000000000e-19 1.000000000000e-19 1.000000000000e-19 2.141900000000e-03 1.000000000000e-19 1.000000000000e-19 1.000000000000e-19 1.000000000000e-19 1.240000000000e-07 1.000000000000e-19 1.000000000000e-19 1.000000000000e-19 1.000000000000e-19 1.000000000000e-19 1.000000000000e-19 5.400000000000e-05 1.199900000000e-03 1.000000000000e-19 1.900000000000e-04 3.000000000000e-04 2.300000000000e-04 9.540000000000e-03 1.431000000000e-01 2.500000000000e-05 1.000000000000e-09 1.000000000000e-05 2.500000000000e-05 2.500000000000e-05 1.500000000000e-04 1.800000000000e-06 1.886800000000e-01 1.000000000000e-10 
7.733333000000e-03 0.000000000000e+00 0.000000000000e+00 0.000000000000e+00 1.200000000000e-03 1.900000000000e-04 3.000000000000e-04 2.300000000000e-04 7.419500000000e-04 4.049300000000e-07 2.200000000000e-03 1.000000000000e-19 1.000000000000e-19 1.000000000000e-19 2.141900000000e-03 1.000000000000e-19 1.000000000000e-19 1.000000000000e-19 1.000000000000e-19 1.240000000000e-07 1.000000000000e-19 1.000000000000e-19 1.000000000000e-19 1.000000000000e-19 1.000000000000e-19 1.000000000000e-19 5.400000000000e-05 1.199900000000e-03 1.000000000000e-19 1.900000000000e-04 3.000000000000e-04 2.300000000000e-04 9.540000000000e-03 1.431000000000e-01 2.500000000000e-05 1.000000000000e-09 1.000000000000e-05 2.500000000000e-05 2.500000000000e-05 1.500000000000e-04 1.800000000000e-06 1.886800000000e-01 1.000000000000e-10 
1.160000000000e-02 0.000000000000e+00 0.000000000000e+00 0.000000000000e+00 1.200000000000e-03 1.900000000000e-04 3.000000000000e-04 2.300000000000e-04 7.419500000000e-04 4.049300000000e-07 2.200000000000e-03 1.000000000000e-19 1.000000000000e-19 1.000000000000e-19 2.141900000000e-03 1.000000000000e-19 1.000000000000e-19 1.000000000000e-19 1.000000000000e-19 1.240000000000e-07 1.000000000000e-19 1.000000000000e-19 1.000000000000e-19 1.000000000000e-19 1.000000000000e-19 1.000000000000e-19 5.400000000000e-05 1.199900000000e-03 1.000000000000e-19 1.900000000000e-04 3.000000000000e-04 2.300000000000e-04 9.540000000000e-03 1.431000000000e-01 2.500000000000e-05 1.000000000000e-09 1.000000000000e-05 2.500000000000e-05 2.500000000000e-05 1.500000000000e-04 1.800000000000e-06 1.886800000000e-01 1.000000000000e-10 
1.546666700000e-02 0.000000000000e+00 0.000000000000e+00 0.000000000000e+00 1.200000000000e-03 1.900000000000e-04 3.000000000000e-04 2.300000000000e-04 7.419500000000e-04 4.049300000000e-07 2.200000000000e-03 1.000000000000e-19 1.000000000000e-19 1.000000000000e-19 2.141900000000e-03 1.000000000000e-19 1.000000000000e-19 1.000000000000e-19 1.000000000000e-19 1.240000000000e-07 1.000000000000e-19 1.000000000000e-19 1.000000000000e-19 1.000000000000e-19 1.000000000000e-19 1.000000000000e-19 5.400000000000e-05 1.199900000000e-03 1.000000000000e-19 1.900000000000e-04 3.000000000000e-04 2.300000000000e-04 9.540000000000e-03 1.431000000000e-01 2.500000000000e-05 1.000000000000e-09 1.000000000000e-05 2.500000000000e-05 2.500000000000e-05 1.500000000000e-04 1.800000000000e-06 1.886800000000e-01 1.000000000000e-10 
1.933333300000e-02 0.000000000000e+00 0.000000000000e+00 0.000000000000e+00 1.200000000000e-03 1.900000000000e-04 3.000000000000e-04 2.300000000000e-04 7.419500000000e-04 4.049300000000e-07 2.200000000000e-03 1.000000000000e-19 1.000000000000e-19 1.000000000000e-19 2.141900000000e-03 1.000000000000e-19 1.000000000000e-19 1.000000000000e-19 1.000000000000e-19 1.240000000000e-07 1.000000000000e-19 1.000000000000e-19 1.000000000000e-19 1.000000000000e-19 1.000000000000e-19 1.000000000000e-19 5.400000000000e-05 1.199900000000e-03 1.000000000000e-19 1.900000000000e-04 3.000000000000e-04 2.300000000000e-04 9.540000000000e-03 1.431000000000e-01 2.500000000000e-05 1.000000000000e-09 1.000000000000e-05 2.500000000000e-05 2.500000000000e-05 1.500000000000e-04 1.800000000000e-06 1.886800000000e-01 1.000000000000e-10 
2.320000000000e-02 0.000000000000e+00 0.000000000000e+00 0.000000000000e+00 1.200000000000e-03 1.900000000000e-04 3.000000000000e-04 2.300000000000e-04 7.419500000000e-04 4.049300000000e-07 2.200000000000e-03 1.000000000000e-19 1.000000000000e-19 1.000000000000e-19 2.141900000000e-03 1.000000000000e-19 1.000000000000e-19 1.000000000000e-19 1.000000000000e-19 1.240000000000e-07 1.000000000000e-19 1.000000000000e-19 1.000000000000e-19 1.000000000000e-19 1.000000000000e-19 1.000000000000e-19 5.400000000000e-05 1.199900000000e-03 1.000000000000e-19 1.900000000000e-04 3.000000000000e-04 2.300000000000e-04 9.540000000000e-03 1.431000000000e-01 2.500000000000e-05 1.000000000000e-09 1.000000000000e-05 2.500000000000e-05 2.500000000000e-05 1.500000000000e-04 1.800000000000e-06 1.886800000000e-01 1.000000000000e-10 
2.706666700000e-02 0.000000000000e+00 0.000000000000e+00 0.000000000000e+00 1.200000000000e-03 1.900000000000e-04 3.000000000000e-04 2.300000000000e-04 7.419500000000e-04 4.049300000000e-07 2.200000000000e-03 1.000000000000e-19 1.000000000000e-19 1.000000000000e-19 2.141900000000e-03 1.000000000000e-19 1.000000000000e-19 1.000000000000e-19 1.000000000000e-19 1.240000000000e-07 1.000000000000e-19 1.000000000000e-19 1.000000000000e-19 1.000000000000e-19 1.000000000000e-19 1.000000000000e-19 5.400000000000e-05 1.199900000000e-03 1.000000000000e-19 1.900000000000e-04 3.000000000000e-04 2.300000000000e-04 9.540000000000e-03 1.431000000000e-01 2.500000000000e-05 1.000000000000e-09 1.000000000000e-05 2.500000000000e-05 2.500000000000e-05 1.500000000000e-04 1.800000000000e-06 1.886800000000e-01 1.000000000000e-10 
3.093333300000e-02 0.000000000000e+00 0.000000000000e+00 0.000000000000e+00 1.200000000000e-03 1.900000000000e-04 3.000000000000e-04 2.300000000000e-04 7.419500000000e-04 4.049300000000e-07 2.200000000000e-03 1.000000000000e-19 1.000000000000e-19 1.000000000000e-19 2.141900000000e-03 1.000000000000e-19 1.000000000000e-19 1.000000000000e-19 1.000000000000e-19 1.240000000000e-07 1.000000000000e-19 1.000000000000e-19 1.000000000000e-19 1.000000000000e-19 1.000000000000e-19 1.000000000000e-19 5.400000000000e-05 1.199900000000e-03 1.000000000000e-19 1.900000000000e-04 3.000000000000e-04 2.300000000000e-04 9.540000000000e-03 1.431000000000e-01 2.500000000000e-05 1.000000000000e-09 1.000000000000e-05 2.500000000000e-05 2.500000000000e-05 1.500000000000e-04 1.800000000000e-06 1.886800000000e-01 1.000000000000e-10 
3.480000000000e-02 0.000000000000e+00 0.000000000000e+00 0.000000000000e+00 1.200000000000e-03 1.900000000000e-04 3.000000000000e-04 2.300000000000e-04 7.419500000000e-04 4.049300000000e-07 2.200000000000e-03 1.000000000000e-19 1.000000000000e-19 1.000000000000e-19 2.141900000000e-03 1.000000000000e-19 1.000000000000e-19 1.000000000000e-19 1.000000000000e-19 1.240000000000e-07 1.000000000000e-19 1.000000000000e-19 1.000000000000e-19 1.000000000000e-19 1.000000000000e-19 1.000000000000e-19 5.400000000000e-05 1.199900000000e-03 1.000000000000e-19 1.900000000000e-04 3.000000000000e-04 2.300000000000e-04 9.540000000000e-03 1.431000000000e-01 2.500000000000e-05 1.000000000000e-09 1.000000000000e-05 2.500000000000e-05 2.500000000000e-05 1.500000000000e-04 1.800000000000e-06 1.886800000000e-01 1.000000000000e-10 
3.866666700000e-02 0.000000000000e+00 0.000000000000e+00 0.000000000000e+00 1.200000000000e-03 1.900000000000e-04 3.000000000000e-04 2.300000000000e-04 7.419500000000e-04 4.049300000000e-07 2.200000000000e-03 1.000000000000e-19 1.000000000000e-19 1.000000000000e-19 2.141900000000e-03 1.000000000000e-19 1.000000000000e-19 1.000000000000e-19 1.000000000000e-19 1.240000000000e-07 1.000000000000e-19 1.000000000000e-19 1.000000000000e-19 1.000000000000e-19 1.000000000000e-19 1.000000000000e-19 5.400000000000e-05 1.199900000000e-03 1.000000000000e-19 1.900000000000e-04 3.000000000000e-04 2.300000000000e-04 9.540000000000e-03 1.431000000000e-01 2.500000000000e-05 1.000000000000e-09 1.000000000000e-05 2.500000000000e-05 2.500000000000e-05 1.500000000000e-04 1.800000000000e-06 1.886800000000e-01 1.000000000000e-10 
4.253333300000e-02 0.000000000000e+00 0.000000000000e+00 0.000000000000e+00 1.200000000000e-03 1.900000000000e-04 3.000000000000e-04 2.300000000000e-04 7.419500000000e-04 4.049300000000e-07 2.200000000000e-03 1.000000000000e-19 1.000000000000e-19 1.000000000000e-19 2.141900000000e-03 1.000000000000e-19 1.000000000000e-19 1.000000000000e-19 1.000000000000e-19 1.240000000000e-07 1.000000000000e-19 1.000000000000e-19 1.000000000000e-19 1.000000000000e-19 1.000000000000e-19 1.000000000000e-19 5.400000000000e-05 1.199900000000e-03 1.000000000000e-19 1.900000000000e-04 3.000000000000e-04 2.300000000000e-04 9.540000000000e-03 1.431000000000e-01 2.500000000000e-05 1.000000000000e-09 1.000000000000e-05 2.500000000000e-05 2.500000000000e-05 1.500000000000e-04 1.800000000000e-06 1.886800000000e-01 1.000000000000e-10 
4.640000000000e-02 0.000000000000e+00 0.000000000000e+00 0.000000000000e+00 1.200000000000e-03 1.900000000000e-04 3.000000000000e-04 2.300000000000e-04 7.419500000000e-04 4.049300000000e-07 2.200000000000e-03 1.000000000000e-19 1.000000000000e-19 1.000000000000e-19 2.141900000000e-03 1.000000000000e-19 1.000000000000e-19 1.000000000000e-19 1.000000000000e-19 1.240000000000e-07 1.000000000000e-19 1.000000000000e-19 1.000000000000e-19 1.000000000000e-19 1.000000000000e-19 1.000000000000e-19 5.400000000000e-05 1.199900000000e-03 1.000000000000e-19 1.900000000000e-04 3.000000000000e-04 2.300000000000e-04 9.540000000000e-03 1.431000000000e-01 2.500000000000e-05 1.000000000000e-09 1.000000000000e-05 2.500000000000e-05 2.500000000000e-05 1.500000000000e-04 1.800000000000e-06 1.886800000000e-01 1.000000000000e-10 
5.026666700000e-02 0.000000000000e+00 0.000000000000e+00 0.000000000000e+00 1.200000000000e-03 1.900000000000e-04 3.000000000000e-04 2.300000000000e-04 7.419500000000e-04 4.049300000000e-07 2.200000000000e-03 1.000000000000e-19 1.000000000000e-19 1.000000000000e-19 2.141900000000e-03 1.000000000000e-19 1.000000000000e-19 1.000000000000e-19 1.000000000000e-19 1.240000000000e-07 1.000000000000e-19 1.000000000000e-19 1.000000000000e-19 1.000000000000e-19 1.000000000000e-19 1.000000000000e-19 5.400000000000e-05 1.199900000000e-03 1.000000000000e-19 1.900000000000e-04 3.000000000000e-04 2.300000000000e-04 9.540000000000e-03 1.431000000000e-01 2.500000000000e-05 1.000000000000e-09 1.000000000000e-05 2.500000000000e-05 2.500000000000e-05 1.500000000000e-04 1.800000000000e-06 1.886800000000e-01 1.000000000000e-10 
5.413333300000e-02 0.000000000000e+00 0.000000000000e+00 0.000000000000e+00 1.200000000000e-03 1.900000000000e-04 3.000000000000e-04 2.300000000000e-04 7.419500000000e-04 4.049300000000e-07 2.200000000000e-03 1.000000000000e-19 1.000000000000e-19 1.000000000000e-19 2.141900000000e-03 1.000000000000e-19 1.000000000000e-19 1.000000000000e-19 1.000000000000e-19 1.240000000000e-07 1.000000000000e-19 1.000000000000e-19 1.000000000000e-19 1.000000000000e-19 1.000000000000e-19 1.000000000000e-19 5.400000000000e-05 1.199900000000e-03 1.000000000000e-19 1.900000000000e-04 3.000000000000e-04 2.300000000000e-04 9.540000000000e-03 1.431000000000e-01 2.500000000000e-05 1.000000000000e-09 1.000000000000e-05 2.500000000000e-05 2.500000000000e-05 1.500000000000e-04 1.800000000000e-06 1.886800000000e-01 1.000000000000e-10 
5.800000000000e-02 0.000000000000e+00 0.000000000000e+00 0.000000000000e+00 1.200000000000e-03 1.900000000000e-04 3.000000000000e-04 2.300000000000e-04 7.419500000000e-04 4.049300000000e-07 2.200000000000e-03 1.000000000000e-19 1.000000000000e-19 1.000000000000e-19 2.141900000000e-03 1.000000000000e-19 1.000000000000e-19 1.000000000000e-19 1.000000000000e-19 1.240000000000e-07 1.000000000000e-19 1.000000000000e-19 1.000000000000e-19 1.000000000000e-19 1.000000000000e-19 1.000000000000e-19 5.400000000000e-05 1.199900000000e-03 1.000000000000e-19 1.900000000000e-04 3.000000000000e-04 2.300000000000e-04 9.540000000000e-03 1.431000000000e-01 2.500000000000e-05 1.000000000000e-09 1.000000000000e-05 2.500000000000e-05 2.500000000000e-05 1.500000000000e-04 1.800000000000e-06 1.886800000000e-01 1.000000000000e-10 
6.186666700000e-02 0.000000000000e+00 0.000000000000e+00 0.000000000000e+00 1.200000000000e-03 1.900000000000e-04 3.000000000000e-04 2.300000000000e-04 7.419500000000e-04 4.049300000000e-07 2.200000000000e-03 1.000000000000e-19 1.000000000000e-19 1.000000000000e-19 2.141900000000e-03 1.000000000000e-19 1.000000000000e-19 1.000000000000e-19 1.000000000000e-19 1.240000000000e-07 1.000000000000e-19 1.000000000000e-19 1.000000000000e-19 1.000000000000e-19 1.000000000000e-19 1.000000000000e-19 5.400000000000e-05 1.199900000000e-03 1.000000000000e-19 1.900000000000e-04 3.000000000000e-04 2.300000000000e-04 9.540000000000e-03 1.431000000000e-01 2.500000000000e-05 1.000000000000e-09 1.000000000000e-05 2.500000000000e-05 2.500000000000e-05 1.500000000000e-04 1.800000000000e-06 1.886800000000e-01 1.000000000000e-10 
6.573333300000e-02 0.000000000000e+00 0.000000000000e+00 0.000000000000e+00 1.200000000000e-03 1.900000000000e-04 3.000000000000e-04 2.300000000000e-04 7.419500000000e-04 4.049300000000e-07 2.200000000000e-03 1.000000000000e-19 1.000000000000e-19 1.000000000000e-19 2.141900000000e-03 1.000000000000e-19 1.000000000000e-19 1.000000000000e-19 1.000000000000e-19 1.240000000000e-07 1.000000000000e-19 1.000000000000e-19 1.000000000000e-19 1.000000000000e-19 1.000000000000e-19 1.000000000000e-19 5.400000000000e-05 1.199900000000e-03 1.000000000000e-19 1.900000000000e-04 3.000000000000e-04 2.300000000000e-04 9.540000000000e-03 1.431000000000e-01 2.500000000000e-05 1.000000000000e-09 1.000000000000e-05 2.500000000000e-05 2.500000000000e-05 1.500000000000e-04 1.800000000000e-06 1.886800000000e-01 1.000000000000e-10 
6.960000000000e-02 0.000000000000e+00 0.000000000000e+00 0.000000000000e+00 1.200000000000e-03 1.900000000000e-04 3.000000000000e-04 2.300000000000e-04 7.419500000000e-04 4.049300000000e-07 2.200000000000e-03 1.000000000000e-19 1.000000000000e-19 1.000000000000e-19 2.141900000000e-03 1.000000000000e-19 1.000000000000e-19 1.000000000000e-19 1.000000000000e-19 1.240000000000e-07 1.000000000000e-19 1.000000000000e-19 1.000000000000e-19 1.000000000000e-19 1.000000000000e-19 1.000000000000e-19 5.400000000000e-05 1.199900000000e-03 1.000000000000e-19 1.900000000000e-04 3.000000000000e-04 2.300000000000e-04 9.540000000000e-03 1.431000000000e-01 2.500000000000e-05 1.000000000000e-09 1.000000000000e-05 2.500000000000e-05 2.500000000000e-05 1.500000000000e-04 1.800000000000e-06 1.886800000000e-01 1.000000000000e-10 
7.346666700000e-02 0.000000000000e+00 0.000000000000e+00 0.000000000000e+00 1.200000000000e-03 1.900000000000e-04 3.000000000000e-04 2.300000000000e-04 7.419500000000e-04 4.049300000000e-07 2.200000000000e-03 1.000000000000e-19 1.000000000000e-19 1.000000000000e-19 2.141900000000e-03 1.000000000000e-19 1.000000000000e-19 1.000000000000e-19 1.000000000000e-19 1.240000000000e-07 1.000000000000e-19 1.000000000000e-19 1.000000000000e-19 1.000000000000e-19 1.000000000000e-19 1.000000000000e-19 5.400000000000e-05 1.199900000000e-03 1.000000000000e-19 1.900000000000e-04 3.000000000000e-04 2.300000000000e-04 9.540000000000e-03 1.431000000000e-01 2.500000000000e-05 1.000000000000e-09 1.000000000000e-05 2.500000000000e-05 2.500000000000e-05 1.500000000000e-04 1.800000000000e-06 1.886800000000e-01 1.000000000000e-10 
7.733333300000e-02 0.000000000000e+00 0.000000000000e+00 0.000000000000e+00 1.200000000000e-03 1.900000000000e-04 3.000000000000e-04 2.300000000000e-04 7.419500000000e-04 4.049300000000e-07 2.200000000000e-03 1.000000000000e-19 1.000000000000e-19 1.000000000000e-19 2.141900000000e-03 1.000000000000e-19 1.000000000000e-19 1.000000000000e-19 1.000000000000e-19 1.240000000000e-07 1.000000000000e-19 1.000000000000e-19 1.000000000000e-19 1.000000000000e-19 1.000000000000e-19 1.000000000000e-19 5.400000000000e-05 1.199900000000e-03 1.000000000000e-19 1.900000000000e-04 3.000000000000e-04 2.300000000000e-04 9.540000000000e-03 1.431000000000e-01 2.500000000000e-05 1.000000000000e-09 1.000000000000e-05 2.500000000000e-05 2.500000000000e-05 1.500000000000e-04 1.800000000000e-06 1.886800000000e-01 1.000000000000e-10 
8.120000000000e-02 0.000000000000e+00 0.000000000000e+00 0.000000000000e+00 1.200000000000e-03 1.900000000000e-04 3.000000000000e-04 2.300000000000e-04 7.419500000000e-04 4.049300000000e-07 2.200000000000e-03 1.000000000000e-19 1.000000000000e-19 1.000000000000e-19 2.141900000000e-03 1.000000000000e-19 1.000000000000e-19 1.000000000000e-19 1.000000000000e-19 1.240000000000e-07 1.000000000000e-19 1.000000000000e-19 1.000000000000e-19 1.000000000000e-19 1.000000000000e-19 1.000000000000e-19 5.400000000000e-05 1.199900000000e-03 1.000000000000e-19 1.900000000000e-04 3.000000000000e-04 2.300000000000e-04 9.540000000000e-03 1.431000000000e-01 2.500000000000e-05 1.000000000000e-09 1.000000000000e-05 2.500000000000e-05 2.500000000000e-05 1.500000000000e-04 1.800000000000e-06 1.886800000000e-01 1.000000000000e-10 
8.506666700000e-02 0.000000000000e+00 0.000000000000e+00 0.000000000000e+00 1.200000000000e-03 1.900000000000e-04 3.000000000000e-04 2.300000000000e-04 7.419500000000e-04 4.049300000000e-07 2.200000000000e-03 1.000000000000e-19 1.000000000000e-19 1.000000000000e-19 2.141900000000e-03 1.000000000000e-19 1.000000000000e-19 1.000000000000e-19 1.000000000000e-19 1.240000000000e-07 1.000000000000e-19 1.000000000000e-19 1.000000000000e-19 1.000000000000e-19 1.000000000000e-19 1.000000000000e-19 5.400000000000e-05 1.199900000000e-03 1.000000000000e-19 1.900000000000e-04 3.000000000000e-04 2.300000000000e-04 9.540000000000e-03 1.431000000000e-01 2.500000000000e-05 1.000000000000e-09 1.000000000000e-05 2.500000000000e-05 2.500000000000e-05 1.500000000000e-04 1.800000000000e-06 1.886800000000e-01 1.000000000000e-10 
8.893333300000e-02 0.000000000000e+00 0.000000000000e+00 0.000000000000e+00 1.200000000000e-03 1.900000000000e-04 3.000000000000e-04 2.300000000000e-04 7.419500000000e-04 4.049300000000e-07 2.200000000000e-03 1.000000000000e-19 1.000000000000e-19 1.000000000000e-19 2.141900000000e-03 1.000000000000e-19 1.000000000000e-19 1.000000000000e-19 1.000000000000e-19 1.240000000000e-07 1.000000000000e-19 1.000000000000e-19 1.000000000000e-19 1.000000000000e-19 1.000000000000e-19 1.000000000000e-19 5.400000000000e-05 1.199900000000e-03 1.000000000000e-19 1.900000000000e-04 3.000000000000e-04 2.300000000000e-04 9.540000000000e-03 1.431000000000e-01 2.500000000000e-05 1.000000000000e-09 1.000000000000e-05 2.500000000000e-05 2.500000000000e-05 1.500000000000e-04 1.800000000000e-06 1.886800000000e-01 1.000000000000e-10 
9.280000000000e-02 0.000000000000e+00 0.000000000000e+00 0.000000000000e+00 1.200000000000e-03 1.900000000000e-04 3.000000000000e-04 2.300000000000e-04 7.419500000000e-04 4.049300000000e-07 2.200000000000e-03 1.000000000000e-19 1.000000000000e-19 1.000000000000e-19 2.141900000000e-03 1.000000000000e-19 1.000000000000e-19 1.000000000000e-19 1.000000000000e-19 1.240000000000e-07 1.000000000000e-19 1.000000000000e-19 1.000000000000e-19 1.000000000000e-19 1.000000000000e-19 1.000000000000e-19 5.400000000000e-05 1.199900000000e-03 1.000000000000e-19 1.900000000000e-04 3.000000000000e-04 2.300000000000e-04 9.540000000000e-03 1.431000000000e-01 2.500000000000e-05 1.000000000000e-09 1.000000000000e-05 2.500000000000e-05 2.500000000000e-05 1.500000000000e-04 1.800000000000e-06 1.886800000000e-01 1.000000000000e-10 
9.666666700000e-02 0.000000000000e+00 0.000000000000e+00 0.000000000000e+00 1.200000000000e-03 1.900000000000e-04 3.000000000000e-04 2.300000000000e-04 7.419500000000e-04 4.049300000000e-07 2.200000000000e-03 1.000000000000e-19 1.000000000000e-19 1.000000000000e-19 2.141900000000e-03 1.000000000000e-19 1.000000000000e-19 1.000000000000e-19 1.000000000000e-19 1.240000000000e-07 1.000000000000e-19 1.000000000000e-19 1.000000000000e-19 1.000000000000e-19 1.000000000000e-19 1.000000000000e-19 5.400000000000e-05 1.199900000000e-03 1.000000000000e-19 1.900000000000e-04 3.000000000000e-04 2.300000000000e-04 9.540000000000e-03 1.431000000000e-01 2.500000000000e-05 1.000000000000e-09 1.000000000000e-05 2.500000000000e-05 2.500000000000e-05 1.500000000000e-04 1.800000000000e-06 1.886800000000e-01 1.000000000000e-10 
1.005333330000e-01 0.000000000000e+00 0.000000000000e+00 0.000000000000e+00 1.200000000000e-03 1.900000000000e-04 3.000000000000e-04 2.300000000000e-04 7.419500000000e-04 4.049300000000e-07 2.200000000000e-03 1.000000000000e-19 1.000000000000e-19 1.000000000000e-19 2.141900000000e-03 1.000000000000e-19 1.000000000000e-19 1.000000000000e-19 1.000000000000e-19 1.240000000000e-07 1.000000000000e-19 1.000000000000e-19 1.000000000000e-19 1.000000000000e-19 1.000000000000e-19 1.000000000000e-19 5.400000000000e-05 1.199900000000e-03 1.000000000000e-19 1.900000000000e-04 3.000000000000e-04 2.300000000000e-04 9.540000000000e-03 1.431000000000e-01 2.500000000000e-05 1.000000000000e-09 1.000000000000e-05 2.500000000000e-05 2.500000000000e-05 1.500000000000e-04 1.800000000000e-06 1.886800000000e-01 1.000000000000e-10 
1.044000000000e-01 0.000000000000e+00 0.000000000000e+00 0.000000000000e+00 1.200000000000e-03 1.900000000000e-04 3.000000000000e-04 2.300000000000e-04 7.419500000000e-04 4.049300000000e-07 2.200000000000e-03 1.000000000000e-19 1.000000000000e-19 1.000000000000e-19 2.141900000000e-03 1.000000000000e-19 1.000000000000e-19 1.000000000000e-19 1.000000000000e-19 1.240000000000e-07 1.000000000000e-19 1.000000000000e-19 1.000000000000e-19 1.000000000000e-19 1.000000000000e-19 1.000000000000e-19 5.400000000000e-05 1.199900000000e-03 1.000000000000e-19 1.900000000000e-04 3.000000000000e-04 2.300000000000e-04 9.540000000000e-03 1.431000000000e-01 2.500000000000e-05 1.000000000000e-09 1.000000000000e-05 2.500000000000e-05 2.500000000000e-05 1.500000000000e-04 1.800000000000e-06 1.886800000000e-01 1.000000000000e-10 
1.082666670000e-01 0.000000000000e+00 0.000000000000e+00 0.000000000000e+00 1.200000000000e-03 1.900000000000e-04 3.000000000000e-04 2.300000000000e-04 7.419500000000e-04 4.049300000000e-07 2.200000000000e-03 1.000000000000e-19 1.000000000000e-19 1.000000000000e-19 2.141900000000e-03 1.000000000000e-19 1.000000000000e-19 1.000000000000e-19 1.000000000000e-19 1.240000000000e-07 1.000000000000e-19 1.000000000000e-19 1.000000000000e-19 1.000000000000e-19 1.000000000000e-19 1.000000000000e-19 5.400000000000e-05 1.199900000000e-03 1.000000000000e-19 1.900000000000e-04 3.000000000000e-04 2.300000000000e-04 9.540000000000e-03 1.431000000000e-01 2.500000000000e-05 1.000000000000e-09 1.000000000000e-05 2.500000000000e-05 2.500000000000e-05 1.500000000000e-04 1.800000000000e-06 1.886800000000e-01 1.000000000000e-10 
1.121333330000e-01 0.000000000000e+00 0.000000000000e+00 0.000000000000e+00 1.200000000000e-03 1.900000000000e-04 3.000000000000e-04 2.300000000000e-04 7.419500000000e-04 4.049300000000e-07 2.200000000000e-03 1.000000000000e-19 1.000000000000e-19 1.000000000000e-19 2.141900000000e-03 1.000000000000e-19 1.000000000000e-19 1.000000000000e-19 1.000000000000e-19 1.240000000000e-07 1.000000000000e-19 1.000000000000e-19 1.000000000000e-19 1.000000000000e-19 1.000000000000e-19 1.000000000000e-19 5.400000000000e-05 1.199900000000e-03 1.000000000000e-19 1.900000000000e-04 3.000000000000e-04 2.300000000000e-04 9.540000000000e-03 1.431000000000e-01 2.500000000000e-05 1.000000000000e-09 1.000000000000e-05 2.500000000000e-05 2.500000000000e-05 1.500000000000e-04 1.800000000000e-06 1.886800000000e-01 1.000000000000e-10 
1.160000000000e-01 0.000000000000e+00 0.000000000000e+00 0.000000000000e+00 1.200000000000e-03 1.900000000000e-04 3.000000000000e-04 2.300000000000e-04 7.419500000000e-04 4.049300000000e-07 2.200000000000e-03 1.000000000000e-19 1.000000000000e-19 1.000000000000e-19 2.141900000000e-03 1.000000000000e-19 1.000000000000e-19 1.000000000000e-19 1.000000000000e-19 1.240000000000e-07 1.000000000000e-19 1.000000000000e-19 1.000000000000e-19 1.000000000000e-19 1.000000000000e-19 1.000000000000e-19 5.400000000000e-05 1.199900000000e-03 1.000000000000e-19 1.900000000000e-04 3.000000000000e-04 2.300000000000e-04 9.540000000000e-03 1.431000000000e-01 2.500000000000e-05 1.000000000000e-09 1.000000000000e-05 2.500000000000e-05 2.500000000000e-05 1.500000000000e-04 1.800000000000e-06 1.886800000000e-01 1.000000000000e-10 
1.198666670000e-01 0.000000000000e+00 0.000000000000e+00 0.000000000000e+00 1.200000000000e-03 1.900000000000e-04 3.000000000000e-04 2.300000000000e-04 7.419500000000e-04 4.049300000000e-07 2.200000000000e-03 1.000000000000e-19 1.000000000000e-19 1.000000000000e-19 2.141900000000e-03 1.000000000000e-19 1.000000000000e-19 1.000000000000e-19 1.000000000000e-19 1.240000000000e-07 1.000000000000e-19 1.000000000000e-19 1.000000000000e-19 1.000000000000e-19 1.000000000000e-19 1.000000000000e-19 5.400000000000e-05 1.199900000000e-03 1.000000000000e-19 1.900000000000e-04 3.000000000000e-04 2.300000000000e-04 9.540000000000e-03 1.431000000000e-01 2.500000000000e-05 1.000000000000e-09 1.000000000000e-05 2.500000000000e-05 2.500000000000e-05 1.500000000000e-04 1.800000000000e-06 1.886800000000e-01 1.000000000000e-10 
1.237333330000e-01 0.000000000000e+00 0.000000000000e+00 0.000000000000e+00 1.200000000000e-03 1.900000000000e-04 3.000000000000e-04 2.300000000000e-04 7.419500000000e-04 4.049300000000e-07 2.200000000000e-03 1.000000000000e-19 1.000000000000e-19 1.000000000000e-19 2.141900000000e-03 1.000000000000e-19 1.000000000000e-19 1.000000000000e-19 1.000000000000e-19 1.240000000000e-07 1.000000000000e-19 1.000000000000e-19 1.000000000000e-19 1.000000000000e-19 1.000000000000e-19 1.000000000000e-19 5.400000000000e-05 1.199900000000e-03 1.000000000000e-19 1.900000000000e-04 3.000000000000e-04 2.300000000000e-04 9.540000000000e-03 1.431000000000e-01 2.500000000000e-05 1.000000000000e-09 1.000000000000e-05 2.500000000000e-05 2.500000000000e-05 1.500000000000e-04 1.800000000000e-06 1.886800000000e-01 1.000000000000e-10 
1.276000000000e-01 0.000000000000e+00 0.000000000000e+00 0.000000000000e+00 1.200000000000e-03 1.900000000000e-04 3.000000000000e-04 2.300000000000e-04 7.419500000000e-04 4.049300000000e-07 2.200000000000e-03 1.000000000000e-19 1.000000000000e-19 1.000000000000e-19 2.141900000000e-03 1.000000000000e-19 1.000000000000e-19 1.000000000000e-19 1.000000000000e-19 1.240000000000e-07 1.000000000000e-19 1.000000000000e-19 1.000000000000e-19 1.000000000000e-19 1.000000000000e-19 1.000000000000e-19 5.400000000000e-05 1.199900000000e-03 1.000000000000e-19 1.900000000000e-04 3.000000000000e-04 2.300000000000e-04 9.540000000000e-03 1.431000000000e-01 2.500000000000e-05 1.000000000000e-09 1.000000000000e-05 2.500000000000e-05 2.500000000000e-05 1.500000000000e-04 1.800000000000e-06 1.886800000000e-01 1.000000000000e-10 
1.314666670000e-01 0.000000000000e+00 0.000000000000e+00 0.000000000000e+00 1.200000000000e-03 1.900000000000e-04 3.000000000000e-04 2.300000000000e-04 7.419500000000e-04 4.049300000000e-07 2.200000000000e-03 1.000000000000e-19 1.000000000000e-19 1.000000000000e-19 2.141900000000e-03 1.000000000000e-19 1.000000000000e-19 1.000000000000e-19 1.000000000000e-19 1.240000000000e-07 1.000000000000e-19 1.000000000000e-19 1.000000000000e-19 1.000000000000e-19 1.000000000000e-19 1.000000000000e-19 5.400000000000e-05 1.199900000000e-03 1.000000000000e-19 1.900000000000e-04 3.000000000000e-04 2.300000000000e-04 9.540000000000e-03 1.431000000000e-01 2.500000000000e-05 1.000000000000e-09 1.000000000000e-05 2.500000000000e-05 2.500000000000e-05 1.500000000000e-04 1.800000000000e-06 1.886800000000e-01 1.000000000000e-10 
1.353333330000e-01 0.000000000000e+00 0.000000000000e+00 0.000000000000e+00 1.200000000000e-03 1.900000000000e-04 3.000000000000e-04 2.300000000000e-04 7.419500000000e-04 4.049300000000e-07 2.200000000000e-03 1.000000000000e-19 1.000000000000e-19 1.000000000000e-19 2.141900000000e-03 1.000000000000e-19 1.000000000000e-19 1.000000000000e-19 1.000000000000e-19 1.240000000000e-07 1.000000000000e-19 1.000000000000e-19 1.000000000000e-19 1.000000000000e-19 1.000000000000e-19 1.000000000000e-19 5.400000000000e-05 1.199900000000e-03 1.000000000000e-19 1.900000000000e-04 3.000000000000e-04 2.300000000000e-04 9.540000000000e-03 1.431000000000e-01 2.500000000000e-05 1.000000000000e-09 1.000000000000e-05 2.500000000000e-05 2.500000000000e-05 1.500000000000e-04 1.800000000000e-06 1.886800000000e-01 1.000000000000e-10 