<?xml version="1.0"?>
<!-- Time step: 1 | Time: 1.000000000000e+00 -->
<VTKFile type="UnstructuredGrid" version="0.1" byte_order="LittleEndian">
  <UnstructuredGrid>
    <Piece NumberOfPoints="527" NumberOfCells="480">
      <Points>
        <DataArray type="Float64" NumberOfComponents="3" format="ascii">
          1.750000000000e-01 0.000000000000e+00 0.000000000000e+00
          1.766666666667e-01 0.000000000000e+00 0.000000000000e+00
          1.783333333333e-01 0.000000000000e+00 0.000000000000e+00
          1.800000000000e-01 0.000000000000e+00 0.000000000000e+00
          1.816666666667e-01 0.000000000000e+00 0.000000000000e+00
          1.833333333333e-01 0.000000000000e+00 0.000000000000e+00
          1.850000000000e-01 0.000000000000e+00 0.000000000000e+00
          1.866666666667e-01 0.000000000000e+00 0.000000000000e+00
          1.883333333333e-01 0.000000000000e+00 0.000000000000e+00
          1.900000000000e-01 0.000000000000e+00 0.000000000000e+00
          1.916666666667e-01 0.000000000000e+00 0.000000000000e+00
          1.933333333333e-01 0.000000000000e+00 0.000000000000e+00
          1.950000000000e-01 0.000000000000e+00 0.000000000000e+00
          1.966666666667e-01 0.000000000000e+00 0.000000000000e+00
          1.983333333333e-01 0.000000000000e+00 0.000000000000e+00
          2.000000000000e-01 0.000000000000e+00 0.000000000000e+00
          2.016666666667e-01 0.000000000000e+00 0.000000000000e+00
          2.033333333333e-01 0.000000000000e+00 0.000000000000e+00
          2.050000000000e-01 0.000000000000e+00 0.000000000000e+00
          2.066666666667e-01 0.000000000000e+00 0.000000000000e+00
          2.083333333333e-01 0.000000000000e+00 0.000000000000e+00
          2.100000000000e-01 0.000000000000e+00 0.000000000000e+00
          2.116666666667e-01 0.000000000000e+00 0.000000000000e+00
          2.133333333333e-01 0.000000000000e+00 0.000000000000e+00
          2.150000000000e-01 0.000000000000e+00 0.000000000000e+00
          2.166666666667e-01 0.000000000000e+00 0.000000000000e+00
          2.183333333333e-01 0.000000000000e+00 0.000000000000e+00
          2.200000000000e-01 0.000000000000e+00 0.000000000000e+00
          2.216666666667e-01 0.000000000000e+00 0.000000000000e+00
          2.233333333333e-01 0.000000000000e+00 0.000000000000e+00
          2.250000000000e-01 0.000000000000e+00 0.000000000000e+00
          1.741573271428e-01 1.715299981026e-02 0.000000000000e+00
          1.758159683536e-01 1.731636171321e-02 0.000000000000e+00
          1.774746095645e-01 1.747972361617e-02 0.000000000000e+00
          1.791332507754e-01 1.764308551912e-02 0.000000000000e+00
          1.807918919863e-01 1.780644742208e-02 0.000000000000e+00
          1.824505331972e-01 1.796980932503e-02 0.000000000000e+00
          1.841091744081e-01 1.813317122799e-02 0.000000000000e+00
          1.857678156189e-01 1.829653313094e-02 0.000000000000e+00
          1.874264568298e-01 1.845989503390e-02 0.000000000000e+00
          1.890850980407e-01 1.862325693685e-02 0.000000000000e+00
          1.907437392516e-01 1.878661883981e-02 0.000000000000e+00
          1.924023804625e-01 1.894998074276e-02 0.000000000000e+00
          1.940610216734e-01 1.911334264571e-02 0.000000000000e+00
          1.957196628842e-01 1.927670454867e-02 0.000000000000e+00
          1.973783040951e-01 1.944006645162e-02 0.000000000000e+00
          1.990369453060e-01 1.960342835458e-02 0.000000000000e+00
          2.006955865169e-01 1.976679025753e-02 0.000000000000e+00
          2.023542277278e-01 1.993015216049e-02 0.000000000000e+00
          2.040128689387e-01 2.009351406344e-02 0.000000000000e+00
          2.056715101495e-01 2.025687596640e-02 0.000000000000e+00
          2.073301513604e-01 2.042023786935e-02 0.000000000000e+00
          2.089887925713e-01 2.058359977231e-02 0.000000000000e+00
          2.106474337822e-01 2.074696167526e-02 0.000000000000e+00
          2.123060749931e-01 2.091032357822e-02 0.000000000000e+00
          2.139647162040e-01 2.107368548117e-02 0.000000000000e+00
          2.156233574148e-01 2.123704738413e-02 0.000000000000e+00
          2.172819986257e-01 2.140040928708e-02 0.000000000000e+00
          2.189406398366e-01 2.156377119004e-02 0.000000000000e+00
          2.205992810475e-01 2.172713309299e-02 0.000000000000e+00
          2.222579222584e-01 2.189049499595e-02 0.000000000000e+00
          2.239165634693e-01 2.205385689890e-02 0.000000000000e+00
          1.716374239715e-01 3.414080685068e-02 0.000000000000e+00
          1.732720661046e-01 3.446595739212e-02 0.000000000000e+00
          1.749067082377e-01 3.479110793355e-02 0.000000000000e+00
          1.765413503707e-01 3.511625847499e-02 0.000000000000e+00
          1.781759925038e-01 3.544140901642e-02 0.000000000000e+00
          1.798106346368e-01 3.576655955786e-02 0.000000000000e+00
          1.814452767699e-01 3.609171009929e-02 0.000000000000e+00
          1.830799189030e-01 3.641686064073e-02 0.000000000000e+00
          1.847145610360e-01 3.674201118216e-02 0.000000000000e+00
          1.863492031691e-01 3.706716172360e-02 0.000000000000e+00
          1.879838453022e-01 3.739231226503e-02 0.000000000000e+00
          1.896184874352e-01 3.771746280647e-02 0.000000000000e+00
          1.912531295683e-01 3.804261334790e-02 0.000000000000e+00
          1.928877717013e-01 3.836776388934e-02 0.000000000000e+00
          1.945224138344e-01 3.869291443077e-02 0.000000000000e+00
          1.961570559675e-01 3.901806497221e-02 0.000000000000e+00
          1.977916981005e-01 3.934321551364e-02 0.000000000000e+00
          1.994263402336e-01 3.966836605508e-02 0.000000000000e+00
          2.010609823667e-01 3.999351659651e-02 0.000000000000e+00
          2.026956244997e-01 4.031866713795e-02 0.000000000000e+00
          2.043302666328e-01 4.064381767938e-02 0.000000000000e+00
          2.059649087658e-01 4.096896822082e-02 0.000000000000e+00
          2.075995508989e-01 4.129411876225e-02 0.000000000000e+00
          2.092341930320e-01 4.161926930369e-02 0.000000000000e+00
          2.108688351650e-01 4.194441984512e-02 0.000000000000e+00
          2.125034772981e-01 4.226957038656e-02 0.000000000000e+00
          2.141381194312e-01 4.259472092799e-02 0.000000000000e+00
          2.157727615642e-01 4.291987146943e-02 0.000000000000e+00
          2.174074036973e-01 4.324502201086e-02 0.000000000000e+00
          2.190420458303e-01 4.357017255230e-02 0.000000000000e+00
          2.206766879634e-01 4.389532309373e-02 0.000000000000e+00
          1.674645585321e-01 5.079981924816e-02 0.000000000000e+00
          1.690594590896e-01 5.128362705053e-02 0.000000000000e+00
          1.706543596470e-01 5.176743485289e-02 0.000000000000e+00
          1.722492602045e-01 5.225124265525e-02 0.000000000000e+00
          1.738441607619e-01 5.273505045762e-02 0.000000000000e+00
          1.754390613194e-01 5.321885825998e-02 0.000000000000e+00
          1.770339618768e-01 5.370266606234e-02 0.000000000000e+00
          1.786288624342e-01 5.418647386471e-02 0.000000000000e+00
          1.802237629917e-01 5.467028166707e-02 0.000000000000e+00
          1.818186635491e-01 5.515408946943e-02 0.000000000000e+00
          1.834135641066e-01 5.563789727180e-02 0.000000000000e+00
          1.850084646640e-01 5.612170507416e-02 0.000000000000e+00
          1.866033652215e-01 5.660551287652e-02 0.000000000000e+00
          1.881982657789e-01 5.708932067889e-02 0.000000000000e+00
          1.897931663364e-01 5.757312848125e-02 0.000000000000e+00
          1.913880668938e-01 5.805693628361e-02 0.000000000000e+00
          1.929829674513e-01 5.854074408598e-02 0.000000000000e+00
          1.945778680087e-01 5.902455188834e-02 0.000000000000e+00
          1.961727685662e-01 5.950835969070e-02 0.000000000000e+00
          1.977676691236e-01 5.999216749307e-02 0.000000000000e+00
          1.993625696811e-01 6.047597529543e-02 0.000000000000e+00
          2.009574702385e-01 6.095978309779e-02 0.000000000000e+00
          2.025523707960e-01 6.144359090016e-02 0.000000000000e+00
          2.041472713534e-01 6.192739870252e-02 0.000000000000e+00
          2.057421719109e-01 6.241120650488e-02 0.000000000000e+00
          2.073370724683e-01 6.289501430725e-02 0.000000000000e+00
          2.089319730258e-01 6.337882210961e-02 0.000000000000e+00
          2.105268735832e-01 6.386262991198e-02 0.000000000000e+00
          2.121217741407e-01 6.434643771434e-02 0.000000000000e+00
          2.137166746981e-01 6.483024551670e-02 0.000000000000e+00
          2.153115752556e-01 6.531405331907e-02 0.000000000000e+00
          1.616789178010e-01 6.696960160183e-02 0.000000000000e+00
          1.632187170181e-01 6.760740733138e-02 0.000000000000e+00
          1.647585162353e-01 6.824521306092e-02 0.000000000000e+00
          1.662983154524e-01 6.888301879046e-02 0.000000000000e+00
          1.678381146696e-01 6.952082452000e-02 0.000000000000e+00
          1.693779138867e-01 7.015863024954e-02 0.000000000000e+00
          1.709177131039e-01 7.079643597908e-02 0.000000000000e+00
          1.724575123210e-01 7.143424170862e-02 0.000000000000e+00
          1.739973115382e-01 7.207204743817e-02 0.000000000000e+00
          1.755371107553e-01 7.270985316771e-02 0.000000000000e+00
          1.770769099725e-01 7.334765889725e-02 0.000000000000e+00
          1.786167091896e-01 7.398546462679e-02 0.000000000000e+00
          1.801565084068e-01 7.462327035633e-02 0.000000000000e+00
          1.816963076239e-01 7.526107608587e-02 0.000000000000e+00
          1.832361068411e-01 7.589888181541e-02 0.000000000000e+00
          1.847759060582e-01 7.653668754495e-02 0.000000000000e+00
          1.863157052754e-01 7.717449327450e-02 0.000000000000e+00
          1.878555044926e-01 7.781229900404e-02 0.000000000000e+00
          1.893953037097e-01 7.845010473358e-02 0.000000000000e+00
          1.909351029269e-01 7.908791046312e-02 0.000000000000e+00
[...]
      <PointData Scalars="DISPLACEMENT_X1">
        <DataArray type="Float64" Name="STRESS_1" format="ascii">
          -1.039995605535e+03 -6.415492491461e+03 -1.156806446721e+04 -1.651887576853e+04 -2.128127766526e+04 -2.586639875646e+04 -3.028390220459e+04 -3.454238298570e+04 -3.864961542151e+04 -4.261271958366e+04 -4.643827763112e+04 -5.013241723401e+04 -5.370087306169e+04 -5.714903274920e+04 -6.048197176824e+04 -6.370448048633e+04 -6.682108583943e+04 -6.983606848979e+04 -7.275347602443e+04 -7.557713283637e+04 -7.831064728150e+04 -8.095741582706e+04 -8.352062372524e+04 -8.600324171375e+04 -8.840801892752e+04 -9.073747184877e+04 -9.299387064444e+04 -9.517923006196e+04 -9.729533383420e+04 -9.934388897946e+04 -1.013278502910e+05 -1.040335827752e+03 -6.415639785740e+03 -1.156814279552e+04 -1.651892233101e+04 -2.128130748681e+04 -2.586641910155e+04 -3.028391685487e+04 -3.454239411063e+04 -3.864962434386e+04 -4.261272712358e+04 -4.643828418228e+04 -5.013242300227e+04 -5.370087824773e+04 -5.714903747193e+04 -6.048197600681e+04 -6.370448411057e+04 -6.682108878751e+04 -6.983607072324e+04 -7.275347751820e+04 -7.557713347709e+04 -7.831064695517e+04 -8.095741439143e+04 -8.352062101075e+04 -8.600323753401e+04 -8.840801324728e+04 -9.073746489145e+04 -9.299386301358e+04 -9.517922307914e+04 -9.729532986152e+04 -9.934389066813e+04 -1.013278545897e+05 -1.040735048100e+03 -6.415792276982e+03 -1.156822180076e+04 -1.651897208007e+04 -2.128134190620e+04 -2.586644429708e+04 -3.028393609581e+04 -3.454240941836e+04 -3.864963692536e+04 -4.261273786796e+04 -4.643829373519e+04 -5.013243155693e+04 -5.370088585336e+04 -5.714904395604e+04 -6.048198154091e+04 -6.370448843604e+04 -6.682109192734e+04 -6.983607220531e+04 -7.275347749080e+04 -7.557713145489e+04 -7.831064289996e+04 -8.095740742383e+04 -8.352061089162e+04 -8.600322316741e+04 -8.840799390404e+04 -9.073743875445e+04 -9.299382854423e+04 -9.517917718226e+04 -9.729526777859e+04 -9.934380111519e+04 -1.013277135031e+05 -1.041436836693e+03 -6.416059263603e+03 -1.156835838915e+04 -1.651905619645e+04 -2.128139876082e+04 -2.586648441091e+04 -3.028396554090e+04 -3.454243175460e+04 -3.864965474778e+04 -4.261275243115e+04 -4.643830569877e+04 -5.013244149532e+04 -5.370089413249e+04 -5.714905092140e+04 -6.048198672848e+04 -6.370449205979e+04 -6.682109349736e+04 -6.983607194794e+04 -7.275347429443e+04 -7.557712532435e+04 -7.831063272004e+04 -8.095739314095e+04 -8.352059066351e+04 -8.600319616660e+04 -8.840795783282e+04 -9.073739203384e+04 -9.299376716533e+04 -9.517909638211e+04 -9.729515793469e+04 -9.934364333576e+04 -1.013274653425e+05 -1.042502447237e+03 -6.416462516624e+03 -1.156856117888e+04 -1.651917796565e+04 -2.128147746462e+04 -2.586653717906e+04 -3.028400126490e+04 -3.454245651701e+04 -3.864967194293e+04 -4.261276465967e+04 -4.643831414157e+04 -5.013244717686e+04 -5.370089753980e+04 -5.714905244253e+04 -6.048198635541e+04 -6.370448949824e+04 -6.682108857023e+04 -6.983606414999e+04 -7.275346320457e+04 -7.557710992577e+04 -7.831061223433e+04 -8.095736618374e+04 -8.352055589807e+04 -8.600315131491e+04 -8.840790037043e+04 -9.073731819974e+04 -9.299367193225e+04 -9.517897169523e+04 -9.729499000949e+04 -9.934340255300e+04 -1.013270884128e+05 -1.044033837954e+03 -6.417038036831e+03 -1.156884584665e+04 -1.651934363807e+04 -2.128157972765e+04 -2.586660007395e+04 -3.028403911664e+04 -3.454247753629e+04 -3.864968179977e+04 -4.261276660469e+04 -4.643831132913e+04 -5.013244095477e+04 -5.370088875466e+04 -5.714904082265e+04 -6.048197246908e+04 -6.370447316515e+04 -6.682106975291e+04 -6.983604181814e+04 -7.275343700980e+04 -7.557707856064e+04 -7.831057462520e+04 -8.095732008532e+04 -8.352049962085e+04 -8.600308154735e+04 -8.840781337810e+04 -9.073720790323e+04 -9.299353149212e+04 -9.517878971824e+04 -9.729474709634e+04 -9.934305505668e+04 -1.013265465120e+05 -1.046196137238e+03 -6.417845359386e+03 -1.156923794740e+04 -1.651956508725e+04 -2.128170917742e+04 -2.586667269110e+04 -3.028407438739e+04 -3.454248835673e+04 -3.864967636472e+04 -4.261275061013e+04 -4.643828794536e+04 -5.013241275706e+04 -5.370085710253e+04 -5.714900686116e+04 -6.048193591518e+04 -6.370443408682e+04 -6.682102741510e+04 -6.983599611317e+04 -7.275338646159e+04 -7.557702224322e+04 -7.831051015888e+04 -8.095724561666e+04 -8.352041123354e+04 -8.600297551116e+04 -8.840768351272e+04 -9.073704740449e+04 -9.299332917343e+04 -9.517853001361e+04 -9.729440120353e+04 -9.934256256802e+04 -1.013257811943e+05 -1.049260774090e+03 -6.418981440882e+03 -1.156978093179e+04 -1.651986289982e+04 -2.128187458743e+04 -2.586675605307e+04 -3.028410404162e+04 -3.454248232237e+04 -3.864964665668e+04 -4.261270544330e+04 -4.643823258563e+04 -5.013235067659e+04 -5.370079049865e+04 -5.714893716166e+04 -6.048186379909e+04 -6.370435950605e+04 -6.682094992254e+04 -6.983591458932e+04 -7.275329952810e+04 -7.557692778736e+04 -7.831040593669e+04 -8.095712799685e+04 -8.352027579042e+04 -8.600281596475e+04 -8.840749233702e+04 -9.073681379797e+04 -9.299303837701e+04 -9.517815887525e+04 -9.729390953500e+04 -9.934186281410e+04 -1.013246966628e+05 -1.053689910955e+03 -6.420611016613e+03 -1.157054934767e+04 -1.652027564884e+04 -2.128209468877e+04 -2.586685576554e+04 -3.028412499122e+04 -3.454245096755e+04 -3.864958105190e+04 -4.261261696675e+04 -4.643812945225e+04 -5.013223797461e+04 -5.370067205932e+04 -5.714881451718e+04 -6.048173821421e+04 -6.370423104748e+04 -6.682081853845e+04 -6.983577861221e+04 -7.275315713082e+04 -7.557677603988e+04 -7.831024151209e+04 -8.095694565602e+04 -8.352006915704e+04 -8.600257628654e+04 -8.840720858997e+04 -9.073647040873e+04 -9.299261397759e+04 -9.517762040242e+04 -9.729319868402e+04 -9.934085102897e+04 -1.013231300507e+05 -1.060316608830e+03 -6.423026873449e+03 -1.157167499387e+04 -1.652087073882e+04 -2.128240157682e+04 -2.586698329492e+04 -3.028413480107e+04 -3.454238254421e+04 -3.864946012224e+04 -4.261246211161e+04 -4.643795270579e+04 -5.013204771147e+04 -5.370047279004e+04 -5.714861005069e+04 -6.048152990487e+04 -6.370401949475e+04 -6.682060227837e+04 -6.983555675089e+04 -7.275292687997e+04 -7.557653382558e+04 -7.830998107590e+04 -8.095666035537e+04 -8.351974934698e+04 -8.600220986063e+04 -8.840677796469e+04 -9.073595320989e+04 -9.299197794428e+04 -9.517681687229e+04 -9.729213864752e+04 -9.933933979943e+04 -1.013207888006e+05 -1.070766352465e+03 -6.426784911877e+03 -1.157339963937e+04 -1.652177203627e+04 -2.128285705414e+04 -2.586715884919e+04 -3.028412630400e+04 -3.454225151708e+04 -3.864924818090e+04 -4.261219685799e+04 -4.643765341131e+04 -5.013172662598e+04 -5.370013838716e+04 -5.714826690215e+04 -6.048118122736e+04 -6.370366580967e+04 -6.682024305092e+04 -6.983518894719e+04 -7.275254703690e+04 -7.557613592783e+04 -7.830955756083e+04 -8.095619969930e+04 -8.351923728153e+04 -8.600162640368e+04 -8.840609736089e+04 -9.073513976252e+04 -9.299098298145e+04 -9.517556372902e+04 -9.729048568116e+04 -9.933696892493e+04 -1.013171045133e+05 -1.088569686666e+03 -6.433059654933e+03 -1.157619493152e+04 -1.652320998626e+04 -2.128357400211e+04 -2.586741813877e+04 -3.028407850912e+04 -3.454199837392e+04 -3.864885980817e+04 -4.261172057792e+04 -4.643712007545e+04 -5.013115746469e+04 -5.369954716648e+04 -5.714766211619e+04 -6.048056682810e+04 -6.370304387031e+04 -6.681961275324e+04 -6.983454686822e+04 -7.275188618580e+04 -7.557544738605e+04 -7.830882824030e+04 -8.095541133591e+04 -8.351836420701e+04 -8.600063647814e+04 -8.840494911793e+04 -9.073377879336e+04 -9.298933011978e+04 -9.517348792894e+04 -9.728773014206e+04 -9.933296885792e+04 -1.013108508099e+05 -1.122539887677e+03 -6.444830593020e+03 -1.158109516543e+04 -1.652555951209e+04 -2.128469844112e+04 -2.586779656736e+04 -3.028394239838e+04 -3.454149739799e+04 -3.864810565147e+04 -4.261079795502e+04 -4.643609107923e+04 -5.013006456837e+04 -5.369841813809e+04 -5.714651375073e+04 -6.047940788342e+04 -6.370187611250e+04 -6.681843297679e+04 -6.983334693129e+04 -7.275065264798e+04 -7.557415995110e+04 -7.830746047855e+04 -8.095393047619e+04 -8.351673100738e+04 -8.599880275369e+04 -8.840285354241e+04 -9.073133190103e+04 -9.298637895686e+04 -9.516974306044e+04 -9.728263372491e+04 -9.932542882186e+04 -1.012989894837e+05 -1.198135943823e+03 -6.472446341418e+03 -1.159191725827e+04 -1.652951893549e+04 -2.128574109022e+04 -2.586754753802e+04 -3.028304584478e+04 -3.454020038019e+04 -3.864651323316e+04 -4.260897402296e+04 -4.643408966203e+04 -5.012793440100e+04 -5.369619944400e+04 -5.714423526933e+04 -6.047708499162e+04 -6.369951110105e+04 -6.681601673847e+04 -6.983086213403e+04 -7.274807660701e+04 -7.557146782931e+04 -7.830462713764e+04 -8.095092923131e+04 -8.351352372539e+04 -8.599531660390e+04 -8.839893665428e+04 -9.072668272291e+04 -9.298045077033e+04 -9.516164600499e+04 -9.727105931391e+04 -9.930844946822e+04 -1.012727507197e+05 -1.386509335692e+03 -6.564683933565e+03 -1.164163601726e+04 -1.655236841666e+04 -2.129208539772e+04 -2.586482828354e+04 -3.027613143867e+04 -3.453192359181e+04 -3.863830281057e+04 -4.260139445312e+04 -4.642723194402e+04 -5.012167032303e+04 -5.369033312118e+04 -5.713858532647e+04 -6.047152320757e+04 -6.369397341686e+04 -6.681049598407e+04 -6.982538748879e+04 -7.274268209424e+04 -7.556614808308e+04 -7.829927798557e+04 -8.094527206789e+04 -8.350701717661e+04 -8.598706571745e+04 -8.838762735010e+04 -9.071059907175e+04 -9.295767187944e+04 -9.513052710680e+04 -9.723091910595e+04 -9.925937619730e+04 -1.012069489527e+05 -1.371364233141e+03 -6.847687648087e+03 -1.201147886998e+04 -1.691315482371e+04 -2.160293324590e+04 -2.611321805689e+04 -3.046324631599e+04 -3.466477968697e+04 -3.872569747764e+04 -4.265193576453e+04 -4.644847101154e+04 -5.011979886086e+04 -5.367015637683e+04 -5.710361619778e+04 -6.042411887961e+04 -6.363547638882e+04 -6.674136500655e+04 -6.974531647888e+04 -7.265071401654e+04 -7.546079696582e+04 -7.817868070751e+04 -8.080740035425e+04 -8.334999346648e+04 -8.580964348895e+04 -8.818991950755e+04 -9.049515755914e+04 -9.273101511666e+04 -9.490509163563e+04 -9.702686614980e+04 -9.910339946703e+04 -1.011107179625e+05 -5.769078248927e+03 -4.323294178229e+03 -8.652959693954e+03 -1.396723303745e+04 -1.932491874863e+04 -2.447174196701e+04 -2.935566328292e+04 -3.398386536843e+04 -3.837881310813e+04 -4.256461070096e+04 -4.656305887498e+04 -5.039289043569e+04 -5.407000656390e+04 -5.760797439353e+04 -6.101853634728e+04 -6.431206162634e+04 -6.749792223463e+04 -7.058480082381e+04 -7.358093181822e+04 -7.649428524437e+04 -7.933267708859e+04 -8.210376549649e+04 -8.481482683162e+04 -8.747209050833e+04 -9.007909566860e+04 -9.263280662223e+04 -9.511437082824e+04 -9.746661056390e+04 -9.953744008534e+04 -1.009327437007e+05 -1.003495698322e+05 
        </DataArray>
        <DataArray type="Float64" Name="STRESS_2" format="ascii">