 TITLE = "Profiles along polylines"
 VARIABLES = "DIST" "PRESSURE1" 
 ZONE T="TIME=0.000000000000e+00"
0.000000000000e+00 6.376500000000e+04 
1.000000000000e+00 6.376500000000e+04 
2.000000000000e+00 6.376500000000e+04 
3.000000000000e+00 6.376500000000e+04 
4.000000000000e+00 6.376500000000e+04 
5.000000000000e+00 6.376500000000e+04 
6.000000000000e+00 6.376500000000e+04 
7.000000000000e+00 6.376500000000e+04 
8.000000000000e+00 6.376500000000e+04 
9.000000000000e+00 6.376500000000e+04 
1.000000000000e+01 6.376500000000e+04 
1.100000000000e+01 6.376500000000e+04 
1.200000000000e+01 6.376500000000e+04 
1.300000000000e+01 6.376500000000e+04 
1.400000000000e+01 6.376500000000e+04 
1.500000000000e+01 6.376500000000e+04 
1.600000000000e+01 6.376500000000e+04 
1.700000000000e+01 6.376500000000e+04 
1.800000000000e+01 6.376500000000e+04 
1.900000000000e+01 6.376500000000e+04 
2.000000000000e+01 6.376500000000e+04 
2.100000000000e+01 6.376500000000e+04 
2.200000000000e+01 6.376500000000e+04 
2.300000000000e+01 6.376500000000e+04 
2.400000000000e+01 6.376500000000e+04 
2.500000000000e+01 6.376500000000e+04 
2.600000000000e+01 6.376500000000e+04 
2.700000000000e+01 6.376500000000e+04 
2.800000000000e+01 6.376500000000e+04 
2.900000000000e+01 6.376500000000e+04 
3.000000000000e+01 6.376500000000e+04 
3.100000000000e+01 6.376500000000e+04 
3.200000000000e+01 6.376500000000e+04 
3.300000000000e+01 6.376500000000e+04 
3.400000000000e+01 6.376500000000e+04 
3.500000000000e+01 6.376500000000e+04 
3.600000000000e+01 6.376500000000e+04 
3.700000000000e+01 6.376500000000e+04 
3.800000000000e+01 6.376500000000e+04 
3.900000000000e+01 6.376500000000e+04 
4.000000000000e+01 6.376500000000e+04 
4.100000000000e+01 6.376500000000e+04 
4.200000000000e+01 6.376500000000e+04 
4.300000000000e+01 6.376500000000e+04 
4.400000000000e+01 6.376500000000e+04 
4.500000000000e+01 6.376500000000e+04 
4.600000000000e+01 6.376500000000e+04 
4.700000000000e+01 6.376500000000e+04 
4.800000000000e+01 6.376500000000e+04 
4.900000000000e+01 6.376500000000e+04 
5.000000000000e+01 6.376500000000e+04 
5.100000000000e+01 6.376500000000e+04 
5.200000000000e+01 6.376500000000e+04 
5.300000000000e+01 6.376500000000e+04 
5.400000000000e+01 6.376500000000e+04 
5.500000000000e+01 6.376500000000e+04 
5.600000000000e+01 6.376500000000e+04 
5.700000000000e+01 6.376500000000e+04 
5.800000000000e+01 6.376500000000e+04 
5.900000000000e+01 6.376500000000e+04 
6.000000000000e+01 6.376500000000e+04 
6.100000000000e+01 6.376500000000e+04 
6.200000000000e+01 6.376500000000e+04 
6.300000000000e+01 6.376500000000e+04 
6.400000000000e+01 6.376500000000e+04 
6.500000000000e+01 6.376500000000e+04 
6.600000000000e+01 6.376500000000e+04 
6.700000000000e+01 6.376500000000e+04 
6.800000000000e+01 6.376500000000e+04 
6.900000000000e+01 6.376500000000e+04 
7.000000000000e+01 6.376500000000e+04 
7.100000000000e+01 6.376500000000e+04 
7.200000000000e+01 6.376500000000e+04 
7.300000000000e+01 6.376500000000e+04 
7.400000000000e+01 6.376500000000e+04 
7.500000000000e+01 6.376500000000e+04 
7.600000000000e+01 6.376500000000e+04 
7.700000000000e+01 6.376500000000e+04 
7.800000000000e+01 6.376500000000e+04 
7.900000000000e+01 6.376500000000e+04 
8.000000000000e+01 6.376500000000e+04 
8.100000000000e+01 6.376500000000e+04 
8.200000000000e+01 6.376500000000e+04 
8.300000000000e+01 6.376500000000e+04 
8.400000000000e+01 6.376500000000e+04 
8.500000000000e+01 6.376500000000e+04 
8.600000000000e+01 6.376500000000e+04 
8.700000000000e+01 6.376500000000e+04 
8.800000000000e+01 6.376500000000e+04 
8.900000000000e+01 6.376500000000e+04 
9.000000000000e+01 6.376500000000e+04 
9.100000000000e+01 6.376500000000e+04 
9.200000000000e+01 6.376500000000e+04 
9.300000000000e+01 6.376500000000e+04 
9.400000000000e+01 6.376500000000e+04 
9.500000000000e+01 6.376500000000e+04 
9.600000000000e+01 6.376500000000e+04 
9.700000000000e+01 6.376500000000e+04 
9.800000000000e+01 6.376500000000e+04 
9.900000000000e+01 6.376500000000e+04 
1.000000000000e+02 6.376500000000e+04 
 TITLE = "Profiles along polylines"
 VARIABLES = "DIST" "PRESSURE1" 
 ZONE T="TIME=1.000000000000e+00"
0.000000000000e+00 7.848000000000e+04 
1.000000000000e+00 7.841206077874e+04 
2.000000000000e+00 7.834330491084e+04 
3.000000000000e+00 7.827298733330e+04 
4.000000000000e+00 7.820048393595e+04 
5.000000000000e+00 7.812530860978e+04 
6.000000000000e+00 7.804710281767e+04 
7.000000000000e+00 7.796561079746e+04 
8.000000000000e+00 7.788065257776e+04 
9.000000000000e+00 7.779210141865e+04 
1.000000000000e+01 7.769986718065e+04 
1.100000000000e+01 7.760388469827e+04 
1.200000000000e+01 7.750410573116e+04 
1.300000000000e+01 7.740049333302e+04 
1.400000000000e+01 7.729301782238e+04 
1.500000000000e+01 7.718165382108e+04 
1.600000000000e+01 7.706637802641e+04 
1.700000000000e+01 7.694716751948e+04 
1.800000000000e+01 7.682399850800e+04 
1.900000000000e+01 7.669684547406e+04 
2.000000000000e+01 7.656568075258e+04 
2.100000000000e+01 7.643047459809e+04 
2.200000000000e+01 7.629119579362e+04 
2.300000000000e+01 7.614781281066e+04 
2.400000000000e+01 7.600029545331e+04 
2.500000000000e+01 7.584861683026e+04 
2.600000000000e+01 7.569275541611e+04 
2.700000000000e+01 7.553269690160e+04 
2.800000000000e+01 7.536843549702e+04 
2.900000000000e+01 7.519997435382e+04 
3.000000000000e+01 7.502732481806e+04 
3.100000000000e+01 7.485050433766e+04 
3.200000000000e+01 7.466953301051e+04 
3.300000000000e+01 7.448442895518e+04 
3.400000000000e+01 7.429520286444e+04 
3.500000000000e+01 7.410185223045e+04 
3.600000000000e+01 7.390435581280e+04 
3.700000000000e+01 7.370266899283e+04 
3.800000000000e+01 7.349672074288e+04 
3.900000000000e+01 7.328641299856e+04 
4.000000000000e+01 7.307162316037e+04 
4.100000000000e+01 7.285221018269e+04 
4.200000000000e+01 7.262802422423e+04 
4.300000000000e+01 7.239891920451e+04 
4.400000000000e+01 7.216476693500e+04 
4.500000000000e+01 7.192547086256e+04 
4.600000000000e+01 7.168097699626e+04 
4.700000000000e+01 7.143127948994e+04 
4.800000000000e+01 7.117641888126e+04 
4.900000000000e+01 7.091647228716e+04 
5.000000000000e+01 7.065153673341e+04 
5.100000000000e+01 7.038170864298e+04 
5.200000000000e+01 7.010706349194e+04 
5.300000000000e+01 6.982763906846e+04 
5.400000000000e+01 6.954342308791e+04 
5.500000000000e+01 6.925434436933e+04 
5.600000000000e+01 6.896026733906e+04 
5.700000000000e+01 6.866099586591e+04 
5.800000000000e+01 6.835629224293e+04 
5.900000000000e+01 6.804591218694e+04 
6.000000000000e+01 6.772964154215e+04 
6.100000000000e+01 6.740731904640e+04 
6.200000000000e+01 6.707883638877e+04 
6.300000000000e+01 6.674412510912e+04 
6.400000000000e+01 6.640314401884e+04 
6.500000000000e+01 6.605587629048e+04 
6.600000000000e+01 6.570233238458e+04 
6.700000000000e+01 6.534254885656e+04 
6.800000000000e+01 6.497657333635e+04 
6.900000000000e+01 6.460443296837e+04 
7.000000000000e+01 6.422609271298e+04 
7.100000000000e+01 6.384141798540e+04 
7.200000000000e+01 6.345015933465e+04 
7.300000000000e+01 6.305197271967e+04 
7.400000000000e+01 6.264647735827e+04 
7.500000000000e+01 6.223333724141e+04 
7.600000000000e+01 6.181233851618e+04 
7.700000000000e+01 6.138343082156e+04 
7.800000000000e+01 6.094671111901e+04 
7.900000000000e+01 6.050235070758e+04 
8.000000000000e+01 6.005048207935e+04 
8.100000000000e+01 5.959108609728e+04 
8.200000000000e+01 5.912391888219e+04 
8.300000000000e+01 5.864853128998e+04 
8.400000000000e+01 5.816436797973e+04 
8.500000000000e+01 5.767090841943e+04 
8.600000000000e+01 5.716776215627e+04 
8.700000000000e+01 5.665470374690e+04 
8.800000000000e+01 5.613165044415e+04 
8.900000000000e+01 5.559861538298e+04 
9.000000000000e+01 5.505562469204e+04 
9.100000000000e+01 5.450260151647e+04 
9.200000000000e+01 5.393925735417e+04 
9.300000000000e+01 5.336507783958e+04 
9.400000000000e+01 5.277947041798e+04 
9.500000000000e+01 5.218205394489e+04 
9.600000000000e+01 5.157297716479e+04 
9.700000000000e+01 5.095314091511e+04 
9.800000000000e+01 5.032426975856e+04 
9.900000000000e+01 4.968885626029e+04 
1.000000000000e+02 4.905000000000e+04 
 ZONE T="TIME=2.000000000000e+00"
0.000000000000e+00 7.848000000000e+04 
1.000000000000e+00 7.841206077867e+04 
2.000000000000e+00 7.834330491071e+04 
3.000000000000e+00 7.827298733310e+04 
4.000000000000e+00 7.820048393568e+04 
5.000000000000e+00 7.812530860945e+04 
6.000000000000e+00 7.804710281726e+04 
7.000000000000e+00 7.796561079698e+04 
8.000000000000e+00 7.788065257721e+04 
9.000000000000e+00 7.779210141802e+04 
1.000000000000e+01 7.769986717995e+04 
1.100000000000e+01 7.760388469749e+04 
1.200000000000e+01 7.750410573031e+04 
1.300000000000e+01 7.740049333209e+04 
1.400000000000e+01 7.729301782136e+04 
1.500000000000e+01 7.718165381998e+04 
1.600000000000e+01 7.706637802522e+04 
1.700000000000e+01 7.694716751820e+04 
1.800000000000e+01 7.682399850663e+04 
1.900000000000e+01 7.669684547259e+04 
2.000000000000e+01 7.656568075101e+04 
2.100000000000e+01 7.643047459643e+04 
2.200000000000e+01 7.629119579186e+04 
2.300000000000e+01 7.614781280879e+04 
2.400000000000e+01 7.600029545134e+04 
2.500000000000e+01 7.584861682818e+04 
2.600000000000e+01 7.569275541393e+04 
2.700000000000e+01 7.553269689931e+04 
2.800000000000e+01 7.536843549461e+04 
2.900000000000e+01 7.519997435128e+04 
3.000000000000e+01 7.502732481539e+04 
3.100000000000e+01 7.485050433483e+04 
3.200000000000e+01 7.466953300752e+04 
3.300000000000e+01 7.448442895202e+04 
3.400000000000e+01 7.429520286110e+04 
3.500000000000e+01 7.410185222691e+04 
3.600000000000e+01 7.390435580907e+04 
3.700000000000e+01 7.370266898890e+04 
3.800000000000e+01 7.349672073875e+04 
3.900000000000e+01 7.328641299426e+04 
4.000000000000e+01 7.307162315591e+04 
4.100000000000e+01 7.285221017811e+04 
4.200000000000e+01 7.262802421955e+04 
4.300000000000e+01 7.239891919977e+04 
4.400000000000e+01 7.216476693024e+04 
4.500000000000e+01 7.192547085780e+04 
4.600000000000e+01 7.168097699150e+04 
4.700000000000e+01 7.143127948520e+04 
4.800000000000e+01 7.117641887650e+04 
4.900000000000e+01 7.091647228236e+04 
5.000000000000e+01 7.065153672852e+04 
5.100000000000e+01 7.038170863796e+04 
5.200000000000e+01 7.010706348676e+04 
5.300000000000e+01 6.982763906310e+04 
5.400000000000e+01 6.954342308238e+04 
5.500000000000e+01 6.925434436367e+04 
5.600000000000e+01 6.896026733330e+04 
5.700000000000e+01 6.866099586010e+04 
5.800000000000e+01 6.835629223712e+04 
5.900000000000e+01 6.804591218120e+04 
6.000000000000e+01 6.772964153652e+04 
6.100000000000e+01 6.740731904092e+04 
6.200000000000e+01 6.707883638348e+04 
6.300000000000e+01 6.674412510405e+04 
6.400000000000e+01 6.640314401399e+04 
6.500000000000e+01 6.605587628588e+04 
6.600000000000e+01 6.570233238022e+04 
6.700000000000e+01 6.534254885241e+04 
6.800000000000e+01 6.497657333239e+04 
6.900000000000e+01 6.460443296460e+04 
7.000000000000e+01 6.422609270942e+04 
7.100000000000e+01 6.384141798213e+04 
7.200000000000e+01 6.345015933181e+04 
7.300000000000e+01 6.305197271740e+04 
7.400000000000e+01 6.264647735672e+04 
7.500000000000e+01 6.223333724067e+04 
7.600000000000e+01 6.181233851626e+04 
7.700000000000e+01 6.138343082239e+04 
7.800000000000e+01 6.094671112048e+04 
7.900000000000e+01 6.050235070953e+04 
8.000000000000e+01 6.005048208169e+04 
8.100000000000e+01 5.959108609997e+04 
8.200000000000e+01 5.912391888523e+04 
8.300000000000e+01 5.864853129341e+04 
8.400000000000e+01 5.816436798361e+04 
8.500000000000e+01 5.767090842377e+04 
8.600000000000e+01 5.716776216107e+04 
8.700000000000e+01 5.665470375212e+04 
8.800000000000e+01 5.613165044971e+04 
8.900000000000e+01 5.559861538877e+04 
9.000000000000e+01 5.505562469793e+04 
9.100000000000e+01 5.450260152238e+04 
9.200000000000e+01 5.393925735998e+04 
9.300000000000e+01 5.336507784518e+04 
9.400000000000e+01 5.277947042321e+04 
9.500000000000e+01 5.218205394955e+04 
9.600000000000e+01 5.157297716870e+04 
9.700000000000e+01 5.095314091811e+04 
9.800000000000e+01 5.032426976058e+04 
9.900000000000e+01 4.968885626130e+04 
1.000000000000e+02 4.905000000000e+04 
