<?xml version="1.0"?>
<!-- Time step: 2 | Time: 2.000000000000e+00 -->
<VTKFile type="UnstructuredGrid" version="0.1" byte_order="LittleEndian">
  <UnstructuredGrid>
    <Piece NumberOfPoints="1111" NumberOfCells="1000">
      <Points>
        <DataArray type="Float64" NumberOfComponents="3" format="ascii">
          0.000000000000e+00 0.000000000000e+00 0.000000000000e+00
          1.000000000000e+00 0.000000000000e+00 0.000000000000e+00
          1.000000000000e+00 0.000000000000e+00 1.000000000000e+00
          0.000000000000e+00 0.000000000000e+00 1.000000000000e+00
          1.000000000000e+00 0.000000000000e+00 2.000000000000e+00
          0.000000000000e+00 0.000000000000e+00 2.000000000000e+00
          1.000000000000e+00 0.000000000000e+00 3.000000000000e+00
          0.000000000000e+00 0.000000000000e+00 3.000000000000e+00
          1.000000000000e+00 0.000000000000e+00 4.000000000000e+00
          0.000000000000e+00 0.000000000000e+00 4.000000000000e+00
          1.000000000000e+00 0.000000000000e+00 5.000000000000e+00
          0.000000000000e+00 0.000000000000e+00 5.000000000000e+00
          1.000000000000e+00 0.000000000000e+00 6.000000000000e+00
          0.000000000000e+00 0.000000000000e+00 6.000000000000e+00
          1.000000000000e+00 0.000000000000e+00 7.000000000000e+00
          0.000000000000e+00 0.000000000000e+00 7.000000000000e+00
          1.000000000000e+00 0.000000000000e+00 8.000000000000e+00
          0.000000000000e+00 0.000000000000e+00 8.000000000000e+00
          1.000000000000e+00 0.000000000000e+00 9.000000000000e+00
          0.000000000000e+00 0.000000000000e+00 9.000000000000e+00
          1.000000000000e+00 0.000000000000e+00 1.000000000000e+01
          0.000000000000e+00 0.000000000000e+00 1.000000000000e+01
          2.000000000000e+00 0.000000000000e+00 0.000000000000e+00
          2.000000000000e+00 0.000000000000e+00 1.000000000000e+00
          2.000000000000e+00 0.000000000000e+00 2.000000000000e+00
          2.000000000000e+00 0.000000000000e+00 3.000000000000e+00
          2.000000000000e+00 0.000000000000e+00 4.000000000000e+00
          2.000000000000e+00 0.000000000000e+00 5.000000000000e+00
          2.000000000000e+00 0.000000000000e+00 6.000000000000e+00
          2.000000000000e+00 0.000000000000e+00 7.000000000000e+00
          2.000000000000e+00 0.000000000000e+00 8.000000000000e+00
          2.000000000000e+00 0.000000000000e+00 9.000000000000e+00
          2.000000000000e+00 0.000000000000e+00 1.000000000000e+01
          3.000000000000e+00 0.000000000000e+00 0.000000000000e+00
          3.000000000000e+00 0.000000000000e+00 1.000000000000e+00
          3.000000000000e+00 0.000000000000e+00 2.000000000000e+00
          3.000000000000e+00 0.000000000000e+00 3.000000000000e+00
          3.000000000000e+00 0.000000000000e+00 4.000000000000e+00
          3.000000000000e+00 0.000000000000e+00 5.000000000000e+00
          3.000000000000e+00 0.000000000000e+00 6.000000000000e+00
          3.000000000000e+00 0.000000000000e+00 7.000000000000e+00
          3.000000000000e+00 0.000000000000e+00 8.000000000000e+00
          3.000000000000e+00 0.000000000000e+00 9.000000000000e+00
          3.000000000000e+00 0.000000000000e+00 1.000000000000e+01
          4.000000000000e+00 0.000000000000e+00 0.000000000000e+00
          4.000000000000e+00 0.000000000000e+00 1.000000000000e+00
          4.000000000000e+00 0.000000000000e+00 2.000000000000e+00
          4.000000000000e+00 0.000000000000e+00 3.000000000000e+00
          4.000000000000e+00 0.000000000000e+00 4.000000000000e+00
          4.000000000000e+00 0.000000000000e+00 5.000000000000e+00
          4.000000000000e+00 0.000000000000e+00 6.000000000000e+00
          4.000000000000e+00 0.000000000000e+00 7.000000000000e+00
          4.000000000000e+00 0.000000000000e+00 8.000000000000e+00
          4.000000000000e+00 0.000000000000e+00 9.000000000000e+00
          4.000000000000e+00 0.000000000000e+00 1.000000000000e+01
          5.000000000000e+00 0.000000000000e+00 0.000000000000e+00
          5.000000000000e+00 0.000000000000e+00 1.000000000000e+00
          5.000000000000e+00 0.000000000000e+00 2.000000000000e+00
          5.000000000000e+00 0.000000000000e+00 3.000000000000e+00
          5.000000000000e+00 0.000000000000e+00 4.000000000000e+00
          5.000000000000e+00 0.000000000000e+00 5.000000000000e+00
          5.000000000000e+00 0.000000000000e+00 6.000000000000e+00
          5.000000000000e+00 0.000000000000e+00 7.000000000000e+00
          5.000000000000e+00 0.000000000000e+00 8.000000000000e+00
          5.000000000000e+00 0.000000000000e+00 9.000000000000e+00
          5.000000000000e+00 0.000000000000e+00 1.000000000000e+01
          6.000000000000e+00 0.000000000000e+00 0.000000000000e+00
          6.000000000000e+00 0.000000000000e+00 1.000000000000e+00
          6.000000000000e+00 0.000000000000e+00 2.000000000000e+00
          6.000000000000e+00 0.000000000000e+00 3.000000000000e+00
          6.000000000000e+00 0.000000000000e+00 4.000000000000e+00
          6.000000000000e+00 0.000000000000e+00 5.000000000000e+00
          6.000000000000e+00 0.000000000000e+00 6.000000000000e+00
          6.000000000000e+00 0.000000000000e+00 7.000000000000e+00
          6.000000000000e+00 0.000000000000e+00 8.000000000000e+00
          6.000000000000e+00 0.000000000000e+00 9.000000000000e+00
          6.000000000000e+00 0.000000000000e+00 1.000000000000e+01
          7.000000000000e+00 0.000000000000e+00 0.000000000000e+00
          7.000000000000e+00 0.000000000000e+00 1.000000000000e+00
          7.000000000000e+00 0.000000000000e+00 2.000000000000e+00
          7.000000000000e+00 0.000000000000e+00 3.000000000000e+00
          7.000000000000e+00 0.000000000000e+00 4.000000000000e+00
          7.000000000000e+00 0.000000000000e+00 5.000000000000e+00
          7.000000000000e+00 0.000000000000e+00 6.000000000000e+00
          7.000000000000e+00 0.000000000000e+00 7.000000000000e+00
          7.000000000000e+00 0.000000000000e+00 8.000000000000e+00
          7.000000000000e+00 0.000000000000e+00 9.000000000000e+00
          7.000000000000e+00 0.000000000000e+00 1.000000000000e+01
          8.000000000000e+00 0.000000000000e+00 0.000000000000e+00
          8.000000000000e+00 0.000000000000e+00 1.000000000000e+00
          8.000000000000e+00 0.000000000000e+00 2.000000000000e+00
          8.000000000000e+00 0.000000000000e+00 3.000000000000e+00
          8.000000000000e+00 0.000000000000e+00 4.000000000000e+00
          8.000000000000e+00 0.000000000000e+00 5.000000000000e+00
          8.000000000000e+00 0.000000000000e+00 6.000000000000e+00
          8.000000000000e+00 0.000000000000e+00 7.000000000000e+00
          8.000000000000e+00 0.000000000000e+00 8.000000000000e+00
          8.000000000000e+00 0.000000000000e+00 9.000000000000e+00
          8.000000000000e+00 0.000000000000e+00 1.000000000000e+01
          9.000000000000e+00 0.000000000000e+00 0.000000000000e+00
          9.000000000000e+00 0.000000000000e+00 1.000000000000e+00
          9.000000000000e+00 0.000000000000e+00 2.000000000000e+00
          9.000000000000e+00 0.000000000000e+00 3.000000000000e+00
          9.000000000000e+00 0.000000000000e+00 4.000000000000e+00
          9.000000000000e+00 0.000000000000e+00 5.000000000000e+00
          9.000000000000e+00 0.000000000000e+00 6.000000000000e+00
          9.000000000000e+00 0.000000000000e+00 7.000000000000e+00
          9.000000000000e+00 0.000000000000e+00 8.000000000000e+00
          9.000000000000e+00 0.000000000000e+00 9.000000000000e+00
          9.000000000000e+00 0.000000000000e+00 1.000000000000e+01
          1.000000000000e+01 0.000000000000e+00 0.000000000000e+00
          1.000000000000e+01 0.000000000000e+00 1.000000000000e+00
          1.000000000000e+01 0.000000000000e+00 2.000000000000e+00
          1.000000000000e+01 0.000000000000e+00 3.000000000000e+00
          1.000000000000e+01 0.000000000000e+00 4.000000000000e+00
          1.000000000000e+01 0.000000000000e+00 5.000000000000e+00
          1.000000000000e+01 0.000000000000e+00 6.000000000000e+00
          1.000000000000e+01 0.000000000000e+00 7.000000000000e+00
          1.000000000000e+01 0.000000000000e+00 8.000000000000e+00
          1.000000000000e+01 0.000000000000e+00 9.000000000000e+00
          1.000000000000e+01 0.000000000000e+00 1.000000000000e+01
          1.100000000000e+01 0.000000000000e+00 0.000000000000e+00
          1.100000000000e+01 0.000000000000e+00 1.000000000000e+00
          1.100000000000e+01 0.000000000000e+00 2.000000000000e+00
          1.100000000000e+01 0.000000000000e+00 3.000000000000e+00
          1.100000000000e+01 0.000000000000e+00 4.000000000000e+00
          1.100000000000e+01 0.000000000000e+00 5.000000000000e+00
          1.100000000000e+01 0.000000000000e+00 6.000000000000e+00
          1.100000000000e+01 0.000000000000e+00 7.000000000000e+00
          1.100000000000e+01 0.000000000000e+00 8.000000000000e+00
          1.100000000000e+01 0.000000000000e+00 9.000000000000e+00
          1.100000000000e+01 0.000000000000e+00 1.000000000000e+01
          1.200000000000e+01 0.000000000000e+00 0.000000000000e+00
          1.200000000000e+01 0.000000000000e+00 1.000000000000e+00
          1.200000000000e+01 0.000000000000e+00 2.000000000000e+00
          1.200000000000e+01 0.000000000000e+00 3.000000000000e+00
          1.200000000000e+01 0.000000000000e+00 4.000000000000e+00
          1.200000000000e+01 0.000000000000e+00 5.000000000000e+00
          1.200000000000e+01 0.000000000000e+00 6.000000000000e+00
          1.200000000000e+01 0.000000000000e+00 7.000000000000e+00
          1.200000000000e+01 0.000000000000e+00 8.000000000000e+00
          1.200000000000e+01 0.000000000000e+00 9.000000000000e+00
          1.200000000000e+01 0.000000000000e+00 1.000000000000e+01
          1.300000000000e+01 0.000000000000e+00 0.000000000000e+00
[...]
      <PointData Scalars="PRESSURE1">
        <DataArray type="Float64" Name="PRESSURE1" format="ascii">
          7.848000000000e+04 7.841206077867e+04 6.860248257661e+04 6.867000000000e+04 5.879379439967e+04 5.886000000000e+04 4.898615973172e+04 4.905000000000e+04 3.917996656927e+04 3.924000000000e+04 2.937618277351e+04 2.943000000000e+04 1.957919106930e+04 1.962000000000e+04 9.759749302287e+03 9.810000000000e+03 -5.239391229337e+01 1.099893142973e-112 -9.862498460875e+03 -9.810000000000e+03 -1.967396861184e+04 -1.962000000000e+04 7.834330491071e+04 6.853410808271e+04 5.872659244115e+04 4.892101236516e+04 3.911791207849e+04 2.931846560530e+04 1.952392686576e+04 9.705204007501e+03 -1.079336119662e+02 -9.918197247652e+03 -1.973035747770e+04 7.827298733310e+04 6.846410492761e+04 5.865753729416e+04 4.885354015155e+04 3.905259625526e+04 2.925537317611e+04 1.946257605468e+04 9.644672937414e+03 -1.681566451679e+02 -9.978357907135e+03 -1.979078397842e+04 7.820048393568e+04 6.839184189889e+04 5.858598352450e+04 4.878311496169e+04 3.898357229198e+04 2.918777941183e+04 1.939615684559e+04 9.579029587890e+03 -2.334196049805e+02 -1.004347839037e+04 -1.985584725935e+04 7.812530860945e+04 6.831684094494e+04 5.851148862170e+04 4.870939939546e+04 3.891080215890e+04 2.911597282502e+04 1.932518568711e+04 9.508665084678e+03 -3.034436562045e+02 -1.011335867063e+04 -1.992560416012e+04 7.804710281726e+04 6.823875821748e+04 5.843375993457e+04 4.863221009608e+04 3.883426357425e+04 2.904010471485e+04 1.924991791568e+04 9.433859111307e+03 -3.779652089665e+02 -1.018772164504e+04 -1.999986860955e+04 7.796561079698e+04 6.815735240340e+04 5.835260161151e+04 4.855142818602e+04 3.875393728620e+04 2.896025393149e+04 1.917050434017e+04 9.354797630793e+03 -4.567889028052e+02 -1.026636928629e+04 -2.007844551236e+04 7.788065257721e+04 6.807245486982e+04 5.826787840233e+04 4.846697078237e+04 3.866980380084e+04 2.887646320365e+04 1.908703661626e+04 9.271601597314e+03 -5.397844226195e+02 -1.034916161375e+04 -2.016119039922e+04 7.779210141802e+04 6.798394692813e+04 5.817949482095e+04 4.837877761643e+04 3.858184453469e+04 2.878875486589e+04 1.899957025363e+04 9.184347107123e+03 -6.268698440374e+02 -1.043600642315e+04 -2.024800303507e+04 7.769986717995e+04 6.789174399555e+04 5.808738216120e+04 4.828680381176e+04 3.849004261728e+04 2.869713957930e+04 1.890813832146e+04 9.093080738027e+03 -7.179964030480e+02 -1.052684175248e+04 -2.033881430257e+04 7.760388469749e+04 6.779578473836e+04 5.799149002032e+04 4.819101535806e+04 3.839438336514e+04 2.860162180695e+04 1.881276086937e+04 8.997831351347e+03 -8.131357516260e+02 -1.062162181965e+04 -2.043357139499e+04 7.750410573031e+04 6.769602360091e+04 5.789178052111e+04 4.809138597563e+04 3.829485439204e+04 2.850220338008e+04 1.871345193094e+04 8.898619846816e+03 -9.122687411703e+02 -1.072030383101e+04 -2.053222205107e+04 7.740049333209e+04 6.759242556718e+04 5.778822420041e+04 4.798789470801e+04 3.819144523991e+04 2.839888530251e+04 1.861022413373e+04 8.795468756725e+03 -1.015373774798e+03 -1.082282883031e+04 -2.063469605168e+04 7.729301782136e+04 6.748496238443e+04 5.768079694681e+04 4.788052389916e+04 3.808414648902e+04 2.829166777282e+04 1.850308908152e+04 8.688406998457e+03 -1.122399435197e+03 -1.092909417503e+04 -2.074089268970e+04 7.718165381998e+04 6.737360975779e+04 5.756947762980e+04 4.776925742768e+04 3.797294855165e+04 2.818054901043e+04 1.839205437372e+04 8.577456303724e+03 -1.233278331748e+03 -1.103896451424e+04 -2.085067042682e+04 7.706637802522e+04 6.725834521439e+04 5.745424622030e+04 4.765407918782e+04 3.785784049683e+04 2.806552412944e+04 1.827712118845e+04 8.462620504938e+03 -1.348038912578e+03 -1.115227811499e+04 -2.096379711639e+04 7.694716751820e+04 6.713914645962e+04 5.733508228420e+04 4.753497180107e+04 3.773880909099e+04 2.794658477550e+04 1.815828554791e+04 8.343894861926e+03 -1.466689769288e+03 -1.126868878218e+04 -2.107984368154e+04 7.682399850663e+04 6.701599013284e+04 5.721196377517e+04 4.741191548239e+04 3.761583787088e+04 2.782371898394e+04 1.803554089558e+04 8.221279043492e+03 -1.589220960068e+03 -1.138753631815e+04 -2.119794590533e+04 7.669684547259e+04 6.688885093864e+04 5.708486610767e+04 4.728488699491e+04 3.748890593417e+04 2.769690990408e+04 1.790887785236e+04 8.094776195369e+03 -1.715613537037e+03 -1.150538266906e+04 -2.132050802236e+04 7.656568075101e+04 6.675770119007e+04 5.695376157310e+04 4.715385877425e+04 3.735798644158e+04 2.756613302133e+04 1.777827823281e+04 7.964386542252e+03 -1.845832450663e+03 -1.163360358421e+04 -2.145307313075e+04 7.643047459643e+04 6.662251084082e+04 5.681861924025e+04 4.701879849819e+04 3.722304540407e+04 2.743135300161e+04 1.764370739992e+04 7.830081945504e+03 -1.979831291012e+03 -1.178608471229e+04 -2.159393509254e+04 7.629119579186e+04 6.648324808339e+04 5.667940550044e+04 4.687966946174e+04 3.708404159007e+04 2.729252244378e+04 1.750510947932e+04 7.691794532697e+03 -2.117721560794e+03 -1.192958230692e+04 -2.173986640275e+04 7.614781280879e+04 6.633988054059e+04 5.653608534790e+04 4.673643199058e+04 3.694092812236e+04 2.714958379823e+04 1.736241075460e+04 7.549421958197e+03 -2.259667455477e+03 -1.207411015048e+04 -2.188544179007e+04 7.600029545134e+04 6.619237698957e+04 5.638862435143e+04 4.658904586546e+04 3.679365568517e+04 2.700247414387e+04 1.721552816660e+04 7.402851514111e+03 -2.405803624296e+03 -1.222148493944e+04 -2.203331312415e+04 7.584861682818e+04 6.604070945671e+04 5.623699113159e+04 4.643747348904e+04 3.664217680553e+04 2.685113126626e+04 1.706437855220e+04 7.251973345271e+03 -2.556268178498e+03 -1.237259783066e+04 -2.218467736195e+04 7.569275541393e+04 6.588485543380e+04 5.608116005382e+04 4.628168341284e+04 3.648645060642e+04 2.669549997517e+04 1.690888619511e+04 7.096683811137e+03 -2.711202551656e+03 -1.252790736593e+04 -2.234012549943e+04 7.553269689931e+04 6.572479990142e+04 5.592111378545e+04 4.612165381968e+04 3.632644761115e+04 2.653553847166e+04 1.674899029299e+04 6.936893846189e+03 -2.870744605815e+03 -1.268767334084e+04 -2.249996955862e+04 7.536843549461e+04 6.556053680772e+04 5.575684532274e+04 4.595737553154e+04 3.616215423345e+04 2.637122483835e+04 1.658465402061e+04 6.772541185657e+03 -3.035014285034e+03 -1.285204669568e+04 -2.266437616464e+04 7.519997435128e+04 6.539206964398e+04 5.558835906291e+04 4.578885402917e+04 3.599357638773e+04 2.620256317829e+04 1.641587451091e+04 6.603605840810e+03 -3.204090113327e+03 -1.302109418831e+04 -2.283341130888e+04 7.502732481539e+04 6.521941079840e+04 5.541567049880e+04 4.561610987091e+04 3.582074132526e+04 2.602958809485e+04 1.624269201509e+04 6.430126913579e+03 -3.377975476852e+03 -1.319479307634e+04 -2.300704638577e+04 7.485050433483e+04 6.504257947608e+04 5.523880420392e+04 4.543917690499e+04 3.564369655447e+04 2.585236558158e+04 1.606519520546e+04 6.252216795212e+03 -3.556558164451e+03 -1.337301627485e+04 -2.318515269831e+04 7.466953300752e+04 6.486159815337e+04 5.505778999638e+04 4.525809793236e+04 3.546250485776e+04 2.567098786805e+04 1.588351873163e+04 6.070065643642e+03 -3.739574449342e+03 -1.355552655061e+04 -2.336750339717e+04 7.448442895202e+04 6.467648775718e+04 5.487265749904e+04 4.507291804403e+04 3.527723539822e+04 2.548556057836e+04 1.569782603685e+04 5.883932143861e+03 -3.926610185094e+03 -1.374199159249e+04 -2.355380564322e+04 7.429520286110e+04 6.448726196320e+04 5.468342962474e+04 4.488367652103e+04 3.508795252268e+04 2.529618486144e+04 1.550827435021e+04 5.694084117537e+03 -4.117073052112e+03 -1.393206599995e+04 -2.374377346251e+04 7.410185222691e+04 6.429392113452e+04 5.449011565010e+04 4.469039842881e+04 3.489470500059e+04 2.510294134893e+04 1.531498365562e+04 5.500682059062e+03 -4.310545069398e+03 -1.412553787724e+04 -2.393719111756e+04 7.390435580907e+04 6.409644647481e+04 5.429270446620e+04 4.449308658741e+04 3.469751705764e+04 2.490588267674e+04 1.511803066650e+04 5.303789164520e+03 -4.507417619580e+03 -1.432231102673e+04 -2.413392567016e+04 7.370266898890e+04 6.389479501900e+04 5.409115850380e+04 4.429171393107e+04 3.449637966106e+04 2.470502882643e+04 1.491747519712e+04 5.103462403507e+03 -4.707675133069e+03 -1.452232070892e+04 -2.433387501796e+04 7.349672073875e+04 6.368889618784e+04 5.388540898260e+04 4.408621638143e+04 3.429123980837e+04 2.450035201931e+04 1.471335352466e+04 4.899902295221e+03 -4.910965897636e+03 -1.472541569603e+04 -2.453697961023e+04 7.328641299426e+04 6.347865075657e+04 5.367535351884e+04 4.387648756220e+04 3.408198908349e+04 2.429175100193e+04 1.450559905135e+04 4.693257402419e+03 -5.116621391502e+03 -1.493160124496e+04 -2.474328656407e+04 7.307162315591e+04 6.326393308526e+04 5.346085738908e+04 4.366237780566e+04 3.386845752805e+04 2.407903056093e+04 1.429398643922e+04 4.483159167043e+03 -5.325380276519e+03 -1.514111849670e+04 -2.495304202702e+04 7.285221017811e+04 6.304459719561e+04 5.324175949364e+04 4.344369969483e+04 3.365041817512e+04 2.386190634017e+04 1.407813686804e+04 4.269051121845e+03 -5.537872783877e+03 -1.535446648313e+04 -2.516667720255e+04 7.262802421955e+04 6.282048674380e+04 5.301788329954e+04 4.322024073525e+04 3.342760313226e+04 2.364002960373e+04 1.385758841399e+04 4.050343297341e+03 -5.754658481110e+03 -1.557222303641e+04 -2.538475956093e+04 7.239891919977e+04 6.259144824982e+04 5.278905211436e+04 4.299178216898e+04 3.319972780319e+04 2.341302053679e+04 1.363183556026e+04 3.826383983731e+03 -5.976367695383e+03 -1.579503816153e+04 -2.560794392281e+04 7.216476693024e+04 6.235734623053e+04 5.255510726075e+04 4.275812222612e+04 3.296652078030e+04 2.318050324203e+04 1.340035575849e+04 3.596459645970e+03 -6.203734182548e+03 -1.602365101266e+04 -2.583696740042e+04 7.192547085780e+04 6.211807821179e+04 5.231592701969e+04 4.251910186467e+04 3.272775879696e+04 2.294214960361e+04 1.316265709660e+04 3.359836398877e+03 -6.437630567519e+03 -1.625889076105e+04 -2.607263541009e+04 7.168097699150e+04 6.187358702798e+04 5.207144337583e+04 4.227462995980e+04 3.248330549785e+04 2.269773720122e+04 1.291835845541e+04 3.115856467123e+03 -6.679114896868e+03 -1.650163971455e+04 -2.631575290379e+04 7.143127948520e+04 6.162386755472e+04 5.182165272725e+04 4.202470264068e+04 3.223314775543e+04 2.244721616038e+04 1.266730424351e+04 2.864110471922e+03 -6.929462567732e+03 -1.675269625966e+04 -2.656693434975e+04 7.117641887650e+04 6.136896542408e+04 5.156661652942e+04 4.176940930546e+04 3.197741597435e+04 2.219076530362e+04 1.240969485159e+04 2.604695036817e+03 -7.190020227145e+03 -1.701240452833e+04 -2.682624088920e+04 7.091647228236e+04 6.110896664340e+04 5.130644929376e+04 4.150891864596e+04 3.171637087677e+04 2.192879710641e+04 1.214617546047e+04 2.338495029552e+03 -7.461118584076e+03 -1.728002783882e+04 -2.709273551029e+04 7.065153672852e+04 6.084397925943e+04 5.104129475307e+04 4.124344378925e+04 3.145034864555e+04 2.166186824355e+04 1.187773749534e+04 2.067350616842e+03 -7.740010556882e+03 -1.755308604417e+04 -2.736460637053e+04 7.038170863796e+04 6.057411055108e+04 5.077129518528e+04 4.097319465633e+04 3.117967825726e+04 2.139051758879e+04 1.160532051775e+04 1.793375399320e+03 -8.017294810451e+03 -1.782899300559e+04 -2.763990167681e+04 7.010706348676e+04 6.029944463365e+04 5.049656172393e+04 4.069833211544e+04 3.090460278083e+04 2.111511823826e+04 1.132946653170e+04 1.517130028180e+03 -8.293088919853e+03 -1.810649327840e+04 -2.791746238766e+04 6.982763906310e+04 6.002002491175e+04 5.021715350936e+04 4.041893822848e+04 3.062523258206e+04 2.083581058001e+04 1.105031706767e+04 1.238142833570e+03 -8.572223422330e+03 -1.838584285196e+04 -2.819713915264e+04 6.954342308238e+04 5.973584342240e+04 4.993307037239e+04 4.013501266679e+04 3.034154007698e+04 2.055250596963e+04 1.076770139288e+04 9.566609670884e+02 -8.853133450471e+03 -1.866777636836e+04 -2.847942583600e+04 6.925434436367e+04 5.944683228197e+04 4.964425979455e+04 3.984649816381e+04 3.005340860663e+04 2.026491381841e+04 1.048112363233e+04 6.721362743264e+02 -9.136381265843e+03 -1.895296412708e+04 -2.876510084062e+04 6.896026733330e+04 5.915285654245e+04 4.935059334461e+04 3.955337156197e+04 2.976072888650e+04 1.997269770891e+04 1.018960427342e+04 3.827686539610e+02 -9.424448922607e+03 -1.924245356531e+04 -2.905499276747e+04 6.866099586010e+04 5.885371039686e+04 4.905184896451e+04 3.925536905069e+04 2.946426568439e+04 1.967530649712e+04 9.892230272470e+03 8.565732980081e+01 -9.718869704768e+03 -1.953713502027e+04 -2.934973587385e+04 6.835629223712e+04 5.854913671586e+04 4.874769217692e+04 3.895206192670e+04 2.916238985993e+04 1.938219998327e+04 9.578335308026e+03 -2.187275747806e+02 -1.002000803706e+04 -1.983714576112e+04 -2.964942552998e+04 6.804591218120e+04 5.823886781512e+04 4.843777409503e+04 3.864276845052e+04 2.885438713156e+04 1.907276015515e+04 9.267924957490e+03 -5.306691563359e+02 -1.032670483105e+04 -2.014181971122e+04 -2.995346738081e+04 6.772964153652e+04 5.792267730697e+04 4.812181627131e+04 3.832717209680e+04 2.853885404585e+04 1.875689053426e+04 8.951099420810e+03 -8.484890105073e+02 -1.063724266609e+04 -2.044981908818e+04 -3.026074439547e+04 6.740731904092e+04 5.760040541290e+04 4.779968210277e+04 3.800518289034e+04 2.821691178698e+04 1.843475932116e+04 8.628427455050e+03 -1.172810731217e+03 -1.094850755680e+04 -2.075914402016e+04 -3.057092214387e+04 6.707883638348e+04 5.727195448378e+04 4.747131617746e+04 3.767693218255e+04 2.788877845896e+04 1.810672476588e+04 8.300388101424e+03 -1.501560980933e+03 -1.124662599459e+04 -2.106941622249e+04 -3.088987409382e+04 6.674412510405e+04 5.693726356472e+04 4.713668808396e+04 3.734242069862e+04 2.755447726126e+04 1.777281876491e+04 7.967236977239e+03 -1.834170793278e+03 -1.151306773422e+04 -2.140376188490e+04 -3.122342635162e+04 6.640314401399e+04 5.659629216893e+04 4.679575210211e+04 3.700157329347e+04 2.721384802914e+04 1.743272189655e+04 7.628374628764e+03 -2.170084211329e+03 -1.195420405506e+04 -2.175769987692e+04 -3.157578075051e+04 6.605587628588e+04 5.624901962734e+04 4.644846856940e+04 3.665429081039e+04 2.686664079289e+04 1.708584071498e+04 7.282538003191e+03 -2.512560417736e+03 -1.232159448616e+04 -2.213013237593e+04 -3.193963137700e+04 6.570233238022e+04 5.589545515013e+04 4.609483634809e+04 3.630052905467e+04 2.651267829333e+04 1.673164425053e+04 6.928279825466e+03 -2.865022972797e+03 -1.268479734078e+04 -2.249825463880e+04 -3.230909648221e+04 6.534254885241e+04 5.553564217423e+04 4.573491696343e+04 3.594036843510e+04 2.615203222473e+04 1.637008006332e+04 6.565064086271e+03 -3.229857079357e+03 -1.305268767631e+04 -2.286826907919e+04 -3.267982829283e+04 6.497657333239e+04 5.516964522897e+04 4.536882913821e+04 3.557403017803e+04 2.578509528027e+04 1.600183224254e+04 6.194014303397e+03 -3.607017549880e+03 -1.342664426392e+04 -2.324163848579e+04 -3.305320545292e+04 6.460443296460e+04 5.479751501783e+04 4.499670338863e+04 3.520181171946e+04 2.541248427439e+04 1.562812310459e+04 5.817764603322e+03 -3.990706930121e+03 -1.380472511561e+04 -2.361825219513e+04 -3.342949581039e+04 6.422609270942e+04 5.441923859066e+04 4.461860478976e+04 3.482395244608e+04 2.503479426029e+04 1.525023496382e+04 5.438764908642e+03 -4.371611831605e+03 -1.418462921620e+04 -2.399730045224e+04 -3.380837876396e+04 6.384141798213e+04 5.403469175580e+04 4.423445011710e+04 3.444047528251e+04 2.465229573649e+04 1.486897655497e+04 5.058676267828e+03 -4.751233338276e+03 -1.456484868838e+04 -2.437835517827e+04 -3.418971865002e+04 6.345015933181e+04 5.364361556143e+04 4.384395496410e+04 3.405106754642e+04 2.426468239982e+04 1.448418243797e+04 4.678181464846e+03 -5.127852056678e+03 -1.494585695695e+04 -2.476195047682e+04 -3.457415822158e+04 6.305197271740e+04 5.324563466023e+04 4.344664296284e+04 3.365506182645e+04 2.387097708202e+04 1.409442273175e+04 4.295247265994e+03 -5.503279826738e+03 -1.532953319869e+04 -2.514980289180e+04 -3.496333002887e+04 6.264647735672e+04 5.284032230369e+04 4.304193208382e+04 3.325155475652e+04 2.346968281606e+04 1.369716214116e+04 3.905266246163e+03 -5.883655550425e+03 -1.571924340472e+04 -2.554462442540e+04 -3.535972642136e+04 6.223333724067e+04 5.242729748392e+04 4.262928392389e+04 3.283965875297e+04 2.305919860410e+04 1.328942663348e+04 3.503075749695e+03 -6.273907535700e+03 -1.611943827962e+04 -2.594970552945e+04 -3.576621564868e+04 6.181233851626e+04 5.200632123858e+04 4.220836720774e+04 3.241881756386e+04 2.263843306770e+04 1.286885310104e+04 3.083741341945e+03 -6.681046407369e+03 -1.653519029071e+04 -2.636813309323e+04 -3.618507267192e+04 6.138343082239e+04 5.157735131103e+04 4.177916340275e+04 3.198904398484e+04 2.220739156686e+04 1.243507433440e+04 2.644483510140e+03 -7.116679247967e+03 -1.697168303831e+04 -2.680092919413e+04 -3.661683009304e+04 6.094671112048e+04 5.114052592159e+04 4.134195225842e+04 3.155092773592e+04 2.176729907543e+04 1.199068367165e+04 2.189709340438e+03 -7.600589801903e+03 -1.742498856969e+04 -2.724590770151e+04 -3.705962809464e+04 6.050235070953e+04 5.069607648332e+04 4.089717126482e+04 3.110535796305e+04 2.132004237115e+04 1.153987097556e+04 1.731598199243e+03 -8.080880107042e+03 -1.788496060810e+04 -2.769827885860e+04 -3.750996315561e+04 6.005048208169e+04 5.024420383212e+04 4.044521467791e+04 3.065311124618e+04 2.086714507452e+04 1.108594322683e+04 1.276546845205e+03 -8.532691131069e+03 -1.834271370211e+04 -2.815363499292e+04 -3.796443404421e+04 5.959108609997e+04 4.978492960655e+04 3.998631973320e+04 3.019454729407e+04 2.040909159073e+04 1.062919592859e+04 8.240548296165e+02 -8.983787530659e+03 -1.879726223412e+04 -2.861021415439e+04 -3.842125318625e+04 5.912391888523e+04 4.931801047773e+04 3.952020106451e+04 2.973033966650e+04 1.994495529898e+04 1.016749499011e+04 3.683355726890e+02 -9.433167376754e+03 -1.925320545471e+04 -2.906868353037e+04 -3.888052609047e+04 5.864853129341e+04 4.884292675993e+04 3.904617037901e+04 2.925836459904e+04 1.948306737248e+04 9.687540950326e+03 -9.628162256937e+01 -9.889107930252e+03 -1.971263391808e+04 -2.953078696307e+04 -3.934358624186e+04 5.816436798361e+04 4.835904450156e+04 3.856316949440e+04 2.877730646838e+04 1.900170704805e+04 9.206829958462e+03 -5.757810156061e+02 -1.035149795611e+04 -2.017652987248e+04 -2.999809226093e+04 -3.981303833565e+04 5.767090842377e+04 4.786578081433e+04 3.807050086399e+04 2.828526156895e+04 1.851021042107e+04 8.715075045666e+03 -1.070898531730e+03 -1.081523127825e+04 -2.064004471708e+04 -3.047484395613e+04 -4.029327408310e+04 5.716776216107e+04 4.736274330685e+04 3.756774977941e+04 2.778295097805e+04 1.800849749822e+04 8.214054802788e+03 -1.574714160495e+03 -1.121636857687e+04 -2.111914216035e+04 -3.096865167553e+04 -4.078997854395e+04 5.665470375212e+04 4.684971843516e+04 3.705482222490e+04 2.727022004300e+04 1.749634542480e+04 7.703861701408e+03 -2.080142984708e+03 -1.171336410461e+04 -2.163849995642e+04 -3.148613301793e+04 -4.130729696929e+04 5.613165044971e+04 4.632664696108e+04 3.653166884616e+04 2.674687944948e+04 1.697284614295e+04 7.181452782519e+03 -2.592982241492e+03 -1.238344321856e+04 -2.219378195603e+04 -3.202711494154e+04 -4.184459794037e+04 5.559861538877e+04 4.579357683214e+04 3.599841975967e+04 2.621306706381e+04 1.643764609048e+04 6.643296588098e+03 -3.130143070236e+03 -1.295194340323e+04 -2.276668803178e+04 -3.258306897419e+04 -4.239685268629e+04 5.505562469793e+04 4.525060018803e+04 3.545538836579e+04 2.566953037088e+04 1.589215748505e+04 6.091938841009e+03 -3.700384696926e+03 -1.351643574193e+04 -2.333168826892e+04 -3.314602774992e+04 -4.295780021869e+04 5.450260152238e+04 4.469771331598e+04 3.490286162160e+04 2.511733777417e+04 1.533936480642e+04 5.535078345533e+03 -4.273069954022e+03 -1.408102656602e+04 -2.389654194439e+04 -3.371177373989e+04 -4.352380813519e+04 5.393925735998e+04 4.413465155654e+04 3.434072121562e+04 2.455695018574e+04 1.478172814226e+04 4.980197306689e+03 -4.825996404201e+03 -1.464154582834e+04 -2.446254968946e+04 -3.428128797068e+04 -4.409448594186e+04 5.336507784518e+04 4.356082488361e+04 3.376815468794e+04 2.398727569937e+04 1.421815753848e+04 4.429463481703e+03 -5.3619347