VARIABLES  = "X","Y","Z", "PRESSURE1", "PRESSURE2", "PRESSURE_CAP", "SATURATION1", "SATURATION2", "TEMPERATURE1", "DENSITY1", "VISCOSITY1", "DENSITY2", "VISCOSITY2"
ZONE T="0.000000000000e+00s", N=261, E=260, F=FEPOINT, ET=QUADRILATERAL
0.000000000000e+00 0.000000000000e+00 0.000000000000e+00 5.495000000000e+06 5.545000000000e+06 5.000000000000e+04 1.000000000000e-02 9.900000000000e-01 4.200000000000e+02 7.608396401018e+01 2.130971201077e-05 2.587622569360e+01 1.557250542334e-05 
1.000000000000e-02 0.000000000000e+00 0.000000000000e+00 5.495000000000e+06 5.545000000000e+06 5.000000000000e+04 1.000000000000e-02 9.900000000000e-01 4.200000000000e+02 7.608396401018e+01 2.130971201077e-05 2.587622569360e+01 1.557250542334e-05 
2.000000000000e-02 0.000000000000e+00 0.000000000000e+00 5.495000000000e+06 5.545000000000e+06 5.000000000000e+04 1.000000000000e-02 9.900000000000e-01 4.200000000000e+02 7.608396401018e+01 2.130971201077e-05 2.587622569360e+01 1.557250542334e-05 
3.000000000000e-02 0.000000000000e+00 0.000000000000e+00 5.495000000000e+06 5.545000000000e+06 5.000000000000e+04 1.000000000000e-02 9.900000000000e-01 4.200000000000e+02 7.608396401018e+01 2.130971201077e-05 2.587622569360e+01 1.557250542334e-05 
4.000000000000e-02 0.000000000000e+00 0.000000000000e+00 5.495000000000e+06 5.545000000000e+06 5.000000000000e+04 1.000000000000e-02 9.900000000000e-01 4.200000000000e+02 7.608396401018e+01 2.130971201077e-05 2.587622569360e+01 1.557250542334e-05 
5.000000000000e-02 0.000000000000e+00 0.000000000000e+00 5.495000000000e+06 5.545000000000e+06 5.000000000000e+04 1.000000000000e-02 9.900000000000e-01 4.200000000000e+02 7.608396401018e+01 2.130971201077e-05 2.587622569360e+01 1.557250542334e-05 
6.000000000000e-02 0.000000000000e+00 0.000000000000e+00 5.495000000000e+06 5.545000000000e+06 5.000000000000e+04 1.000000000000e-02 9.900000000000e-01 4.200000000000e+02 7.608396401018e+01 2.130971201077e-05 2.587622569360e+01 1.557250542334e-05 
7.000000000000e-02 0.000000000000e+00 0.000000000000e+00 5.495000000000e+06 5.545000000000e+06 5.000000000000e+04 1.000000000000e-02 9.900000000000e-01 4.200000000000e+02 7.608396401018e+01 2.130971201077e-05 2.587622569360e+01 1.557250542334e-05 
8.000000000000e-02 0.000000000000e+00 0.000000000000e+00 5.495000000000e+06 5.545000000000e+06 5.000000000000e+04 1.000000000000e-02 9.900000000000e-01 4.200000000000e+02 7.608396401018e+01 2.130971201077e-05 2.587622569360e+01 1.557250542334e-05 
9.000000000000e-02 0.000000000000e+00 0.000000000000e+00 5.495000000000e+06 5.545000000000e+06 5.000000000000e+04 1.000000000000e-02 9.900000000000e-01 4.200000000000e+02 7.608396401018e+01 2.130971201077e-05 2.587622569360e+01 1.557250542334e-05 
1.000000000000e-01 0.000000000000e+00 0.000000000000e+00 5.495000000000e+06 5.545000000000e+06 5.000000000000e+04 1.000000000000e-02 9.900000000000e-01 4.200000000000e+02 7.608396401018e+01 2.130971201077e-05 2.587622569360e+01 1.557250542334e-05 
1.100000000000e-01 0.000000000000e+00 0.000000000000e+00 5.495000000000e+06 5.545000000000e+06 5.000000000000e+04 1.000000000000e-02 9.900000000000e-01 4.200000000000e+02 7.608396401018e+01 2.130971201077e-05 2.587622569360e+01 1.557250542334e-05 
1.200000000000e-01 0.000000000000e+00 0.000000000000e+00 5.495000000000e+06 5.545000000000e+06 5.000000000000e+04 1.000000000000e-02 9.900000000000e-01 4.200000000000e+02 7.608396401018e+01 2.130971201077e-05 2.587622569360e+01 1.557250542334e-05 
1.300000000000e-01 0.000000000000e+00 0.000000000000e+00 5.495000000000e+06 5.545000000000e+06 5.000000000000e+04 1.000000000000e-02 9.900000000000e-01 4.200000000000e+02 7.608396401018e+01 2.130971201077e-05 2.587622569360e+01 1.557250542334e-05 
1.400000000000e-01 0.000000000000e+00 0.000000000000e+00 5.495000000000e+06 5.545000000000e+06 5.000000000000e+04 1.000000000000e-02 9.900000000000e-01 4.200000000000e+02 7.608396401018e+01 2.130971201077e-05 2.587622569360e+01 1.557250542334e-05 
1.500000000000e-01 0.000000000000e+00 0.000000000000e+00 5.495000000000e+06 5.545000000000e+06 5.000000000000e+04 1.000000000000e-02 9.900000000000e-01 4.200000000000e+02 7.608396401018e+01 2.130971201077e-05 2.587622569360e+01 1.557250542334e-05 
1.600000000000e-01 0.000000000000e+00 0.000000000000e+00 5.495000000000e+06 5.545000000000e+06 5.000000000000e+04 1.000000000000e-02 9.900000000000e-01 4.200000000000e+02 7.608396401018e+01 2.130971201077e-05 2.587622569360e+01 1.557250542334e-05 
1.700000000000e-01 0.000000000000e+00 0.000000000000e+00 5.495000000000e+06 5.545000000000e+06 5.000000000000e+04 1.000000000000e-02 9.900000000000e-01 4.200000000000e+02 7.608396401018e+01 2.130971201077e-05 2.587622569360e+01 1.557250542334e-05 
1.800000000000e-01 0.000000000000e+00 0.000000000000e+00 5.495000000000e+06 5.545000000000e+06 5.000000000000e+04 1.000000000000e-02 9.900000000000e-01 4.200000000000e+02 7.608396401018e+01 2.130971201077e-05 2.587622569360e+01 1.557250542334e-05 
1.900000000000e-01 0.000000000000e+00 0.000000000000e+00 5.495000000000e+06 5.545000000000e+06 5.000000000000e+04 1.000000000000e-02 9.900000000000e-01 4.200000000000e+02 7.608396401018e+01 2.130971201077e-05 2.587622569360e+01 1.557250542334e-05 
2.000000000000e-01 0.000000000000e+00 0.000000000000e+00 5.495000000000e+06 5.545000000000e+06 5.000000000000e+04 1.000000000000e-02 9.900000000000e-01 4.200000000000e+02 7.608396401018e+01 2.130971201077e-05 2.587622569360e+01 1.557250542334e-05 
2.100000000000e-01 0.000000000000e+00 0.000000000000e+00 5.495000000000e+06 5.545000000000e+06 5.000000000000e+04 1.000000000000e-02 9.900000000000e-01 4.200000000000e+02 7.608396401018e+01 2.130971201077e-05 2.587622569360e+01 1.557250542334e-05 
2.200000000000e-01 0.000000000000e+00 0.000000000000e+00 5.495000000000e+06 5.545000000000e+06 5.000000000000e+04 1.000000000000e-02 9.900000000000e-01 4.200000000000e+02 7.608396401018e+01 2.130971201077e-05 2.587622569360e+01 1.557250542334e-05 
2.300000000000e-01 0.000000000000e+00 0.000000000000e+00 5.495000000000e+06 5.545000000000e+06 5.000000000000e+04 1.000000000000e-02 9.900000000000e-01 4.200000000000e+02 7.608396401018e+01 2.130971201077e-05 2.587622569360e+01 1.557250542334e-05 
2.400000000000e-01 0.000000000000e+00 0.000000000000e+00 5.495000000000e+06 5.545000000000e+06 5.000000000000e+04 1.000000000000e-02 9.900000000000e-01 4.200000000000e+02 7.608396401018e+01 2.130971201077e-05 2.587622569360e+01 1.557250542334e-05 
2.500000000000e-01 0.000000000000e+00 0.000000000000e+00 5.495000000000e+06 5.545000000000e+06 5.000000000000e+04 1.000000000000e-02 9.900000000000e-01 4.200000000000e+02 7.608396401018e+01 2.130971201077e-05 2.587622569360e+01 1.557250542334e-05 
2.600000000000e-01 0.000000000000e+00 0.000000000000e+00 5.495000000000e+06 5.545000000000e+06 5.000000000000e+04 1.000000000000e-02 9.900000000000e-01 4.200000000000e+02 7.608396401018e+01 2.130971201077e-05 2.587622569360e+01 1.557250542334e-05 
2.700000000000e-01 0.000000000000e+00 0.000000000000e+00 5.495000000000e+06 5.545000000000e+06 5.000000000000e+04 1.000000000000e-02 9.900000000000e-01 4.200000000000e+02 7.608396401018e+01 2.130971201077e-05 2.587622569360e+01 1.557250542334e-05 
2.800000000000e-01 0.000000000000e+00 0.000000000000e+00 5.495000000000e+06 5.545000000000e+06 5.000000000000e+04 1.000000000000e-02 9.900000000000e-01 4.200000000000e+02 7.608396401018e+01 2.130971201077e-05 2.587622569360e+01 1.557250542334e-05 
2.900000000000e-01 0.000000000000e+00 0.000000000000e+00 5.495000000000e+06 5.545000000000e+06 5.000000000000e+04 1.000000000000e-02 9.900000000000e-01 4.200000000000e+02 7.608396401018e+01 2.130971201077e-05 2.587622569360e+01 1.557250542334e-05 
3.000000000000e-01 0.000000000000e+00 0.000000000000e+00 5.495000000000e+06 5.545000000000e+06 5.000000000000e+04 1.000000000000e-02 9.900000000000e-01 4.200000000000e+02 7.608396401018e+01 2.130971201077e-05 2.587622569360e+01 1.557250542334e-05 
3.100000000000e-01 0.000000000000e+00 0.000000000000e+00 5.495000000000e+06 5.545000000000e+06 5.000000000000e+04 1.000000000000e-02 9.900000000000e-01 4.200000000000e+02 7.608396401018e+01 2.130971201077e-05 2.587622569360e+01 1.557250542334e-05 
3.200000000000e-01 0.000000000000e+00 0.000000000000e+00 5.495000000000e+06 5.545000000000e+06 5.000000000000e+04 1.000000000000e-02 9.900000000000e-01 4.200000000000e+02 7.608396401018e+01 2.130971201077e-05 2.587622569360e+01 1.557250542334e-05 
3.300000000000e-01 0.000000000000e+00 0.000000000000e+00 5.495000000000e+06 5.545000000000e+06 5.000000000000e+04 1.000000000000e-02 9.900000000000e-01 4.200000000000e+02 7.608396401018e+01 2.130971201077e-05 2.587622569360e+01 1.557250542334e-05 
3.400000000000e-01 0.000000000000e+00 0.000000000000e+00 5.495000000000e+06 5.545000000000e+06 5.000000000000e+04 1.000000000000e-02 9.900000000000e-01 4.200000000000e+02 7.608396401018e+01 2.130971201077e-05 2.587622569360e+01 1.557250542334e-05 
3.500000000000e-01 0.000000000000e+00 0.000000000000e+00 5.495000000000e+06 5.545000000000e+06 5.000000000000e+04 1.000000000000e-02 9.900000000000e-01 4.200000000000e+02 7.608396401018e+01 2.130971201077e-05 2.587622569360e+01 1.557250542334e-05 
3.600000000000e-01 0.000000000000e+00 0.000000000000e+00 5.495000000000e+06 5.545000000000e+06 5.000000000000e+04 1.000000000000e-02 9.900000000000e-01 4.200000000000e+02 7.608396401018e+01 2.130971201077e-05 2.587622569360e+01 1.557250542334e-05 
3.700000000000e-01 0.000000000000e+00 0.000000000000e+00 5.495000000000e+06 5.545000000000e+06 5.000000000000e+04 1.000000000000e-02 9.900000000000e-01 4.200000000000e+02 7.608396401018e+01 2.130971201077e-05 2.587622569360e+01 1.557250542334e-05 
3.800000000000e-01 0.000000000000e+00 0.000000000000e+00 5.495000000000e+06 5.545000000000e+06 5.000000000000e+04 1.000000000000e-02 9.900000000000e-01 4.200000000000e+02 7.608396401018e+01 2.130971201077e-05 2.587622569360e+01 1.557250542334e-05 
3.900000000000e-01 0.000000000000e+00 0.000000000000e+00 5.495000000000e+06 5.545000000000e+06 5.000000000000e+04 1.000000000000e-02 9.900000000000e-01 4.200000000000e+02 7.608396401018e+01 2.130971201077e-05 2.587622569360e+01 1.557250542334e-05 
4.000000000000e-01 0.000000000000e+00 0.000000000000e+00 5.495000000000e+06 5.545000000000e+06 5.000000000000e+04 1.000000000000e-02 9.900000000000e-01 4.200000000000e+02 7.608396401018e+01 2.130971201077e-05 2.587622569360e+01 1.557250542334e-05 
4.100000000000e-01 0.000000000000e+00 0.000000000000e+00 5.495000000000e+06 5.545000000000e+06 5.000000000000e+04 1.000000000000e-02 9.900000000000e-01 4.200000000000e+02 7.608396401018e+01 2.130971201077e-05 2.587622569360e+01 1.557250542334e-05 
4.200000000000e-01 0.000000000000e+00 0.000000000000e+00 5.495000000000e+06 5.545000000000e+06 5.000000000000e+04 1.000000000000e-02 9.900000000000e-01 4.200000000000e+02 7.608396401018e+01 2.130971201077e-05 2.587622569360e+01 1.557250542334e-05 
4.300000000000e-01 0.000000000000e+00 0.000000000000e+00 5.495000000000e+06 5.545000000000e+06 5.000000000000e+04 1.000000000000e-02 9.900000000000e-01 4.200000000000e+02 7.608396401018e+01 2.130971201077e-05 2.587622569360e+01 1.557250542334e-05 
4.400000000000e-01 0.000000000000e+00 0.000000000000e+00 5.495000000000e+06 5.545000000000e+06 5.000000000000e+04 1.000000000000e-02 9.900000000000e-01 4.200000000000e+02 7.608396401018e+01 2.130971201077e-05 2.587622569360e+01 1.557250542334e-05 
4.500000000000e-01 0.000000000000e+00 0.000000000000e+00 5.495000000000e+06 5.545000000000e+06 5.000000000000e+04 1.000000000000e-02 9.900000000000e-01 4.200000000000e+02 7.608396401018e+01 2.130971201077e-05 2.587622569360e+01 1.557250542334e-05 
4.600000000000e-01 0.000000000000e+00 0.000000000000e+00 5.495000000000e+06 5.545000000000e+06 5.000000000000e+04 1.000000000000e-02 9.900000000000e-01 4.200000000000e+02 7.608396401018e+01 2.130971201077e-05 2.587622569360e+01 1.557250542334e-05 
4.700000000000e-01 0.000000000000e+00 0.000000000000e+00 5.495000000000e+06 5.545000000000e+06 5.000000000000e+04 1.000000000000e-02 9.900000000000e-01 4.200000000000e+02 7.608396401018e+01 2.130971201077e-05 2.587622569360e+01 1.557250542334e-05 
4.800000000000e-01 0.000000000000e+00 0.000000000000e+00 5.495000000000e+06 5.545000000000e+06 5.000000000000e+04 1.000000000000e-02 9.900000000000e-01 4.200000000000e+02 7.608396401018e+01 2.130971201077e-05 2.587622569360e+01 1.557250542334e-05 
4.900000000000e-01 0.000000000000e+00 0.000000000000e+00 5.495000000000e+06 5.545000000000e+06 5.000000000000e+04 1.000000000000e-02 9.900000000000e-01 4.200000000000e+02 7.608396401018e+01 2.130971201077e-05 2.587622569360e+01 1.557250542334e-05 
5.000000000000e-01 0.000000000000e+00 0.000000000000e+00 5.495000000000e+06 5.545000000000e+06 5.000000000000e+04 1.000000000000e-02 9.900000000000e-01 4.200000000000e+02 7.608396401018e+01 2.130971201077e-05 2.587622569360e+01 1.557250542334e-05 
5.100000000000e-01 0.000000000000e+00 0.000000000000e+00 5.495000000000e+06 5.545000000000e+06 5.000000000000e+04 1.000000000000e-02 9.900000000000e-01 4.200000000000e+02 7.608396401018e+01 2.130971201077e-05 2.587622569360e+01 1.557250542334e-05 
5.200000000000e-01 0.000000000000e+00 0.000000000000e+00 5.495000000000e+06 5.545000000000e+06 5.000000000000e+04 1.000000000000e-02 9.900000000000e-01 4.200000000000e+02 7.608396401018e+01 2.130971201077e-05 2.587622569360e+01 1.557250542334e-05 
5.300000000000e-01 0.000000000000e+00 0.000000000000e+00 5.495000000000e+06 5.545000000000e+06 5.000000000000e+04 1.000000000000e-02 9.900000000000e-01 4.200000000000e+02 7.608396401018e+01 2.130971201077e-05 2.587622569360e+01 1.557250542334e-05 
5.400000000000e-01 0.000000000000e+00 0.000000000000e+00 5.495000000000e+06 5.545000000000e+06 5.000000000000e+04 1.000000000000e-02 9.900000000000e-01 4.200000000000e+02 7.608396401018e+01 2.130971201077e-05 2.587622569360e+01 1.557250542334e-05 
5.500000000000e-01 0.000000000000e+00 0.000000000000e+00 5.495000000000e+06 5.545000000000e+06 5.000000000000e+04 1.000000000000e-02 9.900000000000e-01 4.200000000000e+02 7.608396401018e+01 2.130971201077e-05 2.587622569360e+01 1.557250542334e-05 
5.600000000000e-01 0.000000000000e+00 0.000000000000e+00 5.495000000000e+06 5.545000000000e+06 5.000000000000e+04 1.000000000000e-02 9.900000000000e-01 4.200000000000e+02 7.608396401018e+01 2.130971201077e-05 2.587622569360e+01 1.557250542334e-05 
5.700000000000e-01 0.000000000000e+00 0.000000000000e+00 5.495000000000e+06 5.545000000000e+06 5.000000000000e+04 1.000000000000e-02 9.900000000000e-01 4.200000000000e+02 7.608396401018e+01 2.130971201077e-05 2.587622569360e+01 1.557250542334e-05 
5.800000000000e-01 0.000000000000e+00 0.000000000000e+00 5.495000000000e+06 5.545000000000e+06 5.000000000000e+04 1.000000000000e-02 9.900000000000e-01 4.200000000000e+02 7.608396401018e+01 2.130971201077e-05 2.587622569360e+01 1.557250542334e-05 
5.900000000000e-01 0.000000000000e+00 0.000000000000e+00 5.495000000000e+06 5.545000000000e+06 5.000000000000e+04 1.000000000000e-02 9.900000000000e-01 4.200000000000e+02 7.608396401018e+01 2.130971201077e-05 2.587622569360e+01 1.557250542334e-05 
6.000000000000e-01 0.000000000000e+00 0.000000000000e+00 5.495000000000e+06 5.545000000000e+06 5.000000000000e+04 1.000000000000e-02 9.900000000000e-01 4.200000000000e+02 7.608396401018e+01 2.130971201077e-05 2.587622569360e+01 1.557250542334e-05 
6.100000000000e-01 0.000000000000e+00 0.000000000000e+00 5.495000000000e+06 5.545000000000e+06 5.000000000000e+04 1.000000000000e-02 9.900000000000e-01 4.200000000000e+02 7.608396401018e+01 2.130971201077e-05 2.587622569360e+01 1.557250542334e-05 
6.200000000000e-01 0.000000000000e+00 0.000000000000e+00 5.495000000000e+06 5.545000000000e+06 5.000000000000e+04 1.000000000000e-02 9.900000000000e-01 4.200000000000e+02 7.608396401018e+01 2.130971201077e-05 2.587622569360e+01 1.557250542334e-05 
6.300000000000e-01 0.000000000000e+00 0.000000000000e+00 5.495000000000e+06 5.545000000000e+06 5.000000000000e+04 1.000000000000e-02 9.900000000000e-01 4.200000000000e+02 7.608396401018e+01 2.130971201077e-05 2.587622569360e+01 1.557250542334e-05 
6.400000000000e-01 0.000000000000e+00 0.000000000000e+00 5.495000000000e+06 5.545000000000e+06 5.000000000000e+04 1.000000000000e-02 9.900000000000e-01 4.200000000000e+02 7.608396401018e+01 2.130971201077e-05 2.587622569360e+01 1.557250542334e-05 
6.500000000000e-01 0.000000000000e+00 0.000000000000e+00 5.495000000000e+06 5.545000000000e+06 5.000000000000e+04 1.000000000000e-02 9.900000000000e-01 4.200000000000e+02 7.608396401018e+01 2.130971201077e-05 2.587622569360e+01 1.557250542334e-05 
6.600000000000e-01 0.000000000000e+00 0.000000000000e+00 5.495000000000e+06 5.545000000000e+06 5.000000000000e+04 1.000000000000e-02 9.900000000000e-01 4.200000000000e+02 7.608396401018e+01 2.130971201077e-05 2.587622569360e+01 1.557250542334e-05 
6.700000000000e-01 0.000000000000e+00 0.000000000000e+00 5.495000000000e+06 5.545000000000e+06 5.000000000000e+04 1.000000000000e-02 9.900000000000e-01 4.200000000000e+02 7.608396401018e+01 2.130971201077e-05 2.587622569360e+01 1.557250542334e-05 
6.800000000000e-01 0.000000000000e+00 0.000000000000e+00 5.495000000000e+06 5.545000000000e+06 5.000000000000e+04 1.000000000000e-02 9.900000000000e-01 4.200000000000e+02 7.608396401018e+01 2.130971201077e-05 2.587622569360e+01 1.557250542334e-05 
6.900000000000e-01 0.000000000000e+00 0.000000000000e+00 5.495000000000e+06 5.545000000000e+06 5.000000000000e+04 1.000000000000e-02 9.900000000000e-01 4.200000000000e+02 7.608396401018e+01 2.130971201077e-05 2.587622569360e+01 1.557250542334e-05 
7.000000000000e-01 0.000000000000e+00 0.000000000000e+00 5.495000000000e+06 5.545000000000e+06 5.000000000000e+04 1.000000000000e-02 9.900000000000e-01 4.200000000000e+02 7.608396401018e+01 2.130971201077e-05 2.587622569360e+01 1.557250542334e-05 
7.100000000000e-01 0.000000000000e+00 0.000000000000e+00 5.495000000000e+06 5.545000000000e+06 5.000000000000e+04 1.000000000000e-02 9.900000000000e-01 4.200000000000e+02 7.608396401018e+01 2.130971201077e-05 2.587622569360e+01 1.557250542334e-05 
7.200000000000e-01 0.000000000000e+00 0.000000000000e+00 5.495000000000e+06 5.545000000000e+06 5.000000000000e+04 1.000000000000e-02 9.900000000000e-01 4.200000000000e+02 7.608396401018e+01 2.130971201077e-05 2.587622569360e+01 1.557250542334e-05 
7.300000000000e-01 0.000000000000e+00 0.000000000000e+00 5.495000000000e+06 5.545000000000e+06 5.000000000000e+04 1.000000000000e-02 9.900000000000e-01 4.200000000000e+02 7.608396401018e+01 2.130971201077e-05 2.587622569360e+01 1.557250542334e-05 
7.400000000000e-01 0.000000000000e+00 0.000000000000e+00 5.495000000000e+06 5.545000000000e+06 5.000000000000e+04 1.000000000000e-02 9.900000000000e-01 4.200000000000e+02 7.608396401018e+01 2.130971201077e-05 2.587622569360e+01 1.557250542334e-05 
7.500000000000e-01 0.000000000000e+00 0.000000000000e+00 5.495000000000e+06 5.545000000000e+06 5.000000000000e+04 1.000000000000e-02 9.900000000000e-01 4.200000000000e+02 7.608396401018e+01 2.130971201077e-05 2.587622569360e+01 1.557250542334e-05 
7.600000000000e-01 0.000000000000e+00 0.000000000000e+00 5.495000000000e+06 5.545000000000e+06 5.000000000000e+04 1.000000000000e-02 9.900000000000e-01 4.200000000000e+02 7.608396401018e+01 2.130971201077e-05 2.587622569360e+01 1.557250542334e-05 
7.700000000000e-01 0.000000000000e+00 0.000000000000e+00 5.495000000000e+06 5.545000000000e+06 5.000000000000e+04 1.000000000000e-02 9.900000000000e-01 4.200000000000e+02 7.608396401018e+01 2.130971201077e-05 2.587622569360e+01 1.557250542334e-05 
7.800000000000e-01 0.000000000000e+00 0.000000000000e+00 5.495000000000e+06 5.545000000000e+06 5.000000000000e+04 1.000000000000e-02 9.900000000000e-01 4.200000000000e+02 7.608396401018e+01 2.130971201077e-05 2.587622569360e+01 1.557250542334e-05 
7.900000000000e-01 0.000000000000e+00 0.000000000000e+00 5.495000000000e+06 5.545000000000e+06 5.000000000000e+04 1.000000000000e-02 9.900000000000e-01 4.200000000000e+02 7.608396401018e+01 2.130971201077e-05 2.587622569360e+01 1.557250542334e-05 
8.000000000000e-01 0.000000000000e+00 0.000000000000e+00 5.495000000000e+06 5.545000000000e+06 5.000000000000e+04 1.000000000000e-02 9.900000000000e-01 4.200000000000e+02 7.608396401018e+01 2.130971201077e-05 2.587622569360e+01 1.557250542334e-05 
8.100000000000e-01 0.000000000000e+00 0.000000000000e+00 5.495000000000e+06 5.545000000000e+06 5.000000000000e+04 1.000000000000e-02 9.900000000000e-01 4.200000000000e+02 7.608396401018e+01 2.130971201077e-05 2.587622569360e+01 1.557250542334e-05 
8.200000000000e-01 0.000000000000e+00 0.000000000000e+00 5.495000000000e+06 5.545000000000e+06 5.000000000000e+04 1.000000000000e-02 9.900000000000e-01 4.200000000000e+02 7.608396401018e+01 2.130971201077e-05 2.587622569360e+01 1.557250542334e-05 
8.300000000000e-01 0.000000000000e+00 0.000000000000e+00 5.495000000000e+06 5.545000000000e+06 5.000000000000e+04 1.000000000000e-02 9.900000000000e-01 4.200000000000e+02 7.608396401018e+01 2.130971201077e-05 2.587622569360e+01 1.557250542334e-05 
8.400000000000e-01 0.000000000000e+00 0.000000000000e+00 5.495000000000e+06 5.545000000000e+06 5.000000000000e+04 1.000000000000e-02 9.900000000000e-01 4.200000000000e+02 7.608396401018e+01 2.130971201077e-05 2.587622569360e+01 1.557250542334e-05 
8.500000000000e-01 0.000000000000e+00 0.000000000000e+00 5.495000000000e+06 5.545000000000e+06 5.000000000000e+04 1.000000000000e-02 9.900000000000e-01 4.200000000000e+02 7.608396401018e+01 2.130971201077e-05 2.587622569360e+01 1.557250542334e-05 
8.600000000000e-01 0.000000000000e+00 0.000000000000e+00 5.495000000000e+06 5.545000000000e+06 5.000000000000e+04 1.000000000000e-02 9.900000000000e-01 4.200000000000e+02 7.608396401018e+01 2.130971201077e-05 2.587622569360e+01 1.557250542334e-05 
8.700000000000e-01 0.000000000000e+00 0.000000000000e+00 5.495000000000e+06 5.545000000000e+06 5.000000000000e+04 1.000000000000e-02 9.900000000000e-01 4.200000000000e+02 7.608396401018e+01 2.130971201077e-05 2.587622569360e+01 1.557250542334e-05 
8.800000000000e-01 0.000000000000e+00 0.000000000000e+00 5.495000000000e+06 5.545000000000e+06 5.000000000000e+04 1.000000000000e-02 9.900000000000e-01 4.200000000000e+02 7.608396401018e+01 2.130971201077e-05 2.587622569360e+01 1.557250542334e-05 
8.900000000000e-01 0.000000000000e+00 0.000000000000e+00 5.495000000000e+06 5.545000000000e+06 5.000000000000e+04 1.000000000000e-02 9.900000000000e-01 4.200000000000e+02 7.608396401018e+01 2.130971201077e-05 2.587622569360e+01 1.557250542334e-05 
9.000000000000e-01 0.000000000000e+00 0.000000000000e+00 5.495000000000e+06 5.545000000000e+06 5.000000000000e+04 1.000000000000e-02 9.900000000000e-01 4.200000000000e+02 7.608396401018e+01 2.130971201077e-05 2.587622569360e+01 1.557250542334e-05 
9.100000000000e-01 0.000000000000e+00 0.000000000000e+00 5.495000000000e+06 5.545000000000e+06 5.000000000000e+04 1.000000000000e-02 9.900000000000e-01 4.200000000000e+02 7.608396401018e+01 2.130971201077e-05 2.587622569360e+01 1.557250542334e-05 
9.200000000000e-01 0.000000000000e+00 0.000000000000e+00 5.495000000000e+06 5.545000000000e+06 5.000000000000e+04 1.000000000000e-02 9.900000000000e-01 4.200000000000e+02 7.608396401018e+01 2.130971201077e-05 2.587622569360e+01 1.557250542334e-05 
9.300000000000e-01 0.000000000000e+00 0.000000000000e+00 5.495000000000e+06 5.545000000000e+06 5.000000000000e+04 1.000000000000e-02 9.900000000000e-01 4.200000000000e+02 7.608396401018e+01 2.130971201077e-05 2.587622569360e+01 1.557250542334e-05 
9.400000000000e-01 0.000000000000e+00 0.000000000000e+00 5.495000000000e+06 5.545000000000e+06 5.000000000000e+04 1.000000000000e-02 9.900000000000e-01 4.200000000000e+02 7.608396401018e+01 2.130971201077e-05 2.587622569360e+01 1.557250542334e-05 
9.500000000000e-01 0.000000000000e+00 0.000000000000e+00 5.495000000000e+06 5.545000000000e+06 5.000000000000e+04 1.000000000000e-02 9.900000000000e-01 4.200000000000e+02 7.608396401018e+01 2.130971201077e-05 2.587622569360e+01 1.557250542334e-05 
9.600000000000e-01 0.000000000000e+00 0.000000000000e+00 5.495000000000e+06 5.545000000000e+06 5.000000000000e+04 1.000000000000e-02 9.900000000000e-01 4.200000000000e+02 7.608396401018e+01 2.130971201077e-05 2.587622569360e+01 1.557250542334e-05 
9.700000000000e-01 0.000000000000e+00 0.000000000000e+00 5.495000000000e+06 5.545000000000e+06 5.000000000000e+04 1.000000000000e-02 9.900000000000e-01 4.200000000000e+02 7.608396401018e+01 2.130971201077e-05 2.587622569360e+01 1.557250542334e-05 
9.800000000000e-01 0.000000000000e+00 0.000000000000e+00 5.495000000000e+06 5.545000000000e+06 5.000000000000e+04 1.000000000000e-02 9.900000000000e-01 4.200000000000e+02 7.608396401018e+01 2.130971201077e-05 2.587622569360e+01 1.557250542334e-05 
9.900000000000e-01 0.000000000000e+00 0.000000000000e+00 5.495000000000e+06 5.545000000000e+06 5.000000000000e+04 1.000000000000e-02 9.900000000000e-01 4.200000000000e+02 7.608396401018e+01 2.130971201077e-05 2.587622569360e+01 1.557250542334e-05 
1.000000000000e+00 0.000000000000e+00 0.000000000000e+00 5.495000000000e+06 5.545000000000e+06 5.000000000000e+04 1.000000000000e-02 9.900000000000e-01 4.200000000000e+02 7.608396401018e+01 2.130971201077e-05 2.587622569360e+01 1.557250542334e-05 
1.010000000000e+00 0.000000000000e+00 0.000000000000e+00 5.495000000000e+06 5.545000000000e+06 5.000000000000e+04 1.000000000000e-02 9.900000000000e-01 4.200000000000e+02 7.608396401018e+01 2.130971201077e-05 2.587622569360e+01 1.557250542334e-05 
1.020000000000e+00 0.000000000000e+00 0.000000000000e+00 5.495000000000e+06 5.545000000000e+06 5.000000000000e+04 1.000000000000e-02 9.900000000000e-01 4.200000000000e+02 7.608396401018e+01 2.130971201077e-05 2.587622569360e+01 1.557250542334e-05 
1.030000000000e+00 0.000000000000e+00 0.000000000000e+00 5.495000000000e+06 5.545000000000e+06 5.000000000000e+04 1.000000000000e-02 9.900000000000e-01 4.200000000000e+02 7.608396401018e+01 2.130971201077e-05 2.587622569360e+01 1.557250542334e-05 
1.040000000000e+00 0.000000000000e+00 0.000000000000e+00 5.495000000000e+06 5.545000000000e+06 5.000000000000e+04 1.000000000000e-02 9.900000000000e-01 4.200000000000e+02 7.608396401018e+01 2.130971201077e-05 2.587622569360e+01 1.557250542334e-05 
1.050000000000e+00 0.000000000000e+00 0.000000000000e+00 5.495000000000e+06 5.545000000000e+06 5.000000000000e+04 1.000000000000e-02 9.900000000000e-01 4.200000000000e+02 7.608396401018e+01 2.130971201077e-05 2.587622569360e+01 1.557250542334e-05 
1.060000000000e+00 0.000000000000e+00 0.000000000000e+00 5.495000000000e+06 5.545000000000e+06 5.000000000000e+04 1.000000000000e-02 9.900000000000e-01 4.200000000000e+02 7.608396401018e+01 2.130971201077e-05 2.587622569360e+01 1.557250542334e-05 
1.070000000000e+00 0.000000000000e+00 0.000000000000e+00 5.495000000000e+06 5.545000000000e+06 5.000000000000e+04 1.000000000000e-02 9.900000000000e-01 4.200000000000e+02 7.608396401018e+01 2.130971201077e-05 2.587622569360e+01 1.557250542334e-05 
1.080000000000e+00 0.000000000000e+00 0.000000000000e+00 5.495000000000e+06 5.545000000000e+06 5.000000000000e+04 1.000000000000e-02 9.900000000000e-01 4.200000000000e+02 7.608396401018e+01 2.130971201077e-05 2.587622569360e+01 1.557250542334e-05 
1.090000000000e+00 0.000000000000e+00 0.000000000000e+00 5.495000000000e+06 5.545000000000e+06 5.000000000000e+04 1.000000000000e-02 9.900000000000e-01 4.200000000000e+02 7.608396401018e+01 2.130971201077e-05 2.587622569360e+01 1.557250542334e-05 
1.100000000000e+00 0.000000000000e+00 0.000000000000e+00 5.495000000000e+06 5.545000000000e+06 5.000000000000e+04 1.000000000000e-02 9.900000000000e-01 4.200000000000e+02 7.608396401018e+01 2.130971201077e-05 2.587622569360e+01 1.557250542334e-05 
1.110000000000e+00 0.000000000000e+00 0.000000000000e+00 5.495000000000e+06 5.545000000000e+06 5.000000000000e+04 1.000000000000e-02 9.900000000000e-01 4.200000000000e+02 7.608396401018e+01 2.130971201077e-05 2.587622569360e+01 1.557250542334e-05 
1.120000000000e+00 0.000000000000e+00 0.000000000000e+00 5.495000000000e+06 5.545000000000e+06 5.000000000000e+04 1.000000000000e-02 9.900000000000e-01 4.200000000000e+02 7.608396401018e+01 2.130971201077e-05 2.587622569360e+01 1.557250542334e-05 
1.130000000000e+00 0.000000000000e+00 0.000000000000e+00 5.495000000000e+06 5.545000000000e+06 5.000000000000e+04 1.000000000000e-02 9.900000000000e-01 4.200000000000e+02 7.608396401018e+01 2.130971201077e-05 2.587622569360e+01 1.557250542334e-05 
1.140000000000e+00 0.000000000000e+00 0.000000000000e+00 5.495000000000e+06 5.545000000000e+06 5.000000000000e+04 1.000000000000e-02 9.900000000000e-01 4.200000000000e+02 7.608396401018e+01 2.130971201077e-05 2.587622569360e+01 1.557250542334e-05 
1.150000000000e+00 0.000000000000e+00 0.000000000000e+00 5.495000000000e+06 5.545000000000e+06 5.000000000000e+04 1.000000000000e-02 9.900000000000e-01 4.200000000000e+02 7.608396401018e+01 2.130971201077e-05 2.587622569360e+01 1.557250542334e-05 
1.160000000000e+00 0.000000000000e+00 0.000000000000e+00 5.495000000000e+06 5.545000000000e+06 5.000000000000e+04 1.000000000000e-02 9.900000000000e-01 4.200000000000e+02 7.608396401018e+01 2.130971201077e-05 2.587622569360e+01 1.557250542334e-05 
1.170000000000e+00 0.000000000000e+00 0.000000000000e+00 5.495000000000e+06 5.545000000000e+06 5.000000000000e+04 1.000000000000e-02 9.900000000000e-01 4.200000000000e+02 7.608396401018e+01 2.130971201077e-05 2.587622569360e+01 1.557250542334e-05 
1.180000000000e+00 0.000000000000e+00 0.000000000000e+00 5.495000000000e+06 5.545000000000e+06 5.000000000000e+04 1.000000000000e-02 9.900000000000e-01 4.200000000000e+02 7.608396401018e+01 2.130971201077e-05 2.587622569360e+01 1.557250542334e-05 
1.190000000000e+00 0.000000000000e+00 0.000000000000e+00 5.495000000000e+06 5.545000000000e+06 5.000000000000e+04 1.000000000000e-02 9.900000000000e-01 4.200000000000e+02 7.608396401018e+01 2.130971201077e-05 2.587622569360e+01 1.557250542334e-05 