# vtk DataFile Version 3.0
Unstructured Grid from OpenGeoSys
ASCII
DATASET UNSTRUCTURED_GRID
FIELD TimesAndCycles 2
TIME 1 1 double
2.100000000000e+04
CYLCE 1 1 long
210
POINTS 101 double
0.000000000000e+00 0.000000000000e+00 0.000000000000e+00
5.000000000000e-03 0.000000000000e+00 0.000000000000e+00
1.000000000000e-02 0.000000000000e+00 0.000000000000e+00
1.500000000000e-02 0.000000000000e+00 0.000000000000e+00
2.000000000000e-02 0.000000000000e+00 0.000000000000e+00
2.500000000000e-02 0.000000000000e+00 0.000000000000e+00
3.000000000000e-02 0.000000000000e+00 0.000000000000e+00
3.500000000000e-02 0.000000000000e+00 0.000000000000e+00
4.000000000000e-02 0.000000000000e+00 0.000000000000e+00
4.500000000000e-02 0.000000000000e+00 0.000000000000e+00
5.000000000000e-02 0.000000000000e+00 0.000000000000e+00
5.500000000000e-02 0.000000000000e+00 0.000000000000e+00
6.000000000000e-02 0.000000000000e+00 0.000000000000e+00
6.500000000000e-02 0.000000000000e+00 0.000000000000e+00
7.000000000000e-02 0.000000000000e+00 0.000000000000e+00
7.500000000000e-02 0.000000000000e+00 0.000000000000e+00
8.000000000000e-02 0.000000000000e+00 0.000000000000e+00
8.500000000000e-02 0.000000000000e+00 0.000000000000e+00
9.000000000000e-02 0.000000000000e+00 0.000000000000e+00
9.500000000000e-02 0.000000000000e+00 0.000000000000e+00
1.000000000000e-01 0.000000000000e+00 0.000000000000e+00
1.050000000000e-01 0.000000000000e+00 0.000000000000e+00
1.100000000000e-01 0.000000000000e+00 0.000000000000e+00
1.150000000000e-01 0.000000000000e+00 0.000000000000e+00
1.200000000000e-01 0.000000000000e+00 0.000000000000e+00
1.250000000000e-01 0.000000000000e+00 0.000000000000e+00
1.300000000000e-01 0.000000000000e+00 0.000000000000e+00
1.350000000000e-01 0.000000000000e+00 0.000000000000e+00
1.400000000000e-01 0.000000000000e+00 0.000000000000e+00
1.450000000000e-01 0.000000000000e+00 0.000000000000e+00
1.500000000000e-01 0.000000000000e+00 0.000000000000e+00
1.550000000000e-01 0.000000000000e+00 0.000000000000e+00
1.600000000000e-01 0.000000000000e+00 0.000000000000e+00
1.650000000000e-01 0.000000000000e+00 0.000000000000e+00
1.700000000000e-01 0.000000000000e+00 0.000000000000e+00
1.750000000000e-01 0.000000000000e+00 0.000000000000e+00
1.800000000000e-01 0.000000000000e+00 0.000000000000e+00
1.850000000000e-01 0.000000000000e+00 0.000000000000e+00
1.900000000000e-01 0.000000000000e+00 0.000000000000e+00
1.950000000000e-01 0.000000000000e+00 0.000000000000e+00
2.000000000000e-01 0.000000000000e+00 0.000000000000e+00
2.050000000000e-01 0.000000000000e+00 0.000000000000e+00
2.100000000000e-01 0.000000000000e+00 0.000000000000e+00
2.150000000000e-01 0.000000000000e+00 0.000000000000e+00
2.200000000000e-01 0.000000000000e+00 0.000000000000e+00
2.250000000000e-01 0.000000000000e+00 0.000000000000e+00
2.300000000000e-01 0.000000000000e+00 0.000000000000e+00
2.350000000000e-01 0.000000000000e+00 0.000000000000e+00
2.400000000000e-01 0.000000000000e+00 0.000000000000e+00
2.450000000000e-01 0.000000000000e+00 0.000000000000e+00
2.500000000000e-01 0.000000000000e+00 0.000000000000e+00
2.550000000000e-01 0.000000000000e+00 0.000000000000e+00
2.600000000000e-01 0.000000000000e+00 0.000000000000e+00
2.650000000000e-01 0.000000000000e+00 0.000000000000e+00
2.700000000000e-01 0.000000000000e+00 0.000000000000e+00
2.750000000000e-01 0.000000000000e+00 0.000000000000e+00
2.800000000000e-01 0.000000000000e+00 0.000000000000e+00
2.850000000000e-01 0.000000000000e+00 0.000000000000e+00
2.900000000000e-01 0.000000000000e+00 0.000000000000e+00
2.950000000000e-01 0.000000000000e+00 0.000000000000e+00
3.000000000000e-01 0.000000000000e+00 0.000000000000e+00
3.050000000000e-01 0.000000000000e+00 0.000000000000e+00
3.100000000000e-01 0.000000000000e+00 0.000000000000e+00
3.150000000000e-01 0.000000000000e+00 0.000000000000e+00
3.200000000000e-01 0.000000000000e+00 0.000000000000e+00
3.250000000000e-01 0.000000000000e+00 0.000000000000e+00
3.300000000000e-01 0.000000000000e+00 0.000000000000e+00
3.350000000000e-01 0.000000000000e+00 0.000000000000e+00
3.400000000000e-01 0.000000000000e+00 0.000000000000e+00
3.450000000000e-01 0.000000000000e+00 0.000000000000e+00
3.500000000000e-01 0.000000000000e+00 0.000000000000e+00
3.550000000000e-01 0.000000000000e+00 0.000000000000e+00
3.600000000000e-01 0.000000000000e+00 0.000000000000e+00
3.650000000000e-01 0.000000000000e+00 0.000000000000e+00
3.700000000000e-01 0.000000000000e+00 0.000000000000e+00
3.750000000000e-01 0.000000000000e+00 0.000000000000e+00
3.800000000000e-01 0.000000000000e+00 0.000000000000e+00
3.850000000000e-01 0.000000000000e+00 0.000000000000e+00
3.900000000000e-01 0.000000000000e+00 0.000000000000e+00
3.950000000000e-01 0.000000000000e+00 0.000000000000e+00
4.000000000000e-01 0.000000000000e+00 0.000000000000e+00
4.050000000000e-01 0.000000000000e+00 0.000000000000e+00
4.100000000000e-01 0.000000000000e+00 0.000000000000e+00
4.150000000000e-01 0.000000000000e+00 0.000000000000e+00
4.200000000000e-01 0.000000000000e+00 0.000000000000e+00
4.250000000000e-01 0.000000000000e+00 0.000000000000e+00
4.300000000000e-01 0.000000000000e+00 0.000000000000e+00
4.350000000000e-01 0.000000000000e+00 0.000000000000e+00
4.400000000000e-01 0.000000000000e+00 0.000000000000e+00
4.450000000000e-01 0.000000000000e+00 0.000000000000e+00
4.500000000000e-01 0.000000000000e+00 0.000000000000e+00
4.550000000000e-01 0.000000000000e+00 0.000000000000e+00
4.600000000000e-01 0.000000000000e+00 0.000000000000e+00
4.650000000000e-01 0.000000000000e+00 0.000000000000e+00
4.700000000000e-01 0.000000000000e+00 0.000000000000e+00
4.750000000000e-01 0.000000000000e+00 0.000000000000e+00
4.800000000000e-01 0.000000000000e+00 0.000000000000e+00
4.850000000000e-01 0.000000000000e+00 0.000000000000e+00
4.900000000000e-01 0.000000000000e+00 0.000000000000e+00
4.950000000000e-01 0.000000000000e+00 0.000000000000e+00
5.000000000000e-01 0.000000000000e+00 0.000000000000e+00
CELLS 100 300
2 0 1
2 2 3
2 4 5
2 6 7
2 8 9
2 10 11
2 12 13
2 14 15
2 16 17
2 18 19
2 20 21
2 22 23
2 24 25
2 26 27
2 28 29
2 30 31
2 32 33
2 34 35
2 36 37
2 38 39
2 40 41
2 42 43
2 44 45
2 46 47
2 48 49
2 50 51
2 52 53
2 54 55
2 56 57
2 58 59
2 60 61
2 62 63
2 64 65
2 66 67
2 68 69
2 70 71
2 72 73
2 74 75
2 76 77
2 78 79
2 80 81
2 82 83
2 84 85
2 86 87
2 88 89
2 90 91
2 92 93
2 94 95
2 96 97
2 98 99
2 1 2
2 3 4
2 5 6
2 7 8
2 9 10
2 11 12
2 13 14
2 15 16
2 17 18
2 19 20
2 21 22
2 23 24
2 25 26
2 27 28
2 29 30
2 31 32
2 33 34
2 35 36
2 37 38
2 39 40
2 41 42
2 43 44
2 45 46
2 47 48
2 49 50
2 51 52
2 53 54
2 55 56
2 57 58
2 59 60
2 61 62
2 63 64
2 65 66
2 67 68
2 69 70
2 71 72
2 73 74
2 75 76
2 77 78
2 79 80
2 81 82
2 83 84
2 85 86
2 87 88
2 89 90
2 91 92
2 93 94
2 95 96
2 97 98
2 99 100

CELL_TYPES 100
3
3
3
3
3
3
3
3
3
3
3
3
3
3
3
3
3
3
3
3
3
3
3
3
3
3
3
3
3
3
3
3
3
3
3
3
3
3
3
3
3
3
3
3
3
3
3
3
3
3
3
3
3
3
3
3
3
3
3
3
3
3
3
3
3
3
3
3
3
3
3
3
3
3
3
3
3
3
3
3
3
3
3
3
3
3
3
3
3
3
3
3
3
3
3
3
3
3
3
3

POINT_DATA 101
SCALARS 1-C double 1
LOOKUP_TABLE default
9.970358361137e-06
2.733741788042e-05
6.092361009411e-05
1.222075653628e-04
2.299812823066e-04
4.147994809714e-04
7.261080353550e-04
1.243656840999e-03
2.095568504756e-03
3.486277520628e-03
5.739552974239e-03
9.372123121143e-03
1.525079445612e-02
2.490890667449e-02
4.069663099514e-02
6.447763392364e-02
9.624410442969e-02
1.432128358953e-01
1.426731485780e-01
1.419785156059e-01
1.411039165005e-01
1.400213870915e-01
1.386988421982e-01
1.371058315441e-01
1.352227086288e-01
1.330324502107e-01
1.305190494445e-01
1.277045203149e-01
1.246026232494e-01
1.212516217517e-01
1.177069204778e-01
1.140380819349e-01
1.103182152005e-01
1.066331490399e-01
1.030615384627e-01
9.966681815398e-02
9.663477196946e-02
9.426737537240e-02
9.200372582591e-02
9.396266897703e-02
9.566605621951e-02
9.721449770795e-02
9.880951506812e-02
1.004548106807e-01
1.021314880171e-01
1.038263959880e-01
1.055224756341e-01
1.071986938504e-01
1.088387069370e-01
1.104175481599e-01
1.119203393888e-01
1.133274299321e-01
1.146292563530e-01
1.158147193090e-01
1.168748881151e-01
1.178097209830e-01
1.186330887234e-01
1.193373135700e-01
1.199444274217e-01
1.204389826989e-01
1.208561083317e-01
1.211925687882e-01
1.214563570616e-01
1.216688396425e-01
1.218431189131e-01
1.219742633073e-01
1.220746282708e-01
1.221612718692e-01
1.222206984945e-01
1.222720487957e-01
1.223095023680e-01
1.223273161504e-01
1.223370439419e-01
1.223593019288e-01
1.223689872956e-01
1.223842272441e-01
1.223867770761e-01
1.223803860304e-01
1.223926049090e-01
1.223906783522e-01
1.223891831194e-01
1.223854324567e-01
1.223929120801e-01
1.223932899434e-01
1.224027081629e-01
1.223827398218e-01
1.223906907250e-01
1.223835148352e-01
1.224032155521e-01
1.223943290993e-01
1.223953649417e-01
1.223967946015e-01
1.223944987179e-01
1.223949962606e-01
1.223842511935e-01
1.223964350002e-01
1.223847883640e-01
1.224002389982e-01
1.223915147171e-01
1.223937021288e-01
1.223939853239e-01
SCALARS 2-Ca double 1
LOOKUP_TABLE default
9.970358361137e-06
2.006482914717e-05
3.952002529141e-05
7.483232756866e-05
1.365180561147e-04
2.414794551685e-04
4.167533306088e-04
7.054541382763e-04
1.176107009257e-03
1.936988174157e-03
3.158089329404e-03
5.108474486884e-03
8.235483715485e-03
1.332371065906e-02
2.157101121577e-02
3.393780507371e-02
5.045566644415e-02
7.477654385596e-02
7.559799240759e-02
7.666033618525e-02
7.802676437110e-02
7.977258056566e-02
8.198613423235e-02
8.477325989047e-02
8.826346606531e-02
9.260750364316e-02
9.797829619740e-02
1.045912823013e-01
1.126832535118e-01
1.225308883914e-01
1.344497376547e-01
1.487963152315e-01
1.659632934989e-01
1.863803302555e-01
2.105794353477e-01
2.393057212140e-01
2.723781018387e-01
3.072200918104e-01
3.537212773359e-01
3.334563804341e-01
3.152350765996e-01
2.987126904166e-01
2.826099694647e-01
2.671078652750e-01
2.523196933168e-01
2.383379556396e-01
2.252341069206e-01
2.130576450433e-01
2.018426656025e-01
1.915939907508e-01
1.823066579084e-01
1.739526576871e-01
1.664978919920e-01
1.598929466217e-01
1.540793425508e-01
1.489988352912e-01
1.446009509014e-01
1.408098868221e-01
1.375779147463e-01
1.348200692177e-01
1.325037837137e-01
1.305612188399e-01
1.289398168244e-01
1.276051168144e-01
1.265195233135e-01
1.256327119940e-01
1.249169336844e-01
1.243542592965e-01
1.239010369645e-01
1.235507144973e-01
1.232758246533e-01
1.230525824550e-01
1.228776612586e-01
1.227595289007e-01
1.226632628885e-01
1.225991298418e-01
1.225426523116e-01
1.224926833911e-01
1.224729627531e-01
1.224477950384e-01
1.224295089913e-01
1.224137138579e-01
1.224126147516e-01
1.224069253241e-01
1.224120824562e-01
1.223891423326e-01
1.223950349692e-01
1.223864433138e-01
1.224051768601e-01
1.223956341807e-01
1.223962277807e-01
1.223973614080e-01
1.223948686868e-01
1.223952362179e-01
1.223844058455e-01
1.223965340500e-01
1.223848514175e-01
1.224002789338e-01
1.223915400368e-01
1.223937187938e-01
1.223939989413e-01
SCALARS 3-Cl double 1
LOOKUP_TABLE default
3.988143344455e+00
3.988124564206e+00
3.988089213256e+00
3.988027427397e+00
3.987924766698e+00
3.987760549015e+00
3.987505742097e+00
3.987120356521e+00
3.986550293619e+00
3.985723624462e+00
3.984546309328e+00
3.982897408261e+00
3.980623896054e+00
3.977535253022e+00
3.973398033327e+00
3.967930704554e+00
3.960799524341e+00
3.951615811981e+00
3.939930668749e+00
3.925242746831e+00
3.906995922417e+00
3.884587183476e+00
3.857376295742e+00
3.824699033351e+00
3.785883919193e+00
3.740272213459e+00
3.687240649893e+00
3.626226178651e+00
3.556751730366e+00
3.478451842706e+00
3.391096840711e+00
3.294614207585e+00
3.189105825390e+00
3.074859866244e+00
2.952356346272e+00
2.822265661440e+00
2.685439775110e+00
2.542895982985e+00
2.395793954328e+00
2.245407591993e+00
2.093090199791e+00
1.940238290665e+00
1.788253224729e+00
1.638503044951e+00
1.492286267292e+00
1.350799144113e+00
1.215107733310e+00
1.086125791279e+00
9.645991528058e-01
8.510968791914e-01
7.460090981296e-01
6.495511133935e-01
5.617730852612e-01
4.825743602705e-01
4.117213915524e-01
3.488681194519e-01
2.935776932169e-01
2.453444820334e-01
2.036154448839e-01
1.678100845109e-01
1.373383923551e-01
1.116163714175e-01
9.007890741670e-02
7.218991822186e-02
5.744985199695e-02
4.540071499558e-02
3.562889064755e-02
2.776606317214e-02
2.148858414281e-02
1.651562221527e-02
1.260642014521e-02
9.556953523974e-03
7.196247221387e-03
5.382562640703e-03
3.999625017043e-03
2.953018003241e-03
2.166834389048e-03
1.580638720807e-03
1.146769982684e-03
8.279907541400e-04
5.954729371308e-04
4.270987203803e-04
3.060482345848e-04
2.196415281314e-04
1.584013270626e-04
1.153038159973e-04
8.518677633295e-05
6.428732505341e-05
4.988482447453e-05
4.002795164174e-05
3.332823612946e-05
2.880543850126e-05
2.577288114922e-05
2.375321770418e-05
2.241713928564e-05
2.153918953729e-05
2.096624150270e-05
2.059537681563e-05
2.035915489922e-05
2.021840417415e-05
2.016867164172e-05
SCALARS 4-H double 1
LOOKUP_TABLE default
2.701109245634e-04
2.915477913617e-04
3.274223652201e-04
4.066696194458e-04
5.743794193031e-04
9.016739102616e-04
1.490629608418e-03
2.493389122936e-03
4.147142656420e-03
6.817553731279e-03
1.105079535132e-02
1.763935381482e-02
2.775640987529e-02
4.316288849850e-02
6.583721028392e-02
9.583015470564e-02
1.305955895100e-01
1.746917298499e-01
1.742187239464e-01
1.736083625204e-01
1.728373955055e-01
1.718794705531e-01
1.707037113123e-01
1.692795629064e-01
1.675850540183e-01
1.655987881478e-01
1.632989160162e-01
1.606964455819e-01
1.577952038854e-01
1.546142114864e-01
1.511989694371e-01
1.476244582546e-01
1.439145547374e-01
1.401494327049e-01
1.364392932062e-01
1.327986733338e-01
1.294562289578e-01
1.267229176103e-01
1.239443686122e-01
1.263214843115e-01
1.284655485732e-01
1.304447837811e-01
1.324893942820e-01
1.346342337318e-01
1.368172445441e-01
1.390373981201e-01
1.412822473174e-01
1.435163285640e-01
1.457294910299e-01
1.478810382578e-01
1.499394869495e-01
1.519158859772e-01
1.537370159095e-01
1.554618806146e-01
1.570077567521e-01
1.584048101424e-01
1.596558642327e-01
1.607508088949e-01
1.617029602109e-01
1.625190693034e-01
1.632113186211e-01
1.637900550220e-01
1.642543330690e-01
1.646400188017e-01
1.649648601071e-01
1.652196925100e-01
1.654139120130e-01
1.655802321890e-01
1.657015389005e-01
1.658092664040e-01
1.658887497751e-01
1.659401042342e-01
1.659779455952e-01
1.660207065648e-01
1.660319627469e-01
1.660585576378e-01
1.660727157862e-01
1.660828527089e-01
1.660899079185e-01
1.660780858407e-01
1.660917974178e-01
1.660855785512e-01
1.661126691433e-01
1.660905476653e-01
1.661047868782e-01
1.660987823620e-01
1.660892115599e-01
1.661022725260e-01
1.661012833616e-01
1.661093306289e-01
1.661097054892e-01
1.661153334342e-01
1.661145873495e-01
1.660989764717e-01
1.661052986425e-01
1.660991496695e-01
1.660935213072e-01
1.661115468852e-01
1.660976472374e-01
1.660971999062e-01
1.661153550674e-01
SCALARS 5-Mg double 1
LOOKUP_TABLE default
1.994071672227e+00
1.994069554692e+00
1.994066010213e+00
1.994061088936e+00
1.994055846575e+00
1.994053594533e+00
1.994062225753e+00
1.994098380963e+00
1.994194608305e+00
1.994411101578e+00
1.994854618309e+00
1.995712352765e+00
1.997327258768e+00
2.000352822527e+00
2.005824636443e+00
2.014505181127e+00
2.026188200156e+00
2.044244198030e+00
2.037040490545e+00
2.027939552836e+00
2.016575113338e+00
2.002542398264e+00
1.985400855837e+00
1.964682088329e+00
1.939901202160e+00
1.910561053297e+00
1.876161078194e+00
1.836226327339e+00
1.790295234920e+00
1.737946654713e+00
1.678805603179e+00
1.612548870496e+00
1.538907834396e+00
1.457682751906e+00
1.368660276251e+00
1.271493927660e+00
1.166976557686e+00
1.058495275054e+00
9.361794256538e-01
8.832100845397e-01
8.269760795153e-01
7.686209526237e-01
7.103261579682e-01
6.525984678810e-01
5.959549283461e-01
5.408880124046e-01
4.878422353688e-01
4.372039444465e-01
3.892956177374e-01
3.443719970049e-01
3.026182305453e-01
2.641503289418e-01
2.290179069916e-01
1.972089528224e-01
1.686562413404e-01
1.432449454176e-01
1.208209844304e-01
1.011996677645e-01
8.417423511734e-02
6.952395573658e-02
5.702152079538e-02
4.643953565701e-02
3.755599394552e-02
3.015868193893e-02
2.404852159791e-02
1.904190881101e-02
1.497213991011e-02
1.169004415863e-02
9.063953601285e-03
6.979145405888e-03
5.336887787182e-03
4.053210457351e-03
3.057506293968e-03
2.291054348350e-03
1.705536915485e-03
1.261606403814e-03
9.275419589270e-04
6.780219996075e-04
4.930271472467e-04
3.568786908868e-04
2.574105966367e-04
1.852679589574e-04
1.333214456974e-04
9.618538336339e-05
6.982637024757e-05
5.124939720886e-05
3.824914402642e-05
2.921518392490e-05
2.298110424670e-05
1.870889441158e-05
1.580127904215e-05
1.383591281166e-05
1.251647168156e-05
1.163665150997e-05
1.105391756376e-05
1.067054488223e-05
1.042006723273e-05
1.025775285952e-05
1.015425773588e-05
1.009253705771e-05
1.007071841140e-05
SCALARS 6-O double 1
LOOKUP_TABLE default
2.010568337471e-02
2.016934801380e-02
2.028963458418e-02
2.051589019592e-02
2.092768574518e-02
2.165317707163e-02
2.289304652628e-02
2.496441459278e-02
2.837267867672e-02
3.391721078932e-02
4.284663657758e-02
5.711282620168e-02
7.990967580174e-02
1.167262411724e-01
1.756127513217e-01
2.621982594749e-01
3.752012866680e-01
5.385688434251e-01
5.372390410405e-01
5.355108315763e-01
5.333225526510e-01
5.306042706034e-01
5.272731013744e-01
5.232523058893e-01
5.185021751242e-01
5.129905847199e-01
5.066866374208e-01
4.996872186093e-01
4.920569941378e-01
4.839367144620e-01
4.755256842210e-01
4.670733500212e-01
4.588063988748e-01
4.510094425788e-01
4.439519520700e-01
4.378013382884e-01
4.331909499513e-01
4.311364154232e-01
4.295756505100e-01
4.434083677431e-01
4.564448588925e-01
4.689582228474e-01
4.816050660597e-01
4.943523586637e-01
5.070539451954e-01
5.196160214064e-01
5.319332073066e-01
5.438835446214e-01
5.553793553258e-01
5.662997736389e-01
5.765668581968e-01
5.861174830751e-01
5.948840819972e-01
6.028673800880e-01
6.100097256737e-01
6.163416429055e-01
6.219258091253e-01
6.267568855011e-01
6.309325100545e-01
6.344358363821e-01
6.374048924834e-01
6.398614255613e-01
6.418543730823e-01
6.434898930878e-01
6.448386488393e-01
6.459018755073e-01
6.467399530133e-01
6.474369891992e-01
6.479585071346e-01
6.483902859652e-01
6.487183684213e-01
6.489347662863e-01
6.490891450117e-01
6.492589493336e-01
6.493558925518e-01
6.494620281637e-01
6.495121511908e-01
6.495244378627e-01
6.495841557243e-01
6.495868172465e-01
6.495996560034e-01
6.495928754973e-01
6.496343098885e-01
6.496282732239e-01
6.496664049179e-01
6.496054380855e-01
6.496258615175e-01
6.496118053976e-01
6.496710615063e-01
6.496488695935e-01
6.496524662807e-01
6.496597729722e-01
6.496526487658e-01
6.496464268938e-01
6.496174129404e-01
6.496509294615e-01
6.496132011615e-01
6.496685825692e-01
6.496354704930e-01
6.496418154494e-01
6.496517447651e-01
SCALARS 7-Sn double 1
LOOKUP_TABLE default
0.000000000000e+00
0.000000000000e+00
0.000000000000e+00
0.000000000000e+00
0.000000000000e+00
0.000000000000e+00
0.000000000000e+00
0.000000000000e+00
0.000000000000e+00
0.000000000000e+00
0.000000000000e+00
0.000000000000e+00
0.000000000000e+00
0.000000000000e+00
0.000000000000e+00
0.000000000000e+00
0.000000000000e+00
0.000000000000e+00
0.000000000000e+00
0.000000000000e+00
0.000000000000e+00
0.000000000000e+00
0.000000000000e+00
0.000000000000e+00
0.000000000000e+00
0.000000000000e+00
0.000000000000e+00
0.000000000000e+00
0.000000000000e+00
0.000000000000e+00
0.000000000000e+00
0.000000000000e+00
0.000000000000e+00
0.000000000000e+00
0.000000000000e+00
0.000000000000e+00
0.000000000000e+00
0.000000000000e+00
0.000000000000e+00
0.000000000000e+00
0.000000000000e+00
0.000000000000e+00
0.000000000000e+00
0.000000000000e+00
0.000000000000e+00
0.000000000000e+00
0.000000000000e+00
0.000000000000e+00
0.000000000000e+00
0.000000000000e+00
0.000000000000e+00
0.000000000000e+00
0.000000000000e+00
0.000000000000e+00
0.000000000000e+00
0.000000000000e+00
0.000000000000e+00
0.000000000000e+00
0.000000000000e+00
0.000000000000e+00
0.000000000000e+00
0.000000000000e+00
0.000000000000e+00
0.000000000000e+00
0.000000000000e+00
0.000000000000e+00
0.000000000000e+00
0.000000000000e+00
0.000000000000e+00
0.000000000000e+00
0.000000000000e+00
0.000000000000e+00
0.000000000000e+00
0.000000000000e+00
0.000000000000e+00
0.000000000000e+00
0.000000000000e+00
0.000000000000e+00
0.000000000000e+00
0.000000000000e+00
0.000000000000e+00
0.000000000000e+00
0.000000000000e+00
0.000000000000e+00
0.000000000000e+00
0.000000000000e+00
0.000000000000e+00
0.000000000000e+00
0.000000000000e+00
0.000000000000e+00
0.000000000000e+00
0.000000000000e+00
0.000000000000e+00
0.000000000000e+00
0.000000000000e+00
0.000000000000e+00
0.000000000000e+00
0.000000000000e+00
0.000000000000e+00
0.000000000000e+00
0.000000000000e+00
SCALARS 8-Zz double 1
LOOKUP_TABLE default
1.035722930241e-15
3.377113302898e-15
8.620346386982e-17
-1.060658910136e-14
-1.195421672924e-16
-5.164516733757e-16
3.751467433525e-16
4.054739412610e-15
-2.210445180184e-16
6.089434619775e-16
4.596683122386e-16
-7.815427793205e-17
4.646897184662e-16
1.620317133784e-16
4.789343553549e-16
-5.835667947394e-16
4.674203124714e-16
-7.613545422039e-16
8.930111828347e-17
1.969599038142e-16
-1.091833259233e-15
4.342791789383e-16
-3.148887173859e-16
2.295789801920e-16
-7.247630084310e-17
1.327467063271e-16
-4.857021026968e-16
-1.832455861119e-17
-3.502430155060e-16
1.353813040017e-16
2.590555823394e-16
-4.968393207210e-16
-1.243223458367e-15
-9.471849713165e-16
6.925986639066e-16
-4.736178023277e-16
1.005382863767e-16
1.198213167334e-16
8.843560091771e-16
-2.471962020767e-16
-2.777812193409e-19
4.529735616690e-16
-9.650485745865e-17
1.698126473903e-16
-9.719331387484e-18
-1.090404838671e-16
-3.316474441536e-16
3.445543525720e-16
1.406038051851e-16
3.018065234505e-17
-3.040631344355e-17
9.388484202523e-17
-1.242037407481e-16
-2.798681421257e-17
3.998211997029e-17
8.791769634943e-18
-3.052750186770e-17
2.033881143599e-17
3.510133064511e-17
-1.608261355468e-17
1.639557225369e-17
2.404930059304e-17
-9.116085109510e-18
3.882061615019e-19
-3.582586721421e-17
1.059651349616e-17
-2.736577443508e-17
4.704143084979e-17
-2.143708470086e-17
2.021378935088e-17
-1.177938768582e-17
5.460070429197e-18
-2.806802742875e-17
6.060482423441e-18
-1.566742695241e-18
-4.393365018014e-17
-2.566014045299e-17
1.231969706212e-17
-2.810588821932e-17
-4.776169414095e-17
3.804512096655e-17
2.678688257354e-17
1.132905556328e-17
-2.126450218004e-17
-1.352292768226e-17
-1.517682731182e-17
3.260185053458e-17
1.831386892320e-17
1.005272407634e-17
2.394268921369e-17
-1.732059099344e-18
3.369911612407e-17
3.499465402827e-19
5.233655140035e-18
-2.024746533914e-17
-2.930277277296e-18
-3.644877921035e-17
1.978439567179e-17
2.493349915365e-17
-6.370406564751e-18
-3.011368949871e-17
SCALARS C double 1
LOOKUP_TABLE default
 3.190559221134e-06
 8.748021160564e-06
 1.949566095132e-05
 3.910663298383e-05
 7.359440942640e-05
 1.327365537156e-04
 2.323558313344e-04
 3.979723472467e-04
 6.705855579779e-04
 1.115614856365e-03
 1.836666911647e-03
 2.999095662283e-03
 4.880280690777e-03
 7.970893360453e-03
 1.302299253962e-02
 2.063295474410e-02
 3.079828043063e-02
 9.696193077287e-02
 1.186035885196e-01
 1.216357524387e-01
 1.217980762830e-01
 1.214733120628e-01
 1.209457422733e-01
 1.203779495582e-01
 1.197017886089e-01
 1.188319558584e-01
 1.179259810671e-01
 1.168582569373e-01
 1.156542699687e-01
 1.143506740727e-01
 1.129748048086e-01
 1.114414262558e-01
 1.099171156310e-01
 1.083943214138e-01
 1.067920298935e-01
 1.053593971465e-01
 1.038970485296e-01
 1.025997125852e-01
 1.006143171319e-01
 1.002015275924e-01
 1.006820220939e-01
 1.011731050387e-01
 1.015961578813e-01
 1.020879010226e-01
 1.025473389883e-01
 1.030500680776e-01
 1.035391456101e-01
 1.040108709132e-01
 1.044766477100e-01
 1.049529144411e-01
 1.053948520510e-01
 1.057981534346e-01
 1.062826452777e-01
 1.065086048265e-01
 1.069146734505e-01
 1.071878394834e-01
 1.074659436324e-01
 1.075900047820e-01
 1.078675876413e-01
 1.080552403968e-01
 1.081244983132e-01
 1.082731663160e-01
 1.083040874166e-01
 1.084007432420e-01
 1.084847224532e-01
 1.084879187054e-01
 1.085568645117e-01
 1.085747050207e-01
 1.085494248889e-01
 1.086340894826e-01
 1.086015886879e-01
 1.085872710770e-01
 1.086679419896e-01
 1.086103240317e-01
 1.085811952369e-01
 1.086805538702e-01
 1.086082161909e-01
 1.086398807909e-01
 1.086421262343e-01
 1.086520272695e-01
 1.086230524347e-01
 1.086658136935e-01
 1.086406300882e-01
 1.085893112969e-01
 1.086997579313e-01
 1.086035522838e-01
 1.086508895687e-01
 1.086294626929e-01
 1.086739617363e-01
 1.086066467913e-01
 1.086455087710e-01
 1.086542611025e-01
 1.086380318389e-01
 1.086323953372e-01
 1.086293044221e-01
 1.086355866802e-01
 1.086314433916e-01
 1.087196985132e-01
 1.085456598894e-01
 1.086059191197e-01
 1.087345192784e-01
SCALARS Ca double 1
LOOKUP_TABLE default
 3.190559221134e-06
 6.420780145746e-06
 1.264647667265e-05
 2.394647467908e-05
 4.368601485752e-05
 7.727384469507e-05
 1.333617889901e-04
 2.257465484284e-04
 3.763562838697e-04
 6.198395770007e-04
 1.010594065666e-03
 1.634720700578e-03
 2.635369080053e-03
 4.263610531635e-03
 6.902761021386e-03
 1.086015651612e-02
 1.614590081823e-02
 4.949540595941e-02
 6.066544544438e-02
 6.263261722965e-02
 6.329097062658e-02
 6.386045272256e-02
 6.451661011941e-02
 6.537947309272e-02
 6.645955508418e-02
 6.776516827724e-02
 6.943297395727e-02
 7.146558657766e-02
 7.394932089522e-02
 7.698491869147e-02
 8.067815907225e-02
 8.508937869626e-02
 9.041582340404e-02
 9.677747526945e-02
 1.042914861406e-01
 1.133107191023e-01
 1.236478157447e-01
 1.345273504157e-01
 1.640271063979e-01
 1.752250857225e-01
 1.709439214067e-01
 1.656523549371e-01
 1.604121471994e-01
 1.554167371799e-01
 1.506074377603e-01
 1.460936536875e-01
 1.418467668661e-01
 1.378856464513e-01
 1.342378366308e-01
 1.309293082054e-01
 1.279184152346e-01
 1.251981758250e-01
 1.228805653537e-01
 1.206136009955e-01
 1.188200679102e-01
 1.171683301379e-01
 1.157756379310e-01
 1.144612104435e-01
 1.135102889305e-01
 1.126571761155e-01
 1.118517447705e-01
 1.112711265444e-01
 1.106987883344e-01
 1.103003470077e-01
 1.099811679733e-01
 1.096586192487e-01
 1.094663998811e-01
 1.092764591751e-01
 1.090871318057e-01
 1.090432614435e-01
 1.089108110169e-01
 1.088193556929e-01
 1.088409390810e-01
 1.087383963305e-01
 1.086753631828e-01
 1.087493225227e-01
 1.086580961370e-01
 1.086758158531e-01
 1.086678406777e-01
 1.086703045616e-01
 1.086359566803e-01
 1.086748637184e-01
 1.086469349267e-01
 1.085936746074e-01
 1.087027576973e-01
 1.086056010820e-01
 1.086522797232e-01
 1.086303998036e-01
 1.086745893533e-01
 1.086070644163e-01
 1.086457848788e-01
 1.086544424800e-01
 1.086381502286e-01
 1.086324721234e-01
 1.086293539106e-01
 1.086356183761e-01
 1.086314635687e-01
 1.087197112925e-01
 1.085456679917e-01
 1.086059244525e-01
 1.087345236359e-01
SCALARS Cl double 1
LOOKUP_TABLE default
 1.276223688454e+00
 1.276206781169e+00
 1.276195468804e+00
 1.276175697221e+00
 1.276142845620e+00
 1.276090295676e+00
 1.276008757020e+00
 1.275885432967e+00
 1.275703011849e+00
 1.275438476285e+00
 1.275061733399e+00
 1.274534082196e+00
 1.273806554344e+00
 1.272818183215e+00
 1.271494265732e+00
 1.269744711038e+00
 1.267462720995e+00
 1.264517411743e+00
 1.260775397790e+00
 1.256074860507e+00
 1.250235834175e+00
 1.243065051416e+00
 1.234357600246e+00
 1.223900907268e+00
 1.211480107952e+00
 1.196884415547e+00
 1.179914365457e+00
 1.160389797892e+00
 1.138158048062e+00
 1.113102165072e+00
 1.085148651697e+00
 1.054274313714e+00
 1.020511737202e+00
 9.839531404821e-01
 9.447521381023e-01
 9.031232338231e-01
 8.593390789344e-01
 8.137251971792e-01
 7.666523867665e-01
 7.185285439573e-01
 6.697870793236e-01
 6.208745990442e-01
 5.722395132750e-01
 5.243195850211e-01
 4.775303444036e-01
 4.322545865345e-01
 3.888334519604e-01
 3.475593416622e-01
 3.086709214468e-01
 2.723502898116e-01
 2.387222888001e-01
 2.078558153128e-01
 1.797669180067e-01
 1.544233949021e-01
 1.317505026819e-01
 1.116375082480e-01
 9.394461765120e-02
 7.851003110748e-02
 6.515677314443e-02
 5.369908739960e-02
 4.394817159264e-02
 3.571714606729e-02
 2.882517566901e-02
 2.310071388596e-02
 1.838390487398e-02
 1.452819111646e-02
 1.140121538714e-02
 8.885117141909e-03
 6.876329104168e-03
 5.284985370055e-03
 4.034043980292e-03
 3.058217200308e-03
 2.302793121040e-03
 1.722415577714e-03
 1.279876690686e-03
 9.449633033610e-04
 6.933852069820e-04
 5.058030774600e-04
 3.669654417902e-04
 2.649563531574e-04
 1.905508455936e-04
 1.366712353035e-04
 9.793518083838e-05
 7.028510696710e-05
 5.068829275134e-05
 3.689712548239e-05
 2.725969762891e-05
 2.057189063415e-05
 1.596310233809e-05
 1.280891132577e-05
 1.066500787122e-05
 9.217716379067e-06
 8.247300561639e-06
 7.601009941778e-06
 7.173465956973e-06
 6.892522764626e-06
 6.709179869688e-06
 6.590503414434e-06
 6.514912726843e-06
 6.469872566774e-06
 6.453958101914e-06
SCALARS H double 1
LOOKUP_TABLE default
 3.542055048911e+04
 3.542024803700e+04
 3.542024804487e+04
 3.542024806314e+04
 3.542024810304e+04
 3.542024818160e+04
 3.542024832178e+04
 3.542024855729e+04
 3.542024894119e+04
 3.542024955809e+04
 3.542025055050e+04
 3.542025215442e+04
 3.542025479117e+04
 3.542025925293e+04
 3.542026689534e+04
 3.542027912603e+04
 3.542029652780e+04
 3.542014127708e+04
 3.542006551280e+04
 3.542005638258e+04
 3.542005785934e+04
 3.542006151781e+04
 3.542006640968e+04
 3.542007202600e+04
 3.542007869755e+04
 3.542008681560e+04
 3.542009589765e+04
 3.542010651947e+04
 3.542011868308e+04
 3.542013236754e+04
 3.542014758026e+04
 3.542016471698e+04
 3.542018324966e+04
 3.542020324602e+04
 3.542022497073e+04
 3.542024743056e+04
 3.542027151573e+04
 3.542029717295e+04
 3.542030907990e+04
 3.542032825922e+04
 3.542036144358e+04
 3.542039593509e+04
 3.542043062917e+04
 3.542046467095e+04
 3.542049815899e+04
 3.542053050009e+04
 3.542056166291e+04
 3.542059142212e+04
 3.542061953433e+04
 3.542064575608e+04
 3.542067015145e+04
 3.542069264559e+04
 3.542071271370e+04