# vtk DataFile Version 3.0
Unstructured Grid from OpenGeoSys
ASCII
DATASET UNSTRUCTURED_GRID
FIELD TimesAndCycles 2
TIME 1 1 double
2.100000000000e+04
CYLCE 1 1 long
210
POINTS 101 double
0.000000000000e+00 0.000000000000e+00 0.000000000000e+00
5.000000000000e-03 0.000000000000e+00 0.000000000000e+00
1.000000000000e-02 0.000000000000e+00 0.000000000000e+00
1.500000000000e-02 0.000000000000e+00 0.000000000000e+00
2.000000000000e-02 0.000000000000e+00 0.000000000000e+00
2.500000000000e-02 0.000000000000e+00 0.000000000000e+00
3.000000000000e-02 0.000000000000e+00 0.000000000000e+00
3.500000000000e-02 0.000000000000e+00 0.000000000000e+00
4.000000000000e-02 0.000000000000e+00 0.000000000000e+00
4.500000000000e-02 0.000000000000e+00 0.000000000000e+00
5.000000000000e-02 0.000000000000e+00 0.000000000000e+00
5.500000000000e-02 0.000000000000e+00 0.000000000000e+00
6.000000000000e-02 0.000000000000e+00 0.000000000000e+00
6.500000000000e-02 0.000000000000e+00 0.000000000000e+00
7.000000000000e-02 0.000000000000e+00 0.000000000000e+00
7.500000000000e-02 0.000000000000e+00 0.000000000000e+00
8.000000000000e-02 0.000000000000e+00 0.000000000000e+00
8.500000000000e-02 0.000000000000e+00 0.000000000000e+00
9.000000000000e-02 0.000000000000e+00 0.000000000000e+00
9.500000000000e-02 0.000000000000e+00 0.000000000000e+00
1.000000000000e-01 0.000000000000e+00 0.000000000000e+00
1.050000000000e-01 0.000000000000e+00 0.000000000000e+00
1.100000000000e-01 0.000000000000e+00 0.000000000000e+00
1.150000000000e-01 0.000000000000e+00 0.000000000000e+00
1.200000000000e-01 0.000000000000e+00 0.000000000000e+00
1.250000000000e-01 0.000000000000e+00 0.000000000000e+00
1.300000000000e-01 0.000000000000e+00 0.000000000000e+00
1.350000000000e-01 0.000000000000e+00 0.000000000000e+00
1.400000000000e-01 0.000000000000e+00 0.000000000000e+00
1.450000000000e-01 0.000000000000e+00 0.000000000000e+00
1.500000000000e-01 0.000000000000e+00 0.000000000000e+00
1.550000000000e-01 0.000000000000e+00 0.000000000000e+00
1.600000000000e-01 0.000000000000e+00 0.000000000000e+00
1.650000000000e-01 0.000000000000e+00 0.000000000000e+00
1.700000000000e-01 0.000000000000e+00 0.000000000000e+00
1.750000000000e-01 0.000000000000e+00 0.000000000000e+00
1.800000000000e-01 0.000000000000e+00 0.000000000000e+00
1.850000000000e-01 0.000000000000e+00 0.000000000000e+00
1.900000000000e-01 0.000000000000e+00 0.000000000000e+00
1.950000000000e-01 0.000000000000e+00 0.000000000000e+00
2.000000000000e-01 0.000000000000e+00 0.000000000000e+00
2.050000000000e-01 0.000000000000e+00 0.000000000000e+00
2.100000000000e-01 0.000000000000e+00 0.000000000000e+00
2.150000000000e-01 0.000000000000e+00 0.000000000000e+00
2.200000000000e-01 0.000000000000e+00 0.000000000000e+00
2.250000000000e-01 0.000000000000e+00 0.000000000000e+00
2.300000000000e-01 0.000000000000e+00 0.000000000000e+00
2.350000000000e-01 0.000000000000e+00 0.000000000000e+00
2.400000000000e-01 0.000000000000e+00 0.000000000000e+00
2.450000000000e-01 0.000000000000e+00 0.000000000000e+00
2.500000000000e-01 0.000000000000e+00 0.000000000000e+00
2.550000000000e-01 0.000000000000e+00 0.000000000000e+00
2.600000000000e-01 0.000000000000e+00 0.000000000000e+00
2.650000000000e-01 0.000000000000e+00 0.000000000000e+00
2.700000000000e-01 0.000000000000e+00 0.000000000000e+00
2.750000000000e-01 0.000000000000e+00 0.000000000000e+00
2.800000000000e-01 0.000000000000e+00 0.000000000000e+00
2.850000000000e-01 0.000000000000e+00 0.000000000000e+00
2.900000000000e-01 0.000000000000e+00 0.000000000000e+00
2.950000000000e-01 0.000000000000e+00 0.000000000000e+00
3.000000000000e-01 0.000000000000e+00 0.000000000000e+00
3.050000000000e-01 0.000000000000e+00 0.000000000000e+00
3.100000000000e-01 0.000000000000e+00 0.000000000000e+00
3.150000000000e-01 0.000000000000e+00 0.000000000000e+00
3.200000000000e-01 0.000000000000e+00 0.000000000000e+00
3.250000000000e-01 0.000000000000e+00 0.000000000000e+00
3.300000000000e-01 0.000000000000e+00 0.000000000000e+00
3.350000000000e-01 0.000000000000e+00 0.000000000000e+00
3.400000000000e-01 0.000000000000e+00 0.000000000000e+00
3.450000000000e-01 0.000000000000e+00 0.000000000000e+00
3.500000000000e-01 0.000000000000e+00 0.000000000000e+00
3.550000000000e-01 0.000000000000e+00 0.000000000000e+00
3.600000000000e-01 0.000000000000e+00 0.000000000000e+00
3.650000000000e-01 0.000000000000e+00 0.000000000000e+00
3.700000000000e-01 0.000000000000e+00 0.000000000000e+00
3.750000000000e-01 0.000000000000e+00 0.000000000000e+00
3.800000000000e-01 0.000000000000e+00 0.000000000000e+00
3.850000000000e-01 0.000000000000e+00 0.000000000000e+00
3.900000000000e-01 0.000000000000e+00 0.000000000000e+00
3.950000000000e-01 0.000000000000e+00 0.000000000000e+00
4.000000000000e-01 0.000000000000e+00 0.000000000000e+00
4.050000000000e-01 0.000000000000e+00 0.000000000000e+00
4.100000000000e-01 0.000000000000e+00 0.000000000000e+00
4.150000000000e-01 0.000000000000e+00 0.000000000000e+00
4.200000000000e-01 0.000000000000e+00 0.000000000000e+00
4.250000000000e-01 0.000000000000e+00 0.000000000000e+00
4.300000000000e-01 0.000000000000e+00 0.000000000000e+00
4.350000000000e-01 0.000000000000e+00 0.000000000000e+00
4.400000000000e-01 0.000000000000e+00 0.000000000000e+00
4.450000000000e-01 0.000000000000e+00 0.000000000000e+00
4.500000000000e-01 0.000000000000e+00 0.000000000000e+00
4.550000000000e-01 0.000000000000e+00 0.000000000000e+00
4.600000000000e-01 0.000000000000e+00 0.000000000000e+00
4.650000000000e-01 0.000000000000e+00 0.000000000000e+00
4.700000000000e-01 0.000000000000e+00 0.000000000000e+00
4.750000000000e-01 0.000000000000e+00 0.000000000000e+00
4.800000000000e-01 0.000000000000e+00 0.000000000000e+00
4.850000000000e-01 0.000000000000e+00 0.000000000000e+00
4.900000000000e-01 0.000000000000e+00 0.000000000000e+00
4.950000000000e-01 0.000000000000e+00 0.000000000000e+00
5.000000000000e-01 0.000000000000e+00 0.000000000000e+00
CELLS 100 300
2 0 1
2 2 3
2 4 5
2 6 7
2 8 9
2 10 11
2 12 13
2 14 15
2 16 17
2 18 19
2 20 21
2 22 23
2 24 25
2 26 27
2 28 29
2 30 31
2 32 33
2 34 35
2 36 37
2 38 39
2 40 41
2 42 43
2 44 45
2 46 47
2 48 49
2 50 51
2 52 53
2 54 55
2 56 57
2 58 59
2 60 61
2 62 63
2 64 65
2 66 67
2 68 69
2 70 71
2 72 73
2 74 75
2 76 77
2 78 79
2 80 81
2 82 83
2 84 85
2 86 87
2 88 89
2 90 91
2 92 93
2 94 95
2 96 97
2 98 99
2 1 2
2 3 4
2 5 6
2 7 8
2 9 10
2 11 12
2 13 14
2 15 16
2 17 18
2 19 20
2 21 22
2 23 24
2 25 26
2 27 28
2 29 30
2 31 32
2 33 34
2 35 36
2 37 38
2 39 40
2 41 42
2 43 44
2 45 46
2 47 48
2 49 50
2 51 52
2 53 54
2 55 56
2 57 58
2 59 60
2 61 62
2 63 64
2 65 66
2 67 68
2 69 70
2 71 72
2 73 74
2 75 76
2 77 78
2 79 80
2 81 82
2 83 84
2 85 86
2 87 88
2 89 90
2 91 92
2 93 94
2 95 96
2 97 98
2 99 100

CELL_TYPES 100
3
3
3
3
3
3
3
3
3
3
3
3
3
3
3
3
3
3
3
3
3
3
3
3
3
3
3
3
3
3
3
3
3
3
3
3
3
3
3
3
3
3
3
3
3
3
3
3
3
3
3
3
3
3
3
3
3
3
3
3
3
3
3
3
3
3
3
3
3
3
3
3
3
3
3
3
3
3
3
3
3
3
3
3
3
3
3
3
3
3
3
3
3
3
3
3
3
3
3
3

POINT_DATA 101
SCALARS 1-C double 1
LOOKUP_TABLE default
9.970358361137e-06
2.733742976212e-05
6.092365171618e-05
1.222076834345e-04
2.299815926805e-04
4.148002510779e-04
7.261098363209e-04
1.243660819162e-03
2.095576892550e-03
3.486294546043e-03
5.739585920695e-03
9.372183906122e-03
1.525090789664e-02
2.490909708613e-02
4.069671829939e-02
6.447709435403e-02
9.624286563729e-02
1.432114506397e-01
1.426734875775e-01
1.419707351764e-01
1.411024913369e-01
1.400194496989e-01
1.386991307120e-01
1.371019531919e-01
1.352267017838e-01
1.330252879482e-01
1.305173945734e-01
1.277056371855e-01
1.246021529269e-01
1.212509720408e-01
1.177093752476e-01
1.140376230550e-01
1.103161988933e-01
1.066328755650e-01
1.030613626401e-01
9.966624545334e-02
9.663592692948e-02
9.426516229084e-02
9.201163486448e-02
9.392180246016e-02
9.569959292485e-02
9.722740553597e-02
9.881297589834e-02
1.004530047764e-01
1.021280315366e-01
1.038266731351e-01
1.055229874978e-01
1.071965303869e-01
1.088373095395e-01
1.104170106164e-01
1.119207080034e-01
1.133291098506e-01
1.146254693448e-01
1.158157711765e-01
1.168778425499e-01
1.178145236450e-01
1.186331949096e-01
1.193354198100e-01
1.199336561573e-01
1.204366658740e-01
1.208568798562e-01
1.211884172919e-01
1.214550800889e-01
1.216760240307e-01
1.218443892557e-01
1.219725328285e-01
1.220815128377e-01
1.221583858835e-01
1.222206987094e-01
1.222767238749e-01
1.222915577745e-01
1.223216831970e-01
1.223535259897e-01
1.223623522372e-01
1.223725854114e-01
1.223767754107e-01
1.223824147564e-01
1.223795553402e-01
1.223883365017e-01
1.223917065605e-01
1.223807780449e-01
1.223957191584e-01
1.223840569643e-01
1.223920152629e-01
1.223903674489e-01
1.223849638868e-01
1.223936661332e-01
1.223939173209e-01
1.223942097183e-01
1.223949127549e-01
1.223939482770e-01
1.223925088940e-01
1.223921506746e-01
1.223913494867e-01
1.223942269757e-01
1.223978159552e-01
1.223867923571e-01
1.224011568555e-01
1.223921590595e-01
1.223991283610e-01
1.223987164459e-01
SCALARS 2-Ca double 1
LOOKUP_TABLE default
9.970358361137e-06
2.006483017815e-05
3.952003339067e-05
7.483236420639e-05
1.365181812329e-04
2.414798137397e-04
4.167542375724e-04
7.054562278153e-04
1.176111509190e-03
1.936997384946e-03
3.158107181727e-03
5.108507357502e-03
8.235544577070e-03
1.332381237577e-02
2.157106455876e-02
3.393754899338e-02
5.045506550842e-02
7.477587499350e-02
7.559819135778e-02
7.665648168397e-02
7.802609557488e-02
7.977166886979e-02
8.198636069462e-02
8.477145192169e-02
8.826568431088e-02
9.260429937625e-02
9.797809360493e-02
1.045928407064e-01
1.126845731153e-01
1.225329519473e-01
1.344546264603e-01
1.488015329501e-01
1.659694578474e-01
1.863870630981e-01
2.105813363756e-01
2.392993021912e-01
2.723695792601e-01
3.072223946818e-01
3.536381619630e-01
3.336524443360e-01
3.151250251771e-01
2.986628393680e-01
2.826053425767e-01
2.671105685532e-01
2.523206020498e-01
2.383394447889e-01
2.252325890873e-01
2.130511233907e-01
2.018357102314e-01
1.915876459088e-01
1.823016034101e-01
1.739496318377e-01
1.664902291291e-01
1.598909290423e-01
1.540799395940e-01
1.490018704642e-01
1.445997551441e-01
1.408070439951e-01
1.375664527336e-01
1.348172453139e-01
1.325041759870e-01
1.305567762261e-01
1.289383099876e-01
1.276121151627e-01
1.265206405094e-01
1.256308544864e-01
1.249237130024e-01
1.243512868028e-01
1.239009669876e-01
1.235553335377e-01
1.232578361292e-01
1.230469157305e-01
1.228941178693e-01
1.227625604475e-01
1.226668474623e-01
1.225916684500e-01
1.225382834018e-01
1.224918482694e-01
1.224686914462e-01
1.224488214073e-01
1.224211027919e-01
1.224239999027e-01
1.224037592757e-01
1.224056504647e-01
1.223997416688e-01
1.223913663818e-01
1.223980103900e-01
1.223968458237e-01
1.223961710527e-01
1.223962178605e-01
1.223948111364e-01
1.223930757164e-01
1.223925206556e-01
1.223915894529e-01
1.223943816342e-01
1.223979150095e-01
1.223868554137e-01
1.224011967931e-01
1.223921843806e-01
1.223991450269e-01
1.223987300641e-01
SCALARS 3-Cl double 1
LOOKUP_TABLE default
3.988143344455e+00
3.988124564205e+00
3.988089213258e+00
3.988027427396e+00
3.987924766697e+00
3.987760549011e+00
3.987505742092e+00
3.987120356484e+00
3.986550293459e+00
3.985723624541e+00
3.984546309329e+00
3.982897408208e+00
3.980623895965e+00
3.977535252937e+00
3.973398033301e+00
3.967930704018e+00
3.960799524041e+00
3.951615811501e+00
3.939930668173e+00
3.925242745722e+00
3.906995921434e+00
3.884587182349e+00
3.857376294467e+00
3.824699031498e+00
3.785883917469e+00
3.740272210692e+00
3.687240647124e+00
3.626226175459e+00
3.556751726499e+00
3.478451838311e+00
3.391096835707e+00
3.294614201790e+00
3.189105819075e+00
3.074859860041e+00
2.952356338745e+00
2.822265653116e+00
2.685439765915e+00
2.542895973540e+00
2.395793946134e+00
2.245407576226e+00
2.093090191011e+00
1.940238280887e+00
1.788253213591e+00
1.638503033495e+00
1.492286255742e+00
1.350799132835e+00
1.215107722102e+00
1.086125780350e+00
9.645991425379e-01
8.510968696567e-01
7.460090893076e-01
6.495511051317e-01
5.617730774025e-01
4.825743531061e-01
4.117213850920e-01
3.488681136424e-01
2.935776879681e-01
2.453444773574e-01
2.036154407057e-01
1.678100808783e-01
1.373383891981e-01
1.116163686813e-01
9.007890512122e-02
7.218991633236e-02
5.744985041255e-02
4.540071367664e-02
3.562888955472e-02
2.776606228161e-02
2.148858342249e-02
1.651562163221e-02
1.260641967142e-02
9.556953154413e-03
7.196246937244e-03
5.382562420988e-03
3.999624847598e-03
2.953017872548e-03
2.166834289412e-03
1.580638645806e-03
1.146769926619e-03
8.279907124705e-04
5.954729059363e-04
4.270986970308e-04
3.060482172541e-04
2.196415155516e-04
1.584013179687e-04
1.153038096430e-04
8.518677184610e-05
6.428732188566e-05
4.988482222751e-05
4.002795008551e-05
3.332823505168e-05
2.880543775018e-05
2.577288065103e-05
2.375321736881e-05
2.241713906534e-05
2.153918938854e-05
2.096624140088e-05
2.059537675207e-05
2.035915485620e-05
2.021840414885e-05
2.016867161914e-05
SCALARS 4-H double 1
LOOKUP_TABLE default
2.701109245634e-04
2.915472911423e-04
3.274461256403e-04
4.066699377672e-04
5.743799649970e-04
9.016753427080e-04
1.490632245939e-03
2.493396626226e-03
4.147158822601e-03
6.817739494565e-03
1.105124955051e-02
1.763946177126e-02
2.775660011781e-02
4.316318410541e-02
6.584018220090e-02
9.585051711293e-02
1.305902160625e-01
1.746905088793e-01
1.742190259069e-01
1.736013862446e-01
1.728361183069e-01
1.718777453155e-01
1.707039713066e-01
1.692761091111e-01
1.675886314307e-01
1.655923262795e-01
1.632974121247e-01
1.606974747621e-01
1.577947489682e-01
1.546135723814e-01
1.512079447570e-01
1.476245092492e-01
1.439141344558e-01
1.401531106223e-01
1.364194788105e-01
1.328002336241e-01
1.294341897679e-01
1.267075914036e-01
1.239431094854e-01
1.262891670175e-01
1.284887944915e-01
1.304434504813e-01
1.325066926418e-01
1.346205146222e-01
1.368202162772e-01
1.390358980825e-01
1.412777031967e-01
1.435199100965e-01
1.457284249203e-01
1.478651973971e-01
1.499410686315e-01
1.518957894591e-01
1.537490714378e-01
1.554623792609e-01
1.570105992887e-01
1.584095426933e-01
1.596560027279e-01
1.607489594276e-01
1.616995202609e-01
1.625152631620e-01
1.632128430110e-01
1.637910718252e-01
1.642593005137e-01
1.646436583636e-01
1.649595583399e-01
1.652155629125e-01
1.654289172444e-01
1.655819707752e-01
1.656958426671e-01
1.658137221984e-01
1.658742271477e-01
1.659331970821e-01
1.659916370054e-01
1.660061234254e-01
1.660315082803e-01
1.660510369566e-01
1.660617516385e-01
1.660845407207e-01
1.660909175834e-01
1.660827249766e-01
1.660898030264e-01
1.660885187184e-01
1.660974039346e-01
1.660906358752e-01
1.660924921995e-01
1.660930644194e-01
1.660893651300e-01
1.661056810493e-01
1.661093115776e-01
1.661126044493e-01
1.661158192670e-01
1.661132280409e-01
1.660962156669e-01
1.660908642697e-01
1.661143649264e-01
1.661110335394e-01
1.661020411072e-01
1.661001498590e-01
1.660933302924e-01
1.660955369046e-01
1.660991383605e-01
SCALARS 5-Mg double 1
LOOKUP_TABLE default
1.994071672227e+00
1.994069554702e+00
1.994066010247e+00
1.994061089017e+00
1.994055846760e+00
1.994053594943e+00
1.994062226645e+00
1.994098382834e+00
1.994194612113e+00
1.994411109431e+00
1.994854633403e+00
1.995712380652e+00
1.997327311302e+00
2.000352911179e+00
2.005824670391e+00
2.014504897369e+00
2.026187562149e+00
2.044243481397e+00
2.037040630306e+00
2.027935626353e+00
2.016574356479e+00
2.002541372003e+00
1.985400917251e+00
1.964680017019e+00
1.939902976207e+00
1.910557093918e+00
1.876159624531e+00
1.836225884208e+00
1.790293443061e+00
1.737943939249e+00
1.678803166641e+00
1.612543191000e+00
1.538899650583e+00
1.457675742488e+00
1.368658195637e+00
1.271499769820e+00
1.166986230627e+00
1.058490754379e+00
9.362704459684e-01
8.829731462370e-01
8.271196632531e-01
7.686837066117e-01
7.103342401170e-01
6.525939529707e-01
5.959505573577e-01
5.408867947636e-01
4.878442594613e-01
4.372082971714e-01
3.893011705770e-01
3.443777995360e-01
3.026236492471e-01
2.641550305787e-01
2.290217789170e-01
1.972120186871e-01
1.686585955018e-01
1.432467100019e-01
1.208222837495e-01
1.012006144935e-01
8.417492377639e-02
6.952446099919e-02
5.702189846819e-02
4.643982540637e-02
3.755622266177e-02
3.015886703401e-02
2.404867395245e-02
1.904203518037e-02
1.497224461255e-02
1.169013022142e-02
9.064023432871e-03
6.979201153183e-03
5.336931480884e-03
4.053244043616e-03
3.057531588992e-03
2.291073000132e-03
1.705550372831e-03
1.261615896828e-03
9.275484993308e-04
6.780263936519e-04
4.930300187752e-04
3.568805094322e-04
2.574117059447e-04
1.852686042760e-04
1.333217972587e-04
9.618555604432e-05
6.982643909366e-05
5.124940977453e-05
3.824912909418e-05
2.921515816699e-05
2.298107665994e-05
1.870886936862e-05
1.580125821274e-05
1.383589643438e-05
1.251645932858e-05
1.163664247646e-05
1.105391112646e-05
1.067054039011e-05
1.042006415453e-05
1.025775078500e-05
1.015425634574e-05
1.009253609991e-05
1.007071760864e-05
SCALARS 6-O double 1
LOOKUP_TABLE default
2.010568337471e-02
2.016934780917e-02
2.028964657807e-02
2.051589073024e-02
2.092768697299e-02
2.165318012979e-02
2.289305321103e-02
2.496443025874e-02
2.837271187310e-02
3.391735479566e-02
4.284696250461e-02
5.711306252122e-02
7.991011124270e-02
1.167269602036e-01
1.756144991564e-01
2.622068220028e-01
3.751948835189e-01
5.385640772192e-01
5.372402090623e-01
5.354840021957e-01
5.333176386120e-01
5.305975958454e-01
5.272740969484e-01
5.232389440368e-01
5.185159434224e-01
5.129658670662e-01
5.066809209867e-01
4.996910840300e-01
4.920553559350e-01
4.839344460301e-01
4.755375364877e-01
4.670719991753e-01
4.588001401276e-01
4.510104615199e-01
4.439415178528e-01
4.378004008245e-01
4.331833957448e-01
4.311221135899e-01
4.295987487493e-01
4.432696098907e-01
4.565570926767e-01
4.689962803897e-01
4.816240983557e-01
4.943400820028e-01
5.070450622525e-01
5.196161034964e-01
5.319324715025e-01
5.438788456222e-01
5.553746306682e-01
5.662902411241e-01
5.765687554065e-01
5.861124750794e-01
5.948787492149e-01
6.028707854474e-01
6.100200106719e-01
6.163584175242e-01
6.219261972280e-01
6.267502797355e-01
6.308984764575e-01
6.344269830129e-01
6.374079694684e-01
6.398494796174e-01
6.418530260138e-01
6.435132662681e-01
6.448398091343e-01
6.458946193990e-01
6.467681094030e-01
6.474292006144e-01
6.479556597643e-01
6.484065391154e-01
6.486572733420e-01
6.489144139553e-01
6.491454369515e-01
6.492608087551e-01
6.493664597002e-01
6.494359123057e-01
6.494935822025e-01
6.495227897809e-01
6.495718553582e-01
6.495922215737e-01
6.495734435687e-01
6.496252057698e-01
6.496001120022e-01
6.496244933684e-01
6.496232354819e-01
6.496092513489e-01
6.496348646043e-01
6.496447171237e-01
6.496480581385e-01
6.496522575486e-01
6.496512731786e-01
6.496458630546e-01
6.496364188070e-01
6.496314304840e-01
6.496518734658e-01
6.496610142655e-01
6.496234730318e-01
6.496656376660e-01
6.496352451068e-01
6.496572627075e-01
6.496578298337e-01
SCALARS 7-Sn double 1
LOOKUP_TABLE default
0.000000000000e+00
0.000000000000e+00
0.000000000000e+00
0.000000000000e+00
0.000000000000e+00
0.000000000000e+00
0.000000000000e+00
0.000000000000e+00
0.000000000000e+00
0.000000000000e+00
0.000000000000e+00
0.000000000000e+00
0.000000000000e+00
0.000000000000e+00
0.000000000000e+00
0.000000000000e+00
0.000000000000e+00
0.000000000000e+00
0.000000000000e+00
0.000000000000e+00
0.000000000000e+00
0.000000000000e+00
0.000000000000e+00
0.000000000000e+00
0.000000000000e+00
0.000000000000e+00
0.000000000000e+00
0.000000000000e+00
0.000000000000e+00
0.000000000000e+00
0.000000000000e+00
0.000000000000e+00
0.000000000000e+00
0.000000000000e+00
0.000000000000e+00
0.000000000000e+00
0.000000000000e+00
0.000000000000e+00
0.000000000000e+00
0.000000000000e+00
0.000000000000e+00
0.000000000000e+00
0.000000000000e+00
0.000000000000e+00
0.000000000000e+00
0.000000000000e+00
0.000000000000e+00
0.000000000000e+00
0.000000000000e+00
0.000000000000e+00
0.000000000000e+00
0.000000000000e+00
0.000000000000e+00
0.000000000000e+00
0.000000000000e+00
0.000000000000e+00
0.000000000000e+00
0.000000000000e+00
0.000000000000e+00
0.000000000000e+00
0.000000000000e+00
0.000000000000e+00
0.000000000000e+00
0.000000000000e+00
0.000000000000e+00
0.000000000000e+00
0.000000000000e+00
0.000000000000e+00
0.000000000000e+00
0.000000000000e+00
0.000000000000e+00
0.000000000000e+00
0.000000000000e+00
0.000000000000e+00
0.000000000000e+00
0.000000000000e+00
0.000000000000e+00
0.000000000000e+00
0.000000000000e+00
0.000000000000e+00
0.000000000000e+00
0.000000000000e+00
0.000000000000e+00
0.000000000000e+00
0.000000000000e+00
0.000000000000e+00
0.000000000000e+00
0.000000000000e+00
0.000000000000e+00
0.000000000000e+00
0.000000000000e+00
0.000000000000e+00
0.000000000000e+00
0.000000000000e+00
0.000000000000e+00
0.000000000000e+00
0.000000000000e+00
0.000000000000e+00
0.000000000000e+00
0.000000000000e+00
0.000000000000e+00
SCALARS 8-Zz double 1
LOOKUP_TABLE default
1.035722930241e-15
9.786447572447e-15
5.518920926407e-15
1.238915807281e-15
-5.618944900286e-15
3.160113527664e-16
1.532889728493e-15
-6.447032742591e-16
-9.659336320319e-16
-2.320710972548e-16
7.112600851318e-16
-9.580341842582e-17
2.793841424438e-16
5.111645410335e-16
7.067879068985e-16
1.363975603063e-16
3.711564488489e-16
-3.745239292229e-16
-1.534181434583e-16
5.798538503410e-16
-2.959349900489e-16
6.686558340273e-16
2.555822531815e-16
2.042324685829e-16
2.236107495723e-17
-1.051706156574e-16
1.794024424705e-16
1.571177994621e-16
-1.369703484661e-16
-6.833284051737e-16
1.234906519638e-16
4.184646629676e-16
3.148371233215e-16
1.269072310068e-16
-3.111594724814e-16
4.720264655350e-16
6.658728598080e-16
-1.183430758535e-16
5.114360628444e-16
-3.534885369956e-17
-4.007023982025e-17
-3.689905119270e-16
-1.528246808377e-16
4.428049744661e-17
2.171648252474e-16
4.572679234056e-16
-1.315791062191e-16
-4.813825131670e-16
1.377703862815e-16
3.773708184282e-16
5.025753909649e-17
-8.117642560918e-17
-8.242074541550e-17
-6.858188748382e-17
-3.071265652324e-17
-6.531969611232e-17
6.490490696593e-18
1.139229367755e-16
8.861319412971e-17
9.320529398877e-17
-7.711961299874e-18
-2.670198116979e-17
-4.123406803359e-18
-3.602222397966e-17
-2.615242757199e-17
-6.115899324219e-17
-2.994075555346e-17
4.641817941949e-17
2.389256615169e-17
1.923892057462e-17
2.861805516747e-19
-9.831167998987e-18
-9.750034859759e-18
-2.594532476929e-17
4.633352011993e-17
-6.178066269673e-18
1.410420985355e-17
4.229861944693e-18
-1.230951901761e-17
-4.574014349769e-17
2.702848809872e-17
-1.003917375646e-17
-4.759035368120e-17
-1.448702036812e-17
-1.480439404049e-17
6.666351353760e-18
9.962669882079e-18
3.686114287648e-17
-5.112090477602e-17
-3.166288097522e-18
-1.686299335454e-17
-8.903280702882e-18
1.590595160446e-17
-4.355333796919e-17
2.009300144594e-17
-3.320014706901e-17
-1.121672931942e-17
-4.617516278258e-18
-4.383620651707e-18
-8.248925257962e-17
2.088613683546e-17
SCALARS C double 1
LOOKUP_TABLE default
 3.190559220786e-06
 8.748024962731e-06
 1.949567427046e-05
 3.910667076697e-05
 7.359450874659e-05
 1.327368001510e-04
 2.323564076466e-04
 3.979736202661e-04
 6.705882420867e-04
 1.115620304527e-03
 1.836677454570e-03
 2.999115113581e-03
 4.880316991942e-03
 7.970954292508e-03
 1.302302047713e-02
 2.063278208088e-02
 3.079788401491e-02
 9.696295283812e-02
 1.185807900411e-01
 1.216642876416e-01
 1.217862949981e-01
 1.214719304213e-01
 1.209572813104e-01
 1.203898173903e-01
 1.196611327002e-01
 1.188510486505e-01
 1.179687748608e-01
 1.168258810337e-01
 1.156420556974e-01
 1.143532802243e-01
 1.129694499503e-01
 1.114133577012e-01
 1.100073324574e-01
 1.083155187948e-01
 1.068373791557e-01
 1.053220391900e-01
 1.038974826300e-01
 1.025910845424e-01
 1.006949830161e-01
 1.001319019114e-01
 1.006890336596e-01
 1.011364715368e-01
 1.016402155145e-01
 1.020869951456e-01
 1.025676300519e-01
 1.030201470132e-01
 1.035978529408e-01
 1.038688702553e-01
 1.045520761266e-01
 1.049679306878e-01
 1.054014434785e-01
 1.058195597317e-01
 1.062332060536e-01
 1.065262281350e-01
 1.069178246075e-01
 1.072108272888e-01
 1.074290416238e-01
 1.076320227009e-01
 1.078480486262e-01
 1.080236704951e-01
 1.081877561206e-01
 1.081592128780e-01
 1.083803940820e-01
 1.084116657319e-01
 1.084521903755e-01
 1.085480014287e-01
 1.085189835442e-01
 1.085435997767e-01
 1.086286712478e-01
 1.085540854023e-01
 1.086228653858e-01
 1.086555460269e-01
 1.085711744922e-01
 1.086129716291e-01
 1.086718097183e-01
 1.085889595926e-01
 1.086518237709e-01
 1.086613863075e-01
 1.086353253416e-01
 1.086402881046e-01
 1.086262518600e-01
 1.086306606838e-01
 1.086588609465e-01
 1.086476211108e-01
 1.085863561634e-01
 1.087156088424e-01
 1.086163374418e-01
 1.086387845961e-01
 1.086138626987e-01
 1.086551853450e-01
 1.086439789375e-01
 1.086304331803e-01
 1.086182425215e-01
 1.086769066124e-01
 1.086376518856e-01
 1.086072888274e-01
 1.086484474896e-01
 1.087138145509e-01
 1.084394072074e-01
 1.087827235815e-01
 1.085789432814e-01
SCALARS Ca double 1
LOOKUP_TABLE default
 3.190559220786e-06
 6.420780475661e-06
 1.264647926443e-05
 2.394648640322e-05
 4.368605489556e-05
 7.727395943847e-05
 1.333620792200e-04
 2.257472170845e-04
 3.763577238560e-04
 6.198425244691e-04
 1.010599778440e-03
 1.634731219233e-03
 2.635388555866e-03
 4.263643081159e-03
 6.902778091237e-03
 1.086007456997e-02
 1.614570851775e-02
 4.949592459680e-02
 6.065405563241e-02
 6.264689625371e-02
 6.328509399817e-02
 6.385978014217e-02
 6.452240593894e-02
 6.538544898818e-02
 6.643929809135e-02
 6.777483525164e-02
 6.945457075780e-02
 7.144971865844e-02
 7.394371130277e-02
 7.698698605162e-02
 8.067665331013e-02
 8.507708758851e-02
 9.046322668894e-02
 9.674027255826e-02
 1.043147969985e-01
 1.132900778995e-01
 1.236451207812e-01
 1.345241274705e-01
 1.640289555521e-01
 1.752942611537e-01
 1.709049849241e-01
 1.655956389514e-01
 1.604536164781e-01
 1.554172742395e-01
 1.506291255698e-01
 1.460641206118e-01
 1.419048244367e-01
 1.377422517290e-01
 1.343114862399e-01
 1.309424660759e-01
 1.279232712536e-01
 1.252180762336e-01
 1.228298859517e-01
 1.206302420555e-01
 1.188224647008e-01
 1.171907523235e-01
 1.157383193370e-01
 1.145029246280e-01
 1.134905288870e-01
 1.126254439654e-01
 1.119148811906e-01
 1.111570799880e-01
 1.107750214224e-01
 1.103112099631e-01
 1.099485868945e-01
 1.097186613146e-01
 1.094284852383e-01
 1.092453262510e-01
 1.091663556984e-01
 1.089632394346e-01
 1.089320736561e-01
 1.088876198341e-01
 1.087441634458e-01
 1.087410379242e-01
 1.087659733298e-01
 1.086577251871e-01
 1.087017016078e-01
 1.086973199515e-01
 1.086610388571e-01
 1.086585648081e-01
 1.086391557456e-01
 1.086397104984e-01
 1.086651656698e-01
 1.086519843640e-01
 1.085893559060e-01
 1.087176576354e-01
 1.086177276004e-01
 1.086397217146e-01
 1.086144903241e-01
 1.086556029777e-01
 1.086442550517e-01
 1.086306145630e-01
 1.086183609152e-01
 1.086769834014e-01
 1.086377013762e-01
 1.086073205247e-01
 1.086484676676e-01
 1.087138273309e-01
 1.084394153102e-01
 1.087827289146e-01
 1.085789476393e-01
SCALARS Cl double 1
LOOKUP_TABLE default
 1.276223688314e+00
 1.276206781169e+00
 1.276195468804e+00
 1.276175697221e+00
 1.276142845619e+00
 1.276090295675e+00
 1.276008757019e+00
 1.275885432955e+00
 1.275703011798e+00
 1.275438476310e+00
 1.275061733399e+00
 1.274534082179e+00
 1.273806554316e+00
 1.272818183187e+00
 1.271494265724e+00
 1.269744710866e+00
 1.267462720899e+00
 1.264517411403e+00
 1.260775400512e+00
 1.256074856232e+00
 1.250235835285e+00
 1.243065051151e+00
 1.234357598417e+00
 1.223900905061e+00
 1.211480112511e+00
 1.196884412087e+00
 1.179914359428e+00
 1.160389800692e+00
 1.138158048206e+00
 1.113102163351e+00
 1.085148650766e+00
 1.054274314822e+00
 1.020511725852e+00
 9.839531462896e-01
 9.447521313777e-01
 9.031232345371e-01
 8.593390759861e-01
 8.137251948053e-01
 7.666523783589e-01
 7.185285422609e-01
 6.697870768016e-01
 6.208745988367e-01
 5.722395068738e-01
 5.243195813751e-01
 4.775303395283e-01
 4.322545844229e-01
 3.888334457463e-01
 3.475593438338e-01
 3.086709154579e-01
 2.723502862830e-01
 2.387222857987e-01
 2.078558121684e-01
 1.797669164925e-01
 1.544233923014e-01
 1.317505005811e-01
 1.116375061126e-01
 9.394461637209e-02
 7.851002922490e-02
 6.515677192842e-02
 5.369908642825e-02
 4.394817026281e-02
 3.571714565599e-02
 2.882517467923e-02
 2.310071325832e-02
 1.838390443686e-02
 1.452819059272e-02
 1.140121509018e-02
 8.885116887890e-03
 6.876328810774e-03
 5.284985233192e-03
 4.034043816100e-03
 3.058217057313e-03
 2.302793057236e-03
 1.722415507073e-03
 1.279876623249e-03
 9.449632712692e-04
 6.933851714969e-04
 5.058030521888e-04
 3.669654240798e-04
 2.649563401923e-04
 1.905508354818e-04
 1.366712284381e-04
 9.793517505448e-05
 7.028510246523e-05
 5.068829048163e-05
 3.689712297482e-05
 2.725969630483e-05
 2.057188960624e-05
 1.596310172447e-05
 1.280891075630e-05
 1.066500752766e-05
 9.217716162614e-06
 8.247300420343e-06
 7.601009794386e-06
 7.173465882209e-06
 6.892522739890e-06
 6.709179824432e-06
 6.590503398793e-06
 6.514912793130e-06
 6.469872427945e-06
 6.453958211709e-06
SCALARS H double 1
LOOKUP_TABLE default
 3.542055048139e+04
 3.542024803700e+04
 3.542024804490e+04
 3.542024806314e+04
 3.542024810304e+04
 3.542024818160e+04
 3.542024832175e+04
 3.542024855701e+04
 3.542024894027e+04
 3.542024955862e+04
 3.542025055098e+04
 3.542025215444e+04
 3.542025479121e+04
 3.542025925300e+04
 3.542026689606e+04
 3.542027912367e+04
 3.542029652758e+04
 3.542014127109e+04
 3.542006559461e+04
 3.542005626768e+04
 3.542005789890e+04
 3.542006151943e+04
 3.542006636904e+04
 3.542007197709e+04
 3.542007884920e+04
 3.542008673533e+04
 3.542009574226e+04
 3.542010663664e+04
 3.542011872563e+04
 3.542013235688e+04
 3.542014760223e+04
 3.542016481555e+04
 3.542018292374e+04
 3.542020352521e+04
 3.542022480969e+04
 3.542024756338e+04
 3.542027151822e+04
 3.542029719977e+04
 3.542030882783e+04
 3.542032837428e+04
 3.542036149206e+04
 3.542039611710e+04
 3.542043045587e+04
 3.542046467137e+04
 3.542049806867e+04
 3.542053062279e+04
 3.542056142414e+04
 3.542059199887e+04
 3.542061922382e+04
 3.542064569465e+04
 3.542067012578e+04
 3.542069256251e+04
 3.542071290824e+04