<?xml version="1.0"?>
<!-- Time step: 5 | Time: 5.000000000000e+00 -->
<VTKFile type="UnstructuredGrid" version="0.1" byte_order="LittleEndian">
  <UnstructuredGrid>
    <Piece NumberOfPoints="2337" NumberOfCells="2240">
      <Points>
        <DataArray type="Float64" NumberOfComponents="3" format="ascii">
          0.000000000000e+00 0.000000000000e+00 0.000000000000e+00
          1.250000000000e-02 0.000000000000e+00 0.000000000000e+00
          2.500000000000e-02 0.000000000000e+00 0.000000000000e+00
          3.750000000000e-02 0.000000000000e+00 0.000000000000e+00
          5.000000000000e-02 0.000000000000e+00 0.000000000000e+00
          6.250000000000e-02 0.000000000000e+00 0.000000000000e+00
          7.500000000000e-02 0.000000000000e+00 0.000000000000e+00
          8.750000000000e-02 0.000000000000e+00 0.000000000000e+00
          1.000000000000e-01 0.000000000000e+00 0.000000000000e+00
          1.125000000000e-01 0.000000000000e+00 0.000000000000e+00
          1.250000000000e-01 0.000000000000e+00 0.000000000000e+00
          1.375000000000e-01 0.000000000000e+00 0.000000000000e+00
          1.500000000000e-01 0.000000000000e+00 0.000000000000e+00
          1.625000000000e-01 0.000000000000e+00 0.000000000000e+00
          1.750000000000e-01 0.000000000000e+00 0.000000000000e+00
          1.875000000000e-01 0.000000000000e+00 0.000000000000e+00
          2.000000000000e-01 0.000000000000e+00 0.000000000000e+00
          2.125000000000e-01 0.000000000000e+00 0.000000000000e+00
          2.250000000000e-01 0.000000000000e+00 0.000000000000e+00
          2.375000000000e-01 0.000000000000e+00 0.000000000000e+00
          2.500000000000e-01 0.000000000000e+00 0.000000000000e+00
          2.625000000000e-01 0.000000000000e+00 0.000000000000e+00
          2.750000000000e-01 0.000000000000e+00 0.000000000000e+00
          2.875000000000e-01 0.000000000000e+00 0.000000000000e+00
          3.000000000000e-01 0.000000000000e+00 0.000000000000e+00
          3.125000000000e-01 0.000000000000e+00 0.000000000000e+00
          3.250000000000e-01 0.000000000000e+00 0.000000000000e+00
          3.375000000000e-01 0.000000000000e+00 0.000000000000e+00
          3.500000000000e-01 0.000000000000e+00 0.000000000000e+00
          3.625000000000e-01 0.000000000000e+00 0.000000000000e+00
          3.750000000000e-01 0.000000000000e+00 0.000000000000e+00
          3.875000000000e-01 0.000000000000e+00 0.000000000000e+00
          4.000000000000e-01 0.000000000000e+00 0.000000000000e+00
          4.125000000000e-01 0.000000000000e+00 0.000000000000e+00
          4.250000000000e-01 0.000000000000e+00 0.000000000000e+00
          4.375000000000e-01 0.000000000000e+00 0.000000000000e+00
          4.500000000000e-01 0.000000000000e+00 0.000000000000e+00
          4.625000000000e-01 0.000000000000e+00 0.000000000000e+00
          4.750000000000e-01 0.000000000000e+00 0.000000000000e+00
          4.875000000000e-01 0.000000000000e+00 0.000000000000e+00
          5.000000000000e-01 0.000000000000e+00 0.000000000000e+00
          5.125000000000e-01 0.000000000000e+00 0.000000000000e+00
          5.250000000000e-01 0.000000000000e+00 0.000000000000e+00
          5.375000000000e-01 0.000000000000e+00 0.000000000000e+00
          5.500000000000e-01 0.000000000000e+00 0.000000000000e+00
          5.625000000000e-01 0.000000000000e+00 0.000000000000e+00
          5.750000000000e-01 0.000000000000e+00 0.000000000000e+00
          5.875000000000e-01 0.000000000000e+00 0.000000000000e+00
          6.000000000000e-01 0.000000000000e+00 0.000000000000e+00
          6.125000000000e-01 0.000000000000e+00 0.000000000000e+00
          6.250000000000e-01 0.000000000000e+00 0.000000000000e+00
          6.375000000000e-01 0.000000000000e+00 0.000000000000e+00
          6.500000000000e-01 0.000000000000e+00 0.000000000000e+00
          6.625000000000e-01 0.000000000000e+00 0.000000000000e+00
          6.750000000000e-01 0.000000000000e+00 0.000000000000e+00
          6.875000000000e-01 0.000000000000e+00 0.000000000000e+00
          7.000000000000e-01 0.000000000000e+00 0.000000000000e+00
          0.000000000000e+00 0.000000000000e+00 1.250000000000e-02
          1.250000000000e-02 0.000000000000e+00 1.250000000000e-02
          2.500000000000e-02 0.000000000000e+00 1.250000000000e-02
          3.750000000000e-02 0.000000000000e+00 1.250000000000e-02
          5.000000000000e-02 0.000000000000e+00 1.250000000000e-02
          6.250000000000e-02 0.000000000000e+00 1.250000000000e-02
          7.500000000000e-02 0.000000000000e+00 1.250000000000e-02
          8.750000000000e-02 0.000000000000e+00 1.250000000000e-02
          1.000000000000e-01 0.000000000000e+00 1.250000000000e-02
          1.125000000000e-01 0.000000000000e+00 1.250000000000e-02
          1.250000000000e-01 0.000000000000e+00 1.250000000000e-02
          1.375000000000e-01 0.000000000000e+00 1.250000000000e-02
          1.500000000000e-01 0.000000000000e+00 1.250000000000e-02
          1.625000000000e-01 0.000000000000e+00 1.250000000000e-02
          1.750000000000e-01 0.000000000000e+00 1.250000000000e-02
          1.875000000000e-01 0.000000000000e+00 1.250000000000e-02
          2.000000000000e-01 0.000000000000e+00 1.250000000000e-02
          2.125000000000e-01 0.000000000000e+00 1.250000000000e-02
          2.250000000000e-01 0.000000000000e+00 1.250000000000e-02
          2.375000000000e-01 0.000000000000e+00 1.250000000000e-02
          2.500000000000e-01 0.000000000000e+00 1.250000000000e-02
          2.625000000000e-01 0.000000000000e+00 1.250000000000e-02
          2.750000000000e-01 0.000000000000e+00 1.250000000000e-02
          2.875000000000e-01 0.000000000000e+00 1.250000000000e-02
          3.000000000000e-01 0.000000000000e+00 1.250000000000e-02
          3.125000000000e-01 0.000000000000e+00 1.250000000000e-02
          3.250000000000e-01 0.000000000000e+00 1.250000000000e-02
          3.375000000000e-01 0.000000000000e+00 1.250000000000e-02
          3.500000000000e-01 0.000000000000e+00 1.250000000000e-02
          3.625000000000e-01 0.000000000000e+00 1.250000000000e-02
          3.750000000000e-01 0.000000000000e+00 1.250000000000e-02
          3.875000000000e-01 0.000000000000e+00 1.250000000000e-02
          4.000000000000e-01 0.000000000000e+00 1.250000000000e-02
          4.125000000000e-01 0.000000000000e+00 1.250000000000e-02
          4.250000000000e-01 0.000000000000e+00 1.250000000000e-02
          4.375000000000e-01 0.000000000000e+00 1.250000000000e-02
          4.500000000000e-01 0.000000000000e+00 1.250000000000e-02
          4.625000000000e-01 0.000000000000e+00 1.250000000000e-02
          4.750000000000e-01 0.000000000000e+00 1.250000000000e-02
          4.875000000000e-01 0.000000000000e+00 1.250000000000e-02
          5.000000000000e-01 0.000000000000e+00 1.250000000000e-02
          5.125000000000e-01 0.000000000000e+00 1.250000000000e-02
          5.250000000000e-01 0.000000000000e+00 1.250000000000e-02
          5.375000000000e-01 0.000000000000e+00 1.250000000000e-02
          5.500000000000e-01 0.000000000000e+00 1.250000000000e-02
          5.625000000000e-01 0.000000000000e+00 1.250000000000e-02
          5.750000000000e-01 0.000000000000e+00 1.250000000000e-02
          5.875000000000e-01 0.000000000000e+00 1.250000000000e-02
          6.000000000000e-01 0.000000000000e+00 1.250000000000e-02
          6.125000000000e-01 0.000000000000e+00 1.250000000000e-02
          6.250000000000e-01 0.000000000000e+00 1.250000000000e-02
          6.375000000000e-01 0.000000000000e+00 1.250000000000e-02
          6.500000000000e-01 0.000000000000e+00 1.250000000000e-02
          6.625000000000e-01 0.000000000000e+00 1.250000000000e-02
          6.750000000000e-01 0.000000000000e+00 1.250000000000e-02
          6.875000000000e-01 0.000000000000e+00 1.250000000000e-02
          7.000000000000e-01 0.000000000000e+00 1.250000000000e-02
          0.000000000000e+00 0.000000000000e+00 2.500000000000e-02
          1.250000000000e-02 0.000000000000e+00 2.500000000000e-02
          2.500000000000e-02 0.000000000000e+00 2.500000000000e-02
          3.750000000000e-02 0.000000000000e+00 2.500000000000e-02
          5.000000000000e-02 0.000000000000e+00 2.500000000000e-02
          6.250000000000e-02 0.000000000000e+00 2.500000000000e-02
          7.500000000000e-02 0.000000000000e+00 2.500000000000e-02
          8.750000000000e-02 0.000000000000e+00 2.500000000000e-02
          1.000000000000e-01 0.000000000000e+00 2.500000000000e-02
          1.125000000000e-01 0.000000000000e+00 2.500000000000e-02
          1.250000000000e-01 0.000000000000e+00 2.500000000000e-02
          1.375000000000e-01 0.000000000000e+00 2.500000000000e-02
          1.500000000000e-01 0.000000000000e+00 2.500000000000e-02
          1.625000000000e-01 0.000000000000e+00 2.500000000000e-02
          1.750000000000e-01 0.000000000000e+00 2.500000000000e-02
          1.875000000000e-01 0.000000000000e+00 2.500000000000e-02
          2.000000000000e-01 0.000000000000e+00 2.500000000000e-02
          2.125000000000e-01 0.000000000000e+00 2.500000000000e-02
          2.250000000000e-01 0.000000000000e+00 2.500000000000e-02
          2.375000000000e-01 0.000000000000e+00 2.500000000000e-02
          2.500000000000e-01 0.000000000000e+00 2.500000000000e-02
          2.625000000000e-01 0.000000000000e+00 2.500000000000e-02
          2.750000000000e-01 0.000000000000e+00 2.500000000000e-02
          2.875000000000e-01 0.000000000000e+00 2.500000000000e-02
          3.000000000000e-01 0.000000000000e+00 2.500000000000e-02
          3.125000000000e-01 0.000000000000e+00 2.500000000000e-02
          3.250000000000e-01 0.000000000000e+00 2.500000000000e-02
          3.375000000000e-01 0.000000000000e+00 2.500000000000e-02
          3.500000000000e-01 0.000000000000e+00 2.500000000000e-02
          3.625000000000e-01 0.000000000000e+00 2.500000000000e-02
[...]
      <PointData Scalars="PRESSURE1">
        <DataArray type="Float64" Name="PRESSURE1" format="ascii">
          4.950924363641e+03 4.950981148864e+03 4.951155455943e+03 4.951455809468e+03 4.951886193495e+03 4.952438052077e+03 4.953087920909e+03 4.953803489051e+03 4.954552197048e+03 4.955307761937e+03 4.956051311416e+03 4.956769710713e+03 4.957452848899e+03 4.958091010212e+03 4.958672878972e+03 4.959185253631e+03 4.959616222012e+03 4.959959895546e+03 4.960219990884e+03 4.960408590480e+03 4.960541788189e+03 4.960634771184e+03 4.960699476472e+03 4.960744329527e+03 4.960775067759e+03 4.960795519108e+03 4.960808179294e+03 4.960814599882e+03 4.960815628389e+03 4.960811533445e+03 4.960802034117e+03 4.960786238775e+03 4.960762485796e+03 4.960728064915e+03 4.960678784408e+03 4.960608341750e+03 4.960507488054e+03 4.960363162772e+03 4.960158851964e+03 4.959877270203e+03 4.959505890893e+03 4.959041803927e+03 4.958493022825e+03 4.957874329907e+03 4.957201758155e+03 4.956488788262e+03 4.955746430694e+03 4.954985266433e+03 4.954218221446e+03 4.953463408809e+03 4.952745939614e+03 4.952096966932e+03 4.951547408612e+03 4.951119594451e+03 4.950821358003e+03 4.950648378754e+03 4.950592039707e+03 4.828244454656e+03 4.828298425393e+03 4.828466805356e+03 4.828763113599e+03 4.829197493939e+03 4.829762235411e+03 4.830430421499e+03 4.831163255904e+03 4.831925219567e+03 4.832689686972e+03 4.833439386718e+03 4.834162435394e+03 4.834849940325e+03 4.835493659156e+03 4.836082577172e+03 4.836602147380e+03 4.837036739223e+03 4.837378426601e+03 4.837631309656e+03 4.837810984009e+03 4.837936178461e+03 4.838023309195e+03 4.838083964493e+03 4.838126081587e+03 4.838154999657e+03 4.838174265216e+03 4.838186187776e+03 4.838192204432e+03 4.838193103223e+03 4.838189138979e+03 4.838180060070e+03 4.838165051053e+03 4.838142583763e+03 4.838110156266e+03 4.838063884270e+03 4.837997893507e+03 4.837903452735e+03 4.837767853456e+03 4.837573174629e+03 4.837299163025e+03 4.836929371472e+03 4.836460491751e+03 4.835902895370e+03 4.835275637003e+03 4.834596396505e+03 4.833878439771e+03 4.833131222092e+03 4.832364033308e+03 4.831588484003e+03 4.830821030596e+03 4.830087039849e+03 4.829420499883e+03 4.828858653627e+03 4.828427199987e+03 4.828133140626e+03 4.827966104540e+03 4.827912570738e+03 4.705460985079e+03 4.705505570010e+03 4.705648619592e+03 4.705926299982e+03 4.706368231017e+03 4.706980016466e+03 4.707709553887e+03 4.708498848285e+03 4.709298396982e+03 4.710088120356e+03 4.710855101752e+03 4.711590965206e+03 4.712290218119e+03 4.712948674904e+03 4.713561124645e+03 4.714105868478e+03 4.714556514908e+03 4.714889585226e+03 4.715117155352e+03 4.715265849147e+03 4.715367009903e+03 4.715437125583e+03 4.715486159275e+03 4.715520463121e+03 4.715544192390e+03 4.715560078547e+03 4.715569897194e+03 4.715574758534e+03 4.715575281165e+03 4.715571680953e+03 4.715563790472e+03 4.715551012761e+03 4.715532202668e+03 4.715505457868e+03 4.715467786440e+03 4.715414589006e+03 4.715338821395e+03 4.715229471937e+03 4.715068404163e+03 4.714821219512e+03 4.714459121366e+03 4.713970011099e+03 4.713381817059e+03 4.712726049389e+03 4.712028826816e+03 4.711297342739e+03 4.710536752902e+03 4.709752722629e+03 4.708953166264e+03 4.708150022544e+03 4.707361962237e+03 4.706636488175e+03 4.706029540020e+03 4.705591530955e+03 4.705316373600e+03 4.705174584716e+03 4.705130390176e+03 4.582593593233e+03 4.582620920971e+03 4.582710755798e+03 4.582897065627e+03 4.583358314925e+03 4.584061308188e+03 4.584952572864e+03 4.585827772483e+03 4.586683593095e+03 4.587510679190e+03 4.588302898572e+03 4.589056641607e+03 4.589771099159e+03 4.590448329204e+03 4.591092451449e+03 4.591715289414e+03 4.592200103635e+03 4.592523959302e+03 4.592672473134e+03 4.592764655743e+03 4.592827026920e+03 4.592870950162e+03 4.592902406258e+03 4.592924973800e+03 4.592940927507e+03 4.592951749684e+03 4.592958408954e+03 4.592961524410e+03 4.592961461117e+03 4.592958377674e+03 4.592952234926e+03 4.592942767363e+03 4.592929411775e+03 4.592911180496e+03 4.592886457265e+03 4.592852672844e+03 4.592805743588e+03 4.592738894090e+03 4.592639431439e+03 4.592478025215e+03 4.592123064792e+03 4.591591624058e+03 4.590911702926e+03 4.590216124876e+03 4.589494994556e+03 4.588745629690e+03 4.587966479582e+03 4.587158153402e+03 4.586323489474e+03 4.585467394158e+03 4.584597613766e+03 4.583715608925e+03 4.583020987096e+03 4.582565351510e+03 4.582381001177e+03 4.582292075288e+03 4.582265021583e+03 4.459675400147e+03 4.459679689335e+03 4.459692754563e+03 4.459715126299e+03 4.459756422826e+03 4.461162048985e+03 4.462203304531e+03 4.463177730085e+03 4.464098180133e+03 4.464969017250e+03 4.465790125379e+03 4.466562537836e+03 4.467290186830e+03 4.467981239569e+03 4.468651638957e+03 4.469327446421e+03 4.470227166823e+03 4.470254998511e+03 4.470273676833e+03 4.470289904963e+03 4.470304149696e+03 4.470316570164e+03 4.470327153499e+03 4.470335854460e+03 4.470342633893e+03 4.470347474160e+03 4.470350384828e+03 4.470351404279e+03 4.470350599210e+03 4.470348062712e+03 4.470343910833e+03 4.470338276637e+03 4.470331298834e+03 4.470323097576e+03 4.470313731541e+03 4.470303142349e+03 4.470291111171e+03 4.470277245915e+03 4.470260923115e+03 4.470241267569e+03 4.470210769771e+03 4.469212479748e+03 4.468464025708e+03 4.467731491468e+03 4.466990091086e+03 4.466224400384e+03 4.465426149453e+03 4.464590685456e+03 4.463715781456e+03 4.462799989887e+03 4.461837127637e+03 4.460812316563e+03 4.459428835905e+03 4.459388224708e+03 4.459366318607e+03 4.459353550027e+03 4.459349362413e+03 4.337041310817e+03 4.337045174585e+03 4.337056690991e+03 4.337075942463e+03 4.337096510471e+03 4.338350537875e+03 4.339517420194e+03 4.340577045576e+03 4.341561951800e+03 4.342477651584e+03 4.343327058251e+03 4.344114518742e+03 4.344847774151e+03 4.345539354376e+03 4.346209082425e+03 4.346899918800e+03 4.347623919871e+03 4.347637407096e+03 4.347653525585e+03 4.347668285382e+03 4.347681720568e+03 4.347693648103e+03 4.347703920377e+03 4.347712417863e+03 4.347719057920e+03 4.347723796306e+03 4.347726626444e+03 4.347727577617e+03 4.347726712654e+03 4.347724125199e+03 4.347719936453e+03 4.347714290773e+03 4.347707348160e+03 4.347699268958e+03 4.347690172412e+03 4.347680070132e+03 4.347668809703e+03 4.347656089489e+03 4.347641580406e+03 4.347624815700e+03 4.347609987637e+03 4.346784904173e+03 4.346003758922e+03 4.345260119493e+03 4.344511114180e+03 4.343736854040e+03 4.342923890485e+03 4.342063102588e+03 4.341148437205e+03 4.340174999478e+03 4.339135075923e+03 4.337994022392e+03 4.336769260853e+03 4.336749185553e+03 4.336730398370e+03 4.336719180967e+03 4.336715420509e+03 4.214399473982e+03 4.214402942284e+03 4.214413134558e+03 4.214428763843e+03 4.214448136156e+03 4.215705316252e+03 4.216915143585e+03 4.218048234666e+03 4.219094399614e+03 4.220053355495e+03 4.220927124750e+03 4.221722134968e+03 4.222449207769e+03 4.223123013115e+03 4.223762692190e+03 4.224387355973e+03 4.225010047741e+03 4.225021429797e+03 4.225034491608e+03 4.225048010492e+03 4.225060803308e+03 4.225072392436e+03 4.225082474777e+03 4.225090851715e+03 4.225097396260e+03 4.225102038703e+03 4.225104758243e+03 4.225105577413e+03 4.225104557864e+03 4.225101796935e+03 4.225097424932e+03 4.225091603607e+03 4.225084526729e+03 4.225076422167e+03 4.225067554243e+03 4.225058092328e+03 4.225047947305e+03 4.225036778939e+03 4.225024319355e+03 4.225011203165e+03 4.224998474587e+03 4.224255909571e+03 4.223523827445e+03 4.222797313771e+03 4.222059333366e+03 4.221289309834e+03 4.220470543530e+03 4.219590078592e+03 4.218639254529e+03 4.217613605659e+03 4.216510723529e+03 4.215337822234e+03 4.214121016493e+03 4.214102273736e+03 4.214087155756e+03 4.214077297610e+03 4.214073944447e+03 4.091750576581e+03 4.091753835360e+03 4.091763341396e+03 4.091778385546e+03 4.091797969161e+03 4.093117940211e+03 4.094398872363e+03 4.095605781538e+03 4.096715262660e+03 4.097715913591e+03 4.098607481714e+03 4.099398883652e+03 4.100105030716e+03 4.100742952435e+03 4.101328010859e+03 4.101871849540e+03 4.102393326355e+03 4.102403158166e+03 4.102415561953e+03 4.102428554392e+03 4.102441141141e+03 4.102452673947e+03 4.102462757267e+03 4.102471136508e+03 4.102477652746e+03 4.102482218319e+03 4.102484803387e+03 4.102485427758e+03 4.102484155333e+03 4.102481090007e+03 4.102476373041e+03 4.102470183439e+03 4.102462745325e+03 4.102454351403e+03 4.102445410107e+03 4.102436646435e+03 4.102428128287e+03 4.102418963129e+03 4.102408393835e+03 4.102396730174e+03 4.102385323624e+03 4.101708886066e+03 4.101032114115e+03 4.100347613444e+03 4.099640629200e+03 4.098891712969e+03 4.098080400900e+03 4.097188998831e+03 4.096206000671e+03 4.095128813204e+03 4.093965540735e+03 4.092735908608e+03 4.091471029342e+03 4.091452274310e+03 4.091437869207e+03 4.091428766292e+03 4.091425645330e+03 3.969095019762e+03 3.969098281809e+03 3.969107912509e+03 3.969123475256e+03 3.969144351492e+03 3.970572879339e+03 3.971960853343e+03 3.973264829971e+03 3.974448656102e+03 3.975490930298e+03 3.976390098099e+03 3.977161412858e+03 3.977828578338e+03 3.978414062594e+03 3.978933023898e+03 3.979389137125e+03 3.979771202180e+03 3.979783025485e+03 3.979796180208e+03 3.979809645475e+03 3.979822600951e+03 3.979834448126e+03 3.979844773572e+03 3.979853307058e+03 3.979859878667e+03 3.979864394738e+03 3.979866823805e+03 3.979867188121e+03 3.979865557901e+03 3.979862046661e+03 3.979856807389e+03 3.979850031358e+03 3.979841955130e+03 3.979832888770e+03 3.979823308756e+03 3.979814016752e+03 3.979808713701e+03 3.979803867711e+03 3.979793555902e+03 3.979781732304e+03 3.979770838623e+03 3.979159365173e+03 3.978545235393e+03 3.977918762057e+03 3.977263692207e+03 3.976557295947e+03 3.975772498767e+03 3.974882768732e+03 3.973870444925e+03 3.972734040894e+03 3.971490894687e+03 3.970172517067e+03 3.968817724778e+03 3.968797936792e+03 3.968783188379e+03 3.968774060779e+03 3.968770968830e+03 3.846432824504e+03 3.846436261336e+03 3.846446483021e+03 3.846463236352e+03 3.846486122570e+03 3.848068414263e+03 3.849608511310e+03 3.851049597748e+03 3.852331104708e+03 3.853415828300e+03 3.854303097210e+03 3.855027237170e+03 3.855630895966e+03 3.856148151316e+03 3.856595857224e+03 3.856974170094e+03 3.857245656854e+03 3.857417363561e+03 3.857509745836e+03 3.857577728013e+03 3.857631892092e+03 3.857675292488e+03 3.857708575384e+03 3.857731685998e+03 3.857744461831e+03 3.857746836076e+03 3.857738915386e+03 3.857721034091e+03 3.857693791024e+03 3.857658027069e+03 3.857614701158e+03 3.857564650765e+03 3.857508245852e+03 3.857444958610e+03 3.857373276031e+03 3.857291905837e+03 3.857199640244e+03 3.857193417657e+03 3.857180128934e+03 3.857165213475e+03 3.857153673864e+03 3.856610514957e+03 3.856068334742e+03 3.855516292587e+03 3.854936184771e+03 3.854301046681e+03 3.853572202083e+03 3.852705563992e+03 3.851666039690e+03 3.850451333385e+03 3.849093259854e+03 3.847645743751e+03 3.846160034778e+03 3.846138550412e+03 3.846122823133e+03 3.846113226109e+03 3.846109998950e+03 3.723763692868e+03 3.723767398556e+03 3.723778477660e+03 3.723796820687e+03 3.723822247625e+03 3.725598877296e+03 3.727353471127e+03 3.728999167397e+03 3.730430188025e+03 3.731549639824e+03 3.732382912133e+03 3.733006719002e+03 3.733514183751e+03 3.733946822700e+03 3.734321786055e+03 3.734639704010e+03 3.734896993402e+03 3.735093658972e+03 3.735242445549e+03 3.735357919425e+03 3.735451394566e+03 3.735526107692e+03 3.735582547522e+03 3.735620440613e+03 3.735639503340e+03 3.735639648159e+03 3.735621062679e+03 3.735584335421e+03 3.735530598391e+03 3.735461540534e+03 3.735379173496e+03 3.735285331994e+03 3.735180959746e+03 3.735065190444e+03 3.734933844153e+03 3.734780094923e+03 3.734602352141e+03 3.734590981607e+03 3.734568101018e+03 3.734544161796e+03 3.734529515358e+03 3.734058385551e+03 3.733598770951e+03 3.733139351270e+03 3.732660009308e+03 3.732133028113e+03 3.731513462254e+03 3.730711952176e+03 3.729655143314e+03 3.728317070104e+03 3.726783773613e+03 3.725150705329e+03 3.723497039900e+03 3.723473368666e+03 3.723456286868e+03 3.723445967056e+03 3.723442514881e+03 3.601087122660e+03 3.601091137999e+03 3.601103188402e+03 3.601123294923e+03 3.601151514941e+03 3.603145635954e+03 3.605155100580e+03 3.607202464466e+03 3.608862901208e+03 3.610030800549e+03 3.610640286458e+03 3.611089688549e+03 3.611465450778e+03 3.611798504531e+03 3.612099751979e+03 3.612371326591e+03 3.612612089881e+03 3.612821977254e+03 3.613002999438e+03 3.613158171897e+03 3.613288978009e+03 3.613395066908e+03 3.613475114567e+03 3.613528096526e+03 3.613553539739e+03 3.613551317774e+03 3.613521548447e+03 3.613464866079e+03 3.613382867271e+03 3.613278325641e+03 3.613154840221e+03 3.613015970584e+03 3.612864114131e+03 3.612699215586e+03 3.612516909442e+03 3.612299202354e+03 3.612023629182e+03 3.612004056362e+03 3.611956527316e+03 3.611910320993e+03 3.611889813410e+03 3.611488742241e+03 3.611127718885e+03 3.610780827372e+03 3.610426671541e+03 3.610046672127e+03 3.609607976136e+03 3.609029256720e+03 3.607945973218e+03 3.606413957225e+03 3.604527080537e+03 3.602671038716e+03 3.600827671488e+03 3.600801573192e+03 3.600782969559e+03 3.600771816821e+03 3.600768100124e+03 3.478402522707e+03 3.478406846297e+03 3.478419854845e+03 3.478441676250e+03 3.478472578976e+03 3.480674416480e+03 3.482936880604e+03 3.485329891318e+03 3.488552115474e+03 3.488808942622e+03 3.489019418659e+03 3.489234170337e+03 3.489454367278e+03 3.489679150080e+03 3.489906523630e+03 3.490134198239e+03 3.490359565534e+03 3.490579295048e+03 3.490788770213e+03 3.490981757150e+03 3.491151110827e+03 3.491290295616e+03 3.491394986473e+03 3.491463375189e+03 3.491495264772e+03 3.491490671547e+03 3.491449303514e+03 3.491371182408e+03 3.491258030505e+03 3.491114059197e+03 3.490945495513e+03 3.490758824816e+03 3.490559024758e+03 3.490348395120e+03 3.490125286893e+03 3.489884046064e+03 3.489527456037e+03 3.489419401547e+03 3.489344002051e+03 3.489271193156e+03 3.489179253842e+03 3.488877316192e+03 3.488649163740e+03 3.488429193767e+03 3.488215739520e+03 3.488008550854e+03 3.487807939293e+03 3.487612947562e+03 3.487378659819e+03 3.484448798834e+03 3.482255158361e+03 3.480176142113e+03 3.478150738386e+03 3.478122299748e+03 3.478102210919e+03 3.478090233199e+03 3.478086251962e+03 3.355709297779e+03 3.355713896311e+03 3.355727749671e+03 3.355751048904e+03 3.355784179341e+03 3.358153104640e+03 3.360596336802e+03 3.363238094595e+03 3.366095236818e+03 3.366239358464e+03 3.366431814794e+03 3.366636603702e+03 3.366851428075e+03 3.367072971666e+03 3.367298577294e+03 3.367525800018e+03 3.367752135690e+03 3.367974568256e+03 3.368188488348e+03 3.368387092375e+03 3.368561717246e+03 3.368704581832e+03 3.368810915218e+03 3.368879724548e+03 3.368911715866e+03 3.368907353152e+03 3.368865807793e+03 3.368786184978e+03 3.368669460994e+03 3.368520317642e+03 3.368346163571e+03 3.368154852711e+03 3.367951892378e+03 3.367739823562e+03 3.367518514609e+03 3.367281336225e+03 3.367064728240e+03 3.366882660294e+03 3.366745648978e+03 3.366612974227e+03 3.366445655564e+03 3.366247094605e+03 3.366025858583e+03 3.365812270463e+03 3.365604118169e+03 3.365403231778e+03 3.365212566995e+03 3.365034565644e+03 3.364902166737e+03 3.362291916719e+03 3.359875478060e+03 3.357636854685e+03 3.355465116672e+03 3.355434740040e+03 3.355413377731e+03 3.355400677063e+03 3.355396461409e+03 3.233006910831e+03 3.233011731741e+03 3.233026256617e+03 3.233050686402e+03 3.233085409131e+03 3.235564771699e+03 3.238110264086e+03 3.240763270996e+03 3.243520760666e+03 3.243656298538e+03 3.243830280139e+03 3.244029445891e+03 3.244241904445e+03 3.244462811201e+03 3.244689011325e+03 3.244918152196e+03 3.245148236234e+03 3.245377269994e+03 3.245602784983e+03 3.245816368767e+03 3.246005741463e+03 3.246156789936e+03 3.246265097878e+03 3.246332470274e+03 3.246363970710e+03 3.246360896740e+03 3.246321194269e+03 3.246239675738e+03 3.246114824603e+03 3.245951412882e+03 3.245763093868e+03 3.245561251943e+03 3.245353074842e+03 3.245139891273e+03 3.244922508625e+03 3.244706829107e+03 3.244501320222e+03 3.244314776424e+03 3.244143948850e+03 3.243976235276e+03 3.243797856100e+03 3.243603321113e+03 3.243398331703e+03 3.243190177084e+03 3.242985581137e+03 3.242788200748e+03 3.242603157510e+03 3.242441942574e+03 3.242317144659e+03 3.239792739104e+03 3.237365188181e+03 3.235037026484e+03 3.232769989222e+03 3.232738251888e+03 3.232715935750e+03 3.232702673245e+03 3.232698272293e+03 3.110294920532e+03 3.110299906116e+03 3.110314916073e+03 3.110340117716e+03 3.110375813762e+03 3.112915268308e+03 3.115497797519e+03 3.118153468133e+03 3.120894209348e+03 3.121029590625e+03 3.121209137450e+03 3.121409991648e+03 3.121624406875e+03 3.121847576503e+03 3.122076613424e+03 3.122309588299e+03 3.122545255284e+03 3.122783120134e+03 3.123023571026e+03 3.123271800967e+03 3.123489753730e+03 3.123657826850e+03 3.123758685272e+03 3.123819789099e+03 3.123849863597e+03 3.123849952408e+03 3.123817316122e+03 3.123742367221e+03 3.123600249925e+03 3.123408927444e+03 3.123188265008e+03 3.122973559743e+03 3.122759113422e+03 3.122544213703e+03 3.122329989045e+03 3.122119471479e+03 3.121916764410e+03 3.121723995598e+03 3.121539144800e+03 3.121356155203e+03 3.121168498488e+03 3.120972914325e+03 3.120770359533e+03 3.120564657918e+03 3.120360239163e+03 3.120161753772e+03 3.119974957459e+03 3.119808041111e+03 3.119682940476e+03 3.117168844004e+03 3.114738233995e+03 3.112380412401e+03 3.110064938659e+03 3.110032422626e+03 3.110009494401e+03 3.109995849005e+03 3.109991318306e+03 2.987572992832e+03 2.987578092442e+03 2.987593427856e+03 2.987619109698e+03 2.987655322188e+03 2.990220576909e+03 2.992812191168e+03 2.995442568855e+03 2.998186682422e+03 2.998371371007e+03 2.998567985427e+03 2.998778136329e+03 2.998998636627e+03 2.999226752357e+03 2.999460475770e+03 2.999698539739e+03 2.999940422418e+03 3.000186713258e+03 3.000440707871e+03 3.000709802231e+03 3.001085677663e+03 3.001214021968e+03 3.001286846890e+03 3.001336639280e+03 3.001364738888e+03 3.001370451382e+03 3.001351187560e+03 3.001302803661e+03 3.001191685889e+03 3.000850301961e+03 3.000611585415e+03 3.000385986810e+03 3.000166106633e+03 2.999948822426e+03 2.999734203359e+03 2.999523972386e+03 2.999320184674e+03 2.999123565394e+03 2.998932260009e+03 2.998742221647e+03 2.998549076456e+03 2.998350207783e+03 2.998145663427e+03 2.997937602910e+03 2.997729308388e+03 2.997524631352e+03 2.997327954416e+03 2.997143978189e+03 2.996972253603e+03 2.994443634067e+03 2.992038617943e+03 2.989679409780e+03 2.987349894940e+03 2.987317061206e+03 2.987293814942e+03 2.987279946547e+03 2.987275336560e+03 2.864840889918e+03 2.864846067546e+03 2.864861618659e+03 2.864887594599e+03 2.864924066733e+03 2.867498672128e+03 2.870085483468e+03 2.872683694021e+03 2.875227024763e+03 2.875575593078e+03 2.875846761137e+03 2.876101564700e+03 2.876352737228e+03 2.876604836418e+03 2.876859910133e+03 2.877119324071e+03 2.877384663388e+03 2.877658715037e+03 2.877947130667e+03 2.878266651426e+03 2.878633765976e+03 2.878681002124e+03 2.878739788984e+03 2.878784013537e+03 2.878812085334e+03 2.878821741851e+03 2.878810948672e+03 2.878777425747e+03 2.878742758813e+03 2.878425244432e+03 2.878146904531e+03 2.877897232351e+03 2.877661410412e+03 2.877434153361e+03 2.877212932899e+03 2.876996905987e+03 2.876785786514e+03 2.876578866552e+03 2.876374443142e+03 2.876169918127e+03 2.875962490380e+03 2.875749950148e+03 2.875531063487e+03 2.875305404673e+03 2.875072887393e+03 2.874833308776e+03 2.874585817225e+03 2.874323899291e+03 2.873997524329e+03 2.871660219191e+03 2.869290438991e+03 2.866947751112e+03 2.864624990196e+03 2.864592145931e+03 2.864568787956e+03 2.864554811859e+03 2.864550159349e+03 2.742098444462e+03 2.742103681039e+03 2.742119393160e+03 2.742145582931e+03 2.742182235564e+03 2.744762905238e+03 2.747346595756e+03 2.749916663666e+03 2.752452342071e+03 2.752816507844e+03 2.753136069958e+03 2.753426860752e+03 2.753705330142e+03 2.753979780500e+03 2.754255068584e+03 2.754534503623e+03 2.754821008912e+03 2.755118080048e+03 2.755430993733e+03 2.755765381732e+03 2.756119751