<?xml version="1.0"?>
<!-- Time step: 5 | Time: 5.000000000000e+00 -->
<VTKFile type="UnstructuredGrid" version="0.1" byte_order="LittleEndian">
  <UnstructuredGrid>
    <Piece NumberOfPoints="2337" NumberOfCells="2240">
      <Points>
        <DataArray type="Float64" NumberOfComponents="3" format="ascii">
          0.000000000000e+00 0.000000000000e+00 0.000000000000e+00
          1.250000000000e-02 0.000000000000e+00 0.000000000000e+00
          2.500000000000e-02 0.000000000000e+00 0.000000000000e+00
          3.750000000000e-02 0.000000000000e+00 0.000000000000e+00
          5.000000000000e-02 0.000000000000e+00 0.000000000000e+00
          6.250000000000e-02 0.000000000000e+00 0.000000000000e+00
          7.500000000000e-02 0.000000000000e+00 0.000000000000e+00
          8.750000000000e-02 0.000000000000e+00 0.000000000000e+00
          1.000000000000e-01 0.000000000000e+00 0.000000000000e+00
          1.125000000000e-01 0.000000000000e+00 0.000000000000e+00
          1.250000000000e-01 0.000000000000e+00 0.000000000000e+00
          1.375000000000e-01 0.000000000000e+00 0.000000000000e+00
          1.500000000000e-01 0.000000000000e+00 0.000000000000e+00
          1.625000000000e-01 0.000000000000e+00 0.000000000000e+00
          1.750000000000e-01 0.000000000000e+00 0.000000000000e+00
          1.875000000000e-01 0.000000000000e+00 0.000000000000e+00
          2.000000000000e-01 0.000000000000e+00 0.000000000000e+00
          2.125000000000e-01 0.000000000000e+00 0.000000000000e+00
          2.250000000000e-01 0.000000000000e+00 0.000000000000e+00
          2.375000000000e-01 0.000000000000e+00 0.000000000000e+00
          2.500000000000e-01 0.000000000000e+00 0.000000000000e+00
          2.625000000000e-01 0.000000000000e+00 0.000000000000e+00
          2.750000000000e-01 0.000000000000e+00 0.000000000000e+00
          2.875000000000e-01 0.000000000000e+00 0.000000000000e+00
          3.000000000000e-01 0.000000000000e+00 0.000000000000e+00
          3.125000000000e-01 0.000000000000e+00 0.000000000000e+00
          3.250000000000e-01 0.000000000000e+00 0.000000000000e+00
          3.375000000000e-01 0.000000000000e+00 0.000000000000e+00
          3.500000000000e-01 0.000000000000e+00 0.000000000000e+00
          3.625000000000e-01 0.000000000000e+00 0.000000000000e+00
          3.750000000000e-01 0.000000000000e+00 0.000000000000e+00
          3.875000000000e-01 0.000000000000e+00 0.000000000000e+00
          4.000000000000e-01 0.000000000000e+00 0.000000000000e+00
          4.125000000000e-01 0.000000000000e+00 0.000000000000e+00
          4.250000000000e-01 0.000000000000e+00 0.000000000000e+00
          4.375000000000e-01 0.000000000000e+00 0.000000000000e+00
          4.500000000000e-01 0.000000000000e+00 0.000000000000e+00
          4.625000000000e-01 0.000000000000e+00 0.000000000000e+00
          4.750000000000e-01 0.000000000000e+00 0.000000000000e+00
          4.875000000000e-01 0.000000000000e+00 0.000000000000e+00
          5.000000000000e-01 0.000000000000e+00 0.000000000000e+00
          5.125000000000e-01 0.000000000000e+00 0.000000000000e+00
          5.250000000000e-01 0.000000000000e+00 0.000000000000e+00
          5.375000000000e-01 0.000000000000e+00 0.000000000000e+00
          5.500000000000e-01 0.000000000000e+00 0.000000000000e+00
          5.625000000000e-01 0.000000000000e+00 0.000000000000e+00
          5.750000000000e-01 0.000000000000e+00 0.000000000000e+00
          5.875000000000e-01 0.000000000000e+00 0.000000000000e+00
          6.000000000000e-01 0.000000000000e+00 0.000000000000e+00
          6.125000000000e-01 0.000000000000e+00 0.000000000000e+00
          6.250000000000e-01 0.000000000000e+00 0.000000000000e+00
          6.375000000000e-01 0.000000000000e+00 0.000000000000e+00
          6.500000000000e-01 0.000000000000e+00 0.000000000000e+00
          6.625000000000e-01 0.000000000000e+00 0.000000000000e+00
          6.750000000000e-01 0.000000000000e+00 0.000000000000e+00
          6.875000000000e-01 0.000000000000e+00 0.000000000000e+00
          7.000000000000e-01 0.000000000000e+00 0.000000000000e+00
          0.000000000000e+00 0.000000000000e+00 1.250000000000e-02
          1.250000000000e-02 0.000000000000e+00 1.250000000000e-02
          2.500000000000e-02 0.000000000000e+00 1.250000000000e-02
          3.750000000000e-02 0.000000000000e+00 1.250000000000e-02
          5.000000000000e-02 0.000000000000e+00 1.250000000000e-02
          6.250000000000e-02 0.000000000000e+00 1.250000000000e-02
          7.500000000000e-02 0.000000000000e+00 1.250000000000e-02
          8.750000000000e-02 0.000000000000e+00 1.250000000000e-02
          1.000000000000e-01 0.000000000000e+00 1.250000000000e-02
          1.125000000000e-01 0.000000000000e+00 1.250000000000e-02
          1.250000000000e-01 0.000000000000e+00 1.250000000000e-02
          1.375000000000e-01 0.000000000000e+00 1.250000000000e-02
          1.500000000000e-01 0.000000000000e+00 1.250000000000e-02
          1.625000000000e-01 0.000000000000e+00 1.250000000000e-02
          1.750000000000e-01 0.000000000000e+00 1.250000000000e-02
          1.875000000000e-01 0.000000000000e+00 1.250000000000e-02
          2.000000000000e-01 0.000000000000e+00 1.250000000000e-02
          2.125000000000e-01 0.000000000000e+00 1.250000000000e-02
          2.250000000000e-01 0.000000000000e+00 1.250000000000e-02
          2.375000000000e-01 0.000000000000e+00 1.250000000000e-02
          2.500000000000e-01 0.000000000000e+00 1.250000000000e-02
          2.625000000000e-01 0.000000000000e+00 1.250000000000e-02
          2.750000000000e-01 0.000000000000e+00 1.250000000000e-02
          2.875000000000e-01 0.000000000000e+00 1.250000000000e-02
          3.000000000000e-01 0.000000000000e+00 1.250000000000e-02
          3.125000000000e-01 0.000000000000e+00 1.250000000000e-02
          3.250000000000e-01 0.000000000000e+00 1.250000000000e-02
          3.375000000000e-01 0.000000000000e+00 1.250000000000e-02
          3.500000000000e-01 0.000000000000e+00 1.250000000000e-02
          3.625000000000e-01 0.000000000000e+00 1.250000000000e-02
          3.750000000000e-01 0.000000000000e+00 1.250000000000e-02
          3.875000000000e-01 0.000000000000e+00 1.250000000000e-02
          4.000000000000e-01 0.000000000000e+00 1.250000000000e-02
          4.125000000000e-01 0.000000000000e+00 1.250000000000e-02
          4.250000000000e-01 0.000000000000e+00 1.250000000000e-02
          4.375000000000e-01 0.000000000000e+00 1.250000000000e-02
          4.500000000000e-01 0.000000000000e+00 1.250000000000e-02
          4.625000000000e-01 0.000000000000e+00 1.250000000000e-02
          4.750000000000e-01 0.000000000000e+00 1.250000000000e-02
          4.875000000000e-01 0.000000000000e+00 1.250000000000e-02
          5.000000000000e-01 0.000000000000e+00 1.250000000000e-02
          5.125000000000e-01 0.000000000000e+00 1.250000000000e-02
          5.250000000000e-01 0.000000000000e+00 1.250000000000e-02
          5.375000000000e-01 0.000000000000e+00 1.250000000000e-02
          5.500000000000e-01 0.000000000000e+00 1.250000000000e-02
          5.625000000000e-01 0.000000000000e+00 1.250000000000e-02
          5.750000000000e-01 0.000000000000e+00 1.250000000000e-02
          5.875000000000e-01 0.000000000000e+00 1.250000000000e-02
          6.000000000000e-01 0.000000000000e+00 1.250000000000e-02
          6.125000000000e-01 0.000000000000e+00 1.250000000000e-02
          6.250000000000e-01 0.000000000000e+00 1.250000000000e-02
          6.375000000000e-01 0.000000000000e+00 1.250000000000e-02
          6.500000000000e-01 0.000000000000e+00 1.250000000000e-02
          6.625000000000e-01 0.000000000000e+00 1.250000000000e-02
          6.750000000000e-01 0.000000000000e+00 1.250000000000e-02
          6.875000000000e-01 0.000000000000e+00 1.250000000000e-02
          7.000000000000e-01 0.000000000000e+00 1.250000000000e-02
          0.000000000000e+00 0.000000000000e+00 2.500000000000e-02
          1.250000000000e-02 0.000000000000e+00 2.500000000000e-02
          2.500000000000e-02 0.000000000000e+00 2.500000000000e-02
          3.750000000000e-02 0.000000000000e+00 2.500000000000e-02
          5.000000000000e-02 0.000000000000e+00 2.500000000000e-02
          6.250000000000e-02 0.000000000000e+00 2.500000000000e-02
          7.500000000000e-02 0.000000000000e+00 2.500000000000e-02
          8.750000000000e-02 0.000000000000e+00 2.500000000000e-02
          1.000000000000e-01 0.000000000000e+00 2.500000000000e-02
          1.125000000000e-01 0.000000000000e+00 2.500000000000e-02
          1.250000000000e-01 0.000000000000e+00 2.500000000000e-02
          1.375000000000e-01 0.000000000000e+00 2.500000000000e-02
          1.500000000000e-01 0.000000000000e+00 2.500000000000e-02
          1.625000000000e-01 0.000000000000e+00 2.500000000000e-02
          1.750000000000e-01 0.000000000000e+00 2.500000000000e-02
          1.875000000000e-01 0.000000000000e+00 2.500000000000e-02
          2.000000000000e-01 0.000000000000e+00 2.500000000000e-02
          2.125000000000e-01 0.000000000000e+00 2.500000000000e-02
          2.250000000000e-01 0.000000000000e+00 2.500000000000e-02
          2.375000000000e-01 0.000000000000e+00 2.500000000000e-02
          2.500000000000e-01 0.000000000000e+00 2.500000000000e-02
          2.625000000000e-01 0.000000000000e+00 2.500000000000e-02
          2.750000000000e-01 0.000000000000e+00 2.500000000000e-02
          2.875000000000e-01 0.000000000000e+00 2.500000000000e-02
          3.000000000000e-01 0.000000000000e+00 2.500000000000e-02
          3.125000000000e-01 0.000000000000e+00 2.500000000000e-02
          3.250000000000e-01 0.000000000000e+00 2.500000000000e-02
          3.375000000000e-01 0.000000000000e+00 2.500000000000e-02
          3.500000000000e-01 0.000000000000e+00 2.500000000000e-02
          3.625000000000e-01 0.000000000000e+00 2.500000000000e-02
[...]
      <PointData Scalars="PRESSURE1">
        <DataArray type="Float64" Name="PRESSURE1" format="ascii">
          4.965989545656e+03 4.966064995528e+03 4.966296595364e+03 4.966695671798e+03 4.967267518654e+03 4.968000768189e+03 4.968864244291e+03 4.969815016547e+03 4.970809824329e+03 4.971813746371e+03 4.972801707619e+03 4.973756256064e+03 4.974663957034e+03 4.975511900408e+03 4.976285049742e+03 4.976965862461e+03 4.977538509164e+03 4.977995164442e+03 4.978340766086e+03 4.978591368216e+03 4.978768355297e+03 4.978891907148e+03 4.978977884966e+03 4.979037484025e+03 4.979078327845e+03 4.979105502757e+03 4.979122324914e+03 4.979130855944e+03 4.979132221984e+03 4.979126779999e+03 4.979114156735e+03 4.979093167500e+03 4.979061604499e+03 4.979015866585e+03 4.978950384157e+03 4.978856782932e+03 4.978722773704e+03 4.978531002588e+03 4.978259527067e+03 4.977885379533e+03 4.977391915629e+03 4.976775268806e+03 4.976046087160e+03 4.975224012757e+03 4.974330349443e+03 4.973383009674e+03 4.972396623511e+03 4.971385250174e+03 4.970366064542e+03 4.969363133528e+03 4.968409822297e+03 4.967547523998e+03 4.966817319229e+03 4.966248877597e+03 4.965852607457e+03 4.965622768000e+03 4.965547909684e+03 4.843291588756e+03 4.843363299042e+03 4.843587023545e+03 4.843980724947e+03 4.844557881436e+03 4.845308247983e+03 4.846196061607e+03 4.847169774949e+03 4.848182195063e+03 4.849197945588e+03 4.850194078603e+03 4.851154804810e+03 4.852068308259e+03 4.852923636575e+03 4.853706153153e+03 4.854396527548e+03 4.854973989434e+03 4.855428005964e+03 4.855764024488e+03 4.856002767306e+03 4.856169120120e+03 4.856284895824e+03 4.856365492257e+03 4.856421455938e+03 4.856459881243e+03 4.856485480551e+03 4.856501322596e+03 4.856509316901e+03 4.856510510572e+03 4.856505242236e+03 4.856493177572e+03 4.856473233125e+03 4.856443378427e+03 4.856400289146e+03 4.856338804180e+03 4.856251118286e+03 4.856125630073e+03 4.855945453439e+03 4.855686776198e+03 4.855322687313e+03 4.854831333014e+03 4.854208317760e+03 4.853467422799e+03 4.852633967044e+03 4.851731442627e+03 4.850777476627e+03 4.849784632709e+03 4.848765254526e+03 4.847734769179e+03 4.846715042353e+03 4.845739778903e+03 4.844854138913e+03 4.844107607156e+03 4.843534329792e+03 4.843143609838e+03 4.842921667144e+03 4.842850536192e+03 4.720456032114e+03 4.720515271569e+03 4.720705339805e+03 4.721074290304e+03 4.721661478672e+03 4.722474350939e+03 4.723443680075e+03 4.724492409885e+03 4.725554767798e+03 4.726604075036e+03 4.727623169884e+03 4.728600923453e+03 4.729530037561e+03 4.730404950163e+03 4.731218736283e+03 4.731942562043e+03 4.732541358100e+03 4.732983925749e+03 4.733286310251e+03 4.733483887891e+03 4.733618306097e+03 4.733711473185e+03 4.733776627523e+03 4.733822209445e+03 4.733853740202e+03 4.733874849179e+03 4.733887895673e+03 4.733894354851e+03 4.733895048673e+03 4.733890263987e+03 4.733879778362e+03 4.733862798637e+03 4.733837803270e+03 4.733802264651e+03 4.733752207403e+03 4.733681520278e+03 4.733580843564e+03 4.733435545791e+03 4.733221528528e+03 4.732893085322e+03 4.732411953218e+03 4.731762056532e+03 4.730980504924e+03 4.730109167405e+03 4.729182749234e+03 4.728210808837e+03 4.727200196979e+03 4.726158441345e+03 4.725096057767e+03 4.724028909199e+03 4.722981803408e+03 4.722017857527e+03 4.721211398787e+03 4.720629411404e+03 4.720263806866e+03 4.720075410441e+03 4.720016688677e+03 4.597508968972e+03 4.597545278980e+03 4.597664641338e+03 4.597912188716e+03 4.598525043972e+03 4.599459101077e+03 4.600643312690e+03 4.601806181468e+03 4.602943305427e+03 4.604042254967e+03 4.605094882962e+03 4.606096393649e+03 4.607045711898e+03 4.607945571682e+03 4.608801445891e+03 4.609629043213e+03 4.610273242722e+03 4.610703568128e+03 4.610900906904e+03 4.611023395578e+03 4.611106272380e+03 4.611164636489e+03 4.611206434789e+03 4.611236422256e+03 4.611257621354e+03 4.611272001648e+03 4.611280850163e+03 4.611284989497e+03 4.611284904730e+03 4.611280806611e+03 4.611272643144e+03 4.611260061579e+03 4.611242313614e+03 4.611218086979e+03 4.611185234187e+03 4.611140341517e+03 4.611077983018e+03 4.610989156107e+03 4.610856995401e+03 4.610642528657e+03 4.610170880244e+03 4.609464736898e+03 4.608561303404e+03 4.607637067547e+03 4.606678881659e+03 4.605683182129e+03 4.604647908730e+03 4.603573870927e+03 4.602464839939e+03 4.601327334670e+03 4.600171647372e+03 4.598999718329e+03 4.598076767350e+03 4.597471359823e+03 4.597226411624e+03 4.597108254864e+03 4.597072308322e+03 4.474494406888e+03 4.474500105834e+03 4.474517465313e+03 4.474547190173e+03 4.474602060140e+03 4.476469691744e+03 4.477853190379e+03 4.479147895955e+03 4.480370889535e+03 4.481527968777e+03 4.482618980316e+03 4.483645297610e+03 4.484612145511e+03 4.485530375558e+03 4.486421170587e+03 4.487319157599e+03 4.488514672477e+03 4.488551654476e+03 4.488576474355e+03 4.488598038811e+03 4.488616967940e+03 4.488633473055e+03 4.488647536948e+03 4.488659099417e+03 4.488668108369e+03 4.488674540316e+03 4.488678407934e+03 4.488679762205e+03 4.488678691748e+03 4.488675320265e+03 4.488669801980e+03 4.488662313736e+03 4.488653039893e+03 4.488642140173e+03 4.488629692641e+03 4.488615619853e+03 4.488599631195e+03 4.488581205842e+03 4.488559515521e+03 4.488533397447e+03 4.488492873585e+03 4.487166410302e+03 4.486171912980e+03 4.485198570643e+03 4.484213450128e+03 4.483196057347e+03 4.482135404116e+03 4.481025308160e+03 4.479862810378e+03 4.478645987069e+03 4.477366622229e+03 4.476004946544e+03 4.474166703411e+03 4.474112742961e+03 4.474083636162e+03 4.474066670463e+03 4.474061106352e+03 4.351857330084e+03 4.351862463774e+03 4.351877765340e+03 4.351903344324e+03 4.351930672563e+03 4.353596870744e+03 4.355147282375e+03 4.356555186977e+03 4.357863818791e+03 4.359080503916e+03 4.360209114301e+03 4.361255426345e+03 4.362229725901e+03 4.363148661447e+03 4.364038571544e+03 4.364956537765e+03 4.365918576604e+03 4.365936498424e+03 4.365957917016e+03 4.365977530511e+03 4.365995384029e+03 4.366011234219e+03 4.366024884837e+03 4.366036176976e+03 4.366045000761e+03 4.366051297354e+03 4.366055057978e+03 4.366056321528e+03 4.366055171480e+03 4.366051732276e+03 4.366046164983e+03 4.366038661449e+03 4.366029434326e+03 4.366018696732e+03 4.366006607209e+03 4.365993181309e+03 4.365978216680e+03 4.365961312697e+03 4.365942032256e+03 4.365919755290e+03 4.365900052286e+03 4.364803730545e+03 4.363765792484e+03 4.362777692014e+03 4.361782464927e+03 4.360753684758e+03 4.359673482334e+03 4.358529738547e+03 4.357314410312e+03 4.356020993395e+03 4.354639238259e+03 4.353123112191e+03 4.351495763199e+03 4.351469089017e+03 4.351444126366e+03 4.351429221737e+03 4.351424225194e+03 4.229209959370e+03 4.229214567597e+03 4.229228109768e+03 4.229248875934e+03 4.229274615360e+03 4.230944994433e+03 4.232552458951e+03 4.234057969821e+03 4.235447990007e+03 4.236722145337e+03 4.237883124267e+03 4.238939467839e+03 4.239905555018e+03 4.240800877879e+03 4.241650869575e+03 4.242480921941e+03 4.243308361798e+03 4.243323486672e+03 4.243340843991e+03 4.243358808887e+03 4.243375809058e+03 4.243391209753e+03 4.243404608130e+03 4.243415740197e+03 4.243424437150e+03 4.243430606313e+03 4.243434220011e+03 4.243435308167e+03 4.243433952698e+03 4.243430282954e+03 4.243424472101e+03 4.243416735103e+03 4.243407329474e+03 4.243396558046e+03 4.243384772098e+03 4.243372196817e+03 4.243358713981e+03 4.243343871746e+03 4.243327314353e+03 4.243309885155e+03 4.243292971713e+03 4.242306290589e+03 4.241333540427e+03 4.240368192369e+03 4.239387612155e+03 4.238364460001e+03 4.237276547056e+03 4.236106658683e+03 4.234843287335e+03 4.233480498932e+03 4.232015092644e+03 4.230456653069e+03 4.228839878169e+03 4.228814974593e+03 4.228794887276e+03 4.228781788721e+03 4.228777333362e+03 4.106553207499e+03 4.106557537316e+03 4.106570167629e+03 4.106590156231e+03 4.106616176260e+03 4.108369974319e+03 4.110071904889e+03 4.111675488054e+03 4.113149628523e+03 4.114479178640e+03 4.115663804249e+03 4.116715353508e+03 4.117653639119e+03 4.118501288110e+03 4.119278712317e+03 4.120001385597e+03 4.120694360324e+03 4.120707425802e+03 4.120723909417e+03 4.120741175199e+03 4.120757901875e+03 4.120773227992e+03 4.120786627885e+03 4.120797763183e+03 4.120806422654e+03 4.120812489763e+03 4.120815924831e+03 4.120816754156e+03 4.120815062650e+03 4.120810988377e+03 4.120804719065e+03 4.120796492599e+03 4.120786606825e+03 4.120775450711e+03 4.120763566992e+03 4.120751918967e+03 4.120740597299e+03 4.120728416329e+03 4.120714370376e+03 4.120698870972e+03 4.120683713995e+03 4.119784892994e+03 4.118885630269e+03 4.117976102155e+03 4.117036704519e+03 4.116041596499e+03 4.114963587761e+03 4.113779167865e+03 4.112473048255e+03 4.111041782693e+03 4.109496138565e+03 4.107862324047e+03 4.106181677479e+03 4.106156757653e+03 4.106137617583e+03 4.106125522536e+03 4.106121375712e+03 3.983887607510e+03 3.983891941642e+03 3.983904737514e+03 3.983925415029e+03 3.983953152353e+03 3.985851174827e+03 3.987695317477e+03 3.989427861226e+03 3.991000773537e+03 3.992385621561e+03 3.993580341643e+03 3.994605201197e+03 3.995491694734e+03 3.996269674665e+03 3.996959281576e+03 3.997565399191e+03 3.998073178054e+03 3.998088892073e+03 3.998106374088e+03 3.998124268625e+03 3.998141485652e+03 3.998157229835e+03 3.998170951748e+03 3.998182292238e+03 3.998191025465e+03 3.998197026920e+03 3.998200254764e+03 3.998200738550e+03 3.998198571581e+03 3.998193904712e+03 3.998186941258e+03 3.998177935413e+03 3.998167201551e+03 3.998155151706e+03 3.998142418997e+03 3.998130068592e+03 3.998123016960e+03 3.998116575002e+03 3.998102870919e+03 3.998087158531e+03 3.998072682735e+03 3.997260174329e+03 3.996444139891e+03 3.995611709395e+03 3.994741288215e+03 3.993802675364e+03 3.992759896919e+03 3.991577699703e+03 3.990232617205e+03 3.988722673621e+03 3.987070904990e+03 3.985319178525e+03 3.983519068930e+03 3.983492776683e+03 3.983473180510e+03 3.983461052695e+03 3.983456944432e+03 3.861213187333e+03 3.861217753666e+03 3.861231334669e+03 3.861253593929e+03 3.861284001648e+03 3.863386310997e+03 3.865432560676e+03 3.867347264832e+03 3.869049951818e+03 3.870491193639e+03 3.871670100437e+03 3.872632279912e+03 3.873434395978e+03 3.874121725381e+03 3.874716660107e+03 3.875219407238e+03 3.875580208319e+03 3.875808417659e+03 3.875931208129e+03 3.876021572440e+03 3.876093572802e+03 3.876151267613e+03 3.876195515000e+03 3.876226241723e+03 3.876243231555e+03 3.876246395584e+03 3.876235875542e+03 3.876212115835e+03 3.876175912496e+03 3.876128383325e+03 3.876070803067e+03 3.876004285081e+03 3.875929321395e+03 3.875845210852e+03 3.875749942840e+03 3.875641799720e+03 3.875519176043e+03 3.875510906287e+03 3.875493245805e+03 3.875473424047e+03 3.875458089397e+03 3.874736343055e+03 3.874015902296e+03 3.873282364637e+03 3.872511543180e+03 3.871667609971e+03 3.870699175844e+03 3.869547662347e+03 3.868166441430e+03 3.866552461726e+03 3.864747994102e+03 3.862824686642e+03 3.860850633448e+03 3.860822087299e+03 3.860801190564e+03 3.860788439063e+03 3.860784151158e+03 3.738529551167e+03 3.738534474685e+03 3.738549194810e+03 3.738573566076e+03 3.738607349331e+03 3.740967852416e+03 3.743299079250e+03 3.745485624384e+03 3.747386950284e+03 3.748874325086e+03 3.749981484746e+03 3.750810355710e+03 3.751484664850e+03 3.752059571378e+03 3.752557859757e+03 3.752980361674e+03 3.753322309227e+03 3.753583701435e+03 3.753781469952e+03 3.753934968758e+03 3.754059231513e+03 3.754158557978e+03 3.754233596378e+03 3.754283982489e+03 3.754309338911e+03 3.754309549107e+03 3.754284862411e+03 3.754236061161e+03 3.754164650176e+03 3.754072874626e+03 3.753963408683e+03 3.753838691439e+03 3.753699977843e+03 3.753546117271e+03 3.753371555216e+03 3.753167220364e+03 3.752930998746e+03 3.752915887402e+03 3.752885479423e+03 3.752853664828e+03 3.752834200740e+03 3.752208148955e+03 3.751597406096e+03 3.750986932007e+03 3.750349996014e+03 3.749649769838e+03 3.748826534396e+03 3.747761558210e+03 3.746357375068e+03 3.744579483563e+03 3.742542203828e+03 3.740372359918e+03 3.738175149391e+03 3.738143697642e+03 3.738121001225e+03 3.738107289395e+03 3.738102702526e+03 3.615836031832e+03 3.615841366734e+03 3.615857377273e+03 3.615884091444e+03 3.615921585507e+03 3.618571043366e+03 3.621240888552e+03 3.623961088778e+03 3.626167210883e+03 3.627718942855e+03 3.628528766025e+03 3.629125914303e+03 3.629625239432e+03 3.630067836705e+03 3.630468188815e+03 3.630829126757e+03 3.631149133169e+03 3.631428117562e+03 3.631668747462e+03 3.631875026173e+03 3.632048921591e+03 3.632189964749e+03 3.632296394180e+03 3.632366847293e+03 3.632400694868e+03 3.632397768672e+03 3.632358225312e+03 3.632282908076e+03 3.632173939439e+03 3.632035006451e+03 3.631870893373e+03 3.631686332101e+03 3.631484509971e+03 3.631265354633e+03 3.631023065417e+03 3.630733730628e+03 3.630367494303e+03 3.630341482144e+03 3.630278316464e+03 3.630216908410e+03 3.630189654338e+03 3.629656673390e+03 3.629176922330e+03 3.628715962101e+03 3.628245359405e+03 3.627740426973e+03 3.627157512924e+03 3.626388559061e+03 3.624949204610e+03 3.622913629597e+03 3.620406558143e+03 3.617940456934e+03 3.615491196859e+03 3.615456520377e+03 3.615431801974e+03 3.615416983486e+03 3.615412045163e+03 3.493131843937e+03 3.493137588355e+03 3.493154871812e+03 3.493183864272e+03 3.493224922467e+03 3.496150346363e+03 3.499156323045e+03 3.502335750816e+03 3.506616883015e+03 3.506958121853e+03 3.507237800966e+03 3.507523182692e+03 3.507815820014e+03 3.508114569812e+03 3.508416779586e+03 3.508719404859e+03 3.509018976978e+03 3.509311066863e+03 3.509589535419e+03 3.509846093535e+03 3.510071241163e+03 3.510256288861e+03 3.510395486332e+03 3.510486429369e+03 3.510528855824e+03 3.510522787283e+03 3.510467835670e+03 3.510364030121e+03 3.510213660322e+03 3.510022324585e+03 3.509798300411e+03 3.509550208690e+03 3.509284666400e+03 3.509004731397e+03 3.508708213554e+03 3.508387600276e+03 3.507913697152e+03 3.507770094735e+03 3.507669888929e+03 3.507573125837e+03 3.507450936717e+03 3.507049660043e+03 3.506746457897e+03 3.506454138151e+03 3.506170484915e+03 3.505895165242e+03 3.505628593059e+03 3.505369496626e+03 3.505058197607e+03 3.501165337156e+03 3.498250676803e+03 3.495488317344e+03 3.492797193188e+03 3.492759407211e+03 3.492732715521e+03 3.492716800938e+03 3.492711511142e+03 3.370416196718e+03 3.370422306385e+03 3.370440712149e+03 3.370471667887e+03 3.370515685635e+03 3.373663091991e+03 3.376909230343e+03 3.380419144147e+03 3.384215237775e+03 3.384406734107e+03 3.384662471819e+03 3.384934617095e+03 3.385220116941e+03 3.385514564083e+03 3.385814426477e+03 3.386116453499e+03 3.386417315148e+03 3.386713000339e+03 3.386997379506e+03 3.387261406115e+03 3.387493562033e+03 3.387683502186e+03 3.387824883701e+03 3.387916386383e+03 3.387958948538e+03 3.387953186770e+03 3.387897999676e+03 3.387792198121e+03 3.387637080318e+03 3.387438869911e+03 3.387207415013e+03 3.386953155533e+03 3.386683412388e+03 3.386401563929e+03 3.386107436413e+03 3.385792221029e+03 3.385504345978e+03 3.385262376154e+03 3.385080286905e+03 3.384903961576e+03 3.384681596094e+03 3.384417713833e+03 3.384123702757e+03 3.383839863353e+03 3.383563254929e+03 3.383296309034e+03 3.383042952981e+03 3.382806431436e+03 3.382630510100e+03 3.379162303461e+03 3.375951616937e+03 3.372977194852e+03 3.370091645037e+03 3.370051284187e+03 3.370022900543e+03 3.370006025456e+03 3.370000424216e+03 3.247688376734e+03 3.247694781797e+03 3.247714079574e+03 3.247746537111e+03 3.247792670074e+03 3.251086784916e+03 3.254468773083e+03 3.257993628383e+03 3.261657326718e+03 3.261837419027e+03 3.262068611681e+03 3.262333287134e+03 3.262615645511e+03 3.262909249188e+03 3.263209905138e+03 3.263514485651e+03 3.263820334152e+03 3.264124798847e+03 3.264424595795e+03 3.264708539132e+03 3.264960302333e+03 3.265161122939e+03 3.265305130127e+03 3.265394723408e+03 3.265436633766e+03 3.265432585497e+03 3.265379847908e+03 3.265271526034e+03 3.265105604917e+03 3.264888428532e+03 3.264638145192e+03 3.264369887251e+03 3.264093208919e+03 3.263809876985e+03 3.263520965374e+03 3.263234318759e+03 3.262961190728e+03 3.262713268993e+03 3.262486235810e+03 3.262263343204e+03 3.262026279113e+03 3.261767748425e+03 3.261495329618e+03 3.261218710739e+03 3.260946827818e+03 3.260684540181e+03 3.260438653145e+03 3.260224435128e+03 3.260058612842e+03 3.256704463072e+03 3.253479013172e+03 3.250385629638e+03 3.247373466698e+03 3.247331298067e+03 3.247301647228e+03 3.247284025735e+03 3.247278178327e+03 3.124947797753e+03 3.124954421520e+03 3.124974363543e+03 3.125007846197e+03 3.125055271828e+03 3.128429193660e+03 3.131860362712e+03 3.135388748516e+03 3.139030203769e+03 3.139210088979e+03 3.139448677369e+03 3.139715597915e+03 3.140000558740e+03 3.140297172994e+03 3.140601603619e+03 3.140911285592e+03 3.141224561581e+03 3.141540772562e+03 3.141860431694e+03 3.142190438167e+03 3.142480197410e+03 3.142703650684e+03 3.142837755034e+03 3.142919016683e+03 3.142959033029e+03 3.142959189822e+03 3.142915844469e+03 3.142816252878e+03 3.142627379984e+03 3.142373103556e+03 3.142079829360e+03 3.141794472379e+03 3.141509459226e+03 3.141223843660e+03 3.140939125968e+03 3.140659336251e+03 3.140389928333e+03 3.140133730324e+03 3.139888057712e+03 3.139644861616e+03 3.139395466803e+03 3.139135541353e+03 3.138866357827e+03 3.138592998657e+03 3.138321350953e+03 3.138057594697e+03 3.137809377894e+03 3.137587583808e+03 3.137421358816e+03 3.134080900603e+03 3.130851388645e+03 3.127718608167e+03 3.124642103593e+03 3.124598900570e+03 3.124568436679e+03 3.124550306590e+03 3.124544286840e+03 3.002194016115e+03 3.002200791271e+03 3.002221165376e+03 3.002255285500e+03 3.002303396571e+03 3.005711548087e+03 3.009154742009e+03 3.012649483038e+03 3.016295468419e+03 3.016540869729e+03 3.016802135123e+03 3.017081409366e+03 3.017374458395e+03 3.017677649420e+03 3.017988313942e+03 3.018304767023e+03 3.018626313629e+03 3.018953735193e+03 3.019291409604e+03 3.019649164254e+03 3.020148865116e+03 3.020319496658e+03 3.020416335855e+03 3.020482563922e+03 3.020519958328e+03 3.020527592807e+03 3.020502022771e+03 3.020437738037e+03 3.020290058904e+03 3.019836327018e+03 3.019519054544e+03 3.019219216411e+03 3.018926978132e+03 3.018638190072e+03 3.018352944603e+03 3.018073532039e+03 3.017802684204e+03 3.017541365366e+03 3.017287111449e+03 3.017034544931e+03 3.016777853910e+03 3.016513561872e+03 3.016241733258e+03 3.015965238694e+03 3.015688440346e+03 3.015416456494e+03 3.015155110748e+03 3.014910648949e+03 3.014682472943e+03 3.011322693564e+03 3.008127201769e+03 3.004992599173e+03 3.001897462647e+03 3.001853837894e+03 3.001822951757e+03 3.001804525589e+03 3.001798400566e+03 2.879426716081e+03 2.879433594753e+03 2.879454255022e+03 2.879488765197e+03 2.879537220268e+03 2.882957727185e+03 2.886394470460e+03 2.889846402411e+03 2.893225466011e+03 2.893688590685e+03 2.894048909041e+03 2.894387516403e+03 2.894721331776e+03 2.895056410741e+03 2.895395473791e+03 2.895740334769e+03 2.896093098979e+03 2.896457468753e+03 2.896840953800e+03 2.897265804628e+03 2.897753939524e+03 2.897816752433e+03 2.897894933163e+03 2.897953763490e+03 2.897991124665e+03 2.898004004854e+03 2.897989695924e+03 2.897945164002e+03 2.897899096796e+03 2.897477092010e+03 2.897107146586e+03 2.896775300605e+03 2.896461861220e+03 2.896159804369e+03 2.895865770266e+03 2.895578639147e+03 2.895298031638e+03 2.895023007937e+03 2.894751305983e+03 2.894479474120e+03 2.894203791027e+03 2.893921321326e+03 2.893630426408e+03 2.893330541593e+03 2.893021552996e+03 2.892703191507e+03 2.892374325896e+03 2.892026302195e+03 2.891592646249e+03 2.888487114860e+03 2.885338464625e+03 2.882225844516e+03 2.879139719425e+03 2.879096081280e+03 2.879065047203e+03 2.879046478247e+03 2.879040296833e+03 2.756645675613e+03 2.756652632437e+03 2.756673506113e+03 2.756708299530e+03 2.756756993198e+03 2.760185470112e+03 2.763617976772e+03 2.767032414067e+03 2.770401198512e+03 2.770885032949e+03 2.771309645697e+03 2.771696072379e+03 2.772066169450e+03 2.772430968050e+03 2.772796921103e+03 2.773168425279e+03 2.773549364408e+03 2.773944382780e+03 2.774360491633e+03 2.774805173551e+03 2.775276439