VARIABLES = "X","Y","Z","VX","VY","VZ",POROSITY,PERMEABILITY
ZONE T="0.000000000000e+00s", I=1, F=POINT, C=BLACK
5.000000000000e-01 0.000000000000e+00 0.000000000000e+00 0.000000000000e+00 0.000000000000e+00 0.000000000000e+00 2.000000000000e-01 1.157000000000e-12 
VARIABLES = "X","Y","Z","VX","VY","VZ",POROSITY,PERMEABILITY
ZONE T="8.640000000000e+05s", I=1, F=POINT, C=BLACK
5.000000000000e-01 0.000000000000e+00 0.000000000000e+00 0.000000000000e+00 0.000000000000e+00 0.000000000000e+00 1.826823793056e-01 8.447566122731e-13 
