 TITLE = "Profiles along polylines"
 VARIABLES = "DIST" "HEAD" "water_liquid" "Al[3+]" "CO2" "CO3[2-]" "Ca[2+]" "Cl[-]" "Fe[2+]" "Fe[3+]" "H[+]" "H2" "HCO3[-]" "HS[-]" "K[+]" "Mg[2+]" "Na[+]" "OH[-]" "SO4[2-]" "SiO2" "AlCH2NaO5_dawsonite(s)_s" "CO3Mg_mgco3(s)_s" "HO2Al_alo(oh)_boehmit(s)_s" "O2Si_sio2_quartz(s8)_s" "O3SiMg_mgsio3(s)_s" "O4SiMg2_mg2sio4(s)_s" "H4O9Al2Si2_al2si2o5((s3)_s" "O8AlSi3Na_naalsi3o8_l(s)_s" "O8AlSi3K_kalsi3o8_k-f(s)_s" "H2O12Al3Si3K_kal2(als(s)_s" "CO3Ca_caco3_calcite(s2)_s" "C2O6CaMg_camg(co3)2(s)_s" "O8Al2CaSi2_ca(al2si2)(s)_s" "O4CaS_caso4(s)_s" "O3Fe2_fe2o3(s)_s" "CO3Fe_feco3(s)_s" "O4Fe2Si_fe2sio4(s)_s" "S2Fe_fes2(s)_s" "pH" 
 ZONE T="TIME=0.000000000000e+00"
0.000000000000e+00 2.000000000000e+00 4.122245000000e+04 3.616110000000e-04 4.031985000000e+02 1.244885000000e-08 6.524750000000e+02 5.630000000000e+03 0.000000000000e+00 0.000000000000e+00 1.089860000000e-01 0.000000000000e+00 1.145915000000e-01 0.000000000000e+00 2.475155000000e+03 2.461715000000e+01 1.839565000000e+03 2.825265000000e-08 8.823450000000e-05 6.602400000000e-02 0.000000000000e+00 0.000000000000e+00 0.000000000000e+00 2.305600000000e+04 0.000000000000e+00 0.000000000000e+00 0.000000000000e+00 7.334300000000e+02 1.208600000000e+03 5.918200000000e+02 1.981500000000e+03 4.267300000000e+02 0.000000000000e+00 2.839600000000e+03 0.000000000000e+00 0.000000000000e+00 0.000000000000e+00 0.000000000000e+00 2.967083217200e+00 
1.000000000000e+00 2.000000000000e+00 4.122245000000e+04 3.616110000000e-04 4.031985000000e+02 1.244885000000e-08 6.524750000000e+02 5.630000000000e+03 0.000000000000e+00 0.000000000000e+00 1.089860000000e-01 0.000000000000e+00 1.145915000000e-01 0.000000000000e+00 2.475155000000e+03 2.461715000000e+01 1.839565000000e+03 2.825265000000e-08 8.823450000000e-05 6.602400000000e-02 0.000000000000e+00 0.000000000000e+00 0.000000000000e+00 2.305600000000e+04 0.000000000000e+00 0.000000000000e+00 0.000000000000e+00 7.334300000000e+02 1.208600000000e+03 5.918200000000e+02 1.981500000000e+03 4.267300000000e+02 0.000000000000e+00 2.839600000000e+03 0.000000000000e+00 0.000000000000e+00 0.000000000000e+00 0.000000000000e+00 2.967083217200e+00 
 ZONE T="TIME=8.640000000000e+05"
0.000000000000e+00 2.000000000000e+00 4.300578977493e+04 7.009543037854e-04 4.606842779249e+02 8.775121093198e-09 7.789640168960e+02 6.163703386611e+03 0.000000000000e+00 0.000000000000e+00 1.243152190503e-01 0.000000000000e+00 1.004360687098e-01 0.000000000000e+00 2.823299115988e+03 2.938953401203e+01 1.766256829074e+03 1.988161098956e-08 6.219592739699e-05 6.056796524142e-02 7.732526303092e+02 0.000000000000e+00 0.000000000000e+00 2.479721406567e+04 0.000000000000e+00 0.000000000000e+00 0.000000000000e+00 0.000000000000e+00 1.172617567190e+03 5.642836864427e+02 1.925616137656e+03 4.171426032762e+02 0.000000000000e+00 2.779433530468e+03 0.000000000000e+00 0.000000000000e+00 0.000000000000e+00 0.000000000000e+00 2.872467599736e+00 
1.000000000000e+00 2.000000000000e+00 4.300578977493e+04 7.009543037854e-04 4.606842779249e+02 8.775121093198e-09 7.789640168960e+02 6.163703386611e+03 0.000000000000e+00 0.000000000000e+00 1.243152190503e-01 0.000000000000e+00 1.004360687098e-01 0.000000000000e+00 2.823299115988e+03 2.938953401203e+01 1.766256829074e+03 1.988161098956e-08 6.219592739699e-05 6.056796524142e-02 7.732526303092e+02 0.000000000000e+00 0.000000000000e+00 2.479721406567e+04 0.000000000000e+00 0.000000000000e+00 0.000000000000e+00 0.000000000000e+00 1.172617567190e+03 5.642836864427e+02 1.925616137656e+03 4.171426032762e+02 0.000000000000e+00 2.779433530468e+03 0.000000000000e+00 0.000000000000e+00 0.000000000000e+00 0.000000000000e+00 2.872467599736e+00 
