 TITLE = "Time curves in points"
 VARIABLES = "TIME "  "PRESSURE1"  "TEMPERATURE1"  "VELOCITY_X1" 
 ZONE T="POINT=POINT1"
0.000000000000e+00 1.000000000000e+05 0.000000000000e+00 0.000000000000e+00 
1.000000000000e+05 1.000000000000e+05 0.000000000000e+00 1.000000000000e-06 
2.000000000000e+05 1.000000000000e+05 0.000000000000e+00 1.000000000000e-06 
3.000000000000e+05 1.000000000000e+05 0.000000000000e+00 1.000000000000e-06 
4.000000000000e+05 1.000000000000e+05 0.000000000000e+00 1.000000000000e-06 
5.000000000000e+05 1.000000000000e+05 0.000000000000e+00 1.000000000000e-06 
6.000000000000e+05 1.000000000000e+05 0.000000000000e+00 1.000000000000e-06 
7.000000000000e+05 1.000000000000e+05 0.000000000000e+00 1.000000000000e-06 
8.000000000000e+05 1.000000000000e+05 0.000000000000e+00 1.000000000000e-06 
9.000000000000e+05 1.000000000000e+05 0.000000000000e+00 1.000000000000e-06 
1.000000000000e+06 1.000000000000e+05 0.000000000000e+00 1.000000000000e-06 
1.100000000000e+06 1.000000000000e+05 0.000000000000e+00 1.000000000000e-06 
1.200000000000e+06 1.000000000000e+05 0.000000000000e+00 1.000000000000e-06 
1.300000000000e+06 1.000000000000e+05 0.000000000000e+00 1.000000000000e-06 
1.400000000000e+06 1.000000000000e+05 0.000000000000e+00 1.000000000000e-06 
1.500000000000e+06 1.000000000000e+05 0.000000000000e+00 1.000000000000e-06 
1.600000000000e+06 1.000000000000e+05 0.000000000000e+00 1.000000000000e-06 
1.700000000000e+06 1.000000000000e+05 0.000000000000e+00 1.000000000000e-06 
1.800000000000e+06 1.000000000000e+05 0.000000000000e+00 1.000000000000e-06 
1.900000000000e+06 1.000000000000e+05 0.000000000000e+00 1.000000000000e-06 
2.000000000000e+06 1.000000000000e+05 0.000000000000e+00 1.000000000000e-06 
2.100000000000e+06 1.000000000000e+05 0.000000000000e+00 1.000000000000e-06 
2.200000000000e+06 1.000000000000e+05 0.000000000000e+00 1.000000000000e-06 
2.300000000000e+06 1.000000000000e+05 0.000000000000e+00 1.000000000000e-06 
2.400000000000e+06 1.000000000000e+05 0.000000000000e+00 1.000000000000e-06 
2.500000000000e+06 1.000000000000e+05 0.000000000000e+00 1.000000000000e-06 
2.600000000000e+06 1.000000000000e+05 0.000000000000e+00 1.000000000000e-06 
2.700000000000e+06 1.000000000000e+05 0.000000000000e+00 1.000000000000e-06 
2.800000000000e+06 1.000000000000e+05 0.000000000000e+00 1.000000000000e-06 
2.900000000000e+06 1.000000000000e+05 0.000000000000e+00 1.000000000000e-06 
3.000000000000e+06 1.000000000000e+05 0.000000000000e+00 1.000000000000e-06 
3.100000000000e+06 1.000000000000e+05 0.000000000000e+00 1.000000000000e-06 
3.200000000000e+06 1.000000000000e+05 0.000000000000e+00 1.000000000000e-06 
3.300000000000e+06 1.000000000000e+05 0.000000000000e+00 1.000000000000e-06 
3.400000000000e+06 1.000000000000e+05 0.000000000000e+00 1.000000000000e-06 
3.500000000000e+06 1.000000000000e+05 0.000000000000e+00 1.000000000000e-06 
3.600000000000e+06 1.000000000000e+05 0.000000000000e+00 1.000000000000e-06 
3.700000000000e+06 1.000000000000e+05 0.000000000000e+00 1.000000000000e-06 
3.800000000000e+06 1.000000000000e+05 0.000000000000e+00 1.000000000000e-06 
3.900000000000e+06 1.000000000000e+05 3.517747398390e-321 1.000000000000e-06 
4.000000000000e+06 1.000000000000e+05 -3.673476889959e-319 1.000000000000e-06 
4.100000000000e+06 1.000000000000e+05 3.515701966616e-317 1.000000000000e-06 
4.200000000000e+06 1.000000000000e+05 -3.258807232736e-315 1.000000000000e-06 
4.300000000000e+06 1.000000000000e+05 2.928390486543e-313 1.000000000000e-06 
4.400000000000e+06 1.000000000000e+05 -2.552373633436e-311 1.000000000000e-06 
4.500000000000e+06 1.000000000000e+05 2.158817634535e-309 1.000000000000e-06 
4.600000000000e+06 1.000000000000e+05 -1.772738497543e-307 1.000000000000e-06 
4.700000000000e+06 1.000000000000e+05 1.413906550125e-305 1.000000000000e-06 
4.800000000000e+06 1.000000000000e+05 -1.095783373530e-303 1.000000000000e-06 
4.900000000000e+06 1.000000000000e+05 8.255212672278e-302 1.000000000000e-06 
5.000000000000e+06 1.000000000000e+05 -6.047758337377e-300 1.000000000000e-06 
5.100000000000e+06 1.000000000000e+05 4.310008950052e-298 1.000000000000e-06 
5.200000000000e+06 1.000000000000e+05 -2.989006410573e-296 1.000000000000e-06 
5.300000000000e+06 1.000000000000e+05 2.017811445796e-294 1.000000000000e-06 
5.400000000000e+06 1.000000000000e+05 -1.326394325273e-292 1.000000000000e-06 
5.500000000000e+06 1.000000000000e+05 8.492388239396e-291 1.000000000000e-06 
5.600000000000e+06 1.000000000000e+05 -5.297521365146e-289 1.000000000000e-06 
5.700000000000e+06 1.000000000000e+05 3.220445589380e-287 1.000000000000e-06 
5.800000000000e+06 1.000000000000e+05 -1.908396614857e-285 1.000000000000e-06 
5.900000000000e+06 1.000000000000e+05 1.102641666670e-283 1.000000000000e-06 
6.000000000000e+06 1.000000000000e+05 -6.213148989158e-282 1.000000000000e-06 
6.100000000000e+06 1.000000000000e+05 3.415028391485e-280 1.000000000000e-06 
6.200000000000e+06 1.000000000000e+05 -1.831348023484e-278 1.000000000000e-06 
6.300000000000e+06 1.000000000000e+05 9.583535037047e-277 1.000000000000e-06 
6.400000000000e+06 1.000000000000e+05 -4.894842789122e-275 1.000000000000e-06 
6.500000000000e+06 1.000000000000e+05 2.440537921723e-273 1.000000000000e-06 
6.600000000000e+06 1.000000000000e+05 -1.188058193013e-271 1.000000000000e-06 
6.700000000000e+06 1.000000000000e+05 5.647585121717e-270 1.000000000000e-06 
6.800000000000e+06 1.000000000000e+05 -2.621950633738e-268 1.000000000000e-06 
6.900000000000e+06 1.000000000000e+05 1.189002842046e-266 1.000000000000e-06 
7.000000000000e+06 1.000000000000e+05 -5.267375838354e-265 1.000000000000e-06 
7.100000000000e+06 1.000000000000e+05 2.279877930220e-263 1.000000000000e-06 
7.200000000000e+06 1.000000000000e+05 -9.642377828256e-262 1.000000000000e-06 
7.300000000000e+06 1.000000000000e+05 3.985272080359e-260 1.000000000000e-06 
7.400000000000e+06 1.000000000000e+05 -1.609814390028e-258 1.000000000000e-06 
7.500000000000e+06 1.000000000000e+05 6.355900734872e-257 1.000000000000e-06 
7.600000000000e+06 1.000000000000e+05 -2.453003507740e-255 1.000000000000e-06 
7.700000000000e+06 1.000000000000e+05 9.254908934805e-254 1.000000000000e-06 
7.800000000000e+06 1.000000000000e+05 -3.413729522078e-252 1.000000000000e-06 
7.900000000000e+06 1.000000000000e+05 1.231107694228e-250 1.000000000000e-06 
8.000000000000e+06 1.000000000000e+05 -4.341071462632e-249 1.000000000000e-06 
8.100000000000e+06 1.000000000000e+05 1.496761980451e-247 1.000000000000e-06 
8.200000000000e+06 1.000000000000e+05 -5.046397369947e-246 1.000000000000e-06 
8.300000000000e+06 1.000000000000e+05 1.663788197173e-244 1.000000000000e-06 
8.400000000000e+06 1.000000000000e+05 -5.364318385179e-243 1.000000000000e-06 
8.500000000000e+06 1.000000000000e+05 1.691375407752e-241 1.000000000000e-06 
8.600000000000e+06 1.000000000000e+05 -5.215314395307e-240 1.000000000000e-06 
8.700000000000e+06 1.000000000000e+05 1.572675248376e-238 1.000000000000e-06 
8.800000000000e+06 1.000000000000e+05 -4.637839548982e-237 1.000000000000e-06 
8.900000000000e+06 1.000000000000e+05 1.337542166491e-235 1.000000000000e-06 
9.000000000000e+06 1.000000000000e+05 -3.772317478978e-234 1.000000000000e-06 
9.100000000000e+06 1.000000000000e+05 1.040420130956e-232 1.000000000000e-06 
9.200000000000e+06 1.000000000000e+05 -2.806057708399e-231 1.000000000000e-06 
9.300000000000e+06 1.000000000000e+05 7.400415986863e-230 1.000000000000e-06 
9.400000000000e+06 1.000000000000e+05 -1.908395488857e-228 1.000000000000e-06 
9.500000000000e+06 1.000000000000e+05 4.811837889342e-227 1.000000000000e-06 
9.600000000000e+06 1.000000000000e+05 -1.186200543485e-225 1.000000000000e-06 
9.700000000000e+06 1.000000000000e+05 2.858777577252e-224 1.000000000000e-06 
9.800000000000e+06 1.000000000000e+05 -6.735109174199e-223 1.000000000000e-06 
9.900000000000e+06 1.000000000000e+05 1.551007994243e-221 1.000000000000e-06 
1.000000000000e+07 1.000000000000e+05 -3.490982811079e-220 1.000000000000e-06 
1.010000000000e+07 1.000000000000e+05 7.678930205524e-219 1.000000000000e-06 
1.020000000000e+07 1.000000000000e+05 -1.650531659632e-217 1.000000000000e-06 
1.030000000000e+07 1.000000000000e+05 3.466278632088e-216 1.000000000000e-06 
1.040000000000e+07 1.000000000000e+05 -7.111500401836e-215 1.000000000000e-06 
1.050000000000e+07 1.000000000000e+05 1.425128310662e-213 1.000000000000e-06 
1.060000000000e+07 1.000000000000e+05 -2.789159304784e-212 1.000000000000e-06 
1.070000000000e+07 1.000000000000e+05 5.330225009000e-211 1.000000000000e-06 
1.080000000000e+07 1.000000000000e+05 -9.944687791656e-210 1.000000000000e-06 
1.090000000000e+07 1.000000000000e+05 1.811025624684e-208 1.000000000000e-06 
1.100000000000e+07 1.000000000000e+05 -3.218502518983e-207 1.000000000000e-06 
1.110000000000e+07 1.000000000000e+05 5.580588807397e-206 1.000000000000e-06 
1.120000000000e+07 1.000000000000e+05 -9.438366444190e-205 1.000000000000e-06 
1.130000000000e+07 1.000000000000e+05 1.556646894566e-203 1.000000000000e-06 
1.140000000000e+07 1.000000000000e+05 -2.502863481470e-202 1.000000000000e-06 
1.150000000000e+07 1.000000000000e+05 3.921986681861e-201 1.000000000000e-06 
1.160000000000e+07 1.000000000000e+05 -5.987632430175e-200 1.000000000000e-06 
1.170000000000e+07 1.000000000000e+05 8.902901004298e-199 1.000000000000e-06 
1.180000000000e+07 1.000000000000e+05 -1.288756455332e-197 1.000000000000e-06 
1.190000000000e+07 1.000000000000e+05 1.815497249226e-196 1.000000000000e-06 
1.200000000000e+07 1.000000000000e+05 -2.487791777559e-195 1.000000000000e-06 
1.210000000000e+07 1.000000000000e+05 3.314504576380e-194 1.000000000000e-06 
1.220000000000e+07 1.000000000000e+05 -4.291254826648e-193 1.000000000000e-06 
1.230000000000e+07 1.000000000000e+05 5.395931141590e-192 1.000000000000e-06 
1.240000000000e+07 1.000000000000e+05 -6.585643432844e-191 1.000000000000e-06 
1.250000000000e+07 1.000000000000e+05 7.796293365105e-190 1.000000000000e-06 
1.260000000000e+07 1.000000000000e+05 -8.945742617247e-189 1.000000000000e-06 
1.270000000000e+07 1.000000000000e+05 9.941011596383e-188 1.000000000000e-06 
1.280000000000e+07 1.000000000000e+05 -1.068909545910e-186 1.000000000000e-06 
1.290000000000e+07 1.000000000000e+05 1.111000190670e-185 1.000000000000e-06 
1.300000000000e+07 1.000000000000e+05 -1.114975708014e-184 1.000000000000e-06 
1.310000000000e+07 1.000000000000e+05 1.079068568096e-183 1.000000000000e-06 
1.320000000000e+07 1.000000000000e+05 -1.005647698422e-182 1.000000000000e-06 
1.330000000000e+07 1.000000000000e+05 9.010461638472e-182 1.000000000000e-06 
1.340000000000e+07 1.000000000000e+05 -7.746982421757e-181 1.000000000000e-06 
1.350000000000e+07 1.000000000000e+05 6.377375666361e-180 1.000000000000e-06 
1.360000000000e+07 1.000000000000e+05 -5.013414266813e-179 1.000000000000e-06 
1.370000000000e+07 1.000000000000e+05 3.751677649735e-178 1.000000000000e-06 
1.380000000000e+07 1.000000000000e+05 -2.661999722528e-177 1.000000000000e-06 
1.390000000000e+07 1.000000000000e+05 1.781993556214e-176 1.000000000000e-06 
1.400000000000e+07 1.000000000000e+05 -1.118029262767e-175 1.000000000000e-06 
1.410000000000e+07 1.000000000000e+05 6.514621970262e-175 1.000000000000e-06 
1.420000000000e+07 1.000000000000e+05 -3.478417901271e-174 1.000000000000e-06 
1.430000000000e+07 1.000000000000e+05 1.665366094493e-173 1.000000000000e-06 
1.440000000000e+07 1.000000000000e+05 -6.866294071002e-173 1.000000000000e-06 
1.450000000000e+07 1.000000000000e+05 2.213341994649e-172 1.000000000000e-06 
1.460000000000e+07 1.000000000000e+05 -3.668972345581e-172 1.000000000000e-06 
1.470000000000e+07 1.000000000000e+05 -1.593095634108e-171 1.000000000000e-06 
1.480000000000e+07 1.000000000000e+05 1.886729460147e-170 1.000000000000e-06 
1.490000000000e+07 1.000000000000e+05 -1.023017591274e-169 1.000000000000e-06 
1.500000000000e+07 1.000000000000e+05 3.306746655799e-169 1.000000000000e-06 
1.510000000000e+07 1.000000000000e+05 -1.831259752917e-169 1.000000000000e-06 
1.520000000000e+07 1.000000000000e+05 -5.334714935690e-168 1.000000000000e-06 
1.530000000000e+07 1.000000000000e+05 3.678613139097e-167 1.000000000000e-06 
1.540000000000e+07 1.000000000000e+05 -1.160167769933e-166 1.000000000000e-06 
1.550000000000e+07 1.000000000000e+05 -5.128567345798e-167 1.000000000000e-06 
1.560000000000e+07 1.000000000000e+05 2.572622537119e-165 1.000000000000e-06 
1.570000000000e+07 1.000000000000e+05 -1.287815733283e-164 1.000000000000e-06 
1.580000000000e+07 1.000000000000e+05 1.628067818781e-164 1.000000000000e-06 
1.590000000000e+07 1.000000000000e+05 1.722677479540e-163 1.000000000000e-06 
1.600000000000e+07 1.000000000000e+05 -1.149390994116e-162 1.000000000000e-06 
1.610000000000e+07 1.000000000000e+05 1.914205022992e-162 1.000000000000e-06 
1.620000000000e+07 1.000000000000e+05 1.417003953928e-161 1.000000000000e-06 
1.630000000000e+07 1.000000000000e+05 -9.784871843877e-161 1.000000000000e-06 
1.640000000000e+07 1.000000000000e+05 1.178966137475e-160 1.000000000000e-06 
1.650000000000e+07 1.000000000000e+05 1.471415143490e-159 1.000000000000e-06 
1.660000000000e+07 1.000000000000e+05 -7.763527783877e-159 1.000000000000e-06 
1.670000000000e+07 1.000000000000e+05 -1.680536798327e-159 1.000000000000e-06 
1.680000000000e+07 1.000000000000e+05 1.586527610613e-157 1.000000000000e-06 
1.690000000000e+07 1.000000000000e+05 -4.698496481798e-157 1.000000000000e-06 
1.700000000000e+07 1.000000000000e+05 -1.718621412149e-156 1.000000000000e-06 
1.710000000000e+07 1.000000000000e+05 1.412585310940e-155 1.000000000000e-06 
1.720000000000e+07 1.000000000000e+05 -3.720489467261e-156 1.000000000000e-06 
1.730000000000e+07 1.000000000000e+05 -2.692271325484e-154 1.000000000000e-06 
1.740000000000e+07 1.000000000000e+05 7.014905895681e-154 1.000000000000e-06 
1.750000000000e+07 1.000000000000e+05 3.785564618297e-153 1.000000000000e-06 
1.760000000000e+07 1.000000000000e+05 -2.144814088700e-152 1.000000000000e-06 
1.770000000000e+07 1.000000000000e+05 -3.489720906879e-152 1.000000000000e-06 
1.780000000000e+07 1.000000000000e+05 4.822218909522e-151 1.000000000000e-06 
1.790000000000e+07 1.000000000000e+05 -5.576733055386e-152 1.000000000000e-06 
1.800000000000e+07 1.000000000000e+05 -9.433469134191e-150 1.000000000000e-06 
1.810000000000e+07 1.000000000000e+05 1.278919114444e-149 1.000000000000e-06 
1.820000000000e+07 1.000000000000e+05 1.721388741122e-148 1.000000000000e-06 
1.830000000000e+07 1.000000000000e+05 -4.144367141978e-148 1.000000000000e-06 
1.840000000000e+07 1.000000000000e+05 -3.065907701779e-147 1.000000000000e-06 
1.850000000000e+07 1.000000000000e+05 1.017292599096e-146 1.000000000000e-06 
1.860000000000e+07 1.000000000000e+05 5.531411969878e-146 1.000000000000e-06 
1.870000000000e+07 1.000000000000e+05 -2.210048765429e-145 1.000000000000e-06 
1.880000000000e+07 1.000000000000e+05 -1.041185133471e-144 1.000000000000e-06 
1.890000000000e+07 1.000000000000e+05 4.452954549523e-144 1.000000000000e-06 
1.900000000000e+07 1.000000000000e+05 2.075993530239e-143 1.000000000000e-06 
1.910000000000e+07 1.000000000000e+05 -8.405239991396e-143 1.000000000000e-06 
1.920000000000e+07 1.000000000000e+05 -4.363958897750e-142 1.000000000000e-06 
1.930000000000e+07 1.000000000000e+05 1.462058138184e-141 1.000000000000e-06 
1.940000000000e+07 1.000000000000e+05 9.463343215748e-141 1.000000000000e-06 
1.950000000000e+07 1.000000000000e+05 -2.211758414695e-140 1.000000000000e-06 
1.960000000000e+07 1.000000000000e+05 -2.053702148586e-139 1.000000000000e-06 
1.970000000000e+07 1.000000000000e+05 2.377597373300e-139 1.000000000000e-06 
1.980000000000e+07 1.000000000000e+05 4.313818817740e-138 1.000000000000e-06 
1.990000000000e+07 1.000000000000e+05 5.643502751920e-139 1.000000000000e-06 
2.000000000000e+07 1.000000000000e+05 -8.439777257749e-137 1.000000000000e-06 
2.010000000000e+07 1.000000000000e+05 -1.347468225110e-136 1.000000000000e-06 
2.020000000000e+07 1.000000000000e+05 1.452495242898e-135 1.000000000000e-06 
2.030000000000e+07 1.000000000000e+05 5.137448028663e-135 1.000000000000e-06 
2.040000000000e+07 1.000000000000e+05 -1.930533131301e-134 1.000000000000e-06 
2.050000000000e+07 1.000000000000e+05 -1.389186274825e-133 1.000000000000e-06 
2.060000000000e+07 1.000000000000e+05 9.527516785711e-134 1.000000000000e-06 
2.070000000000e+07 1.000000000000e+05 2.950077162539e-132 1.000000000000e-06 
2.080000000000e+07 1.000000000000e+05 4.866786505475e-132 1.000000000000e-06 
2.090000000000e+07 1.000000000000e+05 -4.657251774348e-131 1.000000000000e-06 
2.100000000000e+07 1.000000000000e+05 -2.131175051859e-130 1.000000000000e-06 
2.110000000000e+07 1.000000000000e+05 3.606628172900e-130 1.000000000000e-06 
2.120000000000e+07 1.000000000000e+05 5.194633572975e-129 1.000000000000e-06 
2.130000000000e+07 1.000000000000e+05 7.639750834475e-129 1.000000000000e-06 
2.140000000000e+07 1.000000000000e+05 -8.006213559058e-128 1.000000000000e-06 
2.150000000000e+07 1.000000000000e+05 -3.956033364066e-127 1.000000000000e-06 
2.160000000000e+07 1.000000000000e+05 3.303920982459e-127 1.000000000000e-06 
2.170000000000e+07 1.000000000000e+05 8.893657770975e-126 1.000000000000e-06 
2.180000000000e+07 1.000000000000e+05 2.345307306719e-125 1.000000000000e-06 
2.190000000000e+07 1.000000000000e+05 -9.421627191860e-125 1.000000000000e-06 
2.200000000000e+07 1.000000000000e+05 -8.002004316764e-124 1.000000000000e-06 
2.210000000000e+07 1.000000000000e+05 -1.080811894457e-123 1.000000000000e-06 
2.220000000000e+07 1.000000000000e+05 1.172691211529e-122 1.000000000000e-06 
2.230000000000e+07 1.000000000000e+05 6.680703147036e-122 1.000000000000e-06 
2.240000000000e+07 1.000000000000e+05 3.381649431293e-122 1.000000000000e-06 
2.250000000000e+07 1.000000000000e+05 -1.182297967982e-120 1.000000000000e-06 
2.260000000000e+07 1.000000000000e+05 -5.596351765624e-120 1.000000000000e-06 
2.270000000000e+07 1.000000000000e+05 -5.011818208244e-121 1.000000000000e-06 
2.280000000000e+07 1.000000000000e+05 1.084007195323e-118 1.000000000000e-06 
2.290000000000e+07 1.000000000000e+05 4.926023316947e-118 1.000000000000e-06 
2.300000000000e+07 1.000000000000e+05 9.726181254967e-119 1.000000000000e-06 
2.310000000000e+07 1.000000000000e+05 -9.283764151475e-117 1.000000000000e-06 
2.320000000000e+07 1.000000000000e+05 -4.583553297339e-116 1.000000000000e-06 
2.330000000000e+07 1.000000000000e+05 -3.749039384846e-116 1.000000000000e-06 
2.340000000000e+07 1.000000000000e+05 7.217865130795e-115 1.000000000000e-06 
2.350000000000e+07 1.000000000000e+05 4.350090650583e-114 1.000000000000e-06 
2.360000000000e+07 1.000000000000e+05 7.870042518604e-114 1.000000000000e-06 
2.370000000000e+07 1.000000000000e+05 -4.524497845427e-113 1.000000000000e-06 
2.380000000000e+07 1.000000000000e+05 -3.937118439984e-112 1.000000000000e-06 
2.390000000000e+07 1.000000000000e+05 -1.211902026514e-111 1.000000000000e-06 
2.400000000000e+07 1.000000000000e+05 1.195767048028e-111 1.000000000000e-06 
2.410000000000e+07 1.000000000000e+05 3.055842960456e-110 1.000000000000e-06 
2.420000000000e+07 1.000000000000e+05 1.476203939376e-109 1.000000000000e-06 
2.430000000000e+07 1.000000000000e+05 2.354990949163e-109 1.000000000000e-06 
2.440000000000e+07 1.000000000000e+05 -1.559556967380e-108 1.000000000000e-06 
2.450000000000e+07 1.000000000000e+05 -1.378356438627e-107 1.000000000000e-06 
2.460000000000e+07 1.000000000000e+05 -5.095727893428e-107 1.000000000000e-06 
2.470000000000e+07 1.000000000000e+05 -3.396577528106e-107 1.000000000000e-06 
2.480000000000e+07 1.000000000000e+05 8.005515458573e-106 1.000000000000e-06 
2.490000000000e+07 1.000000000000e+05 5.614498351658e-105 1.000000000000e-06 
2.500000000000e+07 1.000000000000e+05 1.927821291713e-104 1.000000000000e-06 
2.510000000000e+07 1.000000000000e+05 1.103240426032e-104 1.000000000000e-06 
2.520000000000e+07 1.000000000000e+05 -3.105248066981e-103 1.000000000000e-06 
2.530000000000e+07 1.000000000000e+05 -2.232189438189e-102 1.000000000000e-06 
2.540000000000e+07 1.000000000000e+05 -8.506976420373e-102 1.000000000000e-06 
2.550000000000e+07 1.000000000000e+05 -1.232270385102e-101 1.000000000000e-06 
2.560000000000e+07 1.000000000000e+05 8.552388319459e-101 1.000000000000e-06 
2.570000000000e+07 1.000000000000e+05 8.242223976481e-100 1.000000000000e-06 
2.580000000000e+07 1.000000000000e+05 3.963923583960e-99 1.000000000000e-06 
2.590000000000e+07 1.000000000000e+05 1.118726445921e-98 1.000000000000e-06 
2.600000000000e+07 1.000000000000e+05 -7.293800511878e-102 1.000000000000e-06 
2.610000000000e+07 1.000000000000e+05 -2.213398591247e-97 1.000000000000e-06 
2.620000000000e+07 1.000000000000e+05 -1.582837345887e-96 1.000000000000e-06 
2.630000000000e+07 1.000000000000e+05 -7.054381694061e-96 1.000000000000e-06 
2.640000000000e+07 1.000000000000e+05 -2.014020687722e-95 1.000000000000e-06 
2.650000000000e+07 1.000000000000e+05 -8.752714928219e-96 1.000000000000e-06 
2.660000000000e+07 1.000000000000e+05 3.333754870378e-94 1.000000000000e-06 
2.670000000000e+07 1.000000000000e+05 2.674253576934e-93 1.000000000000e-06 
2.680000000000e+07 1.000000000000e+05 1.365080256135e-92 1.000000000000e-06 
2.690000000000e+07 1.000000000000e+05 5.136715695431e-92 1.000000000000e-06 
2.700000000000e+07 1.000000000000e+05 1.257691136599e-91 1.000000000000e-06 
2.710000000000e+07 1.000000000000e+05 -3.869205606136e-92 1.000000000000e-06 
2.720000000000e+07 1.000000000000e+05 -2.791863937007e-90 1.000000000000e-06 
2.730000000000e+07 1.000000000000e+05 -2.130670260318e-89 1.000000000000e-06 
2.740000000000e+07 1.000000000000e+05 -1.146019559972e-88 1.000000000000e-06 
2.750000000000e+07 1.000000000000e+05 -4.993860985164e-88 1.000000000000e-06 
2.760000000000e+07 1.000000000000e+05 -1.777787264217e-87 1.000000000000e-06 
2.770000000000e+07 1.000000000000e+05 -4.633699654559e-87 1.000000000000e-06 
2.780000000000e+07 1.000000000000e+05 -2.948619587505e-87 1.000000000000e-06 
2.790000000000e+07 1.000000000000e+05 6.725127355230e-86 1.000000000000e-06 
2.800000000000e+07 1.000000000000e+05 6.202312531600e-85 1.000000000000e-06 
2.810000000000e+07 1.000000000000e+05 3.889614466009e-84 1.000000000000e-06 
2.820000000000e+07 1.000000000000e+05 2.070474918998e-83 1.000000000000e-06 
2.830000000000e+07 1.000000000000e+05 9.984389544308e-83 1.000000000000e-06 
2.840000000000e+07 1.000000000000e+05 4.489978567913e-82 1.000000000000e-06 
2.850000000000e+07 1.000000000000e+05 1.912983751354e-81 1.000000000000e-06 
2.860000000000e+07 1.000000000000e+05 7.797937651258e-81 1.000000000000e-06 
2.870000000000e+07 1.000000000000e+05 3.061413674183e-80 1.000000000000e-06 
2.880000000000e+07 1.000000000000e+05 1.163053315520e-79 1.000000000000e-06 
2.890000000000e+07 1.000000000000e+05 4.291043109297e-79 1.000000000000e-06 
2.900000000000e+07 1.000000000000e+05 1.541773856234e-78 1.000000000000e-06 
2.910000000000e+07 1.000000000000e+05 5.406837780355e-78 1.000000000000e-06 
2.920000000000e+07 1.000000000000e+05 1.854078793606e-77 1.000000000000e-06 
2.930000000000e+07 1.000000000000e+05 6.226488699782e-77 1.000000000000e-06 
2.940000000000e+07 1.000000000000e+05 2.050487723288e-76 1.000000000000e-06 
2.950000000000e+07 1.000000000000e+05 6.629199650863e-76 1.000000000000e-06 
2.960000000000e+07 1.000000000000e+05 2.106123597272e-75 1.000000000000e-06 
2.970000000000e+07 1.000000000000e+05 6.581181433427e-75 1.000000000000e-06 
2.980000000000e+07 1.000000000000e+05 2.024221349202e-74 1.000000000000e-06 
2.990000000000e+07 1.000000000000e+05 6.132654263076e-74 1.000000000000e-06 
3.000000000000e+07 1.000000000000e+05 1.831252751657e-73 1.000000000000e-06 
3.010000000000e+07 1.000000000000e+05 5.392690700628e-73 1.000000000000e-06 
3.020000000000e+07 1.000000000000e+05 1.566920014541e-72 1.000000000000e-06 
3.030000000000e+07 1.000000000000e+05 4.494489547516e-72 1.000000000000e-06 
3.040000000000e+07 1.000000000000e+05 1.273204316378e-71 1.000000000000e-06 
3.050000000000e+07 1.000000000000e+05 3.563507998896e-71 1.000000000000e-06 
3.060000000000e+07 1.000000000000e+05 9.857900652123e-71 1.000000000000e-06 
3.070000000000e+07 1.000000000000e+05 2.696324630427e-70 1.000000000000e-06 
3.080000000000e+07 1.000000000000e+05 7.294322460544e-70 1.000000000000e-06 
3.090000000000e+07 1.000000000000e+05 1.952350583221e-69 1.000000000000e-06 
3.100000000000e+07 1.000000000000e+05 5.171513634808e-69 1.000000000000e-06 
3.110000000000e+07 1.000000000000e+05 1.356076519720e-68 1.000000000000e-06 
3.120000000000e+07 1.000000000000e+05 3.521035161819e-68 1.000000000000e-06 
3.130000000000e+07 1.000000000000e+05 9.054888356231e-68 1.000000000000e-06 
3.140000000000e+07 1.000000000000e+05 2.306873579299e-67 1.000000000000e-06 
3.150000000000e+07 1.000000000000e+05 5.823562568390e-67 1.000000000000e-06 
3.160000000000e+07 1.000000000000e+05 1.457033612276e-66 1.000000000000e-06 
3.170000000000e+07 1.000000000000e+05 3.613712260926e-66 1.000000000000e-06 
3.180000000000e+07 1.000000000000e+05 8.886362956450e-66 1.000000000000e-06 
3.190000000000e+07 1.000000000000e+05 2.167008470130e-65 1.000000000000e-06 
3.200000000000e+07 1.000000000000e+05 5.241304782562e-65 1.000000000000e-06 
3.210000000000e+07 1.000000000000e+05 1.257573633499e-64 1.000000000000e-06 
3.220000000000e+07 1.000000000000e+05 2.993729818841e-64 1.000000000000e-06 
3.230000000000e+07 1.000000000000e+05 7.072030552809e-64 1.000000000000e-06 
3.240000000000e+07 1.000000000000e+05 1.658030654832e-63 1.000000000000e-06 
3.250000000000e+07 1.000000000000e+05 3.858513180585e-63 1.000000000000e-06 
3.260000000000e+07 1.000000000000e+05 8.914278967386e-63 1.000000000000e-06 
3.270000000000e+07 1.000000000000e+05 2.044790786888e-62 1.000000000000e-06 
3.280000000000e+07 1.000000000000e+05 4.657614544373e-62 1.000000000000e-06 
3.290000000000e+07 1.000000000000e+05 1.053619656515e-61 1.000000000000e-06 
3.300000000000e+07 1.000000000000e+05 2.367345609562e-61 1.000000000000e-06 
3.310000000000e+07 1.000000000000e+05 5.283808230894e-61 1.000000000000e-06 
3.320000000000e+07 1.000000000000e+05 1.171624579277e-60 1.000000000000e-06 
3.330000000000e+07 1.000000000000e+05 2.581266590666e-60 1.000000000000e-06 
3.340000000000e+07 1.000000000000e+05 5.651004426619e-60 1.000000000000e-06 
3.350000000000e+07 1.000000000000e+05 1.229450017717e-59 1.000000000000e-06 
3.360000000000e+07 1.000000000000e+05 2.658466922106e-59 1.000000000000e-06 
3.370000000000e+07 1.000000000000e+05 5.713842170868e-59 1.000000000000e-06 
3.380000000000e+07 1.000000000000e+05 1.220793048964e-58 1.000000000000e-06 
3.390000000000e+07 1.000000000000e+05 2.593055210805e-58 1.000000000000e-06 
3.400000000000e+07 1.000000000000e+05 5.476150378323e-58 1.000000000000e-06 
3.410000000000e+07 1.000000000000e+05 1.149925693539e-57 1.000000000000e-06 
3.420000000000e+07 1.000000000000e+05 2.401214279981e-57 1.000000000000e-06 
3.430000000000e+07 1.000000000000e+05 4.986476045237e-57 1.000000000000e-06 
3.440000000000e+07 1.000000000000e+05 1.029893376656e-56 1.000000000000e-06 
3.450000000000e+07 1.000000000000e+05 2.115727077499e-56 1.000000000000e-06 
3.460000000000e+07 1.000000000000e+05 4.323427362685e-56 1.000000000000e-06 
3.470000000000e+07 1.000000000000e+05 8.788794485365e-56 1.000000000000e-06 
3.480000000000e+07 1.000000000000e+05 1.777435146093e-55 1.000000000000e-06 
3.490000000000e+07 1.000000000000e+05 3.576444319184e-55 1.000000000000e-06 
3.500000000000e+07 1.000000000000e+05 7.160306883686e-55 1.000000000000e-06 
3.510000000000e+07 1.000000000000e+05 1.426470462076e-54 1.000000000000e-06 
3.520000000000e+07 1.000000000000e+05 2.827956678297e-54 1.000000000000e-06 
3.530000000000e+07 1.000000000000e+05 5.579415937831e-54 1.000000000000e-06 
3.540000000000e+07 1.000000000000e+05 1.095562891583e-53 1.000000000000e-06 
3.550000000000e+07 1.000000000000e+05 2.141136946528e-53 1.000000000000e-06 
3.560000000000e+07 1.000000000000e+05 4.165196757977e-53 1.000000000000e-06 
3.570000000000e+07 1.000000000000e+05 8.065575629310e-53 1.000000000000e-06 
3.580000000000e+07 1.000000000000e+05 1.554777573044e-52 1.000000000000e-06 
3.590000000000e+07 1.000000000000e+05 2.983719413011e-52 1.000000000000e-06 
3.600000000000e+07 1.000000000000e+05 5.700694366577e-52 1.000000000000e-06 
3.610000000000e+07 1.000000000000e+05 1.084427101331e-51 1.000000000000e-06 
3.620000000000e+07 1.000000000000e+05 2.053988854202e-51 1.000000000000e-06 
3.630000000000e+07 1.000000000000e+05 3.873849511871e-51 1.000000000000e-06 
3.640000000000e+07 1.000000000000e+05 7.275380885884e-51 1.000000000000e-06 
3.650000000000e+07 1.000000000000e+05 1.360686268106e-50 1.000000000000e-06 
3.660000000000e+07 1.000000000000e+05 2.534370362170e-50 1.000000000000e-06 
3.670000000000e+07 1.000000000000e+05 4.701236516936e-50 1.000000000000e-06 
3.680000000000e+07 1.000000000000e+05 8.685679432406e-50 1.000000000000e-06 
3.690000000000e+07 1.000000000000e+05 1.598322900414e-49 1.000000000000e-06 
3.700000000000e+07 1.000000000000e+05 2.929633280577e-49 1.000000000000e-06 
3.710000000000e+07 1.000000000000e+05 5.348951204001e-49 1.000000000000e-06 
3.720000000000e+07 1.000000000000e+05 9.728568087703e-49 1.000000000000e-06 
3.730000000000e+07 1.000000000000e+05 1.762674231113e-48 1.000000000000e-06 
3.740000000000e+07 1.000000000000e+05 3.181673707961e-48 1.000000000000e-06 
3.750000000000e+07 1.000000000000e+05 5.721592948704e-48 1.000000000000e-06 
3.760000000000e+07 1.000000000000e+05 1.025115930579e-47 1.000000000000e-06 
3.770000000000e+07 1.000000000000e+05 1.829954883523e-47 1.000000000000e-06 
3.780000000000e+07 1.000000000000e+05 3.254884110402e-47 1.000000000000e-06 
3.790000000000e+07 1.000000000000e+05 5.768654259829e-47 1.000000000000e-06 
3.800000000000e+07 1.000000000000e+05 1.018762918525e-46 1.000000000000e-06 
3.810000000000e+07 1.000000000000e+05 1.792862227063e-46 1.000000000000e-06 
3.820000000000e+07 1.000000000000e+05 3.144207089680e-46 1.000000000000e-06 