VARIABLES  = "X","Y","Z", "PRESSURE1"
ZONE T="0.000000000000e+00s", N=20, E=24, F=FEPOINT, ET=QUADRILATERAL
STRANDID=1, SOLUTIONTIME=0.000000000000e+00
0.000000000000e+00 0.000000000000e+00 0.000000000000e+00 0.000000000000e+00 
1.000000000000e+00 0.000000000000e+00 0.000000000000e+00 0.000000000000e+00 
2.000000000000e+00 0.000000000000e+00 0.000000000000e+00 0.000000000000e+00 
3.000000000000e+00 0.000000000000e+00 0.000000000000e+00 0.000000000000e+00 
4.000000000000e+00 0.000000000000e+00 0.000000000000e+00 0.000000000000e+00 
0.000000000000e+00 1.000000000000e+00 0.000000000000e+00 0.000000000000e+00 
1.000000000000e+00 1.000000000000e+00 0.000000000000e+00 0.000000000000e+00 
2.000000000000e+00 1.000000000000e+00 0.000000000000e+00 0.000000000000e+00 
3.000000000000e+00 1.000000000000e+00 0.000000000000e+00 0.000000000000e+00 
4.000000000000e+00 1.000000000000e+00 0.000000000000e+00 0.000000000000e+00 
0.000000000000e+00 2.000000000000e+00 0.000000000000e+00 0.000000000000e+00 
1.000000000000e+00 2.000000000000e+00 0.000000000000e+00 0.000000000000e+00 
2.000000000000e+00 2.000000000000e+00 0.000000000000e+00 0.000000000000e+00 
3.000000000000e+00 2.000000000000e+00 0.000000000000e+00 0.000000000000e+00 
4.000000000000e+00 2.000000000000e+00 0.000000000000e+00 0.000000000000e+00 
0.000000000000e+00 3.000000000000e+00 0.000000000000e+00 0.000000000000e+00 
1.000000000000e+00 3.000000000000e+00 0.000000000000e+00 0.000000000000e+00 
2.000000000000e+00 3.000000000000e+00 0.000000000000e+00 0.000000000000e+00 
3.000000000000e+00 3.000000000000e+00 0.000000000000e+00 0.000000000000e+00 
4.000000000000e+00 3.000000000000e+00 0.000000000000e+00 0.000000000000e+00 
1  7  6  1
1  2  7  1
2  3  7  2
3  8  7  3
3  4  9  3
3  9  8  3
4  5  9  4
5  10  9  5
6  7  11  6
7  12  11  7
7  8  13  7
7  13  12  7
8  9  13  8
9  14  13  9
9  10  15  9
9  15  14  9
11  12  17  11
11  17  16  11
12  13  17  12
13  18  17  13
13  14  19  13
13  19  18  13
14  15  19  14
15  20  19  15
VARIABLES  = "X","Y","Z", "PRESSURE1"
ZONE T="8.640000000000e+04s", N=20, E=24, F=FEPOINT, ET=QUADRILATERAL
STRANDID=1, SOLUTIONTIME=8.640000000000e+04
0.000000000000e+00 0.000000000000e+00 0.000000000000e+00 0.000000000000e+00 
1.000000000000e+00 0.000000000000e+00 0.000000000000e+00 0.000000000000e+00 
2.000000000000e+00 0.000000000000e+00 0.000000000000e+00 0.000000000000e+00 
3.000000000000e+00 0.000000000000e+00 0.000000000000e+00 3.200000000000e+03 
4.000000000000e+00 0.000000000000e+00 0.000000000000e+00 2.000000000000e+04 
0.000000000000e+00 1.000000000000e+00 0.000000000000e+00 0.000000000000e+00 
1.000000000000e+00 1.000000000000e+00 0.000000000000e+00 0.000000000000e+00 
2.000000000000e+00 1.000000000000e+00 0.000000000000e+00 0.000000000000e+00 
3.000000000000e+00 1.000000000000e+00 0.000000000000e+00 0.000000000000e+00 
4.000000000000e+00 1.000000000000e+00 0.000000000000e+00 3.200000000000e+03 
0.000000000000e+00 2.000000000000e+00 0.000000000000e+00 0.000000000000e+00 
1.000000000000e+00 2.000000000000e+00 0.000000000000e+00 0.000000000000e+00 
2.000000000000e+00 2.000000000000e+00 0.000000000000e+00 0.000000000000e+00 
3.000000000000e+00 2.000000000000e+00 0.000000000000e+00 0.000000000000e+00 
4.000000000000e+00 2.000000000000e+00 0.000000000000e+00 0.000000000000e+00 
0.000000000000e+00 3.000000000000e+00 0.000000000000e+00 0.000000000000e+00 
1.000000000000e+00 3.000000000000e+00 0.000000000000e+00 0.000000000000e+00 
2.000000000000e+00 3.000000000000e+00 0.000000000000e+00 0.000000000000e+00 
3.000000000000e+00 3.000000000000e+00 0.000000000000e+00 0.000000000000e+00 
4.000000000000e+00 3.000000000000e+00 0.000000000000e+00 0.000000000000e+00 
1  7  6  1
1  2  7  1
2  3  7  2
3  8  7  3
3  4  9  3
3  9  8  3
4  5  9  4
5  10  9  5
6  7  11  6
7  12  11  7
7  8  13  7
7  13  12  7
8  9  13  8
9  14  13  9
9  10  15  9
9  15  14  9
11  12  17  11
11  17  16  11
12  13  17  12
13  18  17  13
13  14  19  13
13  19  18  13
14  15  19  14
15  20  19  15
