 TITLE = "Time curves in points"
 VARIABLES = "TIME "  "PRESSURE1" 
 ZONE T="POINT=POINTOBS2"
0.000000000000e+00 0.000000000000e+00 
8.640000000000e-01 4.442064674393e+03 
1.728000000000e+00 4.859077271654e+03 
2.592000000000e+00 4.895466417180e+03 
3.456000000000e+00 4.892383283977e+03 
4.320000000000e+00 4.880010333074e+03 
5.184000000000e+00 4.859417365817e+03 
6.048000000000e+00 4.829323899105e+03 
6.912000000000e+00 4.788733221250e+03 
7.776000000000e+00 4.737145010607e+03 
8.640000000000e+00 4.674537214012e+03 
1.641600000000e+01 3.637423118225e+03 
2.419200000000e+01 2.417435993479e+03 
3.196800000000e+01 1.165019460511e+03 
3.974400000000e+01 -5.140408689358e+01 
4.752000000000e+01 -1.204684029758e+03 
5.529600000000e+01 -2.286812829937e+03 
6.307200000000e+01 -3.298539808257e+03 
7.084800000000e+01 -4.244165524448e+03 
7.862400000000e+01 -5.129208669791e+03 
8.640000000000e+01 -5.959388711864e+03 
1.641600000000e+02 -1.149117680032e+04 
2.419200000000e+02 -1.549810501373e+04 
3.196800000000e+02 -1.858725517538e+04 
3.974400000000e+02 -2.108002016182e+04 
4.752000000000e+02 -2.316058657561e+04 
5.529600000000e+02 -2.494171818836e+04 
6.307200000000e+02 -2.649660702015e+04 
7.084800000000e+02 -2.787528888658e+04 
7.862400000000e+02 -2.911281706412e+04 
8.640000000000e+02 -3.023498959510e+04 
1.641600000000e+03 -3.695239913951e+04 
2.419200000000e+03 -4.153391229587e+04 
3.196800000000e+03 -4.494394589696e+04 
3.974400000000e+03 -4.763593855369e+04 
4.752000000000e+03 -4.984803830786e+04 
5.529600000000e+03 -5.172303120867e+04 
6.307200000000e+03 -5.334872788112e+04 
7.084800000000e+03 -5.478134414493e+04 
7.862400000000e+03 -5.606067654878e+04 
8.640000000000e+03 -5.721866026343e+04 
1.641600000000e+04 -6.406732743939e+04 
2.419200000000e+04 -6.871284162804e+04 
3.196800000000e+04 -7.215518232045e+04 
3.974400000000e+04 -7.487343539957e+04 
4.752000000000e+04 -7.709204952371e+04 
5.529600000000e+04 -7.897763097913e+04 
6.307200000000e+04 -8.060394465468e+04 
7.084800000000e+04 -8.204356023549e+04 
7.862400000000e+04 -8.332322738227e+04 
8.640000000000e+04 -8.448761973862e+04 
1.641600000000e+05 -9.122905427995e+04 
2.419200000000e+05 -9.557035138646e+04 
3.196800000000e+05 -9.849546277343e+04 
3.974400000000e+05 -1.005173461047e+05 
4.752000000000e+05 -1.019368880145e+05 
5.529600000000e+05 -1.029327941109e+05 
6.307200000000e+05 -1.036372232737e+05 
7.084800000000e+05 -1.041279347884e+05 
7.862400000000e+05 -1.044475628553e+05 
8.640000000000e+05 -1.046955981249e+05 
