 TITLE = "Time curves in points"
 VARIABLES = "TIME "  "PRESSURE1" 
 ZONE T="POINT=POINTOBS1"
0.000000000000e+00 0.000000000000e+00 
8.640000000000e-01 -4.442369223886e+03 
1.728000000000e+00 -4.861202617477e+03 
2.592000000000e+00 -4.903449753820e+03 
3.456000000000e+00 -4.913930949386e+03 
4.320000000000e+00 -4.926999896221e+03 
5.184000000000e+00 -4.947658339174e+03 
6.048000000000e+00 -4.977757965855e+03 
6.912000000000e+00 -5.018349704395e+03 
7.776000000000e+00 -5.069937956394e+03 
8.640000000000e+00 -5.132545670632e+03 
1.641600000000e+01 -6.169659819818e+03 
2.419200000000e+01 -7.389647188517e+03 
3.196800000000e+01 -8.642063383142e+03 
3.974400000000e+01 -9.858487489968e+03 
4.752000000000e+01 -1.101176572447e+04 
5.529600000000e+01 -1.209389529120e+04 
6.307200000000e+01 -1.310562280328e+04 
7.084800000000e+01 -1.405124801228e+04 
7.862400000000e+01 -1.493628978763e+04 
8.640000000000e+01 -1.576647178446e+04 
1.641600000000e+02 -2.129825939080e+04 
2.419200000000e+02 -2.530518704572e+04 
3.196800000000e+02 -2.839433658930e+04 
3.974400000000e+02 -3.088710260779e+04 
4.752000000000e+02 -3.296766966706e+04 
5.529600000000e+02 -3.474880072063e+04 
6.307200000000e+02 -3.630369062030e+04 
7.084800000000e+02 -3.768237066478e+04 
7.862400000000e+02 -3.891990002445e+04 
8.640000000000e+02 -4.004207300826e+04 
1.641600000000e+03 -4.675948122793e+04 
2.419200000000e+03 -5.134099530390e+04 
3.196800000000e+03 -5.475102938021e+04 
3.974400000000e+03 -5.744302066869e+04 
4.752000000000e+03 -5.965512233300e+04 
5.529600000000e+03 -6.153011573807e+04 
6.307200000000e+03 -6.315581190571e+04 
7.084800000000e+03 -6.458842621104e+04 
7.862400000000e+03 -6.586776133912e+04 
8.640000000000e+03 -6.702574295647e+04 
1.641600000000e+04 -7.387441115594e+04 
2.419200000000e+04 -7.851992522072e+04 
3.196800000000e+04 -8.196226514550e+04 
3.974400000000e+04 -8.468051765258e+04 
4.752000000000e+04 -8.689913319471e+04 
5.529600000000e+04 -8.878471432192e+04 
6.307200000000e+04 -9.041102892487e+04 
7.084800000000e+04 -9.185064459108e+04 
7.862400000000e+04 -9.313031290644e+04 
8.640000000000e+04 -9.429470248709e+04 
1.641600000000e+05 -1.010361375656e+05 
2.419200000000e+05 -1.053774341607e+05 
3.196800000000e+05 -1.083025451155e+05 
3.974400000000e+05 -1.103244289992e+05 
4.752000000000e+05 -1.117439701714e+05 
5.529600000000e+05 -1.127398795255e+05 
6.307200000000e+05 -1.134443052042e+05 
7.084800000000e+05 -1.139350185553e+05 
7.862400000000e+05 -1.142546496401e+05 
8.640000000000e+05 -1.145026823446e+05 
