<?xml version="1.0"?>
<!-- Time step: 11830 | Time: 5.000000000000e+03 -->
<VTKFile type="UnstructuredGrid" version="0.1" byte_order="LittleEndian">
  <UnstructuredGrid>
    <Piece NumberOfPoints="93" NumberOfCells="60">
      <Points>
        <DataArray type="Float64" NumberOfComponents="3" format="ascii">
          0.000000000000e+00 0.000000000000e+00 0.000000000000e+00
          4.000000000000e-03 0.000000000000e+00 0.000000000000e+00
          4.000000000000e-03 5.000000000000e-03 0.000000000000e+00
          0.000000000000e+00 5.000000000000e-03 0.000000000000e+00
          4.000000000000e-03 1.000000000000e-02 0.000000000000e+00
          0.000000000000e+00 1.000000000000e-02 0.000000000000e+00
          7.714781516967e-03 0.000000000000e+00 0.000000000000e+00
          7.714781516967e-03 5.000000000000e-03 0.000000000000e+00
          7.714781516967e-03 1.000000000000e-02 0.000000000000e+00
          1.116468194667e-02 0.000000000000e+00 0.000000000000e+00
          1.116468194667e-02 5.000000000000e-03 0.000000000000e+00
          1.116468194667e-02 1.000000000000e-02 0.000000000000e+00
          1.436858853457e-02 0.000000000000e+00 0.000000000000e+00
          1.436858853457e-02 5.000000000000e-03 0.000000000000e+00
          1.436858853457e-02 1.000000000000e-02 0.000000000000e+00
          1.734404177828e-02 0.000000000000e+00 0.000000000000e+00
          1.734404177828e-02 5.000000000000e-03 0.000000000000e+00
          1.734404177828e-02 1.000000000000e-02 0.000000000000e+00
          2.010733145687e-02 0.000000000000e+00 0.000000000000e+00
          2.010733145687e-02 5.000000000000e-03 0.000000000000e+00
          2.010733145687e-02 1.000000000000e-02 0.000000000000e+00
          2.267358581288e-02 0.000000000000e+00 0.000000000000e+00
          2.267358581288e-02 5.000000000000e-03 0.000000000000e+00
          2.267358581288e-02 1.000000000000e-02 0.000000000000e+00
          2.505685437526e-02 0.000000000000e+00 0.000000000000e+00
          2.505685437526e-02 5.000000000000e-03 0.000000000000e+00
          2.505685437526e-02 1.000000000000e-02 0.000000000000e+00
          2.727018487664e-02 0.000000000000e+00 0.000000000000e+00
          2.727018487664e-02 5.000000000000e-03 0.000000000000e+00
          2.727018487664e-02 1.000000000000e-02 0.000000000000e+00
          2.932569468600e-02 0.000000000000e+00 0.000000000000e+00
          2.932569468600e-02 5.000000000000e-03 0.000000000000e+00
          2.932569468600e-02 1.000000000000e-02 0.000000000000e+00
          3.123463714795e-02 0.000000000000e+00 0.000000000000e+00
          3.123463714795e-02 5.000000000000e-03 0.000000000000e+00
          3.123463714795e-02 1.000000000000e-02 0.000000000000e+00
          3.300746319159e-02 0.000000000000e+00 0.000000000000e+00
          3.300746319159e-02 5.000000000000e-03 0.000000000000e+00
          3.300746319159e-02 1.000000000000e-02 0.000000000000e+00
          3.465387854652e-02 0.000000000000e+00 0.000000000000e+00
          3.465387854652e-02 5.000000000000e-03 0.000000000000e+00
          3.465387854652e-02 1.000000000000e-02 0.000000000000e+00
          3.618289687896e-02 0.000000000000e+00 0.000000000000e+00
          3.618289687896e-02 5.000000000000e-03 0.000000000000e+00
          3.618289687896e-02 1.000000000000e-02 0.000000000000e+00
          3.760288913907e-02 0.000000000000e+00 0.000000000000e+00
          3.760288913907e-02 5.000000000000e-03 0.000000000000e+00
          3.760288913907e-02 1.000000000000e-02 0.000000000000e+00
          3.892162938960e-02 0.000000000000e+00 0.000000000000e+00
          3.892162938960e-02 5.000000000000e-03 0.000000000000e+00
          3.892162938960e-02 1.000000000000e-02 0.000000000000e+00
          4.014633736668e-02 0.000000000000e+00 0.000000000000e+00
          4.014633736668e-02 5.000000000000e-03 0.000000000000e+00
          4.014633736668e-02 1.000000000000e-02 0.000000000000e+00
          4.128371800592e-02 0.000000000000e+00 0.000000000000e+00
          4.128371800592e-02 5.000000000000e-03 0.000000000000e+00
          4.128371800592e-02 1.000000000000e-02 0.000000000000e+00
          4.233999815001e-02 0.000000000000e+00 0.000000000000e+00
          4.233999815001e-02 5.000000000000e-03 0.000000000000e+00
          4.233999815001e-02 1.000000000000e-02 0.000000000000e+00
          4.332096063902e-02 0.000000000000e+00 0.000000000000e+00
          4.332096063902e-02 5.000000000000e-03 0.000000000000e+00
          4.332096063902e-02 1.000000000000e-02 0.000000000000e+00
          4.423197596978e-02 0.000000000000e+00 0.000000000000e+00
          4.423197596978e-02 5.000000000000e-03 0.000000000000e+00
          4.423197596978e-02 1.000000000000e-02 0.000000000000e+00
          4.507803169786e-02 0.000000000000e+00 0.000000000000e+00
          4.507803169786e-02 5.000000000000e-03 0.000000000000e+00
          4.507803169786e-02 1.000000000000e-02 0.000000000000e+00
          4.586375974312e-02 0.000000000000e+00 0.000000000000e+00
          4.586375974312e-02 5.000000000000e-03 0.000000000000e+00
          4.586375974312e-02 1.000000000000e-02 0.000000000000e+00
          4.659346174809e-02 0.000000000000e+00 0.000000000000e+00
          4.659346174809e-02 5.000000000000e-03 0.000000000000e+00
          4.659346174809e-02 1.000000000000e-02 0.000000000000e+00
          4.727113262833e-02 0.000000000000e+00 0.000000000000e+00
          4.727113262833e-02 5.000000000000e-03 0.000000000000e+00
          4.727113262833e-02 1.000000000000e-02 0.000000000000e+00
          4.790048244345e-02 0.000000000000e+00 0.000000000000e+00
          4.790048244345e-02 5.000000000000e-03 0.000000000000e+00
          4.790048244345e-02 1.000000000000e-02 0.000000000000e+00
          4.848495670869e-02 0.000000000000e+00 0.000000000000e+00
          4.848495670869e-02 5.000000000000e-03 0.000000000000e+00
          4.848495670869e-02 1.000000000000e-02 0.000000000000e+00
          4.902775525810e-02 0.000000000000e+00 0.000000000000e+00
          4.902775525810e-02 5.000000000000e-03 0.000000000000e+00
          4.902775525810e-02 1.000000000000e-02 0.000000000000e+00
          4.953184976279e-02 0.000000000000e+00 0.000000000000e+00
          4.953184976279e-02 5.000000000000e-03 0.000000000000e+00
          4.953184976279e-02 1.000000000000e-02 0.000000000000e+00
          5.000000000000e-02 0.000000000000e+00 0.000000000000e+00
          5.000000000000e-02 5.000000000000e-03 0.000000000000e+00
          5.000000000000e-02 1.000000000000e-02 0.000000000000e+00
        </DataArray>
      </Points>
      <Cells>
        <DataArray type="Int64" Name="connectivity" format="ascii">
          0 1 2 3 
          3 2 4 5 
          1 6 7 2 
          2 7 8 4 
          6 9 10 7 
          7 10 11 8 
          9 12 13 10 
          10 13 14 11 
          12 15 16 13 
          13 16 17 14 
          15 18 19 16 
          16 19 20 17 
          18 21 22 19 
          19 22 23 20 
          21 24 25 22 
          22 25 26 23 
          24 27 28 25 
          25 28 29 26 
          27 30 31 28 
          28 31 32 29 
          30 33 34 31 
          31 34 35 32 
          33 36 37 34 
          34 37 38 35 
          36 39 40 37 
          37 40 41 38 
          39 42 43 40 
          40 43 44 41 
          42 45 46 43 
          43 46 47 44 
          45 48 49 46 
          46 49 50 47 
          48 51 52 49 
          49 52 53 50 
          51 54 55 52 
          52 55 56 53 
          54 57 58 55 
          55 58 59 56 
          57 60 61 58 
          58 61 62 59 
          60 63 64 61 
          61 64 65 62 
          63 66 67 64 
          64 67 68 65 
          66 69 70 67 
          67 70 71 68 
          69 72 73 70 
          70 73 74 71 
          72 75 76 73 
          73 76 77 74 
          75 78 79 76 
          76 79 80 77 
          78 81 82 79 
          79 82 83 80 
          81 84 85 82 
          82 85 86 83 
          84 87 88 85 
          85 88 89 86 
          87 90 91 88 
          88 91 92 89 
        </DataArray>
        <DataArray type="Int64" Name="offsets" format="ascii">
          4 8 12 16 20 24 28 32 36 40 44 48 52 56 60 64 68 72 76 80 84 88 92 96 100 104 108 112 116 120 124 128 132 136 140 144 148 152 156 160 164 168 172 176 180 184 188 192 196 200 204 208 212 216 220 224 228 232 236 240 
        </DataArray>
        <DataArray type="UInt8" Name="types" format="ascii">
          9 9 9 9 9 9 9 9 9 9 9 9 9 9 9 9 9 9 9 9 9 9 9 9 9 9 9 9 9 9 9 9 9 9 9 9 9 9 9 9 9 9 9 9 9 9 9 9 9 9 9 9 9 9 9 9 9 9 9 9 
        </DataArray>
      </Cells>
      <PointData Scalars="PRESSURE1">
        <DataArray type="Float64" Name="PRESSURE1" format="ascii">
          1.256290919098e+05 1.256290919098e+05 1.256290919098e+05 1.256290919098e+05 1.256290919098e+05 1.256290919098e+05 1.256290919098e+05 1.256290919098e+05 1.256290919098e+05 1.256290919098e+05 1.256290919098e+05 1.256290919098e+05 1.256290919098e+05 1.256290919098e+05 1.256290919098e+05 1.256290919098e+05 1.256290919098e+05 1.256290919098e+05 1.256290919098e+05 1.256290919098e+05 1.256290919098e+05 1.256290919098e+05 1.256290919098e+05 1.256290919098e+05 1.256290919098e+05 1.256290919098e+05 1.256290919098e+05 1.256290919098e+05 1.256290919098e+05 1.256290919098e+05 1.256290919098e+05 1.256290919098e+05 1.256290919098e+05 1.256290919098e+05 1.256290919098e+05 1.256290919098e+05 1.256290919098e+05 1.256290919098e+05 1.256290919098e+05 1.256290919098e+05 1.256290919098e+05 1.256290919098e+05 1.256290919098e+05 1.256290919098e+05 1.256290919098e+05 1.256290919098e+05 1.256290919098e+05 1.256290919098e+05 1.256290919098e+05 1.256290919098e+05 1.256290919098e+05 1.256290919098e+05 1.256290919098e+05 1.256290919098e+05 1.256290919098e+05 1.256290919098e+05 1.256290919098e+05 1.256290919098e+05 1.256290919098e+05 1.256290919098e+05 1.256290919098e+05 1.256290919098e+05 1.256290919098e+05 1.256290919098e+05 1.256290919098e+05 1.256290919098e+05 1.256290919098e+05 1.256290919098e+05 1.256290919098e+05 1.256290919098e+05 1.256290919098e+05 1.256290919098e+05 1.256290919098e+05 1.256290919098e+05 1.256290919098e+05 1.256290919098e+05 1.256290919098e+05 1.256290919098e+05 1.256290919098e+05 1.256290919098e+05 1.256290919098e+05 1.256290919098e+05 1.256290919098e+05 1.256290919098e+05 1.256290919098e+05 1.256290919098e+05 1.256290919098e+05 1.256290919098e+05 1.256290919098e+05 1.256290919098e+05 1.256290919098e+05 1.256290919098e+05 1.256290919098e+05 
        </DataArray>
        <DataArray type="Float64" Name="TEMPERATURE1" format="ascii">
          3.681872131743e+02 3.681856211349e+02 3.681856211349e+02 3.681872131743e+02 3.681856211349e+02 3.681872131743e+02 3.681822646820e+02 3.681822646820e+02 3.681822646820e+02 3.681773499654e+02 3.681773499654e+02 3.681773499654e+02 3.681712129846e+02 3.681712129846e+02 3.681712129846e+02 3.681641505732e+02 3.681641505732e+02 3.681641505732e+02 3.681564135013e+02 3.681564135013e+02 3.681564135013e+02 3.681482106379e+02 3.681482106379e+02 3.681482106379e+02 3.681397144465e+02 3.681397144465e+02 3.681397144465e+02 3.681310662322e+02 3.681310662322e+02 3.681310662322e+02 3.681223808213e+02 3.681223808213e+02 3.681223808213e+02 3.681137506387e+02 3.681137506387e+02 3.681137506387e+02 3.681052492246e+02 3.681052492246e+02 3.681052492246e+02 3.680969342522e+02 3.680969342522e+02 3.680969342522e+02 3.680888501089e+02 3.680888501089e+02 3.680888501089e+02 3.680810300975e+02 3.680810300975e+02 3.680810300975e+02 3.680734983120e+02 3.680734983120e+02 3.680734983120e+02 3.680662712307e+02 3.680662712307e+02 3.680662712307e+02 3.680593590690e+02 3.680593590690e+02 3.680593590690e+02 3.680527669238e+02 3.680527669238e+02 3.680527669238e+02 3.680464957418e+02 3.680464957418e+02 3.680464957418e+02 3.680405431355e+02 3.680405431355e+02 3.680405431355e+02 3.680349040695e+02 3.680349040695e+02 3.680349040695e+02 3.680295714370e+02 3.680295714370e+02 3.680295714370e+02 3.680245365413e+02 3.680245365413e+02 3.680245365413e+02 3.680197894972e+02 3.680197894972e+02 3.680197894972e+02 3.680153195647e+02 3.680153195647e+02 3.680153195647e+02 3.680111154240e+02 3.680111154240e+02 3.680111154240e+02 3.680071654023e+02 3.680071654023e+02 3.680071654023e+02 3.680034576578e+02 3.680034576578e+02 3.680034576579e+02 3.679999803302e+02 3.679999803302e+02 3.679999803302e+02 
        </DataArray>
        <DataArray type="Float64" Name="CONCENTRATION1" format="ascii">
          0.000000000000e+00 0.000000000000e+00 0.000000000000e+00 0.000000000000e+00 0.000000000000e+00 0.000000000000e+00 0.000000000000e+00 0.000000000000e+00 0.000000000000e+00 0.000000000000e+00 0.000000000000e+00 0.000000000000e+00 0.000000000000e+00 0.000000000000e+00 0.000000000000e+00 0.000000000000e+00 0.000000000000e+00 0.000000000000e+00 0.000000000000e+00 0.000000000000e+00 0.000000000000e+00 0.000000000000e+00 0.000000000000e+00 0.000000000000e+00 0.000000000000e+00 0.000000000000e+00 0.000000000000e+00 0.000000000000e+00 0.000000000000e+00 0.000000000000e+00 0.000000000000e+00 0.000000000000e+00 0.000000000000e+00 0.000000000000e+00 0.000000000000e+00 0.000000000000e+00 0.000000000000e+00 0.000000000000e+00 0.000000000000e+00 0.000000000000e+00 0.000000000000e+00 0.000000000000e+00 0.000000000000e+00 0.000000000000e+00 0.000000000000e+00 0.000000000000e+00 0.000000000000e+00 0.000000000000e+00 0.000000000000e+00 0.000000000000e+00 0.000000000000e+00 0.000000000000e+00 0.000000000000e+00 0.000000000000e+00 0.000000000000e+00 0.000000000000e+00 0.000000000000e+00 0.000000000000e+00 0.000000000000e+00 0.000000000000e+00 0.000000000000e+00 0.000000000000e+00 0.000000000000e+00 0.000000000000e+00 0.000000000000e+00 0.000000000000e+00 0.000000000000e+00 0.000000000000e+00 0.000000000000e+00 0.000000000000e+00 0.000000000000e+00 0.000000000000e+00 0.000000000000e+00 0.000000000000e+00 0.000000000000e+00 0.000000000000e+00 0.000000000000e+00 0.000000000000e+00 0.000000000000e+00 0.000000000000e+00 0.000000000000e+00 0.000000000000e+00 0.000000000000e+00 0.000000000000e+00 0.000000000000e+00 0.000000000000e+00 0.000000000000e+00 0.000000000000e+00 0.000000000000e+00 0.000000000000e+00 0.000000000000e+00 0.000000000000e+00 0.000000000000e+00 
        </DataArray>
      </PointData>
      <CellData>
      </CellData>
    </Piece>
  </UnstructuredGrid>
</VTKFile>
