 TITLE = "Time curves in points"
 VARIABLES = "TIME "  "DISPLACEMENT_X1"  "DISPLACEMENT_Y1"  "DISPLACEMENT_Z1"  "STRESS_XX"  "STRESS_XY"  "STRESS_YY"  "STRESS_ZZ"  "STRESS_XZ"  "STRESS_YZ"  "STRAIN_XX"  "STRAIN_XY"  "STRAIN_YY"  "STRAIN_ZZ"  "STRAIN_XZ"  "STRAIN_YZ"  "STRAIN_PLS"  p_(1st_Invariant)  q_(2nd_Invariant)   Effective_Strain
 ZONE T="POINT=POINT2"
0.000000000000e+00 0.000000000000e+00 0.000000000000e+00 0.000000000000e+00 0.000000000000e+00 0.000000000000e+00 0.000000000000e+00 0.000000000000e+00 0.000000000000e+00 0.000000000000e+00 0.000000000000e+00 0.000000000000e+00 0.000000000000e+00 0.000000000000e+00 0.000000000000e+00 0.000000000000e+00 0.000000000000e+00 -0.000000000000e+00 0.000000000000e+00  0.000000000000e+00
1.000000000000e+01 1.408809291938e-06 -1.000682908750e-06 0.000000000000e+00 1.999999999999e+05 -1.699874577042e-07 7.783226602473e-08 3.768440942430e+04 3.892052492012e-08 1.757641049180e-07 1.408809291939e-04 4.508201485087e-06 -1.045764923470e-04 3.652147583787e-16 1.607698899978e-16 1.010842477630e-15 0.000000000000e+00 -7.922813647476e+04 1.840739873767e+05  2.134888381572e-04
