 TITLE = "Time curves in points"
 VARIABLES = "TIME "  "DISPLACEMENT_X1"  "DISPLACEMENT_Y1"  "DISPLACEMENT_Z1"  "STRESS_XX"  "STRESS_XY"  "STRESS_YY"  "STRESS_ZZ"  "STRESS_XZ"  "STRESS_YZ"  "STRAIN_XX"  "STRAIN_XY"  "STRAIN_YY"  "STRAIN_ZZ"  "STRAIN_XZ"  "STRAIN_YZ"  "STRAIN_PLS"  p_(1st_Invariant)  q_(2nd_Invariant)   Effective_Strain
 ZONE T="POINT=POINT3"
0.000000000000e+00 0.000000000000e+00 0.000000000000e+00 0.000000000000e+00 0.000000000000e+00 0.000000000000e+00 0.000000000000e+00 0.000000000000e+00 0.000000000000e+00 0.000000000000e+00 0.000000000000e+00 0.000000000000e+00 0.000000000000e+00 0.000000000000e+00 0.000000000000e+00 0.000000000000e+00 0.000000000000e+00 -0.000000000000e+00 0.000000000000e+00  0.000000000000e+00
1.000000000000e+01 0.000000000000e+00 -1.045764923616e-06 0.000000000000e+00 1.999999999995e+05 1.348709427028e-07 -1.645422029615e-07 3.768440942392e+04 -3.750018165902e-09 -7.288886223483e-08 1.408809291938e-04 4.508201485907e-06 -1.045764923469e-04 3.255948486271e-17 -3.321767112493e-17 -4.152679464234e-16 0.000000000000e+00 -7.922813647442e+04 1.840739873766e+05  2.134888381571e-04
