 TITLE = "Time curves in points"
 VARIABLES = "TIME "  "DISPLACEMENT_X1"  "DISPLACEMENT_Y1"  "DISPLACEMENT_Z1"  "STRESS_XX"  "STRESS_XY"  "STRESS_YY"  "STRESS_ZZ"  "STRESS_XZ"  "STRESS_YZ"  "STRAIN_XX"  "STRAIN_XY"  "STRAIN_YY"  "STRAIN_ZZ"  "STRAIN_XZ"  "STRAIN_YZ"  "STRAIN_PLS"  p_(1st_Invariant)  q_(2nd_Invariant)   Effective_Strain
 ZONE T="POINT=POINT6"
0.000000000000e+00 0.000000000000e+00 0.000000000000e+00 0.000000000000e+00 0.000000000000e+00 0.000000000000e+00 0.000000000000e+00 0.000000000000e+00 0.000000000000e+00 0.000000000000e+00 0.000000000000e+00 0.000000000000e+00 0.000000000000e+00 0.000000000000e+00 0.000000000000e+00 0.000000000000e+00 0.000000000000e+00 -0.000000000000e+00 0.000000000000e+00  0.000000000000e+00
1.000000000000e+01 1.408809291938e-06 -1.000682908750e-06 0.000000000000e+00 1.999999999998e+05 -2.589529473051e-07 -2.752584175776e-07 3.768440942368e+04 -5.778564086246e-09 -2.155422300721e-07 1.408809291941e-04 4.508201484881e-06 -1.045764923470e-04 -3.055983883604e-16 -8.389031756185e-17 -1.226320959548e-15 0.000000000000e+00 -7.922813647440e+04 1.840739873770e+05  2.134888381574e-04
