 TITLE = "Time curves in points"
 VARIABLES = "TIME "  "PRESSURE1"  "PRESSURE2"  "PRESSURE_W"  "SATURATION1" SATURATION2  "VELOCITY_X1"  "VELOCITY_Y1"  "VELOCITY_X2"  "VELOCITY_Y2" 
 ZONE T="POINT=POINT4"
0.000000000000e+00 5.000000000000e+04 0.000000000000e+00 -5.000000000000e+04 1.000000000000e-02 9.900000000000e-01 0.000000000000e+00 0.000000000000e+00 0.000000000000e+00 0.000000000000e+00 
1.000000000000e+01 5.000000000000e+03 2.000000000000e+05 1.950000000000e+05 4.153274421488e-01 5.846725578512e-01 6.594387002550e-04 9.211482143783e-18 -5.606085273557e-05 -1.757543135227e-16 
7.000000000000e+01 5.000000000000e+03 2.000000000000e+05 1.950000000000e+05 8.601041578031e-01 1.398958421969e-01 1.978800321035e-03 6.286871769354e-17 1.064309454090e-04 -6.252661354232e-17 
1.130000000000e+02 5.000000000000e+03 2.000000000000e+05 1.950000000000e+05 9.523964309102e-01 4.760356908981e-02 6.076752141931e-04 -4.562443478453e-17 6.418189312971e-05 1.110232185582e-16 
1.517000000000e+02 5.000000000000e+03 2.000000000000e+05 1.950000000000e+05 9.704541895532e-01 2.954581044682e-02 2.705102963248e-04 1.319393243306e-17 3.568540243059e-05 3.225946557713e-17 
1.865300000000e+02 5.000000000000e+03 2.000000000000e+05 1.950000000000e+05 9.737861057961e-01 2.621389420390e-02 2.170053308278e-04 -1.185444898599e-17 3.012883162272e-05 2.498685288901e-17 
2.185940129892e+02 5.000000000000e+03 2.000000000000e+05 1.950000000000e+05 9.743085743930e-01 2.569142560702e-02 2.089947739772e-04 -5.034170921399e-17 2.926215773443e-05 6.005853386181e-17 
2.497595926382e+02 5.000000000000e+03 2.000000000000e+05 1.950000000000e+05 9.746350251015e-01 2.536497489850e-02 2.040455870382e-04 1.120779581926e-16 2.872174816181e-05 -4.676342746993e-17 
2.820777296934e+02 5.000000000000e+03 2.000000000000e+05 1.950000000000e+05 9.754669901293e-01 2.453300987069e-02 1.916325655927e-04 -2.143230906208e-17 2.734906659058e-05 -1.505694148323e-18 
3.910388648467e+02 5.000000000000e+03 2.000000000000e+05 1.950000000000e+05 9.790024388709e-01 2.099756112911e-02 1.423264402299e-04 9.370179056045e-17 2.162281089896e-05 -1.147987171157e-16 
5.000000000000e+02 5.000000000000e+03 2.000000000000e+05 1.950000000000e+05 9.806441390624e-01 1.935586093765e-02 1.214924650553e-04 -5.472915410598e-17 1.904867840947e-05 -2.297454927112e-17 
6.000000000000e+02 5.000000000000e+03 2.000000000000e+05 1.950000000000e+05 9.814112222844e-01 1.858877771560e-02 1.122410586066e-04 -8.549839263112e-17 1.787046798208e-05 4.414081359523e-17 
6.881340553101e+02 5.000000000000e+03 2.000000000000e+05 1.950000000000e+05 9.822413480426e-01 1.775865195742e-02 1.025893942420e-04 9.193444848596e-18 1.661563884534e-05 1.273462891053e-17 
7.716208697365e+02 5.000000000000e+03 2.000000000000e+05 1.950000000000e+05 9.830927493625e-01 1.690725063755e-02 9.308971643580e-05 -2.093187390127e-17 1.535270225385e-05 2.173423749407e-17 
1.000000000000e+03 5.000000000000e+03 2.000000000000e+05 1.950000000000e+05 9.842113276505e-01 1.578867234948e-02 8.124167139248e-05 2.645189203793e-17 1.373456610486e-05 -3.186335324025e-17 
1.200000000000e+03 5.000000000000e+03 2.000000000000e+05 1.950000000000e+05 9.849846979930e-01 1.501530200702e-02 7.348151944102e-05 3.898699599712e-17 1.264589843521e-05 -1.159114954073e-17 
1.360000000000e+03 5.000000000000e+03 2.000000000000e+05 1.950000000000e+05 9.855771902384e-01 1.442280976161e-02 6.778039237423e-05 1.447892064151e-17 1.182994808165e-05 -2.055303602101e-17 
1.495279778589e+03 5.000000000000e+03 2.000000000000e+05 1.950000000000e+05 9.859998630293e-01 1.400013697071e-02 6.384471065458e-05 1.125783545661e-17 1.125803475287e-05 -2.212112920854e-17 
1.661888532395e+03 5.000000000000e+03 2.000000000000e+05 1.950000000000e+05 9.864437920254e-01 1.355620797462e-02 5.983031362830e-05 1.913659103008e-17 1.066691099057e-05 -1.709386685790e-17 
2.000000000000e+03 5.000000000000e+03 2.000000000000e+05 1.950000000000e+05 9.871508154699e-01 1.284918453009e-02 5.369201696756e-05 1.065768195385e-17 9.746674504645e-06 -6.620624854033e-18 
2.400000000000e+03 5.000000000000e+03 2.000000000000e+05 1.950000000000e+05 9.877509494821e-01 1.224905051789e-02 4.873092260883e-05 -1.943159143817e-18 8.987132806019e-06 1.970567938078e-17 
2.720000000000e+03 5.000000000000e+03 2.000000000000e+05 1.950000000000e+05 9.881738490823e-01 1.182615091775e-02 4.537402756303e-05 7.078712750206e-17 8.464425729645e-06 -2.017468028890e-17 
2.976000000000e+03 5.000000000000e+03 2.000000000000e+05 1.950000000000e+05 9.884791362246e-01 1.152086377540e-02 4.302278312992e-05 -6.091957240044e-17 8.093777148246e-06 -1.261374555827e-17 
3.216415770128e+03 5.000000000000e+03 2.000000000000e+05 1.950000000000e+05 9.887473994158e-01 1.125260058422e-02 4.100686704987e-05 8.001174466446e-17 7.772843163432e-06 -7.253017439339e-18 
3.608207885064e+03 5.000000000000e+03 2.000000000000e+05 1.950000000000e+05 9.891268589553e-01 1.087314104474e-02 3.823594392049e-05 1.293811465141e-16 7.326699903030e-06 -4.371524195579e-18 
4.000000000000e+03 5.000000000000e+03 2.000000000000e+05 1.950000000000e+05 9.894487265478e-01 1.055127345218e-02 3.595998925557e-05 4.688737310677e-17 6.955650018523e-06 -8.132320551173e-18 
4.310567135137e+03 5.000000000000e+03 2.000000000000e+05 1.950000000000e+05 9.896815127172e-01 1.031848728280e-02 3.435670710701e-05 2.964672900055e-17 6.691626567356e-06 7.042537661696e-19 
4.611450224920e+03 5.000000000000e+03 2.000000000000e+05 1.950000000000e+05 9.898883672080e-01 1.011163279203e-02 3.296226420541e-05 -7.686100449875e-17 6.460131604097e-06 1.349654791443e-17 
5.053133595148e+03 5.000000000000e+03 2.000000000000e+05 1.950000000000e+05 9.901553068217e-01 9.844693178260e-03 3.120496576305e-05 8.564211252315e-17 6.165814403540e-06 -9.197800627271e-18 
5.442506876118e+03 5.000000000000e+03 2.000000000000e+05 1.950000000000e+05 9.903687684767e-01 9.631231523263e-03 2.983403299688e-05 -4.143465861901e-17 5.934111988626e-06 4.666003803900e-18 
5.820723378895e+03 5.000000000000e+03 2.000000000000e+05 1.950000000000e+05 9.905571919941e-01 9.442808005913e-03 2.864931420949e-05 -3.019281571529e-17 5.732333681142e-06 -2.425559788723e-18 
7.000000000000e+03 5.000000000000e+03 2.000000000000e+05 1.950000000000e+05 9.909955566697e-01 9.004443330265e-03 2.607976622321e-05 -4.568055961298e-17 5.272586464270e-06 -7.037150010506e-18 
7.000000000000e+03 5.000000000000e+03 2.000000000000e+05 1.950000000000e+05 9.909955566697e-01 9.004443330265e-03 2.607976622321e-05 -4.568055961298e-17 5.272586464270e-06 -7.037150010506e-18 
7.000000000000e+03 5.000000000000e+03 2.000000000000e+05 1.950000000000e+05 9.909955566697e-01 9.004443330265e-03 2.607976622321e-05 -4.568055961298e-17 5.272586464270e-06 -7.037150010506e-18 
7.000000000000e+03 5.000000000000e+03 2.000000000000e+05 1.950000000000e+05 9.909955566697e-01 9.004443330265e-03 2.607976622321e-05 -4.568055961298e-17 5.272586464270e-06 -7.037150010506e-18 
7.000000000000e+03 5.000000000000e+03 2.000000000000e+05 1.950000000000e+05 9.909955566697e-01 9.004443330265e-03 2.607976622321e-05 -4.568055961298e-17 5.272586464270e-06 -7.037150010506e-18 
7.000000000001e+03 5.000000000000e+03 2.000000000000e+05 1.950000000000e+05 9.909955566697e-01 9.004443330265e-03 2.607976622321e-05 -4.568055961298e-17 5.272586464270e-06 -7.037150010506e-18 
7.000000000008e+03 5.000000000000e+03 2.000000000000e+05 1.950000000000e+05 9.909955566697e-01 9.004443330265e-03 2.607976622321e-05 -4.568055961298e-17 5.272586464270e-06 -7.037150010506e-18 
7.000000000051e+03 5.000000000000e+03 2.000000000000e+05 1.950000000000e+05 9.909955566697e-01 9.004443330253e-03 2.602889451215e-05 -3.592691327689e-11 5.272860720437e-06 2.251382656767e-12 
7.000000000306e+03 5.000000000000e+03 2.000000000000e+05 1.950000000000e+05 9.909955566698e-01 9.004443330167e-03 2.601483394003e-05 2.585038872256e-12 5.272936522765e-06 -1.620037845801e-13 
7.000000001833e+03 5.000000000000e+03 2.000000000000e+05 1.950000000000e+05 9.909955566703e-01 9.004443329685e-03 2.598555647939e-05 -1.511123378630e-13 5.273094360946e-06 9.459654944833e-15 
7.000000010999e+03 5.000000000000e+03 2.000000000000e+05 1.950000000000e+05 9.909955566732e-01 9.004443326787e-03 2.598556723107e-05 4.092615391883e-14 5.273094299902e-06 -2.574538063189e-15 
7.000000065992e+03 5.000000000000e+03 2.000000000000e+05 1.950000000000e+05 9.909955566906e-01 9.004443309401e-03 2.598557373667e-05 3.867226281450e-15 5.273094246347e-06 -2.524361361221e-16 
7.000000395954e+03 5.000000000000e+03 2.000000000000e+05 1.950000000000e+05 9.909955567949e-01 9.004443205082e-03 2.598557184875e-05 -3.746102954837e-16 5.273094145631e-06 1.359131797491e-17 
7.000002375726e+03 5.000000000000e+03 2.000000000000e+05 1.950000000000e+05 9.909955574208e-01 9.004442579177e-03 2.598556329163e-05 1.150847679966e-14 5.273093526402e-06 -7.308304451996e-16 
7.000014254358e+03 5.000000000000e+03 2.000000000000e+05 1.950000000000e+05 9.909955611764e-01 9.004438823648e-03 2.598555777032e-05 -6.088012752418e-17 5.273089563894e-06 -5.844221922816e-18 
7.000085526150e+03 5.000000000000e+03 2.000000000000e+05 1.950000000000e+05 9.909955837106e-01 9.004416289412e-03 2.598541668597e-05 4.753479296104e-17 5.273066369750e-06 -1.276114211093e-17 
7.000513156903e+03 5.000000000000e+03 2.000000000000e+05 1.950000000000e+05 9.909957189599e-01 9.004281040060e-03 2.598461867751e-05 -1.559356604467e-17 5.272926897585e-06 -9.064257189816e-18 
7.003078941417e+03 5.000000000000e+03 2.000000000000e+05 1.950000000000e+05 9.909965319763e-01 9.003468023697e-03 2.597979916595e-05 -4.581692487476e-17 5.272088648966e-06 -6.916458263676e-18 
7.018473648500e+03 5.000000000000e+03 2.000000000000e+05 1.950000000000e+05 9.910014564911e-01 8.998543508896e-03 2.595061399859e-05 -3.045159985139e-17 5.267012392535e-06 -8.103817388052e-18 
7.110841891003e+03 5.000000000000e+03 2.000000000000e+05 1.950000000000e+05 9.910317554061e-01 8.968244593908e-03 2.577141528617e-05 3.176717982073e-17 5.235820619199e-06 -1.200245033936e-17 
7.665051346016e+03 5.000000000000e+03 2.000000000000e+05 1.950000000000e+05 9.912088265946e-01 8.791173405445e-03 2.473656942591e-05 -4.411092286250e-17 5.054943141046e-06 6.692510218914e-18 
8.132041076813e+03 5.000000000000e+03 2.000000000000e+05 1.950000000000e+05 9.913520821792e-01 8.647917820837e-03 2.391488847352e-05 -1.135947767982e-17 4.910389016939e-06 7.139815060157e-18 
8.505632861450e+03 5.000000000000e+03 2.000000000000e+05 1.950000000000e+05 9.914628848160e-01 8.537115184021e-03 2.328889511066e-05 -6.841780980437e-18 4.799687125469e-06 6.338510980732e-18 
8.896862022689e+03 5.000000000000e+03 2.000000000000e+05 1.950000000000e+05 9.915750774687e-01 8.424922531315e-03 2.266354100826e-05 1.715693292843e-17 4.688588281771e-06 1.330551705245e-18 
1.000000000000e+04 5.000000000000e+03 2.000000000000e+05 1.950000000000e+05 9.918428594964e-01 8.157140503615e-03 2.120552786480e-05 -1.170608514716e-17 4.427503690563e-06 2.962440523588e-18 
