 TITLE = "Time curves in points"
 VARIABLES = "TIME "  "PRESSURE1"  "PRESSURE2"  "PRESSURE_W"  "SATURATION1" SATURATION2  "VELOCITY_X1"  "VELOCITY_Y1"  "VELOCITY_X2"  "VELOCITY_Y2" 
 ZONE T="POINT=POINT4"
0.000000000000e+00 5.000000000000e+04 0.000000000000e+00 -5.000000000000e+04 1.000000000000e-02 9.900000000000e-01 0.000000000000e+00 0.000000000000e+00 0.000000000000e+00 0.000000000000e+00 
1.000000000000e+01 5.000000000000e+03 2.000000000000e+05 1.950000000000e+05 4.153274421488e-01 5.846725578512e-01 6.594387002550e-04 9.211482143783e-18 -5.606085273557e-05 -1.757543135227e-16 
7.000000000000e+01 5.000000000000e+03 2.000000000000e+05 1.950000000000e+05 8.601041577662e-01 1.398958422338e-01 1.978800320407e-03 7.211995235056e-17 1.064309455248e-04 -1.972388066140e-17 
9.400483104715e+01 5.000000000000e+03 2.000000000000e+05 1.950000000000e+05 9.400268407210e-01 5.997315927897e-02 8.533621481235e-04 6.789949513330e-17 7.999596460646e-05 -2.742901302015e-17 
1.797934206281e+02 5.000000000000e+03 2.000000000000e+05 1.950000000000e+05 9.709828153355e-01 2.901718466451e-02 2.618601404282e-04 -4.860361567951e-17 3.479989898772e-05 3.630637446452e-17 
2.073234844419e+02 5.000000000000e+03 2.000000000000e+05 1.950000000000e+05 9.734735646821e-01 2.652643531793e-02 2.218489914145e-04 3.375640964919e-17 3.064819230310e-05 -1.325138704139e-17 
2.369569496725e+02 5.000000000000e+03 2.000000000000e+05 1.950000000000e+05 9.741566731416e-01 2.584332685841e-02 2.113124665058e-04 -3.108761523133e-18 2.951391853786e-05 -5.007730415555e-18 
2.677813690401e+02 5.000000000000e+03 2.000000000000e+05 1.950000000000e+05 9.746791467571e-01 2.532085324291e-02 2.033800413886e-04 8.802789993304e-19 2.864878019656e-05 -5.983576698624e-18 
2.998785266061e+02 5.000000000000e+03 2.000000000000e+05 1.950000000000e+05 9.757016655310e-01 2.429833446900e-02 1.881842900823e-04 -3.474460586489e-18 2.696320979797e-05 -5.069545589732e-18 
3.999392633030e+02 5.000000000000e+03 2.000000000000e+05 1.950000000000e+05 9.791375300366e-01 2.086246996341e-02 1.408684859926e-04 -7.378123476354e-17 2.140368964770e-05 7.559027831114e-17 
5.000000000000e+02 5.000000000000e+03 2.000000000000e+05 1.950000000000e+05 9.806734353349e-01 1.932656466510e-02 1.211485020892e-04 2.563346267668e-17 1.900315464248e-05 1.007434896748e-17 
5.595411695740e+02 5.000000000000e+03 2.000000000000e+05 1.950000000000e+05 9.811770436369e-01 1.882295636311e-02 1.150318882456e-04 1.274301786581e-17 1.822833740049e-05 -5.078190048467e-20 
6.432879739590e+02 5.000000000000e+03 2.000000000000e+05 1.950000000000e+05 9.818531301778e-01 1.814686982224e-02 1.070560825070e-04 6.766105649291e-18 1.719972644222e-05 -3.330096551768e-18 
7.372446659463e+02 5.000000000000e+03 2.000000000000e+05 1.950000000000e+05 9.828166590981e-01 1.718334090187e-02 9.612537458221e-05 4.221123988001e-19 1.575942861114e-05 -1.308210125313e-18 
8.522607836257e+02 5.000000000000e+03 2.000000000000e+05 1.950000000000e+05 9.837055075426e-01 1.629449245739e-02 8.650931583818e-05 1.070156102226e-17 1.446018891352e-05 -4.650064054789e-18 
1.000000000000e+03 5.000000000000e+03 2.000000000000e+05 1.950000000000e+05 9.843659108118e-01 1.563408918818e-02 7.966517963266e-05 2.266678347987e-18 1.351487185144e-05 -1.670325998915e-18 
1.125950701399e+03 5.000000000000e+03 2.000000000000e+05 1.950000000000e+05 9.848899725988e-01 1.511002740116e-02 7.441280363411e-05 -5.770457135437e-18 1.277783715580e-05 -1.572998881511e-18 
1.247076284296e+03 5.000000000000e+03 2.000000000000e+05 1.950000000000e+05 9.854080294092e-01 1.459197059080e-02 6.938628921333e-05 1.722761242216e-17 1.206124266028e-05 -3.870249657030e-18 
1.414440063525e+03 5.000000000000e+03 2.000000000000e+05 1.950000000000e+05 9.859615824326e-01 1.403841756742e-02 6.419685073151e-05 -3.442009712890e-18 1.130946971104e-05 -1.440311006313e-18 
1.558789189343e+03 5.000000000000e+03 2.000000000000e+05 1.950000000000e+05 9.863428656446e-01 1.365713435544e-02 6.073219429006e-05 -2.762626914804e-18 1.080042151898e-05 -6.305369414848e-20 
1.779394594672e+03 5.000000000000e+03 2.000000000000e+05 1.950000000000e+05 9.868659712058e-01 1.313402879425e-02 5.612767213335e-05 -1.360486168359e-18 1.011419287704e-05 -2.468066605545e-18 
2.000000000000e+03 5.000000000000e+03 2.000000000000e+05 1.950000000000e+05 9.873079676155e-01 1.269203238450e-02 5.237085069184e-05 -1.156079315686e-18 9.545813798781e-06 -1.975123343725e-18 
2.212084980431e+03 5.000000000000e+03 2.000000000000e+05 1.950000000000e+05 9.876619229697e-01 1.233807703029e-02 4.945233269355e-05 4.418932691721e-18 9.098508961470e-06 -1.409216883194e-18 
2.407313669509e+03 5.000000000000e+03 2.000000000000e+05 1.950000000000e+05 9.879661517168e-01 1.203384828315e-02 4.700824848764e-05 -6.197002963801e-18 8.719816307405e-06 -7.100255319264e-19 
2.610595539967e+03 5.000000000000e+03 2.000000000000e+05 1.950000000000e+05 9.882589160776e-01 1.174108392238e-02 4.471277218984e-05 1.364783276487e-17 8.360574093788e-06 -5.794638193675e-18 
2.900623846649e+03 5.000000000000e+03 2.000000000000e+05 1.950000000000e+05 9.886058786079e-01 1.139412139213e-02 4.206461867798e-05 1.189816067836e-18 7.941586976622e-06 3.371317931207e-18 
3.140563346250e+03 5.000000000000e+03 2.000000000000e+05 1.950000000000e+05 9.888662827626e-01 1.113371723743e-02 4.012856971506e-05 -3.102232738550e-18 7.632071654543e-06 -3.546506663475e-18 
3.431258336955e+03 5.000000000000e+03 2.000000000000e+05 1.950000000000e+05 9.891487248359e-01 1.085127516408e-02 3.807917609483e-05 1.694349746928e-17 7.301275855016e-06 9.464644998220e-18 
4.000000000000e+03 5.000000000000e+03 2.000000000000e+05 1.950000000000e+05 9.895816519927e-01 1.041834800726e-02 3.508560444147e-05 -9.634406920767e-18 6.804139375144e-06 7.286484971379e-18 
4.669889167476e+03 5.000000000000e+03 2.000000000000e+05 1.950000000000e+05 9.899823491944e-01 1.001765080556e-02 3.240601976038e-05 -1.100412097436e-17 6.355517201287e-06 4.490076450780e-18 
5.325978311225e+03 5.000000000000e+03 2.000000000000e+05 1.950000000000e+05 9.903093735392e-01 9.690626460809e-03 3.022300840002e-05 5.921345080057e-18 5.998189872784e-06 -9.170625425275e-19 
6.101803683958e+03 5.000000000000e+03 2.000000000000e+05 1.950000000000e+05 9.906417785247e-01 9.358221475270e-03 2.815959567140e-05 1.110735695989e-18 5.642405799135e-06 1.498787156309e-18 
6.550901841979e+03 5.000000000000e+03 2.000000000000e+05 1.950000000000e+05 9.908199464702e-01 9.180053529767e-03 2.703713144069e-05 -4.590629348614e-17 5.455333836331e-06 1.856637398293e-17 
7.000000000000e+03 5.000000000000e+03 2.000000000000e+05 1.950000000000e+05 9.909897498769e-01 9.010250123114e-03 2.602001955506e-05 1.470818222174e-17 5.279082763560e-06 3.379982932162e-19 
7.556743466674e+03 5.000000000000e+03 2.000000000000e+05 1.950000000000e+05 9.911857625084e-01 8.814237491644e-03 2.487024611149e-05 -7.341102608616e-18 5.078365318240e-06 1.275175281309e-18 
8.254114133167e+03 5.000000000000e+03 2.000000000000e+05 1.950000000000e+05 9.914048658661e-01 8.595134133931e-03 2.361579976979e-05 -5.830274471939e-18 4.857531665316e-06 1.797975861919e-18 
9.127057066584e+03 5.000000000000e+03 2.000000000000e+05 1.950000000000e+05 9.916415007063e-01 8.358499293689e-03 2.229842558215e-05 1.290625387811e-18 4.623281256385e-06 -9.452956184114e-20 
1.000000000000e+04 5.000000000000e+03 2.000000000000e+05 1.950000000000e+05 9.918483928122e-01 8.151607187831e-03 2.117617869196e-05 -2.599167566093e-18 4.422168885641e-06 -6.330091565952e-19 
