 TITLE = "Profiles along polylines"
 VARIABLES = "DIST" "PRESSURE1" "PRESSURE2" "PRESSURE_W" "SATURATION1" SATURATION2 "VELOCITY_X1" "VELOCITY_Y1" "VELOCITY_X2" "VELOCITY_Y2" 
 ZONE T="TIME=0.000000000000e+00"
0.000000000000e+00 5.000000000000e+04 0.000000000000e+00 -5.000000000000e+04 1.000000000000e-02 9.900000000000e-01 0.000000000000e+00 0.000000000000e+00 0.000000000000e+00 0.000000000000e+00 
8.965517241379e-02 5.000000000000e+04 0.000000000000e+00 -5.000000000000e+04 1.000000000000e-02 9.900000000000e-01 0.000000000000e+00 0.000000000000e+00 0.000000000000e+00 0.000000000000e+00 
1.793103448276e-01 5.000000000000e+04 0.000000000000e+00 -5.000000000000e+04 1.000000000000e-02 9.900000000000e-01 0.000000000000e+00 0.000000000000e+00 0.000000000000e+00 0.000000000000e+00 
2.689655172414e-01 5.000000000000e+04 0.000000000000e+00 -5.000000000000e+04 1.000000000000e-02 9.900000000000e-01 0.000000000000e+00 0.000000000000e+00 0.000000000000e+00 0.000000000000e+00 
3.586206896552e-01 5.000000000000e+04 0.000000000000e+00 -5.000000000000e+04 1.000000000000e-02 9.900000000000e-01 0.000000000000e+00 0.000000000000e+00 0.000000000000e+00 0.000000000000e+00 
4.482758620690e-01 5.000000000000e+04 0.000000000000e+00 -5.000000000000e+04 1.000000000000e-02 9.900000000000e-01 0.000000000000e+00 0.000000000000e+00 0.000000000000e+00 0.000000000000e+00 
5.379310344828e-01 5.000000000000e+04 0.000000000000e+00 -5.000000000000e+04 1.000000000000e-02 9.900000000000e-01 0.000000000000e+00 0.000000000000e+00 0.000000000000e+00 0.000000000000e+00 
6.275862068966e-01 5.000000000000e+04 0.000000000000e+00 -5.000000000000e+04 1.000000000000e-02 9.900000000000e-01 0.000000000000e+00 0.000000000000e+00 0.000000000000e+00 0.000000000000e+00 
7.172413793105e-01 5.000000000000e+04 0.000000000000e+00 -5.000000000000e+04 1.000000000000e-02 9.900000000000e-01 0.000000000000e+00 0.000000000000e+00 0.000000000000e+00 0.000000000000e+00 
8.068965517245e-01 5.000000000000e+04 0.000000000000e+00 -5.000000000000e+04 1.000000000000e-02 9.900000000000e-01 0.000000000000e+00 0.000000000000e+00 0.000000000000e+00 0.000000000000e+00 
8.965517241385e-01 5.000000000000e+04 0.000000000000e+00 -5.000000000000e+04 1.000000000000e-02 9.900000000000e-01 0.000000000000e+00 0.000000000000e+00 0.000000000000e+00 0.000000000000e+00 
9.862068965524e-01 5.000000000000e+04 0.000000000000e+00 -5.000000000000e+04 1.000000000000e-02 9.900000000000e-01 0.000000000000e+00 0.000000000000e+00 0.000000000000e+00 0.000000000000e+00 
1.075862068966e+00 5.000000000000e+04 0.000000000000e+00 -5.000000000000e+04 1.000000000000e-02 9.900000000000e-01 0.000000000000e+00 0.000000000000e+00 0.000000000000e+00 0.000000000000e+00 
1.165517241380e+00 5.000000000000e+04 0.000000000000e+00 -5.000000000000e+04 1.000000000000e-02 9.900000000000e-01 0.000000000000e+00 0.000000000000e+00 0.000000000000e+00 0.000000000000e+00 
1.255172413794e+00 5.000000000000e+04 0.000000000000e+00 -5.000000000000e+04 1.000000000000e-02 9.900000000000e-01 0.000000000000e+00 0.000000000000e+00 0.000000000000e+00 0.000000000000e+00 
1.344827586208e+00 5.000000000000e+04 0.000000000000e+00 -5.000000000000e+04 1.000000000000e-02 9.900000000000e-01 0.000000000000e+00 0.000000000000e+00 0.000000000000e+00 0.000000000000e+00 
1.434482758622e+00 5.000000000000e+04 0.000000000000e+00 -5.000000000000e+04 1.000000000000e-02 9.900000000000e-01 0.000000000000e+00 0.000000000000e+00 0.000000000000e+00 0.000000000000e+00 
1.524137931036e+00 5.000000000000e+04 0.000000000000e+00 -5.000000000000e+04 1.000000000000e-02 9.900000000000e-01 0.000000000000e+00 0.000000000000e+00 0.000000000000e+00 0.000000000000e+00 
1.613793103450e+00 5.000000000000e+04 0.000000000000e+00 -5.000000000000e+04 1.000000000000e-02 9.900000000000e-01 0.000000000000e+00 0.000000000000e+00 0.000000000000e+00 0.000000000000e+00 
1.703448275863e+00 5.000000000000e+04 0.000000000000e+00 -5.000000000000e+04 1.000000000000e-02 9.900000000000e-01 0.000000000000e+00 0.000000000000e+00 0.000000000000e+00 0.000000000000e+00 
1.793103448277e+00 5.000000000000e+04 0.000000000000e+00 -5.000000000000e+04 1.000000000000e-02 9.900000000000e-01 0.000000000000e+00 0.000000000000e+00 0.000000000000e+00 0.000000000000e+00 
1.882758620691e+00 5.000000000000e+04 0.000000000000e+00 -5.000000000000e+04 1.000000000000e-02 9.900000000000e-01 0.000000000000e+00 0.000000000000e+00 0.000000000000e+00 0.000000000000e+00 
1.972413793105e+00 5.000000000000e+04 0.000000000000e+00 -5.000000000000e+04 1.000000000000e-02 9.900000000000e-01 0.000000000000e+00 0.000000000000e+00 0.000000000000e+00 0.000000000000e+00 
2.062068965518e+00 5.000000000000e+04 0.000000000000e+00 -5.000000000000e+04 1.000000000000e-02 9.900000000000e-01 0.000000000000e+00 0.000000000000e+00 0.000000000000e+00 0.000000000000e+00 
2.151724137932e+00 5.000000000000e+04 0.000000000000e+00 -5.000000000000e+04 1.000000000000e-02 9.900000000000e-01 0.000000000000e+00 0.000000000000e+00 0.000000000000e+00 0.000000000000e+00 
2.241379310346e+00 5.000000000000e+04 0.000000000000e+00 -5.000000000000e+04 1.000000000000e-02 9.900000000000e-01 0.000000000000e+00 0.000000000000e+00 0.000000000000e+00 0.000000000000e+00 
2.331034482759e+00 5.000000000000e+04 0.000000000000e+00 -5.000000000000e+04 1.000000000000e-02 9.900000000000e-01 0.000000000000e+00 0.000000000000e+00 0.000000000000e+00 0.000000000000e+00 
2.420689655173e+00 5.000000000000e+04 0.000000000000e+00 -5.000000000000e+04 1.000000000000e-02 9.900000000000e-01 0.000000000000e+00 0.000000000000e+00 0.000000000000e+00 0.000000000000e+00 
2.510344827586e+00 5.000000000000e+04 0.000000000000e+00 -5.000000000000e+04 1.000000000000e-02 9.900000000000e-01 0.000000000000e+00 0.000000000000e+00 0.000000000000e+00 0.000000000000e+00 
2.600000000000e+00 5.000000000000e+04 0.000000000000e+00 -5.000000000000e+04 1.000000000000e-02 9.900000000000e-01 0.000000000000e+00 0.000000000000e+00 0.000000000000e+00 0.000000000000e+00 
 TITLE = "Profiles along polylines"
 VARIABLES = "DIST" "PRESSURE1" "PRESSURE2" "PRESSURE_W" "SATURATION1" SATURATION2 "VELOCITY_X1" "VELOCITY_Y1" "VELOCITY_X2" "VELOCITY_Y2" 
 ZONE T="TIME=5.000000000000e+02"
0.000000000000e+00 5.000000000000e+03 2.000000000000e+05 1.950000000000e+05 9.806734353349e-01 1.932656466512e-02 1.211485020894e-04 -2.540120734804e-17 1.900315464250e-05 -4.789973402152e-18 
8.965517241379e-02 6.517337773037e+03 2.013901072844e+05 1.948727695113e+05 5.803419131033e-01 4.196580868967e-01 4.495497269172e-05 -3.236995769758e-18 -9.508723915591e-05 2.972757183737e-17 
1.793103448276e-01 7.426817294447e+03 2.016608261132e+05 1.942340088187e+05 4.240965359125e-01 5.759034640875e-01 9.876861833160e-05 -8.180645640304e-18 -4.772721321130e-05 2.140081462410e-18 
2.689655172414e-01 1.523426900237e+04 2.017331501009e+05 1.864988810985e+05 8.174057754498e-02 9.182594224550e-01 -9.256548393756e-06 2.449287161600e-18 -3.318316892438e-05 -5.787290554272e-17 
3.586206896552e-01 4.900572537470e+04 2.017333831072e+05 1.527276577325e+05 7.196319434687e-03 9.928036805653e-01 -6.147574656903e-08 4.346815949085e-21 -1.289049358866e-07 3.628467460829e-17 
4.482758620690e-01 4.999988412661e+04 2.017333831181e+05 1.517334989915e+05 9.999437252317e-03 9.900005627477e-01 5.536654862171e-12 -5.222266873419e-24 -5.933131267427e-12 6.090533279308e-17 
5.379310344828e-01 4.999999998739e+04 2.017333831180e+05 1.517333831306e+05 1.000000000504e-02 9.899999999950e-01 6.462178009734e-16 1.412637000777e-26 8.257880146695e-14 4.343921856907e-17 
6.275862068966e-01 5.000000000000e+04 2.017333831180e+05 1.517333831180e+05 1.000000000000e-02 9.900000000000e-01 7.118329987329e-20 -1.189604475881e-24 8.318692465786e-14 1.724820941716e-17 
7.172413793105e-01 5.000000000000e+04 2.017333831179e+05 1.517333831179e+05 1.000000000000e-02 9.900000000000e-01 8.506249386564e-22 -4.340240695740e-24 8.262974589146e-14 -4.429324154235e-16 
8.068965517245e-01 5.000000000000e+04 2.017333831178e+05 1.517333831178e+05 1.000000000000e-02 9.900000000000e-01 8.305160252366e-22 -5.714697346557e-24 8.134431257143e-14 -5.469162701932e-16 
8.965517241385e-01 5.000000000000e+04 2.017333831177e+05 1.517333831177e+05 1.000000000000e-02 9.900000000000e-01 8.155767874621e-22 -2.559063915088e-24 7.992483489231e-14 -2.573000967264e-16 
9.862068965524e-01 5.000000000000e+04 2.017333831177e+05 1.517333831177e+05 1.000000000000e-02 9.900000000000e-01 8.048243990413e-22 -1.922862628594e-24 7.886453033199e-14 -5.931599541410e-17 
1.075862068966e+00 5.000000000000e+04 2.017333831176e+05 1.517333831176e+05 1.000000000000e-02 9.900000000000e-01 7.939917061591e-22 -5.158932816027e-24 7.783828998141e-14 -3.813105729256e-16 
1.165517241380e+00 5.000000000000e+04 2.017333831175e+05 1.517333831175e+05 1.000000000000e-02 9.900000000000e-01 7.736933197253e-22 -1.248722514871e-23 7.581450115072e-14 -1.197522168881e-15 
1.255172413794e+00 5.000000000000e+04 2.017333831175e+05 1.517333831175e+05 1.000000000000e-02 9.900000000000e-01 7.419032914207e-22 -1.386538344062e-23 7.272629571210e-14 -1.217993477243e-15 
1.344827586208e+00 5.000000000000e+04 2.017333831174e+05 1.517333831174e+05 1.000000000000e-02 9.900000000000e-01 7.073850628484e-22 -9.557454459210e-24 6.930943153811e-14 -7.353203058630e-16 
1.434482758622e+00 5.000000000000e+04 2.017333831173e+05 1.517333831173e+05 1.000000000000e-02 9.900000000000e-01 6.796075155640e-22 -6.510808848958e-24 6.660661037429e-14 -6.570894682139e-16 
1.524137931036e+00 5.000000000000e+04 2.017333831173e+05 1.517333831173e+05 1.000000000000e-02 9.900000000000e-01 6.534580859926e-22 -1.257493289235e-23 6.401986848027e-14 -1.140948187952e-15 
1.613793103450e+00 5.000000000000e+04 2.017333831172e+05 1.517333831172e+05 1.000000000000e-02 9.900000000000e-01 6.151557433490e-22 -1.792564168697e-23 6.025921774968e-14 -1.674772788214e-15 
1.703448275863e+00 5.000000000000e+04 2.017333831172e+05 1.517333831172e+05 1.000000000000e-02 9.900000000000e-01 5.616708583856e-22 -1.910146190234e-23 5.506476038586e-14 -1.862428293308e-15 
1.793103448277e+00 5.000000000000e+04 2.017333831171e+05 1.517333831171e+05 1.000000000000e-02 9.900000000000e-01 5.072656626047e-22 -1.753231950511e-23 4.969500410825e-14 -1.676410692654e-15 
1.882758620691e+00 5.000000000000e+04 2.017333831171e+05 1.517333831171e+05 1.000000000000e-02 9.900000000000e-01 4.594567046702e-22 -1.360193850649e-23 4.508495592917e-14 -1.342397878658e-15 
1.972413793105e+00 5.000000000000e+04 2.017333831170e+05 1.517333831170e+05 1.000000000000e-02 9.900000000000e-01 4.122833418502e-22 -1.787568321957e-23 4.036540164433e-14 -1.693026382845e-15 
2.062068965518e+00 5.000000000000e+04 2.017333831170e+05 1.517333831170e+05 1.000000000000e-02 9.900000000000e-01 3.550203573611e-22 -2.349421370926e-23 3.473997215776e-14 -2.283004258660e-15 
2.151724137932e+00 5.000000000000e+04 2.017333831170e+05 1.517333831170e+05 1.000000000000e-02 9.900000000000e-01 2.895119620646e-22 -2.525660404813e-23 2.838445757214e-14 -2.472628291997e-15 
2.241379310346e+00 5.000000000000e+04 2.017333831169e+05 1.517333831169e+05 1.000000000000e-02 9.900000000000e-01 2.239705172185e-22 -1.961991813833e-23 2.199593303735e-14 -1.941128773556e-15 
2.331034482759e+00 5.000000000000e+04 2.017333831169e+05 1.517333831169e+05 1.000000000000e-02 9.900000000000e-01 1.641201574884e-22 -1.874433380726e-23 1.610224136450e-14 -1.752711347807e-15 
2.420689655173e+00 5.000000000000e+04 2.017333831169e+05 1.517333831169e+05 1.000000000000e-02 9.900000000000e-01 1.177400398699e-22 -2.006137964037e-23 1.159725089883e-14 -1.926616733966e-15 
2.510344827586e+00 5.000000000000e+04 2.017333831169e+05 1.517333831169e+05 1.000000000000e-02 9.900000000000e-01 5.692992822339e-23 -1.461324754675e-23 5.591862186647e-15 -1.402194958532e-15 
2.600000000000e+00 5.000000000000e+04 2.017333831169e+05 1.517333831169e+05 1.000000000000e-02 9.900000000000e-01 1.444049711801e-23 -1.206901441446e-23 1.355894915666e-15 -1.210563077097e-15 
 TITLE = "Profiles along polylines"
 VARIABLES = "DIST" "PRESSURE1" "PRESSURE2" "PRESSURE_W" "SATURATION1" SATURATION2 "VELOCITY_X1" "VELOCITY_Y1" "VELOCITY_X2" "VELOCITY_Y2" 
 ZONE T="TIME=1.000000000000e+03"
0.000000000000e+00 5.000000000000e+03 2.000000000000e+05 1.950000000000e+05 9.843659108118e-01 1.563408918817e-02 7.966517963268e-05 -2.962971611029e-17 1.351487185142e-05 -4.743854584437e-18 
8.965517241379e-02 6.339196879707e+03 2.012577122931e+05 1.949185154134e+05 6.157079232339e-01 3.842920767661e-01 3.024219998596e-05 -9.031863616663e-18 -6.856059842919e-05 3.272261723607e-17 
1.793103448276e-01 6.926502057262e+03 2.015264072280e+05 1.945999051707e+05 5.195344733763e-01 4.804655266237e-01 3.908567007181e-05 9.659448445785e-18 -3.844628557429e-05 3.709441090992e-17 
2.689655172414e-01 7.736898639700e+03 2.016707162837e+05 1.939338176440e+05 4.098296975504e-01 5.901703024496e-01 5.314604341502e-05 4.065409052637e-17 -3.321555653292e-05 -3.856665772232e-17 
3.586206896552e-01 1.102865096662e+04 2.017360976954e+05 1.907074467288e+05 1.645187425634e-01 8.354812574366e-01 3.206898584324e-06 6.695526357345e-18 -2.321123295082e-05 -1.429726308603e-16 
4.482758620690e-01 4.257755755878e+04 2.017379888479e+05 1.591604312891e+05 7.697434287786e-03 9.923025657122e-01 -4.869258285842e-07 1.663282452382e-19 -1.050707344343e-06 4.068569419882e-16 
5.379310344828e-01 4.999789126043e+04 2.017379890000e+05 1.517400977396e+05 9.959966824352e-03 9.900400331756e-01 3.564389684726e-11 -7.424788576127e-23 -8.319775250492e-11 6.218732079850e-16 
6.275862068966e-01 4.999999966512e+04 2.017379890001e+05 1.517379893349e+05 1.000000013128e-02 9.899999998687e-01 1.176027812018e-14 3.293919971506e-24 -4.987798453698e-14 5.275845026609e-16 
7.172413793105e-01 4.999999999995e+04 2.017379890001e+05 1.517379890001e+05 1.000000000002e-02 9.900000000000e-01 1.867212150556e-18 -1.346008072124e-24 -3.735076683716e-14 -1.329273460096e-16 
8.068965517245e-01 5.000000000000e+04 2.017379890001e+05 1.517379890001e+05 1.000000000000e-02 9.900000000000e-01 -8.649208563310e-23 -3.628761347621e-24 -3.730759792531e-14 -3.242266554312e-16 
8.965517241385e-01 5.000000000000e+04 2.017379890002e+05 1.517379890002e+05 1.000000000000e-02 9.900000000000e-01 -3.792012935294e-22 1.837233019994e-24 -3.712953453850e-14 1.971627756822e-16 
9.862068965524e-01 5.000000000000e+04 2.017379890002e+05 1.517379890002e+05 1.000000000000e-02 9.900000000000e-01 -3.661432476066e-22 5.513552365498e-24 -3.585357446494e-14 7.381024905859e-16 
1.075862068966e+00 5.000000000000e+04 2.017379890002e+05 1.517379890002e+05 1.000000000000e-02 9.900000000000e-01 -3.455007248334e-22 5.462693948728e-24 -3.394556489499e-14 6.860540186909e-16 
1.165517241380e+00 5.000000000000e+04 2.017379890003e+05 1.517379890003e+05 1.000000000000e-02 9.900000000000e-01 -3.322363802051e-22 1.000659377234e-24 -3.255375702541e-14 4.891070770274e-17 
1.255172413794e+00 5.000000000000e+04 2.017379890003e+05 1.517379890003e+05 1.000000000000e-02 9.900000000000e-01 -3.284230256703e-22 -1.444243112487e-24 -3.213848772448e-14 -2.968240445544e-17 
1.344827586208e+00 5.000000000000e+04 2.017379890003e+05 1.517379890003e+05 1.000000000000e-02 9.900000000000e-01 -3.225627458248e-22 3.741773775673e-24 -3.165973389788e-14 5.077112568511e-16 
1.434482758622e+00 5.000000000000e+04 2.017379890003e+05 1.517379890003e+05 1.000000000000e-02 9.900000000000e-01 -3.033387608888e-22 1.229580069295e-23 -2.967645157838e-14 1.145737246664e-15 
1.524137931036e+00 5.000000000000e+04 2.017379890004e+05 1.517379890004e+05 1.000000000000e-02 9.900000000000e-01 -2.742549192779e-22 7.551363322800e-24 -2.685722618002e-14 8.489532486191e-16 
1.613793103450e+00 5.000000000000e+04 2.017379890004e+05 1.517379890004e+05 1.000000000000e-02 9.900000000000e-01 -2.502570850854e-22 1.786120585340e-24 -2.452240346208e-14 1.543283222100e-16 
1.703448275863e+00 5.000000000000e+04 2.017379890004e+05 1.517379890004e+05 1.000000000000e-02 9.900000000000e-01 -2.386805235155e-22 -4.810001058762e-25 -2.335479614554e-14 9.373864508431e-17 
1.793103448277e+00 5.000000000000e+04 2.017379890004e+05 1.517379890004e+05 1.000000000000e-02 9.900000000000e-01 -2.264069220980e-22 7.325612995593e-24 -2.220505519346e-14 6.469170535829e-16 
1.882758620691e+00 5.000000000000e+04 2.017379890005e+05 1.517379890005e+05 1.000000000000e-02 9.900000000000e-01 -2.006583297742e-22 1.175635815676e-23 -1.965453240855e-14 1.218581929793e-15 
1.972413793105e+00 5.000000000000e+04 2.017379890005e+05 1.517379890005e+05 1.000000000000e-02 9.900000000000e-01 -1.669347792381e-22 1.085933226524e-23 -1.639791218405e-14 1.120815172542e-15 
2.062068965518e+00 5.000000000000e+04 2.017379890005e+05 1.517379890005e+05 1.000000000000e-02 9.900000000000e-01 -1.407571892525e-22 2.373282602284e-24 -1.379112017410e-14 3.462774373674e-16 
2.151724137932e+00 5.000000000000e+04 2.017379890005e+05 1.517379890005e+05 1.000000000000e-02 9.900000000000e-01 -1.208259166594e-22 -3.346505031654e-26 -1.186337352404e-14 2.028690862544e-16 
2.241379310346e+00 5.000000000000e+04 2.017379890005e+05 1.517379890005e+05 1.000000000000e-02 9.900000000000e-01 -1.021454187462e-22 1.045668517908e-23 -9.974139901253e-15 1.000442779732e-15 
2.331034482759e+00 5.000000000000e+04 2.017379890005e+05 1.517379890005e+05 1.000000000000e-02 9.900000000000e-01 -7.384056916888e-23 1.056175646956e-23 -7.241095232757e-15 1.165869287964e-15 
2.420689655173e+00 5.000000000000e+04 2.017379890005e+05 1.517379890005e+05 1.000000000000e-02 9.900000000000e-01 -4.734771687504e-23 6.818799538272e-24 -4.601075676996e-15 7.376808111017e-16 
2.510344827586e+00 5.000000000000e+04 2.017379890005e+05 1.517379890005e+05 1.000000000000e-02 9.900000000000e-01 -2.024505859972e-23 9.987917931710e-25 -1.959655473369e-15 9.662917200731e-17 
2.600000000000e+00 5.000000000000e+04 2.017379890005e+05 1.517379890005e+05 1.000000000000e-02 9.900000000000e-01 -1.981075259445e-24 5.346694127657e-24 -2.429874550184e-16 5.112630313783e-16 
 TITLE = "Profiles along polylines"
 VARIABLES = "DIST" "PRESSURE1" "PRESSURE2" "PRESSURE_W" "SATURATION1" SATURATION2 "VELOCITY_X1" "VELOCITY_Y1" "VELOCITY_X2" "VELOCITY_Y2" 
 ZONE T="TIME=2.000000000000e+03"
0.000000000000e+00 5.000000000000e+03 2.000000000000e+05 1.950000000000e+05 9.873079676155e-01 1.269203238450e-02 5.237085069191e-05 -3.092078552156e-17 9.545813798777e-06 -4.294727353822e-19 
8.965517241379e-02 6.186848284576e+03 2.011344375946e+05 1.949475893100e+05 6.479429810283e-01 3.520570189717e-01 2.070738063081e-05 -9.119245367994e-18 -4.863885053904e-05 -1.403694029626e-18 
1.793103448276e-01 6.605996967437e+03 2.013848716569e+05 1.947788746894e+05 5.721783759469e-01 4.278216240531e-01 2.604864620593e-05 -6.650689017545e-18 -2.740018927338e-05 1.107737371832e-17 
2.689655172414e-01 7.028565055034e+03 2.015361879885e+05 1.945076229335e+05 5.053625772582e-01 4.946374227418e-01 2.560106472442e-05 3.174945997130e-17 -2.533193625637e-05 -1.019308122934e-16 
3.586206896552e-01 7.567895524849e+03 2.016351761462e+05 1.940672806213e+05 4.353493732836e-01 5.646506267164e-01 2.497482151413e-05 2.114292485106e-17 -2.321432479932e-05 8.019325473668e-18 
4.482758620690e-01 8.463432281802e+03 2.016978894215e+05 1.932344571397e+05 3.366189801391e-01 6.633810198609e-01 3.622476677923e-05 8.468678346287e-18 -1.945125929628e-05 1.280180213772e-16 
5.379310344828e-01 1.414677994355e+04 2.017264880603e+05 1.875797081168e+05 1.006112250721e-01 8.993887749279e-01 -1.725639615024e-06 7.504131108431e-18 -1.249747623478e-05 3.764587792929e-16 
6.275862068966e-01 4.683204983162e+04 2.017268717858e+05 1.548948219542e+05 7.662460806675e-03 9.923375391933e-01 -1.006957353719e-07 -3.318609599354e-20 -2.123094257722e-07 7.024947303337e-16 
7.172413793105e-01 4.999904435600e+04 2.017268718283e+05 1.517278274723e+05 9.993816776804e-03 9.900061832232e-01 1.735135973263e-11 -3.183396069667e-23 -2.330947846578e-11 8.156902506424e-16 
8.068965517245e-01 4.999999976938e+04 2.017268718284e+05 1.517268720591e+05 1.000000009170e-02 9.899999999083e-01 5.329551667016e-15 7.408689405691e-24 -1.276799877812e-13 8.178514469342e-16 
8.965517241385e-01 4.999999999994e+04 2.017268718286e+05 1.517268718286e+05 1.000000000002e-02 9.900000000000e-01 1.284950483239e-18 6.667662090771e-24 -1.198584655468e-13 6.699760193354e-16 
9.862068965524e-01 5.000000000000e+04 2.017268718287e+05 1.517268718287e+05 1.000000000000e-02 9.900000000000e-01 -8.842937527419e-22 4.440735245434e-24 -1.170409677093e-13 6.067383057340e-16 
1.075862068966e+00 5.000000000000e+04 2.017268718288e+05 1.517268718288e+05 1.000000000000e-02 9.900000000000e-01 -1.161483763518e-21 8.935604476840e-24 -1.138681241298e-13 9.048353053466e-16 
1.165517241380e+00 5.000000000000e+04 2.017268718289e+05 1.517268718289e+05 1.000000000000e-02 9.900000000000e-01 -1.127117176088e-21 1.177226465035e-23 -1.104011771516e-13 1.071522105211e-15 
1.255172413794e+00 5.000000000000e+04 2.017268718290e+05 1.517268718290e+05 1.000000000000e-02 9.900000000000e-01 -1.088571729510e-21 1.276730573432e-23 -1.066515963658e-13 1.271673158538e-15 
1.344827586208e+00 5.000000000000e+04 2.017268718291e+05 1.517268718291e+05 1.000000000000e-02 9.900000000000e-01 -1.044825019761e-21 1.483452360807e-23 -1.023819113342e-13 1.518899565465e-15 
1.434482758622e+00 5.000000000000e+04 2.017268718292e+05 1.517268718292e+05 1.000000000000e-02 9.900000000000e-01 -9.942372863481e-22 1.730164525296e-23 -9.741475826351e-14 1.647202677618e-15 
1.524137931036e+00 5.000000000000e+04 2.017268718292e+05 1.517268718292e+05 1.000000000000e-02 9.900000000000e-01 -9.375624222021e-22 1.771495691196e-23 -9.184600245681e-14 1.814145358011e-15 
1.613793103450e+00 5.000000000000e+04 2.017268718293e+05 1.517268718293e+05 1.000000000000e-02 9.900000000000e-01 -8.769033063980e-22 1.871049175315e-23 -8.595757666736e-14 1.765478114867e-15 
1.703448275863e+00 5.000000000000e+04 2.017268718294e+05 1.517268718294e+05 1.000000000000e-02 9.900000000000e-01 -8.142611253957e-22 2.024217865152e-23 -7.979500221792e-14 1.994519949507e-15 
1.793103448277e+00 5.000000000000e+04 2.017268718295e+05 1.517268718295e+05 1.000000000000e-02 9.900000000000e-01 -7.453579974606e-22 2.300160498300e-23 -7.303235222130e-14 2.286890553428e-15 
1.882758620691e+00 5.000000000000e+04 2.017268718295e+05 1.517268718295e+05 1.000000000000e-02 9.900000000000e-01 -6.692624876033e-22 2.252910311858e-23 -6.560213704712e-14 2.387170224794e-15 
1.972413793105e+00 5.000000000000e+04 2.017268718296e+05 1.517268718296e+05 1.000000000000e-02 9.900000000000e-01 -5.876257053168e-22 2.463896934383e-23 -5.765201745033e-14 2.641556787150e-15 
2.062068965518e+00 5.000000000000e+04 2.017268718296e+05 1.517268718296e+05 1.000000000000e-02 9.900000000000e-01 -5.050043558479e-22 2.553006391622e-23 -4.950507866654e-14 2.597160146621e-15 
2.151724137932e+00 5.000000000000e+04 2.017268718297e+05 1.517268718297e+05 1.000000000000e-02 9.900000000000e-01 -4.175075135755e-22 2.641389247087e-23 -4.094349159734e-14 2.727477801912e-15 
2.241379310346e+00 5.000000000000e+04 2.017268718297e+05 1.517268718297e+05 1.000000000000e-02 9.900000000000e-01 -3.312463270240e-22 3.262182893409e-23 -3.240419292997e-14 2.996879521655e-15 
2.331034482759e+00 5.000000000000e+04 2.017268718297e+05 1.517268718297e+05 1.000000000000e-02 9.900000000000e-01 -2.421832024228e-22 2.736442195796e-23 -2.366906652182e-14 2.828005684657e-15 
2.420689655173e+00 5.000000000000e+04 2.017268718298e+05 1.517268718298e+05 1.000000000000e-02 9.900000000000e-01 -1.686214126680e-22 2.560396254980e-23 -1.659314234196e-14 2.686684671736e-15 
2.510344827586e+00 5.000000000000e+04 2.017268718298e+05 1.517268718298e+05 1.000000000000e-02 9.900000000000e-01 -7.951888672737e-23 1.591585451067e-23 -7.836335644458e-15 1.490509103349e-15 
2.600000000000e+00 5.000000000000e+04 2.017268718298e+05 1.517268718298e+05 1.000000000000e-02 9.900000000000e-01 -1.710312620221e-23 1.822022014976e-23 -1.747897333428e-15 1.767324910830e-15 
 TITLE = "Profiles along polylines"
 VARIABLES = "DIST" "PRESSURE1" "PRESSURE2" "PRESSURE_W" "SATURATION1" SATURATION2 "VELOCITY_X1" "VELOCITY_Y1" "VELOCITY_X2" "VELOCITY_Y2" 
 ZONE T="TIME=4.000000000000e+03"
0.000000000000e+00 5.000000000000e+03 2.000000000000e+05 1.950000000000e+05 9.895816519927e-01 1.041834800730e-02 3.508560444111e-05 -2.772240529207e-17 6.804139375183e-06 -8.667538764172e-19 
8.965517241379e-02 6.060337757091e+03 2.010258328889e+05 1.949654951318e+05 6.763779569202e-01 3.236220430798e-01 1.471752152905e-05 2.645338629451e-19 -3.472483623669e-05 5.107849823410e-18 
1.793103448276e-01 6.386884410002e+03 2.012555916052e+05 1.948687071951e+05 6.124278693262e-01 3.875721306738e-01 1.845842467233e-05 -1.155074753568e-17 -1.963621294043e-05 -3.782670667877e-17 
2.689655172414e-01 6.674119621298e+03 2.014030327467e+05 1.947289131254e+05 5.609194042315e-01 4.390805957685e-01 1.831458329726e-05 -4.117668673795e-17 -1.861283511240e-05 1.806190721726e-16 
3.586206896552e-01 6.973433823281e+03 2.015088725784e+05 1.945354387551e+05 5.137673643022e-01 4.862326356978e-01 1.792719108659e-05 -5.002659041339e-17 -1.787047712445e-05 1.720285738840e-16 
4.482758620690e-01 7.322368645225e+03 2.015875348461e+05 1.942651662008e+05 4.658501559354e-01 5.341498440646e-01 1.740365640674e-05 -3.252343416553e-17 -1.704509854654e-05 1.912061710819e-16 
5.379310344828e-01 7.777865734427e+03 2.016459224523e+05 1.938680567179e+05 4.125780448754e-01 5.874219551246e-01 1.683326066545e-05 -1.679621459026e-17 -1.596730715025e-05 5.907240431367e-17 
6.275862068966e-01 8.477981623282e+03 2.016877177767e+05 1.932097361534e+05 3.459622163477e-01 6.540377836523e-01 1.702914148653e-05 1.063460802163e-17 -1.432967828130e-05 1.271224062103e-16 
7.172413793105e-01 1.006946200850e+04 2.017143760424e+05 1.916449140339e+05 2.224279138746e-01 7.775720861254e-01 1.292296839164e-05 3.369239125126e-17 -9.980520364966e-06 5.328236837728e-16 
8.068965517245e-01 2.501267160653e+04 2.017202842751e+05 1.767076126686e+05 3.085373012798e-02 9.691462698720e-01 -1.240171651943e-06 1.457319337222e-19 -3.121990017669e-06 1.101501847648e-15 
8.965517241385e-01 4.969613465596e+04 2.017202933874e+05 1.520241587314e+05 9.212764454125e-03 9.907872355459e-01 -1.932272603516e-09 -2.486367396149e-21 -4.999218361571e-09 1.506710080630e-15 
9.862068965524e-01 4.999981708592e+04 2.017202933907e+05 1.517204763048e+05 1.000001738020e-02 9.899999826198e-01 1.694453080212e-12 1.100559424514e-23 -1.874800941941e-12 1.618016346979e-15 
1.075862068966e+00 4.999999989216e+04 2.017202933908e+05 1.517202934987e+05 1.000000004312e-02 9.899999999569e-01 1.020096075482e-15 2.289386457277e-23 -1.335061548995e-13 2.227485445676e-15 
1.165517241380e+00 4.999999999994e+04 2.017202933909e+05 1.517202933910e+05 1.000000000003e-02 9.900000000000e-01 6.001481149402e-19 2.751397005994e-23 -1.259359106665e-13 2.806183028978e-15 
1.255172413794e+00 5.000000000000e+04 2.017202933911e+05 1.517202933911e+05 1.000000000000e-02 9.900000000000e-01 -8.552356462261e-22 2.944286150843e-23 -1.185505291506e-13 2.893831055645e-15 
1.344827586208e+00 5.000000000000e+04 2.017202933912e+05 1.517202933912e+05 1.000000000000e-02 9.900000000000e-01 -1.130202778349e-21 2.499291937466e-23 -1.108087275471e-13 2.511587042179e-15 
1.434482758622e+00 5.000000000000e+04 2.017202933913e+05 1.517202933913e+05 1.000000000000e-02 9.900000000000e-01 -1.050440234922e-21 2.293543693602e-23 -1.028357354175e-13 2.140517906228e-15 
1.524137931036e+00 5.000000000000e+04 2.017202933913e+05 1.517202933913e+05 1.000000000000e-02 9.900000000000e-01 -9.665035705708e-22 2.197494718430e-23 -9.467618945767e-14 2.354196673160e-15 
1.613793103450e+00 5.000000000000e+04 2.017202933914e+05 1.517202933914e+05 1.000000000000e-02 9.900000000000e-01 -8.765137299554e-22 2.830262423791e-23 -8.591362568787e-14 2.781412389626e-15 
1.703448275863e+00 5.000000000000e+04 2.017202933915e+05 1.517202933915e+05 1.000000000000e-02 9.900000000000e-01 -7.842019930699e-22 3.280632461639e-23 -7.689895198738e-14 3.234750092761e-15 
1.793103448277e+00 5.000000000000e+04 2.017202933916e+05 1.517202933916e+05 1.000000000000e-02 9.900000000000e-01 -6.892476165774e-22 3.468521350350e-23 -6.755958582342e-14 3.406960117724e-15 
1.882758620691e+00 5.000000000000e+04 2.017202933916e+05 1.517202933916e+05 1.000000000000e-02 9.900000000000e-01 -5.922855403523e-22 3.312489231347e-23 -5.798948337588e-14 3.381607720859e-15 
1.972413793105e+00 5.000000000000e+04 2.017202933917e+05 1.517202933917e+05 1.000000000000e-02 9.900000000000e-01 -4.985349730666e-22 3.080555365719e-23 -4.897583849324e-14 3.205028368449e-15 
2.062068965518e+00 5.000000000000e+04 2.017202933917e+05 1.517202933917e+05 1.000000000000e-02 9.900000000000e-01 -4.190081402317e-22 2.648256409352e-23 -4.115625938226e-14 2.552876595113e-15 
2.151724137932e+00 5.000000000000e+04 2.017202933918e+05 1.517202933918e+05 1.000000000000e-02 9.900000000000e-01 -3.482916660360e-22 2.381923133238e-23 -3.413294248622e-14 2.362859610670e-15 
2.241379310346e+00 5.000000000000e+04 2.017202933918e+05 1.517202933918e+05 1.000000000000e-02 9.900000000000e-01 -2.773269776487e-22 2.926665414786e-23 -2.711123135686e-14 2.629318093555e-15 
2.331034482759e+00 5.000000000000e+04 2.017202933918e+05 1.517202933918e+05 1.000000000000e-02 9.900000000000e-01 -2.000966283233e-22 2.529872945404e-23 -1.948352753001e-14 2.515147459965e-15 
2.420689655173e+00 5.000000000000e+04 2.017202933918e+05 1.517202933918e+05 1.000000000000e-02 9.900000000000e-01 -1.393996067300e-22 1.813656123138e-23 -1.371358844274e-14 1.903715898022e-15 
2.510344827586e+00 5.000000000000e+04 2.017202933918e+05 1.517202933918e+05 1.000000000000e-02 9.900000000000e-01 -6.599762968612e-23 4.340877318613e-24 -6.488745713423e-15 3.504321523614e-16 
2.600000000000e+00 5.000000000000e+04 2.017202933918e+05 1.517202933918e+05 1.000000000000e-02 9.900000000000e-01 -1.093770145730e-23 1.724612126781e-23 -1.101369458241e-15 1.758492277925e-15 