 TITLE = "Profiles along polylines"
 VARIABLES = "DIST" "PRESSURE1" "PRESSURE2" "PRESSURE_W" "SATURATION1" SATURATION2 "VELOCITY_X1" "VELOCITY_Y1" "VELOCITY_X2" "VELOCITY_Y2" 
 ZONE T="TIME=0.000000000000e+00"
0.000000000000e+00 5.000000000000e+04 0.000000000000e+00 -5.000000000000e+04 1.000000000000e-02 9.900000000000e-01 0.000000000000e+00 0.000000000000e+00 0.000000000000e+00 0.000000000000e+00 
8.965517241379e-02 5.000000000000e+04 0.000000000000e+00 -5.000000000000e+04 1.000000000000e-02 9.900000000000e-01 0.000000000000e+00 0.000000000000e+00 0.000000000000e+00 0.000000000000e+00 
1.793103448276e-01 5.000000000000e+04 0.000000000000e+00 -5.000000000000e+04 1.000000000000e-02 9.900000000000e-01 0.000000000000e+00 0.000000000000e+00 0.000000000000e+00 0.000000000000e+00 
2.689655172414e-01 5.000000000000e+04 0.000000000000e+00 -5.000000000000e+04 1.000000000000e-02 9.900000000000e-01 0.000000000000e+00 0.000000000000e+00 0.000000000000e+00 0.000000000000e+00 
3.586206896552e-01 5.000000000000e+04 0.000000000000e+00 -5.000000000000e+04 1.000000000000e-02 9.900000000000e-01 0.000000000000e+00 0.000000000000e+00 0.000000000000e+00 0.000000000000e+00 
4.482758620690e-01 5.000000000000e+04 0.000000000000e+00 -5.000000000000e+04 1.000000000000e-02 9.900000000000e-01 0.000000000000e+00 0.000000000000e+00 0.000000000000e+00 0.000000000000e+00 
5.379310344828e-01 5.000000000000e+04 0.000000000000e+00 -5.000000000000e+04 1.000000000000e-02 9.900000000000e-01 0.000000000000e+00 0.000000000000e+00 0.000000000000e+00 0.000000000000e+00 
6.275862068966e-01 5.000000000000e+04 0.000000000000e+00 -5.000000000000e+04 1.000000000000e-02 9.900000000000e-01 0.000000000000e+00 0.000000000000e+00 0.000000000000e+00 0.000000000000e+00 
7.172413793105e-01 5.000000000000e+04 0.000000000000e+00 -5.000000000000e+04 1.000000000000e-02 9.900000000000e-01 0.000000000000e+00 0.000000000000e+00 0.000000000000e+00 0.000000000000e+00 
8.068965517245e-01 5.000000000000e+04 0.000000000000e+00 -5.000000000000e+04 1.000000000000e-02 9.900000000000e-01 0.000000000000e+00 0.000000000000e+00 0.000000000000e+00 0.000000000000e+00 
8.965517241385e-01 5.000000000000e+04 0.000000000000e+00 -5.000000000000e+04 1.000000000000e-02 9.900000000000e-01 0.000000000000e+00 0.000000000000e+00 0.000000000000e+00 0.000000000000e+00 
9.862068965524e-01 5.000000000000e+04 0.000000000000e+00 -5.000000000000e+04 1.000000000000e-02 9.900000000000e-01 0.000000000000e+00 0.000000000000e+00 0.000000000000e+00 0.000000000000e+00 
1.075862068966e+00 5.000000000000e+04 0.000000000000e+00 -5.000000000000e+04 1.000000000000e-02 9.900000000000e-01 0.000000000000e+00 0.000000000000e+00 0.000000000000e+00 0.000000000000e+00 
1.165517241380e+00 5.000000000000e+04 0.000000000000e+00 -5.000000000000e+04 1.000000000000e-02 9.900000000000e-01 0.000000000000e+00 0.000000000000e+00 0.000000000000e+00 0.000000000000e+00 
1.255172413794e+00 5.000000000000e+04 0.000000000000e+00 -5.000000000000e+04 1.000000000000e-02 9.900000000000e-01 0.000000000000e+00 0.000000000000e+00 0.000000000000e+00 0.000000000000e+00 
1.344827586208e+00 5.000000000000e+04 0.000000000000e+00 -5.000000000000e+04 1.000000000000e-02 9.900000000000e-01 0.000000000000e+00 0.000000000000e+00 0.000000000000e+00 0.000000000000e+00 
1.434482758622e+00 5.000000000000e+04 0.000000000000e+00 -5.000000000000e+04 1.000000000000e-02 9.900000000000e-01 0.000000000000e+00 0.000000000000e+00 0.000000000000e+00 0.000000000000e+00 
1.524137931036e+00 5.000000000000e+04 0.000000000000e+00 -5.000000000000e+04 1.000000000000e-02 9.900000000000e-01 0.000000000000e+00 0.000000000000e+00 0.000000000000e+00 0.000000000000e+00 
1.613793103450e+00 5.000000000000e+04 0.000000000000e+00 -5.000000000000e+04 1.000000000000e-02 9.900000000000e-01 0.000000000000e+00 0.000000000000e+00 0.000000000000e+00 0.000000000000e+00 
1.703448275863e+00 5.000000000000e+04 0.000000000000e+00 -5.000000000000e+04 1.000000000000e-02 9.900000000000e-01 0.000000000000e+00 0.000000000000e+00 0.000000000000e+00 0.000000000000e+00 
1.793103448277e+00 5.000000000000e+04 0.000000000000e+00 -5.000000000000e+04 1.000000000000e-02 9.900000000000e-01 0.000000000000e+00 0.000000000000e+00 0.000000000000e+00 0.000000000000e+00 
1.882758620691e+00 5.000000000000e+04 0.000000000000e+00 -5.000000000000e+04 1.000000000000e-02 9.900000000000e-01 0.000000000000e+00 0.000000000000e+00 0.000000000000e+00 0.000000000000e+00 
1.972413793105e+00 5.000000000000e+04 0.000000000000e+00 -5.000000000000e+04 1.000000000000e-02 9.900000000000e-01 0.000000000000e+00 0.000000000000e+00 0.000000000000e+00 0.000000000000e+00 
2.062068965518e+00 5.000000000000e+04 0.000000000000e+00 -5.000000000000e+04 1.000000000000e-02 9.900000000000e-01 0.000000000000e+00 0.000000000000e+00 0.000000000000e+00 0.000000000000e+00 
2.151724137932e+00 5.000000000000e+04 0.000000000000e+00 -5.000000000000e+04 1.000000000000e-02 9.900000000000e-01 0.000000000000e+00 0.000000000000e+00 0.000000000000e+00 0.000000000000e+00 
2.241379310346e+00 5.000000000000e+04 0.000000000000e+00 -5.000000000000e+04 1.000000000000e-02 9.900000000000e-01 0.000000000000e+00 0.000000000000e+00 0.000000000000e+00 0.000000000000e+00 
2.331034482759e+00 5.000000000000e+04 0.000000000000e+00 -5.000000000000e+04 1.000000000000e-02 9.900000000000e-01 0.000000000000e+00 0.000000000000e+00 0.000000000000e+00 0.000000000000e+00 
2.420689655173e+00 5.000000000000e+04 0.000000000000e+00 -5.000000000000e+04 1.000000000000e-02 9.900000000000e-01 0.000000000000e+00 0.000000000000e+00 0.000000000000e+00 0.000000000000e+00 
2.510344827586e+00 5.000000000000e+04 0.000000000000e+00 -5.000000000000e+04 1.000000000000e-02 9.900000000000e-01 0.000000000000e+00 0.000000000000e+00 0.000000000000e+00 0.000000000000e+00 
2.600000000000e+00 5.000000000000e+04 0.000000000000e+00 -5.000000000000e+04 1.000000000000e-02 9.900000000000e-01 0.000000000000e+00 0.000000000000e+00 0.000000000000e+00 0.000000000000e+00 
 TITLE = "Profiles along polylines"
 VARIABLES = "DIST" "PRESSURE1" "PRESSURE2" "PRESSURE_W" "SATURATION1" SATURATION2 "VELOCITY_X1" "VELOCITY_Y1" "VELOCITY_X2" "VELOCITY_Y2" 
 ZONE T="TIME=5.000000000000e+02"
0.000000000000e+00 5.000000000000e+03 2.000000000000e+05 1.950000000000e+05 9.806441390624e-01 1.935586093762e-02 1.214924650539e-04 -1.611929340087e-17 1.904867840943e-05 2.957577642055e-18 
8.965517241379e-02 6.518704490578e+03 2.013910865260e+05 1.948723820354e+05 5.800717785457e-01 4.199282214543e-01 4.520161079903e-05 8.024268666476e-18 -9.532014849858e-05 -4.410007589597e-17 
1.793103448276e-01 7.433716157483e+03 2.016620372381e+05 1.942283210806e+05 4.249401436889e-01 5.750598563111e-01 9.746337478046e-05 1.129740356893e-17 -4.792370657467e-05 3.415719690163e-16 
2.689655172414e-01 1.488557288254e+04 2.017352676754e+05 1.868496947928e+05 8.603062322903e-02 9.139693767710e-01 -8.872711519884e-06 2.238889919123e-18 -3.315528169006e-05 -4.016555479740e-15 
3.586206896552e-01 4.878582336610e+04 2.017355372203e+05 1.529497138542e+05 7.135452893188e-03 9.928645471068e-01 -7.115377225466e-08 -6.252805296444e-21 -1.491826827171e-07 -6.536797888840e-15 
4.482758620690e-01 4.999984459207e+04 2.017355372338e+05 1.517356926417e+05 9.999148412177e-03 9.900008515878e-01 6.755931424914e-12 -2.655861096880e-23 -7.210163307044e-12 -2.043123330223e-15 
5.379310344828e-01 4.999999998169e+04 2.017355372335e+05 1.517355372519e+05 1.000000000731e-02 9.899999999927e-01 8.667007805921e-16 1.581747772746e-25 2.690378168943e-13 -1.044717956958e-18 
6.275862068966e-01 5.000000000000e+04 2.017355372333e+05 1.517355372333e+05 1.000000000000e-02 9.900000000000e-01 1.048740381262e-19 4.305199945555e-24 2.707203403662e-13 4.879969985956e-16 
7.172413793105e-01 5.000000000000e+04 2.017355372330e+05 1.517355372330e+05 1.000000000000e-02 9.900000000000e-01 2.748242482804e-21 -1.487879049568e-23 2.681488015238e-13 -1.467416538672e-15 
8.068965517245e-01 5.000000000000e+04 2.017355372328e+05 1.517355372328e+05 1.000000000000e-02 9.900000000000e-01 2.653389929327e-21 -3.234069125491e-23 2.600123570114e-13 -3.150806125772e-15 
8.965517241385e-01 5.000000000000e+04 2.017355372326e+05 1.517355372326e+05 1.000000000000e-02 9.900000000000e-01 2.561729067367e-21 -5.138068870472e-24 2.509971403243e-13 -5.287902524998e-16 
9.862068965524e-01 5.000000000000e+04 2.017355372323e+05 1.517355372323e+05 1.000000000000e-02 9.900000000000e-01 2.483394579247e-21 -2.183258085585e-24 2.433722084001e-13 -1.917757707803e-16 
1.075862068966e+00 5.000000000000e+04 2.017355372321e+05 1.517355372321e+05 1.000000000000e-02 9.900000000000e-01 2.395683082262e-21 -3.972358403622e-23 2.348440147375e-13 -3.787490509367e-15 
1.165517241380e+00 5.000000000000e+04 2.017355372319e+05 1.517355372319e+05 1.000000000000e-02 9.900000000000e-01 2.272102525300e-21 -6.509543949906e-23 2.227166691660e-13 -6.276566744379e-15 
1.255172413794e+00 5.000000000000e+04 2.017355372317e+05 1.517355372317e+05 1.000000000000e-02 9.900000000000e-01 2.117757248856e-21 -6.583983673349e-23 2.075422390494e-13 -6.311299932732e-15 
1.344827586208e+00 5.000000000000e+04 2.017355372315e+05 1.517355372315e+05 1.000000000000e-02 9.900000000000e-01 1.973093490183e-21 -5.014287769437e-23 1.933400658821e-13 -4.731374646468e-15 
1.434482758622e+00 5.000000000000e+04 2.017355372314e+05 1.517355372314e+05 1.000000000000e-02 9.900000000000e-01 1.874020345329e-21 -2.503088417181e-23 1.836893136608e-13 -2.346588058089e-15 
1.524137931036e+00 5.000000000000e+04 2.017355372312e+05 1.517355372312e+05 1.000000000000e-02 9.900000000000e-01 1.802997851765e-21 -2.371020004426e-23 1.766934917688e-13 -2.280195293779e-15 
1.613793103450e+00 5.000000000000e+04 2.017355372310e+05 1.517355372310e+05 1.000000000000e-02 9.900000000000e-01 1.701930160417e-21 -4.548448480231e-23 1.667751846237e-13 -4.488862554979e-15 
1.703448275863e+00 5.000000000000e+04 2.017355372309e+05 1.517355372309e+05 1.000000000000e-02 9.900000000000e-01 1.548443608454e-21 -5.375541952254e-23 1.517470687234e-13 -5.331491337989e-15 
1.793103448277e+00 5.000000000000e+04 2.017355372308e+05 1.517355372308e+05 1.000000000000e-02 9.900000000000e-01 1.377374422025e-21 -3.896843032520e-23 1.349926333434e-13 -3.815450772468e-15 
1.882758620691e+00 5.000000000000e+04 2.017355372306e+05 1.517355372306e+05 1.000000000000e-02 9.900000000000e-01 1.224731365063e-21 -3.278320677438e-23 1.200624933394e-13 -3.313748695723e-15 
1.972413793105e+00 5.000000000000e+04 2.017355372305e+05 1.517355372305e+05 1.000000000000e-02 9.900000000000e-01 1.081422926340e-21 -5.182395680886e-23 1.059497179167e-13 -5.040687791672e-15 
2.062068965518e+00 5.000000000000e+04 2.017355372305e+05 1.517355372305e+05 1.000000000000e-02 9.900000000000e-01 9.191483237203e-22 -7.330861684869e-23 9.002981626255e-14 -7.191038721742e-15 
2.151724137932e+00 5.000000000000e+04 2.017355372304e+05 1.517355372304e+05 1.000000000000e-02 9.900000000000e-01 7.394467945892e-22 -7.415439801105e-23 7.245102328213e-14 -7.267783089718e-15 
2.241379310346e+00 5.000000000000e+04 2.017355372303e+05 1.517355372303e+05 1.000000000000e-02 9.900000000000e-01 5.723971297377e-22 -5.330025264786e-23 5.612559149662e-14 -5.236432145916e-15 
2.331034482759e+00 5.000000000000e+04 2.017355372303e+05 1.517355372303e+05 1.000000000000e-02 9.900000000000e-01 4.322129077109e-22 -3.891993388098e-23 4.240991614088e-14 -3.731078554683e-15 
2.420689655173e+00 5.000000000000e+04 2.017355372302e+05 1.517355372302e+05 1.000000000000e-02 9.900000000000e-01 3.333946263227e-22 -3.782090155600e-23 3.269179595960e-14 -3.680631465973e-15 
2.510344827586e+00 5.000000000000e+04 2.017355372302e+05 1.517355372302e+05 1.000000000000e-02 9.900000000000e-01 1.673524775979e-22 -2.413070009579e-23 1.637650268833e-14 -2.349579258063e-15 
2.600000000000e+00 5.000000000000e+04 2.017355372302e+05 1.517355372302e+05 1.000000000000e-02 9.900000000000e-01 3.588889727952e-23 -4.962631262959e-23 3.454590572404e-15 -4.950228604450e-15 
 TITLE = "Profiles along polylines"
 VARIABLES = "DIST" "PRESSURE1" "PRESSURE2" "PRESSURE_W" "SATURATION1" SATURATION2 "VELOCITY_X1" "VELOCITY_Y1" "VELOCITY_X2" "VELOCITY_Y2" 
 ZONE T="TIME=1.000000000000e+03"
0.000000000000e+00 5.000000000000e+03 2.000000000000e+05 1.950000000000e+05 9.842113276506e-01 1.578867234936e-02 8.124167139420e-05 2.142923678010e-17 1.373456610466e-05 -1.746005891044e-17 
8.965517241379e-02 6.346915784823e+03 2.012637250997e+05 1.949168093148e+05 6.141296916067e-01 3.858703083933e-01 3.074571930048e-05 9.924435469761e-17 -6.963610551139e-05 1.445373051619e-16 
1.793103448276e-01 6.943964934707e+03 2.015327441664e+05 1.945887792317e+05 5.168569868530e-01 4.831430131470e-01 3.964108203833e-05 4.911898107584e-17 -3.891118201561e-05 2.987368812716e-16 
2.689655172414e-01 7.779381656668e+03 2.016756076086e+05 1.938962259519e+05 4.023229426230e-01 5.976770573770e-01 5.794563935124e-05 6.319102795644e-17 -3.303993826225e-05 1.533079558921e-15 
3.586206896552e-01 1.194978216115e+04 2.017359224289e+05 1.897861402678e+05 1.407389009496e-01 8.592610990504e-01 -2.874039054812e-07 -6.162859739024e-18 -2.319323161667e-05 2.859014315021e-15 
4.482758620690e-01 4.301717712775e+04 2.017370890724e+05 1.587199119447e+05 8.263190225826e-03 9.917368097742e-01 -3.016950181845e-07 2.301696303920e-19 -6.464635937744e-07 4.101117164985e-15 
5.379310344828e-01 4.999717612871e+04 2.017370892088e+05 1.517399130801e+05 9.965444640157e-03 9.900345553598e-01 3.433942807693e-11 2.506141483906e-23 -7.448246052040e-11 5.966076270059e-15 
6.275862068966e-01 4.999999933053e+04 2.017370892087e+05 1.517370898781e+05 1.000000026301e-02 9.899999997370e-01 1.574851479042e-14 5.496800882850e-23 1.154312799219e-13 5.321392891471e-15 
7.172413793105e-01 4.999999999984e+04 2.017370892086e+05 1.517370892087e+05 1.000000000006e-02 9.899999999999e-01 3.735109224456e-18 4.594628418047e-23 1.495031353299e-13 4.574562262270e-15 
8.068965517245e-01 5.000000000000e+04 2.017370892084e+05 1.517370892084e+05 1.000000000000e-02 9.900000000000e-01 2.580326742965e-21 5.419650094466e-23 1.662236626199e-13 5.340762936896e-15 
8.965517241385e-01 5.000000000000e+04 2.017370892082e+05 1.517370892082e+05 1.000000000000e-02 9.900000000000e-01 1.852606385979e-21 6.701777421213e-23 1.814816492877e-13 6.579141413638e-15 
9.862068965524e-01 5.000000000000e+04 2.017370892081e+05 1.517370892081e+05 1.000000000000e-02 9.900000000000e-01 1.987560061534e-21 6.432028140108e-23 1.947977491578e-13 6.352928752727e-15 
1.075862068966e+00 5.000000000000e+04 2.017370892079e+05 1.517370892079e+05 1.000000000000e-02 9.900000000000e-01 2.084883354439e-21 4.687304867924e-23 2.043847155688e-13 4.698853450916e-15 
1.165517241380e+00 5.000000000000e+04 2.017370892077e+05 1.517370892077e+05 1.000000000000e-02 9.900000000000e-01 2.130825765604e-21 2.072974606814e-23 2.088430384832e-13 2.187389115126e-15 
1.255172413794e+00 5.000000000000e+04 2.017370892075e+05 1.517370892075e+05 1.000000000000e-02 9.900000000000e-01 2.120177792602e-21 -3.680583060413e-24 2.077380698362e-13 -2.383746630130e-16 
1.344827586208e+00 5.000000000000e+04 2.017370892073e+05 1.517370892073e+05 1.000000000000e-02 9.900000000000e-01 2.057870627985e-21 -2.282305055970e-23 2.016700864593e-13 -2.131944076181e-15 
1.434482758622e+00 5.000000000000e+04 2.017370892071e+05 1.517370892071e+05 1.000000000000e-02 9.900000000000e-01 1.956903107589e-21 -3.629963018252e-23 1.918214123402e-13 -3.510143706092e-15 
1.524137931036e+00 5.000000000000e+04 2.017370892070e+05 1.517370892070e+05 1.000000000000e-02 9.900000000000e-01 1.830811319239e-21 -4.635899839254e-23 1.793750313153e-13 -4.451891567776e-15 
1.613793103450e+00 5.000000000000e+04 2.017370892068e+05 1.517370892068e+05 1.000000000000e-02 9.900000000000e-01 1.686201764132e-21 -4.888993171307e-23 1.652028588222e-13 -4.828138940834e-15 
1.703448275863e+00 5.000000000000e+04 2.017370892067e+05 1.517370892067e+05 1.000000000000e-02 9.900000000000e-01 1.529526989418e-21 -5.208603785603e-23 1.499060974638e-13 -5.200574762398e-15 
1.793103448277e+00 5.000000000000e+04 2.017370892065e+05 1.517370892065e+05 1.000000000000e-02 9.900000000000e-01 1.367751841703e-21 -5.448398418118e-23 1.340318412999e-13 -5.396484915597e-15 
1.882758620691e+00 5.000000000000e+04 2.017370892064e+05 1.517370892064e+05 1.000000000000e-02 9.900000000000e-01 1.205272852691e-21 -5.527390971530e-23 1.181013149369e-13 -5.502121038996e-15 
1.972413793105e+00 5.000000000000e+04 2.017370892063e+05 1.517370892063e+05 1.000000000000e-02 9.900000000000e-01 1.041893419984e-21 -5.626216859888e-23 1.020771764698e-13 -5.464251060560e-15 
2.062068965518e+00 5.000000000000e+04 2.017370892062e+05 1.517370892062e+05 1.000000000000e-02 9.900000000000e-01 8.785384652992e-22 -5.659643720850e-23 8.610711586900e-14 -5.510217557294e-15 
2.151724137932e+00 5.000000000000e+04 2.017370892062e+05 1.517370892062e+05 1.000000000000e-02 9.900000000000e-01 7.166482127424e-22 -5.527756725823e-23 7.022010778933e-14 -5.393821540825e-15 
2.241379310346e+00 5.000000000000e+04 2.017370892061e+05 1.517370892061e+05 1.000000000000e-02 9.900000000000e-01 5.555272900707e-22 -5.398941470459e-23 5.448092675065e-14 -5.276225611807e-15 
2.331034482759e+00 5.000000000000e+04 2.017370892061e+05 1.517370892061e+05 1.000000000000e-02 9.900000000000e-01 3.981506689687e-22 -5.302674868160e-23 3.909396707980e-14 -5.095519422400e-15 
2.420689655173e+00 5.000000000000e+04 2.017370892060e+05 1.517370892060e+05 1.000000000000e-02 9.900000000000e-01 2.773284974173e-22 -4.867734890311e-23 2.717805194677e-14 -4.695999321520e-15 
2.510344827586e+00 5.000000000000e+04 2.017370892060e+05 1.517370892060e+05 1.000000000000e-02 9.900000000000e-01 1.305202441938e-22 -2.566824439550e-23 1.278407976171e-14 -2.460577554424e-15 
2.600000000000e+00 5.000000000000e+04 2.017370892060e+05 1.517370892060e+05 1.000000000000e-02 9.900000000000e-01 2.871986733747e-23 -2.720314288515e-23 2.752024211445e-15 -2.725657786108e-15 
 TITLE = "Profiles along polylines"
 VARIABLES = "DIST" "PRESSURE1" "PRESSURE2" "PRESSURE_W" "SATURATION1" SATURATION2 "VELOCITY_X1" "VELOCITY_Y1" "VELOCITY_X2" "VELOCITY_Y2" 
 ZONE T="TIME=2.000000000000e+03"
0.000000000000e+00 5.000000000000e+03 2.000000000000e+05 1.950000000000e+05 9.871508154698e-01 1.284918453023e-02 5.369201696762e-05 -2.705691218314e-17 9.746674504818e-06 2.329488344478e-17 
8.965517241379e-02 6.195277600298e+03 2.011414809794e+05 1.949462033791e+05 6.461044801310e-01 3.538955198690e-01 2.116873911763e-05 -3.126253697368e-18 -4.965658277512e-05 -2.101524199107e-16 
1.793103448276e-01 6.621957948765e+03 2.013932018103e+05 1.947712438615e+05 5.693938023381e-01 4.306061976619e-01 2.663796792019e-05 -6.614233192373e-17 -2.797627189242e-05 -5.114602753056e-16 
2.689655172414e-01 7.057294487351e+03 2.015445256881e+05 1.944872312008e+05 5.012049206073e-01 4.987950793927e-01 2.615448505819e-05 -7.056295458133e-17 -2.579975839710e-05 -3.062647173400e-16 
3.586206896552e-01 7.623293452430e+03 2.016425268813e+05 1.940192334288e+05 4.289061325226e-01 5.710938674774e-01 2.533308198264e-05 -1.078586285196e-17 -2.342824407069e-05 -7.348390390736e-17 
4.482758620690e-01 8.589993310757e+03 2.017030018273e+05 1.931130085165e+05 3.199020015343e-01 6.800979984657e-01 3.644110788060e-05 -2.398841094191e-17 -1.878262701140e-05 -1.750647378573e-15 
5.379310344828e-01 1.669058447809e+04 2.017263919805e+05 1.850358075024e+05 7.144500936817e-02 9.285549906318e-01 -3.045373602759e-06 1.174767117732e-18 -1.111823975485e-05 -5.929767679106e-15 
6.275862068966e-01 4.811566311409e+04 2.017265264646e+05 1.536108633505e+05 8.160704887899e-03 9.918392951121e-01 -3.495830440696e-08 7.750999339677e-20 -7.417941357369e-08 -6.721221540434e-15 
7.172413793105e-01 4.999924711754e+04 2.017265264871e+05 1.517272793696e+05 9.998060644605e-03 9.900019393554e-01 1.044896741701e-11 -5.732759005772e-23 -1.232134020455e-11 -4.113722263832e-15 
8.068965517245e-01 4.999999973572e+04 2.017265264872e+05 1.517265267515e+05 1.000000010537e-02 9.899999998946e-01 4.198766782434e-15 -3.506047266030e-23 -4.155951761979e-14 -3.385681017784e-15 
8.965517241385e-01 4.999999999991e+04 2.017265264872e+05 1.517265264873e+05 1.000000000004e-02 9.900000000000e-01 1.473315470740e-18 -5.614545023645e-23 -5.250346321996e-14 -5.533050344981e-15 
9.862068965524e-01 5.000000000000e+04 2.017265264873e+05 1.517265264873e+05 1.000000000000e-02 9.900000000000e-01 -1.880835769819e-22 -7.866556501839e-23 -6.909234561265e-14 -7.686412560167e-15 
1.075862068966e+00 5.000000000000e+04 2.017265264873e+05 1.517265264873e+05 1.000000000000e-02 9.900000000000e-01 -8.886124643121e-22 -7.825177948190e-23 -8.711053548451e-14 -7.704786912968e-15 
1.165517241380e+00 5.000000000000e+04 2.017265264874e+05 1.517265264874e+05 1.000000000000e-02 9.900000000000e-01 -1.063119990688e-21 -6.403927230901e-23 -1.041465193099e-13 -6.233871309704e-15 
1.255172413794e+00 5.000000000000e+04 2.017265264875e+05 1.517265264875e+05 1.000000000000e-02 9.900000000000e-01 -1.206714168050e-21 -4.488493286285e-23 -1.182731081530e-13 -4.357069995604e-15 
1.344827586208e+00 5.000000000000e+04 2.017265264876e+05 1.517265264876e+05 1.000000000000e-02 9.900000000000e-01 -1.315539829482e-21 -3.163334088231e-23 -1.288878147124e-13 -3.033590855619e-15 
1.434482758622e+00 5.000000000000e+04 2.017265264878e+05 1.517265264878e+05 1.000000000000e-02 9.900000000000e-01 -1.389481640976e-21 -2.697905519223e-23 -1.361678964496e-13 -2.547940848454e-15 
1.524137931036e+00 5.000000000000e+04 2.017265264879e+05 1.517265264879e+05 1.000000000000e-02 9.900000000000e-01 -1.433811092515e-21 -2.081316027725e-23 -1.405147077836e-13 -2.004818843237e-15 
1.613793103450e+00 5.000000000000e+04 2.017265264880e+05 1.517265264880e+05 1.000000000000e-02 9.900000000000e-01 -1.450661256993e-21 -1.200074338275e-23 -1.421356001552e-13 -1.254144112926e-15 
1.703448275863e+00 5.000000000000e+04 2.017265264882e+05 1.517265264882e+05 1.000000000000e-02 9.900000000000e-01 -1.436332828256e-21 -9.698146560241e-25 -1.407665167930e-13 -1.791660356893e-16 
1.793103448277e+00 5.000000000000e+04 2.017265264883e+05 1.517265264883e+05 1.000000000000e-02 9.900000000000e-01 -1.387034601975e-21 1.252750718898e-23 -1.359492139497e-13 1.234443368478e-15 
1.882758620691e+00 5.000000000000e+04 2.017265264884e+05 1.517265264884e+05 1.000000000000e-02 9.900000000000e-01 -1.300303373036e-21 2.648294046604e-23 -1.274068666256e-13 2.638425717997e-15 
1.972413793105e+00 5.000000000000e+04 2.017265264885e+05 1.517265264885e+05 1.000000000000e-02 9.900000000000e-01 -1.180542064063e-21 3.771109267315e-23 -1.157387884472e-13 3.801217620854e-15 
2.062068965518e+00 5.000000000000e+04 2.017265264886e+05 1.517265264886e+05 1.000000000000e-02 9.900000000000e-01 -1.035560246992e-21 4.753251564334e-23 -1.015156653224e-13 4.761300515483e-15 
2.151724137932e+00 5.000000000000e+04 2.017265264887e+05 1.517265264887e+05 1.000000000000e-02 9.900000000000e-01 -8.704480507225e-22 5.442042715470e-23 -8.531211400755e-14 5.336370602001e-15 
2.241379310346e+00 5.000000000000e+04 2.017265264888e+05 1.517265264888e+05 1.000000000000e-02 9.900000000000e-01 -6.933042613790e-22 6.046019056122e-23 -6.790976343269e-14 5.891533851150e-15 
2.331034482759e+00 5.000000000000e+04 2.017265264888e+05 1.517265264888e+05 1.000000000000e-02 9.900000000000e-01 -5.072633205119e-22 5.943979635600e-23 -4.964721570936e-14 5.946397132585e-15 
2.420689655173e+00 5.000000000000e+04 2.017265264889e+05 1.517265264889e+05 1.000000000000e-02 9.900000000000e-01 -3.556619558188e-22 5.680581584200e-23 -3.484466942115e-14 5.655757313276e-15 
2.510344827586e+00 5.000000000000e+04 2.017265264889e+05 1.517265264889e+05 1.000000000000e-02 9.900000000000e-01 -1.683898334965e-22 3.072354869575e-23 -1.653778355002e-14 3.161897864211e-15 
2.600000000000e+00 5.000000000000e+04 2.017265264889e+05 1.517265264889e+05 1.000000000000e-02 9.900000000000e-01 -3.666006926763e-23 3.678321212054e-23 -3.612432199666e-15 3.556079526229e-15 
 TITLE = "Profiles along polylines"
 VARIABLES = "DIST" "PRESSURE1" "PRESSURE2" "PRESSURE_W" "SATURATION1" SATURATION2 "VELOCITY_X1" "VELOCITY_Y1" "VELOCITY_X2" "VELOCITY_Y2" 
 ZONE T="TIME=4.000000000000e+03"
0.000000000000e+00 5.000000000000e+03 2.000000000000e+05 1.950000000000e+05 9.894487265478e-01 1.055127345225e-02 3.595998925704e-05 -3.299026727177e-18 6.955650018590e-06 7.830846107397e-18 
8.965517241379e-02 6.067993867454e+03 2.010325924191e+05 1.949645985517e+05 6.746107027415e-01 3.253892972585e-01 1.501617363691e-05 8.762244820028e-17 -3.549460834275e-05 -6.963341651560e-17 
1.793103448276e-01 6.399105627244e+03 2.012636717028e+05 1.948645660756e+05 6.100782375628e-01 3.899217624372e-01 1.883430997878e-05 -9.103735747015e-17 -2.005517763703e-05 -3.317502297568e-16 
2.689655172414e-01 6.692064929113e+03 2.014114837969e+05 1.947194188678e+05 5.579014254659e-01 4.420985745341e-01 1.866728948470e-05 -3.199949740816e-16 -1.897431592948e-05 -2.945136821430e-16 
3.586206896552e-01 6.999717404884e+03 2.015171192282e+05 1.945174018234e+05 5.098964270949e-01 4.901035729051e-01 1.824107337417e-05 6.981950793868e-17 -1.816864404309e-05 -2.823580209338e-16 
4.482758620690e-01 7.362223437682e+03 2.015951323391e+05 1.942329089014e+05 4.607839487039e-01 5.392160512961e-01 1.766645907960e-05 3.475747173330e-16 -1.725822534202e-05 -8.888047520401e-16 
5.379310344828e-01 7.843272905803e+03 2.016524843643e+05 1.938092114585e+05 4.056324936469e-01 5.943675063531e-01 1.706055307503e-05 2.689945693427e-16 -1.605613264766e-05 -1.568856423540e-15 
6.275862068966e-01 8.606889937789e+03 2.016928746343e+05 1.930859846965e+05 3.349853908134e-01 6.650146091866e-01 1.781243717475e-05 -2.584840820203e-16 -1.419771524465e-05 -2.171434960329e-15 
7.172413793105e-01 1.059557348310e+04 2.017175881167e+05 1.911220146336e+05 1.935585681512e-01 8.064414318488e-01 8.621063637066e-06 -2.162449387036e-16 -9.288076041781e-06 -2.398650493902e-15 
8.068965517245e-01 3.109967150240e+04 2.017211073769e+05 1.706214358745e+05 1.853512984244e-02 9.814648701576e-01 -8.299860227684e-07 4.324012688951e-18 -1.912126213503e-06 -2.409577673163e-15 
8.965517241385e-01 4.994459387115e+04 2.017211093422e+05 1.517765154710e+05 9.624816612888e-03 9.903751833871e-01 -2.301156751365e-10 -5.793642958701e-21 -1.076016694266e-09 -1.957146790382e-15 
9.862068965524e-01 4.999997670880e+04 2.017211093426e+05 1.517211326338e+05 1.000000747341e-02 9.899999925266e-01 3.089954454278e-13 -3.120663815244e-23 -1.017057387372e-13 -3.039495032742e-15 
1.075862068966e+00 4.999999999025e+04 2.017211093424e+05 1.517211093521e+05 1.000000000390e-02 9.899999999961e-01 1.298952074591e-16 -4.342151886963e-23 1.963022593885e-13 -4.234227780120e-15 
1.165517241380e+00 5.000000000000e+04 2.017211093422e+05 1.517211093422e+05 1.000000000000e-02 9.900000000000e-01 5.622099239249e-20 -5.035989998123e-23 1.820909144466e-13 -4.754171036651e-15 
1.255172413794e+00 5.000000000000e+04 2.017211093420e+05 1.517211093420e+05 1.000000000000e-02 9.900000000000e-01 1.720283933975e-21 -5.484335686411e-23 1.663150815408e-13 -5.295602427493e-15 
1.344827586208e+00 5.000000000000e+04 2.017211093419e+05 1.517211093419e+05 1.000000000000e-02 9.900000000000e-01 1.528897447977e-21 -5.882857678817e-23 1.497916862880e-13 -5.711824403697e-15 
1.434482758622e+00 5.000000000000e+04 2.017211093418e+05 1.517211093418e+05 1.000000000000e-02 9.900000000000e-01 1.356443766377e-21 -6.106606573341e-23 1.329681885609e-13 -5.957096646571e-15 
1.524137931036e+00 5.000000000000e+04 2.017211093417e+05 1.517211093417e+05 1.000000000000e-02 9.900000000000e-01 1.186629912752e-21 -5.940826720634e-23 1.162892396925e-13 -5.837146907355e-15 
1.613793103450e+00 5.000000000000e+04 2.017211093416e+05 1.517211093416e+05 1.000000000000e-02 9.900000000000e-01 1.022770760600e-21 -5.638878392468e-23 1.002707068629e-13 -5.572022485266e-15 
1.703448275863e+00 5.000000000000e+04 2.017211093415e+05 1.517211093415e+05 1.000000000000e-02 9.900000000000e-01 8.673261264194e-22 -5.204123311303e-23 8.505979414935e-14 -5.212127252721e-15 
1.793103448277e+00 5.000000000000e+04 2.017211093414e+05 1.517211093414e+05 1.000000000000e-02 9.900000000000e-01 7.246317766409e-22 -5.007609850547e-23 7.096698198482e-14 -4.851439422924e-15 
1.882758620691e+00 5.000000000000e+04 2.017211093413e+05 1.517211093413e+05 1.000000000000e-02 9.900000000000e-01 5.953057471906e-22 -4.558880334774e-23 5.835010553085e-14 -4.472619730776e-15 
1.972413793105e+00 5.000000000000e+04 2.017211093413e+05 1.517211093413e+05 1.000000000000e-02 9.900000000000e-01 4.799988744967e-22 -4.188152686626e-23 4.701281378190e-14 -4.036907849866e-15 
2.062068965518e+00 5.000000000000e+04 2.017211093413e+05 1.517211093413e+05 1.000000000000e-02 9.900000000000e-01 3.779064804987e-22 -3.738640795564e-23 3.697365309769e-14 -3.537844192226e-15 
2.151724137932e+00 5.000000000000e+04 2.017211093412e+05 1.517211093412e+05 1.000000000000e-02 9.900000000000e-01 2.887631005041e-22 -3.102860973750e-23 2.831802214045e-14 -3.092699784002e-15 
2.241379310346e+00 5.000000000000e+04 2.017211093412e+05 1.517211093412e+05 1.000000000000e-02 9.900000000000e-01 2.099319579085e-22 -2.481595429912e-23 2.063408025221e-14 -2.550710617208e-15 
2.331034482759e+00 5.000000000000e+04 2.017211093412e+05 1.517211093412e+05 1.000000000000e-02 9.900000000000e-01 1.419914177399e-22 -2.400842050889e-23 1.402146831526e-14 -2.297167413821e-15 
2.420689655173e+00 5.000000000000e+04 2.017211093412e+05 1.517211093412e+05 1.000000000000e-02 9.900000000000e-01 9.421400323364e-23 -1.964761832233e-23 9.227607284373e-15 -1.859508063897e-15 
2.510344827586e+00 5.000000000000e+04 2.017211093412e+05 1.517211093412e+05 1.000000000000e-02 9.900000000000e-01 4.333242485456e-23 -1.166879761745e-23 4.199691555499e-15 -9.735081106916e-16 
2.600000000000e+00 5.000000000000e+04 2.017211093412e+05 1.517211093412e+05 1.000000000000e-02 9.900000000000e-01 9.601173551550e-24 -7.661407606317e-24 9.430378558041e-16 -7.456575453402e-16 