<?xml version="1.0"?>
<!-- Time step: 750 | Time: 7.500000000000e-01 -->
<VTKFile type="UnstructuredGrid" version="0.1" byte_order="LittleEndian">
  <UnstructuredGrid>
    <Piece NumberOfPoints="11" NumberOfCells="10">
      <Points>
        <DataArray type="Float64" NumberOfComponents="3" format="ascii">
          0.000000000000e+00 0.000000000000e+00 0.000000000000e+00
          1.000000000000e-02 0.000000000000e+00 0.000000000000e+00
          2.000000000000e-02 0.000000000000e+00 0.000000000000e+00
          3.000000000000e-02 0.000000000000e+00 0.000000000000e+00
          4.000000000000e-02 0.000000000000e+00 0.000000000000e+00
          5.000000000000e-02 0.000000000000e+00 0.000000000000e+00
          6.000000000000e-02 0.000000000000e+00 0.000000000000e+00
          7.000000000000e-02 0.000000000000e+00 0.000000000000e+00
          8.000000000000e-02 0.000000000000e+00 0.000000000000e+00
          9.000000000000e-02 0.000000000000e+00 0.000000000000e+00
          1.000000000000e-01 0.000000000000e+00 0.000000000000e+00
        </DataArray>
      </Points>
      <Cells>
        <DataArray type="Int64" Name="connectivity" format="ascii">
          0 1 
          1 2 
          2 3 
          3 4 
          4 5 
          5 6 
          6 7 
          7 8 
          8 9 
          9 10 
        </DataArray>
        <DataArray type="Int64" Name="offsets" format="ascii">
          2 4 6 8 10 12 14 16 18 20 
        </DataArray>
        <DataArray type="UInt8" Name="types" format="ascii">
          3 3 3 3 3 3 3 3 3 3 
        </DataArray>
      </Cells>
      <PointData Scalars="PRESSURE1">
        <DataArray type="Float64" Name="PRESSURE1" format="ascii">
          1.039864597161e+05 1.039864597161e+05 1.039864597161e+05 1.039864597161e+05 1.039864597161e+05 1.039864597161e+05 1.039864597161e+05 1.039864597161e+05 1.039864597161e+05 1.039864597161e+05 1.039864597161e+05 
        </DataArray>
        <DataArray type="Float64" Name="TEMPERATURE1" format="ascii">
          3.290335676760e+02 3.290335676760e+02 3.290335676761e+02 3.290335676761e+02 3.290335676763e+02 3.290335676764e+02 3.290335676763e+02 3.290335676762e+02 3.290335676762e+02 3.290335676762e+02 3.290335676762e+02 
        </DataArray>
        <DataArray type="Float64" Name="TEMPERATURE2" format="ascii">
          3.290335224548e+02 3.290335224549e+02 3.290335224549e+02 3.290335224549e+02 3.290335224551e+02 3.290335224552e+02 3.290335224551e+02 3.290335224551e+02 3.290335224551e+02 3.290335224550e+02 3.290335224551e+02 
        </DataArray>
        <DataArray type="Float64" Name="CONCENTRATION1" format="ascii">
          5.890456226357e-01 5.890456226357e-01 5.890456226357e-01 5.890456226357e-01 5.890456226357e-01 5.890456226358e-01 5.890456226357e-01 5.890456226357e-01 5.890456226357e-01 5.890456226357e-01 5.890456226357e-01 
        </DataArray>
        <DataArray type="Float64" Name="DENSITY" format="ascii">
          8.018784111769e-01 8.018784111768e-01 8.018784111767e-01 8.018784111768e-01 8.018784111765e-01 8.018784111763e-01 8.018784111767e-01 8.018784111767e-01 8.018784111767e-01 8.018784111768e-01 8.018784111766e-01 
        </DataArray>
      </PointData>
      <CellData>
      </CellData>
    </Piece>
  </UnstructuredGrid>
</VTKFile>
