<?xml version="1.0"?>
<!-- Time step: 250 | Time: 2.500000000000e-01 -->
<VTKFile type="UnstructuredGrid" version="0.1" byte_order="LittleEndian">
  <UnstructuredGrid>
    <Piece NumberOfPoints="11" NumberOfCells="10">
      <Points>
        <DataArray type="Float64" NumberOfComponents="3" format="ascii">
          0.000000000000e+00 0.000000000000e+00 0.000000000000e+00
          1.000000000000e-02 0.000000000000e+00 0.000000000000e+00
          2.000000000000e-02 0.000000000000e+00 0.000000000000e+00
          3.000000000000e-02 0.000000000000e+00 0.000000000000e+00
          4.000000000000e-02 0.000000000000e+00 0.000000000000e+00
          5.000000000000e-02 0.000000000000e+00 0.000000000000e+00
          6.000000000000e-02 0.000000000000e+00 0.000000000000e+00
          7.000000000000e-02 0.000000000000e+00 0.000000000000e+00
          8.000000000000e-02 0.000000000000e+00 0.000000000000e+00
          9.000000000000e-02 0.000000000000e+00 0.000000000000e+00
          1.000000000000e-01 0.000000000000e+00 0.000000000000e+00
        </DataArray>
      </Points>
      <Cells>
        <DataArray type="Int64" Name="connectivity" format="ascii">
          0 1 
          1 2 
          2 3 
          3 4 
          4 5 
          5 6 
          6 7 
          7 8 
          8 9 
          9 10 
        </DataArray>
        <DataArray type="Int64" Name="offsets" format="ascii">
          2 4 6 8 10 12 14 16 18 20 
        </DataArray>
        <DataArray type="UInt8" Name="types" format="ascii">
          3 3 3 3 3 3 3 3 3 3 
        </DataArray>
      </Cells>
      <PointData Scalars="PRESSURE1">
        <DataArray type="Float64" Name="PRESSURE1" format="ascii">
          8.524259426180e+04 8.524259426179e+04 8.524259426178e+04 8.524259426180e+04 8.524259426180e+04 8.524259426180e+04 8.524259426181e+04 8.524259426181e+04 8.524259426179e+04 8.524259426181e+04 8.524259426181e+04 
        </DataArray>
        <DataArray type="Float64" Name="TEMPERATURE1" format="ascii">
          4.628429841186e+02 4.628429841185e+02 4.628429841185e+02 4.628429841185e+02 4.628429841186e+02 4.628429841187e+02 4.628429841186e+02 4.628429841186e+02 4.628429841185e+02 4.628429841186e+02 4.628429841186e+02 
        </DataArray>
        <DataArray type="Float64" Name="TEMPERATURE2" format="ascii">
          4.628430233370e+02 4.628430233369e+02 4.628430233369e+02 4.628430233369e+02 4.628430233370e+02 4.628430233371e+02 4.628430233370e+02 4.628430233369e+02 4.628430233369e+02 4.628430233370e+02 4.628430233370e+02 
        </DataArray>
        <DataArray type="Float64" Name="CONCENTRATION1" format="ascii">
          3.619393151151e-01 3.619393151151e-01 3.619393151151e-01 3.619393151151e-01 3.619393151151e-01 3.619393151151e-01 3.619393151151e-01 3.619393151151e-01 3.619393151151e-01 3.619393151151e-01 3.619393151151e-01 
        </DataArray>
        <DataArray type="Float64" Name="DENSITY" format="ascii">
          5.163908924725e-01 5.163908924726e-01 5.163908924726e-01 5.163908924727e-01 5.163908924726e-01 5.163908924725e-01 5.163908924726e-01 5.163908924726e-01 5.163908924726e-01 5.163908924726e-01 5.163908924726e-01 
        </DataArray>
      </PointData>
      <CellData>
      </CellData>
    </Piece>
  </UnstructuredGrid>
</VTKFile>
