<?xml version="1.0"?>
<!-- Time step: 250 | Time: 2.500000000000e-01 -->
<VTKFile type="UnstructuredGrid" version="0.1" byte_order="LittleEndian">
  <UnstructuredGrid>
    <Piece NumberOfPoints="11" NumberOfCells="10">
      <Points>
        <DataArray type="Float64" NumberOfComponents="3" format="ascii">
          0.000000000000e+00 0.000000000000e+00 0.000000000000e+00
          1.000000000000e-02 0.000000000000e+00 0.000000000000e+00
          2.000000000000e-02 0.000000000000e+00 0.000000000000e+00
          3.000000000000e-02 0.000000000000e+00 0.000000000000e+00
          4.000000000000e-02 0.000000000000e+00 0.000000000000e+00
          5.000000000000e-02 0.000000000000e+00 0.000000000000e+00
          6.000000000000e-02 0.000000000000e+00 0.000000000000e+00
          7.000000000000e-02 0.000000000000e+00 0.000000000000e+00
          8.000000000000e-02 0.000000000000e+00 0.000000000000e+00
          9.000000000000e-02 0.000000000000e+00 0.000000000000e+00
          1.000000000000e-01 0.000000000000e+00 0.000000000000e+00
        </DataArray>
      </Points>
      <Cells>
        <DataArray type="Int64" Name="connectivity" format="ascii">
          0 1 
          1 2 
          2 3 
          3 4 
          4 5 
          5 6 
          6 7 
          7 8 
          8 9 
          9 10 
        </DataArray>
        <DataArray type="Int64" Name="offsets" format="ascii">
          2 4 6 8 10 12 14 16 18 20 
        </DataArray>
        <DataArray type="UInt8" Name="types" format="ascii">
          3 3 3 3 3 3 3 3 3 3 
        </DataArray>
      </Cells>
      <PointData Scalars="PRESSURE1">
        <DataArray type="Float64" Name="PRESSURE1" format="ascii">
          8.526880805814e+04 8.526879425794e+04 8.526878827910e+04 8.526878619441e+04 8.526878561580e+04 8.526878550918e+04 8.526878550484e+04 8.526878550763e+04 8.526878550798e+04 8.526878550788e+04 8.526878550787e+04 
        </DataArray>
        <DataArray type="Float64" Name="TEMPERATURE1" format="ascii">
          4.628382784347e+02 4.628382750645e+02 4.628382693093e+02 4.628382658628e+02 4.628382647787e+02 4.628382645939e+02 4.628382645841e+02 4.628382645884e+02 4.628382645893e+02 4.628382645891e+02 4.628382645892e+02 
        </DataArray>
        <DataArray type="Float64" Name="TEMPERATURE2" format="ascii">
          4.628383176517e+02 4.628383142818e+02 4.628383085268e+02 4.628383050804e+02 4.628383039963e+02 4.628383038115e+02 4.628383038017e+02 4.628383038061e+02 4.628383038070e+02 4.628383038068e+02 4.628383038068e+02 
        </DataArray>
        <DataArray type="Float64" Name="CONCENTRATION1" format="ascii">
          3.620691298451e-01 3.620691228722e-01 3.620691182466e-01 3.620691176301e-01 3.620691175665e-01 3.620691175560e-01 3.620691175600e-01 3.620691175598e-01 3.620691175597e-01 3.620691175597e-01 3.620691175597e-01 
        </DataArray>
      </PointData>
      <CellData>
      </CellData>
    </Piece>
  </UnstructuredGrid>
</VTKFile>
