<?xml version="1.0"?>
<!-- Time step: 750 | Time: 7.500000000000e-01 -->
<VTKFile type="UnstructuredGrid" version="0.1" byte_order="LittleEndian">
  <UnstructuredGrid>
    <Piece NumberOfPoints="11" NumberOfCells="10">
      <Points>
        <DataArray type="Float64" NumberOfComponents="3" format="ascii">
          0.000000000000e+00 0.000000000000e+00 0.000000000000e+00
          1.000000000000e-02 0.000000000000e+00 0.000000000000e+00
          2.000000000000e-02 0.000000000000e+00 0.000000000000e+00
          3.000000000000e-02 0.000000000000e+00 0.000000000000e+00
          4.000000000000e-02 0.000000000000e+00 0.000000000000e+00
          5.000000000000e-02 0.000000000000e+00 0.000000000000e+00
          6.000000000000e-02 0.000000000000e+00 0.000000000000e+00
          7.000000000000e-02 0.000000000000e+00 0.000000000000e+00
          8.000000000000e-02 0.000000000000e+00 0.000000000000e+00
          9.000000000000e-02 0.000000000000e+00 0.000000000000e+00
          1.000000000000e-01 0.000000000000e+00 0.000000000000e+00
        </DataArray>
      </Points>
      <Cells>
        <DataArray type="Int64" Name="connectivity" format="ascii">
          0 1 
          1 2 
          2 3 
          3 4 
          4 5 
          5 6 
          6 7 
          7 8 
          8 9 
          9 10 
        </DataArray>
        <DataArray type="Int64" Name="offsets" format="ascii">
          2 4 6 8 10 12 14 16 18 20 
        </DataArray>
        <DataArray type="UInt8" Name="types" format="ascii">
          3 3 3 3 3 3 3 3 3 3 
        </DataArray>
      </Cells>
      <PointData Scalars="PRESSURE1">
        <DataArray type="Float64" Name="PRESSURE1" format="ascii">
          1.039746130740e+05 1.039746053732e+05 1.039745986377e+05 1.039745931506e+05 1.039745890186e+05 1.039745861672e+05 1.039745843813e+05 1.039745833728e+05 1.039745828629e+05 1.039745826400e+05 1.039745825792e+05 
        </DataArray>
        <DataArray type="Float64" Name="TEMPERATURE1" format="ascii">
          3.290574838604e+02 3.290574810283e+02 3.290574739767e+02 3.290574656582e+02 3.290574585408e+02 3.290574536195e+02 3.290574507003e+02 3.290574491574e+02 3.290574484200e+02 3.290574481105e+02 3.290574480279e+02 
        </DataArray>
        <DataArray type="Float64" Name="TEMPERATURE2" format="ascii">
          3.290574386342e+02 3.290574358021e+02 3.290574287506e+02 3.290574204322e+02 3.290574133148e+02 3.290574083935e+02 3.290574054742e+02 3.290574039314e+02 3.290574031940e+02 3.290574028845e+02 3.290574028019e+02 
        </DataArray>
        <DataArray type="Float64" Name="CONCENTRATION1" format="ascii">
          5.889915432352e-01 5.889915501008e-01 5.889915597907e-01 5.889915653110e-01 5.889915679954e-01 5.889915693310e-01 5.889915699308e-01 5.889915701703e-01 5.889915702568e-01 5.889915702842e-01 5.889915702902e-01 
        </DataArray>
      </PointData>
      <CellData>
      </CellData>
    </Piece>
  </UnstructuredGrid>
</VTKFile>
