 TITLE = "Time curves in points"
 VARIABLES = "TIME "  "PRESSURE1"  "PRESSURE2"  "PRESSURE_W"  "SATURATION1" SATURATION2  "VELOCITY_X1"  "VELOCITY_Y1"  "VELOCITY_X2"  "VELOCITY_Y2" 
 ZONE T="POINT=POINT0"
0.000000000000e+00 5.000000000000e+04 0.000000000000e+00 -5.000000000000e+04 1.000000000000e-02 9.900000000000e-01 0.000000000000e+00 0.000000000000e+00 0.000000000000e+00 0.000000000000e+00 
2.134145780319e+00 5.000000000000e+03 2.000000000000e+05 1.950000000000e+05 4.115334373037e-01 5.884665626963e-01 1.778306489505e-03 0.000000000000e+00 -5.397712115734e-03 0.000000000000e+00 
2.716044875831e+00 5.000000000000e+03 2.000000000000e+05 1.950000000000e+05 6.048635727861e-01 3.951364272139e-01 8.260193932680e-04 0.000000000000e+00 -2.085456545299e-03 0.000000000000e+00 
3.515842882993e+00 5.000000000000e+03 2.000000000000e+05 1.950000000000e+05 7.033013961060e-01 2.966986038940e-01 3.359332805141e-04 0.000000000000e+00 -7.459932679068e-04 0.000000000000e+00 
4.557000629528e+00 5.000000000000e+03 2.000000000000e+05 1.950000000000e+05 7.062536451614e-01 2.937463548386e-01 3.247055765680e-04 0.000000000000e+00 -7.182191452147e-04 0.000000000000e+00 
5.086884191866e+00 5.000000000000e+03 2.000000000000e+05 1.950000000000e+05 6.866143785951e-01 3.133856214049e-01 4.036191187975e-04 0.000000000000e+00 -9.164949899779e-04 0.000000000000e+00 
5.835464417926e+00 5.000000000000e+03 2.000000000000e+05 1.950000000000e+05 6.729465226611e-01 3.270534773389e-01 4.642883673025e-04 0.000000000000e+00 -1.073585977229e-03 0.000000000000e+00 
6.950757382885e+00 5.000000000000e+03 2.000000000000e+05 1.950000000000e+05 6.915204210320e-01 3.084795789680e-01 3.829799631135e-04 0.000000000000e+00 -8.639590009851e-04 0.000000000000e+00 
8.632990205992e+00 5.000000000000e+03 2.000000000000e+05 1.950000000000e+05 7.218216583082e-01 2.781783416918e-01 2.692504494797e-04 0.000000000000e+00 -5.832835314990e-04 0.000000000000e+00 
1.098909734598e+01 5.000000000000e+03 2.000000000000e+05 1.950000000000e+05 7.142864759948e-01 2.857135240052e-01 2.953034914380e-04 0.000000000000e+00 -6.462030988569e-04 0.000000000000e+00 
1.405672178873e+01 5.000000000000e+03 2.000000000000e+05 1.950000000000e+05 7.225432098833e-01 2.774567901167e-01 2.668331662262e-04 0.000000000000e+00 -5.774894533146e-04 0.000000000000e+00 
1.574961702551e+01 5.000000000000e+03 2.000000000000e+05 1.950000000000e+05 7.297859262421e-01 2.702140737579e-01 2.433167538741e-04 0.000000000000e+00 -5.215217306715e-04 0.000000000000e+00 
1.816701282317e+01 5.000000000000e+03 2.000000000000e+05 1.950000000000e+05 7.322390183626e-01 2.677609816374e-01 2.356589330325e-04 0.000000000000e+00 -5.034561073687e-04 0.000000000000e+00 
2.148628327217e+01 5.000000000000e+03 2.000000000000e+05 1.950000000000e+05 7.397281430008e-01 2.602718569992e-01 2.132339863466e-04 0.000000000000e+00 -4.510197493882e-04 0.000000000000e+00 
2.629988497520e+01 5.000000000000e+03 2.000000000000e+05 1.950000000000e+05 7.451149916974e-01 2.548850083026e-01 1.979842590280e-04 0.000000000000e+00 -4.157714049423e-04 0.000000000000e+00 
3.282838968907e+01 5.000000000000e+03 2.000000000000e+05 1.950000000000e+05 7.517043530769e-01 2.482956469231e-01 1.803174482312e-04 0.000000000000e+00 -3.753694115629e-04 0.000000000000e+00 
3.559377206973e+01 5.000000000000e+03 2.000000000000e+05 1.950000000000e+05 7.543826414346e-01 2.456173585654e-01 1.734431691009e-04 0.000000000000e+00 -3.597786596448e-04 0.000000000000e+00 
3.960358542814e+01 5.000000000000e+03 2.000000000000e+05 1.950000000000e+05 7.584705488436e-01 2.415294511564e-01 1.632879139398e-04 0.000000000000e+00 -3.368842156749e-04 0.000000000000e+00 
4.548267278989e+01 5.000000000000e+03 2.000000000000e+05 1.950000000000e+05 7.633903077676e-01 2.366096922324e-01 1.515992722156e-04 0.000000000000e+00 -3.107416993853e-04 0.000000000000e+00 
5.368864934639e+01 5.000000000000e+03 2.000000000000e+05 1.950000000000e+05 7.684040320388e-01 2.315959679612e-01 1.402765276916e-04 0.000000000000e+00 -2.856383227818e-04 0.000000000000e+00 
6.488909848235e+01 5.000000000000e+03 2.000000000000e+05 1.950000000000e+05 7.733996352980e-01 2.266003647020e-01 1.295746369597e-04 0.000000000000e+00 -2.621193099425e-04 0.000000000000e+00 
7.021071459626e+01 5.000000000000e+03 2.000000000000e+05 1.950000000000e+05 7.758096684170e-01 2.241903315830e-01 1.246151743506e-04 0.000000000000e+00 -2.512908496546e-04 0.000000000000e+00 
7.760701964427e+01 5.000000000000e+03 2.000000000000e+05 1.950000000000e+05 7.789774189910e-01 2.210225810090e-01 1.182946083153e-04 0.000000000000e+00 -2.375575812743e-04 0.000000000000e+00 
8.735040931988e+01 5.000000000000e+03 2.000000000000e+05 1.950000000000e+05 7.826211660025e-01 2.173788339975e-01 1.112986372697e-04 0.000000000000e+00 -2.224466084798e-04 0.000000000000e+00 
1.000373201029e+02 5.000000000000e+03 2.000000000000e+05 1.950000000000e+05 7.865117287462e-01 2.134882712538e-01 1.041470539243e-04 0.000000000000e+00 -2.071001794445e-04 0.000000000000e+00 
1.057267385011e+02 5.000000000000e+03 2.000000000000e+05 1.950000000000e+05 7.881627867313e-01 2.118372132687e-01 1.012098654246e-04 0.000000000000e+00 -2.008276406641e-04 0.000000000000e+00 
1.138801496724e+02 5.000000000000e+03 2.000000000000e+05 1.950000000000e+05 7.904360202667e-01 2.095639797333e-01 9.725982618772e-05 0.000000000000e+00 -1.924206025948e-04 0.000000000000e+00 
1.252483978834e+02 5.000000000000e+03 2.000000000000e+05 1.950000000000e+05 7.932337879342e-01 2.067662120658e-01 9.254593588439e-05 0.000000000000e+00 -1.824315329105e-04 0.000000000000e+00 
1.399590949848e+02 5.000000000000e+03 2.000000000000e+05 1.950000000000e+05 7.962664664035e-01 2.037335335965e-01 8.761734481516e-05 0.000000000000e+00 -1.720396757335e-04 0.000000000000e+00 
1.587009292446e+02 5.000000000000e+03 2.000000000000e+05 1.950000000000e+05 7.994535138759e-01 2.005464861241e-01 8.263726106946e-05 0.000000000000e+00 -1.615950568004e-04 0.000000000000e+00 
1.820654237639e+02 5.000000000000e+03 2.000000000000e+05 1.950000000000e+05 8.027396721421e-01 1.972603278579e-01 7.771208883461e-05 0.000000000000e+00 -1.513225485590e-04 0.000000000000e+00 
1.959003657331e+02 5.000000000000e+03 2.000000000000e+05 1.950000000000e+05 8.045874067578e-01 1.954125932422e-01 7.503466083251e-05 0.000000000000e+00 -1.457626524327e-04 0.000000000000e+00 
2.139357186448e+02 5.000000000000e+03 2.000000000000e+05 1.950000000000e+05 8.068320460443e-01 1.931679539557e-01 7.186964914766e-05 0.000000000000e+00 -1.392130345532e-04 0.000000000000e+00 
2.368561272371e+02 5.000000000000e+03 2.000000000000e+05 1.950000000000e+05 8.093770146089e-01 1.906229853911e-01 6.839548955490e-05 0.000000000000e+00 -1.320529816382e-04 0.000000000000e+00 
2.536828210084e+02 5.000000000000e+03 2.000000000000e+05 1.950000000000e+05 8.111296883784e-01 1.888703116216e-01 6.607246472719e-05 0.000000000000e+00 -1.272829064879e-04 0.000000000000e+00 
2.847570475982e+02 5.000000000000e+03 2.000000000000e+05 1.950000000000e+05 8.138991906809e-01 1.861008093191e-01 6.251601113857e-05 0.000000000000e+00 -1.200069356140e-04 0.000000000000e+00 
3.078875624584e+02 5.000000000000e+03 2.000000000000e+05 1.950000000000e+05 8.157879626650e-01 1.842120373350e-01 6.016920477671e-05 0.000000000000e+00 -1.152246882058e-04 0.000000000000e+00 
3.231285674020e+02 5.000000000000e+03 2.000000000000e+05 1.950000000000e+05 8.169850184261e-01 1.830149815739e-01 5.871429820636e-05 0.000000000000e+00 -1.122678854401e-04 0.000000000000e+00 
3.430604164079e+02 5.000000000000e+03 2.000000000000e+05 1.950000000000e+05 8.184775171218e-01 1.815224828782e-01 5.693539858513e-05 0.000000000000e+00 -1.086605606210e-04 0.000000000000e+00 
3.607239546592e+02 5.000000000000e+03 2.000000000000e+05 1.950000000000e+05 8.197497688849e-01 1.802502311151e-01 5.544935583334e-05 0.000000000000e+00 -1.056540701339e-04 0.000000000000e+00 
3.783286364157e+02 5.000000000000e+03 2.000000000000e+05 1.950000000000e+05 8.209642687068e-01 1.790357312932e-01 5.405655585793e-05 0.000000000000e+00 -1.028420709691e-04 0.000000000000e+00 
3.941610927420e+02 5.000000000000e+03 2.000000000000e+05 1.950000000000e+05 8.220150733311e-01 1.779849266689e-01 5.287161591301e-05 0.000000000000e+00 -1.004542507010e-04 0.000000000000e+00 
4.104551225477e+02 5.000000000000e+03 2.000000000000e+05 1.950000000000e+05 8.230524506932e-01 1.769475493068e-01 5.171997539575e-05 0.000000000000e+00 -9.813757064583e-05 0.000000000000e+00 
4.316104492485e+02 5.000000000000e+03 2.000000000000e+05 1.950000000000e+05 8.243207656536e-01 1.756792343464e-01 5.033625462931e-05 0.000000000000e+00 -9.535935739573e-05 0.000000000000e+00 
4.509043964675e+02 5.000000000000e+03 2.000000000000e+05 1.950000000000e+05 8.254170905417e-01 1.745829094583e-01 4.916150681619e-05 0.000000000000e+00 -9.300535066587e-05 0.000000000000e+00 
4.634534132535e+02 5.000000000000e+03 2.000000000000e+05 1.950000000000e+05 8.261082201565e-01 1.738917798435e-01 4.843101934833e-05 0.000000000000e+00 -9.154374265666e-05 0.000000000000e+00 
4.817267066268e+02 5.000000000000e+03 2.000000000000e+05 1.950000000000e+05 8.270692706136e-01 1.729307293864e-01 4.742809686618e-05 0.000000000000e+00 -8.953977255949e-05 0.000000000000e+00 
5.000000000000e+02 5.000000000000e+03 2.000000000000e+05 1.950000000000e+05 8.279892465521e-01 1.720107534479e-01 4.648194844161e-05 0.000000000000e+00 -8.765218790732e-05 0.000000000000e+00 
5.255449628690e+02 5.000000000000e+03 2.000000000000e+05 1.950000000000e+05 8.291945626922e-01 1.708054373078e-01 4.526275317362e-05 0.000000000000e+00 -8.522413616041e-05 0.000000000000e+00 
5.503279175393e+02 5.000000000000e+03 2.000000000000e+05 1.950000000000e+05 8.302940129396e-01 1.697059870604e-01 4.417064647610e-05 0.000000000000e+00 -8.305331889638e-05 0.000000000000e+00 
5.838783117837e+02 5.000000000000e+03 2.000000000000e+05 1.950000000000e+05 8.316589002105e-01 1.683410997895e-01 4.284114060589e-05 0.000000000000e+00 -8.041598140219e-05 0.000000000000e+00 
5.973135659529e+02 5.000000000000e+03 2.000000000000e+05 1.950000000000e+05 8.321900872706e-01 1.678099127294e-01 4.233151963622e-05 0.000000000000e+00 -7.940662819637e-05 0.000000000000e+00 
6.204718504666e+02 5.000000000000e+03 2.000000000000e+05 1.950000000000e+05 8.330623163809e-01 1.669376836191e-01 4.150410049578e-05 0.000000000000e+00 -7.776973361702e-05 0.000000000000e+00 
6.516825156204e+02 5.000000000000e+03 2.000000000000e+05 1.950000000000e+05 8.341683492269e-01 1.658316507731e-01 4.047155912731e-05 0.000000000000e+00 -7.573036013317e-05 0.000000000000e+00 
6.913897410120e+02 5.000000000000e+03 2.000000000000e+05 1.950000000000e+05 8.354703844676e-01 1.645296155324e-01 3.928139520479e-05 0.000000000000e+00 -7.338090904360e-05 0.000000000000e+00 
7.084981302470e+02 5.000000000000e+03 2.000000000000e+05 1.950000000000e+05 8.360152692525e-01 1.639847307475e-01 3.878843462905e-05 0.000000000000e+00 -7.241404128110e-05 0.000000000000e+00 
7.355030487278e+02 5.000000000000e+03 2.000000000000e+05 1.950000000000e+05 8.368378509424e-01 1.631621490576e-01 3.805514916300e-05 0.000000000000e+00 -7.097238992164e-05 0.000000000000e+00 
7.672197019482e+02 5.000000000000e+03 2.000000000000e+05 1.950000000000e+05 8.377581921959e-01 1.622418078041e-01 3.724652401845e-05 0.000000000000e+00 -6.938488338562e-05 0.000000000000e+00 
7.927983135131e+02 5.000000000000e+03 2.000000000000e+05 1.950000000000e+05 8.384749575473e-01 1.615250424527e-01 3.662533442615e-05 0.000000000000e+00 -6.816698435409e-05 0.000000000000e+00 
8.206226523587e+02 5.000000000000e+03 2.000000000000e+05 1.950000000000e+05 8.392264230621e-01 1.607735769379e-01 3.598207092723e-05 0.000000000000e+00 -6.690731491317e-05 0.000000000000e+00 
8.447492746701e+02 5.000000000000e+03 2.000000000000e+05 1.950000000000e+05 8.398588005249e-01 1.601411994751e-01 3.544704800390e-05 0.000000000000e+00 -6.586079189818e-05 0.000000000000e+00 
8.720316385836e+02 5.000000000000e+03 2.000000000000e+05 1.950000000000e+05 8.405503240400e-01 1.594496759600e-01 3.486853421994e-05 0.000000000000e+00 -6.473041570601e-05 0.000000000000e+00 
9.040141354124e+02 5.000000000000e+03 2.000000000000e+05 1.950000000000e+05 8.413295056043e-01 1.586704943957e-01 3.422482729729e-05 0.000000000000e+00 -6.347416241666e-05 0.000000000000e+00 
9.307872882073e+02 5.000000000000e+03 2.000000000000e+05 1.950000000000e+05 8.419614115992e-01 1.580385884008e-01 3.370908045730e-05 0.000000000000e+00 -6.246878955174e-05 0.000000000000e+00 
9.522549665210e+02 5.000000000000e+03 2.000000000000e+05 1.950000000000e+05 8.424558748756e-01 1.575441251244e-01 3.330941547239e-05 0.000000000000e+00 -6.169041514217e-05 0.000000000000e+00 
1.000000000000e+03 5.000000000000e+03 2.000000000000e+05 1.950000000000e+05 8.434898123279e-01 1.565101876721e-01 3.248492759851e-05 0.000000000000e+00 -6.008621961602e-05 0.000000000000e+00 
1.018017146419e+03 5.000000000000e+03 2.000000000000e+05 1.950000000000e+05 8.438723589858e-01 1.561276410142e-01 3.218332115124e-05 0.000000000000e+00 -5.950065342261e-05 0.000000000000e+00 
1.048585638958e+03 5.000000000000e+03 2.000000000000e+05 1.950000000000e+05 8.444985245222e-01 1.555014754778e-01 3.169434108339e-05 0.000000000000e+00 -5.855137846337e-05 0.000000000000e+00 
1.093211898230e+03 5.000000000000e+03 2.000000000000e+05 1.950000000000e+05 8.453658202556e-01 1.546341797444e-01 3.102624762858e-05 0.000000000000e+00 -5.725527377062e-05 0.000000000000e+00 
1.136518461172e+03 5.000000000000e+03 2.000000000000e+05 1.950000000000e+05 8.461667584158e-01 1.538332415842e-01 3.041765646567e-05 0.000000000000e+00 -5.607748532844e-05 0.000000000000e+00 
1.192648523264e+03 5.000000000000e+03 2.000000000000e+05 1.950000000000e+05 8.471399201826e-01 1.528600798174e-01 2.969072348267e-05 0.000000000000e+00 -5.467088202346e-05 0.000000000000e+00 
1.248078521682e+03 5.000000000000e+03 2.000000000000e+05 1.950000000000e+05 8.480431201423e-01 1.519568798577e-01 2.902633291363e-05 0.000000000000e+00 -5.338915321655e-05 0.000000000000e+00 
1.276898070378e+03 5.000000000000e+03 2.000000000000e+05 1.950000000000e+05 8.484996314560e-01 1.515003685440e-01 2.869487895718e-05 0.000000000000e+00 -5.274992281945e-05 0.000000000000e+00 
1.318215114231e+03 5.000000000000e+03 2.000000000000e+05 1.950000000000e+05 8.491287960525e-01 1.508712039475e-01 2.824254443694e-05 0.000000000000e+00 -5.187832640529e-05 0.000000000000e+00 
1.337607418998e+03 5.000000000000e+03 2.000000000000e+05 1.950000000000e+05 8.494194480291e-01 1.505805519709e-01 2.803532461468e-05 0.000000000000e+00 -5.147933362228e-05 0.000000000000e+00 
1.371172150530e+03 5.000000000000e+03 2.000000000000e+05 1.950000000000e+05 8.499092689495e-01 1.500907310505e-01 2.768858797701e-05 0.000000000000e+00 -5.081212504983e-05 0.000000000000e+00 
1.418493297206e+03 5.000000000000e+03 2.000000000000e+05 1.950000000000e+05 8.505759416140e-01 1.494240583860e-01 2.722163598479e-05 0.000000000000e+00 -4.991442709206e-05 0.000000000000e+00 
1.436099449597e+03 5.000000000000e+03 2.000000000000e+05 1.950000000000e+05 8.508213292439e-01 1.491786707561e-01 2.705119993226e-05 0.000000000000e+00 -4.958700720519e-05 0.000000000000e+00 
1.467804053655e+03 5.000000000000e+03 2.000000000000e+05 1.950000000000e+05 8.512541326553e-01 1.487458673447e-01 2.675246511167e-05 0.000000000000e+00 -4.901343463873e-05 0.000000000000e+00 
1.510370350481e+03 5.000000000000e+03 2.000000000000e+05 1.950000000000e+05 8.518190752598e-01 1.481809247402e-01 2.636611053642e-05 0.000000000000e+00 -4.827222298820e-05 0.000000000000e+00 
1.563041404690e+03 5.000000000000e+03 2.000000000000e+05 1.950000000000e+05 8.524933363488e-01 1.475066636512e-01 2.591018619834e-05 0.000000000000e+00 -4.739858965007e-05 0.000000000000e+00 
1.591289500112e+03 5.000000000000e+03 2.000000000000e+05 1.950000000000e+05 8.528486717429e-01 1.471513282571e-01 2.567235726820e-05 0.000000000000e+00 -4.694296762824e-05 0.000000000000e+00 
1.632997111324e+03 5.000000000000e+03 2.000000000000e+05 1.950000000000e+05 8.533586954564e-01 1.466413045436e-01 2.533361760916e-05 0.000000000000e+00 -4.629473396534e-05 0.000000000000e+00 
1.673170539703e+03 5.000000000000e+03 2.000000000000e+05 1.950000000000e+05 8.538369063671e-01 1.461630936329e-01 2.501894680176e-05 0.000000000000e+00 -4.569303563134e-05 0.000000000000e+00 
1.714236991183e+03 5.000000000000e+03 2.000000000000e+05 1.950000000000e+05 8.543125546729e-01 1.456874453271e-01 2.470877127114e-05 0.000000000000e+00 -4.510038129595e-05 0.000000000000e+00 
1.750954936412e+03 5.000000000000e+03 2.000000000000e+05 1.950000000000e+05 8.547278587410e-01 1.452721412590e-01 2.444022389507e-05 0.000000000000e+00 -4.458763265252e-05 0.000000000000e+00 
1.779976171762e+03 5.000000000000e+03 2.000000000000e+05 1.950000000000e+05 8.550502412593e-01 1.449497587407e-01 2.423322008079e-05 0.000000000000e+00 -4.419262347817e-05 0.000000000000e+00 
1.811686891184e+03 5.000000000000e+03 2.000000000000e+05 1.950000000000e+05 8.553956921310e-01 1.446043078690e-01 2.401281069133e-05 0.000000000000e+00 -4.377225999642e-05 0.000000000000e+00 
1.853119021366e+03 5.000000000000e+03 2.000000000000e+05 1.950000000000e+05 8.558357869174e-01 1.441642130826e-01 2.373411729185e-05 0.000000000000e+00 -4.324106885065e-05 0.000000000000e+00 
1.893679022979e+03 5.000000000000e+03 2.000000000000e+05 1.950000000000e+05 8.562565031391e-01 1.437434968609e-01 2.346988651472e-05 0.000000000000e+00 -4.273778933154e-05 0.000000000000e+00 
1.935872254790e+03 5.000000000000e+03 2.000000000000e+05 1.950000000000e+05 8.566836767638e-01 1.433163232362e-01 2.320378287687e-05 0.000000000000e+00 -4.223128104593e-05 0.000000000000e+00 
2.000000000000e+03 5.000000000000e+03 2.000000000000e+05 1.950000000000e+05 8.573084154458e-01 1.426915845542e-01 2.281854098540e-05 0.000000000000e+00 -4.149861863237e-05 0.000000000000e+00 
2.036763930920e+03 5.000000000000e+03 2.000000000000e+05 1.950000000000e+05 8.576593518220e-01 1.423406481780e-01 2.260417663365e-05 0.000000000000e+00 -4.109125253181e-05 0.000000000000e+00 
2.089418666022e+03 5.000000000000e+03 2.000000000000e+05 1.950000000000e+05 8.581467335595e-01 1.418532664405e-01 2.230888671775e-05 0.000000000000e+00 -4.053047274183e-05 0.000000000000e+00 
2.114396499269e+03 5.000000000000e+03 2.000000000000e+05 1.950000000000e+05 8.583748512184e-01 1.416251487816e-01 2.217163891889e-05 0.000000000000e+00 -4.026997767984e-05 0.000000000000e+00 
2.157067449433e+03 5.000000000000e+03 2.000000000000e+05 1.950000000000e+05 8.587552636564e-01 1.412447363436e-01 2.194412489987e-05 0.000000000000e+00 -3.983836101856e-05 0.000000000000e+00 
2.217566087481e+03 5.000000000000e+03 2.000000000000e+05 1.950000000000e+05 8.592765617070e-01 1.407234382930e-01 2.163509798243e-05 0.000000000000e+00 -3.925252861592e-05 0.000000000000e+00 
2.240524424715e+03 5.000000000000e+03 2.000000000000e+05 1.950000000000e+05 8.594721398526e-01 1.405278601474e-01 2.151997536602e-05 0.000000000000e+00 -3.903441046155e-05 0.000000000000e+00 
2.279167518223e+03 5.000000000000e+03 2.000000000000e+05 1.950000000000e+05 8.597947754190e-01 1.402052245810e-01 2.133103259794e-05 0.000000000000e+00 -3.867657558793e-05 0.000000000000e+00 
2.331237690652e+03 5.000000000000e+03 2.000000000000e+05 1.950000000000e+05 8.602180673035e-01 1.397819326965e-01 2.108496557873e-05 0.000000000000e+00 -3.821083284425e-05 0.000000000000e+00 
2.398823990575e+03 5.000000000000e+03 2.000000000000e+05 1.950000000000e+05 8.607490125835e-01 1.392509874165e-01 2.077923239308e-05 0.000000000000e+00 -3.763258974382e-05 0.000000000000e+00 
2.486138913010e+03 5.000000000000e+03 2.000000000000e+05 1.950000000000e+05 8.614049686329e-01 1.385950313671e-01 2.040596156294e-05 0.000000000000e+00 -3.692727273709e-05 0.000000000000e+00 
2.528110938227e+03 5.000000000000e+03 2.000000000000e+05 1.950000000000e+05 8.617141982236e-01 1.382858017764e-01 2.023168990429e-05 0.000000000000e+00 -3.659822717371e-05 0.000000000000e+00 
2.588307166212e+03 5.000000000000e+03 2.000000000000e+05 1.950000000000e+05 8.621448601320e-01 1.378551398680e-01 1.999078036969e-05 0.000000000000e+00 -3.614363052244e-05 0.000000000000e+00 
2.617255679423e+03 5.000000000000e+03 2.000000000000e+05 1.950000000000e+05 8.623492778237e-01 1.376507221763e-01 1.987716223783e-05 0.000000000000e+00 -3.592933756118e-05 0.000000000000e+00 
2.663563352658e+03 5.000000000000e+03 2.000000000000e+05 1.950000000000e+05 8.626692820263e-01 1.373307179737e-01 1.970023806430e-05 0.000000000000e+00 -3.559578585952e-05 0.000000000000e+00 
2.731791166962e+03 5.000000000000e+03 2.000000000000e+05 1.950000000000e+05 8.631262540821e-01 1.368737459179e-01 1.944957079916e-05 0.000000000000e+00 -3.512349326669e-05 0.000000000000e+00 
2.762887841830e+03 5.000000000000e+03 2.000000000000e+05 1.950000000000e+05 8.633318851481e-01 1.366681148519e-01 1.933753026291e-05 0.000000000000e+00 -3.491250571019e-05 0.000000000000e+00 
2.813234281976e+03 5.000000000000e+03 2.000000000000e+05 1.950000000000e+05 8.636578681881e-01 1.363421318119e-01 1.916087394996e-05 0.000000000000e+00 -3.457997739970e-05 0.000000000000e+00 
2.887468776572e+03 5.000000000000e+03 2.000000000000e+05 1.950000000000e+05 8.641241089645e-01 1.358758910355e-01 1.891024967734e-05 0.000000000000e+00 -3.410850350267e-05 0.000000000000e+00 
2.920621518229e+03 5.000000000000e+03 2.000000000000e+05 1.950000000000e+05 8.643298155607e-01 1.356701844393e-01 1.880043118996e-05 0.000000000000e+00 -3.390202551829e-05 0.000000000000e+00 
2.977141609702e+03 5.000000000000e+03 2.000000000000e+05 1.950000000000e+05 8.646730224831e-01 1.353269775169e-01 1.861823885857e-05 0.000000000000e+00 -3.355961673416e-05 0.000000000000e+00 
3.056310155056e+03 5.000000000000e+03 2.000000000000e+05 1.950000000000e+05 8.651394218056e-01 1.348605781944e-01 1.837270506190e-05 0.000000000000e+00 -3.309846082260e-05 0.000000000000e+00 
3.116674755530e+03 5.000000000000e+03 2.000000000000e+05 1.950000000000e+05 8.654873328725e-01 1.345126671275e-01 1.819108534790e-05 0.000000000000e+00 -3.275756375726e-05 0.000000000000e+00 
3.201658643153e+03 5.000000000000e+03 2.000000000000e+05 1.950000000000e+05 8.659618004477e-01 1.340381995523e-01 1.794550397634e-05 0.000000000000e+00 -3.229690794407e-05 0.000000000000e+00 
3.279238124856e+03 5.000000000000e+03 2.000000000000e+05 1.950000000000e+05 8.663828303039e-01 1.336171696961e-01 1.772960265614e-05 0.000000000000e+00 -3.189221241037e-05 0.000000000000e+00 
3.317187811169e+03 5.000000000000e+03 2.000000000000e+05 1.950000000000e+05 8.665861415004e-01 1.334138584996e-01 1.762602518411e-05 0.000000000000e+00 -3.169815444958e-05 0.000000000000e+00 
3.377035164605e+03 5.000000000000e+03 2.000000000000e+05 1.950000000000e+05 8.669000047222e-01 1.330999952778e-01 1.746698840964e-05 0.000000000000e+00 -3.140031416511e-05 0.000000000000e+00 
3.451597851998e+03 5.000000000000e+03 2.000000000000e+05 1.950000000000e+05 8.672808881221e-01 1.327191118779e-01 1.727539428425e-05 0.000000000000e+00 -3.104169610542e-05 0.000000000000e+00 
3.518806358986e+03 5.000000000000e+03 2.000000000000e+05 1.950000000000e+05 8.676164722882e-01 1.323835277118e-01 1.710785370609e-05 0.000000000000e+00 -3.072827932066e-05 0.000000000000e+00 
3.572328055910e+03 5.000000000000e+03 2.000000000000e+05 1.950000000000e+05 8.678791024143e-01 1.321208975857e-01 1.697756225858e-05 0.000000000000e+00 -3.048465571225e-05 0.000000000000e+00 
3.632532129546e+03 5.000000000000e+03 2.000000000000e+05 1.950000000000e+05 8.681688635413e-01 1.318311364587e-01 1.683464906625e-05 0.000000000000e+00 -3.021754646010e-05 0.000000000000e+00 
3.683205226970e+03 5.000000000000e+03 2.000000000000e+05 1.950000000000e+05 8.684089668602e-01 1.315910331398e-01 1.671689034046e-05 0.000000000000e+00 -2.999754458846e-05 0.000000000000e+00 
3.734822331683e+03 5.000000000000e+03 2.000000000000e+05 1.950000000000e+05 8.686497507166e-01 1.313502492834e-01 1.659939868996e-05 0.000000000000e+00 -2.977812636230e-05 0.000000000000e+00 
3.804598436926e+03 5.000000000000e+03 2.000000000000e+05 1.950000000000e+05 8.689684952870e-01 1.310315047130e-01 1.644479279274e-05 0.000000000000e+00 -2.948951707028e-05 0.000000000000e+00 
3.857463226712e+03 5.000000000000e+03 2.000000000000e+05 1.950000000000e+05 8.692063837599e-01 1.307936162401e-01 1.633008797723e-05 0.000000000000e+00 -2.927548894736e-05 0.000000000000e+00 
3.909308859823e+03 5.000000000000e+03 2.000000000000e+05 1.950000000000e+05 8.694363290375e-01 1.305636709625e-01 1.621976905421e-05 0.000000000000e+00 -2.906971546176e-05 0.000000000000e+00 
3.954654429912e+03 5.000000000000e+03 2.000000000000e+05 1.950000000000e+05 8.696349801108e-01 1.303650198892e-01 1.612489830656e-05 0.000000000000e+00 -2.889282067070e-05 0.000000000000e+00 
4.000000000000e+03 5.000000000000e+03 2.000000000000e+05 1.950000000000e+05 8.698312304706e-01 1.301687695294e-01 1.603157189015e-05 0.000000000000e+00 -2.871885679310e-05 0.000000000000e+00 
4.072400815600e+03 5.000000000000e+03 2.000000000000e+05 1.950000000000e+05 8.701384782344e-01 1.298615217656e-01 1.588625097434e-05 0.000000000000e+00 -2.844807809809e-05 0.000000000000e+00 
4.144483835208e+03 5.000000000000e+03 2.000000000000e+05 1.950000000000e+05 8.704386251574e-01 1.295613748426e-01 1.574521517060e-05 0.000000000000e+00 -2.818540892702e-05 0.000000000000e+00 
4.240233453923e+03 5.000000000000e+03 2.000000000000e+05 1.950000000000e+05 8.708272835579e-01 1.291727164421e-01 1.556394264636e-05 0.000000000000e+00 -2.784798533468e-05 0.000000000000e+00 
4.286491695593e+03 5.000000000000e+03 2.000000000000e+05 1.950000000000e+05 8.710129345993e-01 1.289870654007e-01 1.547789289466e-05 0.000000000000e+00 -2.768788023793e-05 0.000000000000e+00 
4.362626992156e+03 5.000000000000e+03 2.000000000000e+05 1.950000000000e+05 8.713125178246e-01 1.286874821754e-01 1.533976286058e-05 0.000000000000e+00 -2.743097605210e-05 0.000000000000e+00 
4.469210209953e+03 5.000000000000e+03 2.000000000000e+05 1.950000000000e+05 8.717202175778e-01 1.282797824222e-01 1.515322788717e-05 0.000000000000e+00 -2.708423228489e-05 0.000000000000e+00 
4.522447642844e+03 5.000000000000e+03 2.000000000000e+05 1.950000000000e+05 8.719212044749e-01 1.280787955251e-01 1.506187999594e-05 0.000000000000e+00 -2.691450917310e-05 0.000000000000e+00 
4.593019104401e+03 5.000000000000e+03 2.000000000000e+05 1.950000000000e+05 8.721828558011e-01 1.278171441989e-01 1.494356232658e-05 0.000000000000e+00 -2.669475372982e-05 0.000000000000e+00 
4.683810735272e+03 5.000000000000e+03 2.000000000000e+05 1.950000000000e+05 8.725116669286e-01 1.274883330714e-01 1.479583461017e-05 0.000000000000e+00 -2.642050207416e-05 0.000000000000e+00 
4.735953232081e+03 5.000000000000e+03 2.000000000000e+05 1.950000000000e+05 8.726981153126e-01 1.273018846874e-01 1.471254005450e-05 0.000000000000e+00 -2.626593223039e-05 0.000000000000e+00 
4.807168636493e+03 5.000000000000e+03 2.000000000000e+05 1.950000000000e+05 8.729482730330e-01 1.270517269670e-01 1.460132171383e-05 0.000000000000e+00 -2.605961176138e-05 0.000000000000e+00 
4.885053321598e+03 5.000000000000e+03 2.000000000000e+05 1.950000000000e+05 8.732166727254e-01 1.267833272746e-01 1.448267528073e-05 0.000000000000e+00 -2.583959923825e-05 0.000000000000e+00 
4.984935480941e+03 5.000000000000e+03 2.000000000000e+05 1.950000000000e+05 8.735526074161e-01 1.264473925839e-01 1.433516579795e-05 0.000000000000e+00 -2.556619204659e-05 0.000000000000e+00 
5.121447565604e+03 5.000000000000e+03 2.000000000000e+05 1.950000000000e+05 8.739968078014e-01 1.260031921986e-01 1.414179770557e-05 0.000000000000e+00 -2.520800659600e-05 0.000000000000e+00 
5.185799016060e+03 5.000000000000e+03 2.000000000000e+05 1.950000000000e+05 8.742032437675e-01 1.257967562325e-01 1.405258087757e-05 0.000000000000e+00 -2.504283118505e-05 0.000000000000e+00 
5.280351147627e+03 5.000000000000e+03 2.000000000000e+05 1.950000000000e+05 8.745000590131e-01 1.254999409869e-01 1.392502720639e-05 0.000000000000e+00 -2.480676404077e-05 0.000000000000e+00 
5.401885954779e+03 5.000000000000e+03 2.000000000000e+05 1.950000000000e+05 8.748710960089e-01 1.251289039911e-01 1.376676355497e-05 0.000000000000e+00 -2.451401627153e-05 0.000000000000e+00 
5.514349691573e+03 5.000000000000e+03 2.000000000000e+05 1.950000000000e+05 8.752059333510e-01 1.247940666490e-01 1.362506854701e-05 0.000000000000e+00 -2.425205997696e-05 0.000000000000e+00 
5.642058726674e+03 5.000000000000e+03 2.000000000000e+05 1.950000000000e+05 8.755755363791e-01 1.244244636209e-01 1.346989598019e-05 0.000000000000e+00 -2.396534768416e-05 0.000000000000e+00 
5.682822999500e+03 5.000000000000e+03 2.000000000000e+05 1.950000000000e+05 8.756925542284e-01 1.243074457716e-01 1.342103914349e-05 0.000000000000e+00 -2.387510523793e-05 0.000000000000e+00 
5.739154485455e+03 5.000000000000e+03 2.000000000000e+05 1.950000000000e+05 8.758523603849e-01 1.241476396151e-01 1.335452488132e-05 0.000000000000e+00 -2.375227686364e-05 0.000000000000e+00 
5.821765321627e+03 5.000000000000e+03 2.000000000000e+05 1.950000000000e+05 8.760826810390e-01 1.239173189610e-01 1.325908282069e-05 0.000000000000e+00 -2.357608456887e-05 0.000000000000e+00 
5.939909530482e+03 5.000000000000e+03 2.000000000000e+05 1.950000000000e+05 8.764040673861e-01 1.235959326139e-01 1.312673697064e-05 0.000000000000e+00 -2.333186791549e-05 0.000000000000e+00 
6.010759214999e+03 5.000000000000e+03 2.000000000000e+05 1.950000000000e+05 8.765941615972e-01 1.234058384028e-01 1.304891220052e-05 0.000000000000e+00 -2.318831375179e-05 0.000000000000e+00 
6.105380399746e+03 5.000000000000e+03 2.000000000000e+05 1.950000000000e+05 8.768434014910e-01 1.231565985090e-01 1.294738211403e-05 0.000000000000e+00 -2.300109880640e-05 0.000000000000e+00 
6.202525320424e+03 5.000000000000e+03 2.000000000000e+05 1.950000000000e+05 8.770946543826e-01 1.229053456174e-01 1.284561633210e-05 0.000000000000e+00 -2.281352107634e-05 0.000000000000e+00 