 TITLE = "Time curves in points"
 VARIABLES = "TIME "  "PRESSURE1"  "PRESSURE2"  "PRESSURE_W"  "SATURATION1" SATURATION2  "VELOCITY_X1"  "VELOCITY_Y1"  "VELOCITY_X2"  "VELOCITY_Y2" 
 ZONE T="POINT=POINT0"
0.000000000000e+00 5.000000000000e+04 0.000000000000e+00 -5.000000000000e+04 1.000000000000e-02 9.900000000000e-01 0.000000000000e+00 0.000000000000e+00 0.000000000000e+00 0.000000000000e+00 
2.134145780319e+00 5.000000000000e+03 2.000000000000e+05 1.950000000000e+05 4.115334370918e-01 5.884665629082e-01 1.778306485325e-03 0.000000000000e+00 -5.397712141947e-03 0.000000000000e+00 
2.466746059038e+00 5.000000000000e+03 2.000000000000e+05 1.950000000000e+05 5.665363017813e-01 4.334636982187e-01 1.056652055261e-03 0.000000000000e+00 -2.793334748431e-03 0.000000000000e+00 
2.828186502122e+00 5.000000000000e+03 2.000000000000e+05 1.950000000000e+05 6.567654106921e-01 3.432345893079e-01 5.419011167169e-04 0.000000000000e+00 -1.280076598993e-03 0.000000000000e+00 
3.395819652748e+00 5.000000000000e+03 2.000000000000e+05 1.950000000000e+05 7.174006009273e-01 2.825993990727e-01 2.843633447454e-04 0.000000000000e+00 -6.196617146372e-04 0.000000000000e+00 
4.131846367045e+00 5.000000000000e+03 2.000000000000e+05 1.950000000000e+05 7.305107283392e-01 2.694892716608e-01 2.410394938078e-04 0.000000000000e+00 -5.161374189249e-04 0.000000000000e+00 
5.088483337654e+00 5.000000000000e+03 2.000000000000e+05 1.950000000000e+05 6.897952654174e-01 3.102047345826e-01 3.902964004284e-04 0.000000000000e+00 -8.821716316322e-04 0.000000000000e+00 
5.672792860921e+00 5.000000000000e+03 2.000000000000e+05 1.950000000000e+05 6.741450051124e-01 3.258549948876e-01 4.587907176898e-04 0.000000000000e+00 -1.059175030232e-03 0.000000000000e+00 
6.480703927118e+00 5.000000000000e+03 2.000000000000e+05 1.950000000000e+05 6.804135795827e-01 3.195864204173e-01 4.307066748121e-04 0.000000000000e+00 -9.857632172117e-04 0.000000000000e+00 
7.878162499672e+00 5.000000000000e+03 2.000000000000e+05 1.950000000000e+05 7.150210581910e-01 2.849789418090e-01 2.930570206584e-04 0.000000000000e+00 -6.398136754820e-04 0.000000000000e+00 
1.038038277695e+01 5.000000000000e+03 2.000000000000e+05 1.950000000000e+05 7.168666181000e-01 2.831333819000e-01 2.901601155696e-04 0.000000000000e+00 -6.235150504993e-04 0.000000000000e+00 
1.173697571804e+01 5.000000000000e+03 2.000000000000e+05 1.950000000000e+05 7.132607356134e-01 2.867392643866e-01 2.989747721646e-04 0.000000000000e+00 -6.551105974844e-04 0.000000000000e+00 
1.329030064712e+01 5.000000000000e+03 2.000000000000e+05 1.950000000000e+05 7.208593965906e-01 2.791406034094e-01 2.725094500389e-04 0.000000000000e+00 -5.910706146692e-04 0.000000000000e+00 
1.516534243891e+01 5.000000000000e+03 2.000000000000e+05 1.950000000000e+05 7.331773243382e-01 2.668226756618e-01 2.327736191568e-04 0.000000000000e+00 -4.966629440155e-04 0.000000000000e+00 
1.776443792102e+01 5.000000000000e+03 2.000000000000e+05 1.950000000000e+05 7.344043200687e-01 2.655956799313e-01 2.291012000084e-04 0.000000000000e+00 -4.878685777789e-04 0.000000000000e+00 
1.962890849777e+01 5.000000000000e+03 2.000000000000e+05 1.950000000000e+05 7.359410987869e-01 2.640589012131e-01 2.243954802124e-04 0.000000000000e+00 -4.770286756837e-04 0.000000000000e+00 
2.239215851645e+01 5.000000000000e+03 2.000000000000e+05 1.950000000000e+05 7.432300452664e-01 2.567699547336e-01 2.032582802489e-04 0.000000000000e+00 -4.278724908363e-04 0.000000000000e+00 
2.488545296512e+01 5.000000000000e+03 2.000000000000e+05 1.950000000000e+05 7.465765864143e-01 2.534234135857e-01 1.939729754546e-04 0.000000000000e+00 -4.065550955497e-04 0.000000000000e+00 
2.842818776491e+01 5.000000000000e+03 2.000000000000e+05 1.950000000000e+05 7.500518366994e-01 2.499481633006e-01 1.847204830878e-04 0.000000000000e+00 -3.852189819582e-04 0.000000000000e+00 
3.149791500161e+01 5.000000000000e+03 2.000000000000e+05 1.950000000000e+05 7.541632336177e-01 2.458367663823e-01 1.740012028851e-04 0.000000000000e+00 -3.610379852235e-04 0.000000000000e+00 
3.586165312539e+01 5.000000000000e+03 2.000000000000e+05 1.950000000000e+05 7.576208751037e-01 2.423791248963e-01 1.654252405066e-04 0.000000000000e+00 -3.415489292598e-04 0.000000000000e+00 
3.907086704562e+01 5.000000000000e+03 2.000000000000e+05 1.950000000000e+05 7.604941531918e-01 2.395058468082e-01 1.584103760262e-04 0.000000000000e+00 -3.259470315702e-04 0.000000000000e+00 
4.368130948105e+01 5.000000000000e+03 2.000000000000e+05 1.950000000000e+05 7.641831597258e-01 2.358168402742e-01 1.497753533902e-04 0.000000000000e+00 -3.066693978341e-04 0.000000000000e+00 
4.761825396025e+01 5.000000000000e+03 2.000000000000e+05 1.950000000000e+05 7.667184195797e-01 2.332815804203e-01 1.440180059100e-04 0.000000000000e+00 -2.939078898756e-04 0.000000000000e+00 
5.318706104673e+01 5.000000000000e+03 2.000000000000e+05 1.950000000000e+05 7.702408880112e-01 2.297591119888e-01 1.362917629098e-04 0.000000000000e+00 -2.768187196987e-04 0.000000000000e+00 
5.778036084730e+01 5.000000000000e+03 2.000000000000e+05 1.950000000000e+05 7.726990125517e-01 2.273009874483e-01 1.310414188476e-04 0.000000000000e+00 -2.653298227120e-04 0.000000000000e+00 
6.441736900453e+01 5.000000000000e+03 2.000000000000e+05 1.950000000000e+05 7.759702379075e-01 2.240297620925e-01 1.243079538972e-04 0.000000000000e+00 -2.505799555735e-04 0.000000000000e+00 
7.003824358939e+01 5.000000000000e+03 2.000000000000e+05 1.950000000000e+05 7.784088766679e-01 2.215911233321e-01 1.194129678806e-04 0.000000000000e+00 -2.399811051621e-04 0.000000000000e+00 
7.797738972783e+01 5.000000000000e+03 2.000000000000e+05 1.950000000000e+05 7.815063814294e-01 2.184936185706e-01 1.134308598551e-04 0.000000000000e+00 -2.269916021322e-04 0.000000000000e+00 
8.416092541785e+01 5.000000000000e+03 2.000000000000e+05 1.950000000000e+05 7.836907240989e-01 2.163092759011e-01 1.093002387346e-04 0.000000000000e+00 -2.181475742819e-04 0.000000000000e+00 
9.280565053565e+01 5.000000000000e+03 2.000000000000e+05 1.950000000000e+05 7.864713254798e-01 2.135286745202e-01 1.042285243031e-04 0.000000000000e+00 -2.072549718902e-04 0.000000000000e+00 
9.952142141567e+01 5.000000000000e+03 2.000000000000e+05 1.950000000000e+05 7.884626377514e-01 2.115373622486e-01 1.006826739891e-04 0.000000000000e+00 -1.997035846272e-04 0.000000000000e+00 
1.088287664662e+02 5.000000000000e+03 2.000000000000e+05 1.950000000000e+05 7.909788321657e-01 2.090211678343e-01 9.633615386969e-05 0.000000000000e+00 -1.904517544988e-04 0.000000000000e+00 
1.164498608226e+02 5.000000000000e+03 2.000000000000e+05 1.950000000000e+05 7.928787478091e-01 2.071212521909e-01 9.313523316053e-05 0.000000000000e+00 -1.836775685735e-04 0.000000000000e+00 
1.267631961855e+02 5.000000000000e+03 2.000000000000e+05 1.950000000000e+05 7.952151504255e-01 2.047848495745e-01 8.930757630025e-05 0.000000000000e+00 -1.755913553377e-04 0.000000000000e+00 
1.340451623454e+02 5.000000000000e+03 2.000000000000e+05 1.950000000000e+05 7.967645133898e-01 2.032354866102e-01 8.682572460499e-05 0.000000000000e+00 -1.703756290540e-04 0.000000000000e+00 
1.440949425929e+02 5.000000000000e+03 2.000000000000e+05 1.950000000000e+05 7.987456939293e-01 2.012543060707e-01 8.372623087624e-05 0.000000000000e+00 -1.638732321171e-04 0.000000000000e+00 
1.534485006272e+02 5.000000000000e+03 2.000000000000e+05 1.950000000000e+05 8.004569393424e-01 1.995430606576e-01 8.111098777114e-05 0.000000000000e+00 -1.584055155882e-04 0.000000000000e+00 
1.666912390821e+02 5.000000000000e+03 2.000000000000e+05 1.950000000000e+05 8.026330374047e-01 1.973669625953e-01 7.787254110240e-05 0.000000000000e+00 -1.516479601237e-04 0.000000000000e+00 
1.789200722254e+02 5.000000000000e+03 2.000000000000e+05 1.950000000000e+05 8.044603434375e-01 1.955396565625e-01 7.521688108753e-05 0.000000000000e+00 -1.461400776666e-04 0.000000000000e+00 
1.926967837987e+02 5.000000000000e+03 2.000000000000e+05 1.950000000000e+05 8.063320770977e-01 1.936679229023e-01 7.256527435885e-05 0.000000000000e+00 -1.406527216982e-04 0.000000000000e+00 
2.080811460600e+02 5.000000000000e+03 2.000000000000e+05 1.950000000000e+05 8.082391298644e-01 1.917608701356e-01 6.993588437971e-05 0.000000000000e+00 -1.352197299242e-04 0.000000000000e+00 
2.151932560528e+02 5.000000000000e+03 2.000000000000e+05 1.950000000000e+05 8.090944456332e-01 1.909055543668e-01 6.877537282660e-05 0.000000000000e+00 -1.328342156783e-04 0.000000000000e+00 
2.292435970950e+02 5.000000000000e+03 2.000000000000e+05 1.950000000000e+05 8.106842666591e-01 1.893157333409e-01 6.665785603452e-05 0.000000000000e+00 -1.284828673219e-04 0.000000000000e+00 
2.413547863152e+02 5.000000000000e+03 2.000000000000e+05 1.950000000000e+05 8.119886715700e-01 1.880113284300e-01 6.495473033712e-05 0.000000000000e+00 -1.249922249201e-04 0.000000000000e+00 
2.535475443098e+02 5.000000000000e+03 2.000000000000e+05 1.950000000000e+05 8.132405903500e-01 1.867594096500e-01 6.334929817150e-05 0.000000000000e+00 -1.217085284764e-04 0.000000000000e+00 
2.676762706985e+02 5.000000000000e+03 2.000000000000e+05 1.950000000000e+05 8.146064775159e-01 1.853935224841e-01 6.162974959688e-05 0.000000000000e+00 -1.181992445081e-04 0.000000000000e+00 
2.818683274693e+02 5.000000000000e+03 2.000000000000e+05 1.950000000000e+05 8.158997559512e-01 1.841002440488e-01 6.003219617912e-05 0.000000000000e+00 -1.149461378533e-04 0.000000000000e+00 
3.000529420977e+02 5.000000000000e+03 2.000000000000e+05 1.950000000000e+05 8.174282336509e-01 1.825717663491e-01 5.818205457768e-05 0.000000000000e+00 -1.111875161972e-04 0.000000000000e+00 
3.172137160142e+02 5.000000000000e+03 2.000000000000e+05 1.950000000000e+05 8.187692578610e-01 1.812307421390e-01 5.659196642274e-05 0.000000000000e+00 -1.079656099286e-04 0.000000000000e+00 
3.340552826908e+02 5.000000000000e+03 2.000000000000e+05 1.950000000000e+05 8.200037054753e-01 1.799962945247e-01 5.515609801956e-05 0.000000000000e+00 -1.050614547787e-04 0.000000000000e+00 
3.525537886621e+02 5.000000000000e+03 2.000000000000e+05 1.950000000000e+05 8.212735966145e-01 1.787264033855e-01 5.370579100105e-05 0.000000000000e+00 -1.021348343269e-04 0.000000000000e+00 
3.671229481909e+02 5.000000000000e+03 2.000000000000e+05 1.950000000000e+05 8.222308968833e-01 1.777691031167e-01 5.263052484200e-05 0.000000000000e+00 -9.996896140993e-05 0.000000000000e+00 
3.863940269941e+02 5.000000000000e+03 2.000000000000e+05 1.950000000000e+05 8.234269681572e-01 1.765730318428e-01 5.130861287190e-05 0.000000000000e+00 -9.731102628308e-05 0.000000000000e+00 
4.044548803705e+02 5.000000000000e+03 2.000000000000e+05 1.950000000000e+05 8.244929198116e-01 1.755070801884e-01 5.015042560308e-05 0.000000000000e+00 -9.498681489277e-05 0.000000000000e+00 
4.229329551301e+02 5.000000000000e+03 2.000000000000e+05 1.950000000000e+05 8.255308912075e-01 1.744691087925e-01 4.904069666378e-05 0.000000000000e+00 -9.276349912316e-05 0.000000000000e+00 
4.455046409129e+02 5.000000000000e+03 2.000000000000e+05 1.950000000000e+05 8.267229806861e-01 1.732770193139e-01 4.778771886318e-05 0.000000000000e+00 -9.025805398436e-05 0.000000000000e+00 
4.727523204564e+02 5.000000000000e+03 2.000000000000e+05 1.950000000000e+05 8.280560945778e-01 1.719439054222e-01 4.641269239984e-05 0.000000000000e+00 -8.751621910592e-05 0.000000000000e+00 
5.000000000000e+02 5.000000000000e+03 2.000000000000e+05 1.950000000000e+05 8.292971815127e-01 1.707028184873e-01 4.515952444886e-05 0.000000000000e+00 -8.501976478742e-05 0.000000000000e+00 
5.289913169321e+02 5.000000000000e+03 2.000000000000e+05 1.950000000000e+05 8.305262573138e-01 1.694737426862e-01 4.394256105173e-05 0.000000000000e+00 -8.260007454181e-05 0.000000000000e+00 
5.627140908224e+02 5.000000000000e+03 2.000000000000e+05 1.950000000000e+05 8.318471468626e-01 1.681528531374e-01 4.266031553901e-05 0.000000000000e+00 -8.005718572585e-05 0.000000000000e+00 
5.974036475280e+02 5.000000000000e+03 2.000000000000e+05 1.950000000000e+05 8.331073219994e-01 1.668926780006e-01 4.146148291855e-05 0.000000000000e+00 -7.768596526056e-05 0.000000000000e+00 
6.102785871079e+02 5.000000000000e+03 2.000000000000e+05 1.950000000000e+05 8.335649808810e-01 1.664350191190e-01 4.103253646923e-05 0.000000000000e+00 -7.683788426451e-05 0.000000000000e+00 
6.317942060851e+02 5.000000000000e+03 2.000000000000e+05 1.950000000000e+05 8.343034137301e-01 1.656965862699e-01 4.034673857246e-05 0.000000000000e+00 -7.548407783275e-05 0.000000000000e+00 
6.546612858340e+02 5.000000000000e+03 2.000000000000e+05 1.950000000000e+05 8.350638542362e-01 1.649361457638e-01 3.964907858974e-05 0.000000000000e+00 -7.410857777822e-05 0.000000000000e+00 
6.717563722349e+02 5.000000000000e+03 2.000000000000e+05 1.950000000000e+05 8.356211952868e-01 1.643788047132e-01 3.914328119944e-05 0.000000000000e+00 -7.311237207377e-05 0.000000000000e+00 
6.971284574627e+02 5.000000000000e+03 2.000000000000e+05 1.950000000000e+05 8.364228433362e-01 1.635771566638e-01 3.842383008985e-05 0.000000000000e+00 -7.169702939847e-05 0.000000000000e+00 
7.215038841652e+02 5.000000000000e+03 2.000000000000e+05 1.950000000000e+05 8.371699048894e-01 1.628300951106e-01 3.776196471776e-05 0.000000000000e+00 -7.039653805253e-05 0.000000000000e+00 
7.440598061035e+02 5.000000000000e+03 2.000000000000e+05 1.950000000000e+05 8.378413121298e-01 1.621586878702e-01 3.717410296379e-05 0.000000000000e+00 -6.924282418493e-05 0.000000000000e+00 
7.692179867286e+02 5.000000000000e+03 2.000000000000e+05 1.950000000000e+05 8.385646225066e-01 1.614353774934e-01 3.654813517734e-05 0.000000000000e+00 -6.801575914324e-05 0.000000000000e+00 
7.985148358004e+02 5.000000000000e+03 2.000000000000e+05 1.950000000000e+05 8.393719843051e-01 1.606280156949e-01 3.585840469427e-05 0.000000000000e+00 -6.666533443298e-05 0.000000000000e+00 
8.270585278552e+02 5.000000000000e+03 2.000000000000e+05 1.950000000000e+05 8.401267658315e-01 1.598732341685e-01 3.522205692659e-05 0.000000000000e+00 -6.542103858119e-05 0.000000000000e+00 
8.462676270850e+02 5.000000000000e+03 2.000000000000e+05 1.950000000000e+05 8.406216642847e-01 1.593783357153e-01 3.480924005711e-05 0.000000000000e+00 -6.461463092750e-05 0.000000000000e+00 
8.701428057338e+02 5.000000000000e+03 2.000000000000e+05 1.950000000000e+05 8.412171068934e-01 1.587828931066e-01 3.431715296632e-05 0.000000000000e+00 -6.365424743197e-05 0.000000000000e+00 
8.886046276457e+02 5.000000000000e+03 2.000000000000e+05 1.950000000000e+05 8.416669781189e-01 1.583330218811e-01 3.394869312264e-05 0.000000000000e+00 -6.293574805942e-05 0.000000000000e+00 
9.103171455691e+02 5.000000000000e+03 2.000000000000e+05 1.950000000000e+05 8.421822342103e-01 1.578177657897e-01 3.353017213702e-05 0.000000000000e+00 -6.212027485480e-05 0.000000000000e+00 
9.336253520360e+02 5.000000000000e+03 2.000000000000e+05 1.950000000000e+05 8.427205851416e-01 1.572794148584e-01 3.309685704172e-05 0.000000000000e+00 -6.127670017713e-05 0.000000000000e+00 
9.636567642000e+02 5.000000000000e+03 2.000000000000e+05 1.950000000000e+05 8.433904373028e-01 1.566095626972e-01 3.256332657247e-05 0.000000000000e+00 -6.023903957611e-05 0.000000000000e+00 
1.000000000000e+03 5.000000000000e+03 2.000000000000e+05 1.950000000000e+05 8.441665430439e-01 1.558334569561e-01 3.195287371714e-05 0.000000000000e+00 -5.905324791919e-05 0.000000000000e+00 
1.036800706956e+03 5.000000000000e+03 2.000000000000e+05 1.950000000000e+05 8.449181011721e-01 1.550818988279e-01 3.136962226237e-05 0.000000000000e+00 -5.792165339710e-05 0.000000000000e+00 
1.054863913696e+03 5.000000000000e+03 2.000000000000e+05 1.950000000000e+05 8.452796807785e-01 1.547203192215e-01 3.109183388288e-05 0.000000000000e+00 -5.738304010683e-05 0.000000000000e+00 
1.083560499656e+03 5.000000000000e+03 2.000000000000e+05 1.950000000000e+05 8.458351342688e-01 1.541648657312e-01 3.066844434317e-05 0.000000000000e+00 -5.656292788823e-05 0.000000000000e+00 
1.117420532916e+03 5.000000000000e+03 2.000000000000e+05 1.950000000000e+05 8.464659136483e-01 1.535340863517e-01 3.019268461541e-05 0.000000000000e+00 -5.564224733900e-05 0.000000000000e+00 
1.149020451316e+03 5.000000000000e+03 2.000000000000e+05 1.950000000000e+05 8.470351260835e-01 1.529648739165e-01 2.976793629576e-05 0.000000000000e+00 -5.482107818923e-05 0.000000000000e+00 
1.173083798889e+03 5.000000000000e+03 2.000000000000e+05 1.950000000000e+05 8.474583381244e-01 1.525416618756e-01 2.945493286531e-05 0.000000000000e+00 -5.421642749431e-05 0.000000000000e+00 
1.201447840112e+03 5.000000000000e+03 2.000000000000e+05 1.950000000000e+05 8.479435623345e-01 1.520564376655e-01 2.909898229289e-05 0.000000000000e+00 -5.352932419660e-05 0.000000000000e+00 
1.233187120433e+03 5.000000000000e+03 2.000000000000e+05 1.950000000000e+05 8.484705083268e-01 1.515294916732e-01 2.871594017042e-05 0.000000000000e+00 -5.279053091782e-05 0.000000000000e+00 
1.269939526817e+03 5.000000000000e+03 2.000000000000e+05 1.950000000000e+05 8.490603505415e-01 1.509396494585e-01 2.829150122909e-05 0.000000000000e+00 -5.197262020292e-05 0.000000000000e+00 
1.300293665362e+03 5.000000000000e+03 2.000000000000e+05 1.950000000000e+05 8.495347340069e-01 1.504652659931e-01 2.795343484188e-05 0.000000000000e+00 -5.132171150824e-05 0.000000000000e+00 
1.335837115549e+03 5.000000000000e+03 2.000000000000e+05 1.950000000000e+05 8.500731416717e-01 1.499268583283e-01 2.757327457628e-05 0.000000000000e+00 -5.059035555503e-05 0.000000000000e+00 
1.375724996597e+03 5.000000000000e+03 2.000000000000e+05 1.950000000000e+05 8.506567227040e-01 1.493432772960e-01 2.716544182862e-05 0.000000000000e+00 -4.980646333941e-05 0.000000000000e+00 
1.412320500700e+03 5.000000000000e+03 2.000000000000e+05 1.950000000000e+05 8.511758394496e-01 1.488241605504e-01 2.680632763118e-05 0.000000000000e+00 -4.911682341345e-05 0.000000000000e+00 
1.438355714906e+03 5.000000000000e+03 2.000000000000e+05 1.950000000000e+05 8.515375182910e-01 1.484624817090e-01 2.655815795405e-05 0.000000000000e+00 -4.864057391358e-05 0.000000000000e+00 
1.477460056500e+03 5.000000000000e+03 2.000000000000e+05 1.950000000000e+05 8.520636129711e-01 1.479363870289e-01 2.620012930257e-05 0.000000000000e+00 -4.795399843047e-05 0.000000000000e+00 
1.503416202801e+03 5.000000000000e+03 2.000000000000e+05 1.950000000000e+05 8.524060103043e-01 1.475939896957e-01 2.596899286749e-05 0.000000000000e+00 -4.751106439351e-05 0.000000000000e+00 
1.537641205826e+03 5.000000000000e+03 2.000000000000e+05 1.950000000000e+05 8.528459067051e-01 1.471540932949e-01 2.567420194374e-05 0.000000000000e+00 -4.694650035226e-05 0.000000000000e+00 
1.569200371176e+03 5.000000000000e+03 2.000000000000e+05 1.950000000000e+05 8.532423961093e-01 1.467576038907e-01 2.541057439767e-05 0.000000000000e+00 -4.644195618146e-05 0.000000000000e+00 
1.596079515483e+03 5.000000000000e+03 2.000000000000e+05 1.950000000000e+05 8.535738759321e-01 1.464261240679e-01 2.519167489688e-05 0.000000000000e+00 -4.602325946269e-05 0.000000000000e+00 
1.638419704469e+03 5.000000000000e+03 2.000000000000e+05 1.950000000000e+05 8.540807604558e-01 1.459192395442e-01 2.485957643443e-05 0.000000000000e+00 -4.538847253145e-05 0.000000000000e+00 
1.659995859831e+03 5.000000000000e+03 2.000000000000e+05 1.950000000000e+05 8.543355604894e-01 1.456644395106e-01 2.469383921491e-05 0.000000000000e+00 -4.507186273061e-05 0.000000000000e+00 
1.695376854079e+03 5.000000000000e+03 2.000000000000e+05 1.950000000000e+05 8.547437177872e-01 1.452562822128e-01 2.443000982775e-05 0.000000000000e+00 -4.456813936323e-05 0.000000000000e+00 
1.733453460193e+03 5.000000000000e+03 2.000000000000e+05 1.950000000000e+05 8.551722548877e-01 1.448277451123e-01 2.415520221768e-05 0.000000000000e+00 -4.404380738027e-05 0.000000000000e+00 
1.777235529595e+03 5.000000000000e+03 2.000000000000e+05 1.950000000000e+05 8.556512263615e-01 1.443487736385e-01 2.385070470188e-05 0.000000000000e+00 -4.346324161457e-05 0.000000000000e+00 
1.813638054289e+03 5.000000000000e+03 2.000000000000e+05 1.950000000000e+05 8.560404855290e-01 1.439595144710e-01 2.360528904361e-05 0.000000000000e+00 -4.299564875364e-05 0.000000000000e+00 
1.836961990799e+03 5.000000000000e+03 2.000000000000e+05 1.950000000000e+05 8.562864249531e-01 1.437135750469e-01 2.345117623658e-05 0.000000000000e+00 -4.270216318908e-05 0.000000000000e+00 
1.873477193289e+03 5.000000000000e+03 2.000000000000e+05 1.950000000000e+05 8.566627855491e-01 1.433372144509e-01 2.321674499432e-05 0.000000000000e+00 -4.225594722731e-05 0.000000000000e+00 
1.902700136616e+03 5.000000000000e+03 2.000000000000e+05 1.950000000000e+05 8.569587633895e-01 1.430412366105e-01 2.303357661123e-05 0.000000000000e+00 -4.190749105396e-05 0.000000000000e+00 
1.933927359105e+03 5.000000000000e+03 2.000000000000e+05 1.950000000000e+05 8.572692337519e-01 1.427307662481e-01 2.284256465577e-05 0.000000000000e+00 -4.154428740984e-05 0.000000000000e+00 
1.966963679553e+03 5.000000000000e+03 2.000000000000e+05 1.950000000000e+05 8.575914455340e-01 1.424085544660e-01 2.264554342641e-05 0.000000000000e+00 -4.116984350230e-05 0.000000000000e+00 
2.000000000000e+03 5.000000000000e+03 2.000000000000e+05 1.950000000000e+05 8.579076946533e-01 1.420923053467e-01 2.245336126934e-05 0.000000000000e+00 -4.080478975625e-05 0.000000000000e+00 
2.045078396808e+03 5.000000000000e+03 2.000000000000e+05 1.950000000000e+05 8.583283721625e-01 1.416716278375e-01 2.219955328964e-05 0.000000000000e+00 -4.032295173717e-05 0.000000000000e+00 
2.095482182940e+03 5.000000000000e+03 2.000000000000e+05 1.950000000000e+05 8.587857504008e-01 1.412142495992e-01 2.192596335015e-05 0.000000000000e+00 -3.980392119080e-05 0.000000000000e+00 
2.117320638719e+03 5.000000000000e+03 2.000000000000e+05 1.950000000000e+05 8.589817417513e-01 1.410182582487e-01 2.180947807426e-05 0.000000000000e+00 -3.958304802727e-05 0.000000000000e+00 
2.154750726352e+03 5.000000000000e+03 2.000000000000e+05 1.950000000000e+05 8.593109722114e-01 1.406890277886e-01 2.161481151507e-05 0.000000000000e+00 -3.921408640518e-05 0.000000000000e+00 
2.194234981868e+03 5.000000000000e+03 2.000000000000e+05 1.950000000000e+05 8.596510675492e-01 1.403489324508e-01 2.141504105929e-05 0.000000000000e+00 -3.883565733309e-05 0.000000000000e+00 
2.227241071798e+03 5.000000000000e+03 2.000000000000e+05 1.950000000000e+05 8.599305552883e-01 1.400694447117e-01 2.125187698807e-05 0.000000000000e+00 -3.852671851790e-05 0.000000000000e+00 
2.277325826832e+03 5.000000000000e+03 2.000000000000e+05 1.950000000000e+05 8.603435938823e-01 1.396564061177e-01 2.101239238274e-05 0.000000000000e+00 -3.807352801913e-05 0.000000000000e+00 
2.308680217921e+03 5.000000000000e+03 2.000000000000e+05 1.950000000000e+05 8.605981865883e-01 1.394018134117e-01 2.086575390079e-05 0.000000000000e+00 -3.779618098117e-05 0.000000000000e+00 
2.353267471517e+03 5.000000000000e+03 2.000000000000e+05 1.950000000000e+05 8.609521647382e-01 1.390478352618e-01 2.066310525548e-05 0.000000000000e+00 -3.741308201356e-05 0.000000000000e+00 
2.391323946155e+03 5.000000000000e+03 2.000000000000e+05 1.950000000000e+05 8.612487513263e-01 1.387512486737e-01 2.049441255235e-05 0.000000000000e+00 -3.709434010246e-05 0.000000000000e+00 
2.426874435532e+03 5.000000000000e+03 2.000000000000e+05 1.950000000000e+05 8.615211411608e-01 1.384788588392e-01 2.034036420112e-05 0.000000000000e+00 -3.680339708850e-05 0.000000000000e+00 
2.481977958295e+03 5.000000000000e+03 2.000000000000e+05 1.950000000000e+05 8.619322058875e-01 1.380677941125e-01 2.010947663457e-05 0.000000000000e+00 -3.636757180104e-05 0.000000000000e+00 
2.512914750593e+03 5.000000000000e+03 2.000000000000e+05 1.950000000000e+05 8.621597945209e-01 1.378402054791e-01 1.998246507501e-05 0.000000000000e+00 -3.612794233570e-05 0.000000000000e+00 
2.561249732523e+03 5.000000000000e+03 2.000000000000e+05 1.950000000000e+05 8.625074705281e-01 1.374925294719e-01 1.978955887945e-05 0.000000000000e+00 -3.576415661070e-05 0.000000000000e+00 
2.601237667790e+03 5.000000000000e+03 2.000000000000e+05 1.950000000000e+05 8.627900075762e-01 1.372099924238e-01 1.963378888738e-05 0.000000000000e+00 -3.547055357361e-05 0.000000000000e+00 
2.637272640227e+03 5.000000000000e+03 2.000000000000e+05 1.950000000000e+05 8.630406166272e-01 1.369593833728e-01 1.949636908693e-05 0.000000000000e+00 -3.521164247325e-05 0.000000000000e+00 
2.698027327572e+03 5.000000000000e+03 2.000000000000e+05 1.950000000000e+05 8.634517632151e-01 1.365482367849e-01 1.927242883149e-05 0.000000000000e+00 -3.478994362111e-05 0.000000000000e+00 
2.723280082896e+03 5.000000000000e+03 2.000000000000e+05 1.950000000000e+05 8.636209066611e-01 1.363790933389e-01 1.918084613661e-05 0.000000000000e+00 -3.461756136036e-05 0.000000000000e+00 
2.766320797317e+03 5.000000000000e+03 2.000000000000e+05 1.950000000000e+05 8.639039400851e-01 1.360960599149e-01 1.902830192273e-05 0.000000000000e+00 -3.433053971409e-05 0.000000000000e+00 
2.814491678650e+03 5.000000000000e+03 2.000000000000e+05 1.950000000000e+05 8.642143621303e-01 1.357856378697e-01 1.886200926276e-05 0.000000000000e+00 -3.401779631156e-05 0.000000000000e+00 
2.864638014401e+03 5.000000000000e+03 2.000000000000e+05 1.950000000000e+05 8.645308977476e-01 1.354691022524e-01 1.869353034995e-05 0.000000000000e+00 -3.370109525968e-05 0.000000000000e+00 
2.906285389252e+03 5.000000000000e+03 2.000000000000e+05 1.950000000000e+05 8.647894474968e-01 1.352105525032e-01 1.855672543402e-05 0.000000000000e+00 -3.344405285655e-05 0.000000000000e+00 
2.946890763617e+03 5.000000000000e+03 2.000000000000e+05 1.950000000000e+05 8.650375246217e-01 1.349624753783e-01 1.842614773629e-05 0.000000000000e+00 -3.319880477699e-05 0.000000000000e+00 
3.005618019259e+03 5.000000000000e+03 2.000000000000e+05 1.950000000000e+05 8.653880357829e-01 1.346119642171e-01 1.824278839865e-05 0.000000000000e+00 -3.285458956553e-05 0.000000000000e+00 
3.041383285068e+03 5.000000000000e+03 2.000000000000e+05 1.950000000000e+05 8.655986629659e-01 1.344013370341e-01 1.813324342692e-05 0.000000000000e+00 -3.264903551534e-05 0.000000000000e+00 
3.094724799984e+03 5.000000000000e+03 2.000000000000e+05 1.950000000000e+05 8.659064507853e-01 1.340935492147e-01 1.797402803496e-05 0.000000000000e+00 -3.235039486765e-05 0.000000000000e+00 
3.138340289216e+03 5.000000000000e+03 2.000000000000e+05 1.950000000000e+05 8.661541038538e-01 1.338458961462e-01 1.784665652630e-05 0.000000000000e+00 -3.211159096890e-05 0.000000000000e+00 
3.179632097276e+03 5.000000000000e+03 2.000000000000e+05 1.950000000000e+05 8.663850685018e-01 1.336149314982e-01 1.772846187121e-05 0.000000000000e+00 -3.189007122887e-05 0.000000000000e+00 
3.244862981321e+03 5.000000000000e+03 2.000000000000e+05 1.950000000000e+05 8.667412542260e-01 1.332587457740e-01 1.754729585964e-05 0.000000000000e+00 -3.155069714312e-05 0.000000000000e+00 
3.279671612261e+03 5.000000000000e+03 2.000000000000e+05 1.950000000000e+05 8.669290639676e-01 1.330709360324e-01 1.745231493659e-05 0.000000000000e+00 -3.137284485131e-05 0.000000000000e+00 
3.334742234344e+03 5.000000000000e+03 2.000000000000e+05 1.950000000000e+05 8.672204545581e-01 1.327795454419e-01 1.730569072689e-05 0.000000000000e+00 -3.109839110410e-05 0.000000000000e+00 
3.380868166224e+03 5.000000000000e+03 2.000000000000e+05 1.950000000000e+05 8.674606952343e-01 1.325393047657e-01 1.718547603224e-05 0.000000000000e+00 -3.087347012221e-05 0.000000000000e+00 
3.422793135059e+03 5.000000000000e+03 2.000000000000e+05 1.950000000000e+05 8.676759954605e-01 1.323240045395e-01 1.707826151933e-05 0.000000000000e+00 -3.067293647905e-05 0.000000000000e+00 
3.487166680303e+03 5.000000000000e+03 2.000000000000e+05 1.950000000000e+05 8.679993922610e-01 1.320006077390e-01 1.691812655417e-05 0.000000000000e+00 -3.037355565206e-05 0.000000000000e+00 
3.518752100013e+03 5.000000000000e+03 2.000000000000e+05 1.950000000000e+05 8.681564882779e-01 1.318435117221e-01 1.684073459524e-05 0.000000000000e+00 -3.022891832443e-05 0.000000000000e+00 
3.575687166176e+03 5.000000000000e+03 2.000000000000e+05 1.950000000000e+05 8.684343940427e-01 1.315656059573e-01 1.670445446241e-05 0.000000000000e+00 -2.997431663940e-05 0.000000000000e+00 
3.628476566365e+03 5.000000000000e+03 2.000000000000e+05 1.950000000000e+05 8.686877466897e-01 1.313122533103e-01 1.658091391044e-05 0.000000000000e+00 -2.974361205225e-05 0.000000000000e+00 
3.675915656338e+03 5.000000000000e+03 2.000000000000e+05 1.950000000000e+05 8.689120607239e-01 1.310879392761e-01 1.647208960272e-05 0.000000000000e+00 -2.954046277596e-05 0.000000000000e+00 
3.723435964575e+03 5.000000000000e+03 2.000000000000e+05 1.950000000000e+05 8.691334745374e-01 1.308665254626e-01 1.636518169950e-05 0.000000000000e+00 -2.934096123080e-05 0.000000000000e+00 
3.769010696765e+03 5.000000000000e+03 2.000000000000e+05 1.950000000000e+05 8.693428939715e-01 1.306571060285e-01 1.626453062050e-05 0.000000000000e+00 -2.915319750910e-05 0.000000000000e+00 
3.832122164374e+03 5.000000000000e+03 2.000000000000e+05 1.950000000000e+05 8.696273429174e-01 1.303726570826e-01 1.612853840031e-05 0.000000000000e+00 -2.889960649082e-05 0.000000000000e+00 
3.916061082187e+03 5.000000000000e+03 2.000000000000e+05 1.950000000000e+05 8.699960913421e-01 1.300039086579e-01 1.595347484612e-05 0.000000000000e+00 -2.857332532022e-05 0.000000000000e+00 
4.000000000000e+03 5.000000000000e+03 2.000000000000e+05 1.950000000000e+05 8.703557120390e-01 1.296442879610e-01 1.578408224753e-05 0.000000000000e+00 -2.825778670147e-05 0.000000000000e+00 
4.086235494077e+03 5.000000000000e+03 2.000000000000e+05 1.950000000000e+05 8.707158561691e-01 1.292841438309e-01 1.561575438904e-05 0.000000000000e+00 -2.794441263567e-05 0.000000000000e+00 
4.175066851846e+03 5.000000000000e+03 2.000000000000e+05 1.950000000000e+05 8.710772520786e-01 1.289227479214e-01 1.544816016992e-05 0.000000000000e+00 -2.763257418896e-05 0.000000000000e+00 