 TITLE = "Profiles along polylines"
 VARIABLES = "DIST" "HEAD" "C(4)" "Ca" "Mg" "Cl" "pH" "pe" "Calcite" "Dolomite(dis)" 
 ZONE T="TIME=0.000000000000e+00"
0.000000000000e+00 1.000000000000e+00 1.227217038571e-01 1.227217038571e-01 9.999999975403e-10 9.999999975403e-10 9.909703055512e+00 -4.268604943807e+00 5.741200000000e-02 0.000000000000e+00 
5.000000000000e-03 1.000000000000e+00 1.227217038571e-01 1.227217038571e-01 9.999999975403e-10 9.999999975403e-10 9.909703055512e+00 -4.268604943807e+00 5.741200000000e-02 0.000000000000e+00 
1.000000000000e-02 1.000000000000e+00 1.227217038571e-01 1.227217038571e-01 9.999999975403e-10 9.999999975403e-10 9.909703055512e+00 -4.268604943807e+00 5.741200000000e-02 0.000000000000e+00 
1.500000000000e-02 1.000000000000e+00 1.227217038571e-01 1.227217038571e-01 9.999999975403e-10 9.999999975403e-10 9.909703055512e+00 -4.268604943807e+00 5.741200000000e-02 0.000000000000e+00 
2.000000000000e-02 1.000000000000e+00 1.227217038571e-01 1.227217038571e-01 9.999999975403e-10 9.999999975403e-10 9.909703055512e+00 -4.268604943807e+00 5.741200000000e-02 0.000000000000e+00 
2.500000000000e-02 1.000000000000e+00 1.227217038571e-01 1.227217038571e-01 9.999999975403e-10 9.999999975403e-10 9.909703055512e+00 -4.268604943807e+00 5.741200000000e-02 0.000000000000e+00 
3.000000000000e-02 1.000000000000e+00 1.227217038571e-01 1.227217038571e-01 9.999999975403e-10 9.999999975403e-10 9.909703055512e+00 -4.268604943807e+00 5.741200000000e-02 0.000000000000e+00 
3.500000000000e-02 1.000000000000e+00 1.227217038571e-01 1.227217038571e-01 9.999999975403e-10 9.999999975403e-10 9.909703055512e+00 -4.268604943807e+00 5.741200000000e-02 0.000000000000e+00 
4.000000000000e-02 1.000000000000e+00 1.227217038571e-01 1.227217038571e-01 9.999999975403e-10 9.999999975403e-10 9.909703055512e+00 -4.268604943807e+00 5.741200000000e-02 0.000000000000e+00 
4.500000000000e-02 1.000000000000e+00 1.227217038571e-01 1.227217038571e-01 9.999999975403e-10 9.999999975403e-10 9.909703055512e+00 -4.268604943807e+00 5.741200000000e-02 0.000000000000e+00 
5.000000000000e-02 1.000000000000e+00 1.227217038571e-01 1.227217038571e-01 9.999999975403e-10 9.999999975403e-10 9.909703055512e+00 -4.268604943807e+00 5.741200000000e-02 0.000000000000e+00 
5.500000000000e-02 1.000000000000e+00 1.227217038571e-01 1.227217038571e-01 9.999999975403e-10 9.999999975403e-10 9.909703055512e+00 -4.268604943807e+00 5.741200000000e-02 0.000000000000e+00 
6.000000000000e-02 1.000000000000e+00 1.227217038571e-01 1.227217038571e-01 9.999999975403e-10 9.999999975403e-10 9.909703055512e+00 -4.268604943807e+00 5.741200000000e-02 0.000000000000e+00 
6.500000000000e-02 1.000000000000e+00 1.227217038571e-01 1.227217038571e-01 9.999999975403e-10 9.999999975403e-10 9.909703055512e+00 -4.268604943807e+00 5.741200000000e-02 0.000000000000e+00 
7.000000000000e-02 1.000000000000e+00 1.227217038571e-01 1.227217038571e-01 9.999999975403e-10 9.999999975403e-10 9.909703055512e+00 -4.268604943807e+00 5.741200000000e-02 0.000000000000e+00 
7.500000000000e-02 1.000000000000e+00 1.227217038571e-01 1.227217038571e-01 9.999999975403e-10 9.999999975403e-10 9.909703055512e+00 -4.268604943807e+00 5.741200000000e-02 0.000000000000e+00 
8.000000000000e-02 1.000000000000e+00 1.227217038571e-01 1.227217038571e-01 9.999999975403e-10 9.999999975403e-10 9.909703055512e+00 -4.268604943807e+00 5.741200000000e-02 0.000000000000e+00 
8.500000000000e-02 1.000000000000e+00 1.227217038571e-01 1.227217038571e-01 9.999999975403e-10 9.999999975403e-10 9.909703055512e+00 -4.268604943807e+00 5.741200000000e-02 0.000000000000e+00 
9.000000000000e-02 1.000000000000e+00 1.227217038571e-01 1.227217038571e-01 9.999999975403e-10 9.999999975403e-10 9.909703055512e+00 -4.268604943807e+00 5.741200000000e-02 0.000000000000e+00 
9.500000000000e-02 1.000000000000e+00 1.227217038571e-01 1.227217038571e-01 9.999999975403e-10 9.999999975403e-10 9.909703055512e+00 -4.268604943807e+00 5.741200000000e-02 0.000000000000e+00 
1.000000000000e-01 1.000000000000e+00 1.227217038571e-01 1.227217038571e-01 9.999999975403e-10 9.999999975403e-10 9.909703055512e+00 -4.268604943807e+00 5.741200000000e-02 0.000000000000e+00 
1.050000000000e-01 1.000000000000e+00 1.227217038571e-01 1.227217038571e-01 9.999999975403e-10 9.999999975403e-10 9.909703055512e+00 -4.268604943807e+00 5.741200000000e-02 0.000000000000e+00 
1.100000000000e-01 1.000000000000e+00 1.227217038571e-01 1.227217038571e-01 9.999999975403e-10 9.999999975403e-10 9.909703055512e+00 -4.268604943807e+00 5.741200000000e-02 0.000000000000e+00 
1.150000000000e-01 1.000000000000e+00 1.227217038571e-01 1.227217038571e-01 9.999999975403e-10 9.999999975403e-10 9.909703055512e+00 -4.268604943807e+00 5.741200000000e-02 0.000000000000e+00 
1.200000000000e-01 1.000000000000e+00 1.227217038571e-01 1.227217038571e-01 9.999999975403e-10 9.999999975403e-10 9.909703055512e+00 -4.268604943807e+00 5.741200000000e-02 0.000000000000e+00 
1.250000000000e-01 1.000000000000e+00 1.227217038571e-01 1.227217038571e-01 9.999999975403e-10 9.999999975403e-10 9.909703055512e+00 -4.268604943807e+00 5.741200000000e-02 0.000000000000e+00 
1.300000000000e-01 1.000000000000e+00 1.227217038571e-01 1.227217038571e-01 9.999999975403e-10 9.999999975403e-10 9.909703055512e+00 -4.268604943807e+00 5.741200000000e-02 0.000000000000e+00 
1.350000000000e-01 1.000000000000e+00 1.227217038571e-01 1.227217038571e-01 9.999999975403e-10 9.999999975403e-10 9.909703055512e+00 -4.268604943807e+00 5.741200000000e-02 0.000000000000e+00 
1.400000000000e-01 1.000000000000e+00 1.227217038571e-01 1.227217038571e-01 9.999999975403e-10 9.999999975403e-10 9.909703055512e+00 -4.268604943807e+00 5.741200000000e-02 0.000000000000e+00 
1.450000000000e-01 1.000000000000e+00 1.227217038571e-01 1.227217038571e-01 9.999999975403e-10 9.999999975403e-10 9.909703055512e+00 -4.268604943807e+00 5.741200000000e-02 0.000000000000e+00 
1.500000000000e-01 1.000000000000e+00 1.227217038571e-01 1.227217038571e-01 9.999999975403e-10 9.999999975403e-10 9.909703055512e+00 -4.268604943807e+00 5.741200000000e-02 0.000000000000e+00 
1.550000000000e-01 1.000000000000e+00 1.227217038571e-01 1.227217038571e-01 9.999999975403e-10 9.999999975403e-10 9.909703055512e+00 -4.268604943807e+00 5.741200000000e-02 0.000000000000e+00 
1.600000000000e-01 1.000000000000e+00 1.227217038571e-01 1.227217038571e-01 9.999999975403e-10 9.999999975403e-10 9.909703055512e+00 -4.268604943807e+00 5.741200000000e-02 0.000000000000e+00 
1.650000000000e-01 1.000000000000e+00 1.227217038571e-01 1.227217038571e-01 9.999999975403e-10 9.999999975403e-10 9.909703055512e+00 -4.268604943807e+00 5.741200000000e-02 0.000000000000e+00 
1.700000000000e-01 1.000000000000e+00 1.227217038571e-01 1.227217038571e-01 9.999999975403e-10 9.999999975403e-10 9.909703055512e+00 -4.268604943807e+00 5.741200000000e-02 0.000000000000e+00 
1.750000000000e-01 1.000000000000e+00 1.227217038571e-01 1.227217038571e-01 9.999999975403e-10 9.999999975403e-10 9.909703055512e+00 -4.268604943807e+00 5.741200000000e-02 0.000000000000e+00 
1.800000000000e-01 1.000000000000e+00 1.227217038571e-01 1.227217038571e-01 9.999999975403e-10 9.999999975403e-10 9.909703055512e+00 -4.268604943807e+00 5.741200000000e-02 0.000000000000e+00 
1.850000000000e-01 1.000000000000e+00 1.227217038571e-01 1.227217038571e-01 9.999999975403e-10 9.999999975403e-10 9.909703055512e+00 -4.268604943807e+00 5.741200000000e-02 0.000000000000e+00 
1.900000000000e-01 1.000000000000e+00 1.227217038571e-01 1.227217038571e-01 9.999999975403e-10 9.999999975403e-10 9.909703055512e+00 -4.268604943807e+00 5.741200000000e-02 0.000000000000e+00 
1.950000000000e-01 1.000000000000e+00 1.227217038571e-01 1.227217038571e-01 9.999999975403e-10 9.999999975403e-10 9.909703055512e+00 -4.268604943807e+00 5.741200000000e-02 0.000000000000e+00 
2.000000000000e-01 1.000000000000e+00 1.227217038571e-01 1.227217038571e-01 9.999999975403e-10 9.999999975403e-10 9.909703055512e+00 -4.268604943807e+00 5.741200000000e-02 0.000000000000e+00 
2.050000000000e-01 1.000000000000e+00 1.227217038571e-01 1.227217038571e-01 9.999999975403e-10 9.999999975403e-10 9.909703055512e+00 -4.268604943807e+00 5.741200000000e-02 0.000000000000e+00 
2.100000000000e-01 1.000000000000e+00 1.227217038571e-01 1.227217038571e-01 9.999999975403e-10 9.999999975403e-10 9.909703055512e+00 -4.268604943807e+00 5.741200000000e-02 0.000000000000e+00 
2.150000000000e-01 1.000000000000e+00 1.227217038571e-01 1.227217038571e-01 9.999999975403e-10 9.999999975403e-10 9.909703055512e+00 -4.268604943807e+00 5.741200000000e-02 0.000000000000e+00 
2.200000000000e-01 1.000000000000e+00 1.227217038571e-01 1.227217038571e-01 9.999999975403e-10 9.999999975403e-10 9.909703055512e+00 -4.268604943807e+00 5.741200000000e-02 0.000000000000e+00 
2.250000000000e-01 1.000000000000e+00 1.227217038571e-01 1.227217038571e-01 9.999999975403e-10 9.999999975403e-10 9.909703055512e+00 -4.268604943807e+00 5.741200000000e-02 0.000000000000e+00 
2.300000000000e-01 1.000000000000e+00 1.227217038571e-01 1.227217038571e-01 9.999999975403e-10 9.999999975403e-10 9.909703055512e+00 -4.268604943807e+00 5.741200000000e-02 0.000000000000e+00 
2.350000000000e-01 1.000000000000e+00 1.227217038571e-01 1.227217038571e-01 9.999999975403e-10 9.999999975403e-10 9.909703055512e+00 -4.268604943807e+00 5.741200000000e-02 0.000000000000e+00 
2.400000000000e-01 1.000000000000e+00 1.227217038571e-01 1.227217038571e-01 9.999999975403e-10 9.999999975403e-10 9.909703055512e+00 -4.268604943807e+00 5.741200000000e-02 0.000000000000e+00 
2.450000000000e-01 1.000000000000e+00 1.227217038571e-01 1.227217038571e-01 9.999999975403e-10 9.999999975403e-10 9.909703055512e+00 -4.268604943807e+00 5.741200000000e-02 0.000000000000e+00 
2.500000000000e-01 1.000000000000e+00 1.227217038571e-01 1.227217038571e-01 9.999999975403e-10 9.999999975403e-10 9.909703055512e+00 -4.268604943807e+00 5.741200000000e-02 0.000000000000e+00 
2.550000000000e-01 1.000000000000e+00 1.227217038571e-01 1.227217038571e-01 9.999999975403e-10 9.999999975403e-10 9.909703055512e+00 -4.268604943807e+00 5.741200000000e-02 0.000000000000e+00 
2.600000000000e-01 1.000000000000e+00 1.227217038571e-01 1.227217038571e-01 9.999999975403e-10 9.999999975403e-10 9.909703055512e+00 -4.268604943807e+00 5.741200000000e-02 0.000000000000e+00 
2.650000000000e-01 1.000000000000e+00 1.227217038571e-01 1.227217038571e-01 9.999999975403e-10 9.999999975403e-10 9.909703055512e+00 -4.268604943807e+00 5.741200000000e-02 0.000000000000e+00 
2.700000000000e-01 1.000000000000e+00 1.227217038571e-01 1.227217038571e-01 9.999999975403e-10 9.999999975403e-10 9.909703055512e+00 -4.268604943807e+00 5.741200000000e-02 0.000000000000e+00 
2.750000000000e-01 1.000000000000e+00 1.227217038571e-01 1.227217038571e-01 9.999999975403e-10 9.999999975403e-10 9.909703055512e+00 -4.268604943807e+00 5.741200000000e-02 0.000000000000e+00 
2.800000000000e-01 1.000000000000e+00 1.227217038571e-01 1.227217038571e-01 9.999999975403e-10 9.999999975403e-10 9.909703055512e+00 -4.268604943807e+00 5.741200000000e-02 0.000000000000e+00 
2.850000000000e-01 1.000000000000e+00 1.227217038571e-01 1.227217038571e-01 9.999999975403e-10 9.999999975403e-10 9.909703055512e+00 -4.268604943807e+00 5.741200000000e-02 0.000000000000e+00 
2.900000000000e-01 1.000000000000e+00 1.227217038571e-01 1.227217038571e-01 9.999999975403e-10 9.999999975403e-10 9.909703055512e+00 -4.268604943807e+00 5.741200000000e-02 0.000000000000e+00 
2.950000000000e-01 1.000000000000e+00 1.227217038571e-01 1.227217038571e-01 9.999999975403e-10 9.999999975403e-10 9.909703055512e+00 -4.268604943807e+00 5.741200000000e-02 0.000000000000e+00 
3.000000000000e-01 1.000000000000e+00 1.227217038571e-01 1.227217038571e-01 9.999999975403e-10 9.999999975403e-10 9.909703055512e+00 -4.268604943807e+00 5.741200000000e-02 0.000000000000e+00 
3.050000000000e-01 1.000000000000e+00 1.227217038571e-01 1.227217038571e-01 9.999999975403e-10 9.999999975403e-10 9.909703055512e+00 -4.268604943807e+00 5.741200000000e-02 0.000000000000e+00 
3.100000000000e-01 1.000000000000e+00 1.227217038571e-01 1.227217038571e-01 9.999999975403e-10 9.999999975403e-10 9.909703055512e+00 -4.268604943807e+00 5.741200000000e-02 0.000000000000e+00 
3.150000000000e-01 1.000000000000e+00 1.227217038571e-01 1.227217038571e-01 9.999999975403e-10 9.999999975403e-10 9.909703055512e+00 -4.268604943807e+00 5.741200000000e-02 0.000000000000e+00 
3.200000000000e-01 1.000000000000e+00 1.227217038571e-01 1.227217038571e-01 9.999999975403e-10 9.999999975403e-10 9.909703055512e+00 -4.268604943807e+00 5.741200000000e-02 0.000000000000e+00 
3.250000000000e-01 1.000000000000e+00 1.227217038571e-01 1.227217038571e-01 9.999999975403e-10 9.999999975403e-10 9.909703055512e+00 -4.268604943807e+00 5.741200000000e-02 0.000000000000e+00 
3.300000000000e-01 1.000000000000e+00 1.227217038571e-01 1.227217038571e-01 9.999999975403e-10 9.999999975403e-10 9.909703055512e+00 -4.268604943807e+00 5.741200000000e-02 0.000000000000e+00 
3.350000000000e-01 1.000000000000e+00 1.227217038571e-01 1.227217038571e-01 9.999999975403e-10 9.999999975403e-10 9.909703055512e+00 -4.268604943807e+00 5.741200000000e-02 0.000000000000e+00 
3.400000000000e-01 1.000000000000e+00 1.227217038571e-01 1.227217038571e-01 9.999999975403e-10 9.999999975403e-10 9.909703055512e+00 -4.268604943807e+00 5.741200000000e-02 0.000000000000e+00 
3.450000000000e-01 1.000000000000e+00 1.227217038571e-01 1.227217038571e-01 9.999999975403e-10 9.999999975403e-10 9.909703055512e+00 -4.268604943807e+00 5.741200000000e-02 0.000000000000e+00 
3.500000000000e-01 1.000000000000e+00 1.227217038571e-01 1.227217038571e-01 9.999999975403e-10 9.999999975403e-10 9.909703055512e+00 -4.268604943807e+00 5.741200000000e-02 0.000000000000e+00 
3.550000000000e-01 1.000000000000e+00 1.227217038571e-01 1.227217038571e-01 9.999999975403e-10 9.999999975403e-10 9.909703055512e+00 -4.268604943807e+00 5.741200000000e-02 0.000000000000e+00 
3.600000000000e-01 1.000000000000e+00 1.227217038571e-01 1.227217038571e-01 9.999999975403e-10 9.999999975403e-10 9.909703055512e+00 -4.268604943807e+00 5.741200000000e-02 0.000000000000e+00 
3.650000000000e-01 1.000000000000e+00 1.227217038571e-01 1.227217038571e-01 9.999999975403e-10 9.999999975403e-10 9.909703055512e+00 -4.268604943807e+00 5.741200000000e-02 0.000000000000e+00 
3.700000000000e-01 1.000000000000e+00 1.227217038571e-01 1.227217038571e-01 9.999999975403e-10 9.999999975403e-10 9.909703055512e+00 -4.268604943807e+00 5.741200000000e-02 0.000000000000e+00 
3.750000000000e-01 1.000000000000e+00 1.227217038571e-01 1.227217038571e-01 9.999999975403e-10 9.999999975403e-10 9.909703055512e+00 -4.268604943807e+00 5.741200000000e-02 0.000000000000e+00 
3.800000000000e-01 1.000000000000e+00 1.227217038571e-01 1.227217038571e-01 9.999999975403e-10 9.999999975403e-10 9.909703055512e+00 -4.268604943807e+00 5.741200000000e-02 0.000000000000e+00 
3.850000000000e-01 1.000000000000e+00 1.227217038571e-01 1.227217038571e-01 9.999999975403e-10 9.999999975403e-10 9.909703055512e+00 -4.268604943807e+00 5.741200000000e-02 0.000000000000e+00 
3.900000000000e-01 1.000000000000e+00 1.227217038571e-01 1.227217038571e-01 9.999999975403e-10 9.999999975403e-10 9.909703055512e+00 -4.268604943807e+00 5.741200000000e-02 0.000000000000e+00 
3.950000000000e-01 1.000000000000e+00 1.227217038571e-01 1.227217038571e-01 9.999999975403e-10 9.999999975403e-10 9.909703055512e+00 -4.268604943807e+00 5.741200000000e-02 0.000000000000e+00 
4.000000000000e-01 1.000000000000e+00 1.227217038571e-01 1.227217038571e-01 9.999999975403e-10 9.999999975403e-10 9.909703055512e+00 -4.268604943807e+00 5.741200000000e-02 0.000000000000e+00 
4.050000000000e-01 1.000000000000e+00 1.227217038571e-01 1.227217038571e-01 9.999999975403e-10 9.999999975403e-10 9.909703055512e+00 -4.268604943807e+00 5.741200000000e-02 0.000000000000e+00 
4.100000000000e-01 1.000000000000e+00 1.227217038571e-01 1.227217038571e-01 9.999999975403e-10 9.999999975403e-10 9.909703055512e+00 -4.268604943807e+00 5.741200000000e-02 0.000000000000e+00 
4.150000000000e-01 1.000000000000e+00 1.227217038571e-01 1.227217038571e-01 9.999999975403e-10 9.999999975403e-10 9.909703055512e+00 -4.268604943807e+00 5.741200000000e-02 0.000000000000e+00 
4.200000000000e-01 1.000000000000e+00 1.227217038571e-01 1.227217038571e-01 9.999999975403e-10 9.999999975403e-10 9.909703055512e+00 -4.268604943807e+00 5.741200000000e-02 0.000000000000e+00 
4.250000000000e-01 1.000000000000e+00 1.227217038571e-01 1.227217038571e-01 9.999999975403e-10 9.999999975403e-10 9.909703055512e+00 -4.268604943807e+00 5.741200000000e-02 0.000000000000e+00 
4.300000000000e-01 1.000000000000e+00 1.227217038571e-01 1.227217038571e-01 9.999999975403e-10 9.999999975403e-10 9.909703055512e+00 -4.268604943807e+00 5.741200000000e-02 0.000000000000e+00 
4.350000000000e-01 1.000000000000e+00 1.227217038571e-01 1.227217038571e-01 9.999999975403e-10 9.999999975403e-10 9.909703055512e+00 -4.268604943807e+00 5.741200000000e-02 0.000000000000e+00 
4.400000000000e-01 1.000000000000e+00 1.227217038571e-01 1.227217038571e-01 9.999999975403e-10 9.999999975403e-10 9.909703055512e+00 -4.268604943807e+00 5.741200000000e-02 0.000000000000e+00 
4.450000000000e-01 1.000000000000e+00 1.227217038571e-01 1.227217038571e-01 9.999999975403e-10 9.999999975403e-10 9.909703055512e+00 -4.268604943807e+00 5.741200000000e-02 0.000000000000e+00 
4.500000000000e-01 1.000000000000e+00 1.227217038571e-01 1.227217038571e-01 9.999999975403e-10 9.999999975403e-10 9.909703055512e+00 -4.268604943807e+00 5.741200000000e-02 0.000000000000e+00 
4.550000000000e-01 1.000000000000e+00 1.227217038571e-01 1.227217038571e-01 9.999999975403e-10 9.999999975403e-10 9.909703055512e+00 -4.268604943807e+00 5.741200000000e-02 0.000000000000e+00 
4.600000000000e-01 1.000000000000e+00 1.227217038571e-01 1.227217038571e-01 9.999999975403e-10 9.999999975403e-10 9.909703055512e+00 -4.268604943807e+00 5.741200000000e-02 0.000000000000e+00 
4.650000000000e-01 1.000000000000e+00 1.227217038571e-01 1.227217038571e-01 9.999999975403e-10 9.999999975403e-10 9.909703055512e+00 -4.268604943807e+00 5.741200000000e-02 0.000000000000e+00 
4.700000000000e-01 1.000000000000e+00 1.227217038571e-01 1.227217038571e-01 9.999999975403e-10 9.999999975403e-10 9.909703055512e+00 -4.268604943807e+00 5.741200000000e-02 0.000000000000e+00 
4.750000000000e-01 1.000000000000e+00 1.227217038571e-01 1.227217038571e-01 9.999999975403e-10 9.999999975403e-10 9.909703055512e+00 -4.268604943807e+00 5.741200000000e-02 0.000000000000e+00 
4.800000000000e-01 1.000000000000e+00 1.227217038571e-01 1.227217038571e-01 9.999999975403e-10 9.999999975403e-10 9.909703055512e+00 -4.268604943807e+00 5.741200000000e-02 0.000000000000e+00 
4.850000000000e-01 1.000000000000e+00 1.227217038571e-01 1.227217038571e-01 9.999999975403e-10 9.999999975403e-10 9.909703055512e+00 -4.268604943807e+00 5.741200000000e-02 0.000000000000e+00 
4.900000000000e-01 1.000000000000e+00 1.227217038571e-01 1.227217038571e-01 9.999999975403e-10 9.999999975403e-10 9.909703055512e+00 -4.268604943807e+00 5.741200000000e-02 0.000000000000e+00 
4.950000000000e-01 1.000000000000e+00 1.227217038571e-01 1.227217038571e-01 9.999999975403e-10 9.999999975403e-10 9.909703055512e+00 -4.268604943807e+00 5.741200000000e-02 0.000000000000e+00 
5.000000000000e-01 1.000000000000e+00 1.227217038571e-01 1.227217038571e-01 9.999999975403e-10 9.999999975403e-10 9.909703055512e+00 -4.268604943807e+00 5.741200000000e-02 0.000000000000e+00 
 TITLE = "Profiles along polylines"
 VARIABLES = "DIST" "HEAD" "C(4)" "Ca" "Mg" "Cl" "pH" "pe" "Calcite" "Dolomite(dis)" 
 ZONE T="TIME=1.000000000000e+02"
0.000000000000e+00 1.000000000000e+05 1.220000413339e-01 1.220007731782e-01 1.000001419487e+00 2.000002838973e+00 9.763295334283e+00 -6.515770251126e+00 0.000000000000e+00 0.000000000000e+00 
5.000000000000e-03 8.704543993084e+04 1.230337768495e-01 1.230337768495e-01 6.207585944514e-03 1.241517089524e-02 9.909164960398e+00 -4.411408890841e+00 5.690664630706e-02 0.000000000000e+00 
1.000000000000e-02 7.409087986168e+04 1.227236554700e-01 1.227236554700e-01 3.853511015168e-05 7.706922034189e-05 9.909699713077e+00 -4.368340470383e+00 5.740885620075e-02 0.000000000000e+00 
1.500000000000e-02 6.113631979252e+04 1.227217159725e-01 1.227217159725e-01 2.402037605949e-07 4.794075214315e-07 9.909703034763e+00 -3.932339735999e+00 5.741198048428e-02 0.000000000000e+00 
2.000000000000e-02 4.818175972336e+04 1.227217039323e-01 1.227217039323e-01 2.484877752869e-09 3.969755509683e-09 9.909703055383e+00 -4.487900987969e+00 5.741199987887e-02 0.000000000000e+00 
2.500000000000e-02 3.522719965420e+04 1.227217038576e-01 1.227217038576e-01 1.009217439794e-09 1.018434882056e-09 9.909703055511e+00 -4.680995264768e+00 5.741199999925e-02 0.000000000000e+00 
3.000000000000e-02 2.227263958504e+04 1.227217038571e-01 1.227217038571e-01 1.000057210513e-09 1.000114423487e-09 9.909703055512e+00 -4.457448036523e+00 5.741200000000e-02 0.000000000000e+00 
3.500000000000e-02 9.318079515885e+03 1.227217038571e-01 1.227217038571e-01 1.000000354517e-09 1.000000711495e-09 9.909703055512e+00 -4.457447638435e+00 5.741200000000e-02 0.000000000000e+00 
4.000000000000e-02 -3.636480553274e+03 1.227217038571e-01 1.227217038571e-01 9.999999998067e-10 1.000000002073e-09 9.909703055512e+00 -4.457485456815e+00 5.741200000000e-02 0.000000000000e+00 
4.500000000000e-02 -1.659104062243e+04 1.227217038571e-01 1.227217038571e-01 9.999999975403e-10 9.999999975403e-10 9.909703055512e+00 -4.457485456815e+00 5.741200000000e-02 0.000000000000e+00 
5.000000000000e-02 -2.954560069159e+04 1.227217038571e-01 1.227217038571e-01 9.999999975403e-10 9.999999975403e-10 9.909703055512e+00 -4.457485456815e+00 5.741200000000e-02 0.000000000000e+00 
5.500000000000e-02 -4.250016076075e+04 1.227217038571e-01 1.227217038571e-01 9.999999975403e-10 9.999999975403e-10 9.909703055512e+00 -4.457485456815e+00 5.741200000000e-02 0.000000000000e+00 
6.000000000000e-02 -5.545472082991e+04 1.227217038571e-01 1.227217038571e-01 9.999999975403e-10 9.999999975403e-10 9.909703055512e+00 -4.457485456815e+00 5.741200000000e-02 0.000000000000e+00 
6.500000000000e-02 -6.840928089907e+04 1.227217038571e-01 1.227217038571e-01 9.999999975403e-10 9.999999975403e-10 9.909703055512e+00 -4.457485456815e+00 5.741200000000e-02 0.000000000000e+00 
7.000000000000e-02 -8.136384096823e+04 1.227217038571e-01 1.227217038571e-01 9.999999975403e-10 9.999999975403e-10 9.909703055512e+00 -4.457485456815e+00 5.741200000000e-02 0.000000000000e+00 
7.500000000000e-02 -9.431840103739e+04 1.227217038571e-01 1.227217038571e-01 9.999999975403e-10 9.999999975403e-10 9.909703055512e+00 -4.457485456815e+00 5.741200000000e-02 0.000000000000e+00 
8.000000000000e-02 -1.072729611065e+05 1.227217038571e-01 1.227217038571e-01 9.999999975403e-10 9.999999975403e-10 9.909703055512e+00 -4.457485456815e+00 5.741200000000e-02 0.000000000000e+00 
8.500000000000e-02 -1.202275211757e+05 1.227217038571e-01 1.227217038571e-01 9.999999975403e-10 9.999999975403e-10 9.909703055512e+00 -4.457485456815e+00 5.741200000000e-02 0.000000000000e+00 
9.000000000000e-02 -1.331820812449e+05 1.227217038571e-01 1.227217038571e-01 9.999999975403e-10 9.999999975403e-10 9.909703055512e+00 -4.457485456815e+00 5.741200000000e-02 0.000000000000e+00 
9.500000000000e-02 -1.461366413140e+05 1.227217038571e-01 1.227217038571e-01 9.999999975403e-10 9.999999975403e-10 9.909703055512e+00 -4.457485456815e+00 5.741200000000e-02 0.000000000000e+00 
1.000000000000e-01 -1.590912013832e+05 1.227217038571e-01 1.227217038571e-01 9.999999975403e-10 9.999999975403e-10 9.909703055512e+00 -4.457485456815e+00 5.741200000000e-02 0.000000000000e+00 
1.050000000000e-01 -1.720457614523e+05 1.227217038571e-01 1.227217038571e-01 9.999999975403e-10 9.999999975403e-10 9.909703055512e+00 -4.457485456815e+00 5.741200000000e-02 0.000000000000e+00 
1.100000000000e-01 -1.850003215215e+05 1.227217038571e-01 1.227217038571e-01 9.999999975403e-10 9.999999975403e-10 9.909703055512e+00 -4.457485456815e+00 5.741200000000e-02 0.000000000000e+00 
1.150000000000e-01 -1.979548815906e+05 1.227217038571e-01 1.227217038571e-01 9.999999975403e-10 9.999999975403e-10 9.909703055512e+00 -4.457485456815e+00 5.741200000000e-02 0.000000000000e+00 
1.200000000000e-01 -2.109094416598e+05 1.227217038571e-01 1.227217038571e-01 9.999999975403e-10 9.999999975403e-10 9.909703055512e+00 -4.457485456815e+00 5.741200000000e-02 0.000000000000e+00 
1.250000000000e-01 -2.238640017290e+05 1.227217038571e-01 1.227217038571e-01 9.999999975403e-10 9.999999975403e-10 9.909703055512e+00 -4.457485456815e+00 5.741200000000e-02 0.000000000000e+00 
1.300000000000e-01 -2.368185617981e+05 1.227217038571e-01 1.227217038571e-01 9.999999975403e-10 9.999999975403e-10 9.909703055512e+00 -4.457485456815e+00 5.741200000000e-02 0.000000000000e+00 
1.350000000000e-01 -2.497731218673e+05 1.227217038571e-01 1.227217038571e-01 9.999999975403e-10 9.999999975403e-10 9.909703055512e+00 -4.457485456815e+00 5.741200000000e-02 0.000000000000e+00 
1.400000000000e-01 -2.627276819364e+05 1.227217038571e-01 1.227217038571e-01 9.999999975403e-10 9.999999975403e-10 9.909703055512e+00 -4.457485456815e+00 5.741200000000e-02 0.000000000000e+00 
1.450000000000e-01 -2.756822420056e+05 1.227217038571e-01 1.227217038571e-01 9.999999975403e-10 9.999999975403e-10 9.909703055512e+00 -4.457485456815e+00 5.741200000000e-02 0.000000000000e+00 
1.500000000000e-01 -2.886368020747e+05 1.227217038571e-01 1.227217038571e-01 9.999999975403e-10 9.999999975403e-10 9.909703055512e+00 -4.457485456815e+00 5.741200000000e-02 0.000000000000e+00 
1.550000000000e-01 -3.015913621439e+05 1.227217038571e-01 1.227217038571e-01 9.999999975403e-10 9.999999975403e-10 9.909703055512e+00 -4.457485456815e+00 5.741200000000e-02 0.000000000000e+00 
1.600000000000e-01 -3.145459222131e+05 1.227217038571e-01 1.227217038571e-01 9.999999975403e-10 9.999999975403e-10 9.909703055512e+00 -4.457485456815e+00 5.741200000000e-02 0.000000000000e+00 
1.650000000000e-01 -3.275004822822e+05 1.227217038571e-01 1.227217038571e-01 9.999999975403e-10 9.999999975403e-10 9.909703055512e+00 -4.457485456815e+00 5.741200000000e-02 0.000000000000e+00 
1.700000000000e-01 -3.404550423514e+05 1.227217038571e-01 1.227217038571e-01 9.999999975403e-10 9.999999975403e-10 9.909703055512e+00 -4.457485456815e+00 5.741200000000e-02 0.000000000000e+00 
1.750000000000e-01 -3.534096024205e+05 1.227217038571e-01 1.227217038571e-01 9.999999975403e-10 9.999999975403e-10 9.909703055512e+00 -4.457485456815e+00 5.741200000000e-02 0.000000000000e+00 
1.800000000000e-01 -3.663641624897e+05 1.227217038571e-01 1.227217038571e-01 9.999999975403e-10 9.999999975403e-10 9.909703055512e+00 -4.457485456815e+00 5.741200000000e-02 0.000000000000e+00 
1.850000000000e-01 -3.793187225588e+05 1.227217038571e-01 1.227217038571e-01 9.999999975403e-10 9.999999975403e-10 9.909703055512e+00 -4.457485456815e+00 5.741200000000e-02 0.000000000000e+00 
1.900000000000e-01 -3.922732826280e+05 1.227217038571e-01 1.227217038571e-01 9.999999975403e-10 9.999999975403e-10 9.909703055512e+00 -4.457485456815e+00 5.741200000000e-02 0.000000000000e+00 
1.950000000000e-01 -4.052278426971e+05 1.227217038571e-01 1.227217038571e-01 9.999999975403e-10 9.999999975403e-10 9.909703055512e+00 -4.457485456815e+00 5.741200000000e-02 0.000000000000e+00 
2.000000000000e-01 -4.181824027663e+05 1.227217038571e-01 1.227217038571e-01 9.999999975403e-10 9.999999975403e-10 9.909703055512e+00 -4.457485456815e+00 5.741200000000e-02 0.000000000000e+00 
2.050000000000e-01 -4.311369628355e+05 1.227217038571e-01 1.227217038571e-01 9.999999975403e-10 9.999999975403e-10 9.909703055512e+00 -4.457485456815e+00 5.741200000000e-02 0.000000000000e+00 
2.100000000000e-01 -4.440915229046e+05 1.227217038571e-01 1.227217038571e-01 9.999999975403e-10 9.999999975403e-10 9.909703055512e+00 -4.457485456815e+00 5.741200000000e-02 0.000000000000e+00 
2.150000000000e-01 -4.570460829738e+05 1.227217038571e-01 1.227217038571e-01 9.999999975403e-10 9.999999975403e-10 9.909703055512e+00 -4.457485456815e+00 5.741200000000e-02 0.000000000000e+00 
2.200000000000e-01 -4.700006430429e+05 1.227217038571e-01 1.227217038571e-01 9.999999975403e-10 9.999999975403e-10 9.909703055512e+00 -4.457485456815e+00 5.741200000000e-02 0.000000000000e+00 
2.250000000000e-01 -4.829552031121e+05 1.227217038571e-01 1.227217038571e-01 9.999999975403e-10 9.999999975403e-10 9.909703055512e+00 -4.457485456815e+00 5.741200000000e-02 0.000000000000e+00 
2.300000000000e-01 -4.959097631812e+05 1.227217038571e-01 1.227217038571e-01 9.999999975403e-10 9.999999975403e-10 9.909703055512e+00 -4.457485456815e+00 5.741200000000e-02 0.000000000000e+00 
2.350000000000e-01 -5.088643232504e+05 1.227217038571e-01 1.227217038571e-01 9.999999975403e-10 9.999999975403e-10 9.909703055512e+00 -4.457485456815e+00 5.741200000000e-02 0.000000000000e+00 
2.400000000000e-01 -5.218188833195e+05 1.227217038571e-01 1.227217038571e-01 9.999999975403e-10 9.999999975403e-10 9.909703055512e+00 -4.457485456815e+00 5.741200000000e-02 0.000000000000e+00 
2.450000000000e-01 -5.347734433887e+05 1.227217038571e-01 1.227217038571e-01 9.999999975403e-10 9.999999975403e-10 9.909703055512e+00 -4.457485456815e+00 5.741200000000e-02 0.000000000000e+00 
2.500000000000e-01 -5.477280034578e+05 1.227217038571e-01 1.227217038571e-01 9.999999975403e-10 9.999999975403e-10 9.909703055512e+00 -4.457485456815e+00 5.741200000000e-02 0.000000000000e+00 
2.550000000000e-01 -5.606825635270e+05 1.227217038571e-01 1.227217038571e-01 9.999999975403e-10 9.999999975403e-10 9.909703055512e+00 -4.457485456815e+00 5.741200000000e-02 0.000000000000e+00 
2.600000000000e-01 -5.736371235961e+05 1.227217038571e-01 1.227217038571e-01 9.999999975403e-10 9.999999975403e-10 9.909703055512e+00 -4.457485456815e+00 5.741200000000e-02 0.000000000000e+00 