 TITLE = "Time curves in points"
 VARIABLES = "TIME "  "HEAD" 
 ZONE T="POINT=POINTOBS"
0.000000000000e+00 0.000000000000e+00 
1.000000000000e-05 -1.555530158303e-05 
2.000000000000e-05 -1.085436804021e-04 
3.000000000000e-05 -4.077505610615e-04 
4.000000000000e-05 -1.100286813130e-03 
5.000000000000e-05 -2.399047074436e-03 
6.000000000000e-05 -4.504615943844e-03 
7.000000000000e-05 -7.576716128786e-03 
8.000000000000e-05 -1.172059051171e-02 
9.000000000000e-05 -1.698630640838e-02 
1.000000000000e-04 -2.337610781667e-02 
1.900000000000e-04 -1.291823067687e-01 
2.800000000000e-04 -2.536294117777e-01 
3.700000000000e-04 -3.813726324475e-01 
4.600000000000e-04 -5.054408236285e-01 
5.500000000000e-04 -6.230583463621e-01 
6.400000000000e-04 -7.334194243856e-01 
7.300000000000e-04 -8.365991225730e-01 
8.200000000000e-04 -9.330370719172e-01 
9.100000000000e-04 -1.023297016211e+00 
1.000000000000e-03 -1.107957562536e+00 
1.900000000000e-03 -1.672056634059e+00 
2.800000000000e-03 -2.080652285413e+00 
3.700000000000e-03 -2.395658992675e+00 
4.600000000000e-03 -2.649855108169e+00 
5.500000000000e-03 -2.862011226519e+00 
6.400000000000e-03 -3.043634185412e+00 
7.300000000000e-03 -3.202192552081e+00 
8.200000000000e-03 -3.342768942895e+00 
9.100000000000e-03 -3.468960856983e+00 
1.000000000000e-02 -3.583399480114e+00 
1.900000000000e-02 -4.268324298962e+00 
2.800000000000e-02 -4.735575696667e+00 
3.700000000000e-02 -5.083302403917e+00 
4.600000000000e-02 -5.357763242588e+00 
5.500000000000e-02 -5.583492160317e+00 
6.400000000000e-02 -5.774759810350e+00 
7.300000000000e-02 -5.940490264091e+00 
8.200000000000e-02 -6.086593324308e+00 
9.100000000000e-02 -6.217166772851e+00 
1.000000000000e-01 -6.335160267545e+00 
1.900000000000e-01 -7.033739349307e+00 
2.800000000000e-01 -7.507386634024e+00 
3.700000000000e-01 -7.858599984988e+00 
4.600000000000e-01 -8.135187884721e+00 
5.500000000000e-01 -8.362326510298e+00 
6.400000000000e-01 -8.554587137961e+00 
7.300000000000e-01 -8.721048467030e+00 
8.200000000000e-01 -8.867705331849e+00 
9.100000000000e-01 -8.998703966407e+00 
1.000000000000e+00 -9.117021427697e+00 
1.900000000000e+00 -9.803761280440e+00 
2.800000000000e+00 -1.024527499410e+01 
3.700000000000e+00 -1.054379159843e+01 
4.600000000000e+00 -1.075039045759e+01 
5.500000000000e+00 -1.089488681232e+01 
6.400000000000e+00 -1.099642349166e+01 
7.300000000000e+00 -1.106792137483e+01 
8.200000000000e+00 -1.111831366389e+01 
9.100000000000e+00 -1.115384507474e+01 
1.000000000000e+01 -1.117890267106e+01 
