VARIABLES  = "X","Y","Z", "DISPLACEMENT_X1", "DISPLACEMENT_Y1", "DISPLACEMENT_Z1", "STRESS_XX", "STRESS_XY", "STRESS_XZ", "STRESS_YY", "STRESS_YZ", "STRESS_ZZ", "STRAIN_XX", "STRAIN_XY", "STRAIN_XZ", "STRAIN_YY", "STRAIN_YZ", "STRAIN_ZZ"
ZONE T="0.000000000000e+00s", N=1407, E=1050, F=FEPOINT, ET=BRICK
STRANDID=1, SOLUTIONTIME=0.000000000000e+00
7.070000000000e-02 0.000000000000e+00 1.410000000000e-02 0.000000000000e+00 0.000000000000e+00 0.000000000000e+00 -1.200000000000e+07 0.000000000000e+00 0.000000000000e+00 -1.200000000000e+07 0.000000000000e+00 -1.200000000000e+07 0.000000000000e+00 0.000000000000e+00 0.000000000000e+00 0.000000000000e+00 0.000000000000e+00 0.000000000000e+00 
7.070000000000e-02 0.000000000000e+00 -5.000000000000e-05 0.000000000000e+00 0.000000000000e+00 0.000000000000e+00 -1.200000000000e+07 0.000000000000e+00 0.000000000000e+00 -1.200000000000e+07 0.000000000000e+00 -1.200000000000e+07 0.000000000000e+00 0.000000000000e+00 0.000000000000e+00 0.000000000000e+00 0.000000000000e+00 0.000000000000e+00 
1.138000000000e-01 0.000000000000e+00 -3.333333333333e-05 0.000000000000e+00 0.000000000000e+00 0.000000000000e+00 -1.200000000000e+07 0.000000000000e+00 0.000000000000e+00 -1.200000000000e+07 0.000000000000e+00 -1.200000000000e+07 0.000000000000e+00 0.000000000000e+00 0.000000000000e+00 0.000000000000e+00 0.000000000000e+00 0.000000000000e+00 
1.129666666667e-01 0.000000000000e+00 1.980000000000e-02 0.000000000000e+00 0.000000000000e+00 0.000000000000e+00 -1.200000000000e+07 0.000000000000e+00 0.000000000000e+00 -1.200000000000e+07 0.000000000000e+00 -1.200000000000e+07 0.000000000000e+00 0.000000000000e+00 0.000000000000e+00 0.000000000000e+00 0.000000000000e+00 0.000000000000e+00 
1.569000000000e-01 0.000000000000e+00 -1.666666666667e-05 0.000000000000e+00 0.000000000000e+00 0.000000000000e+00 -1.200000000000e+07 0.000000000000e+00 0.000000000000e+00 -1.200000000000e+07 0.000000000000e+00 -1.200000000000e+07 0.000000000000e+00 0.000000000000e+00 0.000000000000e+00 0.000000000000e+00 0.000000000000e+00 0.000000000000e+00 
1.552333333333e-01 0.000000000000e+00 2.550000000000e-02 0.000000000000e+00 0.000000000000e+00 0.000000000000e+00 -1.200000000000e+07 0.000000000000e+00 0.000000000000e+00 -1.200000000000e+07 0.000000000000e+00 -1.200000000000e+07 0.000000000000e+00 0.000000000000e+00 0.000000000000e+00 0.000000000000e+00 0.000000000000e+00 0.000000000000e+00 
2.000000000000e-01 0.000000000000e+00 0.000000000000e+00 0.000000000000e+00 0.000000000000e+00 0.000000000000e+00 -1.200000000000e+07 0.000000000000e+00 0.000000000000e+00 -1.200000000000e+07 0.000000000000e+00 -1.200000000000e+07 0.000000000000e+00 0.000000000000e+00 0.000000000000e+00 0.000000000000e+00 0.000000000000e+00 0.000000000000e+00 
1.975000000000e-01 0.000000000000e+00 3.120000000000e-02 0.000000000000e+00 0.000000000000e+00 0.000000000000e+00 -1.200000000000e+07 0.000000000000e+00 0.000000000000e+00 -1.200000000000e+07 0.000000000000e+00 -1.200000000000e+07 0.000000000000e+00 0.000000000000e+00 0.000000000000e+00 0.000000000000e+00 0.000000000000e+00 0.000000000000e+00 
7.070000000000e-02 0.000000000000e+00 2.825000000000e-02 0.000000000000e+00 0.000000000000e+00 0.000000000000e+00 -1.200000000000e+07 0.000000000000e+00 0.000000000000e+00 -1.200000000000e+07 0.000000000000e+00 -1.200000000000e+07 0.000000000000e+00 0.000000000000e+00 0.000000000000e+00 0.000000000000e+00 0.000000000000e+00 0.000000000000e+00 
1.105333333333e-01 0.000000000000e+00 3.943333333333e-02 0.000000000000e+00 0.000000000000e+00 0.000000000000e+00 -1.200000000000e+07 0.000000000000e+00 0.000000000000e+00 -1.200000000000e+07 0.000000000000e+00 -1.200000000000e+07 0.000000000000e+00 0.000000000000e+00 0.000000000000e+00 0.000000000000e+00 0.000000000000e+00 0.000000000000e+00 
1.503666666667e-01 0.000000000000e+00 5.061666666667e-02 0.000000000000e+00 0.000000000000e+00 0.000000000000e+00 -1.200000000000e+07 0.000000000000e+00 0.000000000000e+00 -1.200000000000e+07 0.000000000000e+00 -1.200000000000e+07 0.000000000000e+00 0.000000000000e+00 0.000000000000e+00 0.000000000000e+00 0.000000000000e+00 0.000000000000e+00 
1.902000000000e-01 0.000000000000e+00 6.180000000000e-02 0.000000000000e+00 0.000000000000e+00 0.000000000000e+00 -1.200000000000e+07 0.000000000000e+00 0.000000000000e+00 -1.200000000000e+07 0.000000000000e+00 -1.200000000000e+07 0.000000000000e+00 0.000000000000e+00 0.000000000000e+00 0.000000000000e+00 0.000000000000e+00 0.000000000000e+00 
7.070000000000e-02 0.000000000000e+00 4.240000000000e-02 0.000000000000e+00 0.000000000000e+00 0.000000000000e+00 -1.200000000000e+07 0.000000000000e+00 0.000000000000e+00 -1.200000000000e+07 0.000000000000e+00 -1.200000000000e+07 0.000000000000e+00 0.000000000000e+00 0.000000000000e+00 0.000000000000e+00 0.000000000000e+00 0.000000000000e+00 
1.065333333333e-01 0.000000000000e+00 5.850000000000e-02 0.000000000000e+00 0.000000000000e+00 0.000000000000e+00 -1.200000000000e+07 0.000000000000e+00 0.000000000000e+00 -1.200000000000e+07 0.000000000000e+00 -1.200000000000e+07 0.000000000000e+00 0.000000000000e+00 0.000000000000e+00 0.000000000000e+00 0.000000000000e+00 0.000000000000e+00 
1.423666666667e-01 0.000000000000e+00 7.460000000000e-02 0.000000000000e+00 0.000000000000e+00 0.000000000000e+00 -1.200000000000e+07 0.000000000000e+00 0.000000000000e+00 -1.200000000000e+07 0.000000000000e+00 -1.200000000000e+07 0.000000000000e+00 0.000000000000e+00 0.000000000000e+00 0.000000000000e+00 0.000000000000e+00 0.000000000000e+00 
1.782000000000e-01 0.000000000000e+00 9.070000000000e-02 0.000000000000e+00 0.000000000000e+00 0.000000000000e+00 -1.200000000000e+07 0.000000000000e+00 0.000000000000e+00 -1.200000000000e+07 0.000000000000e+00 -1.200000000000e+07 0.000000000000e+00 0.000000000000e+00 0.000000000000e+00 0.000000000000e+00 0.000000000000e+00 0.000000000000e+00 
7.070000000000e-02 0.000000000000e+00 5.655000000000e-02 0.000000000000e+00 0.000000000000e+00 0.000000000000e+00 -1.200000000000e+07 0.000000000000e+00 0.000000000000e+00 -1.200000000000e+07 0.000000000000e+00 -1.200000000000e+07 0.000000000000e+00 0.000000000000e+00 0.000000000000e+00 0.000000000000e+00 0.000000000000e+00 0.000000000000e+00 
1.010666666667e-01 0.000000000000e+00 7.686666666667e-02 0.000000000000e+00 0.000000000000e+00 0.000000000000e+00 -1.200000000000e+07 0.000000000000e+00 0.000000000000e+00 -1.200000000000e+07 0.000000000000e+00 -1.200000000000e+07 0.000000000000e+00 0.000000000000e+00 0.000000000000e+00 0.000000000000e+00 0.000000000000e+00 0.000000000000e+00 
1.314333333333e-01 0.000000000000e+00 9.718333333333e-02 0.000000000000e+00 0.000000000000e+00 0.000000000000e+00 -1.200000000000e+07 0.000000000000e+00 0.000000000000e+00 -1.200000000000e+07 0.000000000000e+00 -1.200000000000e+07 0.000000000000e+00 0.000000000000e+00 0.000000000000e+00 0.000000000000e+00 0.000000000000e+00 0.000000000000e+00 
1.618000000000e-01 0.000000000000e+00 1.175000000000e-01 0.000000000000e+00 0.000000000000e+00 0.000000000000e+00 -1.200000000000e+07 0.000000000000e+00 0.000000000000e+00 -1.200000000000e+07 0.000000000000e+00 -1.200000000000e+07 0.000000000000e+00 0.000000000000e+00 0.000000000000e+00 0.000000000000e+00 0.000000000000e+00 0.000000000000e+00 
7.070000000000e-02 0.000000000000e+00 7.070000000000e-02 0.000000000000e+00 0.000000000000e+00 0.000000000000e+00 -1.200000000000e+07 0.000000000000e+00 0.000000000000e+00 -1.200000000000e+07 0.000000000000e+00 -1.200000000000e+07 0.000000000000e+00 0.000000000000e+00 0.000000000000e+00 0.000000000000e+00 0.000000000000e+00 0.000000000000e+00 
9.426666666667e-02 0.000000000000e+00 9.426666666667e-02 0.000000000000e+00 0.000000000000e+00 0.000000000000e+00 -1.200000000000e+07 0.000000000000e+00 0.000000000000e+00 -1.200000000000e+07 0.000000000000e+00 -1.200000000000e+07 0.000000000000e+00 0.000000000000e+00 0.000000000000e+00 0.000000000000e+00 0.000000000000e+00 0.000000000000e+00 
1.178333333333e-01 0.000000000000e+00 1.178333333333e-01 0.000000000000e+00 0.000000000000e+00 0.000000000000e+00 -1.200000000000e+07 0.000000000000e+00 0.000000000000e+00 -1.200000000000e+07 0.000000000000e+00 -1.200000000000e+07 0.000000000000e+00 0.000000000000e+00 0.000000000000e+00 0.000000000000e+00 0.000000000000e+00 0.000000000000e+00 
1.414000000000e-01 0.000000000000e+00 1.414000000000e-01 0.000000000000e+00 0.000000000000e+00 0.000000000000e+00 -1.200000000000e+07 0.000000000000e+00 0.000000000000e+00 -1.200000000000e+07 0.000000000000e+00 -1.200000000000e+07 0.000000000000e+00 0.000000000000e+00 0.000000000000e+00 0.000000000000e+00 0.000000000000e+00 0.000000000000e+00 
5.655000000000e-02 0.000000000000e+00 7.070000000000e-02 0.000000000000e+00 0.000000000000e+00 0.000000000000e+00 -1.200000000000e+07 0.000000000000e+00 0.000000000000e+00 -1.200000000000e+07 0.000000000000e+00 -1.200000000000e+07 0.000000000000e+00 0.000000000000e+00 0.000000000000e+00 0.000000000000e+00 0.000000000000e+00 0.000000000000e+00 
7.686666666667e-02 0.000000000000e+00 1.010666666667e-01 0.000000000000e+00 0.000000000000e+00 0.000000000000e+00 -1.200000000000e+07 0.000000000000e+00 0.000000000000e+00 -1.200000000000e+07 0.000000000000e+00 -1.200000000000e+07 0.000000000000e+00 0.000000000000e+00 0.000000000000e+00 0.000000000000e+00 0.000000000000e+00 0.000000000000e+00 
9.718333333333e-02 0.000000000000e+00 1.314333333333e-01 0.000000000000e+00 0.000000000000e+00 0.000000000000e+00 -1.200000000000e+07 0.000000000000e+00 0.000000000000e+00 -1.200000000000e+07 0.000000000000e+00 -1.200000000000e+07 0.000000000000e+00 0.000000000000e+00 0.000000000000e+00 0.000000000000e+00 0.000000000000e+00 0.000000000000e+00 
1.175000000000e-01 0.000000000000e+00 1.618000000000e-01 0.000000000000e+00 0.000000000000e+00 0.000000000000e+00 -1.200000000000e+07 0.000000000000e+00 0.000000000000e+00 -1.200000000000e+07 0.000000000000e+00 -1.200000000000e+07 0.000000000000e+00 0.000000000000e+00 0.000000000000e+00 0.000000000000e+00 0.000000000000e+00 0.000000000000e+00 
4.240000000000e-02 0.000000000000e+00 7.070000000000e-02 0.000000000000e+00 0.000000000000e+00 0.000000000000e+00 -1.200000000000e+07 0.000000000000e+00 0.000000000000e+00 -1.200000000000e+07 0.000000000000e+00 -1.200000000000e+07 0.000000000000e+00 0.000000000000e+00 0.000000000000e+00 0.000000000000e+00 0.000000000000e+00 0.000000000000e+00 
5.850000000000e-02 0.000000000000e+00 1.065333333333e-01 0.000000000000e+00 0.000000000000e+00 0.000000000000e+00 -1.200000000000e+07 0.000000000000e+00 0.000000000000e+00 -1.200000000000e+07 0.000000000000e+00 -1.200000000000e+07 0.000000000000e+00 0.000000000000e+00 0.000000000000e+00 0.000000000000e+00 0.000000000000e+00 0.000000000000e+00 
7.460000000000e-02 0.000000000000e+00 1.423666666667e-01 0.000000000000e+00 0.000000000000e+00 0.000000000000e+00 -1.200000000000e+07 0.000000000000e+00 0.000000000000e+00 -1.200000000000e+07 0.000000000000e+00 -1.200000000000e+07 0.000000000000e+00 0.000000000000e+00 0.000000000000e+00 0.000000000000e+00 0.000000000000e+00 0.000000000000e+00 
9.070000000000e-02 0.000000000000e+00 1.782000000000e-01 0.000000000000e+00 0.000000000000e+00 0.000000000000e+00 -1.200000000000e+07 0.000000000000e+00 0.000000000000e+00 -1.200000000000e+07 0.000000000000e+00 -1.200000000000e+07 0.000000000000e+00 0.000000000000e+00 0.000000000000e+00 0.000000000000e+00 0.000000000000e+00 0.000000000000e+00 
2.825000000000e-02 0.000000000000e+00 7.070000000000e-02 0.000000000000e+00 0.000000000000e+00 0.000000000000e+00 -1.200000000000e+07 0.000000000000e+00 0.000000000000e+00 -1.200000000000e+07 0.000000000000e+00 -1.200000000000e+07 0.000000000000e+00 0.000000000000e+00 0.000000000000e+00 0.000000000000e+00 0.000000000000e+00 0.000000000000e+00 
3.943333333333e-02 0.000000000000e+00 1.105333333333e-01 0.000000000000e+00 0.000000000000e+00 0.000000000000e+00 -1.200000000000e+07 0.000000000000e+00 0.000000000000e+00 -1.200000000000e+07 0.000000000000e+00 -1.200000000000e+07 0.000000000000e+00 0.000000000000e+00 0.000000000000e+00 0.000000000000e+00 0.000000000000e+00 0.000000000000e+00 
5.061666666667e-02 0.000000000000e+00 1.503666666667e-01 0.000000000000e+00 0.000000000000e+00 0.000000000000e+00 -1.200000000000e+07 0.000000000000e+00 0.000000000000e+00 -1.200000000000e+07 0.000000000000e+00 -1.200000000000e+07 0.000000000000e+00 0.000000000000e+00 0.000000000000e+00 0.000000000000e+00 0.000000000000e+00 0.000000000000e+00 
6.180000000000e-02 0.000000000000e+00 1.902000000000e-01 0.000000000000e+00 0.000000000000e+00 0.000000000000e+00 -1.200000000000e+07 0.000000000000e+00 0.000000000000e+00 -1.200000000000e+07 0.000000000000e+00 -1.200000000000e+07 0.000000000000e+00 0.000000000000e+00 0.000000000000e+00 0.000000000000e+00 0.000000000000e+00 0.000000000000e+00 
1.410000000000e-02 0.000000000000e+00 7.070000000000e-02 0.000000000000e+00 0.000000000000e+00 0.000000000000e+00 -1.200000000000e+07 0.000000000000e+00 0.000000000000e+00 -1.200000000000e+07 0.000000000000e+00 -1.200000000000e+07 0.000000000000e+00 0.000000000000e+00 0.000000000000e+00 0.000000000000e+00 0.000000000000e+00 0.000000000000e+00 
1.980000000000e-02 0.000000000000e+00 1.129666666667e-01 0.000000000000e+00 0.000000000000e+00 0.000000000000e+00 -1.200000000000e+07 0.000000000000e+00 0.000000000000e+00 -1.200000000000e+07 0.000000000000e+00 -1.200000000000e+07 0.000000000000e+00 0.000000000000e+00 0.000000000000e+00 0.000000000000e+00 0.000000000000e+00 0.000000000000e+00 
2.550000000000e-02 0.000000000000e+00 1.552333333333e-01 0.000000000000e+00 0.000000000000e+00 0.000000000000e+00 -1.200000000000e+07 0.000000000000e+00 0.000000000000e+00 -1.200000000000e+07 0.000000000000e+00 -1.200000000000e+07 0.000000000000e+00 0.000000000000e+00 0.000000000000e+00 0.000000000000e+00 0.000000000000e+00 0.000000000000e+00 
3.120000000000e-02 0.000000000000e+00 1.975000000000e-01 0.000000000000e+00 0.000000000000e+00 0.000000000000e+00 -1.200000000000e+07 0.000000000000e+00 0.000000000000e+00 -1.200000000000e+07 0.000000000000e+00 -1.200000000000e+07 0.000000000000e+00 0.000000000000e+00 0.000000000000e+00 0.000000000000e+00 0.000000000000e+00 0.000000000000e+00 
-5.000000000000e-05 0.000000000000e+00 7.070000000000e-02 0.000000000000e+00 0.000000000000e+00 0.000000000000e+00 -1.200000000000e+07 0.000000000000e+00 0.000000000000e+00 -1.200000000000e+07 0.000000000000e+00 -1.200000000000e+07 0.000000000000e+00 0.000000000000e+00 0.000000000000e+00 0.000000000000e+00 0.000000000000e+00 0.000000000000e+00 
-6.666666666667e-05 0.000000000000e+00 1.137666666667e-01 0.000000000000e+00 0.000000000000e+00 0.000000000000e+00 -1.200000000000e+07 0.000000000000e+00 0.000000000000e+00 -1.200000000000e+07 0.000000000000e+00 -1.200000000000e+07 0.000000000000e+00 0.000000000000e+00 0.000000000000e+00 0.000000000000e+00 0.000000000000e+00 0.000000000000e+00 
-8.333333333333e-05 0.000000000000e+00 1.568333333333e-01 0.000000000000e+00 0.000000000000e+00 0.000000000000e+00 -1.200000000000e+07 0.000000000000e+00 0.000000000000e+00 -1.200000000000e+07 0.000000000000e+00 -1.200000000000e+07 0.000000000000e+00 0.000000000000e+00 0.000000000000e+00 0.000000000000e+00 0.000000000000e+00 0.000000000000e+00 
-1.000000000000e-04 0.000000000000e+00 1.999000000000e-01 0.000000000000e+00 0.000000000000e+00 0.000000000000e+00 -1.200000000000e+07 0.000000000000e+00 0.000000000000e+00 -1.200000000000e+07 0.000000000000e+00 -1.200000000000e+07 0.000000000000e+00 0.000000000000e+00 0.000000000000e+00 0.000000000000e+00 0.000000000000e+00 0.000000000000e+00 
2.499500000000e-01 0.000000000000e+00 0.000000000000e+00 0.000000000000e+00 0.000000000000e+00 0.000000000000e+00 -1.200000000000e+07 0.000000000000e+00 0.000000000000e+00 -1.200000000000e+07 0.000000000000e+00 -1.200000000000e+07 0.000000000000e+00 0.000000000000e+00 0.000000000000e+00 0.000000000000e+00 0.000000000000e+00 0.000000000000e+00 
2.469000000000e-01 0.000000000000e+00 3.905000000000e-02 0.000000000000e+00 0.000000000000e+00 0.000000000000e+00 -1.200000000000e+07 0.000000000000e+00 0.000000000000e+00 -1.200000000000e+07 0.000000000000e+00 -1.200000000000e+07 0.000000000000e+00 0.000000000000e+00 0.000000000000e+00 0.000000000000e+00 0.000000000000e+00 0.000000000000e+00 
2.999000000000e-01 0.000000000000e+00 0.000000000000e+00 0.000000000000e+00 0.000000000000e+00 0.000000000000e+00 -1.200000000000e+07 0.000000000000e+00 0.000000000000e+00 -1.200000000000e+07 0.000000000000e+00 -1.200000000000e+07 0.000000000000e+00 0.000000000000e+00 0.000000000000e+00 0.000000000000e+00 0.000000000000e+00 0.000000000000e+00 
2.963000000000e-01 0.000000000000e+00 4.690000000000e-02 0.000000000000e+00 0.000000000000e+00 0.000000000000e+00 -1.200000000000e+07 0.000000000000e+00 0.000000000000e+00 -1.200000000000e+07 0.000000000000e+00 -1.200000000000e+07 0.000000000000e+00 0.000000000000e+00 0.000000000000e+00 0.000000000000e+00 0.000000000000e+00 0.000000000000e+00 
2.377500000000e-01 0.000000000000e+00 7.725000000000e-02 0.000000000000e+00 0.000000000000e+00 0.000000000000e+00 -1.200000000000e+07 0.000000000000e+00 0.000000000000e+00 -1.200000000000e+07 0.000000000000e+00 -1.200000000000e+07 0.000000000000e+00 0.000000000000e+00 0.000000000000e+00 0.000000000000e+00 0.000000000000e+00 0.000000000000e+00 
2.853000000000e-01 0.000000000000e+00 9.270000000000e-02 0.000000000000e+00 0.000000000000e+00 0.000000000000e+00 -1.200000000000e+07 0.000000000000e+00 0.000000000000e+00 -1.200000000000e+07 0.000000000000e+00 -1.200000000000e+07 0.000000000000e+00 0.000000000000e+00 0.000000000000e+00 0.000000000000e+00 0.000000000000e+00 0.000000000000e+00 
2.227500000000e-01 0.000000000000e+00 1.134000000000e-01 0.000000000000e+00 0.000000000000e+00 0.000000000000e+00 -1.200000000000e+07 0.000000000000e+00 0.000000000000e+00 -1.200000000000e+07 0.000000000000e+00 -1.200000000000e+07 0.000000000000e+00 0.000000000000e+00 0.000000000000e+00 0.000000000000e+00 0.000000000000e+00 0.000000000000e+00 
2.673000000000e-01 0.000000000000e+00 1.361000000000e-01 0.000000000000e+00 0.000000000000e+00 0.000000000000e+00 -1.200000000000e+07 0.000000000000e+00 0.000000000000e+00 -1.200000000000e+07 0.000000000000e+00 -1.200000000000e+07 0.000000000000e+00 0.000000000000e+00 0.000000000000e+00 0.000000000000e+00 0.000000000000e+00 0.000000000000e+00 
2.022500000000e-01 0.000000000000e+00 1.469000000000e-01 0.000000000000e+00 0.000000000000e+00 0.000000000000e+00 -1.200000000000e+07 0.000000000000e+00 0.000000000000e+00 -1.200000000000e+07 0.000000000000e+00 -1.200000000000e+07 0.000000000000e+00 0.000000000000e+00 0.000000000000e+00 0.000000000000e+00 0.000000000000e+00 0.000000000000e+00 
2.427000000000e-01 0.000000000000e+00 1.763000000000e-01 0.000000000000e+00 0.000000000000e+00 0.000000000000e+00 -1.200000000000e+07 0.000000000000e+00 0.000000000000e+00 -1.200000000000e+07 0.000000000000e+00 -1.200000000000e+07 0.000000000000e+00 0.000000000000e+00 0.000000000000e+00 0.000000000000e+00 0.000000000000e+00 0.000000000000e+00 
1.767500000000e-01 0.000000000000e+00 1.767500000000e-01 0.000000000000e+00 0.000000000000e+00 0.000000000000e+00 -1.200000000000e+07 0.000000000000e+00 0.000000000000e+00 -1.200000000000e+07 0.000000000000e+00 -1.200000000000e+07 0.000000000000e+00 0.000000000000e+00 0.000000000000e+00 0.000000000000e+00 0.000000000000e+00 0.000000000000e+00 
2.121000000000e-01 0.000000000000e+00 2.121000000000e-01 0.000000000000e+00 0.000000000000e+00 0.000000000000e+00 -1.200000000000e+07 0.000000000000e+00 0.000000000000e+00 -1.200000000000e+07 0.000000000000e+00 -1.200000000000e+07 0.000000000000e+00 0.000000000000e+00 0.000000000000e+00 0.000000000000e+00 0.000000000000e+00 0.000000000000e+00 
1.469000000000e-01 0.000000000000e+00 2.022500000000e-01 0.000000000000e+00 0.000000000000e+00 0.000000000000e+00 -1.200000000000e+07 0.000000000000e+00 0.000000000000e+00 -1.200000000000e+07 0.000000000000e+00 -1.200000000000e+07 0.000000000000e+00 0.000000000000e+00 0.000000000000e+00 0.000000000000e+00 0.000000000000e+00 0.000000000000e+00 
1.763000000000e-01 0.000000000000e+00 2.427000000000e-01 0.000000000000e+00 0.000000000000e+00 0.000000000000e+00 -1.200000000000e+07 0.000000000000e+00 0.000000000000e+00 -1.200000000000e+07 0.000000000000e+00 -1.200000000000e+07 0.000000000000e+00 0.000000000000e+00 0.000000000000e+00 0.000000000000e+00 0.000000000000e+00 0.000000000000e+00 
1.134000000000e-01 0.000000000000e+00 2.227500000000e-01 0.000000000000e+00 0.000000000000e+00 0.000000000000e+00 -1.200000000000e+07 0.000000000000e+00 0.000000000000e+00 -1.200000000000e+07 0.000000000000e+00 -1.200000000000e+07 0.000000000000e+00 0.000000000000e+00 0.000000000000e+00 0.000000000000e+00 0.000000000000e+00 0.000000000000e+00 
1.361000000000e-01 0.000000000000e+00 2.673000000000e-01 0.000000000000e+00 0.000000000000e+00 0.000000000000e+00 -1.200000000000e+07 0.000000000000e+00 0.000000000000e+00 -1.200000000000e+07 0.000000000000e+00 -1.200000000000e+07 0.000000000000e+00 0.000000000000e+00 0.000000000000e+00 0.000000000000e+00 0.000000000000e+00 0.000000000000e+00 
7.725000000000e-02 0.000000000000e+00 2.377500000000e-01 0.000000000000e+00 0.000000000000e+00 0.000000000000e+00 -1.200000000000e+07 0.000000000000e+00 0.000000000000e+00 -1.200000000000e+07 0.000000000000e+00 -1.200000000000e+07 0.000000000000e+00 0.000000000000e+00 0.000000000000e+00 0.000000000000e+00 0.000000000000e+00 0.000000000000e+00 
9.270000000000e-02 0.000000000000e+00 2.853000000000e-01 0.000000000000e+00 0.000000000000e+00 0.000000000000e+00 -1.200000000000e+07 0.000000000000e+00 0.000000000000e+00 -1.200000000000e+07 0.000000000000e+00 -1.200000000000e+07 0.000000000000e+00 0.000000000000e+00 0.000000000000e+00 0.000000000000e+00 0.000000000000e+00 0.000000000000e+00 
3.905000000000e-02 0.000000000000e+00 2.469000000000e-01 0.000000000000e+00 0.000000000000e+00 0.000000000000e+00 -1.200000000000e+07 0.000000000000e+00 0.000000000000e+00 -1.200000000000e+07 0.000000000000e+00 -1.200000000000e+07 0.000000000000e+00 0.000000000000e+00 0.000000000000e+00 0.000000000000e+00 0.000000000000e+00 0.000000000000e+00 
4.690000000000e-02 0.000000000000e+00 2.963000000000e-01 0.000000000000e+00 0.000000000000e+00 0.000000000000e+00 -1.200000000000e+07 0.000000000000e+00 0.000000000000e+00 -1.200000000000e+07 0.000000000000e+00 -1.200000000000e+07 0.000000000000e+00 0.000000000000e+00 0.000000000000e+00 0.000000000000e+00 0.000000000000e+00 0.000000000000e+00 
-1.000000000000e-04 0.000000000000e+00 2.499000000000e-01 0.000000000000e+00 0.000000000000e+00 0.000000000000e+00 -1.200000000000e+07 0.000000000000e+00 0.000000000000e+00 -1.200000000000e+07 0.000000000000e+00 -1.200000000000e+07 0.000000000000e+00 0.000000000000e+00 0.000000000000e+00 0.000000000000e+00 0.000000000000e+00 0.000000000000e+00 
-1.000000000000e-04 0.000000000000e+00 2.999000000000e-01 0.000000000000e+00 0.000000000000e+00 0.000000000000e+00 -1.200000000000e+07 0.000000000000e+00 0.000000000000e+00 -1.200000000000e+07 0.000000000000e+00 -1.200000000000e+07 0.000000000000e+00 0.000000000000e+00 0.000000000000e+00 0.000000000000e+00 0.000000000000e+00 0.000000000000e+00 
3.300000000000e-01 0.000000000000e+00 0.000000000000e+00 0.000000000000e+00 0.000000000000e+00 0.000000000000e+00 -1.200000000000e+07 0.000000000000e+00 0.000000000000e+00 -1.200000000000e+07 0.000000000000e+00 -1.200000000000e+07 0.000000000000e+00 0.000000000000e+00 0.000000000000e+00 0.000000000000e+00 0.000000000000e+00 0.000000000000e+00 
3.259000000000e-01 0.000000000000e+00 5.160000000000e-02 0.000000000000e+00 0.000000000000e+00 0.000000000000e+00 -1.200000000000e+07 0.000000000000e+00 0.000000000000e+00 -1.200000000000e+07 0.000000000000e+00 -1.200000000000e+07 0.000000000000e+00 0.000000000000e+00 0.000000000000e+00 0.000000000000e+00 0.000000000000e+00 0.000000000000e+00 
3.138000000000e-01 0.000000000000e+00 1.019000000000e-01 0.000000000000e+00 0.000000000000e+00 0.000000000000e+00 -1.200000000000e+07 0.000000000000e+00 0.000000000000e+00 -1.200000000000e+07 0.000000000000e+00 -1.200000000000e+07 0.000000000000e+00 0.000000000000e+00 0.000000000000e+00 0.000000000000e+00 0.000000000000e+00 0.000000000000e+00 
2.940000000000e-01 0.000000000000e+00 1.498000000000e-01 0.000000000000e+00 0.000000000000e+00 0.000000000000e+00 -1.200000000000e+07 0.000000000000e+00 0.000000000000e+00 -1.200000000000e+07 0.000000000000e+00 -1.200000000000e+07 0.000000000000e+00 0.000000000000e+00 0.000000000000e+00 0.000000000000e+00 0.000000000000e+00 0.000000000000e+00 
2.669000000000e-01 0.000000000000e+00 1.939000000000e-01 0.000000000000e+00 0.000000000000e+00 0.000000000000e+00 -1.200000000000e+07 0.000000000000e+00 0.000000000000e+00 -1.200000000000e+07 0.000000000000e+00 -1.200000000000e+07 0.000000000000e+00 0.000000000000e+00 0.000000000000e+00 0.000000000000e+00 0.000000000000e+00 0.000000000000e+00 
2.333000000000e-01 0.000000000000e+00 2.333000000000e-01 0.000000000000e+00 0.000000000000e+00 0.000000000000e+00 -1.200000000000e+07 0.000000000000e+00 0.000000000000e+00 -1.200000000000e+07 0.000000000000e+00 -1.200000000000e+07 0.000000000000e+00 0.000000000000e+00 0.000000000000e+00 0.000000000000e+00 0.000000000000e+00 0.000000000000e+00 
1.939000000000e-01 0.000000000000e+00 2.669000000000e-01 0.000000000000e+00 0.000000000000e+00 0.000000000000e+00 -1.200000000000e+07 0.000000000000e+00 0.000000000000e+00 -1.200000000000e+07 0.000000000000e+00 -1.200000000000e+07 0.000000000000e+00 0.000000000000e+00 0.000000000000e+00 0.000000000000e+00 0.000000000000e+00 0.000000000000e+00 
1.498000000000e-01 0.000000000000e+00 2.940000000000e-01 0.000000000000e+00 0.000000000000e+00 0.000000000000e+00 -1.200000000000e+07 0.000000000000e+00 0.000000000000e+00 -1.200000000000e+07 0.000000000000e+00 -1.200000000000e+07 0.000000000000e+00 0.000000000000e+00 0.000000000000e+00 0.000000000000e+00 0.000000000000e+00 0.000000000000e+00 
1.019000000000e-01 0.000000000000e+00 3.138000000000e-01 0.000000000000e+00 0.000000000000e+00 0.000000000000e+00 -1.200000000000e+07 0.000000000000e+00 0.000000000000e+00 -1.200000000000e+07 0.000000000000e+00 -1.200000000000e+07 0.000000000000e+00 0.000000000000e+00 0.000000000000e+00 0.000000000000e+00 0.000000000000e+00 0.000000000000e+00 
5.160000000000e-02 0.000000000000e+00 3.259000000000e-01 0.000000000000e+00 0.000000000000e+00 0.000000000000e+00 -1.200000000000e+07 0.000000000000e+00 0.000000000000e+00 -1.200000000000e+07 0.000000000000e+00 -1.200000000000e+07 0.000000000000e+00 0.000000000000e+00 0.000000000000e+00 0.000000000000e+00 0.000000000000e+00 0.000000000000e+00 
-1.000000000000e-04 0.000000000000e+00 3.299000000000e-01 0.000000000000e+00 0.000000000000e+00 0.000000000000e+00 -1.200000000000e+07 0.000000000000e+00 0.000000000000e+00 -1.200000000000e+07 0.000000000000e+00 -1.200000000000e+07 0.000000000000e+00 0.000000000000e+00 0.000000000000e+00 0.000000000000e+00 0.000000000000e+00 0.000000000000e+00 
4.000000000000e+00 0.000000000000e+00 6.400000000000e-01 0.000000000000e+00 0.000000000000e+00 0.000000000000e+00 -1.200000000000e+07 0.000000000000e+00 0.000000000000e+00 -1.200000000000e+07 0.000000000000e+00 -1.200000000000e+07 0.000000000000e+00 0.000000000000e+00 0.000000000000e+00 0.000000000000e+00 0.000000000000e+00 0.000000000000e+00 
4.000000000000e+00 0.000000000000e+00 0.000000000000e+00 0.000000000000e+00 0.000000000000e+00 0.000000000000e+00 -1.200000000000e+07 0.000000000000e+00 0.000000000000e+00 -1.200000000000e+07 0.000000000000e+00 -1.200000000000e+07 0.000000000000e+00 0.000000000000e+00 0.000000000000e+00 0.000000000000e+00 0.000000000000e+00 0.000000000000e+00 
3.706400000000e+00 0.000000000000e+00 0.000000000000e+00 0.000000000000e+00 0.000000000000e+00 0.000000000000e+00 -1.200000000000e+07 0.000000000000e+00 0.000000000000e+00 -1.200000000000e+07 0.000000000000e+00 -1.200000000000e+07 0.000000000000e+00 0.000000000000e+00 0.000000000000e+00 0.000000000000e+00 0.000000000000e+00 0.000000000000e+00 
3.660716000000e+00 0.000000000000e+00 5.797720000000e-01 0.000000000000e+00 0.000000000000e+00 0.000000000000e+00 -1.200000000000e+07 0.000000000000e+00 0.000000000000e+00 -1.200000000000e+07 0.000000000000e+00 -1.200000000000e+07 0.000000000000e+00 0.000000000000e+00 0.000000000000e+00 0.000000000000e+00 0.000000000000e+00 0.000000000000e+00 
2.532000000000e+00 0.000000000000e+00 0.000000000000e+00 0.000000000000e+00 0.000000000000e+00 0.000000000000e+00 -1.200000000000e+07 0.000000000000e+00 0.000000000000e+00 -1.200000000000e+07 0.000000000000e+00 -1.200000000000e+07 0.000000000000e+00 0.000000000000e+00 0.000000000000e+00 0.000000000000e+00 0.000000000000e+00 0.000000000000e+00 
2.500780000000e+00 0.000000000000e+00 3.960600000000e-01 0.000000000000e+00 0.000000000000e+00 0.000000000000e+00 -1.200000000000e+07 0.000000000000e+00 0.000000000000e+00 -1.200000000000e+07 0.000000000000e+00 -1.200000000000e+07 0.000000000000e+00 0.000000000000e+00 0.000000000000e+00 0.000000000000e+00 0.000000000000e+00 0.000000000000e+00 
1.640319419406e+00 0.000000000000e+00 0.000000000000e+00 0.000000000000e+00 0.000000000000e+00 0.000000000000e+00 -1.200000000000e+07 0.000000000000e+00 0.000000000000e+00 -1.200000000000e+07 0.000000000000e+00 -1.200000000000e+07 0.000000000000e+00 0.000000000000e+00 0.000000000000e+00 0.000000000000e+00 0.000000000000e+00 0.000000000000e+00 
1.620081425466e+00 0.000000000000e+00 2.565739451446e-01 0.000000000000e+00 0.000000000000e+00 0.000000000000e+00 -1.200000000000e+07 0.000000000000e+00 0.000000000000e+00 -1.200000000000e+07 0.000000000000e+00 -1.200000000000e+07 0.000000000000e+00 0.000000000000e+00 0.000000000000e+00 0.000000000000e+00 0.000000000000e+00 0.000000000000e+00 