 TITLE = "Time curves in points"
 VARIABLES = "TIME "  "TCE" 
 ZONE T="POINT=POINT6"
0.000000000000e+00 1.000000000000e-15 
4.320000000000e+04 1.000000000000e-15 
8.640000000000e+04 1.000000000000e-15 
1.296000000000e+05 1.000000000000e-15 
1.728000000000e+05 1.000000000000e-15 
2.160000000000e+05 1.000000000000e-15 
2.592000000000e+05 1.000000000000e-15 
3.024000000000e+05 1.000000000000e-15 
3.456000000000e+05 1.000000000000e-15 
3.888000000000e+05 1.000000000000e-15 
4.320000000000e+05 1.000000000000e-15 
4.752000000000e+05 1.000000000000e-15 
5.184000000000e+05 1.000000000000e-15 
5.616000000000e+05 1.000000000000e-15 
6.048000000000e+05 1.000000000000e-15 
6.480000000000e+05 1.000000000000e-15 
6.912000000000e+05 1.000000000000e-15 
7.344000000000e+05 1.000000000000e-15 
7.776000000000e+05 1.000000000000e-15 
8.208000000000e+05 1.000000000000e-15 
8.640000000000e+05 1.000000000000e-15 
9.072000000000e+05 1.000000000001e-15 
9.504000000000e+05 1.000000000004e-15 
9.936000000000e+05 1.000000000018e-15 
1.036800000000e+06 1.000000000085e-15 
1.080000000000e+06 1.000000000388e-15 
1.123200000000e+06 1.000000001696e-15 
1.166400000000e+06 1.000000007125e-15 
1.209600000000e+06 1.000000028780e-15 
1.252800000000e+06 1.000000111956e-15 
1.296000000000e+06 1.000000420043e-15 
1.339200000000e+06 1.000001521975e-15 
1.382400000000e+06 1.000005332583e-15 
1.425600000000e+06 1.000018088378e-15 
1.468800000000e+06 1.000059467650e-15 
1.512000000000e+06 1.000189688994e-15 
1.555200000000e+06 1.000587653133e-15 
1.598400000000e+06 1.001769835457e-15 
1.641600000000e+06 1.005186481331e-15 
1.684800000000e+06 1.014801893270e-15 
1.728000000000e+06 1.041174247394e-15 
1.771200000000e+06 1.111722633875e-15 
1.814400000000e+06 1.295931796290e-15 
1.857600000000e+06 1.765757182322e-15 
1.900800000000e+06 2.937047878036e-15 
1.944000000000e+06 5.793225447143e-15 
1.987200000000e+06 1.260995174381e-14 
2.030400000000e+06 2.854316580826e-14 
2.073600000000e+06 6.503741299479e-14 
2.116800000000e+06 1.469943160079e-13 
2.160000000000e+06 3.275554785146e-13 
2.203200000000e+06 7.180089454160e-13 
2.246400000000e+06 1.547173468380e-12 
2.289600000000e+06 3.277192091440e-12 
2.332800000000e+06 6.825360202264e-12 
2.376000000000e+06 1.398182816074e-11 
2.419200000000e+06 2.818302385340e-11 
2.462400000000e+06 5.592049794635e-11 
2.505600000000e+06 1.092665711485e-10 
2.548800000000e+06 2.103321760914e-10 
2.592000000000e+06 3.990164371416e-10 
2.635200000000e+06 7.462806861386e-10 
2.678400000000e+06 1.376558173713e-09 
2.721600000000e+06 2.505056862935e-09 
2.764800000000e+06 4.499001755581e-09 
2.808000000000e+06 7.976835785015e-09 
2.851200000000e+06 1.396680223754e-08 
2.894400000000e+06 2.415721088507e-08 
2.937600000000e+06 4.128646060532e-08 
2.980800000000e+06 6.974340698584e-08 
3.024000000000e+06 1.164804810752e-07 
3.067200000000e+06 1.923861406626e-07 
3.110400000000e+06 3.143241157255e-07 
3.153600000000e+06 5.081292151033e-07 
3.196800000000e+06 8.129600575068e-07 
3.240000000000e+06 1.287554629091e-06 
3.283200000000e+06 2.019125857478e-06 
3.326400000000e+06 3.135879005940e-06 
3.369600000000e+06 4.824446567397e-06 
3.412800000000e+06 7.353927661352e-06 
3.456000000000e+06 1.110871077180e-05 
3.499200000000e+06 1.663284973174e-05 
3.542400000000e+06 2.468949473986e-05 
3.585600000000e+06 3.633973332557e-05 
3.628800000000e+06 5.304622012498e-05 
3.672000000000e+06 7.680815299025e-05 
3.715200000000e+06 1.103354929694e-04 
3.758400000000e+06 1.572718664341e-04 
3.801600000000e+06 2.224772297706e-04 
3.844800000000e+06 3.123832950797e-04 
3.888000000000e+06 4.354365131572e-04 
3.931200000000e+06 6.026456485625e-04 
3.974400000000e+06 8.282528944466e-04 
4.017600000000e+06 1.130549559962e-03 
4.060800000000e+06 1.532859256572e-03 
4.104000000000e+06 2.064713354412e-03 
4.147200000000e+06 2.763244669811e-03 
4.190400000000e+06 3.674826457064e-03 
4.233600000000e+06 4.856984113119e-03 
4.276800000000e+06 6.380606006114e-03 
4.320000000000e+06 8.332480537881e-03 
4.363200000000e+06 1.081818189597e-02 
4.406400000000e+06 1.396532676406e-02 
4.449600000000e+06 1.792721379394e-02 
4.492800000000e+06 2.288686271697e-02 
4.536000000000e+06 2.906145052375e-02 
4.579200000000e+06 3.670714152070e-02 
4.622400000000e+06 4.612429604642e-02 
4.665600000000e+06 5.766303051606e-02 
4.708800000000e+06 7.172909968109e-02 
4.752000000000e+06 8.879003038233e-02 
4.795200000000e+06 1.093814615834e-01 
4.838400000000e+06 1.341136046689e-01 
4.881600000000e+06 1.636777259467e-01 
4.924800000000e+06 1.988525631768e-01 
4.968000000000e+06 2.405105149171e-01 
5.011200000000e+06 2.896235238614e-01 
5.054400000000e+06 3.472684742209e-01 
5.097600000000e+06 4.146319621694e-01 
5.140800000000e+06 4.930143042123e-01 
5.184000000000e+06 5.838325865679e-01 
5.227200000000e+06 6.886226250032e-01 
5.270400000000e+06 8.090396901254e-01 
5.313600000000e+06 9.468578316137e-01 
5.356800000000e+06 1.103967647752e+00 
5.400000000000e+06 1.282372434442e+00 
5.443200000000e+06 1.484182590183e+00 
5.486400000000e+06 1.711608101450e+00 
5.529600000000e+06 1.966949388054e+00 
5.572800000000e+06 2.252585982815e+00 
5.616000000000e+06 2.570963415473e+00 
5.659200000000e+06 2.924578337139e+00 
5.702400000000e+06 3.315961849536e+00 
5.745600000000e+06 3.747661049315e+00 
5.788800000000e+06 4.222219214393e+00 
5.832000000000e+06 4.742154516645e+00 
5.875200000000e+06 5.309937831047e+00 
5.918400000000e+06 5.927969385669e+00 
5.961600000000e+06 6.598555079282e+00 
6.004800000000e+06 7.323882178971e+00 
6.048000000000e+06 8.105995178561e+00 
6.091200000000e+06 8.946771852962e+00 
6.134400000000e+06 9.847900033534e+00 
6.177600000000e+06 1.081085523837e+01 
6.220800000000e+06 1.183687927024e+01 
6.264000000000e+06 1.292696096851e+01 
6.307200000000e+06 1.408181808923e+01 
6.350400000000e+06 1.530188192571e+01 
6.393600000000e+06 1.658728376952e+01 
6.436800000000e+06 1.793784419946e+01 
6.480000000000e+06 1.935306488439e+01 
6.523200000000e+06 2.083212364125e+01 
6.566400000000e+06 2.237387194882e+01 
6.609600000000e+06 2.397683586951e+01 
6.652800000000e+06 2.563921995928e+01 
6.696000000000e+06 2.735891387829e+01 
6.739200000000e+06 2.913350257270e+01 
6.782400000000e+06 3.096027837223e+01 
6.825600000000e+06 3.283625647443e+01 
6.868800000000e+06 3.475819315342e+01 
6.912000000000e+06 3.672260517592e+01 
6.955200000000e+06 3.872579275002e+01 
6.998400000000e+06 4.076386286529e+01 
7.041600000000e+06 4.283275567320e+01 
7.084800000000e+06 4.492826967760e+01 
7.128000000000e+06 4.704609083982e+01 
7.171200000000e+06 4.918182012782e+01 
7.214400000000e+06 5.133100232005e+01 
7.257600000000e+06 5.348915414238e+01 
7.300800000000e+06 5.565179239656e+01 
7.344000000000e+06 5.781446225705e+01 
7.387200000000e+06 5.997276376460e+01 
7.430400000000e+06 6.212237689687e+01 
7.473600000000e+06 6.425908670916e+01 
7.516800000000e+06 6.637880575790e+01 
7.560000000000e+06 6.847759544704e+01 
7.603200000000e+06 7.055168490323e+01 
7.646400000000e+06 7.259748849716e+01 
7.689600000000e+06 7.461162158068e+01 
7.732800000000e+06 7.659091289162e+01 
7.776000000000e+06 7.853241619445e+01 
7.819200000000e+06 8.043341848802e+01 
7.862400000000e+06 8.229144712675e+01 
7.905600000000e+06 8.410427458143e+01 
7.948800000000e+06 8.586992065252e+01 
7.992000000000e+06 8.758665347893e+01 
8.035200000000e+06 8.925298803540e+01 
8.078400000000e+06 9.086768302459e+01 
8.121600000000e+06 9.242973658264e+01 
8.164800000000e+06 9.393838022021e+01 
8.208000000000e+06 9.539307109707e+01 
8.251200000000e+06 9.679348369782e+01 
8.294400000000e+06 9.813949988617e+01 
8.337600000000e+06 9.943119845387e+01 
8.380800000000e+06 1.006688440459e+02 
8.424000000000e+06 1.018528748733e+02 
8.467200000000e+06 1.029838905661e+02 
8.510400000000e+06 1.040626393421e+02 
8.553600000000e+06 1.050900053139e+02 
8.596800000000e+06 1.060669953839e+02 
8.640000000000e+06 1.069947263369e+02 
8.683200000000e+06 1.078744124653e+02 
8.726400000000e+06 1.087073527522e+02 
8.769600000000e+06 1.094949186146e+02 
8.812800000000e+06 1.102385424946e+02 
8.856000000000e+06 1.109397062888e+02 
8.899200000000e+06 1.115999308614e+02 
8.942400000000e+06 1.122207657845e+02 
8.985600000000e+06 1.128037796376e+02 
9.028800000000e+06 1.133505510479e+02 
9.072000000000e+06 1.138626606489e+02 
9.115200000000e+06 1.143416832918e+02 
9.158400000000e+06 1.147891810335e+02 
9.201600000000e+06 1.152066969492e+02 
9.244800000000e+06 1.155957494336e+02 
9.288000000000e+06 1.159578270791e+02 
9.331200000000e+06 1.162943844285e+02 
9.374400000000e+06 1.166068380958e+02 
9.417600000000e+06 1.168965635089e+02 
9.460800000000e+06 1.171648922191e+02 
9.504000000000e+06 1.174131097336e+02 
9.547200000000e+06 1.176424537448e+02 
9.590400000000e+06 1.178541129480e+02 
9.633600000000e+06 1.180492261008e+02 
9.676800000000e+06 1.182288815294e+02 
9.720000000000e+06 1.183941170241e+02 
9.763200000000e+06 1.185459199905e+02 
9.806400000000e+06 1.186852278941e+02 
9.849600000000e+06 1.188129289039e+02 
9.892800000000e+06 1.189298628436e+02 
9.936000000000e+06 1.190368222268e+02 
9.979200000000e+06 1.191345535246e+02 
1.002240000000e+07 1.192237585380e+02 
1.006560000000e+07 1.193050958665e+02 
1.010880000000e+07 1.193791825010e+02 
1.015200000000e+07 1.194465954455e+02 
1.019520000000e+07 1.195078734032e+02 
1.023840000000e+07 1.195635184999e+02 
1.028160000000e+07 1.196139980079e+02 
1.032480000000e+07 1.196597460897e+02 
1.036800000000e+07 1.197011655200e+02 
1.041120000000e+07 1.197386293926e+02 
1.045440000000e+07 1.197724827920e+02 
1.049760000000e+07 1.198030444407e+02 
1.054080000000e+07 1.198306082875e+02 
1.058400000000e+07 1.198554450561e+02 
1.062720000000e+07 1.198778037351e+02 
1.067040000000e+07 1.198979130163e+02 
1.071360000000e+07 1.199159826722e+02 
1.075680000000e+07 1.199322048650e+02 
1.080000000000e+07 1.199467554024e+02 
1.084320000000e+07 1.199597949247e+02 
1.088640000000e+07 1.199714700308e+02 
1.092960000000e+07 1.199819143430e+02 
1.097280000000e+07 1.199912495061e+02 
1.101600000000e+07 1.199995861311e+02 
1.105920000000e+07 1.200070246790e+02 
1.110240000000e+07 1.200136562844e+02 
1.114560000000e+07 1.200195635284e+02 
1.118880000000e+07 1.200248211576e+02 
1.123200000000e+07 1.200294967521e+02 
1.127520000000e+07 1.200336513457e+02 
1.131840000000e+07 1.200373400009e+02 
1.136160000000e+07 1.200406123399e+02 
1.140480000000e+07 1.200435130352e+02 
1.144800000000e+07 1.200460822619e+02 
1.149120000000e+07 1.200483561128e+02 
1.153440000000e+07 1.200503669810e+02 
1.157760000000e+07 1.200521439101e+02 
1.162080000000e+07 1.200537129145e+02 
1.166400000000e+07 1.200550972725e+02 
1.170720000000e+07 1.200563177945e+02 
1.175040000000e+07 1.200573930664e+02 
1.179360000000e+07 1.200583396722e+02 
1.183680000000e+07 1.200591723954e+02 
1.188000000000e+07 1.200599044028e+02 
1.192320000000e+07 1.200605474102e+02 
1.196640000000e+07 1.200611118333e+02 
1.200960000000e+07 1.200616069233e+02 
1.205280000000e+07 1.200620408904e+02 
1.209600000000e+07 1.200624210141e+02 
1.213920000000e+07 1.200627537432e+02 
1.218240000000e+07 1.200630447862e+02 
1.222560000000e+07 1.200632991914e+02 
1.226880000000e+07 1.200635214198e+02 
1.231200000000e+07 1.200637154102e+02 
1.235520000000e+07 1.200638846375e+02 
1.239840000000e+07 1.200640321647e+02 
1.244160000000e+07 1.200641606897e+02 
1.248480000000e+07 1.200642725869e+02 
1.252800000000e+07 1.200643699442e+02 
1.257120000000e+07 1.200644545964e+02 
1.261440000000e+07 1.200645281546e+02 
1.265760000000e+07 1.200645920319e+02 
1.270080000000e+07 1.200646474677e+02 
1.274400000000e+07 1.200646955473e+02 
1.278720000000e+07 1.200647372212e+02 
1.283040000000e+07 1.200647733204e+02 
1.287360000000e+07 1.200648045716e+02 
1.291680000000e+07 1.200648316095e+02 
1.296000000000e+07 1.200648549879e+02 
1.300320000000e+07 1.200648751902e+02 
1.304640000000e+07 1.200648926374e+02 
1.308960000000e+07 1.200649076964e+02 
1.313280000000e+07 1.200649206865e+02 
1.317600000000e+07 1.200649318854e+02 
1.321920000000e+07 1.200649415346e+02 
1.326240000000e+07 1.200649498437e+02 
1.330560000000e+07 1.200649569948e+02 
1.334880000000e+07 1.200649631457e+02 
1.339200000000e+07 1.200649684335e+02 
1.343520000000e+07 1.200649729767e+02 
1.347840000000e+07 1.200649768780e+02 
1.352160000000e+07 1.200649802262e+02 
1.356480000000e+07 1.200649830982e+02 
1.360800000000e+07 1.200649855605e+02 
1.365120000000e+07 1.200649876702e+02 
1.369440000000e+07 1.200649894770e+02 
1.373760000000e+07 1.200649910234e+02 
1.378080000000e+07 1.200649923464e+02 
1.382400000000e+07 1.200649934777e+02 
1.386720000000e+07 1.200649944444e+02 
1.391040000000e+07 1.200649952701e+02 
1.395360000000e+07 1.200649959751e+02 
1.399680000000e+07 1.200649965766e+02 
1.404000000000e+07 1.200649970896e+02 
1.408320000000e+07 1.200649975269e+02 
1.412640000000e+07 1.200649978995e+02 
1.416960000000e+07 1.200649982168e+02 
1.421280000000e+07 1.200649984868e+02 
1.425600000000e+07 1.200649987166e+02 
1.429920000000e+07 1.200649989120e+02 
1.434240000000e+07 1.200649990780e+02 
1.438560000000e+07 1.200649992191e+02 
1.442880000000e+07 1.200649993388e+02 
1.447200000000e+07 1.200649994405e+02 
1.451520000000e+07 1.200649995267e+02 
1.455840000000e+07 1.200649995999e+02 
1.460160000000e+07 1.200649996618e+02 
1.464480000000e+07 1.200649997143e+02 
1.468800000000e+07 1.200649997588e+02 
1.473120000000e+07 1.200649997964e+02 
1.477440000000e+07 1.200649998282e+02 
1.481760000000e+07 1.200649998551e+02 
1.486080000000e+07 1.200649998779e+02 
1.490400000000e+07 1.200649998971e+02 
1.494720000000e+07 1.200649999133e+02 
1.499040000000e+07 1.200649999270e+02 
1.503360000000e+07 1.200649999386e+02 
1.507680000000e+07 1.200649999484e+02 
1.512000000000e+07 1.200649999566e+02 
1.516320000000e+07 1.200649999635e+02 
1.520640000000e+07 1.200649999693e+02 
1.524960000000e+07 1.200649999742e+02 
1.529280000000e+07 1.200649999784e+02 
1.533600000000e+07 1.200649999819e+02 
1.537920000000e+07 1.200649999848e+02 
1.542240000000e+07 1.200649999872e+02 
1.546560000000e+07 1.200649999893e+02 
1.550880000000e+07 1.200649999910e+02 
1.555200000000e+07 1.200649999925e+02 
1.559520000000e+07 1.200649999937e+02 
1.563840000000e+07 1.200649999947e+02 
1.568160000000e+07 1.200649999956e+02 
1.572480000000e+07 1.200649999963e+02 
1.576800000000e+07 1.200649999969e+02 
1.581120000000e+07 1.200649999974e+02 
1.585440000000e+07 1.200649999979e+02 
1.589760000000e+07 1.200649999982e+02 
1.594080000000e+07 1.200649999985e+02 
1.598400000000e+07 1.200649999988e+02 
1.602720000000e+07 1.200649999990e+02 
1.607040000000e+07 1.200649999991e+02 
1.611360000000e+07 1.200649999993e+02 
1.615680000000e+07 1.200649999994e+02 
1.620000000000e+07 1.200649999995e+02 
1.624320000000e+07 1.200649999996e+02 
1.628640000000e+07 1.200649999997e+02 
1.632960000000e+07 1.200649999997e+02 
1.637280000000e+07 1.200649999998e+02 
1.641600000000e+07 1.200649999998e+02 
1.645920000000e+07 1.200649999998e+02 
1.650240000000e+07 1.200649999999e+02 
1.654560000000e+07 1.200649999999e+02 
1.658880000000e+07 1.200649999999e+02 
1.663200000000e+07 1.200649999999e+02 
1.667520000000e+07 1.200649999999e+02 
1.671840000000e+07 1.200649999999e+02 
1.676160000000e+07 1.200650000000e+02 
1.680480000000e+07 1.200650000000e+02 
1.684800000000e+07 1.200650000000e+02 
1.689120000000e+07 1.200650000000e+02 
1.693440000000e+07 1.200650000000e+02 
1.697760000000e+07 1.200650000000e+02 
1.702080000000e+07 1.200650000000e+02 
1.706400000000e+07 1.200650000000e+02 
1.710720000000e+07 1.200650000000e+02 
1.715040000000e+07 1.200650000000e+02 
1.719360000000e+07 1.200650000000e+02 
1.723680000000e+07 1.200650000000e+02 
1.728000000000e+07 1.200650000000e+02 
1.732320000000e+07 1.200650000000e+02 
1.736640000000e+07 1.200650000000e+02 
1.740960000000e+07 1.200650000000e+02 
1.745280000000e+07 1.200650000000e+02 
1.749600000000e+07 1.200650000000e+02 
1.753920000000e+07 1.200650000000e+02 
1.758240000000e+07 1.200650000000e+02 
1.762560000000e+07 1.200650000000e+02 
1.766880000000e+07 1.200650000000e+02 
1.771200000000e+07 1.200650000000e+02 
1.775520000000e+07 1.200650000000e+02 
1.779840000000e+07 1.200650000000e+02 
1.784160000000e+07 1.200650000000e+02 
1.788480000000e+07 1.200650000000e+02 
1.792800000000e+07 1.200650000000e+02 
1.797120000000e+07 1.200650000000e+02 
1.801440000000e+07 1.200650000000e+02 
1.805760000000e+07 1.200650000000e+02 
1.810080000000e+07 1.200650000000e+02 
1.814400000000e+07 1.200650000000e+02 
1.818720000000e+07 1.200650000000e+02 
1.823040000000e+07 1.200650000000e+02 
1.827360000000e+07 1.200650000000e+02 
1.831680000000e+07 1.200650000000e+02 
1.836000000000e+07 1.200650000000e+02 
1.840320000000e+07 1.200650000000e+02 
1.844640000000e+07 1.200650000000e+02 
1.848960000000e+07 1.200650000000e+02 
1.853280000000e+07 1.200650000000e+02 
1.857600000000e+07 1.200650000000e+02 
1.861920000000e+07 1.200650000000e+02 
1.866240000000e+07 1.200650000000e+02 
1.870560000000e+07 1.200650000000e+02 
1.874880000000e+07 1.200650000000e+02 
1.879200000000e+07 1.200650000000e+02 
1.883520000000e+07 1.200650000000e+02 
1.887840000000e+07 1.200650000000e+02 
1.892160000000e+07 1.200650000000e+02 
1.896480000000e+07 1.200650000000e+02 
1.900800000000e+07 1.200650000000e+02 
1.905120000000e+07 1.200650000000e+02 
1.909440000000e+07 1.200650000000e+02 
1.913760000000e+07 1.200650000000e+02 
1.918080000000e+07 1.200650000000e+02 
1.922400000000e+07 1.200650000000e+02 
1.926720000000e+07 1.200650000000e+02 
1.931040000000e+07 1.200650000000e+02 
1.935360000000e+07 1.200650000000e+02 
1.939680000000e+07 1.200650000000e+02 
1.944000000000e+07 1.200650000000e+02 
1.948320000000e+07 1.200650000000e+02 
1.952640000000e+07 1.200650000000e+02 
1.956960000000e+07 1.200650000000e+02 
1.961280000000e+07 1.200650000000e+02 
1.965600000000e+07 1.200650000000e+02 
1.969920000000e+07 1.200650000000e+02 
1.974240000000e+07 1.200650000000e+02 
1.978560000000e+07 1.200650000000e+02 
1.982880000000e+07 1.200650000000e+02 
1.987200000000e+07 1.200650000000e+02 
1.991520000000e+07 1.200650000000e+02 
1.995840000000e+07 1.200650000000e+02 
2.000160000000e+07 1.200650000000e+02 
2.004480000000e+07 1.200650000000e+02 
2.008800000000e+07 1.200650000000e+02 
2.013120000000e+07 1.200650000000e+02 
2.017440000000e+07 1.200650000000e+02 
2.021760000000e+07 1.200650000000e+02 
2.026080000000e+07 1.200650000000e+02 
2.030400000000e+07 1.200650000000e+02 
2.034720000000e+07 1.200650000000e+02 
2.039040000000e+07 1.200650000000e+02 
2.043360000000e+07 1.200650000000e+02 
2.047680000000e+07 1.200650000000e+02 
2.052000000000e+07 1.200650000000e+02 
2.056320000000e+07 1.200650000000e+02 
2.060640000000e+07 1.200650000000e+02 
2.064960000000e+07 1.200650000000e+02 
2.069280000000e+07 1.200650000000e+02 
2.073600000000e+07 1.200650000000e+02 
2.077920000000e+07 1.200650000000e+02 
2.082240000000e+07 1.200650000000e+02 
2.086560000000e+07 1.200650000000e+02 
2.090880000000e+07 1.200650000000e+02 
2.095200000000e+07 1.200650000000e+02 
2.099520000000e+07 1.200650000000e+02 
2.103840000000e+07 1.200650000000e+02 
2.108160000000e+07 1.200650000000e+02 
2.112480000000e+07 1.200650000000e+02 
2.116800000000e+07 1.200650000000e+02 
2.121120000000e+07 1.200650000000e+02 
2.125440000000e+07 1.200650000000e+02 
2.129760000000e+07 1.200650000000e+02 
2.134080000000e+07 1.200650000000e+02 
2.138400000000e+07 1.200650000000e+02 
2.142720000000e+07 1.200650000000e+02 
2.147040000000e+07 1.200650000000e+02 
2.151360000000e+07 1.200650000000e+02 
2.155680000000e+07 1.200650000000e+02 
2.160000000000e+07 1.200650000000e+02 
2.164320000000e+07 1.200650000000e+02 
2.168640000000e+07 1.200650000000e+02 
2.172960000000e+07 1.200650000000e+02 
2.177280000000e+07 1.200650000000e+02 
2.181600000000e+07 1.200650000000e+02 
2.185920000000e+07 1.200650000000e+02 
2.190240000000e+07 1.200650000000e+02 
2.194560000000e+07 1.200650000000e+02 
2.198880000000e+07 1.200650000000e+02 
2.203200000000e+07 1.200650000000e+02 
2.207520000000e+07 1.200650000000e+02 
2.211840000000e+07 1.200650000000e+02 
2.216160000000e+07 1.200650000000e+02 
2.220480000000e+07 1.200650000000e+02 
2.224800000000e+07 1.200650000000e+02 
2.229120000000e+07 1.200650000000e+02 
2.233440000000e+07 1.200650000000e+02 
2.237760000000e+07 1.200650000000e+02 
2.242080000000e+07 1.200650000000e+02 
2.246400000000e+07 1.200650000000e+02 
2.250720000000e+07 1.200650000000e+02 
2.255040000000e+07 1.200650000000e+02 
2.259360000000e+07 1.200650000000e+02 
2.263680000000e+07 1.200650000000e+02 
2.268000000000e+07 1.200650000000e+02 
2.272320000000e+07 1.200650000000e+02 
2.276640000000e+07 1.200650000000e+02 
2.280960000000e+07 1.200650000000e+02 
2.285280000000e+07 1.200650000000e+02 
2.289600000000e+07 1.200650000000e+02 
2.293920000000e+07 1.200650000000e+02 
2.298240000000e+07 1.200650000000e+02 
2.302560000000e+07 1.200650000000e+02 
2.306880000000e+07 1.200650000000e+02 
2.311200000000e+07 1.200650000000e+02 
2.315520000000e+07 1.200650000000e+02 
2.319840000000e+07 1.200650000000e+02 
2.324160000000e+07 1.200650000000e+02 
2.328480000000e+07 1.200650000000e+02 
2.332800000000e+07 1.200650000000e+02 
2.337120000000e+07 1.200650000000e+02 
2.341440000000e+07 1.200650000000e+02 
2.345760000000e+07 1.200650000000e+02 
2.350080000000e+07 1.200650000000e+02 
2.354400000000e+07 1.200650000000e+02 
2.358720000000e+07 1.200650000000e+02 
2.363040000000e+07 1.200650000000e+02 
2.367360000000e+07 1.200650000000e+02 
2.371680000000e+07 1.200650000000e+02 
2.376000000000e+07 1.200650000000e+02 
2.380320000000e+07 1.200650000000e+02 
2.384640000000e+07 1.200650000000e+02 
2.388960000000e+07 1.200650000000e+02 
2.393280000000e+07 1.200650000000e+02 
2.397600000000e+07 1.200650000000e+02 
2.401920000000e+07 1.200650000000e+02 
2.406240000000e+07 1.200650000000e+02 
2.410560000000e+07 1.200650000000e+02 
2.414880000000e+07 1.200650000000e+02 
2.419200000000e+07 1.200650000000e+02 
2.423520000000e+07 1.200650000000e+02 
2.427840000000e+07 1.200650000000e+02 
2.432160000000e+07 1.200650000000e+02 
2.436480000000e+07 1.200650000000e+02 
2.440800000000e+07 1.200650000000e+02 
2.445120000000e+07 1.200650000000e+02 
2.449440000000e+07 1.200650000000e+02 
2.453760000000e+07 1.200650000000e+02 
2.458080000000e+07 1.200650000000e+02 
2.462400000000e+07 1.200650000000e+02 
2.466720000000e+07 1.200650000000e+02 
2.471040000000e+07 1.200650000000e+02 
2.475360000000e+07 1.200650000000e+02 
2.479680000000e+07 1.200650000000e+02 
2.484000000000e+07 1.200650000000e+02 
2.488320000000e+07 1.200650000000e+02 
2.492640000000e+07 1.200650000000e+02 
2.496960000000e+07 1.200650000000e+02 
2.501280000000e+07 1.200650000000e+02 
2.505600000000e+07 1.200650000000e+02 
2.509920000000e+07 1.200650000000e+02 
2.514240000000e+07 1.200650000000e+02 
2.518560000000e+07 1.200650000000e+02 
2.522880000000e+07 1.200650000000e+02 
2.527200000000e+07 1.200650000000e+02 
2.531520000000e+07 1.200650000000e+02 
2.535840000000e+07 1.200650000000e+02 
2.540160000000e+07 1.200650000000e+02 
2.544480000000e+07 1.200650000000e+02 
2.548800000000e+07 1.200650000000e+02 
2.553120000000e+07 1.200650000000e+02 
2.557440000000e+07 1.200650000000e+02 
2.561760000000e+07 1.200650000000e+02 
2.566080000000e+07 1.200650000000e+02 
2.570400000000e+07 1.200650000000e+02 
2.574720000000e+07 1.200650000000e+02 
2.579040000000e+07 1.200650000000e+02 
2.583360000000e+07 1.200650000000e+02 
2.587680000000e+07 1.200650000000e+02 
2.592000000000e+07 1.200650000000e+02 
2.596320000000e+07 1.200650000000e+02 
2.600640000000e+07 1.200650000000e+02 
2.604960000000e+07 1.200650000000e+02 
2.609280000000e+07 1.200650000000e+02 
2.613600000000e+07 1.200650000000e+02 
2.617920000000e+07 1.200650000000e+02 
2.622240000000e+07 1.200650000000e+02 
2.626560000000e+07 1.200650000000e+02 
2.630880000000e+07 1.200650000000e+02 
2.635200000000e+07 1.200650000000e+02 
2.639520000000e+07 1.200650000000e+02 
2.643840000000e+07 1.200650000000e+02 
2.648160000000e+07 1.200650000000e+02 
2.652480000000e+07 1.200650000000e+02 
2.656800000000e+07 1.200650000000e+02 
2.661120000000e+07 1.200650000000e+02 
2.665440000000e+07 1.200650000000e+02 
2.669760000000e+07 1.200650000000e+02 
2.674080000000e+07 1.200650000000e+02 
2.678400000000e+07 1.200650000000e+02 
2.682720000000e+07 1.200650000000e+02 
2.687040000000e+07 1.200650000000e+02 
2.691360000000e+07 1.200650000000e+02 
2.695680000000e+07 1.200650000000e+02 
2.700000000000e+07 1.200650000000e+02 
2.704320000000e+07 1.200650000000e+02 
2.708640000000e+07 1.200650000000e+02 
2.712960000000e+07 1.200650000000e+02 
2.717280000000e+07 1.200650000000e+02 
2.721600000000e+07 1.200650000000e+02 
2.725920000000e+07 1.200650000000e+02 
2.730240000000e+07 1.200650000000e+02 
2.734560000000e+07 1.200650000000e+02 
2.738880000000e+07 1.200650000000e+02 
2.743200000000e+07 1.200650000000e+02 
2.747520000000e+07 1.200650000000e+02 
2.751840000000e+07 1.200650000000e+02 
2.756160000000e+07 1.200650000000e+02 
2.760480000000e+07 1.200650000000e+02 
2.764800000000e+07 1.200650000000e+02 
2.769120000000e+07 1.200650000000e+02 
2.773440000000e+07 1.200650000000e+02 
2.777760000000e+07 1.200650000000e+02 
2.782080000000e+07 1.200650000000e+02 
2.786400000000e+07 1.200650000000e+02 
2.790720000000e+07 1.200650000000e+02 
2.795040000000e+07 1.200650000000e+02 
2.799360000000e+07 1.200650000000e+02 
2.803680000000e+07 1.200650000000e+02 
2.808000000000e+07 1.200650000000e+02 
2.812320000000e+07 1.200650000000e+02 
2.816640000000e+07 1.200650000000e+02 
2.820960000000e+07 1.200650000000e+02 
2.825280000000e+07 1.200650000000e+02 
2.829600000000e+07 1.200650000000e+02 
2.833920000000e+07 1.200650000000e+02 
2.838240000000e+07 1.200650000000e+02 
2.842560000000e+07 1.200650000000e+02 
2.846880000000e+07 1.200650000000e+02 
2.851200000000e+07 1.200650000000e+02 
2.855520000000e+07 1.200650000000e+02 
2.859840000000e+07 1.200650000000e+02 
2.864160000000e+07 1.200650000000e+02 
2.868480000000e+07 1.200650000000e+02 
2.872800000000e+07 1.200650000000e+02 
2.877120000000e+07 1.200650000000e+02 
2.881440000000e+07 1.200650000000e+02 
2.885760000000e+07 1.200650000000e+02 
2.890080000000e+07 1.200650000000e+02 
2.894400000000e+07 1.200650000000e+02 
2.898720000000e+07 1.200650000000e+02 
2.903040000000e+07 1.200650000000e+02 
2.907360000000e+07 1.200650000000e+02 
2.911680000000e+07 1.200650000000e+02 
2.916000000000e+07 1.200650000000e+02 
2.920320000000e+07 1.200650000000e+02 
2.924640000000e+07 1.200650000000e+02 
2.928960000000e+07 1.200650000000e+02 
2.933280000000e+07 1.200650000000e+02 
2.937600000000e+07 1.200650000000e+02 
2.941920000000e+07 1.200650000000e+02 
2.946240000000e+07 1.200650000000e+02 
2.950560000000e+07 1.200650000000e+02 
2.954880000000e+07 1.200650000000e+02 
2.959200000000e+07 1.200650000000e+02 
2.963520000000e+07 1.200650000000e+02 
2.967840000000e+07 1.200650000000e+02 
2.972160000000e+07 1.200650000000e+02 
2.976480000000e+07 1.200650000000e+02 
2.980800000000e+07 1.200650000000e+02 
2.985120000000e+07 1.200650000000e+02 
2.989440000000e+07 1.200650000000e+02 
2.993760000000e+07 1.200650000000e+02 
2.998080000000e+07 1.200650000000e+02 
3.002400000000e+07 1.200650000000e+02 
3.006720000000e+07 1.200650000000e+02 
3.011040000000e+07 1.200650000000e+02 
3.015360000000e+07 1.200650000000e+02 
3.019680000000e+07 1.200650000000e+02 
3.024000000000e+07 1.200650000000e+02 
3.028320000000e+07 1.200650000000e+02 
3.032640000000e+07 1.200650000000e+02 
3.036960000000e+07 1.200650000000e+02 
3.041280000000e+07 1.200650000000e+02 
3.045600000000e+07 1.200650000000e+02 
3.049920000000e+07 1.200650000000e+02 
3.054240000000e+07 1.200650000000e+02 
3.058560000000e+07 1.200650000000e+02 
3.062880000000e+07 1.200650000000e+02 
3.067200000000e+07 1.200650000000e+02 
3.071520000000e+07 1.200650000000e+02 
3.075840000000e+07 1.200650000000e+02 
3.080160000000e+07 1.200650000000e+02 
3.084480000000e+07 1.200650000000e+02 
3.088800000000e+07 1.200650000000e+02 
3.093120000000e+07 1.200650000000e+02 
3.097440000000e+07 1.200650000000e+02 
3.101760000000e+07 1.200650000000e+02 
3.106080000000e+07 1.200650000000e+02 
3.110400000000e+07 1.200650000000e+02 
3.114720000000e+07 1.200650000000e+02 
3.119040000000e+07 1.200650000000e+02 
3.123360000000e+07 1.200650000000e+02 
3.127680000000e+07 1.200650000000e+02 
3.132000000000e+07 1.200650000000e+02 
3.136320000000e+07 1.200650000000e+02 
3.140640000000e+07 1.200650000000e+02 
3.144960000000e+07 1.200650000000e+02 
3.149280000000e+07 1.200650000000e+02 
3.153600000000e+07 1.200650000000e+02 
3.157920000000e+07 1.200650000000e+02 
3.162240000000e+07 1.200650000000e+02 
3.166560000000e+07 1.200650000000e+02 
3.170880000000e+07 1.200650000000e+02 
3.175200000000e+07 1.200650000000e+02 
3.179520000000e+07 1.200650000000e+02 
3.183840000000e+07 1.200650000000e+02 
3.188160000000e+07 1.200650000000e+02 
3.192480000000e+07 1.200650000000e+02 
3.196800000000e+07 1.200650000000e+02 
3.201120000000e+07 1.200650000000e+02 
3.205440000000e+07 1.200650000000e+02 
3.209760000000e+07 1.200650000000e+02 
3.214080000000e+07 1.200650000000e+02 
3.218400000000e+07 1.200650000000e+02 
3.222720000000e+07 1.200650000000e+02 
3.227040000000e+07 1.200650000000e+02 
3.231360000000e+07 1.200650000000e+02 
3.235680000000e+07 1.200650000000e+02 
3.240000000000e+07 1.200650000000e+02 
3.244320000000e+07 1.200650000000e+02 
3.248640000000e+07 1.200650000000e+02 
3.252960000000e+07 1.200650000000e+02 
3.257280000000e+07 1.200650000000e+02 
3.261600000000e+07 1.200650000000e+02 
3.265920000000e+07 1.200650000000e+02 
3.270240000000e+07 1.200650000000e+02 
3.274560000000e+07 1.200650000000e+02 
3.278880000000e+07 1.200650000000e+02 
3.283200000000e+07 1.200650000000e+02 
3.287520000000e+07 1.200650000000e+02 
3.291840000000e+07 1.200650000000e+02 
3.296160000000e+07 1.200650000000e+02 
3.300480000000e+07 1.200650000000e+02 
3.304800000000e+07 1.200650000000e+02 
3.309120000000e+07 1.200650000000e+02 