 TITLE = "Profiles along polylines"
 VARIABLES = "DIST" "PRESSURE1" "SATURATION1" "TCE" "NAPL_TCE" "TEMPERATURE1" 
 ZONE T="TIME=0.000000000000e+00"
0.000000000000e+00 9.806700000000e+04 1.000000000000e+00 1.000000000000e-15 0.000000000000e+00 2.831500000000e+02 
3.300000000000e-01 9.806700000000e+04 1.000000000000e+00 1.000000000000e-15 0.000000000000e+00 2.831500000000e+02 
6.700000000000e-01 9.806700000000e+04 1.000000000000e+00 1.000000000000e-15 0.000000000000e+00 2.831500000000e+02 
1.000000000000e+00 9.806700000000e+04 1.000000000000e+00 1.000000000000e-15 0.000000000000e+00 2.831500000000e+02 
1.330000000000e+00 9.806700000000e+04 1.000000000000e+00 1.000000000000e-15 0.000000000000e+00 2.831500000000e+02 
1.670000000000e+00 9.806700000000e+04 1.000000000000e+00 1.000000000000e-15 0.000000000000e+00 2.831500000000e+02 
2.000000000000e+00 9.806700000000e+04 1.000000000000e+00 1.000000000000e-15 0.000000000000e+00 2.831500000000e+02 
2.330000000000e+00 9.806700000000e+04 1.000000000000e+00 1.000000000000e-15 0.000000000000e+00 2.831500000000e+02 
2.670000000000e+00 9.806700000000e+04 1.000000000000e+00 1.000000000000e-15 0.000000000000e+00 2.831500000000e+02 
3.000000000000e+00 9.806700000000e+04 1.000000000000e+00 1.000000000000e-15 0.000000000000e+00 2.831500000000e+02 
3.330000000000e+00 9.806700000000e+04 1.000000000000e+00 1.000000000000e-15 0.000000000000e+00 2.831500000000e+02 
3.670000000000e+00 9.806700000000e+04 1.000000000000e+00 1.000000000000e-15 0.000000000000e+00 2.831500000000e+02 
4.000000000000e+00 9.806700000000e+04 1.000000000000e+00 1.000000000000e-15 0.000000000000e+00 2.831500000000e+02 
4.330000000000e+00 9.806700000000e+04 1.000000000000e+00 1.000000000000e-15 0.000000000000e+00 2.831500000000e+02 
4.670000000000e+00 9.806700000000e+04 1.000000000000e+00 1.000000000000e-15 0.000000000000e+00 2.831500000000e+02 
5.000000000000e+00 9.806700000000e+04 9.500000000000e-01 1.206500000000e+01 1.944442500000e+02 2.831500000000e+02 
5.330000000000e+00 9.806700000000e+04 9.500000000000e-01 1.206500000000e+01 1.944442500000e+02 2.831500000000e+02 
5.670000000000e+00 9.806700000000e+04 9.500000000000e-01 1.206500000000e+01 1.944442500000e+02 2.831500000000e+02 
6.000000000000e+00 9.806700000000e+04 9.500000000000e-01 1.206500000000e+01 1.944442500000e+02 2.831500000000e+02 
6.330000000000e+00 9.806700000000e+04 9.500000000000e-01 1.206500000000e+01 1.944442500000e+02 2.831500000000e+02 
6.670000000000e+00 9.806700000000e+04 9.500000000000e-01 1.206500000000e+01 1.944442500000e+02 2.831500000000e+02 
7.000000000000e+00 9.806700000000e+04 9.500000000000e-01 1.206500000000e+01 1.944442500000e+02 2.831500000000e+02 
7.330000000000e+00 9.806700000000e+04 9.500000000000e-01 1.206500000000e+01 1.944442500000e+02 2.831500000000e+02 
7.670000000000e+00 9.806700000000e+04 9.500000000000e-01 1.206500000000e+01 1.944442500000e+02 2.831500000000e+02 
8.000000000000e+00 9.806700000000e+04 9.500000000000e-01 1.206500000000e+01 1.944442500000e+02 2.831500000000e+02 
8.330000000000e+00 9.806700000000e+04 9.500000000000e-01 1.206500000000e+01 1.944442500000e+02 2.831500000000e+02 
8.670000000000e+00 9.806700000000e+04 9.500000000000e-01 1.206500000000e+01 1.944442500000e+02 2.831500000000e+02 
9.000000000000e+00 9.806700000000e+04 9.500000000000e-01 1.206500000000e+01 1.944442500000e+02 2.831500000000e+02 
9.330000000000e+00 9.806700000000e+04 9.500000000000e-01 1.206500000000e+01 1.944442500000e+02 2.831500000000e+02 
9.670000000000e+00 9.806700000000e+04 9.500000000000e-01 1.206500000000e+01 1.944442500000e+02 2.831500000000e+02 
1.000000000000e+01 9.806700000000e+04 9.500000000000e-01 1.206500000000e+01 1.944442500000e+02 2.831500000000e+02 
1.033000000000e+01 9.806700000000e+04 9.500000000000e-01 1.206500000000e+01 1.944442500000e+02 2.831500000000e+02 
1.067000000000e+01 9.806700000000e+04 9.500000000000e-01 1.206500000000e+01 1.944442500000e+02 2.831500000000e+02 
1.100000000000e+01 9.806700000000e+04 9.500000000000e-01 1.206500000000e+01 1.944442500000e+02 2.831500000000e+02 
1.133000000000e+01 9.806700000000e+04 9.500000000000e-01 1.206500000000e+01 1.944442500000e+02 2.831500000000e+02 
1.167000000000e+01 9.806700000000e+04 9.500000000000e-01 1.206500000000e+01 1.944442500000e+02 2.831500000000e+02 
1.200000000000e+01 9.806700000000e+04 9.500000000000e-01 1.206500000000e+01 1.944442500000e+02 2.831500000000e+02 
1.233000000000e+01 9.806700000000e+04 9.500000000000e-01 1.206500000000e+01 1.944442500000e+02 2.831500000000e+02 
1.267000000000e+01 9.806700000000e+04 9.500000000000e-01 1.206500000000e+01 1.944442500000e+02 2.831500000000e+02 
1.300000000000e+01 9.806700000000e+04 9.500000000000e-01 1.206500000000e+01 1.944442500000e+02 2.831500000000e+02 
1.333000000000e+01 9.806700000000e+04 9.500000000000e-01 1.206500000000e+01 1.944442500000e+02 2.831500000000e+02 
1.367000000000e+01 9.806700000000e+04 9.500000000000e-01 1.206500000000e+01 1.944442500000e+02 2.831500000000e+02 
1.400000000000e+01 9.806700000000e+04 9.500000000000e-01 1.206500000000e+01 1.944442500000e+02 2.831500000000e+02 
1.433000000000e+01 9.806700000000e+04 9.500000000000e-01 1.206500000000e+01 1.944442500000e+02 2.831500000000e+02 
1.467000000000e+01 9.806700000000e+04 9.500000000000e-01 1.206500000000e+01 1.944442500000e+02 2.831500000000e+02 
1.500000000000e+01 9.806700000000e+04 9.500000000000e-01 1.206500000000e+01 1.944442500000e+02 2.831500000000e+02 
1.533000000000e+01 9.806700000000e+04 9.500000000000e-01 1.206500000000e+01 1.944442500000e+02 2.831500000000e+02 
1.567000000000e+01 9.806700000000e+04 9.500000000000e-01 1.206500000000e+01 1.944442500000e+02 2.831500000000e+02 
1.600000000000e+01 9.806700000000e+04 9.500000000000e-01 1.206500000000e+01 1.944442500000e+02 2.831500000000e+02 
1.633000000000e+01 9.806700000000e+04 9.500000000000e-01 1.206500000000e+01 1.944442500000e+02 2.831500000000e+02 
1.667000000000e+01 9.806700000000e+04 9.500000000000e-01 1.206500000000e+01 1.944442500000e+02 2.831500000000e+02 
1.700000000000e+01 9.806700000000e+04 9.500000000000e-01 1.206500000000e+01 1.944442500000e+02 2.831500000000e+02 
1.733000000000e+01 9.806700000000e+04 9.500000000000e-01 1.206500000000e+01 1.944442500000e+02 2.831500000000e+02 
1.767000000000e+01 9.806700000000e+04 9.500000000000e-01 1.206500000000e+01 1.944442500000e+02 2.831500000000e+02 
1.800000000000e+01 9.806700000000e+04 9.500000000000e-01 1.206500000000e+01 1.944442500000e+02 2.831500000000e+02 
1.833000000000e+01 9.806700000000e+04 9.500000000000e-01 1.206500000000e+01 1.944442500000e+02 2.831500000000e+02 
1.867000000000e+01 9.806700000000e+04 9.500000000000e-01 1.206500000000e+01 1.944442500000e+02 2.831500000000e+02 
1.900000000000e+01 9.806700000000e+04 9.500000000000e-01 1.206500000000e+01 1.944442500000e+02 2.831500000000e+02 
1.933000000000e+01 9.806700000000e+04 9.500000000000e-01 1.206500000000e+01 1.944442500000e+02 2.831500000000e+02 
1.967000000000e+01 9.806700000000e+04 9.500000000000e-01 1.206500000000e+01 1.944442500000e+02 2.831500000000e+02 
2.000000000000e+01 9.806700000000e+04 9.500000000000e-01 1.206500000000e+01 1.944442500000e+02 2.831500000000e+02 
2.033000000000e+01 9.806700000000e+04 9.500000000000e-01 1.206500000000e+01 1.944442500000e+02 2.831500000000e+02 
2.067000000000e+01 9.806700000000e+04 9.500000000000e-01 1.206500000000e+01 1.944442500000e+02 2.831500000000e+02 
2.100000000000e+01 9.806700000000e+04 9.500000000000e-01 1.206500000000e+01 1.944442500000e+02 2.831500000000e+02 
2.133000000000e+01 9.806700000000e+04 9.500000000000e-01 1.206500000000e+01 1.944442500000e+02 2.831500000000e+02 
2.167000000000e+01 9.806700000000e+04 9.500000000000e-01 1.206500000000e+01 1.944442500000e+02 2.831500000000e+02 
2.200000000000e+01 9.806700000000e+04 9.500000000000e-01 1.206500000000e+01 1.944442500000e+02 2.831500000000e+02 
2.233000000000e+01 9.806700000000e+04 9.500000000000e-01 1.206500000000e+01 1.944442500000e+02 2.831500000000e+02 
2.267000000000e+01 9.806700000000e+04 9.500000000000e-01 1.206500000000e+01 1.944442500000e+02 2.831500000000e+02 
2.300000000000e+01 9.806700000000e+04 9.500000000000e-01 1.206500000000e+01 1.944442500000e+02 2.831500000000e+02 
2.333000000000e+01 9.806700000000e+04 9.500000000000e-01 1.206500000000e+01 1.944442500000e+02 2.831500000000e+02 
2.367000000000e+01 9.806700000000e+04 9.500000000000e-01 1.206500000000e+01 1.944442500000e+02 2.831500000000e+02 
2.400000000000e+01 9.806700000000e+04 9.500000000000e-01 1.206500000000e+01 1.944442500000e+02 2.831500000000e+02 
2.433000000000e+01 9.806700000000e+04 9.500000000000e-01 1.206500000000e+01 1.944442500000e+02 2.831500000000e+02 
2.467000000000e+01 9.806700000000e+04 9.500000000000e-01 1.206500000000e+01 1.944442500000e+02 2.831500000000e+02 
2.500000000000e+01 9.806700000000e+04 9.500000000000e-01 1.206500000000e+01 1.944442500000e+02 2.831500000000e+02 
2.533000000000e+01 9.806700000000e+04 9.500000000000e-01 1.206500000000e+01 1.944442500000e+02 2.831500000000e+02 
2.567000000000e+01 9.806700000000e+04 9.500000000000e-01 1.206500000000e+01 1.944442500000e+02 2.831500000000e+02 
2.600000000000e+01 9.806700000000e+04 9.500000000000e-01 1.206500000000e+01 1.944442500000e+02 2.831500000000e+02 
2.633000000000e+01 9.806700000000e+04 9.500000000000e-01 1.206500000000e+01 1.944442500000e+02 2.831500000000e+02 
2.667000000000e+01 9.806700000000e+04 9.500000000000e-01 1.206500000000e+01 1.944442500000e+02 2.831500000000e+02 
2.700000000000e+01 9.806700000000e+04 9.500000000000e-01 1.206500000000e+01 1.944442500000e+02 2.831500000000e+02 
2.733000000000e+01 9.806700000000e+04 9.500000000000e-01 1.206500000000e+01 1.944442500000e+02 2.831500000000e+02 
2.767000000000e+01 9.806700000000e+04 9.500000000000e-01 1.206500000000e+01 1.944442500000e+02 2.831500000000e+02 
2.800000000000e+01 9.806700000000e+04 9.500000000000e-01 1.206500000000e+01 1.944442500000e+02 2.831500000000e+02 
2.833000000000e+01 9.806700000000e+04 9.500000000000e-01 1.206500000000e+01 1.944442500000e+02 2.831500000000e+02 
2.867000000000e+01 9.806700000000e+04 9.500000000000e-01 1.206500000000e+01 1.944442500000e+02 2.831500000000e+02 
2.900000000000e+01 9.806700000000e+04 9.500000000000e-01 1.206500000000e+01 1.944442500000e+02 2.831500000000e+02 
2.933000000000e+01 9.806700000000e+04 9.500000000000e-01 1.206500000000e+01 1.944442500000e+02 2.831500000000e+02 
2.967000000000e+01 9.806700000000e+04 9.500000000000e-01 1.206500000000e+01 1.944442500000e+02 2.831500000000e+02 
3.000000000000e+01 9.806700000000e+04 9.500000000000e-01 1.206500000000e+01 1.944442500000e+02 2.831500000000e+02 
3.033000000000e+01 9.806700000000e+04 1.000000000000e+00 1.000000000000e-15 0.000000000000e+00 2.831500000000e+02 
3.067000000000e+01 9.806700000000e+04 1.000000000000e+00 1.000000000000e-15 0.000000000000e+00 2.831500000000e+02 
3.100000000000e+01 9.806700000000e+04 1.000000000000e+00 1.000000000000e-15 0.000000000000e+00 2.831500000000e+02 
3.133000000000e+01 9.806700000000e+04 1.000000000000e+00 1.000000000000e-15 0.000000000000e+00 2.831500000000e+02 
3.167000000000e+01 9.806700000000e+04 1.000000000000e+00 1.000000000000e-15 0.000000000000e+00 2.831500000000e+02 
3.200000000000e+01 9.806700000000e+04 1.000000000000e+00 1.000000000000e-15 0.000000000000e+00 2.831500000000e+02 
3.233000000000e+01 9.806700000000e+04 1.000000000000e+00 1.000000000000e-15 0.000000000000e+00 2.831500000000e+02 
3.267000000000e+01 9.806700000000e+04 1.000000000000e+00 1.000000000000e-15 0.000000000000e+00 2.831500000000e+02 
3.300000000000e+01 9.806700000000e+04 1.000000000000e+00 1.000000000000e-15 0.000000000000e+00 2.831500000000e+02 
3.333000000000e+01 9.806700000000e+04 1.000000000000e+00 1.000000000000e-15 0.000000000000e+00 2.831500000000e+02 
3.367000000000e+01 9.806700000000e+04 1.000000000000e+00 1.000000000000e-15 0.000000000000e+00 2.831500000000e+02 
3.400000000000e+01 9.806700000000e+04 1.000000000000e+00 1.000000000000e-15 0.000000000000e+00 2.831500000000e+02 
3.433000000000e+01 9.806700000000e+04 1.000000000000e+00 1.000000000000e-15 0.000000000000e+00 2.831500000000e+02 
3.467000000000e+01 9.806700000000e+04 1.000000000000e+00 1.000000000000e-15 0.000000000000e+00 2.831500000000e+02 
3.500000000000e+01 9.806700000000e+04 1.000000000000e+00 1.000000000000e-15 0.000000000000e+00 2.831500000000e+02 
3.533000000000e+01 9.806700000000e+04 1.000000000000e+00 1.000000000000e-15 0.000000000000e+00 2.831500000000e+02 
3.567000000000e+01 9.806700000000e+04 1.000000000000e+00 1.000000000000e-15 0.000000000000e+00 2.831500000000e+02 
3.600000000000e+01 9.806700000000e+04 1.000000000000e+00 1.000000000000e-15 0.000000000000e+00 2.831500000000e+02 
3.633000000000e+01 9.806700000000e+04 1.000000000000e+00 1.000000000000e-15 0.000000000000e+00 2.831500000000e+02 
3.667000000000e+01 9.806700000000e+04 1.000000000000e+00 1.000000000000e-15 0.000000000000e+00 2.831500000000e+02 
3.700000000000e+01 9.806700000000e+04 1.000000000000e+00 1.000000000000e-15 0.000000000000e+00 2.831500000000e+02 
3.733000000000e+01 9.806700000000e+04 1.000000000000e+00 1.000000000000e-15 0.000000000000e+00 2.831500000000e+02 
3.767000000000e+01 9.806700000000e+04 1.000000000000e+00 1.000000000000e-15 0.000000000000e+00 2.831500000000e+02 
3.800000000000e+01 9.806700000000e+04 1.000000000000e+00 1.000000000000e-15 0.000000000000e+00 2.831500000000e+02 
3.833000000000e+01 9.806700000000e+04 1.000000000000e+00 1.000000000000e-15 0.000000000000e+00 2.831500000000e+02 
3.867000000000e+01 9.806700000000e+04 1.000000000000e+00 1.000000000000e-15 0.000000000000e+00 2.831500000000e+02 
3.900000000000e+01 9.806700000000e+04 1.000000000000e+00 1.000000000000e-15 0.000000000000e+00 2.831500000000e+02 
3.933000000000e+01 9.806700000000e+04 1.000000000000e+00 1.000000000000e-15 0.000000000000e+00 2.831500000000e+02 
3.967000000000e+01 9.806700000000e+04 1.000000000000e+00 1.000000000000e-15 0.000000000000e+00 2.831500000000e+02 
4.000000000000e+01 9.806700000000e+04 1.000000000000e+00 1.000000000000e-15 0.000000000000e+00 2.831500000000e+02 
4.033000000000e+01 9.806700000000e+04 1.000000000000e+00 1.000000000000e-15 0.000000000000e+00 2.831500000000e+02 
4.067000000000e+01 9.806700000000e+04 1.000000000000e+00 1.000000000000e-15 0.000000000000e+00 2.831500000000e+02 
4.100000000000e+01 9.806700000000e+04 1.000000000000e+00 1.000000000000e-15 0.000000000000e+00 2.831500000000e+02 
4.133000000000e+01 9.806700000000e+04 1.000000000000e+00 1.000000000000e-15 0.000000000000e+00 2.831500000000e+02 
4.167000000000e+01 9.806700000000e+04 1.000000000000e+00 1.000000000000e-15 0.000000000000e+00 2.831500000000e+02 
4.200000000000e+01 9.806700000000e+04 1.000000000000e+00 1.000000000000e-15 0.000000000000e+00 2.831500000000e+02 
4.233000000000e+01 9.806700000000e+04 1.000000000000e+00 1.000000000000e-15 0.000000000000e+00 2.831500000000e+02 
4.267000000000e+01 9.806700000000e+04 1.000000000000e+00 1.000000000000e-15 0.000000000000e+00 2.831500000000e+02 
4.300000000000e+01 9.806700000000e+04 1.000000000000e+00 1.000000000000e-15 0.000000000000e+00 2.831500000000e+02 
4.333000000000e+01 9.806700000000e+04 1.000000000000e+00 1.000000000000e-15 0.000000000000e+00 2.831500000000e+02 
4.367000000000e+01 9.806700000000e+04 1.000000000000e+00 1.000000000000e-15 0.000000000000e+00 2.831500000000e+02 
4.400000000000e+01 9.806700000000e+04 1.000000000000e+00 1.000000000000e-15 0.000000000000e+00 2.831500000000e+02 
4.433000000000e+01 9.806700000000e+04 1.000000000000e+00 1.000000000000e-15 0.000000000000e+00 2.831500000000e+02 
4.467000000000e+01 9.806700000000e+04 1.000000000000e+00 1.000000000000e-15 0.000000000000e+00 2.831500000000e+02 
4.500000000000e+01 9.806700000000e+04 1.000000000000e+00 1.000000000000e-15 0.000000000000e+00 2.831500000000e+02 
4.533000000000e+01 9.806700000000e+04 1.000000000000e+00 1.000000000000e-15 0.000000000000e+00 2.831500000000e+02 
4.567000000000e+01 9.806700000000e+04 1.000000000000e+00 1.000000000000e-15 0.000000000000e+00 2.831500000000e+02 
4.600000000000e+01 9.806700000000e+04 1.000000000000e+00 1.000000000000e-15 0.000000000000e+00 2.831500000000e+02 
4.633000000000e+01 9.806700000000e+04 1.000000000000e+00 1.000000000000e-15 0.000000000000e+00 2.831500000000e+02 
4.667000000000e+01 9.806700000000e+04 1.000000000000e+00 1.000000000000e-15 0.000000000000e+00 2.831500000000e+02 
4.700000000000e+01 9.806700000000e+04 1.000000000000e+00 1.000000000000e-15 0.000000000000e+00 2.831500000000e+02 
4.733000000000e+01 9.806700000000e+04 1.000000000000e+00 1.000000000000e-15 0.000000000000e+00 2.831500000000e+02 
4.767000000000e+01 9.806700000000e+04 1.000000000000e+00 1.000000000000e-15 0.000000000000e+00 2.831500000000e+02 
4.800000000000e+01 9.806700000000e+04 1.000000000000e+00 1.000000000000e-15 0.000000000000e+00 2.831500000000e+02 
4.833000000000e+01 9.806700000000e+04 1.000000000000e+00 1.000000000000e-15 0.000000000000e+00 2.831500000000e+02 
4.867000000000e+01 9.806700000000e+04 1.000000000000e+00 1.000000000000e-15 0.000000000000e+00 2.831500000000e+02 
4.900000000000e+01 9.806700000000e+04 1.000000000000e+00 1.000000000000e-15 0.000000000000e+00 2.831500000000e+02 
4.933000000000e+01 9.806700000000e+04 1.000000000000e+00 1.000000000000e-15 0.000000000000e+00 2.831500000000e+02 
4.967000000000e+01 9.806700000000e+04 1.000000000000e+00 1.000000000000e-15 0.000000000000e+00 2.831500000000e+02 
5.000000000000e+01 9.806700000000e+04 1.000000000000e+00 1.000000000000e-15 0.000000000000e+00 2.831500000000e+02 
 ZONE T="TIME=8.640000000000e+06"
0.000000000000e+00 9.810000000000e+04 1.000000000000e+00 1.000000000000e-15 0.000000000000e+00 2.831500000000e+02 
3.300000000000e-01 9.807330024996e+04 1.000000000000e+00 9.615526430595e-16 0.000000000000e+00 2.831500000000e+02 
6.700000000000e-01 9.804579141663e+04 1.000000000000e+00 1.115611880819e-15 0.000000000000e+00 2.831500000000e+02 
1.000000000000e+00 9.801909166663e+04 1.000000000000e+00 7.605352823899e-16 0.000000000000e+00 2.831500000000e+02 
1.330000000000e+00 9.799239191658e+04 1.000000000000e+00 -8.801350901578e-16 0.000000000000e+00 2.831500000000e+02 
1.670000000000e+00 9.796488308322e+04 1.000000000000e+00 -1.752662269743e-14 0.000000000000e+00 2.831500000000e+02 
2.000000000000e+00 9.793818333321e+04 1.000000000000e+00 -9.463359803461e-14 0.000000000000e+00 2.831500000000e+02 
2.330000000000e+00 9.791148358322e+04 1.000000000000e+00 9.209458297840e-13 0.000000000000e+00 2.831500000000e+02 
2.670000000000e+00 9.788397474983e+04 1.000000000000e+00 -1.205400182952e-12 0.000000000000e+00 2.831500000000e+02 
3.000000000000e+00 9.785727499981e+04 1.000000000000e+00 -2.186370116601e-12 0.000000000000e+00 2.831500000000e+02 
3.330000000000e+00 9.783057524981e+04 1.000000000000e+00 5.219684795556e-12 0.000000000000e+00 2.831500000000e+02 
3.670000000000e+00 9.780306641649e+04 1.000000000000e+00 3.433317364192e-13 0.000000000000e+00 2.831500000000e+02 
4.000000000000e+00 9.777636666643e+04 1.000000000000e+00 3.053245615261e-13 0.000000000000e+00 2.831500000000e+02 
4.330000000000e+00 9.774966691641e+04 1.000000000000e+00 -4.816850120738e-11 0.000000000000e+00 2.831500000000e+02 
4.670000000000e+00 9.772215808308e+04 1.000000000000e+00 2.751304602906e-10 0.000000000000e+00 2.831500000000e+02 
5.000000000000e+00 9.769545833310e+04 1.000000000000e+00 -1.708284215594e-09 1.638337868713e-16 2.831500000000e+02 
5.330000000000e+00 9.766875858304e+04 1.000000000000e+00 1.059757946330e-08 2.144848121419e-16 2.831500000000e+02 
5.670000000000e+00 9.764124974969e+04 1.000000000000e+00 -5.786950350273e-08 1.633684907273e-16 2.831500000000e+02 
6.000000000000e+00 9.761454999970e+04 1.000000000000e+00 3.350772525998e-07 8.963789488171e-27 2.831500000000e+02 
6.330000000000e+00 9.758785024973e+04 1.000000000000e+00 -1.878626973641e-06 9.446295310598e-17 2.831500000000e+02 
6.670000000000e+00 9.756034141634e+04 1.000000000000e+00 9.481343315012e-06 1.018258574971e-26 2.831500000000e+02 
7.000000000000e+00 9.753364166633e+04 1.000000000000e+00 -4.963807820671e-05 1.082254299610e-26 2.831500000000e+02 
7.330000000000e+00 9.750694191634e+04 1.000000000000e+00 2.519318386047e-04 1.767402799675e-16 2.831500000000e+02 
7.670000000000e+00 9.747943308305e+04 1.000000000000e+00 -1.174385597181e-03 1.174988596804e-26 2.831500000000e+02 
8.000000000000e+00 9.745273333301e+04 1.000000000000e+00 5.538325936944e-03 9.654424884741e-27 2.831500000000e+02 
8.330000000000e+00 9.742603358300e+04 1.000000000000e+00 -2.494755962916e-02 8.216024957843e-17 2.831500000000e+02 
8.670000000000e+00 9.739852474968e+04 1.000000000000e+00 1.057051805833e-01 1.035982677138e-26 2.831500000000e+02 
9.000000000000e+00 9.737182499973e+04 1.000000000000e+00 -3.182250650818e-01 5.605927698063e-11 2.831500000000e+02 
9.330000000000e+00 9.734512524971e+04 1.000000000000e+00 6.014600207582e+00 3.772946250505e-05 2.831500000000e+02 
9.670000000000e+00 9.731719903130e+04 9.931537462997e-01 1.200636344867e+02 2.488473519745e+01 2.831500000000e+02 
1.000000000000e+01 9.728795080713e+04 9.657157157236e-01 1.200650394319e+02 1.389242843199e+02 2.831500000000e+02 
1.033000000000e+01 9.725653453893e+04 9.619838998658e-01 1.200691756177e+02 1.555742611701e+02 2.831500000000e+02 
1.067000000000e+01 9.722384361253e+04 9.614184378836e-01 1.200638278176e+02 1.581167965365e+02 2.831500000000e+02 
1.100000000000e+01 9.719206695258e+04 9.613400310196e-01 1.200648180652e+02 1.584694485339e+02 2.831500000000e+02 
1.133000000000e+01 9.716028364116e+04 9.613278510577e-01 1.200649718795e+02 1.585242477104e+02 2.831500000000e+02 
1.167000000000e+01 9.712753613377e+04 9.613259507140e-01 1.200649959142e+02 1.585327991682e+02 2.831500000000e+02 
1.200000000000e+01 9.709575162873e+04 9.613256784029e-01 1.200649993647e+02 1.585340247672e+02 2.831500000000e+02 
1.233000000000e+01 9.706396710058e+04 9.613256360906e-01 1.200649999018e+02 1.585342152341e+02 2.831500000000e+02 
1.267000000000e+01 9.703121940126e+04 9.613256294888e-01 1.200649999857e+02 1.585342449569e+02 2.831500000000e+02 
1.300000000000e+01 9.699943486904e+04 9.613256285428e-01 1.200649999978e+02 1.585342492168e+02 2.831500000000e+02 
1.333000000000e+01 9.696765033669e+04 9.613256283958e-01 1.200649999997e+02 1.585342498788e+02 2.831500000000e+02 
1.367000000000e+01 9.693490263664e+04 9.613256283728e-01 1.200650000000e+02 1.585342499821e+02 2.831500000000e+02 
1.400000000000e+01 9.690311810430e+04 9.613256283696e-01 1.200650000000e+02 1.585342499969e+02 2.831500000000e+02 
1.433000000000e+01 9.687133357198e+04 9.613256283690e-01 1.200650000000e+02 1.585342499992e+02 2.831500000000e+02 
1.467000000000e+01 9.683858587197e+04 9.613256283690e-01 1.200650000000e+02 1.585342499995e+02 2.831500000000e+02 
1.500000000000e+01 9.680680133956e+04 9.613256283690e-01 1.200650000000e+02 1.585342499996e+02 2.831500000000e+02 
1.533000000000e+01 9.677501680722e+04 9.613256283690e-01 1.200650000000e+02 1.585342499996e+02 2.831500000000e+02 
1.567000000000e+01 9.674226910723e+04 9.613256283690e-01 1.200650000000e+02 1.585342499996e+02 2.831500000000e+02 
1.600000000000e+01 9.671048457487e+04 9.613256283690e-01 1.200650000000e+02 1.585342499996e+02 2.831500000000e+02 
1.633000000000e+01 9.667870004245e+04 9.613256283690e-01 1.200650000000e+02 1.585342499996e+02 2.831500000000e+02 
1.667000000000e+01 9.664595234245e+04 9.613256283690e-01 1.200650000000e+02 1.585342499996e+02 2.831500000000e+02 
1.700000000000e+01 9.661416781009e+04 9.613256283690e-01 1.200650000000e+02 1.585342499996e+02 2.831500000000e+02 
1.733000000000e+01 9.658238327772e+04 9.613256283690e-01 1.200650000000e+02 1.585342499996e+02 2.831500000000e+02 
1.767000000000e+01 9.654963557763e+04 9.613256283690e-01 1.200650000000e+02 1.585342499996e+02 2.831500000000e+02 
1.800000000000e+01 9.651785104527e+04 9.613256283690e-01 1.200650000000e+02 1.585342499996e+02 2.831500000000e+02 
1.833000000000e+01 9.648606651289e+04 9.613256283690e-01 1.200650000000e+02 1.585342499996e+02 2.831500000000e+02 
1.867000000000e+01 9.645331881284e+04 9.613256283690e-01 1.200650000000e+02 1.585342499996e+02 2.831500000000e+02 
1.900000000000e+01 9.642153428038e+04 9.613256283690e-01 1.200650000000e+02 1.585342499996e+02 2.831500000000e+02 
1.933000000000e+01 9.638974974798e+04 9.613256283690e-01 1.200650000000e+02 1.585342499996e+02 2.831500000000e+02 
1.967000000000e+01 9.635700204792e+04 9.613256283690e-01 1.200650000000e+02 1.585342499996e+02 2.831500000000e+02 
2.000000000000e+01 9.632521751548e+04 9.613256283690e-01 1.200650000000e+02 1.585342499996e+02 2.831500000000e+02 
2.033000000000e+01 9.629343298298e+04 9.613256283690e-01 1.200650000000e+02 1.585342499996e+02 2.831500000000e+02 
2.067000000000e+01 9.626068528288e+04 9.613256283690e-01 1.200650000000e+02 1.585342499996e+02 2.831500000000e+02 
2.100000000000e+01 9.622890075042e+04 9.613256283690e-01 1.200650000000e+02 1.585342499996e+02 2.831500000000e+02 
2.133000000000e+01 9.619711621793e+04 9.613256283690e-01 1.200650000000e+02 1.585342499996e+02 2.831500000000e+02 
2.167000000000e+01 9.616436851773e+04 9.613256283690e-01 1.200650000000e+02 1.585342499996e+02 2.831500000000e+02 
2.200000000000e+01 9.613258398521e+04 9.613256283690e-01 1.200650000000e+02 1.585342499996e+02 2.831500000000e+02 
2.233000000000e+01 9.610079945267e+04 9.613256283690e-01 1.200650000000e+02 1.585342499996e+02 2.831500000000e+02 
2.267000000000e+01 9.606805175245e+04 9.613256283690e-01 1.200650000000e+02 1.585342499996e+02 2.831500000000e+02 
2.300000000000e+01 9.603626721982e+04 9.613256283690e-01 1.200650000000e+02 1.585342499996e+02 2.831500000000e+02 
2.333000000000e+01 9.600448268719e+04 9.613256283690e-01 1.200650000000e+02 1.585342499996e+02 2.831500000000e+02 
2.367000000000e+01 9.597173498691e+04 9.613256283690e-01 1.200650000000e+02 1.585342499996e+02 2.831500000000e+02 
2.400000000000e+01 9.593995045423e+04 9.613256283690e-01 1.200650000000e+02 1.585342499996e+02 2.831500000000e+02 
2.433000000000e+01 9.590816592149e+04 9.613256283689e-01 1.200650000000e+02 1.585342499997e+02 2.831500000000e+02 
2.467000000000e+01 9.587541822108e+04 9.613256283690e-01 1.200650000000e+02 1.585342499994e+02 2.831500000000e+02 
2.500000000000e+01 9.584363368833e+04 9.613256283687e-01 1.200650000000e+02 1.585342500006e+02 2.831500000000e+02 
2.533000000000e+01 9.581184915552e+04 9.613256283700e-01 1.200650000000e+02 1.585342499954e+02 2.831500000000e+02 
2.567000000000e+01 9.577910145497e+04 9.613256283646e-01 1.200650000000e+02 1.585342500169e+02 2.831500000000e+02 
2.600000000000e+01 9.574731692206e+04 9.613256283873e-01 1.200650000000e+02 1.585342499260e+02 2.831500000000e+02 
2.633000000000e+01 9.571553238914e+04 9.613256282914e-01 1.200650000000e+02 1.585342503106e+02 2.831500000000e+02 
2.667000000000e+01 9.568278468851e+04 9.613256286863e-01 1.200650000000e+02 1.585342487265e+02 2.831500000000e+02 
2.700000000000e+01 9.565100015538e+04 9.613256270209e-01 1.200650000000e+02 1.585342554077e+02 2.831500000000e+02 
2.733000000000e+01 9.561921562259e+04 9.613256340626e-01 1.200650000000e+02 1.585342271580e+02 2.831500000000e+02 
2.767000000000e+01 9.558646792049e+04 9.613256050621e-01 1.200650000000e+02 1.585343435021e+02 2.831500000000e+02 
2.800000000000e+01 9.555468339287e+04 9.613257273747e-01 1.200650000000e+02 1.585338528022e+02 2.831500000000e+02 
2.833000000000e+01 9.552289883618e+04 9.613252102144e-01 1.200650000000e+02 1.585359276052e+02 2.831500000000e+02 
2.867000000000e+01 9.549015123304e+04 9.613273400833e-01 1.200650000000e+02 1.585273826916e+02 2.831500000000e+02 
2.900000000000e+01 9.545836629145e+04 9.613183574585e-01 1.200650000000e+02 1.585634220653e+02 2.831500000000e+02 
2.933000000000e+01 9.542658347972e+04 9.613563432306e-01 1.200650000000e+02 1.584110354413e+02 2.831500000000e+02 
2.967000000000e+01 9.539382858672e+04 9.611998713125e-01 1.200650000000e+02 1.590390914557e+02 2.831500000000e+02 
3.000000000000e+01 9.536207419585e+04 9.618619594706e-01 1.200650000000e+02 1.563872522023e+02 2.831500000000e+02 
3.033000000000e+01 9.533303492510e+04 1.000000000000e+00 1.200650000000e+02 0.000000000000e+00 2.831500000000e+02 
3.067000000000e+01 9.530552609065e+04 1.000000000000e+00 1.200650000000e+02 0.000000000000e+00 2.831500000000e+02 
3.100000000000e+01 9.527882633949e+04 1.000000000000e+00 1.200650000000e+02 0.000000000000e+00 2.831500000000e+02 
3.133000000000e+01 9.525212658819e+04 1.000000000000e+00 1.200650000000e+02 0.000000000000e+00 2.831500000000e+02 
3.167000000000e+01 9.522461775353e+04 1.000000000000e+00 1.200650000000e+02 0.000000000000e+00 2.831500000000e+02 
3.200000000000e+01 9.519791800216e+04 1.000000000000e+00 1.200650000000e+02 0.000000000000e+00 2.831500000000e+02 
3.233000000000e+01 9.517121825071e+04 1.000000000000e+00 1.200650000000e+02 0.000000000000e+00 2.831500000000e+02 
3.267000000000e+01 9.514370941573e+04 1.000000000000e+00 1.200650000000e+02 0.000000000000e+00 2.831500000000e+02 
3.300000000000e+01 9.511700966413e+04 1.000000000000e+00 1.200650000000e+02 0.000000000000e+00 2.831500000000e+02 
3.333000000000e+01 9.509030991245e+04 1.000000000000e+00 1.200650000000e+02 0.000000000000e+00 2.831500000000e+02 
3.367000000000e+01 9.506280107729e+04 1.000000000000e+00 1.200650000000e+02 0.000000000000e+00 2.831500000000e+02 
3.400000000000e+01 9.503610132536e+04 1.000000000000e+00 1.200650000000e+02 0.000000000000e+00 2.831500000000e+02 
3.433000000000e+01 9.500940157342e+04 1.000000000000e+00 1.200650000000e+02 0.000000000000e+00 2.831500000000e+02 
3.467000000000e+01 9.498189273800e+04 1.000000000000e+00 1.200650000000e+02 0.000000000000e+00 2.831500000000e+02 
3.500000000000e+01 9.495519298587e+04 1.000000000000e+00 1.200650000000e+02 0.000000000000e+00 2.831500000000e+02 
3.533000000000e+01 9.492849323359e+04 1.000000000000e+00 1.200650000000e+02 0.000000000000e+00 2.831500000000e+02 
3.567000000000e+01 9.490098439788e+04 1.000000000000e+00 1.200650000000e+02 0.000000000000e+00 2.831500000000e+02 