 TITLE = "Time curves in points"
 VARIABLES = "TIME "  "TCE" 
 ZONE T="POINT=POINT6"
0.000000000000e+00 1.000000000000e-15 
4.320000000000e+04 1.000000000000e-15 
8.640000000000e+04 1.000000000000e-15 
1.296000000000e+05 1.000000000000e-15 
1.728000000000e+05 1.000000000000e-15 
2.160000000000e+05 1.000000000000e-15 
2.592000000000e+05 1.000000000000e-15 
3.024000000000e+05 1.000000000000e-15 
3.456000000000e+05 1.000000000000e-15 
3.888000000000e+05 1.000000000000e-15 
4.320000000000e+05 1.000000000000e-15 
4.752000000000e+05 1.000000000000e-15 
5.184000000000e+05 1.000000000000e-15 
5.616000000000e+05 1.000000000000e-15 
6.048000000000e+05 1.000000000000e-15 
6.480000000000e+05 1.000000000000e-15 
6.912000000000e+05 1.000000000000e-15 
7.344000000000e+05 1.000000000000e-15 
7.776000000000e+05 1.000000000000e-15 
8.208000000000e+05 1.000000000000e-15 
8.640000000000e+05 1.000000000000e-15 
9.072000000000e+05 1.000000000001e-15 
9.504000000000e+05 1.000000000007e-15 
9.936000000000e+05 1.000000000036e-15 
1.036800000000e+06 1.000000000175e-15 
1.080000000000e+06 1.000000000807e-15 
1.123200000000e+06 1.000000003570e-15 
1.166400000000e+06 1.000000015136e-15 
1.209600000000e+06 1.000000061656e-15 
1.252800000000e+06 1.000000241675e-15 
1.296000000000e+06 1.000000912867e-15 
1.339200000000e+06 1.000003327377e-15 
1.382400000000e+06 1.000011718660e-15 
1.425600000000e+06 1.000039927004e-15 
1.468800000000e+06 1.000131756059e-15 
1.512000000000e+06 1.000421565558e-15 
1.555200000000e+06 1.001309185943e-15 
1.598400000000e+06 1.003950097896e-15 
1.641600000000e+06 1.011590253462e-15 
1.684800000000e+06 1.033101322854e-15 
1.728000000000e+06 1.092095018178e-15 
1.771200000000e+06 1.249815858380e-15 
1.814400000000e+06 1.661204490364e-15 
1.857600000000e+06 2.708866258452e-15 
1.900800000000e+06 5.315666853324e-15 
1.944000000000e+06 1.165745225134e-14 
1.987200000000e+06 2.675199329006e-14 
2.030400000000e+06 6.192495830823e-14 
2.073600000000e+06 1.422117146696e-13 
2.116800000000e+06 3.218421035452e-13 
2.160000000000e+06 7.159926980513e-13 
2.203200000000e+06 1.564640165715e-12 
2.246400000000e+06 3.358560439578e-12 
2.289600000000e+06 7.083411139660e-12 
2.332800000000e+06 1.468415346798e-11 
2.376000000000e+06 2.993340940468e-11 
2.419200000000e+06 6.002766553493e-11 
2.462400000000e+06 1.184731427681e-10 
2.505600000000e+06 2.302196429777e-10 
2.548800000000e+06 4.406507432056e-10 
2.592000000000e+06 8.310867879745e-10 
2.635200000000e+06 1.545121477593e-09 
2.678400000000e+06 2.832712701692e-09 
2.721600000000e+06 5.122950806113e-09 
2.764800000000e+06 9.142493772956e-09 
2.808000000000e+06 1.610572340031e-08 
2.851200000000e+06 2.801602414557e-08 
2.894400000000e+06 4.813695617754e-08 
2.937600000000e+06 8.171984291371e-08 
2.980800000000e+06 1.371134043319e-07 
3.024000000000e+06 2.274356953911e-07 
3.067200000000e+06 3.730634249167e-07 
3.110400000000e+06 6.052954393519e-07 
3.153600000000e+06 9.716829678115e-07 
3.196800000000e+06 1.543699111353e-06 
3.240000000000e+06 2.427653700092e-06 
3.283200000000e+06 3.780061012082e-06 
3.326400000000e+06 5.829050603850e-06 
3.369600000000e+06 8.903890371205e-06 
3.412800000000e+06 1.347528545416e-05 
3.456000000000e+06 2.020983618514e-05 
3.499200000000e+06 3.004291778360e-05 
3.542400000000e+06 4.427527708829e-05 
3.585600000000e+06 6.469984143828e-05 
3.628800000000e+06 9.376665921883e-05 
3.672000000000e+06 1.347954541223e-04 
3.715200000000e+06 1.922470590781e-04 
3.758400000000e+06 2.720669576823e-04 
3.801600000000e+06 3.821162250032e-04 
3.844800000000e+06 5.327073571151e-04 
3.888000000000e+06 7.372648054791e-04 
3.931200000000e+06 1.013132240021e-03 
3.974400000000e+06 1.382550669199e-03 
4.017600000000e+06 1.873833556078e-03 
4.060800000000e+06 2.522766587225e-03 
4.104000000000e+06 3.374261249048e-03 
4.147200000000e+06 4.484291862056e-03 
4.190400000000e+06 5.922144528330e-03 
4.233600000000e+06 7.773008012781e-03 
4.276800000000e+06 1.014093089866e-02 
4.320000000000e+06 1.315216916523e-02 
4.363200000000e+06 1.695894265835e-02 
4.406400000000e+06 2.174361091298e-02 
4.449600000000e+06 2.772327687461e-02 
4.492800000000e+06 3.515481039041e-02 
4.536000000000e+06 4.434027793819e-02 
4.579200000000e+06 5.563275571293e-02 
4.622400000000e+06 6.944248430146e-02 
4.665600000000e+06 8.624330791206e-02 
4.708800000000e+06 1.065793353036e-01 
4.752000000000e+06 1.310717410297e-01 
4.795200000000e+06 1.604255941672e-01 
4.838400000000e+06 1.954366178954e-01 
4.881600000000e+06 2.369977426727e-01 
4.924800000000e+06 2.861053078583e-01 
4.968000000000e+06 3.438647750786e-01 
5.011200000000e+06 4.114957770264e-01 
5.054400000000e+06 4.903363164226e-01 
5.097600000000e+06 5.818460089612e-01 
5.140800000000e+06 6.876081542284e-01 
5.184000000000e+06 8.093304080487e-01 
5.227200000000e+06 9.488440497537e-01 
5.270400000000e+06 1.108101595028e+00 
5.313600000000e+06 1.289172604758e+00 
5.356800000000e+06 1.494237699899e+00 
5.400000000000e+06 1.725580528294e+00 
5.443200000000e+06 1.985577893154e+00 
5.486400000000e+06 2.276687751601e+00 
5.529600000000e+06 2.601435146110e+00 
5.572800000000e+06 2.962396441968e+00 
5.616000000000e+06 3.362181351589e+00 
5.659200000000e+06 3.803413586242e+00 
5.702400000000e+06 4.288709606212e+00 
5.745600000000e+06 4.820656173942e+00 
5.788800000000e+06 5.401786720933e+00 
5.832000000000e+06 6.034556998274e+00 
5.875200000000e+06 6.721319770209e+00 
5.918400000000e+06 7.464299429856e+00 
5.961600000000e+06 8.265566658396e+00 
6.004800000000e+06 9.127013573778e+00 
6.048000000000e+06 1.005032906351e+01 
6.091200000000e+06 1.103697628812e+01 
6.134400000000e+06 1.208817021539e+01 
6.177600000000e+06 1.320485773364e+01 
6.220800000000e+06 1.438769980783e+01 
6.264000000000e+06 1.563705536363e+01 
6.307200000000e+06 1.695296816524e+01 
6.350400000000e+06 1.833515663367e+01 
6.393600000000e+06 1.978300622776e+01 
6.436800000000e+06 2.129556459569e+01 
6.480000000000e+06 2.287154092204e+01 
6.523200000000e+06 2.450930697638e+01 
6.566400000000e+06 2.620690357788e+01 
6.609600000000e+06 2.796204761022e+01 
6.652800000000e+06 2.977214435389e+01 
6.696000000000e+06 3.163430078520e+01 
6.739200000000e+06 3.354534396355e+01 
6.782400000000e+06 3.550183969929e+01 
6.825600000000e+06 3.750011487386e+01 
6.868800000000e+06 3.953628151000e+01 
6.912000000000e+06 4.160626277787e+01 
6.955200000000e+06 4.370581996565e+01 
6.998400000000e+06 4.583058074411e+01 
7.041600000000e+06 4.797606900874e+01 
7.084800000000e+06 5.013773462438e+01 
7.128000000000e+06 5.231098262234e+01 
7.171200000000e+06 5.449120353931e+01 
7.214400000000e+06 5.667380221000e+01 
7.257600000000e+06 5.885422663213e+01 
7.300800000000e+06 6.102799534993e+01 
7.344000000000e+06 6.319072332735e+01 
7.387200000000e+06 6.533814681532e+01 
7.430400000000e+06 6.746614629614e+01 
7.473600000000e+06 6.957076737029e+01 
7.516800000000e+06 7.164823977284e+01 
7.560000000000e+06 7.369499491892e+01 
7.603200000000e+06 7.570767970416e+01 
7.646400000000e+06 7.768316922155e+01 
7.689600000000e+06 7.961857716214e+01 
7.732800000000e+06 8.151126354423e+01 
7.776000000000e+06 8.335884032894e+01 
7.819200000000e+06 8.515917551735e+01 
7.862400000000e+06 8.691039356092e+01 
7.905600000000e+06 8.861087555700e+01 
7.948800000000e+06 9.025925635553e+01 
7.992000000000e+06 9.185442042310e+01 
8.035200000000e+06 9.339549624072e+01 
8.078400000000e+06 9.488184856725e+01 
8.121600000000e+06 9.631307015499e+01 
8.164800000000e+06 9.768897205295e+01 
8.208000000000e+06 9.900957232909e+01 
8.251200000000e+06 1.002750851371e+02 
8.294400000000e+06 1.014859077968e+02 
8.337600000000e+06 1.026426086221e+02 
8.380800000000e+06 1.037459131947e+02 
8.424000000000e+06 1.047966914631e+02 
8.467200000000e+06 1.057959438831e+02 
8.510400000000e+06 1.067447879737e+02 
8.553600000000e+06 1.076444453068e+02 
8.596800000000e+06 1.084962280498e+02 
8.640000000000e+06 1.093015263354e+02 
8.683200000000e+06 1.100617960226e+02 
8.726400000000e+06 1.107785466484e+02 
8.769600000000e+06 1.114533301615e+02 
8.812800000000e+06 1.120877300684e+02 
8.856000000000e+06 1.126833517336e+02 
8.899200000000e+06 1.132418125018e+02 
8.942400000000e+06 1.137647331364e+02 
8.985600000000e+06 1.142537297594e+02 
9.028800000000e+06 1.147104064362e+02 
9.072000000000e+06 1.151363484216e+02 
9.115200000000e+06 1.155331162861e+02 
9.158400000000e+06 1.159022406039e+02 
9.201600000000e+06 1.162452172080e+02 
9.244800000000e+06 1.165635031816e+02 
9.288000000000e+06 1.168585134915e+02 
9.331200000000e+06 1.171316179659e+02 
9.374400000000e+06 1.173841390247e+02 
9.417600000000e+06 1.176173499084e+02 
9.460800000000e+06 1.178324732490e+02 
9.504000000000e+06 1.180306801591e+02 
9.547200000000e+06 1.182130897288e+02 
9.590400000000e+06 1.183807688091e+02 
9.633600000000e+06 1.185347321990e+02 
9.676800000000e+06 1.186759430452e+02 
9.720000000000e+06 1.188053136051e+02 
9.763200000000e+06 1.189237061159e+02 
9.806400000000e+06 1.190319339545e+02 
9.849600000000e+06 1.191307629110e+02 
9.892800000000e+06 1.192209126342e+02 
9.936000000000e+06 1.193030581591e+02 
9.979200000000e+06 1.193778315699e+02 
1.002240000000e+07 1.194458236515e+02 
1.006560000000e+07 1.195075856963e+02 
1.010880000000e+07 1.195636312666e+02 
1.015200000000e+07 1.196144380098e+02 
1.019520000000e+07 1.196604494552e+02 
1.023840000000e+07 1.197020768166e+02 
1.028160000000e+07 1.197397007641e+02 
1.032480000000e+07 1.197736731566e+02 
1.036800000000e+07 1.198043187528e+02 
1.041120000000e+07 1.198319368629e+02 
1.045440000000e+07 1.198568029549e+02 
1.049760000000e+07 1.198791702000e+02 
1.054080000000e+07 1.198992709640e+02 
1.058400000000e+07 1.199173182214e+02 
1.062720000000e+07 1.199335069262e+02 
1.067040000000e+07 1.199480153015e+02 
1.071360000000e+07 1.199610060622e+02 
1.075680000000e+07 1.199726275841e+02 
1.080000000000e+07 1.199830149986e+02 
1.084320000000e+07 1.199922912227e+02 
1.088640000000e+07 1.200005679305e+02 
1.092960000000e+07 1.200079464617e+02 
1.097280000000e+07 1.200145186697e+02 
1.101600000000e+07 1.200203677154e+02 
1.105920000000e+07 1.200255688023e+02 
1.110240000000e+07 1.200301898638e+02 
1.114560000000e+07 1.200342921971e+02 
1.118880000000e+07 1.200379310519e+02 
1.123200000000e+07 1.200411561740e+02 
1.127520000000e+07 1.200440123047e+02 
1.131840000000e+07 1.200465396435e+02 
1.136160000000e+07 1.200487742715e+02 
1.140480000000e+07 1.200507485400e+02 
1.144800000000e+07 1.200524914268e+02 
1.149120000000e+07 1.200540288623e+02 
1.153440000000e+07 1.200553840274e+02 
1.157760000000e+07 1.200565776243e+02 
1.162080000000e+07 1.200576281245e+02 
1.166400000000e+07 1.200585519933e+02 
1.170720000000e+07 1.200593638933e+02 
1.175040000000e+07 1.200600768703e+02 
1.179360000000e+07 1.200607025211e+02 
1.183680000000e+07 1.200612511445e+02 
1.188000000000e+07 1.200617318788e+02 
1.192320000000e+07 1.200621528250e+02 
1.196640000000e+07 1.200625211589e+02 
1.200960000000e+07 1.200628432303e+02 
1.205280000000e+07 1.200631246543e+02 
1.209600000000e+07 1.200633703912e+02 
1.213920000000e+07 1.200635848196e+02 
1.218240000000e+07 1.200637718016e+02 
1.222560000000e+07 1.200639347403e+02 
1.226880000000e+07 1.200640766326e+02 
1.231200000000e+07 1.200642001150e+02 
1.235520000000e+07 1.200643075054e+02 
1.239840000000e+07 1.200644008399e+02 
1.244160000000e+07 1.200644819056e+02 
1.248480000000e+07 1.200645522701e+02 
1.252800000000e+07 1.200646133069e+02 
1.257120000000e+07 1.200646662190e+02 
1.261440000000e+07 1.200647120591e+02 
1.265760000000e+07 1.200647517476e+02 
1.270080000000e+07 1.200647860888e+02 
1.274400000000e+07 1.200648157849e+02 
1.278720000000e+07 1.200648414484e+02 
1.283040000000e+07 1.200648636136e+02 
1.287360000000e+07 1.200648827458e+02 
1.291680000000e+07 1.200648992503e+02 
1.296000000000e+07 1.200649134794e+02 
1.300320000000e+07 1.200649257396e+02 
1.304640000000e+07 1.200649362973e+02 
1.308960000000e+07 1.200649453836e+02 
1.313280000000e+07 1.200649531990e+02 
1.317600000000e+07 1.200649599174e+02 
1.321920000000e+07 1.200649656897e+02 
1.326240000000e+07 1.200649706461e+02 
1.330560000000e+07 1.200649748997e+02 
1.334880000000e+07 1.200649785481e+02 
1.339200000000e+07 1.200649816756e+02 
1.343520000000e+07 1.200649843552e+02 
1.347840000000e+07 1.200649866498e+02 
1.352160000000e+07 1.200649886136e+02 
1.356480000000e+07 1.200649902934e+02 
1.360800000000e+07 1.200649917295e+02 
1.365120000000e+07 1.200649929567e+02 
1.369440000000e+07 1.200649940047e+02 
1.373760000000e+07 1.200649948993e+02 
1.378080000000e+07 1.200649956625e+02 
1.382400000000e+07 1.200649963133e+02 
1.386720000000e+07 1.200649968680e+02 
1.391040000000e+07 1.200649973404e+02 
1.395360000000e+07 1.200649977427e+02 
1.399680000000e+07 1.200649980851e+02 
1.404000000000e+07 1.200649983762e+02 
1.408320000000e+07 1.200649986238e+02 
1.412640000000e+07 1.200649988341e+02 
1.416960000000e+07 1.200649990128e+02 
1.421280000000e+07 1.200649991644e+02 
1.425600000000e+07 1.200649992931e+02 
1.429920000000e+07 1.200649994022e+02 
1.434240000000e+07 1.200649994948e+02 
1.438560000000e+07 1.200649995731e+02 
1.442880000000e+07 1.200649996395e+02 
1.447200000000e+07 1.200649996957e+02 
1.451520000000e+07 1.200649997433e+02 
1.455840000000e+07 1.200649997835e+02 
1.460160000000e+07 1.200649998175e+02 
1.464480000000e+07 1.200649998462e+02 
1.468800000000e+07 1.200649998704e+02 
1.473120000000e+07 1.200649998909e+02 
1.477440000000e+07 1.200649999082e+02 
1.481760000000e+07 1.200649999228e+02 
1.486080000000e+07 1.200649999351e+02 
1.490400000000e+07 1.200649999454e+02 
1.494720000000e+07 1.200649999541e+02 
1.499040000000e+07 1.200649999615e+02 
1.503360000000e+07 1.200649999677e+02 
1.507680000000e+07 1.200649999729e+02 
1.512000000000e+07 1.200649999772e+02 
1.516320000000e+07 1.200649999809e+02 
1.520640000000e+07 1.200649999840e+02 
1.524960000000e+07 1.200649999866e+02 
1.529280000000e+07 1.200649999888e+02 
1.533600000000e+07 1.200649999906e+02 
1.537920000000e+07 1.200649999921e+02 
1.542240000000e+07 1.200649999934e+02 
1.546560000000e+07 1.200649999945e+02 
1.550880000000e+07 1.200649999954e+02 
1.555200000000e+07 1.200649999962e+02 
1.559520000000e+07 1.200649999968e+02 
1.563840000000e+07 1.200649999973e+02 
1.568160000000e+07 1.200649999978e+02 
1.572480000000e+07 1.200649999981e+02 
1.576800000000e+07 1.200649999984e+02 
1.581120000000e+07 1.200649999987e+02 
1.585440000000e+07 1.200649999989e+02 
1.589760000000e+07 1.200649999991e+02 
1.594080000000e+07 1.200649999992e+02 
1.598400000000e+07 1.200649999994e+02 
1.602720000000e+07 1.200649999995e+02 
1.607040000000e+07 1.200649999996e+02 
1.611360000000e+07 1.200649999996e+02 
1.615680000000e+07 1.200649999997e+02 
1.620000000000e+07 1.200649999998e+02 
1.624320000000e+07 1.200649999998e+02 
1.628640000000e+07 1.200649999998e+02 
1.632960000000e+07 1.200649999999e+02 
1.637280000000e+07 1.200649999999e+02 
1.641600000000e+07 1.200649999999e+02 
1.645920000000e+07 1.200649999999e+02 
1.650240000000e+07 1.200649999999e+02 
1.654560000000e+07 1.200649999999e+02 
1.658880000000e+07 1.200650000000e+02 
1.663200000000e+07 1.200650000000e+02 
1.667520000000e+07 1.200650000000e+02 
1.671840000000e+07 1.200650000000e+02 
1.676160000000e+07 1.200650000000e+02 
1.680480000000e+07 1.200650000000e+02 
1.684800000000e+07 1.200650000000e+02 
1.689120000000e+07 1.200650000000e+02 
1.693440000000e+07 1.200650000000e+02 
1.697760000000e+07 1.200650000000e+02 
1.702080000000e+07 1.200650000000e+02 
1.706400000000e+07 1.200650000000e+02 
1.710720000000e+07 1.200650000000e+02 
1.715040000000e+07 1.200650000000e+02 
1.719360000000e+07 1.200650000000e+02 
1.723680000000e+07 1.200650000000e+02 
1.728000000000e+07 1.200650000000e+02 
1.732320000000e+07 1.200650000000e+02 
1.736640000000e+07 1.200650000000e+02 
1.740960000000e+07 1.200650000000e+02 
1.745280000000e+07 1.200650000000e+02 
1.749600000000e+07 1.200650000000e+02 
1.753920000000e+07 1.200650000000e+02 
1.758240000000e+07 1.200650000000e+02 
1.762560000000e+07 1.200650000000e+02 
1.766880000000e+07 1.200650000000e+02 
1.771200000000e+07 1.200650000000e+02 
1.775520000000e+07 1.200650000000e+02 
1.779840000000e+07 1.200650000000e+02 
1.784160000000e+07 1.200650000000e+02 
1.788480000000e+07 1.200650000000e+02 
1.792800000000e+07 1.200650000000e+02 
1.797120000000e+07 1.200650000000e+02 
1.801440000000e+07 1.200650000000e+02 
1.805760000000e+07 1.200650000000e+02 
1.810080000000e+07 1.200650000000e+02 
1.814400000000e+07 1.200650000000e+02 
1.818720000000e+07 1.200650000000e+02 
1.823040000000e+07 1.200650000000e+02 
1.827360000000e+07 1.200650000000e+02 
1.831680000000e+07 1.200650000000e+02 
1.836000000000e+07 1.200650000000e+02 
1.840320000000e+07 1.200650000000e+02 
1.844640000000e+07 1.200650000000e+02 
1.848960000000e+07 1.200650000000e+02 
1.853280000000e+07 1.200650000000e+02 
1.857600000000e+07 1.200650000000e+02 
1.861920000000e+07 1.200650000000e+02 
1.866240000000e+07 1.200650000000e+02 
1.870560000000e+07 1.200650000000e+02 
1.874880000000e+07 1.200650000000e+02 
1.879200000000e+07 1.200650000000e+02 
1.883520000000e+07 1.200650000000e+02 
1.887840000000e+07 1.200650000000e+02 
1.892160000000e+07 1.200650000000e+02 
1.896480000000e+07 1.200650000000e+02 
1.900800000000e+07 1.200650000000e+02 
1.905120000000e+07 1.200650000000e+02 
1.909440000000e+07 1.200650000000e+02 
1.913760000000e+07 1.200650000000e+02 
1.918080000000e+07 1.200650000000e+02 
1.922400000000e+07 1.200650000000e+02 
1.926720000000e+07 1.200650000000e+02 
1.931040000000e+07 1.200650000000e+02 
1.935360000000e+07 1.200650000000e+02 
1.939680000000e+07 1.200650000000e+02 
1.944000000000e+07 1.200650000000e+02 
1.948320000000e+07 1.200650000000e+02 
1.952640000000e+07 1.200650000000e+02 
1.956960000000e+07 1.200650000000e+02 
1.961280000000e+07 1.200650000000e+02 
1.965600000000e+07 1.200650000000e+02 
1.969920000000e+07 1.200650000000e+02 
1.974240000000e+07 1.200650000000e+02 
1.978560000000e+07 1.200650000000e+02 
1.982880000000e+07 1.200650000000e+02 
1.987200000000e+07 1.200650000000e+02 
1.991520000000e+07 1.200650000000e+02 
1.995840000000e+07 1.200650000000e+02 
2.000160000000e+07 1.200650000000e+02 
2.004480000000e+07 1.200650000000e+02 
2.008800000000e+07 1.200650000000e+02 
2.013120000000e+07 1.200650000000e+02 
2.017440000000e+07 1.200650000000e+02 
2.021760000000e+07 1.200650000000e+02 
2.026080000000e+07 1.200650000000e+02 
2.030400000000e+07 1.200650000000e+02 
2.034720000000e+07 1.200650000000e+02 
2.039040000000e+07 1.200650000000e+02 
2.043360000000e+07 1.200650000000e+02 
2.047680000000e+07 1.200650000000e+02 
2.052000000000e+07 1.200650000000e+02 
2.056320000000e+07 1.200650000000e+02 
2.060640000000e+07 1.200650000000e+02 
2.064960000000e+07 1.200650000000e+02 
2.069280000000e+07 1.200650000000e+02 
2.073600000000e+07 1.200650000000e+02 
2.077920000000e+07 1.200650000000e+02 
2.082240000000e+07 1.200650000000e+02 
2.086560000000e+07 1.200650000000e+02 
2.090880000000e+07 1.200650000000e+02 
2.095200000000e+07 1.200650000000e+02 
2.099520000000e+07 1.200650000000e+02 
2.103840000000e+07 1.200650000000e+02 
2.108160000000e+07 1.200650000000e+02 
2.112480000000e+07 1.200650000000e+02 
2.116800000000e+07 1.200650000000e+02 
2.121120000000e+07 1.200650000000e+02 
2.125440000000e+07 1.200650000000e+02 
2.129760000000e+07 1.200650000000e+02 
2.134080000000e+07 1.200650000000e+02 
2.138400000000e+07 1.200650000000e+02 
2.142720000000e+07 1.200650000000e+02 
2.147040000000e+07 1.200650000000e+02 
2.151360000000e+07 1.200650000000e+02 
2.155680000000e+07 1.200650000000e+02 
2.160000000000e+07 1.200650000000e+02 
2.164320000000e+07 1.200650000000e+02 
2.168640000000e+07 1.200650000000e+02 
2.172960000000e+07 1.200650000000e+02 
2.177280000000e+07 1.200650000000e+02 
2.181600000000e+07 1.200650000000e+02 
2.185920000000e+07 1.200650000000e+02 
2.190240000000e+07 1.200650000000e+02 
2.194560000000e+07 1.200650000000e+02 
2.198880000000e+07 1.200650000000e+02 
2.203200000000e+07 1.200650000000e+02 
2.207520000000e+07 1.200650000000e+02 
2.211840000000e+07 1.200650000000e+02 
2.216160000000e+07 1.200650000000e+02 
2.220480000000e+07 1.200650000000e+02 
2.224800000000e+07 1.200650000000e+02 
2.229120000000e+07 1.200650000000e+02 
2.233440000000e+07 1.200650000000e+02 
2.237760000000e+07 1.200650000000e+02 
2.242080000000e+07 1.200650000000e+02 
2.246400000000e+07 1.200650000000e+02 
2.250720000000e+07 1.200650000000e+02 
2.255040000000e+07 1.200650000000e+02 
2.259360000000e+07 1.200650000000e+02 
2.263680000000e+07 1.200650000000e+02 
2.268000000000e+07 1.200650000000e+02 
2.272320000000e+07 1.200650000000e+02 
2.276640000000e+07 1.200650000000e+02 
2.280960000000e+07 1.200650000000e+02 
2.285280000000e+07 1.200650000000e+02 
2.289600000000e+07 1.200650000000e+02 
2.293920000000e+07 1.200650000000e+02 
2.298240000000e+07 1.200650000000e+02 
2.302560000000e+07 1.200650000000e+02 
2.306880000000e+07 1.200650000000e+02 
2.311200000000e+07 1.200650000000e+02 
2.315520000000e+07 1.200650000000e+02 
2.319840000000e+07 1.200650000000e+02 
2.324160000000e+07 1.200650000000e+02 
2.328480000000e+07 1.200650000000e+02 
2.332800000000e+07 1.200650000000e+02 
2.337120000000e+07 1.200650000000e+02 
2.341440000000e+07 1.200650000000e+02 
2.345760000000e+07 1.200650000000e+02 
2.350080000000e+07 1.200650000000e+02 
2.354400000000e+07 1.200650000000e+02 
2.358720000000e+07 1.200650000000e+02 
2.363040000000e+07 1.200650000000e+02 
2.367360000000e+07 1.200650000000e+02 
2.371680000000e+07 1.200650000000e+02 
2.376000000000e+07 1.200650000000e+02 
2.380320000000e+07 1.200650000000e+02 
2.384640000000e+07 1.200650000000e+02 
2.388960000000e+07 1.200650000000e+02 
2.393280000000e+07 1.200650000000e+02 
2.397600000000e+07 1.200650000000e+02 
2.401920000000e+07 1.200650000000e+02 
2.406240000000e+07 1.200650000000e+02 
2.410560000000e+07 1.200650000000e+02 
2.414880000000e+07 1.200650000000e+02 
2.419200000000e+07 1.200650000000e+02 
2.423520000000e+07 1.200650000000e+02 
2.427840000000e+07 1.200650000000e+02 
2.432160000000e+07 1.200650000000e+02 
2.436480000000e+07 1.200650000000e+02 
2.440800000000e+07 1.200650000000e+02 
2.445120000000e+07 1.200650000000e+02 
2.449440000000e+07 1.200650000000e+02 
2.453760000000e+07 1.200650000000e+02 
2.458080000000e+07 1.200650000000e+02 
2.462400000000e+07 1.200650000000e+02 
2.466720000000e+07 1.200650000000e+02 
2.471040000000e+07 1.200650000000e+02 
2.475360000000e+07 1.200650000000e+02 
2.479680000000e+07 1.200650000000e+02 
2.484000000000e+07 1.200650000000e+02 
2.488320000000e+07 1.200650000000e+02 
2.492640000000e+07 1.200650000000e+02 
2.496960000000e+07 1.200650000000e+02 
2.501280000000e+07 1.200650000000e+02 
2.505600000000e+07 1.200650000000e+02 
2.509920000000e+07 1.200650000000e+02 
2.514240000000e+07 1.200650000000e+02 
2.518560000000e+07 1.200650000000e+02 
2.522880000000e+07 1.200650000000e+02 
2.527200000000e+07 1.200650000000e+02 
2.531520000000e+07 1.200650000000e+02 
2.535840000000e+07 1.200650000000e+02 
2.540160000000e+07 1.200650000000e+02 
2.544480000000e+07 1.200650000000e+02 
2.548800000000e+07 1.200650000000e+02 
2.553120000000e+07 1.200650000000e+02 
2.557440000000e+07 1.200650000000e+02 
2.561760000000e+07 1.200650000000e+02 
2.566080000000e+07 1.200650000000e+02 
2.570400000000e+07 1.200650000000e+02 
2.574720000000e+07 1.200650000000e+02 
2.579040000000e+07 1.200650000000e+02 
2.583360000000e+07 1.200650000000e+02 
2.587680000000e+07 1.200650000000e+02 
2.592000000000e+07 1.200650000000e+02 
2.596320000000e+07 1.200650000000e+02 
2.600640000000e+07 1.200650000000e+02 
2.604960000000e+07 1.200650000000e+02 
2.609280000000e+07 1.200650000000e+02 
2.613600000000e+07 1.200650000000e+02 
2.617920000000e+07 1.200650000000e+02 
2.622240000000e+07 1.200650000000e+02 
2.626560000000e+07 1.200650000000e+02 
2.630880000000e+07 1.200650000000e+02 
2.635200000000e+07 1.200650000000e+02 
2.639520000000e+07 1.200650000000e+02 
2.643840000000e+07 1.200650000000e+02 
2.648160000000e+07 1.200650000000e+02 
2.652480000000e+07 1.200650000000e+02 
2.656800000000e+07 1.200650000000e+02 
2.661120000000e+07 1.200650000000e+02 
2.665440000000e+07 1.200650000000e+02 
2.669760000000e+07 1.200650000000e+02 
2.674080000000e+07 1.200650000000e+02 
2.678400000000e+07 1.200650000000e+02 
2.682720000000e+07 1.200650000000e+02 
2.687040000000e+07 1.200650000000e+02 
2.691360000000e+07 1.200650000000e+02 
2.695680000000e+07 1.200650000000e+02 
2.700000000000e+07 1.200650000000e+02 
2.704320000000e+07 1.200650000000e+02 
2.708640000000e+07 1.200650000000e+02 
2.712960000000e+07 1.200650000000e+02 
2.717280000000e+07 1.200650000000e+02 
2.721600000000e+07 1.200650000000e+02 
2.725920000000e+07 1.200650000000e+02 
2.730240000000e+07 1.200650000000e+02 
2.734560000000e+07 1.200650000000e+02 
2.738880000000e+07 1.200650000000e+02 
2.743200000000e+07 1.200650000000e+02 
2.747520000000e+07 1.200650000000e+02 
2.751840000000e+07 1.200650000000e+02 
2.756160000000e+07 1.200650000000e+02 
2.760480000000e+07 1.200650000000e+02 
2.764800000000e+07 1.200650000000e+02 
2.769120000000e+07 1.200650000000e+02 
2.773440000000e+07 1.200650000000e+02 
2.777760000000e+07 1.200650000000e+02 
2.782080000000e+07 1.200650000000e+02 
2.786400000000e+07 1.200650000000e+02 
2.790720000000e+07 1.200650000000e+02 
2.795040000000e+07 1.200650000000e+02 
2.799360000000e+07 1.200650000000e+02 
2.803680000000e+07 1.200650000000e+02 
2.808000000000e+07 1.200650000000e+02 
2.812320000000e+07 1.200650000000e+02 
2.816640000000e+07 1.200650000000e+02 
2.820960000000e+07 1.200650000000e+02 
2.825280000000e+07 1.200650000000e+02 
2.829600000000e+07 1.200650000000e+02 
2.833920000000e+07 1.200650000000e+02 
2.838240000000e+07 1.200650000000e+02 
2.842560000000e+07 1.200650000000e+02 
2.846880000000e+07 1.200650000000e+02 
2.851200000000e+07 1.200650000000e+02 
2.855520000000e+07 1.200650000000e+02 
2.859840000000e+07 1.200650000000e+02 
2.864160000000e+07 1.200650000000e+02 
2.868480000000e+07 1.200650000000e+02 
2.872800000000e+07 1.200650000000e+02 
2.877120000000e+07 1.200650000000e+02 
2.881440000000e+07 1.200650000000e+02 
2.885760000000e+07 1.200650000000e+02 
2.890080000000e+07 1.200650000000e+02 
2.894400000000e+07 1.200650000000e+02 
2.898720000000e+07 1.200650000000e+02 
2.903040000000e+07 1.200650000000e+02 
2.907360000000e+07 1.200650000000e+02 
2.911680000000e+07 1.200650000000e+02 
2.916000000000e+07 1.200650000000e+02 
2.920320000000e+07 1.200650000000e+02 
2.924640000000e+07 1.200650000000e+02 
2.928960000000e+07 1.200650000000e+02 
2.933280000000e+07 1.200650000000e+02 
2.937600000000e+07 1.200650000000e+02 
2.941920000000e+07 1.200650000000e+02 
2.946240000000e+07 1.200650000000e+02 
2.950560000000e+07 1.200650000000e+02 
2.954880000000e+07 1.200650000000e+02 
2.959200000000e+07 1.200650000000e+02 
2.963520000000e+07 1.200650000000e+02 
2.967840000000e+07 1.200650000000e+02 
2.972160000000e+07 1.200650000000e+02 
2.976480000000e+07 1.200650000000e+02 
2.980800000000e+07 1.200650000000e+02 
2.985120000000e+07 1.200650000000e+02 
2.989440000000e+07 1.200650000000e+02 
2.993760000000e+07 1.200650000000e+02 
2.998080000000e+07 1.200650000000e+02 
3.002400000000e+07 1.200650000000e+02 
3.006720000000e+07 1.200650000000e+02 
3.011040000000e+07 1.200650000000e+02 
3.015360000000e+07 1.200650000000e+02 
3.019680000000e+07 1.200650000000e+02 
3.024000000000e+07 1.200650000000e+02 
3.028320000000e+07 1.200650000000e+02 
3.032640000000e+07 1.200650000000e+02 
3.036960000000e+07 1.200650000000e+02 
3.041280000000e+07 1.200650000000e+02 
3.045600000000e+07 1.200650000000e+02 
3.049920000000e+07 1.200650000000e+02 
3.054240000000e+07 1.200650000000e+02 
3.058560000000e+07 1.200650000000e+02 
3.062880000000e+07 1.200650000000e+02 
3.067200000000e+07 1.200650000000e+02 
3.071520000000e+07 1.200650000000e+02 
3.075840000000e+07 1.200650000000e+02 
3.080160000000e+07 1.200650000000e+02 
3.084480000000e+07 1.200650000000e+02 
3.088800000000e+07 1.200650000000e+02 
3.093120000000e+07 1.200650000000e+02 
3.097440000000e+07 1.200650000000e+02 
3.101760000000e+07 1.200650000000e+02 
3.106080000000e+07 1.200650000000e+02 
3.110400000000e+07 1.200650000000e+02 
3.114720000000e+07 1.200650000000e+02 
3.119040000000e+07 1.200650000000e+02 
3.123360000000e+07 1.200650000000e+02 
3.127680000000e+07 1.200650000000e+02 
3.132000000000e+07 1.200650000000e+02 
3.136320000000e+07 1.200650000000e+02 
3.140640000000e+07 1.200650000000e+02 
3.144960000000e+07 1.200650000000e+02 
3.149280000000e+07 1.200650000000e+02 
3.153600000000e+07 1.200650000000e+02 
3.157920000000e+07 1.200650000000e+02 
3.162240000000e+07 1.200650000000e+02 
3.166560000000e+07 1.200650000000e+02 
3.170880000000e+07 1.200650000000e+02 
3.175200000000e+07 1.200650000000e+02 
3.179520000000e+07 1.200650000000e+02 
3.183840000000e+07 1.200650000000e+02 
3.188160000000e+07 1.200650000000e+02 
3.192480000000e+07 1.200650000000e+02 
3.196800000000e+07 1.200650000000e+02 
3.201120000000e+07 1.200650000000e+02 
3.205440000000e+07 1.200650000000e+02 
3.209760000000e+07 1.200650000000e+02 
3.214080000000e+07 1.200650000000e+02 
3.218400000000e+07 1.200650000000e+02 
3.222720000000e+07 1.200650000000e+02 
3.227040000000e+07 1.200650000000e+02 
3.231360000000e+07 1.200650000000e+02 
3.235680000000e+07 1.200650000000e+02 
3.240000000000e+07 1.200650000000e+02 
3.244320000000e+07 1.200650000000e+02 
3.248640000000e+07 1.200650000000e+02 
3.252960000000e+07 1.200650000000e+02 
3.257280000000e+07 1.200650000000e+02 
3.261600000000e+07 1.200650000000e+02 
3.265920000000e+07 1.200650000000e+02 
3.270240000000e+07 1.200650000000e+02 
3.274560000000e+07 1.200650000000e+02 
3.278880000000e+07 1.200650000000e+02 
3.283200000000e+07 1.200650000000e+02 
3.287520000000e+07 1.200650000000e+02 
3.291840000000e+07 1.200650000000e+02 
3.296160000000e+07 1.200650000000e+02 
3.300480000000e+07 1.200650000000e+02 
3.304800000000e+07 1.200650000000e+02 
3.309120000000e+07 1.200650000000e+02 