 TITLE = "Profiles along polylines"
 VARIABLES = "DIST" "PRESSURE1" "SATURATION1" "TCE" "NAPL_TCE" "TEMPERATURE1" 
 ZONE T="TIME=0.000000000000e+00"
0.000000000000e+00 9.806700000000e+04 1.000000000000e+00 1.000000000000e-15 0.000000000000e+00 2.831500000000e+02 
3.300000000000e-01 9.806700000000e+04 1.000000000000e+00 1.000000000000e-15 0.000000000000e+00 2.831500000000e+02 
6.700000000000e-01 9.806700000000e+04 1.000000000000e+00 1.000000000000e-15 0.000000000000e+00 2.831500000000e+02 
1.000000000000e+00 9.806700000000e+04 1.000000000000e+00 1.000000000000e-15 0.000000000000e+00 2.831500000000e+02 
1.330000000000e+00 9.806700000000e+04 1.000000000000e+00 1.000000000000e-15 0.000000000000e+00 2.831500000000e+02 
1.670000000000e+00 9.806700000000e+04 1.000000000000e+00 1.000000000000e-15 0.000000000000e+00 2.831500000000e+02 
2.000000000000e+00 9.806700000000e+04 1.000000000000e+00 1.000000000000e-15 0.000000000000e+00 2.831500000000e+02 
2.330000000000e+00 9.806700000000e+04 1.000000000000e+00 1.000000000000e-15 0.000000000000e+00 2.831500000000e+02 
2.670000000000e+00 9.806700000000e+04 1.000000000000e+00 1.000000000000e-15 0.000000000000e+00 2.831500000000e+02 
3.000000000000e+00 9.806700000000e+04 1.000000000000e+00 1.000000000000e-15 0.000000000000e+00 2.831500000000e+02 
3.330000000000e+00 9.806700000000e+04 1.000000000000e+00 1.000000000000e-15 0.000000000000e+00 2.831500000000e+02 
3.670000000000e+00 9.806700000000e+04 1.000000000000e+00 1.000000000000e-15 0.000000000000e+00 2.831500000000e+02 
4.000000000000e+00 9.806700000000e+04 1.000000000000e+00 1.000000000000e-15 0.000000000000e+00 2.831500000000e+02 
4.330000000000e+00 9.806700000000e+04 1.000000000000e+00 1.000000000000e-15 0.000000000000e+00 2.831500000000e+02 
4.670000000000e+00 9.806700000000e+04 1.000000000000e+00 1.000000000000e-15 0.000000000000e+00 2.831500000000e+02 
5.000000000000e+00 9.806700000000e+04 9.500000000000e-01 1.206500000000e+01 1.944442500000e+02 2.831500000000e+02 
5.330000000000e+00 9.806700000000e+04 9.500000000000e-01 1.206500000000e+01 1.944442500000e+02 2.831500000000e+02 
5.670000000000e+00 9.806700000000e+04 9.500000000000e-01 1.206500000000e+01 1.944442500000e+02 2.831500000000e+02 
6.000000000000e+00 9.806700000000e+04 9.500000000000e-01 1.206500000000e+01 1.944442500000e+02 2.831500000000e+02 
6.330000000000e+00 9.806700000000e+04 9.500000000000e-01 1.206500000000e+01 1.944442500000e+02 2.831500000000e+02 
6.670000000000e+00 9.806700000000e+04 9.500000000000e-01 1.206500000000e+01 1.944442500000e+02 2.831500000000e+02 
7.000000000000e+00 9.806700000000e+04 9.500000000000e-01 1.206500000000e+01 1.944442500000e+02 2.831500000000e+02 
7.330000000000e+00 9.806700000000e+04 9.500000000000e-01 1.206500000000e+01 1.944442500000e+02 2.831500000000e+02 
7.670000000000e+00 9.806700000000e+04 9.500000000000e-01 1.206500000000e+01 1.944442500000e+02 2.831500000000e+02 
8.000000000000e+00 9.806700000000e+04 9.500000000000e-01 1.206500000000e+01 1.944442500000e+02 2.831500000000e+02 
8.330000000000e+00 9.806700000000e+04 9.500000000000e-01 1.206500000000e+01 1.944442500000e+02 2.831500000000e+02 
8.670000000000e+00 9.806700000000e+04 9.500000000000e-01 1.206500000000e+01 1.944442500000e+02 2.831500000000e+02 
9.000000000000e+00 9.806700000000e+04 9.500000000000e-01 1.206500000000e+01 1.944442500000e+02 2.831500000000e+02 
9.330000000000e+00 9.806700000000e+04 9.500000000000e-01 1.206500000000e+01 1.944442500000e+02 2.831500000000e+02 
9.670000000000e+00 9.806700000000e+04 9.500000000000e-01 1.206500000000e+01 1.944442500000e+02 2.831500000000e+02 
1.000000000000e+01 9.806700000000e+04 9.500000000000e-01 1.206500000000e+01 1.944442500000e+02 2.831500000000e+02 
1.033000000000e+01 9.806700000000e+04 9.500000000000e-01 1.206500000000e+01 1.944442500000e+02 2.831500000000e+02 
1.067000000000e+01 9.806700000000e+04 9.500000000000e-01 1.206500000000e+01 1.944442500000e+02 2.831500000000e+02 
1.100000000000e+01 9.806700000000e+04 9.500000000000e-01 1.206500000000e+01 1.944442500000e+02 2.831500000000e+02 
1.133000000000e+01 9.806700000000e+04 9.500000000000e-01 1.206500000000e+01 1.944442500000e+02 2.831500000000e+02 
1.167000000000e+01 9.806700000000e+04 9.500000000000e-01 1.206500000000e+01 1.944442500000e+02 2.831500000000e+02 
1.200000000000e+01 9.806700000000e+04 9.500000000000e-01 1.206500000000e+01 1.944442500000e+02 2.831500000000e+02 
1.233000000000e+01 9.806700000000e+04 9.500000000000e-01 1.206500000000e+01 1.944442500000e+02 2.831500000000e+02 
1.267000000000e+01 9.806700000000e+04 9.500000000000e-01 1.206500000000e+01 1.944442500000e+02 2.831500000000e+02 
1.300000000000e+01 9.806700000000e+04 9.500000000000e-01 1.206500000000e+01 1.944442500000e+02 2.831500000000e+02 
1.333000000000e+01 9.806700000000e+04 9.500000000000e-01 1.206500000000e+01 1.944442500000e+02 2.831500000000e+02 
1.367000000000e+01 9.806700000000e+04 9.500000000000e-01 1.206500000000e+01 1.944442500000e+02 2.831500000000e+02 
1.400000000000e+01 9.806700000000e+04 9.500000000000e-01 1.206500000000e+01 1.944442500000e+02 2.831500000000e+02 
1.433000000000e+01 9.806700000000e+04 9.500000000000e-01 1.206500000000e+01 1.944442500000e+02 2.831500000000e+02 
1.467000000000e+01 9.806700000000e+04 9.500000000000e-01 1.206500000000e+01 1.944442500000e+02 2.831500000000e+02 
1.500000000000e+01 9.806700000000e+04 9.500000000000e-01 1.206500000000e+01 1.944442500000e+02 2.831500000000e+02 
1.533000000000e+01 9.806700000000e+04 9.500000000000e-01 1.206500000000e+01 1.944442500000e+02 2.831500000000e+02 
1.567000000000e+01 9.806700000000e+04 9.500000000000e-01 1.206500000000e+01 1.944442500000e+02 2.831500000000e+02 
1.600000000000e+01 9.806700000000e+04 9.500000000000e-01 1.206500000000e+01 1.944442500000e+02 2.831500000000e+02 
1.633000000000e+01 9.806700000000e+04 9.500000000000e-01 1.206500000000e+01 1.944442500000e+02 2.831500000000e+02 
1.667000000000e+01 9.806700000000e+04 9.500000000000e-01 1.206500000000e+01 1.944442500000e+02 2.831500000000e+02 
1.700000000000e+01 9.806700000000e+04 9.500000000000e-01 1.206500000000e+01 1.944442500000e+02 2.831500000000e+02 
1.733000000000e+01 9.806700000000e+04 9.500000000000e-01 1.206500000000e+01 1.944442500000e+02 2.831500000000e+02 
1.767000000000e+01 9.806700000000e+04 9.500000000000e-01 1.206500000000e+01 1.944442500000e+02 2.831500000000e+02 
1.800000000000e+01 9.806700000000e+04 9.500000000000e-01 1.206500000000e+01 1.944442500000e+02 2.831500000000e+02 
1.833000000000e+01 9.806700000000e+04 9.500000000000e-01 1.206500000000e+01 1.944442500000e+02 2.831500000000e+02 
1.867000000000e+01 9.806700000000e+04 9.500000000000e-01 1.206500000000e+01 1.944442500000e+02 2.831500000000e+02 
1.900000000000e+01 9.806700000000e+04 9.500000000000e-01 1.206500000000e+01 1.944442500000e+02 2.831500000000e+02 
1.933000000000e+01 9.806700000000e+04 9.500000000000e-01 1.206500000000e+01 1.944442500000e+02 2.831500000000e+02 
1.967000000000e+01 9.806700000000e+04 9.500000000000e-01 1.206500000000e+01 1.944442500000e+02 2.831500000000e+02 
2.000000000000e+01 9.806700000000e+04 9.500000000000e-01 1.206500000000e+01 1.944442500000e+02 2.831500000000e+02 
2.033000000000e+01 9.806700000000e+04 9.500000000000e-01 1.206500000000e+01 1.944442500000e+02 2.831500000000e+02 
2.067000000000e+01 9.806700000000e+04 9.500000000000e-01 1.206500000000e+01 1.944442500000e+02 2.831500000000e+02 
2.100000000000e+01 9.806700000000e+04 9.500000000000e-01 1.206500000000e+01 1.944442500000e+02 2.831500000000e+02 
2.133000000000e+01 9.806700000000e+04 9.500000000000e-01 1.206500000000e+01 1.944442500000e+02 2.831500000000e+02 
2.167000000000e+01 9.806700000000e+04 9.500000000000e-01 1.206500000000e+01 1.944442500000e+02 2.831500000000e+02 
2.200000000000e+01 9.806700000000e+04 9.500000000000e-01 1.206500000000e+01 1.944442500000e+02 2.831500000000e+02 
2.233000000000e+01 9.806700000000e+04 9.500000000000e-01 1.206500000000e+01 1.944442500000e+02 2.831500000000e+02 
2.267000000000e+01 9.806700000000e+04 9.500000000000e-01 1.206500000000e+01 1.944442500000e+02 2.831500000000e+02 
2.300000000000e+01 9.806700000000e+04 9.500000000000e-01 1.206500000000e+01 1.944442500000e+02 2.831500000000e+02 
2.333000000000e+01 9.806700000000e+04 9.500000000000e-01 1.206500000000e+01 1.944442500000e+02 2.831500000000e+02 
2.367000000000e+01 9.806700000000e+04 9.500000000000e-01 1.206500000000e+01 1.944442500000e+02 2.831500000000e+02 
2.400000000000e+01 9.806700000000e+04 9.500000000000e-01 1.206500000000e+01 1.944442500000e+02 2.831500000000e+02 
2.433000000000e+01 9.806700000000e+04 9.500000000000e-01 1.206500000000e+01 1.944442500000e+02 2.831500000000e+02 
2.467000000000e+01 9.806700000000e+04 9.500000000000e-01 1.206500000000e+01 1.944442500000e+02 2.831500000000e+02 
2.500000000000e+01 9.806700000000e+04 9.500000000000e-01 1.206500000000e+01 1.944442500000e+02 2.831500000000e+02 
2.533000000000e+01 9.806700000000e+04 9.500000000000e-01 1.206500000000e+01 1.944442500000e+02 2.831500000000e+02 
2.567000000000e+01 9.806700000000e+04 9.500000000000e-01 1.206500000000e+01 1.944442500000e+02 2.831500000000e+02 
2.600000000000e+01 9.806700000000e+04 9.500000000000e-01 1.206500000000e+01 1.944442500000e+02 2.831500000000e+02 
2.633000000000e+01 9.806700000000e+04 9.500000000000e-01 1.206500000000e+01 1.944442500000e+02 2.831500000000e+02 
2.667000000000e+01 9.806700000000e+04 9.500000000000e-01 1.206500000000e+01 1.944442500000e+02 2.831500000000e+02 
2.700000000000e+01 9.806700000000e+04 9.500000000000e-01 1.206500000000e+01 1.944442500000e+02 2.831500000000e+02 
2.733000000000e+01 9.806700000000e+04 9.500000000000e-01 1.206500000000e+01 1.944442500000e+02 2.831500000000e+02 
2.767000000000e+01 9.806700000000e+04 9.500000000000e-01 1.206500000000e+01 1.944442500000e+02 2.831500000000e+02 
2.800000000000e+01 9.806700000000e+04 9.500000000000e-01 1.206500000000e+01 1.944442500000e+02 2.831500000000e+02 
2.833000000000e+01 9.806700000000e+04 9.500000000000e-01 1.206500000000e+01 1.944442500000e+02 2.831500000000e+02 
2.867000000000e+01 9.806700000000e+04 9.500000000000e-01 1.206500000000e+01 1.944442500000e+02 2.831500000000e+02 
2.900000000000e+01 9.806700000000e+04 9.500000000000e-01 1.206500000000e+01 1.944442500000e+02 2.831500000000e+02 
2.933000000000e+01 9.806700000000e+04 9.500000000000e-01 1.206500000000e+01 1.944442500000e+02 2.831500000000e+02 
2.967000000000e+01 9.806700000000e+04 9.500000000000e-01 1.206500000000e+01 1.944442500000e+02 2.831500000000e+02 
3.000000000000e+01 9.806700000000e+04 9.500000000000e-01 1.206500000000e+01 0.000000000000e+00 2.831500000000e+02 
3.033000000000e+01 9.806700000000e+04 1.000000000000e+00 1.000000000000e-15 0.000000000000e+00 2.831500000000e+02 
3.067000000000e+01 9.806700000000e+04 1.000000000000e+00 1.000000000000e-15 0.000000000000e+00 2.831500000000e+02 
3.100000000000e+01 9.806700000000e+04 1.000000000000e+00 1.000000000000e-15 0.000000000000e+00 2.831500000000e+02 
3.133000000000e+01 9.806700000000e+04 1.000000000000e+00 1.000000000000e-15 0.000000000000e+00 2.831500000000e+02 
3.167000000000e+01 9.806700000000e+04 1.000000000000e+00 1.000000000000e-15 0.000000000000e+00 2.831500000000e+02 
3.200000000000e+01 9.806700000000e+04 1.000000000000e+00 1.000000000000e-15 0.000000000000e+00 2.831500000000e+02 
3.233000000000e+01 9.806700000000e+04 1.000000000000e+00 1.000000000000e-15 0.000000000000e+00 2.831500000000e+02 
3.267000000000e+01 9.806700000000e+04 1.000000000000e+00 1.000000000000e-15 0.000000000000e+00 2.831500000000e+02 
3.300000000000e+01 9.806700000000e+04 1.000000000000e+00 1.000000000000e-15 0.000000000000e+00 2.831500000000e+02 
3.333000000000e+01 9.806700000000e+04 1.000000000000e+00 1.000000000000e-15 0.000000000000e+00 2.831500000000e+02 
3.367000000000e+01 9.806700000000e+04 1.000000000000e+00 1.000000000000e-15 0.000000000000e+00 2.831500000000e+02 
3.400000000000e+01 9.806700000000e+04 1.000000000000e+00 1.000000000000e-15 0.000000000000e+00 2.831500000000e+02 
3.433000000000e+01 9.806700000000e+04 1.000000000000e+00 1.000000000000e-15 0.000000000000e+00 2.831500000000e+02 
3.467000000000e+01 9.806700000000e+04 1.000000000000e+00 1.000000000000e-15 0.000000000000e+00 2.831500000000e+02 
3.500000000000e+01 9.806700000000e+04 1.000000000000e+00 1.000000000000e-15 0.000000000000e+00 2.831500000000e+02 
3.533000000000e+01 9.806700000000e+04 1.000000000000e+00 1.000000000000e-15 0.000000000000e+00 2.831500000000e+02 
3.567000000000e+01 9.806700000000e+04 1.000000000000e+00 1.000000000000e-15 0.000000000000e+00 2.831500000000e+02 
3.600000000000e+01 9.806700000000e+04 1.000000000000e+00 1.000000000000e-15 0.000000000000e+00 2.831500000000e+02 
3.633000000000e+01 9.806700000000e+04 1.000000000000e+00 1.000000000000e-15 0.000000000000e+00 2.831500000000e+02 
3.667000000000e+01 9.806700000000e+04 1.000000000000e+00 1.000000000000e-15 0.000000000000e+00 2.831500000000e+02 
3.700000000000e+01 9.806700000000e+04 1.000000000000e+00 1.000000000000e-15 0.000000000000e+00 2.831500000000e+02 
3.733000000000e+01 9.806700000000e+04 1.000000000000e+00 1.000000000000e-15 0.000000000000e+00 2.831500000000e+02 
3.767000000000e+01 9.806700000000e+04 1.000000000000e+00 1.000000000000e-15 0.000000000000e+00 2.831500000000e+02 
3.800000000000e+01 9.806700000000e+04 1.000000000000e+00 1.000000000000e-15 0.000000000000e+00 2.831500000000e+02 
3.833000000000e+01 9.806700000000e+04 1.000000000000e+00 1.000000000000e-15 0.000000000000e+00 2.831500000000e+02 
3.867000000000e+01 9.806700000000e+04 1.000000000000e+00 1.000000000000e-15 0.000000000000e+00 2.831500000000e+02 
3.900000000000e+01 9.806700000000e+04 1.000000000000e+00 1.000000000000e-15 0.000000000000e+00 2.831500000000e+02 
3.933000000000e+01 9.806700000000e+04 1.000000000000e+00 1.000000000000e-15 0.000000000000e+00 2.831500000000e+02 
3.967000000000e+01 9.806700000000e+04 1.000000000000e+00 1.000000000000e-15 0.000000000000e+00 2.831500000000e+02 
4.000000000000e+01 9.806700000000e+04 1.000000000000e+00 1.000000000000e-15 0.000000000000e+00 2.831500000000e+02 
4.033000000000e+01 9.806700000000e+04 1.000000000000e+00 1.000000000000e-15 0.000000000000e+00 2.831500000000e+02 
4.067000000000e+01 9.806700000000e+04 1.000000000000e+00 1.000000000000e-15 0.000000000000e+00 2.831500000000e+02 
4.100000000000e+01 9.806700000000e+04 1.000000000000e+00 1.000000000000e-15 0.000000000000e+00 2.831500000000e+02 
4.133000000000e+01 9.806700000000e+04 1.000000000000e+00 1.000000000000e-15 0.000000000000e+00 2.831500000000e+02 
4.167000000000e+01 9.806700000000e+04 1.000000000000e+00 1.000000000000e-15 0.000000000000e+00 2.831500000000e+02 
4.200000000000e+01 9.806700000000e+04 1.000000000000e+00 1.000000000000e-15 0.000000000000e+00 2.831500000000e+02 
4.233000000000e+01 9.806700000000e+04 1.000000000000e+00 1.000000000000e-15 0.000000000000e+00 2.831500000000e+02 
4.267000000000e+01 9.806700000000e+04 1.000000000000e+00 1.000000000000e-15 0.000000000000e+00 2.831500000000e+02 
4.300000000000e+01 9.806700000000e+04 1.000000000000e+00 1.000000000000e-15 0.000000000000e+00 2.831500000000e+02 
4.333000000000e+01 9.806700000000e+04 1.000000000000e+00 1.000000000000e-15 0.000000000000e+00 2.831500000000e+02 
4.367000000000e+01 9.806700000000e+04 1.000000000000e+00 1.000000000000e-15 0.000000000000e+00 2.831500000000e+02 
4.400000000000e+01 9.806700000000e+04 1.000000000000e+00 1.000000000000e-15 0.000000000000e+00 2.831500000000e+02 
4.433000000000e+01 9.806700000000e+04 1.000000000000e+00 1.000000000000e-15 0.000000000000e+00 2.831500000000e+02 
4.467000000000e+01 9.806700000000e+04 1.000000000000e+00 1.000000000000e-15 0.000000000000e+00 2.831500000000e+02 
4.500000000000e+01 9.806700000000e+04 1.000000000000e+00 1.000000000000e-15 0.000000000000e+00 2.831500000000e+02 
4.533000000000e+01 9.806700000000e+04 1.000000000000e+00 1.000000000000e-15 0.000000000000e+00 2.831500000000e+02 
4.567000000000e+01 9.806700000000e+04 1.000000000000e+00 1.000000000000e-15 0.000000000000e+00 2.831500000000e+02 
4.600000000000e+01 9.806700000000e+04 1.000000000000e+00 1.000000000000e-15 0.000000000000e+00 2.831500000000e+02 
4.633000000000e+01 9.806700000000e+04 1.000000000000e+00 1.000000000000e-15 0.000000000000e+00 2.831500000000e+02 
4.667000000000e+01 9.806700000000e+04 1.000000000000e+00 1.000000000000e-15 0.000000000000e+00 2.831500000000e+02 
4.700000000000e+01 9.806700000000e+04 1.000000000000e+00 1.000000000000e-15 0.000000000000e+00 2.831500000000e+02 
4.733000000000e+01 9.806700000000e+04 1.000000000000e+00 1.000000000000e-15 0.000000000000e+00 2.831500000000e+02 
4.767000000000e+01 9.806700000000e+04 1.000000000000e+00 1.000000000000e-15 0.000000000000e+00 2.831500000000e+02 
4.800000000000e+01 9.806700000000e+04 1.000000000000e+00 1.000000000000e-15 0.000000000000e+00 2.831500000000e+02 
4.833000000000e+01 9.806700000000e+04 1.000000000000e+00 1.000000000000e-15 0.000000000000e+00 2.831500000000e+02 
4.867000000000e+01 9.806700000000e+04 1.000000000000e+00 1.000000000000e-15 0.000000000000e+00 2.831500000000e+02 
4.900000000000e+01 9.806700000000e+04 1.000000000000e+00 1.000000000000e-15 0.000000000000e+00 2.831500000000e+02 
4.933000000000e+01 9.806700000000e+04 1.000000000000e+00 1.000000000000e-15 0.000000000000e+00 2.831500000000e+02 
4.967000000000e+01 9.806700000000e+04 1.000000000000e+00 1.000000000000e-15 0.000000000000e+00 2.831500000000e+02 
5.000000000000e+01 9.806700000000e+04 1.000000000000e+00 1.000000000000e-15 0.000000000000e+00 2.831500000000e+02 
 ZONE T="TIME=8.640000000000e+06"
0.000000000000e+00 9.810000000000e+04 1.000000000000e+00 1.000000000000e-15 0.000000000000e+00 2.831500000000e+02 
3.300000000000e-01 9.807330034769e+04 1.000000000000e+00 9.615528534727e-16 0.000000000000e+00 2.831500000000e+02 
6.700000000000e-01 9.804579161441e+04 1.000000000000e+00 1.115612396743e-15 0.000000000000e+00 2.831500000000e+02 
1.000000000000e+00 9.801909196105e+04 1.000000000000e+00 7.605670142615e-16 0.000000000000e+00 2.831500000000e+02 
1.330000000000e+00 9.799239230792e+04 1.000000000000e+00 -8.799400177044e-16 0.000000000000e+00 2.831500000000e+02 
1.670000000000e+00 9.796488357502e+04 1.000000000000e+00 -1.752491115696e-14 0.000000000000e+00 2.831500000000e+02 
2.000000000000e+00 9.793818392276e+04 1.000000000000e+00 -9.462321612260e-14 0.000000000000e+00 2.831500000000e+02 
2.330000000000e+00 9.791148427017e+04 1.000000000000e+00 9.209610816293e-13 0.000000000000e+00 2.831500000000e+02 
2.670000000000e+00 9.788397553669e+04 1.000000000000e+00 -1.205547079786e-12 0.000000000000e+00 2.831500000000e+02 
3.000000000000e+00 9.785727588358e+04 1.000000000000e+00 -2.186583712684e-12 0.000000000000e+00 2.831500000000e+02 
3.330000000000e+00 9.783057623093e+04 1.000000000000e+00 5.220660614066e-12 0.000000000000e+00 2.831500000000e+02 
3.670000000000e+00 9.780306749824e+04 1.000000000000e+00 3.436136159755e-13 0.000000000000e+00 2.831500000000e+02 
4.000000000000e+00 9.777636784579e+04 1.000000000000e+00 3.036754468264e-13 0.000000000000e+00 2.831500000000e+02 
4.330000000000e+00 9.774966819300e+04 1.000000000000e+00 -4.817133755428e-11 0.000000000000e+00 2.831500000000e+02 
4.670000000000e+00 9.772215945975e+04 1.000000000000e+00 2.751439125836e-10 0.000000000000e+00 2.831500000000e+02 
5.000000000000e+00 9.769545980717e+04 1.000000000000e+00 -1.708330844785e-09 1.638323828101e-16 2.831500000000e+02 
5.330000000000e+00 9.766876015484e+04 1.000000000000e+00 1.059778114872e-08 2.144823653650e-16 2.831500000000e+02 
5.670000000000e+00 9.764125142206e+04 1.000000000000e+00 -5.787032986388e-08 1.633667016604e-16 2.831500000000e+02 
6.000000000000e+00 9.761455176945e+04 1.000000000000e+00 3.350806339739e-07 8.963660065679e-27 2.831500000000e+02 
6.330000000000e+00 9.758785211683e+04 1.000000000000e+00 -1.878640393486e-06 9.446282212318e-17 2.831500000000e+02 
6.670000000000e+00 9.756034338408e+04 1.000000000000e+00 9.481394120975e-06 1.018282610577e-26 2.831500000000e+02 
7.000000000000e+00 9.753364373185e+04 1.000000000000e+00 -4.963827771649e-05 1.082254299610e-26 2.831500000000e+02 
7.330000000000e+00 9.750694407952e+04 1.000000000000e+00 2.519326421990e-04 1.767417947461e-16 2.831500000000e+02 
7.670000000000e+00 9.747943534660e+04 1.000000000000e+00 -1.174388908912e-03 1.175036668015e-26 2.831500000000e+02 
8.000000000000e+00 9.745273569415e+04 1.000000000000e+00 5.538342652631e-03 9.655115138033e-27 2.831500000000e+02 
8.330000000000e+00 9.742603604199e+04 1.000000000000e+00 -2.494765614177e-02 8.216288677421e-17 2.831500000000e+02 
8.670000000000e+00 9.739852730957e+04 1.000000000000e+00 1.057057113693e-01 1.036043690599e-26 2.831500000000e+02 
9.000000000000e+00 9.737182765734e+04 1.000000000000e+00 -3.182293004195e-01 5.605871918688e-11 2.831500000000e+02 
9.330000000000e+00 9.734512800490e+04 1.000000000000e+00 6.014580395880e+00 3.772925075113e-05 2.831500000000e+02 
9.670000000000e+00 9.731720189489e+04 9.931538484293e-01 1.200636345010e+02 2.488441080521e+01 2.831500000000e+02 
1.000000000000e+01 9.728795378673e+04 9.657157450698e-01 1.200650394410e+02 1.389241819976e+02 2.831500000000e+02 
1.033000000000e+01 9.725653763649e+04 9.619839066978e-01 1.200691755518e+02 1.555742373590e+02 2.831500000000e+02 
1.067000000000e+01 9.722384683059e+04 9.614184392107e-01 1.200638278407e+02 1.581167919267e+02 2.831500000000e+02 
1.100000000000e+01 9.719207028704e+04 9.613400312779e-01 1.200648180698e+02 1.584694476348e+02 2.831500000000e+02 
1.133000000000e+01 9.716028709192e+04 9.613278511057e-01 1.200649718804e+02 1.585242475430e+02 2.831500000000e+02 
1.167000000000e+01 9.712753970465e+04 9.613259507222e-01 1.200649959144e+02 1.585327991395e+02 2.831500000000e+02 
1.200000000000e+01 9.709575531644e+04 9.613256784044e-01 1.200649993647e+02 1.585340247621e+02 2.831500000000e+02 
1.233000000000e+01 9.706397090493e+04 9.613256360909e-01 1.200649999018e+02 1.585342152332e+02 2.831500000000e+02 
1.267000000000e+01 9.703122332547e+04 9.613256294888e-01 1.200649999857e+02 1.585342449568e+02 2.831500000000e+02 
1.300000000000e+01 9.699943890963e+04 9.613256285428e-01 1.200649999978e+02 1.585342492167e+02 2.831500000000e+02 
1.333000000000e+01 9.696765449402e+04 9.613256283958e-01 1.200649999997e+02 1.585342498788e+02 2.831500000000e+02 
1.367000000000e+01 9.693490691441e+04 9.613256283728e-01 1.200650000000e+02 1.585342499821e+02 2.831500000000e+02 
1.400000000000e+01 9.690312249860e+04 9.613256283696e-01 1.200650000000e+02 1.585342499969e+02 2.831500000000e+02 
1.433000000000e+01 9.687133808252e+04 9.613256283690e-01 1.200650000000e+02 1.585342499992e+02 2.831500000000e+02 
1.467000000000e+01 9.683859050244e+04 9.613256283690e-01 1.200650000000e+02 1.585342499995e+02 2.831500000000e+02 
1.500000000000e+01 9.680680608690e+04 9.613256283690e-01 1.200650000000e+02 1.585342499996e+02 2.831500000000e+02 
1.533000000000e+01 9.677502167149e+04 9.613256283690e-01 1.200650000000e+02 1.585342499996e+02 2.831500000000e+02 
1.567000000000e+01 9.674227409158e+04 9.613256283690e-01 1.200650000000e+02 1.585342499996e+02 2.831500000000e+02 
1.600000000000e+01 9.671048967529e+04 9.613256283690e-01 1.200650000000e+02 1.585342499996e+02 2.831500000000e+02 
1.633000000000e+01 9.667870525900e+04 9.613256283690e-01 1.200650000000e+02 1.585342499996e+02 2.831500000000e+02 
1.667000000000e+01 9.664595767912e+04 9.613256283690e-01 1.200650000000e+02 1.585342499996e+02 2.831500000000e+02 
1.700000000000e+01 9.661417326378e+04 9.613256283690e-01 1.200650000000e+02 1.585342499996e+02 2.831500000000e+02 
1.733000000000e+01 9.658238884809e+04 9.613256283690e-01 1.200650000000e+02 1.585342499996e+02 2.831500000000e+02 
1.767000000000e+01 9.654964126751e+04 9.613256283690e-01 1.200650000000e+02 1.585342499996e+02 2.831500000000e+02 
1.800000000000e+01 9.651785685069e+04 9.613256283690e-01 1.200650000000e+02 1.585342499996e+02 2.831500000000e+02 
1.833000000000e+01 9.648607243433e+04 9.613256283690e-01 1.200650000000e+02 1.585342499996e+02 2.831500000000e+02 
1.867000000000e+01 9.645332485452e+04 9.613256283690e-01 1.200650000000e+02 1.585342499996e+02 2.831500000000e+02 
1.900000000000e+01 9.642154043881e+04 9.613256283690e-01 1.200650000000e+02 1.585342499996e+02 2.831500000000e+02 
1.933000000000e+01 9.638975602229e+04 9.613256283690e-01 1.200650000000e+02 1.585342499996e+02 2.831500000000e+02 
1.967000000000e+01 9.635700844087e+04 9.613256283690e-01 1.200650000000e+02 1.585342499996e+02 2.831500000000e+02 
2.000000000000e+01 9.632522402362e+04 9.613256283690e-01 1.200650000000e+02 1.585342499996e+02 2.831500000000e+02 
2.033000000000e+01 9.629343960706e+04 9.613256283690e-01 1.200650000000e+02 1.585342499996e+02 2.831500000000e+02 
2.067000000000e+01 9.626069202673e+04 9.613256283690e-01 1.200650000000e+02 1.585342499996e+02 2.831500000000e+02 
2.100000000000e+01 9.622890761005e+04 9.613256283690e-01 1.200650000000e+02 1.585342499996e+02 2.831500000000e+02 
2.133000000000e+01 9.619712319241e+04 9.613256283690e-01 1.200650000000e+02 1.585342499996e+02 2.831500000000e+02 
2.167000000000e+01 9.616437561009e+04 9.613256283690e-01 1.200650000000e+02 1.585342499996e+02 2.831500000000e+02 
2.200000000000e+01 9.613259119227e+04 9.613256283690e-01 1.200650000000e+02 1.585342499996e+02 2.831500000000e+02 
2.233000000000e+01 9.610080677503e+04 9.613256283690e-01 1.200650000000e+02 1.585342499996e+02 2.831500000000e+02 
2.267000000000e+01 9.606805919353e+04 9.613256283690e-01 1.200650000000e+02 1.585342499996e+02 2.831500000000e+02 
2.300000000000e+01 9.603627477540e+04 9.613256283690e-01 1.200650000000e+02 1.585342499996e+02 2.831500000000e+02 
2.333000000000e+01 9.600449035643e+04 9.613256283690e-01 1.200650000000e+02 1.585342499996e+02 2.831500000000e+02 
2.367000000000e+01 9.597174277305e+04 9.613256283690e-01 1.200650000000e+02 1.585342499996e+02 2.831500000000e+02 
2.400000000000e+01 9.593995835422e+04 9.613256283689e-01 1.200650000000e+02 1.585342499996e+02 2.831500000000e+02 
2.433000000000e+01 9.590817393557e+04 9.613256283690e-01 1.200650000000e+02 1.585342499995e+02 2.831500000000e+02 
2.467000000000e+01 9.587542635231e+04 9.613256283688e-01 1.200650000000e+02 1.585342500001e+02 2.831500000000e+02 
2.500000000000e+01 9.584364193243e+04 9.613256283694e-01 1.200650000000e+02 1.585342499976e+02 2.831500000000e+02 
2.533000000000e+01 9.581185751187e+04 9.613256283669e-01 1.200650000000e+02 1.585342500080e+02 2.831500000000e+02 
2.567000000000e+01 9.577910992687e+04 9.613256283773e-01 1.200650000000e+02 1.585342499650e+02 2.831500000000e+02 
2.600000000000e+01 9.574732550627e+04 9.613256283335e-01 1.200650000000e+02 1.585342501466e+02 2.831500000000e+02 
2.633000000000e+01 9.571554108560e+04 9.613256285188e-01 1.200650000000e+02 1.585342493786e+02 2.831500000000e+02 
2.667000000000e+01 9.568279350005e+04 9.613256277556e-01 1.200650000000e+02 1.585342525415e+02 2.831500000000e+02 
2.700000000000e+01 9.565100907808e+04 9.613256309743e-01 1.200650000000e+02 1.585342392019e+02 2.831500000000e+02 
2.733000000000e+01 9.561922465465e+04 9.613256173653e-01 1.200650000000e+02 1.585342956037e+02 2.831500000000e+02 
2.767000000000e+01 9.558647706978e+04 9.613256734122e-01 1.200650000000e+02 1.585340633209e+02 2.831500000000e+02 
2.800000000000e+01 9.555469263592e+04 9.613254370283e-01 1.200650000000e+02 1.585350429933e+02 2.831500000000e+02 
2.833000000000e+01 9.552290825788e+04 9.613264365116e-01 1.200650000000e+02 1.585309007766e+02 2.831500000000e+02 
2.867000000000e+01 9.549016048029e+04 9.613223203572e-01 1.200650000000e+02 1.585479598830e+02 2.831500000000e+02 
2.900000000000e+01 9.545837684428e+04 9.613396826350e-01 1.200650000000e+02 1.584760110851e+02 2.831500000000e+02 
2.933000000000e+01 9.542658909111e+04 9.612662710773e-01 1.200650000000e+02 1.587803550751e+02 2.831500000000e+02 
2.967000000000e+01 9.539385546493e+04 9.615695708111e-01 1.200650000000e+02 1.575252182226e+02 2.831500000000e+02 
3.000000000000e+01 9.536124647043e+04 9.500000000000e-01 1.200650000000e+02 0.000000000000e+00 2.831500000000e+02 
3.033000000000e+01 9.533143742812e+04 1.000000000000e+00 1.200650000000e+02 0.000000000000e+00 2.831500000000e+02 
3.067000000000e+01 9.530392868502e+04 1.000000000000e+00 1.200650000000e+02 0.000000000000e+00 2.831500000000e+02 
3.100000000000e+01 9.527722902130e+04 1.000000000000e+00 1.200650000000e+02 0.000000000000e+00 2.831500000000e+02 
3.133000000000e+01 9.525052935683e+04 1.000000000000e+00 1.200650000000e+02 0.000000000000e+00 2.831500000000e+02 
3.167000000000e+01 9.522302061129e+04 1.000000000000e+00 1.200650000000e+02 0.000000000000e+00 2.831500000000e+02 
3.200000000000e+01 9.519632094623e+04 1.000000000000e+00 1.200650000000e+02 0.000000000000e+00 2.831500000000e+02 
3.233000000000e+01 9.516962128021e+04 1.000000000000e+00 1.200650000000e+02 0.000000000000e+00 2.831500000000e+02 
3.267000000000e+01 9.514211253196e+04 1.000000000000e+00 1.200650000000e+02 0.000000000000e+00 2.831500000000e+02 
3.300000000000e+01 9.511541286311e+04 1.000000000000e+00 1.200650000000e+02 0.000000000000e+00 2.831500000000e+02 
3.333000000000e+01 9.508871319360e+04 1.000000000000e+00 1.200650000000e+02 0.000000000000e+00 2.831500000000e+02 
3.367000000000e+01 9.506120444283e+04 1.000000000000e+00 1.200650000000e+02 0.000000000000e+00 2.831500000000e+02 
3.400000000000e+01 9.503450477236e+04 1.000000000000e+00 1.200650000000e+02 0.000000000000e+00 2.831500000000e+02 
3.433000000000e+01 9.500780510040e+04 1.000000000000e+00 1.200650000000e+02 0.000000000000e+00 2.831500000000e+02 
3.467000000000e+01 9.498029634578e+04 1.000000000000e+00 1.200650000000e+02 0.000000000000e+00 2.831500000000e+02 
3.500000000000e+01 9.495359667090e+04 1.000000000000e+00 1.200650000000e+02 0.000000000000e+00 2.831500000000e+02 
3.533000000000e+01 9.492689699544e+04 1.000000000000e+00 1.200650000000e+02 0.000000000000e+00 2.831500000000e+02 
3.567000000000e+01 9.489938823818e+04 1.000000000000e+00 1.200650000000e+02 0.000000000000e+00 2.831500000000e+02 