 TITLE = "Profiles along polylines"
 VARIABLES = "DIST" "HEAD" "TRACER" "TEMPERATURE1" 
 ZONE T="TIME=0.000000000000e+00"
0.000000000000e+00 1.000000000000e+00 1.000000000000e-10 2.831500000000e+02 
5.000000000000e-04 1.000000000000e+00 1.000000000000e-10 2.831500000000e+02 
1.000000000000e-03 1.000000000000e+00 1.000000000000e-10 2.831500000000e+02 
1.500000000000e-03 1.000000000000e+00 1.000000000000e-10 2.831500000000e+02 
2.000000000000e-03 1.000000000000e+00 1.000000000000e-10 2.831500000000e+02 
2.500000000000e-03 1.000000000000e+00 1.000000000000e-10 2.831500000000e+02 
3.000000000000e-03 1.000000000000e+00 1.000000000000e-10 2.831500000000e+02 
3.500000000000e-03 1.000000000000e+00 1.000000000000e-10 2.831500000000e+02 
4.000000000000e-03 1.000000000000e+00 1.000000000000e-10 2.831500000000e+02 
4.500000000000e-03 1.000000000000e+00 1.000000000000e-10 2.831500000000e+02 
5.000000000000e-03 1.000000000000e+00 1.000000000000e-10 2.831500000000e+02 
5.500000000000e-03 1.000000000000e+00 1.000000000000e-10 2.831500000000e+02 
6.000000000000e-03 1.000000000000e+00 1.000000000000e-10 2.831500000000e+02 
6.500000000000e-03 1.000000000000e+00 1.000000000000e-10 2.831500000000e+02 
7.000000000000e-03 1.000000000000e+00 1.000000000000e-10 2.831500000000e+02 
7.500000000000e-03 1.000000000000e+00 1.000000000000e-10 2.831500000000e+02 
8.000000000000e-03 1.000000000000e+00 1.000000000000e-10 2.831500000000e+02 
8.500000000000e-03 1.000000000000e+00 1.000000000000e-10 2.831500000000e+02 
9.000000000000e-03 1.000000000000e+00 1.000000000000e-10 2.831500000000e+02 
9.500000000000e-03 1.000000000000e+00 1.000000000000e-10 2.831500000000e+02 
1.000000000000e-02 1.000000000000e+00 1.000000000000e-10 2.831500000000e+02 
1.050000000000e-02 1.000000000000e+00 1.000000000000e-10 2.831500000000e+02 
1.100000000000e-02 1.000000000000e+00 1.000000000000e-10 2.831500000000e+02 
1.150000000000e-02 1.000000000000e+00 1.000000000000e-10 2.831500000000e+02 
1.200000000000e-02 1.000000000000e+00 1.000000000000e-10 2.831500000000e+02 
1.250000000000e-02 1.000000000000e+00 1.000000000000e-10 2.831500000000e+02 
1.300000000000e-02 1.000000000000e+00 1.000000000000e-10 2.831500000000e+02 
1.350000000000e-02 1.000000000000e+00 1.000000000000e-10 2.831500000000e+02 
1.400000000000e-02 1.000000000000e+00 1.000000000000e-10 2.831500000000e+02 
1.450000000000e-02 1.000000000000e+00 1.000000000000e-10 2.831500000000e+02 
1.500000000000e-02 1.000000000000e+00 1.000000000000e-10 2.831500000000e+02 
1.550000000000e-02 1.000000000000e+00 1.000000000000e-10 2.831500000000e+02 
1.600000000000e-02 1.000000000000e+00 1.000000000000e-10 2.831500000000e+02 
1.650000000000e-02 1.000000000000e+00 1.000000000000e-10 2.831500000000e+02 
1.700000000000e-02 1.000000000000e+00 1.000000000000e-10 2.831500000000e+02 
1.750000000000e-02 1.000000000000e+00 1.000000000000e-10 2.831500000000e+02 
1.800000000000e-02 1.000000000000e+00 1.000000000000e-10 2.831500000000e+02 
1.850000000000e-02 1.000000000000e+00 1.000000000000e-10 2.831500000000e+02 
1.900000000000e-02 1.000000000000e+00 1.000000000000e-10 2.831500000000e+02 
1.950000000000e-02 1.000000000000e+00 1.000000000000e-10 2.831500000000e+02 
2.000000000000e-02 1.000000000000e+00 1.000000000000e-10 2.831500000000e+02 
2.050000000000e-02 1.000000000000e+00 1.000000000000e-10 2.831500000000e+02 
2.100000000000e-02 1.000000000000e+00 1.000000000000e-10 2.831500000000e+02 
2.150000000000e-02 1.000000000000e+00 1.000000000000e-10 2.831500000000e+02 
2.200000000000e-02 1.000000000000e+00 1.000000000000e-10 2.831500000000e+02 
2.250000000000e-02 1.000000000000e+00 1.000000000000e-10 2.831500000000e+02 
2.300000000000e-02 1.000000000000e+00 1.000000000000e-10 2.831500000000e+02 
2.350000000000e-02 1.000000000000e+00 1.000000000000e-10 2.831500000000e+02 
2.400000000000e-02 1.000000000000e+00 1.000000000000e-10 2.831500000000e+02 
2.450000000000e-02 1.000000000000e+00 1.000000000000e-10 2.831500000000e+02 
2.500000000000e-02 1.000000000000e+00 1.000000000000e-10 2.831500000000e+02 
 ZONE T="TIME=8.640000000000e+03"
0.000000000000e+00 9.984987745000e-01 9.942222214617e-01 2.831500000000e+02 
5.000000000000e-04 9.984987745000e-01 9.942203322639e-01 2.831500000000e+02 
1.000000000000e-03 9.984987745000e-01 9.942134795742e-01 2.831500000000e+02 
1.500000000000e-03 9.984987745000e-01 9.941975878348e-01 2.831500000000e+02 
2.000000000000e-03 9.984987745000e-01 9.941640071696e-01 2.831500000000e+02 
2.500000000000e-03 9.984987745000e-01 9.940963038232e-01 2.831500000000e+02 
3.000000000000e-03 9.984987745000e-01 9.939649491598e-01 2.831500000000e+02 
3.500000000000e-03 9.984987745000e-01 9.937191881670e-01 2.831500000000e+02 
4.000000000000e-03 9.984987745000e-01 9.932753684250e-01 2.831500000000e+02 
4.500000000000e-03 9.984987745000e-01 9.925012558820e-01 2.831500000000e+02 
5.000000000000e-03 9.984987745000e-01 9.911964630301e-01 2.831500000000e+02 
5.500000000000e-03 9.984987745000e-01 9.890701391338e-01 2.831500000000e+02 
6.000000000000e-03 9.984987745000e-01 9.857185046798e-01 2.831500000000e+02 
6.500000000000e-03 9.984987745000e-01 9.806064749759e-01 2.831500000000e+02 
7.000000000000e-03 9.984987745000e-01 9.730591598896e-01 2.831500000000e+02 
7.500000000000e-03 9.984987745000e-01 9.622699163733e-01 2.831500000000e+02 
8.000000000000e-03 9.984987745000e-01 9.473312637398e-01 2.831500000000e+02 
8.500000000000e-03 9.984987745000e-01 9.272928747078e-01 2.831500000000e+02 
9.000000000000e-03 9.984987745000e-01 9.012468570499e-01 2.831500000000e+02 
9.500000000000e-03 9.984987745000e-01 8.684349569537e-01 2.831500000000e+02 
1.000000000000e-02 9.984987745000e-01 8.283661798565e-01 2.831500000000e+02 
1.050000000000e-02 9.984987745000e-01 7.809280262945e-01 2.831500000000e+02 
1.100000000000e-02 9.984987745000e-01 7.264716812819e-01 2.831500000000e+02 
1.150000000000e-02 9.984987745000e-01 6.658524625763e-01 2.831500000000e+02 
1.200000000000e-02 9.984987745000e-01 6.004120793692e-01 2.831500000000e+02 
1.250000000000e-02 9.984987745000e-01 5.318982974228e-01 2.831500000000e+02 
1.300000000000e-02 9.984987745000e-01 4.623285522377e-01 2.831500000000e+02 
1.350000000000e-02 9.984987745000e-01 3.938147721885e-01 2.831500000000e+02 
1.400000000000e-02 9.984987745000e-01 3.283743893977e-01 2.831500000000e+02 
1.450000000000e-02 9.984987745000e-01 2.677551701404e-01 2.831500000000e+02 
1.500000000000e-02 9.984987745000e-01 2.132988235407e-01 2.831500000000e+02 
1.550000000000e-02 9.984987745000e-01 1.658606701221e-01 2.831500000000e+02 
1.600000000000e-02 9.984987745000e-01 1.257918941158e-01 2.831500000000e+02 
1.650000000000e-02 9.984987745000e-01 9.297999304996e-02 2.831500000000e+02 
1.700000000000e-02 9.984987745000e-01 6.693397639777e-02 2.831500000000e+02 
1.750000000000e-02 9.984987745000e-01 4.689558699338e-02 2.831500000000e+02 
1.800000000000e-02 9.984987745000e-01 3.195693369183e-02 2.831500000000e+02 
1.850000000000e-02 9.984987745000e-01 2.116769057073e-02 2.831500000000e+02 
1.900000000000e-02 9.984987745000e-01 1.362037572309e-02 2.831500000000e+02 
1.950000000000e-02 9.984987745000e-01 8.508345860907e-03 2.831500000000e+02 
2.000000000000e-02 9.984987745000e-01 5.156711496726e-03 2.831500000000e+02 
2.050000000000e-02 9.984987745000e-01 3.030387857068e-03 2.831500000000e+02 
2.100000000000e-02 9.984987745000e-01 1.725595849562e-03 2.831500000000e+02 
2.150000000000e-02 9.984987745000e-01 9.514862713309e-04 2.831500000000e+02 
2.200000000000e-02 9.984987745000e-01 5.076754866906e-04 2.831500000000e+02 
2.250000000000e-02 9.984987745000e-01 2.619407326980e-04 2.831500000000e+02 
2.300000000000e-02 9.984987745000e-01 1.306588874287e-04 2.831500000000e+02 
2.350000000000e-02 9.984987745000e-01 6.314816096767e-05 2.831500000000e+02 
2.400000000000e-02 9.984987745000e-01 3.005389953752e-05 2.831500000000e+02 
2.450000000000e-02 9.984987745000e-01 1.533676403865e-05 2.831500000000e+02 
2.500000000000e-02 9.984987745000e-01 1.120075985544e-05 2.831500000000e+02 
 ZONE T="TIME=1.728000000000e+04"
0.000000000000e+00 9.984987745000e-01 9.996875934156e-01 2.831500000000e+02 
5.000000000000e-04 9.984987745000e-01 9.996856914169e-01 2.831500000000e+02 
1.000000000000e-03 9.984987745000e-01 9.996787920148e-01 2.831500000000e+02 
1.500000000000e-03 9.984987745000e-01 9.996627911093e-01 2.831500000000e+02 
2.000000000000e-03 9.984987745000e-01 9.996289787719e-01 2.831500000000e+02 
2.500000000000e-03 9.984987745000e-01 9.995608084729e-01 2.831500000000e+02 
3.000000000000e-03 9.984987745000e-01 9.994285521054e-01 2.831500000000e+02 
3.500000000000e-03 9.984987745000e-01 9.991811182492e-01 2.831500000000e+02 
4.000000000000e-03 9.984987745000e-01 9.987343119527e-01 2.831500000000e+02 
4.500000000000e-03 9.984987745000e-01 9.979550618577e-01 2.831500000000e+02 
5.000000000000e-03 9.984987745000e-01 9.966417439505e-01 2.831500000000e+02 
5.500000000000e-03 9.984987745000e-01 9.945017609180e-01 2.831500000000e+02 
6.000000000000e-03 9.984987745000e-01 9.911289763468e-01 2.831500000000e+02 
6.500000000000e-03 9.984987745000e-01 9.859852721132e-01 2.831500000000e+02 
7.000000000000e-03 9.984987745000e-01 9.783920452824e-01 2.831500000000e+02 
7.500000000000e-03 9.984987745000e-01 9.675383501675e-01 2.831500000000e+02 
8.000000000000e-03 9.984987745000e-01 9.525120189435e-01 2.831500000000e+02 
8.500000000000e-03 9.984987745000e-01 9.323579833471e-01 2.831500000000e+02 
9.000000000000e-03 9.984987745000e-01 9.061640011993e-01 2.831500000000e+02 
9.500000000000e-03 9.984987745000e-01 8.731683827268e-01 2.831500000000e+02 
1.000000000000e-02 9.984987745000e-01 8.328781527920e-01 2.831500000000e+02 
1.050000000000e-02 9.984987745000e-01 7.851807690824e-01 2.831500000000e+02 
1.100000000000e-02 9.984987745000e-01 7.304296520769e-01 2.831500000000e+02 
1.150000000000e-02 9.984987745000e-01 6.694847595645e-01 2.831500000000e+02 
1.200000000000e-02 9.984987745000e-01 6.036947105406e-01 2.831500000000e+02 
1.250000000000e-02 9.984987745000e-01 5.348160461688e-01 2.831500000000e+02 
1.300000000000e-02 9.984987745000e-01 4.648762038092e-01 2.831500000000e+02 
1.350000000000e-02 9.984987745000e-01 3.959975413355e-01 2.831500000000e+02 
1.400000000000e-02 9.984987745000e-01 3.302074927388e-01 2.831500000000e+02 
1.450000000000e-02 9.984987745000e-01 2.692625996711e-01 2.831500000000e+02 
1.500000000000e-02 9.984987745000e-01 2.145114810664e-01 2.831500000000e+02 
1.550000000000e-02 9.984987745000e-01 1.668140975032e-01 2.831500000000e+02 
1.600000000000e-02 9.984987745000e-01 1.265238686643e-01 2.831500000000e+02 
1.650000000000e-02 9.984987745000e-01 9.352824921724e-02 2.831500000000e+02 
1.700000000000e-02 9.984987745000e-01 6.733426807682e-02 2.831500000000e+02 
1.750000000000e-02 9.984987745000e-01 4.718023211345e-02 2.831500000000e+02 
1.800000000000e-02 9.984987745000e-01 3.215390021384e-02 2.831500000000e+02 
1.850000000000e-02 9.984987745000e-01 2.130020549283e-02 2.831500000000e+02 
1.900000000000e-02 9.984987745000e-01 1.370697890553e-02 2.831500000000e+02 
1.950000000000e-02 9.984987745000e-01 8.563274515681e-03 2.831500000000e+02 
2.000000000000e-02 9.984987745000e-01 5.190490025759e-03 2.831500000000e+02 
2.050000000000e-02 9.984987745000e-01 3.050507258784e-03 2.831500000000e+02 
2.100000000000e-02 9.984987745000e-01 1.737190189664e-03 2.831500000000e+02 
2.150000000000e-02 9.984987745000e-01 9.579430724780e-04 2.831500000000e+02 
2.200000000000e-02 9.984987745000e-01 5.111457636995e-04 2.831500000000e+02 
2.250000000000e-02 9.984987745000e-01 2.637382686932e-04 2.831500000000e+02 
2.300000000000e-02 9.984987745000e-01 1.315551049530e-04 2.831500000000e+02 
2.350000000000e-02 9.984987745000e-01 6.357854464514e-05 2.831500000000e+02 
2.400000000000e-02 9.984987745000e-01 3.025563464155e-05 2.831500000000e+02 
2.450000000000e-02 9.984987745000e-01 1.543698980325e-05 2.831500000000e+02 
2.500000000000e-02 9.984987745000e-01 1.127252201371e-05 2.831500000000e+02 
 ZONE T="TIME=2.592000000000e+04"
0.000000000000e+00 9.984987745000e-01 1.000007856006e+00 2.831500000000e+02 
5.000000000000e-04 9.984987745000e-01 1.000005953985e+00 2.831500000000e+02 
1.000000000000e-03 9.984987745000e-01 9.999990543355e-01 2.831500000000e+02 
1.500000000000e-03 9.984987745000e-01 9.999830522687e-01 2.831500000000e+02 
2.000000000000e-03 9.984987745000e-01 9.999492361675e-01 2.831500000000e+02 
2.500000000000e-03 9.984987745000e-01 9.998810558315e-01 2.831500000000e+02 
3.000000000000e-03 9.984987745000e-01 9.997487757972e-01 2.831500000000e+02 
3.500000000000e-03 9.984987745000e-01 9.995012908861e-01 2.831500000000e+02 
4.000000000000e-03 9.984987745000e-01 9.990543819708e-01 2.831500000000e+02 
4.500000000000e-03 9.984987745000e-01 9.982749375972e-01 2.831500000000e+02 
5.000000000000e-03 9.984987745000e-01 9.969612707953e-01 2.831500000000e+02 
5.500000000000e-03 9.984987745000e-01 9.948206905151e-01 2.831500000000e+02 
6.000000000000e-03 9.984987745000e-01 9.914469279036e-01 2.831500000000e+02 
6.500000000000e-03 9.984987745000e-01 9.863016873567e-01 2.831500000000e+02 
7.000000000000e-03 9.984987745000e-01 9.787061407244e-01 2.831500000000e+02 
7.500000000000e-03 9.984987745000e-01 9.678490726086e-01 2.831500000000e+02 
8.000000000000e-03 9.984987745000e-01 9.528180121621e-01 2.831500000000e+02 
8.500000000000e-03 9.984987745000e-01 9.326575750812e-01 2.831500000000e+02 
9.000000000000e-03 9.984987745000e-01 9.064552192390e-01 2.831500000000e+02 
9.500000000000e-03 9.984987745000e-01 8.734490067838e-01 2.831500000000e+02 
1.000000000000e-02 9.984987745000e-01 8.331458047529e-01 2.831500000000e+02 
1.050000000000e-02 9.984987745000e-01 7.854330386979e-01 2.831500000000e+02 
1.100000000000e-02 9.984987745000e-01 7.306642489402e-01 2.831500000000e+02 
1.150000000000e-02 9.984987745000e-01 6.696996766018e-01 2.831500000000e+02 
1.200000000000e-02 9.984987745000e-01 6.038883804125e-01 2.831500000000e+02 
1.250000000000e-02 9.984987745000e-01 5.349874710016e-01 2.831500000000e+02 
1.300000000000e-02 9.984987745000e-01 4.650250409807e-01 2.831500000000e+02 
1.350000000000e-02 9.984987745000e-01 3.961241334685e-01 2.831500000000e+02 
1.400000000000e-02 9.984987745000e-01 3.303128377063e-01 2.831500000000e+02 
1.450000000000e-02 9.984987745000e-01 2.693482648126e-01 2.831500000000e+02 
1.500000000000e-02 9.984987745000e-01 2.145794734553e-01 2.831500000000e+02 
1.550000000000e-02 9.984987745000e-01 1.668667075466e-01 2.831500000000e+02 
1.600000000000e-02 9.984987745000e-01 1.265635066120e-01 2.831500000000e+02 
1.650000000000e-02 9.984987745000e-01 9.355729318189e-02 2.831500000000e+02 
1.700000000000e-02 9.984987745000e-01 6.735493834740e-02 2.831500000000e+02 
1.750000000000e-02 9.984987745000e-01 4.719450089931e-02 2.831500000000e+02 
1.800000000000e-02 9.984987745000e-01 3.216343977697e-02 2.831500000000e+02 
1.850000000000e-02 9.984987745000e-01 2.130637205522e-02 2.831500000000e+02 
1.900000000000e-02 9.984987745000e-01 1.371082566659e-02 2.831500000000e+02 
1.950000000000e-02 9.984987745000e-01 8.565584963259e-03 2.831500000000e+02 
2.000000000000e-02 9.984987745000e-01 5.191822432954e-03 2.831500000000e+02 
2.050000000000e-02 9.984987745000e-01 3.051242417940e-03 2.831500000000e+02 
2.100000000000e-02 9.984987745000e-01 1.737576454075e-03 2.831500000000e+02 
2.150000000000e-02 9.984987745000e-01 9.581350570192e-04 2.831500000000e+02 
2.200000000000e-02 9.984987745000e-01 5.112351259508e-04 2.831500000000e+02 
2.250000000000e-02 9.984987745000e-01 2.637765671650e-04 2.831500000000e+02 
2.300000000000e-02 9.984987745000e-01 1.315697174896e-04 2.831500000000e+02 
2.350000000000e-02 9.984987745000e-01 6.358308312861e-05 2.831500000000e+02 
2.400000000000e-02 9.984987745000e-01 3.025634788637e-05 2.831500000000e+02 
2.450000000000e-02 9.984987745000e-01 1.543646687843e-05 2.831500000000e+02 
2.500000000000e-02 9.984987745000e-01 1.127173639106e-05 2.831500000000e+02 
 ZONE T="TIME=3.456000000000e+04"
0.000000000000e+00 9.984987745000e-01 9.999962881497e-01 2.831500000000e+02 
5.000000000000e-04 9.984987745000e-01 9.999943860959e-01 2.831500000000e+02 
1.000000000000e-03 9.984987745000e-01 9.999874863360e-01 2.831500000000e+02 
1.500000000000e-03 9.984987745000e-01 9.999714840463e-01 2.831500000000e+02 
2.000000000000e-03 9.984987745000e-01 9.999376675549e-01 2.831500000000e+02 
2.500000000000e-03 9.984987745000e-01 9.998694866001e-01 2.831500000000e+02 
3.000000000000e-03 9.984987745000e-01 9.997372056850e-01 2.831500000000e+02 
3.500000000000e-03 9.984987745000e-01 9.994897196981e-01 2.831500000000e+02 
4.000000000000e-03 9.984987745000e-01 9.990428098103e-01 2.831500000000e+02 
4.500000000000e-03 9.984987745000e-01 9.982633653055e-01 2.831500000000e+02 
5.000000000000e-03 9.984987745000e-01 9.969497006938e-01 2.831500000000e+02 
5.500000000000e-03 9.984987745000e-01 9.948091275350e-01 2.831500000000e+02 
6.000000000000e-03 9.984987745000e-01 9.914353811625e-01 2.831500000000e+02 
6.500000000000e-03 9.984987745000e-01 9.862901721698e-01 2.831500000000e+02 
7.000000000000e-03 9.984987745000e-01 9.786946809398e-01 2.831500000000e+02 
7.500000000000e-03 9.984987745000e-01 9.678377030224e-01 2.831500000000e+02 
8.000000000000e-03 9.984987745000e-01 9.528067806418e-01 2.831500000000e+02 
8.500000000000e-03 9.984987745000e-01 9.326465439216e-01 2.831500000000e+02 
9.000000000000e-03 9.984987745000e-01 9.064444652475e-01 2.831500000000e+02 
9.500000000000e-03 9.984987745000e-01 8.734386196601e-01 2.831500000000e+02 
1.000000000000e-02 9.984987745000e-01 8.331358835174e-01 2.831500000000e+02 
1.050000000000e-02 9.984987745000e-01 7.854236862086e-01 2.831500000000e+02 
1.100000000000e-02 9.984987745000e-01 7.306555648837e-01 2.831500000000e+02 
1.150000000000e-02 9.984987745000e-01 6.696917496748e-01 2.831500000000e+02 
1.200000000000e-02 9.984987745000e-01 6.038812806562e-01 2.831500000000e+02 
1.250000000000e-02 9.984987745000e-01 5.349812433365e-01 2.831500000000e+02 
1.300000000000e-02 9.984987745000e-01 4.650197008861e-01 2.831500000000e+02 
1.350000000000e-02 9.984987745000e-01 3.961196654649e-01 2.831500000000e+02 
1.400000000000e-02 9.984987745000e-01 3.303091968736e-01 2.831500000000e+02 
1.450000000000e-02 9.984987745000e-01 2.693453811094e-01 2.831500000000e+02 
1.500000000000e-02 9.984987745000e-01 2.145772581847e-01 2.831500000000e+02 
1.550000000000e-02 9.984987745000e-01 1.668650610223e-01 2.831500000000e+02 
1.600000000000e-02 9.984987745000e-01 1.265623259759e-01 2.831500000000e+02 
1.650000000000e-02 9.984987745000e-01 9.355647941357e-02 2.831500000000e+02 
1.700000000000e-02 9.984987745000e-01 6.735440174715e-02 2.831500000000e+02 
1.750000000000e-02 9.984987745000e-01 4.719416465983e-02 2.831500000000e+02 
1.800000000000e-02 9.984987745000e-01 3.216324160334e-02 2.831500000000e+02 
1.850000000000e-02 9.984987745000e-01 2.130626408001e-02 2.831500000000e+02 
1.900000000000e-02 9.984987745000e-01 1.371077309364e-02 2.831500000000e+02 
1.950000000000e-02 9.984987745000e-01 8.565563944628e-03 2.831500000000e+02 
2.000000000000e-02 9.984987745000e-01 5.191817653257e-03 2.831500000000e+02 
2.050000000000e-02 9.984987745000e-01 3.051244759697e-03 2.831500000000e+02 
2.100000000000e-02 9.984987745000e-01 1.737580985940e-03 2.831500000000e+02 
2.150000000000e-02 9.984987745000e-01 9.581394577831e-04 2.831500000000e+02 
2.200000000000e-02 9.984987745000e-01 5.112385542558e-04 2.831500000000e+02 
2.250000000000e-02 9.984987745000e-01 2.637789203005e-04 2.831500000000e+02 
2.300000000000e-02 9.984987745000e-01 1.315711914695e-04 2.831500000000e+02 
2.350000000000e-02 9.984987745000e-01 6.358394260232e-05 2.831500000000e+02 
2.400000000000e-02 9.984987745000e-01 3.025682770051e-05 2.831500000000e+02 
2.450000000000e-02 9.984987745000e-01 1.543674750060e-05 2.831500000000e+02 
2.500000000000e-02 9.984987745000e-01 1.127195577622e-05 2.831500000000e+02 
 ZONE T="TIME=4.320000000000e+04"
0.000000000000e+00 9.984987745000e-01 9.999953090409e-01 2.831500000000e+02 
5.000000000000e-04 9.984987745000e-01 9.999934069860e-01 2.831500000000e+02 
1.000000000000e-03 9.984987745000e-01 9.999865072230e-01 2.831500000000e+02 
1.500000000000e-03 9.984987745000e-01 9.999705049298e-01 2.831500000000e+02 
2.000000000000e-03 9.984987745000e-01 9.999366884389e-01 2.831500000000e+02 
2.500000000000e-03 9.984987745000e-01 9.998685074998e-01 2.831500000000e+02 
3.000000000000e-03 9.984987745000e-01 9.997362266400e-01 2.831500000000e+02 
3.500000000000e-03 9.984987745000e-01 9.994887407954e-01 2.831500000000e+02 
4.000000000000e-03 9.984987745000e-01 9.990418312218e-01 2.831500000000e+02 
4.500000000000e-03 9.984987745000e-01 9.982623873446e-01 2.831500000000e+02 
5.000000000000e-03 9.984987745000e-01 9.969487238938e-01 2.831500000000e+02 
5.500000000000e-03 9.984987745000e-01 9.948081527517e-01 2.831500000000e+02 
6.000000000000e-03 9.984987745000e-01 9.914344096967e-01 2.831500000000e+02 
6.500000000000e-03 9.984987745000e-01 9.862892059023e-01 2.831500000000e+02 
7.000000000000e-03 9.984987745000e-01 9.786937224634e-01 2.831500000000e+02 
7.500000000000e-03 9.984987745000e-01 9.678367557522e-01 2.831500000000e+02 
8.000000000000e-03 9.984987745000e-01 9.528058488785e-01 2.831500000000e+02 
8.500000000000e-03 9.984987745000e-01 9.326456328472e-01 2.831500000000e+02 
9.000000000000e-03 9.984987745000e-01 9.064435808328e-01 2.831500000000e+02 
9.500000000000e-03 9.984987745000e-01 8.734377684758e-01 2.831500000000e+02 
1.000000000000e-02 9.984987745000e-01 8.331350724511e-01 2.831500000000e+02 
1.050000000000e-02 9.984987745000e-01 7.854229221041e-01 2.831500000000e+02 
1.100000000000e-02 9.984987745000e-01 7.306548541317e-01 2.831500000000e+02 
1.150000000000e-02 9.984987745000e-01 6.696910977943e-01 2.831500000000e+02 
1.200000000000e-02 9.984987745000e-01 6.038806919082e-01 2.831500000000e+02 
1.250000000000e-02 9.984987745000e-01 5.349807204126e-01 2.831500000000e+02 
1.300000000000e-02 9.984987745000e-01 4.650192447070e-01 2.831500000000e+02 
1.350000000000e-02 9.984987745000e-01 3.961192751101e-01 2.831500000000e+02 
1.400000000000e-02 9.984987745000e-01 3.303088696512e-01 2.831500000000e+02 
1.450000000000e-02 9.984987745000e-01 2.693451127585e-01 2.831500000000e+02 
1.500000000000e-02 9.984987745000e-01 2.145770431864e-01 2.831500000000e+02 
1.550000000000e-02 9.984987745000e-01 1.668648929857e-01 2.831500000000e+02 
1.600000000000e-02 9.984987745000e-01 1.265621980573e-01 2.831500000000e+02 
1.650000000000e-02 9.984987745000e-01 9.355638472541e-02 2.831500000000e+02 
1.700000000000e-02 9.984987745000e-01 6.735433371871e-02 2.831500000000e+02 
1.750000000000e-02 9.984987745000e-01 4.719411732029e-02 2.831500000000e+02 
1.800000000000e-02 9.984987745000e-01 3.216320977074e-02 2.831500000000e+02 
1.850000000000e-02 9.984987745000e-01 2.130624345350e-02 2.831500000000e+02 
1.900000000000e-02 9.984987745000e-01 1.371076025830e-02 2.831500000000e+02 
1.950000000000e-02 9.984987745000e-01 8.565556307546e-03 2.831500000000e+02 
2.000000000000e-02 9.984987745000e-01 5.191813333696e-03 2.831500000000e+02 
2.050000000000e-02 9.984987745000e-01 3.051242456821e-03 2.831500000000e+02 
2.100000000000e-02 9.984987745000e-01 1.737579844012e-03 2.831500000000e+02 
2.150000000000e-02 9.984987745000e-01 9.581389434101e-04 2.831500000000e+02 
2.200000000000e-02 9.984987745000e-01 5.112383541466e-04 2.831500000000e+02 
2.250000000000e-02 9.984987745000e-01 2.637788625173e-04 2.831500000000e+02 
2.300000000000e-02 9.984987745000e-01 1.315711890893e-04 2.831500000000e+02 
2.350000000000e-02 9.984987745000e-01 6.358395625744e-05 2.831500000000e+02 
2.400000000000e-02 9.984987745000e-01 3.025684250688e-05 2.831500000000e+02 
2.450000000000e-02 9.984987745000e-01 1.543675998643e-05 2.831500000000e+02 
2.500000000000e-02 9.984987745000e-01 1.127196709128e-05 2.831500000000e+02 
 ZONE T="TIME=5.184000000000e+04"
0.000000000000e+00 9.984987745000e-01 9.999953407643e-01 2.831500000000e+02 
5.000000000000e-04 9.984987745000e-01 9.999934387095e-01 2.831500000000e+02 
1.000000000000e-03 9.984987745000e-01 9.999865389464e-01 2.831500000000e+02 
1.500000000000e-03 9.984987745000e-01 9.999705366529e-01 2.831500000000e+02 
2.000000000000e-03 9.984987745000e-01 9.999367201609e-01 2.831500000000e+02 
2.500000000000e-03 9.984987745000e-01 9.998685392190e-01 2.831500000000e+02 
3.000000000000e-03 9.984987745000e-01 9.997362583528e-01 2.831500000000e+02 
3.500000000000e-03 9.984987745000e-01 9.994887724950e-01 2.831500000000e+02 
4.000000000000e-03 9.984987745000e-01 9.990418628963e-01 2.831500000000e+02 
4.500000000000e-03 9.984987745000e-01 9.982624189744e-01 2.831500000000e+02 
5.000000000000e-03 9.984987745000e-01 9.969487554485e-01 2.831500000000e+02 
5.500000000000e-03 9.984987745000e-01 9.948081841866e-01 2.831500000000e+02 
6.000000000000e-03 9.984987745000e-01 9.914344409493e-01 2.831500000000e+02 
6.500000000000e-03 9.984987745000e-01 9.862892368895e-01 2.831500000000e+02 
7.000000000000e-03 9.984987745000e-01 9.786937530797e-01 2.831500000000e+02 
7.500000000000e-03 9.984987745000e-01 9.678367858697e-01 2.831500000000e+02 
8.000000000000e-03 9.984987745000e-01 9.528058783495e-01 2.831500000000e+02 
8.500000000000e-03 9.984987745000e-01 9.326456615085e-01 2.831500000000e+02 
9.000000000000e-03 9.984987745000e-01 9.064436085122e-01 2.831500000000e+02 
9.500000000000e-03 9.984987745000e-01 8.734377949997e-01 2.831500000000e+02 
1.000000000000e-02 9.984987745000e-01 8.331350976529e-01 2.831500000000e+02 
1.050000000000e-02 9.984987745000e-01 7.854229458315e-01 2.831500000000e+02 
1.100000000000e-02 9.984987745000e-01 7.306548762536e-01 2.831500000000e+02 
1.150000000000e-02 9.984987745000e-01 6.696911182048e-01 2.831500000000e+02 
1.200000000000e-02 9.984987745000e-01 6.038807105303e-01 2.831500000000e+02 
1.250000000000e-02 9.984987745000e-01 5.349807371996e-01 2.831500000000e+02 
1.300000000000e-02 9.984987745000e-01 4.650192596433e-01 2.831500000000e+02 
1.350000000000e-02 9.984987745000e-01 3.961192882112e-01 2.831500000000e+02 
1.400000000000e-02 9.984987745000e-01 3.303088809639e-01 2.831500000000e+02 
1.450000000000e-02 9.984987745000e-01 2.693451223598e-01 2.831500000000e+02 
1.500000000000e-02 9.984987745000e-01 2.145770511821e-01 2.831500000000e+02 
1.550000000000e-02 9.984987745000e-01 1.668648995072e-01 2.831500000000e+02 
1.600000000000e-02 9.984987745000e-01 1.265622032566e-01 2.831500000000e+02 
1.650000000000e-02 9.984987745000e-01 9.355638876922e-02 2.831500000000e+02 
1.700000000000e-02 9.984987745000e-01 6.735433678057e-02 2.831500000000e+02 
1.750000000000e-02 9.984987745000e-01 4.719411957245e-02 2.831500000000e+02 
1.800000000000e-02 9.984987745000e-01 3.216321137643e-02 2.831500000000e+02 
1.850000000000e-02 9.984987745000e-01 2.130624456047e-02 2.831500000000e+02 
1.900000000000e-02 9.984987745000e-01 1.371076099432e-02 2.831500000000e+02 
1.950000000000e-02 9.984987745000e-01 8.565556778117e-03 2.831500000000e+02 
2.000000000000e-02 9.984987745000e-01 5.191813621982e-03 2.831500000000e+02 
2.050000000000e-02 9.984987745000e-01 3.051242625310e-03 2.831500000000e+02 
2.100000000000e-02 9.984987745000e-01 1.737579937416e-03 2.831500000000e+02 
2.150000000000e-02 9.984987745000e-01 9.581389921235e-04 2.831500000000e+02 
2.200000000000e-02 9.984987745000e-01 5.112383777477e-04 2.831500000000e+02 
2.250000000000e-02 9.984987745000e-01 2.637788729075e-04 2.831500000000e+02 
2.300000000000e-02 9.984987745000e-01 1.315711930550e-04 2.831500000000e+02 
2.350000000000e-02 9.984987745000e-01 6.358395739338e-05 2.831500000000e+02 
2.400000000000e-02 9.984987745000e-01 3.025684255120e-05 2.831500000000e+02 
2.450000000000e-02 9.984987745000e-01 1.543675968274e-05 2.831500000000e+02 
2.500000000000e-02 9.984987745000e-01 1.127196671638e-05 2.831500000000e+02 
