<?xml version="1.0"?>
<!-- Time step: 87 | Time: 1.000000000000e+04 -->
<VTKFile type="UnstructuredGrid" version="0.1" byte_order="LittleEndian">
  <UnstructuredGrid>
    <Piece NumberOfPoints="261" NumberOfCells="260">
      <Points>
        <DataArray type="Float64" NumberOfComponents="3" format="ascii">
          0.000000000000e+00 0.000000000000e+00 0.000000000000e+00
          1.000000000000e-02 0.000000000000e+00 0.000000000000e+00
          2.000000000000e-02 0.000000000000e+00 0.000000000000e+00
          3.000000000000e-02 0.000000000000e+00 0.000000000000e+00
          4.000000000000e-02 0.000000000000e+00 0.000000000000e+00
          5.000000000000e-02 0.000000000000e+00 0.000000000000e+00
          6.000000000000e-02 0.000000000000e+00 0.000000000000e+00
          7.000000000000e-02 0.000000000000e+00 0.000000000000e+00
          8.000000000000e-02 0.000000000000e+00 0.000000000000e+00
          9.000000000000e-02 0.000000000000e+00 0.000000000000e+00
          1.000000000000e-01 0.000000000000e+00 0.000000000000e+00
          1.100000000000e-01 0.000000000000e+00 0.000000000000e+00
          1.200000000000e-01 0.000000000000e+00 0.000000000000e+00
          1.300000000000e-01 0.000000000000e+00 0.000000000000e+00
          1.400000000000e-01 0.000000000000e+00 0.000000000000e+00
          1.500000000000e-01 0.000000000000e+00 0.000000000000e+00
          1.600000000000e-01 0.000000000000e+00 0.000000000000e+00
          1.700000000000e-01 0.000000000000e+00 0.000000000000e+00
          1.800000000000e-01 0.000000000000e+00 0.000000000000e+00
          1.900000000000e-01 0.000000000000e+00 0.000000000000e+00
          2.000000000000e-01 0.000000000000e+00 0.000000000000e+00
          2.100000000000e-01 0.000000000000e+00 0.000000000000e+00
          2.200000000000e-01 0.000000000000e+00 0.000000000000e+00
          2.300000000000e-01 0.000000000000e+00 0.000000000000e+00
          2.400000000000e-01 0.000000000000e+00 0.000000000000e+00
          2.500000000000e-01 0.000000000000e+00 0.000000000000e+00
          2.600000000000e-01 0.000000000000e+00 0.000000000000e+00
          2.700000000000e-01 0.000000000000e+00 0.000000000000e+00
          2.800000000000e-01 0.000000000000e+00 0.000000000000e+00
          2.900000000000e-01 0.000000000000e+00 0.000000000000e+00
          3.000000000000e-01 0.000000000000e+00 0.000000000000e+00
          3.100000000000e-01 0.000000000000e+00 0.000000000000e+00
          3.200000000000e-01 0.000000000000e+00 0.000000000000e+00
          3.300000000000e-01 0.000000000000e+00 0.000000000000e+00
          3.400000000000e-01 0.000000000000e+00 0.000000000000e+00
          3.500000000000e-01 0.000000000000e+00 0.000000000000e+00
          3.600000000000e-01 0.000000000000e+00 0.000000000000e+00
          3.700000000000e-01 0.000000000000e+00 0.000000000000e+00
          3.800000000000e-01 0.000000000000e+00 0.000000000000e+00
          3.900000000000e-01 0.000000000000e+00 0.000000000000e+00
          4.000000000000e-01 0.000000000000e+00 0.000000000000e+00
          4.100000000000e-01 0.000000000000e+00 0.000000000000e+00
          4.200000000000e-01 0.000000000000e+00 0.000000000000e+00
          4.300000000000e-01 0.000000000000e+00 0.000000000000e+00
          4.400000000000e-01 0.000000000000e+00 0.000000000000e+00
          4.500000000000e-01 0.000000000000e+00 0.000000000000e+00
          4.600000000000e-01 0.000000000000e+00 0.000000000000e+00
          4.700000000000e-01 0.000000000000e+00 0.000000000000e+00
          4.800000000000e-01 0.000000000000e+00 0.000000000000e+00
          4.900000000000e-01 0.000000000000e+00 0.000000000000e+00
          5.000000000000e-01 0.000000000000e+00 0.000000000000e+00
          5.100000000000e-01 0.000000000000e+00 0.000000000000e+00
          5.200000000000e-01 0.000000000000e+00 0.000000000000e+00
          5.300000000000e-01 0.000000000000e+00 0.000000000000e+00
          5.400000000000e-01 0.000000000000e+00 0.000000000000e+00
          5.500000000000e-01 0.000000000000e+00 0.000000000000e+00
          5.600000000000e-01 0.000000000000e+00 0.000000000000e+00
          5.700000000000e-01 0.000000000000e+00 0.000000000000e+00
          5.800000000000e-01 0.000000000000e+00 0.000000000000e+00
          5.900000000000e-01 0.000000000000e+00 0.000000000000e+00
          6.000000000000e-01 0.000000000000e+00 0.000000000000e+00
          6.100000000000e-01 0.000000000000e+00 0.000000000000e+00
          6.200000000000e-01 0.000000000000e+00 0.000000000000e+00
          6.300000000000e-01 0.000000000000e+00 0.000000000000e+00
          6.400000000000e-01 0.000000000000e+00 0.000000000000e+00
          6.500000000000e-01 0.000000000000e+00 0.000000000000e+00
          6.600000000000e-01 0.000000000000e+00 0.000000000000e+00
          6.700000000000e-01 0.000000000000e+00 0.000000000000e+00
          6.800000000000e-01 0.000000000000e+00 0.000000000000e+00
          6.900000000000e-01 0.000000000000e+00 0.000000000000e+00
          7.000000000000e-01 0.000000000000e+00 0.000000000000e+00
          7.100000000000e-01 0.000000000000e+00 0.000000000000e+00
          7.200000000000e-01 0.000000000000e+00 0.000000000000e+00
          7.300000000000e-01 0.000000000000e+00 0.000000000000e+00
          7.400000000000e-01 0.000000000000e+00 0.000000000000e+00
          7.500000000000e-01 0.000000000000e+00 0.000000000000e+00
          7.600000000000e-01 0.000000000000e+00 0.000000000000e+00
          7.700000000000e-01 0.000000000000e+00 0.000000000000e+00
          7.800000000000e-01 0.000000000000e+00 0.000000000000e+00
          7.900000000000e-01 0.000000000000e+00 0.000000000000e+00
          8.000000000000e-01 0.000000000000e+00 0.000000000000e+00
          8.100000000000e-01 0.000000000000e+00 0.000000000000e+00
          8.200000000000e-01 0.000000000000e+00 0.000000000000e+00
          8.300000000000e-01 0.000000000000e+00 0.000000000000e+00
          8.400000000000e-01 0.000000000000e+00 0.000000000000e+00
          8.500000000000e-01 0.000000000000e+00 0.000000000000e+00
          8.600000000000e-01 0.000000000000e+00 0.000000000000e+00
          8.700000000000e-01 0.000000000000e+00 0.000000000000e+00
          8.800000000000e-01 0.000000000000e+00 0.000000000000e+00
          8.900000000000e-01 0.000000000000e+00 0.000000000000e+00
          9.000000000000e-01 0.000000000000e+00 0.000000000000e+00
          9.100000000000e-01 0.000000000000e+00 0.000000000000e+00
          9.200000000000e-01 0.000000000000e+00 0.000000000000e+00
          9.300000000000e-01 0.000000000000e+00 0.000000000000e+00
          9.400000000000e-01 0.000000000000e+00 0.000000000000e+00
          9.500000000000e-01 0.000000000000e+00 0.000000000000e+00
          9.600000000000e-01 0.000000000000e+00 0.000000000000e+00
          9.700000000000e-01 0.000000000000e+00 0.000000000000e+00
          9.800000000000e-01 0.000000000000e+00 0.000000000000e+00
          9.900000000000e-01 0.000000000000e+00 0.000000000000e+00
          1.000000000000e+00 0.000000000000e+00 0.000000000000e+00
          1.010000000000e+00 0.000000000000e+00 0.000000000000e+00
          1.020000000000e+00 0.000000000000e+00 0.000000000000e+00
          1.030000000000e+00 0.000000000000e+00 0.000000000000e+00
          1.040000000000e+00 0.000000000000e+00 0.000000000000e+00
          1.050000000000e+00 0.000000000000e+00 0.000000000000e+00
          1.060000000000e+00 0.000000000000e+00 0.000000000000e+00
          1.070000000000e+00 0.000000000000e+00 0.000000000000e+00
          1.080000000000e+00 0.000000000000e+00 0.000000000000e+00
          1.090000000000e+00 0.000000000000e+00 0.000000000000e+00
          1.100000000000e+00 0.000000000000e+00 0.000000000000e+00
          1.110000000000e+00 0.000000000000e+00 0.000000000000e+00
          1.120000000000e+00 0.000000000000e+00 0.000000000000e+00
          1.130000000000e+00 0.000000000000e+00 0.000000000000e+00
          1.140000000000e+00 0.000000000000e+00 0.000000000000e+00
          1.150000000000e+00 0.000000000000e+00 0.000000000000e+00
          1.160000000000e+00 0.000000000000e+00 0.000000000000e+00
          1.170000000000e+00 0.000000000000e+00 0.000000000000e+00
          1.180000000000e+00 0.000000000000e+00 0.000000000000e+00
          1.190000000000e+00 0.000000000000e+00 0.000000000000e+00
          1.200000000000e+00 0.000000000000e+00 0.000000000000e+00
          1.210000000000e+00 0.000000000000e+00 0.000000000000e+00
          1.220000000000e+00 0.000000000000e+00 0.000000000000e+00
          1.230000000000e+00 0.000000000000e+00 0.000000000000e+00
          1.240000000000e+00 0.000000000000e+00 0.000000000000e+00
          1.250000000000e+00 0.000000000000e+00 0.000000000000e+00
          1.260000000000e+00 0.000000000000e+00 0.000000000000e+00
          1.270000000000e+00 0.000000000000e+00 0.000000000000e+00
          1.280000000000e+00 0.000000000000e+00 0.000000000000e+00
          1.290000000000e+00 0.000000000000e+00 0.000000000000e+00
          1.300000000000e+00 0.000000000000e+00 0.000000000000e+00
          1.310000000000e+00 0.000000000000e+00 0.000000000000e+00
          1.320000000000e+00 0.000000000000e+00 0.000000000000e+00
          1.330000000000e+00 0.000000000000e+00 0.000000000000e+00
          1.340000000000e+00 0.000000000000e+00 0.000000000000e+00
          1.350000000000e+00 0.000000000000e+00 0.000000000000e+00
          1.360000000000e+00 0.000000000000e+00 0.000000000000e+00
          1.370000000000e+00 0.000000000000e+00 0.000000000000e+00
          1.380000000000e+00 0.000000000000e+00 0.000000000000e+00
          1.390000000000e+00 0.000000000000e+00 0.000000000000e+00
          1.400000000000e+00 0.000000000000e+00 0.000000000000e+00
          1.410000000000e+00 0.000000000000e+00 0.000000000000e+00
          1.420000000000e+00 0.000000000000e+00 0.000000000000e+00
          1.430000000000e+00 0.000000000000e+00 0.000000000000e+00
[...]
      <PointData Scalars="PRESSURE1">
        <DataArray type="Float64" Name="PRESSURE1" format="ascii">
          1.950000000000e+05 1.949984895456e+05 1.949960792497e+05 1.949933484504e+05 1.949903587939e+05 1.949871416053e+05 1.949837164092e+05 1.949800966399e+05 1.949762920959e+05 1.949723101967e+05 1.949681567018e+05 1.949638361562e+05 1.949593521821e+05 1.949547076791e+05 1.949499049665e+05 1.949449458874e+05 1.949398318869e+05 1.949345640714e+05 1.949291432553e+05 1.949235699975e+05 1.949178446305e+05 1.949119672841e+05 1.949059379045e+05 1.948997562699e+05 1.948934220035e+05 1.948869345839e+05 1.948802933541e+05 1.948734975288e+05 1.948665462002e+05 1.948594383428e+05 1.948521728178e+05 1.948447483757e+05 1.948371636593e+05 1.948294172053e+05 1.948215074456e+05 1.948134327084e+05 1.948051912184e+05 1.947967810968e+05 1.947882003611e+05 1.947794469242e+05 1.947705185936e+05 1.947614130699e+05 1.947521279451e+05 1.947426607008e+05 1.947330087060e+05 1.947231692145e+05 1.947131393621e+05 1.947029161637e+05 1.946924965096e+05 1.946818771623e+05 1.946710547523e+05 1.946600257740e+05 1.946487865809e+05 1.946373333809e+05 1.946256622311e+05 1.946137690322e+05 1.946016495224e+05 1.945892992713e+05 1.945767136729e+05 1.945638879385e+05 1.945508170891e+05 1.945374959473e+05 1.945239191285e+05 1.945100810316e+05 1.944959758298e+05 1.944815974591e+05 1.944669396084e+05 1.944519957068e+05 1.944367589114e+05 1.944212220940e+05 1.944053778266e+05 1.943892183662e+05 1.943727356387e+05 1.943559212216e+05 1.943387663252e+05 1.943212617731e+05 1.943033979810e+05 1.942851649338e+05 1.942665521619e+05 1.942475487144e+05 1.942281431322e+05 1.942083234170e+05 1.941880769999e+05 1.941673907068e+05 1.941462507204e+05 1.941246425410e+05 1.941025509428e+05 1.940799599270e+05 1.940568526716e+05 1.940332114769e+05 1.940090177059e+05 1.939842517204e+05 1.939588928117e+05 1.939329191242e+05 1.939063075739e+05 1.938790337580e+05 1.938510718576e+05 1.938223945303e+05 1.937929727937e+05 1.937627758971e+05 1.937317711812e+05 1.936999239233e+05 1.936671971680e+05 1.936335515395e+05 1.935989450354e+05 1.935633327979e+05 1.935266668609e+05 1.934888958691e+05 1.934499647658e+05 1.934098144455e+05 1.933683813658e+05 1.933255971140e+05 1.932813879210e+05 1.932356741163e+05 1.931883695143e+05 1.931393807230e+05 1.930886063629e+05 1.930359361818e+05 1.929812500516e+05 1.929244168258e+05 1.928652930383e+05 1.928037214156e+05 1.927395291735e+05 1.926725260614e+05 1.926025021138e+05 1.925292250566e+05 1.924524373123e+05 1.923718525328e+05 1.922871515787e+05 1.921979778462e+05 1.921039318240e+05 1.920045647316e+05 1.918993710466e+05 1.917877796511e+05 1.916691431799e+05 1.915427248524e+05 1.914076814779e+05 1.912630402756e+05 1.911076663499e+05 1.909402200235e+05 1.907591050136e+05 1.905624012784e+05 1.903477751607e+05 1.901123571168e+05 1.898525723794e+05 1.895639018550e+05 1.892405372342e+05 1.888748717755e+05 1.884567292849e+05 1.879721654383e+05 1.874015553211e+05 1.867164766166e+05 1.858745916525e+05 1.848114144286e+05 1.834273477422e+05 1.815602599394e+05 1.788969993471e+05 1.747637749647e+05 1.677898031001e+05 1.576809565546e+05 1.523842327607e+05 1.517367366643e+05 1.516902117588e+05 1.516870468936e+05 1.516868324250e+05 1.516868178944e+05 1.516868169099e+05 1.516868168432e+05 1.516868168386e+05 1.516868168383e+05 1.516868168383e+05 1.516868168382e+05 1.516868168382e+05 1.516868168382e+05 1.516868168382e+05 1.516868168382e+05 1.516868168381e+05 1.516868168381e+05 1.516868168381e+05 1.516868168381e+05 1.516868168381e+05 1.516868168381e+05 1.516868168381e+05 1.516868168380e+05 1.516868168380e+05 1.516868168380e+05 1.516868168380e+05 1.516868168380e+05 1.516868168380e+05 1.516868168380e+05 1.516868168379e+05 1.516868168379e+05 1.516868168379e+05 1.516868168379e+05 1.516868168379e+05 1.516868168379e+05 1.516868168379e+05 1.516868168379e+05 1.516868168378e+05 1.516868168378e+05 1.516868168378e+05 1.516868168378e+05 1.516868168378e+05 1.516868168378e+05 1.516868168378e+05 1.516868168378e+05 1.516868168378e+05 1.516868168377e+05 1.516868168377e+05 1.516868168377e+05 1.516868168377e+05 1.516868168377e+05 1.516868168377e+05 1.516868168377e+05 1.516868168377e+05 1.516868168377e+05 1.516868168377e+05 1.516868168377e+05 1.516868168376e+05 1.516868168376e+05 1.516868168376e+05 1.516868168376e+05 1.516868168376e+05 1.516868168376e+05 1.516868168376e+05 1.516868168376e+05 1.516868168376e+05 1.516868168376e+05 1.516868168376e+05 1.516868168376e+05 1.516868168376e+05 1.516868168376e+05 1.516868168375e+05 1.516868168375e+05 1.516868168375e+05 1.516868168375e+05 1.516868168375e+05 1.516868168375e+05 1.516868168375e+05 1.516868168375e+05 1.516868168375e+05 1.516868168375e+05 1.516868168375e+05 1.516868168375e+05 1.516868168375e+05 1.516868168375e+05 1.516868168375e+05 1.516868168375e+05 1.516868168375e+05 1.516868168375e+05 1.516868168375e+05 1.516868168375e+05 1.516868168375e+05 1.516868168375e+05 1.516868168375e+05 1.516868168375e+05 1.516868168375e+05 1.516868168375e+05 1.516868168375e+05 1.516868168375e+05 1.516868168375e+05 
        </DataArray>
        <DataArray type="Float64" Name="PRESSURE2" format="ascii">
          2.000000000000e+05 2.004730820183e+05 2.005728240474e+05 2.006415208803e+05 2.006956120703e+05 2.007409225203e+05 2.007802690553e+05 2.008152523617e+05 2.008468787854e+05 2.008758267688e+05 2.009025777809e+05 2.009274872331e+05 2.009508258054e+05 2.009728049449e+05 2.009935933407e+05 2.010133279777e+05 2.010321217945e+05 2.010500691318e+05 2.010672497021e+05 2.010837315396e+05 2.010995732329e+05 2.011148256413e+05 2.011295332324e+05 2.011437351390e+05 2.011574660028e+05 2.011707566548e+05 2.011836346706e+05 2.011961248259e+05 2.012082494737e+05 2.012200288599e+05 2.012314813875e+05 2.012426238401e+05 2.012534715729e+05 2.012640386742e+05 2.012743381063e+05 2.012843818251e+05 2.012941808857e+05 2.013037455330e+05 2.013130852814e+05 2.013222089853e+05 2.013311249001e+05 2.013398407373e+05 2.013483637122e+05 2.013567005876e+05 2.013648577115e+05 2.013728410518e+05 2.013806562266e+05 2.013883085325e+05 2.013958029690e+05 2.014031442612e+05 2.014103368800e+05 2.014173850609e+05 2.014242928205e+05 2.014310639718e+05 2.014377021385e+05 2.014442107673e+05 2.014505931398e+05 2.014568523832e+05 2.014629914802e+05 2.014690132779e+05 2.014749204961e+05 2.014807157353e+05 2.014864014833e+05 2.014919801222e+05 2.014974539345e+05 2.015028251083e+05 2.015080957428e+05 2.015132678535e+05 2.015183433760e+05 2.015233241708e+05 2.015282120272e+05 2.015330086666e+05 2.015377157462e+05 2.015423348622e+05 2.015468675527e+05 2.015513153006e+05 2.015556795362e+05 2.015599616397e+05 2.015641629432e+05 2.015682847336e+05 2.015723282539e+05 2.015762947054e+05 2.015801852499e+05 2.015840010105e+05 2.015877430741e+05 2.015914124926e+05 2.015950102840e+05 2.015985374343e+05 2.016019948984e+05 2.016053836012e+05 2.016087044392e+05 2.016119582812e+05 2.016151459692e+05 2.016182683197e+05 2.016213261243e+05 2.016243201507e+05 2.016272511433e+05 2.016301198244e+05 2.016329268941e+05 2.016356730317e+05 2.016383588958e+05 2.016409851252e+05 2.016435523393e+05 2.016460611385e+05 2.016485121046e+05 2.016509058015e+05 2.016532427751e+05 2.016555235541e+05 2.016577486499e+05 2.016599185571e+05 2.016620337536e+05 2.016640947006e+05 2.016661018428e+05 2.016680556088e+05 2.016699564104e+05 2.016718046432e+05 2.016736006862e+05 2.016753449014e+05 2.016770376341e+05 2.016786792122e+05 2.016802699457e+05 2.016818101265e+05 2.016833000276e+05 2.016847399026e+05 2.016861299846e+05 2.016874704854e+05 2.016887615943e+05 2.016900034772e+05 2.016911962748e+05 2.016923401015e+05 2.016934350441e+05 2.016944811602e+05 2.016954784774e+05 2.016964269935e+05 2.016973266778e+05 2.016981774765e+05 2.016989793220e+05 2.016997321510e+05 2.017004359275e+05 2.017010906525e+05 2.017016963444e+05 2.017022530040e+05 2.017027605659e+05 2.017032188283e+05 2.017036273492e+05 2.017039852890e+05 2.017042911618e+05 2.017045424308e+05 2.017047348275e+05 2.017048611636e+05 2.017049091822e+05 2.017048575520e+05 2.017046682990e+05 2.017042729136e+05 2.017035490106e+05 2.017022749239e+05 2.016999793217e+05 2.016956850591e+05 2.016893328408e+05 2.016874585009e+05 2.016868184917e+05 2.016868168410e+05 2.016868168384e+05 2.016868168384e+05 2.016868168384e+05 2.016868168383e+05 2.016868168383e+05 2.016868168383e+05 2.016868168383e+05 2.016868168383e+05 2.016868168383e+05 2.016868168382e+05 2.016868168382e+05 2.016868168382e+05 2.016868168382e+05 2.016868168382e+05 2.016868168381e+05 2.016868168381e+05 2.016868168381e+05 2.016868168381e+05 2.016868168381e+05 2.016868168381e+05 2.016868168381e+05 2.016868168380e+05 2.016868168380e+05 2.016868168380e+05 2.016868168380e+05 2.016868168380e+05 2.016868168380e+05 2.016868168380e+05 2.016868168379e+05 2.016868168379e+05 2.016868168379e+05 2.016868168379e+05 2.016868168379e+05 2.016868168379e+05 2.016868168379e+05 2.016868168379e+05 2.016868168378e+05 2.016868168378e+05 2.016868168378e+05 2.016868168378e+05 2.016868168378e+05 2.016868168378e+05 2.016868168378e+05 2.016868168378e+05 2.016868168378e+05 2.016868168377e+05 2.016868168377e+05 2.016868168377e+05 2.016868168377e+05 2.016868168377e+05 2.016868168377e+05 2.016868168377e+05 2.016868168377e+05 2.016868168377e+05 2.016868168377e+05 2.016868168377e+05 2.016868168376e+05 2.016868168376e+05 2.016868168376e+05 2.016868168376e+05 2.016868168376e+05 2.016868168376e+05 2.016868168376e+05 2.016868168376e+05 2.016868168376e+05 2.016868168376e+05 2.016868168376e+05 2.016868168376e+05 2.016868168376e+05 2.016868168376e+05 2.016868168375e+05 2.016868168375e+05 2.016868168375e+05 2.016868168375e+05 2.016868168375e+05 2.016868168375e+05 2.016868168375e+05 2.016868168375e+05 2.016868168375e+05 2.016868168375e+05 2.016868168375e+05 2.016868168375e+05 2.016868168375e+05 2.016868168375e+05 2.016868168375e+05 2.016868168375e+05 2.016868168375e+05 2.016868168375e+05 2.016868168375e+05 2.016868168375e+05 2.016868168375e+05 2.016868168375e+05 2.016868168375e+05 2.016868168375e+05 2.016868168375e+05 2.016868168375e+05 2.016868168375e+05 2.016868168375e+05 2.016868168375e+05 
        </DataArray>
        <DataArray type="Float64" Name="PRESSURE_CAP" format="ascii">
          5.000000000000e+03 5.474592472741e+03 5.576744797738e+03 5.648172429880e+03 5.705253276443e+03 5.753780915006e+03 5.796552646111e+03 5.835155721835e+03 5.870586689469e+03 5.903516572146e+03 5.934421079104e+03 5.963651076918e+03 5.991473623295e+03 6.018097265872e+03 6.043688374225e+03 6.068382090323e+03 6.092289907609e+03 6.115505060440e+03 6.138106446816e+03 6.160161542131e+03 6.181728602453e+03 6.202858357168e+03 6.223595327853e+03 6.243978869078e+03 6.264043999257e+03 6.283822070902e+03 6.303341316496e+03 6.322627297026e+03 6.341703273510e+03 6.360590517096e+03 6.379308569689e+03 6.397875464466e+03 6.416307913592e+03 6.434621468973e+03 6.452830660664e+03 6.470949116692e+03 6.488989667310e+03 6.506964436148e+03 6.524884920307e+03 6.542762061044e+03 6.560606306462e+03 6.578427667345e+03 6.596235767127e+03 6.614039886803e+03 6.631849005491e+03 6.649671837218e+03 6.667516864462e+03 6.685392368857e+03 6.703306459462e+03 6.721267098903e+03 6.739282127680e+03 6.757359286891e+03 6.775506239577e+03 6.793730590908e+03 6.812039907356e+03 6.830441735030e+03 6.848943617306e+03 6.867553111874e+03 6.886277807334e+03 6.905125339428e+03 6.924103407032e+03 6.943219787978e+03 6.962482354818e+03 6.981899090602e+03 7.001478104756e+03 7.021227649154e+03 7.041156134436e+03 7.061272146691e+03 7.081584464554e+03 7.102102076816e+03 7.122834200634e+03 7.143790300413e+03 7.164980107478e+03 7.186413640603e+03 7.208101227525e+03 7.230053527537e+03 7.252281555276e+03 7.274796705839e+03 7.297610781356e+03 7.320736019158e+03 7.344185121712e+03 7.367971288484e+03 7.392108249913e+03 7.416610303717e+03 7.441492353734e+03 7.466769951558e+03 7.492459341243e+03 7.518577507356e+03 7.545142226739e+03 7.572172124316e+03 7.599686733374e+03 7.627706560763e+03 7.656253157511e+03 7.685349195436e+03 7.715018550356e+03 7.745286392626e+03 7.776179285771e+03 7.807725294120e+03 7.839954100411e+03 7.872897134528e+03 7.906587714599e+03 7.941061201930e+03 7.976355171375e+03 8.012509599011e+03 8.049567069214e+03 8.087573003542e+03 8.126575914170e+03 8.166627685014e+03 8.207783884153e+03 8.250104111685e+03 8.293652387802e+03 8.338497586573e+03 8.384713921832e+03 8.432381492532e+03 8.481586896162e+03 8.532423920204e+03 8.584994323283e+03 8.639408719594e+03 8.695787582560e+03 8.754262386370e+03 8.814976907334e+03 8.878088710826e+03 8.943770854173e+03 9.012213841244e+03 9.083627870866e+03 9.158245428817e+03 9.236324282029e+03 9.318150944356e+03 9.404044696096e+03 9.494362255363e+03 9.589503220115e+03 9.689916428578e+03 9.796107430841e+03 9.908647342311e+03 1.002818349794e+04 1.015545262413e+04 1.029129784413e+04 1.043669187544e+04 1.059276957761e+04 1.076087062897e+04 1.094259133076e+04 1.113985172567e+04 1.135498540521e+04 1.159086171147e+04 1.185105496971e+04 1.214008343403e+04 1.246375392765e+04 1.282967065528e+04 1.324800554253e+04 1.373269572531e+04 1.430335386110e+04 1.498838093544e+04 1.583007664648e+04 1.689285848507e+04 1.827620126844e+04 2.014201498448e+04 2.280297997460e+04 2.693191009446e+04 3.389952974071e+04 4.400650194631e+04 4.930258573103e+04 4.995008017669e+04 4.999660507955e+04 4.999976994474e+04 4.999998441340e+04 4.999999894391e+04 4.999999992843e+04 4.999999999515e+04 4.999999999967e+04 4.999999999998e+04 5.000000000000e+04 5.000000000000e+04 5.000000000000e+04 5.000000000000e+04 5.000000000000e+04 5.000000000000e+04 5.000000000000e+04 5.000000000000e+04 5.000000000000e+04 5.000000000000e+04 5.000000000000e+04 5.000000000000e+04 5.000000000000e+04 5.000000000000e+04 5.000000000000e+04 5.000000000000e+04 5.000000000000e+04 5.000000000000e+04 5.000000000000e+04 5.000000000000e+04 5.000000000000e+04 5.000000000000e+04 5.000000000000e+04 5.000000000000e+04 5.000000000000e+04 5.000000000000e+04 5.000000000000e+04 5.000000000000e+04 5.000000000000e+04 5.000000000000e+04 5.000000000000e+04 5.000000000000e+04 5.000000000000e+04 5.000000000000e+04 5.000000000000e+04 5.000000000000e+04 5.000000000000e+04 5.000000000000e+04 5.000000000000e+04 5.000000000000e+04 5.000000000000e+04 5.000000000000e+04 5.000000000000e+04 5.000000000000e+04 5.000000000000e+04 5.000000000000e+04 5.000000000000e+04 5.000000000000e+04 5.000000000000e+04 5.000000000000e+04 5.000000000000e+04 5.000000000000e+04 5.000000000000e+04 5.000000000000e+04 5.000000000000e+04 5.000000000000e+04 5.000000000000e+04 5.000000000000e+04 5.000000000000e+04 5.000000000000e+04 5.000000000000e+04 5.000000000000e+04 5.000000000000e+04 5.000000000000e+04 5.000000000000e+04 5.000000000000e+04 5.000000000000e+04 5.000000000000e+04 5.000000000000e+04 5.000000000000e+04 5.000000000000e+04 5.000000000000e+04 5.000000000000e+04 5.000000000000e+04 5.000000000000e+04 5.000000000000e+04 5.000000000000e+04 5.000000000000e+04 5.000000000000e+04 5.000000000000e+04 5.000000000000e+04 5.000000000000e+04 5.000000000000e+04 5.000000000000e+04 5.000000000000e+04 5.000000000000e+04 5.000000000000e+04 5.000000000000e+04 5.000000000000e+04 5.000000000000e+04 5.000000000000e+04 
        </DataArray>
        <DataArray type="Float64" Name="SATURATION1" format="ascii">