<?xml version="1.0"?>
<!-- Time step: 167 | Time: 1.000000000000e+04 -->
<VTKFile type="UnstructuredGrid" version="0.1" byte_order="LittleEndian">
  <UnstructuredGrid>
    <Piece NumberOfPoints="261" NumberOfCells="260">
      <Points>
        <DataArray type="Float64" NumberOfComponents="3" format="ascii">
          0.000000000000e+00 0.000000000000e+00 0.000000000000e+00
          1.000000000000e-02 0.000000000000e+00 0.000000000000e+00
          2.000000000000e-02 0.000000000000e+00 0.000000000000e+00
          3.000000000000e-02 0.000000000000e+00 0.000000000000e+00
          4.000000000000e-02 0.000000000000e+00 0.000000000000e+00
          5.000000000000e-02 0.000000000000e+00 0.000000000000e+00
          6.000000000000e-02 0.000000000000e+00 0.000000000000e+00
          7.000000000000e-02 0.000000000000e+00 0.000000000000e+00
          8.000000000000e-02 0.000000000000e+00 0.000000000000e+00
          9.000000000000e-02 0.000000000000e+00 0.000000000000e+00
          1.000000000000e-01 0.000000000000e+00 0.000000000000e+00
          1.100000000000e-01 0.000000000000e+00 0.000000000000e+00
          1.200000000000e-01 0.000000000000e+00 0.000000000000e+00
          1.300000000000e-01 0.000000000000e+00 0.000000000000e+00
          1.400000000000e-01 0.000000000000e+00 0.000000000000e+00
          1.500000000000e-01 0.000000000000e+00 0.000000000000e+00
          1.600000000000e-01 0.000000000000e+00 0.000000000000e+00
          1.700000000000e-01 0.000000000000e+00 0.000000000000e+00
          1.800000000000e-01 0.000000000000e+00 0.000000000000e+00
          1.900000000000e-01 0.000000000000e+00 0.000000000000e+00
          2.000000000000e-01 0.000000000000e+00 0.000000000000e+00
          2.100000000000e-01 0.000000000000e+00 0.000000000000e+00
          2.200000000000e-01 0.000000000000e+00 0.000000000000e+00
          2.300000000000e-01 0.000000000000e+00 0.000000000000e+00
          2.400000000000e-01 0.000000000000e+00 0.000000000000e+00
          2.500000000000e-01 0.000000000000e+00 0.000000000000e+00
          2.600000000000e-01 0.000000000000e+00 0.000000000000e+00
          2.700000000000e-01 0.000000000000e+00 0.000000000000e+00
          2.800000000000e-01 0.000000000000e+00 0.000000000000e+00
          2.900000000000e-01 0.000000000000e+00 0.000000000000e+00
          3.000000000000e-01 0.000000000000e+00 0.000000000000e+00
          3.100000000000e-01 0.000000000000e+00 0.000000000000e+00
          3.200000000000e-01 0.000000000000e+00 0.000000000000e+00
          3.300000000000e-01 0.000000000000e+00 0.000000000000e+00
          3.400000000000e-01 0.000000000000e+00 0.000000000000e+00
          3.500000000000e-01 0.000000000000e+00 0.000000000000e+00
          3.600000000000e-01 0.000000000000e+00 0.000000000000e+00
          3.700000000000e-01 0.000000000000e+00 0.000000000000e+00
          3.800000000000e-01 0.000000000000e+00 0.000000000000e+00
          3.900000000000e-01 0.000000000000e+00 0.000000000000e+00
          4.000000000000e-01 0.000000000000e+00 0.000000000000e+00
          4.100000000000e-01 0.000000000000e+00 0.000000000000e+00
          4.200000000000e-01 0.000000000000e+00 0.000000000000e+00
          4.300000000000e-01 0.000000000000e+00 0.000000000000e+00
          4.400000000000e-01 0.000000000000e+00 0.000000000000e+00
          4.500000000000e-01 0.000000000000e+00 0.000000000000e+00
          4.600000000000e-01 0.000000000000e+00 0.000000000000e+00
          4.700000000000e-01 0.000000000000e+00 0.000000000000e+00
          4.800000000000e-01 0.000000000000e+00 0.000000000000e+00
          4.900000000000e-01 0.000000000000e+00 0.000000000000e+00
          5.000000000000e-01 0.000000000000e+00 0.000000000000e+00
          5.100000000000e-01 0.000000000000e+00 0.000000000000e+00
          5.200000000000e-01 0.000000000000e+00 0.000000000000e+00
          5.300000000000e-01 0.000000000000e+00 0.000000000000e+00
          5.400000000000e-01 0.000000000000e+00 0.000000000000e+00
          5.500000000000e-01 0.000000000000e+00 0.000000000000e+00
          5.600000000000e-01 0.000000000000e+00 0.000000000000e+00
          5.700000000000e-01 0.000000000000e+00 0.000000000000e+00
          5.800000000000e-01 0.000000000000e+00 0.000000000000e+00
          5.900000000000e-01 0.000000000000e+00 0.000000000000e+00
          6.000000000000e-01 0.000000000000e+00 0.000000000000e+00
          6.100000000000e-01 0.000000000000e+00 0.000000000000e+00
          6.200000000000e-01 0.000000000000e+00 0.000000000000e+00
          6.300000000000e-01 0.000000000000e+00 0.000000000000e+00
          6.400000000000e-01 0.000000000000e+00 0.000000000000e+00
          6.500000000000e-01 0.000000000000e+00 0.000000000000e+00
          6.600000000000e-01 0.000000000000e+00 0.000000000000e+00
          6.700000000000e-01 0.000000000000e+00 0.000000000000e+00
          6.800000000000e-01 0.000000000000e+00 0.000000000000e+00
          6.900000000000e-01 0.000000000000e+00 0.000000000000e+00
          7.000000000000e-01 0.000000000000e+00 0.000000000000e+00
          7.100000000000e-01 0.000000000000e+00 0.000000000000e+00
          7.200000000000e-01 0.000000000000e+00 0.000000000000e+00
          7.300000000000e-01 0.000000000000e+00 0.000000000000e+00
          7.400000000000e-01 0.000000000000e+00 0.000000000000e+00
          7.500000000000e-01 0.000000000000e+00 0.000000000000e+00
          7.600000000000e-01 0.000000000000e+00 0.000000000000e+00
          7.700000000000e-01 0.000000000000e+00 0.000000000000e+00
          7.800000000000e-01 0.000000000000e+00 0.000000000000e+00
          7.900000000000e-01 0.000000000000e+00 0.000000000000e+00
          8.000000000000e-01 0.000000000000e+00 0.000000000000e+00
          8.100000000000e-01 0.000000000000e+00 0.000000000000e+00
          8.200000000000e-01 0.000000000000e+00 0.000000000000e+00
          8.300000000000e-01 0.000000000000e+00 0.000000000000e+00
          8.400000000000e-01 0.000000000000e+00 0.000000000000e+00
          8.500000000000e-01 0.000000000000e+00 0.000000000000e+00
          8.600000000000e-01 0.000000000000e+00 0.000000000000e+00
          8.700000000000e-01 0.000000000000e+00 0.000000000000e+00
          8.800000000000e-01 0.000000000000e+00 0.000000000000e+00
          8.900000000000e-01 0.000000000000e+00 0.000000000000e+00
          9.000000000000e-01 0.000000000000e+00 0.000000000000e+00
          9.100000000000e-01 0.000000000000e+00 0.000000000000e+00
          9.200000000000e-01 0.000000000000e+00 0.000000000000e+00
          9.300000000000e-01 0.000000000000e+00 0.000000000000e+00
          9.400000000000e-01 0.000000000000e+00 0.000000000000e+00
          9.500000000000e-01 0.000000000000e+00 0.000000000000e+00
          9.600000000000e-01 0.000000000000e+00 0.000000000000e+00
          9.700000000000e-01 0.000000000000e+00 0.000000000000e+00
          9.800000000000e-01 0.000000000000e+00 0.000000000000e+00
          9.900000000000e-01 0.000000000000e+00 0.000000000000e+00
          1.000000000000e+00 0.000000000000e+00 0.000000000000e+00
          1.010000000000e+00 0.000000000000e+00 0.000000000000e+00
          1.020000000000e+00 0.000000000000e+00 0.000000000000e+00
          1.030000000000e+00 0.000000000000e+00 0.000000000000e+00
          1.040000000000e+00 0.000000000000e+00 0.000000000000e+00
          1.050000000000e+00 0.000000000000e+00 0.000000000000e+00
          1.060000000000e+00 0.000000000000e+00 0.000000000000e+00
          1.070000000000e+00 0.000000000000e+00 0.000000000000e+00
          1.080000000000e+00 0.000000000000e+00 0.000000000000e+00
          1.090000000000e+00 0.000000000000e+00 0.000000000000e+00
          1.100000000000e+00 0.000000000000e+00 0.000000000000e+00
          1.110000000000e+00 0.000000000000e+00 0.000000000000e+00
          1.120000000000e+00 0.000000000000e+00 0.000000000000e+00
          1.130000000000e+00 0.000000000000e+00 0.000000000000e+00
          1.140000000000e+00 0.000000000000e+00 0.000000000000e+00
          1.150000000000e+00 0.000000000000e+00 0.000000000000e+00
          1.160000000000e+00 0.000000000000e+00 0.000000000000e+00
          1.170000000000e+00 0.000000000000e+00 0.000000000000e+00
          1.180000000000e+00 0.000000000000e+00 0.000000000000e+00
          1.190000000000e+00 0.000000000000e+00 0.000000000000e+00
          1.200000000000e+00 0.000000000000e+00 0.000000000000e+00
          1.210000000000e+00 0.000000000000e+00 0.000000000000e+00
          1.220000000000e+00 0.000000000000e+00 0.000000000000e+00
          1.230000000000e+00 0.000000000000e+00 0.000000000000e+00
          1.240000000000e+00 0.000000000000e+00 0.000000000000e+00
          1.250000000000e+00 0.000000000000e+00 0.000000000000e+00
          1.260000000000e+00 0.000000000000e+00 0.000000000000e+00
          1.270000000000e+00 0.000000000000e+00 0.000000000000e+00
          1.280000000000e+00 0.000000000000e+00 0.000000000000e+00
          1.290000000000e+00 0.000000000000e+00 0.000000000000e+00
          1.300000000000e+00 0.000000000000e+00 0.000000000000e+00
          1.310000000000e+00 0.000000000000e+00 0.000000000000e+00
          1.320000000000e+00 0.000000000000e+00 0.000000000000e+00
          1.330000000000e+00 0.000000000000e+00 0.000000000000e+00
          1.340000000000e+00 0.000000000000e+00 0.000000000000e+00
          1.350000000000e+00 0.000000000000e+00 0.000000000000e+00
          1.360000000000e+00 0.000000000000e+00 0.000000000000e+00
          1.370000000000e+00 0.000000000000e+00 0.000000000000e+00
          1.380000000000e+00 0.000000000000e+00 0.000000000000e+00
          1.390000000000e+00 0.000000000000e+00 0.000000000000e+00
          1.400000000000e+00 0.000000000000e+00 0.000000000000e+00
          1.410000000000e+00 0.000000000000e+00 0.000000000000e+00
          1.420000000000e+00 0.000000000000e+00 0.000000000000e+00
          1.430000000000e+00 0.000000000000e+00 0.000000000000e+00
[...]
      <PointData Scalars="PRESSURE1">
        <DataArray type="Float64" Name="PRESSURE1" format="ascii">
          1.950000000000e+05 1.949985380083e+05 1.949962143323e+05 1.949935845118e+05 1.949907076982e+05 1.949876139692e+05 1.949843220868e+05 1.949808449743e+05 1.949771920696e+05 1.949733705305e+05 1.949693859246e+05 1.949652426563e+05 1.949609442466e+05 1.949564935253e+05 1.949518927673e+05 1.949471437927e+05 1.949422480414e+05 1.949372066306e+05 1.949320203994e+05 1.949266899436e+05 1.949212156442e+05 1.949155976896e+05 1.949098360946e+05 1.949039307148e+05 1.948978812596e+05 1.948916873023e+05 1.948853482886e+05 1.948788635434e+05 1.948722322772e+05 1.948654535903e+05 1.948585264770e+05 1.948514498288e+05 1.948442224366e+05 1.948368429931e+05 1.948293100937e+05 1.948216222379e+05 1.948137778294e+05 1.948057751766e+05 1.947976124922e+05 1.947892878928e+05 1.947807993981e+05 1.947721449295e+05 1.947633223091e+05 1.947543292579e+05 1.947451633937e+05 1.947358222291e+05 1.947263031689e+05 1.947166035076e+05 1.947067204263e+05 1.946966509892e+05 1.946863921408e+05 1.946759407012e+05 1.946652933627e+05 1.946544466853e+05 1.946433970917e+05 1.946321408626e+05 1.946206741312e+05 1.946089928775e+05 1.945970929222e+05 1.945849699203e+05 1.945726193541e+05 1.945600365258e+05 1.945472165499e+05 1.945341543445e+05 1.945208446228e+05 1.945072818833e+05 1.944934603999e+05 1.944793742114e+05 1.944650171096e+05 1.944503826275e+05 1.944354640261e+05 1.944202542808e+05 1.944047460663e+05 1.943889317406e+05 1.943728033289e+05 1.943563525045e+05 1.943395705701e+05 1.943224484368e+05 1.943049766018e+05 1.942871451245e+05 1.942689436011e+05 1.942503611364e+05 1.942313863148e+05 1.942120071676e+05 1.941922111392e+05 1.941719850490e+05 1.941513150521e+05 1.941301865948e+05 1.941085843682e+05 1.940864922564e+05 1.940638932814e+05 1.940407695423e+05 1.940171021501e+05 1.939928711553e+05 1.939680554702e+05 1.939426327832e+05 1.939165794648e+05 1.938898704653e+05 1.938624792015e+05 1.938343774329e+05 1.938055351244e+05 1.937759202951e+05 1.937454988512e+05 1.937142344001e+05 1.936820880448e+05 1.936490181536e+05 1.936149801046e+05 1.935799259992e+05 1.935438043403e+05 1.935065596717e+05 1.934681321711e+05 1.934284571895e+05 1.933874647304e+05 1.933450788561e+05 1.933012170116e+05 1.932557892502e+05 1.932086973435e+05 1.931598337563e+05 1.931090804586e+05 1.930563075458e+05 1.930013716259e+05 1.929441139290e+05 1.928843580775e+05 1.928219074420e+05 1.927565419908e+05 1.926880145101e+05 1.926160460405e+05 1.925403203306e+05 1.924604770421e+05 1.923761033598e+05 1.922867235409e+05 1.921917857715e+05 1.920906454648e+05 1.919825437978e+05 1.918665797800e+05 1.917416734066e+05 1.916065163065e+05 1.914595045123e+05 1.912986451323e+05 1.911214240027e+05 1.909246134273e+05 1.907039850895e+05 1.904538675895e+05 1.901664390801e+05 1.898305470811e+05 1.894296385045e+05 1.889379105706e+05 1.883126556076e+05 1.874778646895e+05 1.862862278692e+05 1.844230528241e+05 1.811378472590e+05 1.745366747864e+05 1.608899011671e+05 1.521674396952e+05 1.517120451853e+05 1.517027707590e+05 1.517025888110e+05 1.517025852442e+05 1.517025851743e+05 1.517025851729e+05 1.517025851729e+05 1.517025851729e+05 1.517025851729e+05 1.517025851729e+05 1.517025851729e+05 1.517025851729e+05 1.517025851729e+05 1.517025851729e+05 1.517025851729e+05 1.517025851729e+05 1.517025851728e+05 1.517025851728e+05 1.517025851728e+05 1.517025851728e+05 1.517025851728e+05 1.517025851728e+05 1.517025851728e+05 1.517025851728e+05 1.517025851728e+05 1.517025851728e+05 1.517025851728e+05 1.517025851728e+05 1.517025851728e+05 1.517025851728e+05 1.517025851728e+05 1.517025851728e+05 1.517025851728e+05 1.517025851728e+05 1.517025851728e+05 1.517025851728e+05 1.517025851728e+05 1.517025851728e+05 1.517025851728e+05 1.517025851728e+05 1.517025851728e+05 1.517025851728e+05 1.517025851728e+05 1.517025851728e+05 1.517025851728e+05 1.517025851728e+05 1.517025851728e+05 1.517025851728e+05 1.517025851728e+05 1.517025851728e+05 1.517025851728e+05 1.517025851728e+05 1.517025851728e+05 1.517025851728e+05 1.517025851728e+05 1.517025851728e+05 1.517025851728e+05 1.517025851728e+05 1.517025851728e+05 1.517025851728e+05 1.517025851728e+05 1.517025851728e+05 1.517025851728e+05 1.517025851728e+05 1.517025851728e+05 1.517025851728e+05 1.517025851728e+05 1.517025851728e+05 1.517025851728e+05 1.517025851728e+05 1.517025851728e+05 1.517025851728e+05 1.517025851728e+05 1.517025851728e+05 1.517025851728e+05 1.517025851728e+05 1.517025851728e+05 1.517025851728e+05 1.517025851728e+05 1.517025851728e+05 1.517025851728e+05 1.517025851728e+05 1.517025851728e+05 1.517025851728e+05 1.517025851728e+05 1.517025851728e+05 1.517025851728e+05 1.517025851728e+05 1.517025851728e+05 1.517025851728e+05 1.517025851728e+05 1.517025851728e+05 1.517025851728e+05 1.517025851728e+05 1.517025851728e+05 1.517025851728e+05 1.517025851728e+05 1.517025851728e+05 1.517025851728e+05 1.517025851728e+05 1.517025851728e+05 1.517025851728e+05 1.517025851728e+05 1.517025851728e+05 1.517025851728e+05 1.517025851728e+05 
        </DataArray>
        <DataArray type="Float64" Name="PRESSURE2" format="ascii">
          2.000000000000e+05 2.004691773887e+05 2.005680237590e+05 2.006360989223e+05 2.006897004363e+05 2.007346022336e+05 2.007735962331e+05 2.008082688383e+05 2.008396173411e+05 2.008683140332e+05 2.008948359870e+05 2.009195353468e+05 2.009426802878e+05 2.009644802888e+05 2.009851024588e+05 2.010046824929e+05 2.010233322600e+05 2.010411452028e+05 2.010582002711e+05 2.010745648448e+05 2.010902969466e+05 2.011054469421e+05 2.011200588655e+05 2.011341714664e+05 2.011478190459e+05 2.011610321308e+05 2.011738380234e+05 2.011862612528e+05 2.011983239491e+05 2.012100461552e+05 2.012214460891e+05 2.012325403653e+05 2.012433441835e+05 2.012538714892e+05 2.012641351124e+05 2.012741468875e+05 2.012839177560e+05 2.012934578578e+05 2.013027766096e+05 2.013118827741e+05 2.013207845217e+05 2.013294894837e+05 2.013380048007e+05 2.013463371650e+05 2.013544928583e+05 2.013624777862e+05 2.013702975080e+05 2.013779572646e+05 2.013854620031e+05 2.013928163986e+05 2.014000248750e+05 2.014070916229e+05 2.014140206163e+05 2.014208156280e+05 2.014274802429e+05 2.014340178711e+05 2.014404317591e+05 2.014467250007e+05 2.014529005467e+05 2.014589612134e+05 2.014649096915e+05 2.014707485534e+05 2.014764802599e+05 2.014821071675e+05 2.014876315336e+05 2.014930555225e+05 2.014983812106e+05 2.015036105910e+05 2.015087455782e+05 2.015137880120e+05 2.015187396618e+05 2.015236022298e+05 2.015283773547e+05 2.015330666145e+05 2.015376715301e+05 2.015421935673e+05 2.015466341400e+05 2.015509946123e+05 2.015552763011e+05 2.015594804779e+05 2.015636083709e+05 2.015676611673e+05 2.015716400144e+05 2.015755460220e+05 2.015793802632e+05 2.015831437768e+05 2.015868375679e+05 2.015904626097e+05 2.015940198445e+05 2.015975101850e+05 2.016009345154e+05 2.016042936925e+05 2.016075885464e+05 2.016108198817e+05 2.016139884784e+05 2.016170950926e+05 2.016201404570e+05 2.016231252824e+05 2.016260502573e+05 2.016289160495e+05 2.016317233060e+05 2.016344726541e+05 2.016371647013e+05 2.016398000364e+05 2.016423792291e+05 2.016449028314e+05 2.016473713769e+05 2.016497853820e+05 2.016521453453e+05 2.016544517485e+05 2.016567050561e+05 2.016589057158e+05 2.016610541584e+05 2.016631507976e+05 2.016651960305e+05 2.016671902367e+05 2.016691337787e+05 2.016710270014e+05 2.016728702315e+05 2.016746637773e+05 2.016764079279e+05 2.016781029523e+05 2.016797490986e+05 2.016813465926e+05 2.016828956366e+05 2.016843964074e+05 2.016858490542e+05 2.016872536955e+05 2.016886104165e+05 2.016899192642e+05 2.016911802423e+05 2.016923933046e+05 2.016935583457e+05 2.016946751899e+05 2.016957435755e+05 2.016967631335e+05 2.016977333581e+05 2.016986535643e+05 2.016995228258e+05 2.017003398801e+05 2.017011029800e+05 2.017018096507e+05 2.017024562728e+05 2.017030373320e+05 2.017035439803e+05 2.017039610794e+05 2.017042605996e+05 2.017043853989e+05 2.017042048360e+05 2.017033793613e+05 2.017009125566e+05 2.016937837547e+05 2.016781292498e+05 2.017038219755e+05 2.017025873895e+05 2.017025851736e+05 2.017025851729e+05 2.017025851729e+05 2.017025851729e+05 2.017025851729e+05 2.017025851729e+05 2.017025851729e+05 2.017025851729e+05 2.017025851729e+05 2.017025851729e+05 2.017025851729e+05 2.017025851729e+05 2.017025851729e+05 2.017025851729e+05 2.017025851729e+05 2.017025851729e+05 2.017025851728e+05 2.017025851728e+05 2.017025851728e+05 2.017025851728e+05 2.017025851728e+05 2.017025851728e+05 2.017025851728e+05 2.017025851728e+05 2.017025851728e+05 2.017025851728e+05 2.017025851728e+05 2.017025851728e+05 2.017025851728e+05 2.017025851728e+05 2.017025851728e+05 2.017025851728e+05 2.017025851728e+05 2.017025851728e+05 2.017025851728e+05 2.017025851728e+05 2.017025851728e+05 2.017025851728e+05 2.017025851728e+05 2.017025851728e+05 2.017025851728e+05 2.017025851728e+05 2.017025851728e+05 2.017025851728e+05 2.017025851728e+05 2.017025851728e+05 2.017025851728e+05 2.017025851728e+05 2.017025851728e+05 2.017025851728e+05 2.017025851728e+05 2.017025851728e+05 2.017025851728e+05 2.017025851728e+05 2.017025851728e+05 2.017025851728e+05 2.017025851728e+05 2.017025851728e+05 2.017025851728e+05 2.017025851728e+05 2.017025851728e+05 2.017025851728e+05 2.017025851728e+05 2.017025851728e+05 2.017025851728e+05 2.017025851728e+05 2.017025851728e+05 2.017025851728e+05 2.017025851728e+05 2.017025851728e+05 2.017025851728e+05 2.017025851728e+05 2.017025851728e+05 2.017025851728e+05 2.017025851728e+05 2.017025851728e+05 2.017025851728e+05 2.017025851728e+05 2.017025851728e+05 2.017025851728e+05 2.017025851728e+05 2.017025851728e+05 2.017025851728e+05 2.017025851728e+05 2.017025851728e+05 2.017025851728e+05 2.017025851728e+05 2.017025851728e+05 2.017025851728e+05 2.017025851728e+05 2.017025851728e+05 2.017025851728e+05 2.017025851728e+05 2.017025851728e+05 2.017025851728e+05 2.017025851728e+05 2.017025851728e+05 2.017025851728e+05 2.017025851728e+05 2.017025851728e+05 2.017025851728e+05 2.017025851728e+05 2.017025851728e+05 2.017025851728e+05 2.017025851728e+05 2.017025851728e+05 
        </DataArray>
        <DataArray type="Float64" Name="PRESSURE_CAP" format="ascii">
          5.000000000000e+03 5.470639380463e+03 5.571809426727e+03 5.642514410548e+03 5.698992738039e+03 5.746988264416e+03 5.789274146225e+03 5.827423863944e+03 5.862425271454e+03 5.894943502690e+03 5.925450062462e+03 5.954292690530e+03 5.981736041222e+03 6.007986763492e+03 6.033209691535e+03 6.057538700279e+03 6.081084218668e+03 6.103938572234e+03 6.126179871673e+03 6.147874901171e+03 6.169081302426e+03 6.189849252468e+03 6.210222770933e+03 6.230240751693e+03 6.249937786352e+03 6.269344828525e+03 6.288489734831e+03 6.307397709365e+03 6.326091671850e+03 6.344592564871e+03 6.362919612073e+03 6.381090536577e+03 6.399121746892e+03 6.417028496069e+03 6.434825018715e+03 6.452524649564e+03 6.470139926606e+03 6.487682681225e+03 6.505164117354e+03 6.522594881298e+03 6.539985123624e+03 6.557344554235e+03 6.574682491619e+03 6.592007907076e+03 6.609329464610e+03 6.626655557072e+03 6.643994339059e+03 6.661353757003e+03 6.678741576803e+03 6.696165409353e+03 6.713632734216e+03 6.731150921709e+03 6.748727253612e+03 6.766368942684e+03 6.784083151168e+03 6.801877008430e+03 6.819757627873e+03 6.837732123250e+03 6.855807624483e+03 6.873991293112e+03 6.892290337445e+03 6.910712027531e+03 6.929263710013e+03 6.947952822965e+03 6.966786910791e+03 6.985773639249e+03 7.004920810700e+03 7.024236379643e+03 7.043728468619e+03 7.063405384565e+03 7.083275635693e+03 7.103347948993e+03 7.123631288422e+03 7.144134873903e+03 7.164868201198e+03 7.185841062792e+03 7.207063569870e+03 7.228546175524e+03 7.250299699313e+03 7.272335353314e+03 7.294664769821e+03 7.317300030850e+03 7.340253699636e+03 7.363538854327e+03 7.387169124079e+03 7.411158727807e+03 7.435522515856e+03 7.460276014888e+03 7.485435476311e+03 7.511017928625e+03 7.537041234090e+03 7.563524150171e+03 7.590486396282e+03 7.617948726395e+03 7.645933008176e+03 7.674462309363e+03 7.703560992232e+03 7.733254817070e+03 7.763571055738e+03 7.794538616514e+03 7.826188181623e+03 7.858552359009e+03 7.891665850187e+03 7.925565636238e+03 7.960291184369e+03 7.995884677812e+03 8.032391272284e+03 8.069859382766e+03 8.108341004986e+03 8.147892076731e+03 8.188572885030e+03 8.230448526314e+03 8.273589428006e+03 8.318071941546e+03 8.363979018842e+03 8.411400986511e+03 8.460436435223e+03 8.511193245122e+03 8.563789772872e+03 8.618356231574e+03 8.675036302060e+03 8.733989023260e+03 8.795391021102e+03 8.859439150632e+03 8.926353645810e+03 8.996381897380e+03 9.069803013640e+03 9.146933364880e+03 9.228133374450e+03 9.313815904416e+03 9.404456701397e+03 9.500607533108e+03 9.602912880836e+03 9.712131392052e+03 9.829163795509e+03 9.955089726836e+03 1.009121705158e+04 1.023914905200e+04 1.040087769347e+04 1.057891587733e+04 1.077648955269e+04 1.099782456120e+04 1.124858868330e+04 1.153659825189e+04 1.187299689922e+04 1.227432257482e+04 1.276635002902e+04 1.339172979133e+04 1.422634014656e+04 1.541715149210e+04 1.727785973249e+04 2.055593649567e+04 2.714145446336e+04 4.081392080841e+04 4.953514769434e+04 4.999053998836e+04 4.999981441393e+04 4.999999636193e+04 4.999999992869e+04 4.999999999860e+04 4.999999999997e+04 5.000000000000e+04 5.000000000001e+04 5.000000000000e+04 5.000000000000e+04 5.000000000000e+04 5.000000000000e+04 5.000000000000e+04 5.000000000000e+04 5.000000000000e+04 5.000000000000e+04 5.000000000000e+04 5.000000000000e+04 5.000000000000e+04 5.000000000000e+04 5.000000000000e+04 5.000000000000e+04 5.000000000000e+04 5.000000000000e+04 5.000000000000e+04 5.000000000000e+04 5.000000000000e+04 5.000000000000e+04 5.000000000000e+04 5.000000000000e+04 5.000000000000e+04 5.000000000000e+04 5.000000000000e+04 5.000000000000e+04 5.000000000000e+04 5.000000000000e+04 5.000000000000e+04 5.000000000000e+04 5.000000000000e+04 5.000000000000e+04 5.000000000000e+04 5.000000000000e+04 5.000000000000e+04 5.000000000000e+04 5.000000000000e+04 5.000000000000e+04 5.000000000000e+04 5.000000000000e+04 4.999999999999e+04 5.000000000000e+04 4.999999999999e+04 5.000000000000e+04 5.000000000000e+04 5.000000000000e+04 5.000000000000e+04 5.000000000000e+04 5.000000000000e+04 5.000000000000e+04 5.000000000000e+04 4.999999999999e+04 4.999999999999e+04 4.999999999999e+04 5.000000000000e+04 5.000000000000e+04 5.000000000000e+04 5.000000000000e+04 5.000000000000e+04 5.000000000000e+04 5.000000000000e+04 5.000000000000e+04 5.000000000000e+04 5.000000000000e+04 5.000000000000e+04 5.000000000000e+04 5.000000000000e+04 5.000000000000e+04 5.000000000000e+04 5.000000000000e+04 5.000000000000e+04 4.999999999999e+04 5.000000000000e+04 5.000000000000e+04 5.000000000000e+04 5.000000000000e+04 5.000000000000e+04 5.000000000000e+04 5.000000000000e+04 5.000000000000e+04 5.000000000000e+04 5.000000000000e+04 5.000000000000e+04 5.000000000000e+04 4.999999999999e+04 5.000000000000e+04 5.000000000000e+04 5.000000000000e+04 5.000000000000e+04 5.000000000000e+04 5.000000000000e+04 5.000000000000e+04 5.000000000000e+04 4.999999999999e+04 5.000000000000e+04 4.999999999999e+04 5.000000000000e+04 5.000000000000e+04 
        </DataArray>
        <DataArray type="Float64" Name="SATURATION1" format="ascii">