<?xml version="1.0"?>
<!-- Time step: 165 | Time: 1.000000000000e+04 -->
<VTKFile type="UnstructuredGrid" version="0.1" byte_order="LittleEndian">
  <UnstructuredGrid>
    <Piece NumberOfPoints="261" NumberOfCells="260">
      <Points>
        <DataArray type="Float64" NumberOfComponents="3" format="ascii">
          0.000000000000e+00 0.000000000000e+00 0.000000000000e+00
          1.000000000000e-02 0.000000000000e+00 0.000000000000e+00
          2.000000000000e-02 0.000000000000e+00 0.000000000000e+00
          3.000000000000e-02 0.000000000000e+00 0.000000000000e+00
          4.000000000000e-02 0.000000000000e+00 0.000000000000e+00
          5.000000000000e-02 0.000000000000e+00 0.000000000000e+00
          6.000000000000e-02 0.000000000000e+00 0.000000000000e+00
          7.000000000000e-02 0.000000000000e+00 0.000000000000e+00
          8.000000000000e-02 0.000000000000e+00 0.000000000000e+00
          9.000000000000e-02 0.000000000000e+00 0.000000000000e+00
          1.000000000000e-01 0.000000000000e+00 0.000000000000e+00
          1.100000000000e-01 0.000000000000e+00 0.000000000000e+00
          1.200000000000e-01 0.000000000000e+00 0.000000000000e+00
          1.300000000000e-01 0.000000000000e+00 0.000000000000e+00
          1.400000000000e-01 0.000000000000e+00 0.000000000000e+00
          1.500000000000e-01 0.000000000000e+00 0.000000000000e+00
          1.600000000000e-01 0.000000000000e+00 0.000000000000e+00
          1.700000000000e-01 0.000000000000e+00 0.000000000000e+00
          1.800000000000e-01 0.000000000000e+00 0.000000000000e+00
          1.900000000000e-01 0.000000000000e+00 0.000000000000e+00
          2.000000000000e-01 0.000000000000e+00 0.000000000000e+00
          2.100000000000e-01 0.000000000000e+00 0.000000000000e+00
          2.200000000000e-01 0.000000000000e+00 0.000000000000e+00
          2.300000000000e-01 0.000000000000e+00 0.000000000000e+00
          2.400000000000e-01 0.000000000000e+00 0.000000000000e+00
          2.500000000000e-01 0.000000000000e+00 0.000000000000e+00
          2.600000000000e-01 0.000000000000e+00 0.000000000000e+00
          2.700000000000e-01 0.000000000000e+00 0.000000000000e+00
          2.800000000000e-01 0.000000000000e+00 0.000000000000e+00
          2.900000000000e-01 0.000000000000e+00 0.000000000000e+00
          3.000000000000e-01 0.000000000000e+00 0.000000000000e+00
          3.100000000000e-01 0.000000000000e+00 0.000000000000e+00
          3.200000000000e-01 0.000000000000e+00 0.000000000000e+00
          3.300000000000e-01 0.000000000000e+00 0.000000000000e+00
          3.400000000000e-01 0.000000000000e+00 0.000000000000e+00
          3.500000000000e-01 0.000000000000e+00 0.000000000000e+00
          3.600000000000e-01 0.000000000000e+00 0.000000000000e+00
          3.700000000000e-01 0.000000000000e+00 0.000000000000e+00
          3.800000000000e-01 0.000000000000e+00 0.000000000000e+00
          3.900000000000e-01 0.000000000000e+00 0.000000000000e+00
          4.000000000000e-01 0.000000000000e+00 0.000000000000e+00
          4.100000000000e-01 0.000000000000e+00 0.000000000000e+00
          4.200000000000e-01 0.000000000000e+00 0.000000000000e+00
          4.300000000000e-01 0.000000000000e+00 0.000000000000e+00
          4.400000000000e-01 0.000000000000e+00 0.000000000000e+00
          4.500000000000e-01 0.000000000000e+00 0.000000000000e+00
          4.600000000000e-01 0.000000000000e+00 0.000000000000e+00
          4.700000000000e-01 0.000000000000e+00 0.000000000000e+00
          4.800000000000e-01 0.000000000000e+00 0.000000000000e+00
          4.900000000000e-01 0.000000000000e+00 0.000000000000e+00
          5.000000000000e-01 0.000000000000e+00 0.000000000000e+00
          5.100000000000e-01 0.000000000000e+00 0.000000000000e+00
          5.200000000000e-01 0.000000000000e+00 0.000000000000e+00
          5.300000000000e-01 0.000000000000e+00 0.000000000000e+00
          5.400000000000e-01 0.000000000000e+00 0.000000000000e+00
          5.500000000000e-01 0.000000000000e+00 0.000000000000e+00
          5.600000000000e-01 0.000000000000e+00 0.000000000000e+00
          5.700000000000e-01 0.000000000000e+00 0.000000000000e+00
          5.800000000000e-01 0.000000000000e+00 0.000000000000e+00
          5.900000000000e-01 0.000000000000e+00 0.000000000000e+00
          6.000000000000e-01 0.000000000000e+00 0.000000000000e+00
          6.100000000000e-01 0.000000000000e+00 0.000000000000e+00
          6.200000000000e-01 0.000000000000e+00 0.000000000000e+00
          6.300000000000e-01 0.000000000000e+00 0.000000000000e+00
          6.400000000000e-01 0.000000000000e+00 0.000000000000e+00
          6.500000000000e-01 0.000000000000e+00 0.000000000000e+00
          6.600000000000e-01 0.000000000000e+00 0.000000000000e+00
          6.700000000000e-01 0.000000000000e+00 0.000000000000e+00
          6.800000000000e-01 0.000000000000e+00 0.000000000000e+00
          6.900000000000e-01 0.000000000000e+00 0.000000000000e+00
          7.000000000000e-01 0.000000000000e+00 0.000000000000e+00
          7.100000000000e-01 0.000000000000e+00 0.000000000000e+00
          7.200000000000e-01 0.000000000000e+00 0.000000000000e+00
          7.300000000000e-01 0.000000000000e+00 0.000000000000e+00
          7.400000000000e-01 0.000000000000e+00 0.000000000000e+00
          7.500000000000e-01 0.000000000000e+00 0.000000000000e+00
          7.600000000000e-01 0.000000000000e+00 0.000000000000e+00
          7.700000000000e-01 0.000000000000e+00 0.000000000000e+00
          7.800000000000e-01 0.000000000000e+00 0.000000000000e+00
          7.900000000000e-01 0.000000000000e+00 0.000000000000e+00
          8.000000000000e-01 0.000000000000e+00 0.000000000000e+00
          8.100000000000e-01 0.000000000000e+00 0.000000000000e+00
          8.200000000000e-01 0.000000000000e+00 0.000000000000e+00
          8.300000000000e-01 0.000000000000e+00 0.000000000000e+00
          8.400000000000e-01 0.000000000000e+00 0.000000000000e+00
          8.500000000000e-01 0.000000000000e+00 0.000000000000e+00
          8.600000000000e-01 0.000000000000e+00 0.000000000000e+00
          8.700000000000e-01 0.000000000000e+00 0.000000000000e+00
          8.800000000000e-01 0.000000000000e+00 0.000000000000e+00
          8.900000000000e-01 0.000000000000e+00 0.000000000000e+00
          9.000000000000e-01 0.000000000000e+00 0.000000000000e+00
          9.100000000000e-01 0.000000000000e+00 0.000000000000e+00
          9.200000000000e-01 0.000000000000e+00 0.000000000000e+00
          9.300000000000e-01 0.000000000000e+00 0.000000000000e+00
          9.400000000000e-01 0.000000000000e+00 0.000000000000e+00
          9.500000000000e-01 0.000000000000e+00 0.000000000000e+00
          9.600000000000e-01 0.000000000000e+00 0.000000000000e+00
          9.700000000000e-01 0.000000000000e+00 0.000000000000e+00
          9.800000000000e-01 0.000000000000e+00 0.000000000000e+00
          9.900000000000e-01 0.000000000000e+00 0.000000000000e+00
          1.000000000000e+00 0.000000000000e+00 0.000000000000e+00
          1.010000000000e+00 0.000000000000e+00 0.000000000000e+00
          1.020000000000e+00 0.000000000000e+00 0.000000000000e+00
          1.030000000000e+00 0.000000000000e+00 0.000000000000e+00
          1.040000000000e+00 0.000000000000e+00 0.000000000000e+00
          1.050000000000e+00 0.000000000000e+00 0.000000000000e+00
          1.060000000000e+00 0.000000000000e+00 0.000000000000e+00
          1.070000000000e+00 0.000000000000e+00 0.000000000000e+00
          1.080000000000e+00 0.000000000000e+00 0.000000000000e+00
          1.090000000000e+00 0.000000000000e+00 0.000000000000e+00
          1.100000000000e+00 0.000000000000e+00 0.000000000000e+00
          1.110000000000e+00 0.000000000000e+00 0.000000000000e+00
          1.120000000000e+00 0.000000000000e+00 0.000000000000e+00
          1.130000000000e+00 0.000000000000e+00 0.000000000000e+00
          1.140000000000e+00 0.000000000000e+00 0.000000000000e+00
          1.150000000000e+00 0.000000000000e+00 0.000000000000e+00
          1.160000000000e+00 0.000000000000e+00 0.000000000000e+00
          1.170000000000e+00 0.000000000000e+00 0.000000000000e+00
          1.180000000000e+00 0.000000000000e+00 0.000000000000e+00
          1.190000000000e+00 0.000000000000e+00 0.000000000000e+00
          1.200000000000e+00 0.000000000000e+00 0.000000000000e+00
          1.210000000000e+00 0.000000000000e+00 0.000000000000e+00
          1.220000000000e+00 0.000000000000e+00 0.000000000000e+00
          1.230000000000e+00 0.000000000000e+00 0.000000000000e+00
          1.240000000000e+00 0.000000000000e+00 0.000000000000e+00
          1.250000000000e+00 0.000000000000e+00 0.000000000000e+00
          1.260000000000e+00 0.000000000000e+00 0.000000000000e+00
          1.270000000000e+00 0.000000000000e+00 0.000000000000e+00
          1.280000000000e+00 0.000000000000e+00 0.000000000000e+00
          1.290000000000e+00 0.000000000000e+00 0.000000000000e+00
          1.300000000000e+00 0.000000000000e+00 0.000000000000e+00
          1.310000000000e+00 0.000000000000e+00 0.000000000000e+00
          1.320000000000e+00 0.000000000000e+00 0.000000000000e+00
          1.330000000000e+00 0.000000000000e+00 0.000000000000e+00
          1.340000000000e+00 0.000000000000e+00 0.000000000000e+00
          1.350000000000e+00 0.000000000000e+00 0.000000000000e+00
          1.360000000000e+00 0.000000000000e+00 0.000000000000e+00
          1.370000000000e+00 0.000000000000e+00 0.000000000000e+00
          1.380000000000e+00 0.000000000000e+00 0.000000000000e+00
          1.390000000000e+00 0.000000000000e+00 0.000000000000e+00
          1.400000000000e+00 0.000000000000e+00 0.000000000000e+00
          1.410000000000e+00 0.000000000000e+00 0.000000000000e+00
          1.420000000000e+00 0.000000000000e+00 0.000000000000e+00
          1.430000000000e+00 0.000000000000e+00 0.000000000000e+00
[...]
      <PointData Scalars="PRESSURE1">
        <DataArray type="Float64" Name="PRESSURE1" format="ascii">
          1.950000000000e+05 1.949985380840e+05 1.949962145429e+05 1.949935848797e+05 1.949907082417e+05 1.949876147046e+05 1.949843230294e+05 1.949808461383e+05 1.949771934689e+05 1.949733721783e+05 1.949693878340e+05 1.949652448401e+05 1.949609467174e+05 1.949564962954e+05 1.949518958491e+05 1.949471471984e+05 1.949422517832e+05 1.949372107207e+05 1.949320248498e+05 1.949266947666e+05 1.949212208518e+05 1.949156032940e+05 1.949098421079e+05 1.949039371493e+05 1.948978881277e+05 1.948916946163e+05 1.948853560608e+05 1.948788717865e+05 1.948722410036e+05 1.948654628128e+05 1.948585362083e+05 1.948514600817e+05 1.948442332241e+05 1.948368543282e+05 1.948293219897e+05 1.948216347080e+05 1.948137908870e+05 1.948057888352e+05 1.947976267654e+05 1.947893027944e+05 1.947808149420e+05 1.947721611297e+05 1.947633391798e+05 1.947543468134e+05 1.947451816484e+05 1.947358411976e+05 1.947263228659e+05 1.947166239479e+05 1.947067416249e+05 1.946966729613e+05 1.946864149016e+05 1.946759642663e+05 1.946653177476e+05 1.946544719058e+05 1.946434231636e+05 1.946321678019e+05 1.946207019541e+05 1.946090216004e+05 1.945971225615e+05 1.945850004926e+05 1.945726508762e+05 1.945600690146e+05 1.945472500224e+05 1.945341888179e+05 1.945208801143e+05 1.945073184103e+05 1.944934979801e+05 1.944794128623e+05 1.944650568490e+05 1.944504234732e+05 1.944355059961e+05 1.944202973932e+05 1.944047903390e+05 1.943889771919e+05 1.943728499769e+05 1.943564003675e+05 1.943396196664e+05 1.943224987846e+05 1.943050282193e+05 1.942871980301e+05 1.942689978127e+05 1.942504166722e+05 1.942314431927e+05 1.942120654055e+05 1.941922707545e+05 1.941720460594e+05 1.941513774746e+05 1.941302504464e+05 1.941086496654e+05 1.940865590153e+05 1.940639615177e+05 1.940408392713e+05 1.940171733863e+05 1.939929439128e+05 1.939681297621e+05 1.939427086219e+05 1.939166568618e+05 1.938899494309e+05 1.938625597450e+05 1.938344595622e+05 1.938056188459e+05 1.937760056136e+05 1.937455857698e+05 1.937143229199e+05 1.936821781644e+05 1.936491098693e+05 1.936150734100e+05 1.935800208845e+05 1.935439007925e+05 1.935066576739e+05 1.934682317021e+05 1.934285582234e+05 1.933875672358e+05 1.933451827958e+05 1.933013223417e+05 1.932558959192e+05 1.932088052918e+05 1.931599429146e+05 1.931091907472e+05 1.930564188729e+05 1.930014838863e+05 1.929442270024e+05 1.928844718258e+05 1.928220217077e+05 1.927566565938e+05 1.926881292444e+05 1.926161606706e+05 1.925404345864e+05 1.924605906139e+05 1.923762158918e+05 1.922868346227e+05 1.921918949288e+05 1.920907521472e+05 1.919826473635e+05 1.918666794766e+05 1.917417683459e+05 1.916066054309e+05 1.914595865495e+05 1.912987185304e+05 1.911214868356e+05 1.909246632482e+05 1.907040186917e+05 1.904538805895e+05 1.901664251307e+05 1.898304962548e+05 1.894295336214e+05 1.889377178579e+05 1.883122976753e+05 1.874771306532e+05 1.862844332638e+05 1.844174236954e+05 1.811146862038e+05 1.744444952405e+05 1.606831789265e+05 1.521416352753e+05 1.517125215304e+05 1.517038917549e+05 1.517037242077e+05 1.517037209571e+05 1.517037208941e+05 1.517037208928e+05 1.517037208928e+05 1.517037208928e+05 1.517037208927e+05 1.517037208927e+05 1.517037208927e+05 1.517037208927e+05 1.517037208927e+05 1.517037208927e+05 1.517037208927e+05 1.517037208927e+05 1.517037208927e+05 1.517037208926e+05 1.517037208926e+05 1.517037208926e+05 1.517037208926e+05 1.517037208926e+05 1.517037208926e+05 1.517037208926e+05 1.517037208926e+05 1.517037208926e+05 1.517037208925e+05 1.517037208925e+05 1.517037208925e+05 1.517037208925e+05 1.517037208925e+05 1.517037208925e+05 1.517037208925e+05 1.517037208925e+05 1.517037208925e+05 1.517037208925e+05 1.517037208925e+05 1.517037208924e+05 1.517037208924e+05 1.517037208924e+05 1.517037208924e+05 1.517037208924e+05 1.517037208924e+05 1.517037208924e+05 1.517037208924e+05 1.517037208924e+05 1.517037208924e+05 1.517037208924e+05 1.517037208924e+05 1.517037208924e+05 1.517037208924e+05 1.517037208924e+05 1.517037208923e+05 1.517037208923e+05 1.517037208923e+05 1.517037208923e+05 1.517037208923e+05 1.517037208923e+05 1.517037208923e+05 1.517037208923e+05 1.517037208923e+05 1.517037208923e+05 1.517037208923e+05 1.517037208923e+05 1.517037208923e+05 1.517037208923e+05 1.517037208923e+05 1.517037208923e+05 1.517037208923e+05 1.517037208923e+05 1.517037208922e+05 1.517037208922e+05 1.517037208922e+05 1.517037208922e+05 1.517037208922e+05 1.517037208922e+05 1.517037208922e+05 1.517037208922e+05 1.517037208922e+05 1.517037208922e+05 1.517037208922e+05 1.517037208922e+05 1.517037208922e+05 1.517037208922e+05 1.517037208922e+05 1.517037208922e+05 1.517037208922e+05 1.517037208922e+05 1.517037208922e+05 1.517037208922e+05 1.517037208922e+05 1.517037208922e+05 1.517037208922e+05 1.517037208922e+05 1.517037208922e+05 1.517037208922e+05 1.517037208922e+05 1.517037208922e+05 1.517037208922e+05 1.517037208922e+05 1.517037208922e+05 1.517037208922e+05 1.517037208922e+05 1.517037208922e+05 1.517037208922e+05 1.517037208922e+05 
        </DataArray>
        <DataArray type="Float64" Name="PRESSURE2" format="ascii">
          2.000000000000e+05 2.004691712127e+05 2.005680161676e+05 2.006360903489e+05 2.006896910897e+05 2.007345922421e+05 2.007735856855e+05 2.008082578011e+05 2.008396058663e+05 2.008683021633e+05 2.008948237575e+05 2.009195227878e+05 2.009426674258e+05 2.009644671470e+05 2.009850890582e+05 2.010046688522e+05 2.010233183962e+05 2.010411311318e+05 2.010581860072e+05 2.010745504017e+05 2.010902823369e+05 2.011054321777e+05 2.011200439576e+05 2.011341564256e+05 2.011478038823e+05 2.011610168540e+05 2.011738226426e+05 2.011862457769e+05 2.011983083866e+05 2.012100305142e+05 2.012214303776e+05 2.012325245910e+05 2.012433283537e+05 2.012538556112e+05 2.012641191932e+05 2.012741309339e+05 2.012839017746e+05 2.012934418552e+05 2.013027605920e+05 2.013118667479e+05 2.013207684929e+05 2.013294734582e+05 2.013379887845e+05 2.013463211637e+05 2.013544768776e+05 2.013624618316e+05 2.013702815850e+05 2.013779413786e+05 2.013854461592e+05 2.013928006022e+05 2.014000091311e+05 2.014070759366e+05 2.014140049927e+05 2.014208000719e+05 2.014274647591e+05 2.014340024644e+05 2.014404164343e+05 2.014467097624e+05 2.014528853994e+05 2.014589461618e+05 2.014648947400e+05 2.014707337064e+05 2.014764655219e+05 2.014820925426e+05 2.014876170261e+05 2.014930411367e+05 2.014983669505e+05 2.015035964607e+05 2.015087315817e+05 2.015137741534e+05 2.015187259448e+05 2.015235886584e+05 2.015283639325e+05 2.015330533454e+05 2.015376584176e+05 2.015421806151e+05 2.015466213516e+05 2.015509819912e+05 2.015552638506e+05 2.015594682014e+05 2.015635962717e+05 2.015676492484e+05 2.015716282791e+05 2.015755344732e+05 2.015793689040e+05 2.015831326100e+05 2.015868265963e+05 2.015904518360e+05 2.015940092713e+05 2.015974998149e+05 2.016009243508e+05 2.016042837357e+05 2.016075787997e+05 2.016108103472e+05 2.016139791582e+05 2.016170859886e+05 2.016201315711e+05 2.016231166161e+05 2.016260418123e+05 2.016289078273e+05 2.016317153079e+05 2.016344648813e+05 2.016371571548e+05 2.016397927171e+05 2.016423721379e+05 2.016448959688e+05 2.016473647434e+05 2.016497789778e+05 2.016521391706e+05 2.016544458032e+05 2.016566993400e+05 2.016589002285e+05 2.016610488992e+05 2.016631457658e+05 2.016651912248e+05 2.016671856560e+05 2.016691294215e+05 2.016710228660e+05 2.016728663158e+05 2.016746600792e+05 2.016764044448e+05 2.016780996814e+05 2.016797460368e+05 2.016813437365e+05 2.016828929826e+05 2.016843939515e+05 2.016858467919e+05 2.016872516222e+05 2.016886085272e+05 2.016899175533e+05 2.016911787041e+05 2.016923919328e+05 2.016935571337e+05 2.016946741309e+05 2.016957426620e+05 2.016967623579e+05 2.016977327124e+05 2.016986530404e+05 2.016995224155e+05 2.017003395755e+05 2.017011027738e+05 2.017018095369e+05 2.017024562477e+05 2.017030373957e+05 2.017035441387e+05 2.017039613461e+05 2.017042609926e+05 2.017043859048e+05 2.017042051972e+05 2.017033778253e+05 2.017008975150e+05 2.016936775643e+05 2.016778300497e+05 2.017049607466e+05 2.017037226851e+05 2.017037208934e+05 2.017037208928e+05 2.017037208928e+05 2.017037208928e+05 2.017037208928e+05 2.017037208928e+05 2.017037208928e+05 2.017037208928e+05 2.017037208928e+05 2.017037208927e+05 2.017037208927e+05 2.017037208927e+05 2.017037208927e+05 2.017037208927e+05 2.017037208927e+05 2.017037208927e+05 2.017037208927e+05 2.017037208926e+05 2.017037208926e+05 2.017037208926e+05 2.017037208926e+05 2.017037208926e+05 2.017037208926e+05 2.017037208926e+05 2.017037208926e+05 2.017037208926e+05 2.017037208925e+05 2.017037208925e+05 2.017037208925e+05 2.017037208925e+05 2.017037208925e+05 2.017037208925e+05 2.017037208925e+05 2.017037208925e+05 2.017037208925e+05 2.017037208925e+05 2.017037208925e+05 2.017037208924e+05 2.017037208924e+05 2.017037208924e+05 2.017037208924e+05 2.017037208924e+05 2.017037208924e+05 2.017037208924e+05 2.017037208924e+05 2.017037208924e+05 2.017037208924e+05 2.017037208924e+05 2.017037208924e+05 2.017037208924e+05 2.017037208924e+05 2.017037208924e+05 2.017037208923e+05 2.017037208923e+05 2.017037208923e+05 2.017037208923e+05 2.017037208923e+05 2.017037208923e+05 2.017037208923e+05 2.017037208923e+05 2.017037208923e+05 2.017037208923e+05 2.017037208923e+05 2.017037208923e+05 2.017037208923e+05 2.017037208923e+05 2.017037208923e+05 2.017037208923e+05 2.017037208923e+05 2.017037208923e+05 2.017037208922e+05 2.017037208922e+05 2.017037208922e+05 2.017037208922e+05 2.017037208922e+05 2.017037208922e+05 2.017037208922e+05 2.017037208922e+05 2.017037208922e+05 2.017037208922e+05 2.017037208922e+05 2.017037208922e+05 2.017037208922e+05 2.017037208922e+05 2.017037208922e+05 2.017037208922e+05 2.017037208922e+05 2.017037208922e+05 2.017037208922e+05 2.017037208922e+05 2.017037208922e+05 2.017037208922e+05 2.017037208922e+05 2.017037208922e+05 2.017037208922e+05 2.017037208922e+05 2.017037208922e+05 2.017037208922e+05 2.017037208922e+05 2.017037208922e+05 2.017037208922e+05 2.017037208922e+05 2.017037208922e+05 2.017037208922e+05 2.017037208922e+05 2.017037208922e+05 
        </DataArray>
        <DataArray type="Float64" Name="PRESSURE_CAP" format="ascii">
          5.000000000000e+03 5.470633128746e+03 5.571801624687e+03 5.642505469251e+03 5.698982847977e+03 5.746977537483e+03 5.789262656169e+03 5.827411662778e+03 5.862412397486e+03 5.894929984961e+03 5.925435923414e+03 5.954277947715e+03 5.981720708446e+03 6.007970851617e+03 6.033193209058e+03 6.057521653756e+03 6.081066613040e+03 6.103920411078e+03 6.126161157395e+03 6.147855635160e+03 6.169061485186e+03 6.189828883712e+03 6.210201849673e+03 6.230219276307e+03 6.249915754643e+03 6.269322237767e+03 6.288466581815e+03 6.307373990432e+03 6.326067382922e+03 6.344567701474e+03 6.362894169363e+03 6.381064509360e+03 6.399095129637e+03 6.417001282926e+03 6.434797203526e+03 6.452496225875e+03 6.470110887676e+03 6.487653020037e+03 6.505133826619e+03 6.522563953466e+03 6.539953550886e+03 6.557312328529e+03 6.574649604638e+03 6.591974350270e+03 6.609295229188e+03 6.626620634007e+03 6.643958719092e+03 6.661317430643e+03 6.678704534334e+03 6.696127640833e+03 6.713594229478e+03 6.731111670367e+03 6.748687245060e+03 6.766328166100e+03 6.784041595515e+03 6.801834662458e+03 6.819714480123e+03 6.837688162052e+03 6.855762837964e+03 6.873945669194e+03 6.892243863851e+03 6.910664691787e+03 6.929215499449e+03 6.947903724724e+03 6.966736911827e+03 6.985722726337e+03 7.004868970439e+03 7.024183598460e+03 7.043674732777e+03 7.063350680169e+03 7.083219948701e+03 7.103291265218e+03 7.123573593549e+03 7.144076153492e+03 7.164808440702e+03 7.185780247566e+03 7.207001685185e+03 7.228483206585e+03 7.250235631272e+03 7.272270171295e+03 7.294598458934e+03 7.317232576218e+03 7.340185086421e+03 7.363469067755e+03 7.387098149470e+03 7.411086550614e+03 7.435449121696e+03 7.460201389585e+03 7.485359605943e+03 7.510940799571e+03 7.536962833085e+03 7.563444464367e+03 7.590405413312e+03 7.617866434451e+03 7.645849396082e+03 7.674377366670e+03 7.703474709313e+03 7.733167185231e+03 7.763482067332e+03 7.794448265082e+03 7.826096462034e+03 7.858459267625e+03 7.891571385044e+03 7.925469797246e+03 7.960193973536e+03 7.995786099492e+03 8.032291333452e+03 8.069758093329e+03 8.108238378129e+03 8.147788129303e+03 8.188467637977e+03 8.230342005168e+03 8.273481663435e+03 8.317962969971e+03 8.363868883138e+03 8.411289736801e+03 8.460324129775e+03 8.511079951381e+03 8.563675568625e+03 8.618241206294e+03 8.674920558447e+03 8.733872679015e+03 8.795274210985e+03 8.859322028850e+03 8.926236388801e+03 8.996264707084e+03 9.069686121354e+03 9.146817035823e+03 9.228017913221e+03 9.313701661560e+03 9.404344081362e+03 9.500497004005e+03 9.602804986526e+03 9.712026767323e+03 9.829063185449e+03 9.954994012006e+03 1.009112728150e+04 1.023906649094e+04 1.040080388510e+04 1.057885273987e+04 1.077643952568e+04 1.099779084521e+04 1.124857565827e+04 1.153661226497e+04 1.187304788384e+04 1.227442772466e+04 1.276654313465e+04 1.339208822953e+04 1.422707454402e+04 1.541894456152e+04 1.728347381957e+04 2.057899136052e+04 2.723333480918e+04 4.102178182003e+04 4.956208740978e+04 4.999119936303e+04 4.999982913796e+04 4.999999668510e+04 4.999999993569e+04 4.999999999875e+04 4.999999999997e+04 5.000000000000e+04 5.000000000000e+04 5.000000000000e+04 5.000000000000e+04 5.000000000000e+04 5.000000000000e+04 5.000000000000e+04 5.000000000000e+04 5.000000000000e+04 5.000000000000e+04 5.000000000000e+04 5.000000000000e+04 5.000000000000e+04 5.000000000000e+04 5.000000000000e+04 5.000000000000e+04 5.000000000000e+04 5.000000000000e+04 5.000000000000e+04 5.000000000000e+04 5.000000000000e+04 5.000000000000e+04 5.000000000000e+04 5.000000000000e+04 5.000000000000e+04 5.000000000000e+04 5.000000000000e+04 5.000000000000e+04 5.000000000000e+04 5.000000000000e+04 5.000000000000e+04 5.000000000000e+04 5.000000000000e+04 5.000000000000e+04 5.000000000000e+04 5.000000000000e+04 5.000000000000e+04 5.000000000000e+04 5.000000000000e+04 5.000000000000e+04 5.000000000000e+04 5.000000000000e+04 5.000000000000e+04 4.999999999999e+04 5.000000000000e+04 5.000000000000e+04 5.000000000000e+04 5.000000000000e+04 4.999999999999e+04 4.999999999999e+04 5.000000000000e+04 5.000000000000e+04 4.999999999999e+04 5.000000000000e+04 4.999999999999e+04 4.999999999999e+04 5.000000000000e+04 5.000000000000e+04 4.999999999999e+04 4.999999999999e+04 5.000000000000e+04 4.999999999999e+04 4.999999999999e+04 4.999999999999e+04 5.000000000000e+04 5.000000000000e+04 4.999999999999e+04 4.999999999999e+04 5.000000000000e+04 5.000000000000e+04 5.000000000000e+04 5.000000000000e+04 5.000000000000e+04 5.000000000000e+04 5.000000000000e+04 5.000000000000e+04 5.000000000000e+04 5.000000000000e+04 5.000000000000e+04 5.000000000000e+04 5.000000000000e+04 5.000000000000e+04 5.000000000000e+04 5.000000000000e+04 4.999999999999e+04 5.000000000000e+04 4.999999999999e+04 4.999999999999e+04 5.000000000000e+04 5.000000000000e+04 5.000000000000e+04 4.999999999999e+04 5.000000000000e+04 5.000000000000e+04 5.000000000000e+04 5.000000000000e+04 5.000000000000e+04 4.999999999999e+04 4.999999999999e+04 5.000000000000e+04 
        </DataArray>
        <DataArray type="Float64" Name="SATURATION1" format="ascii">