 TITLE = "Profiles along polylines"
 VARIABLES = "DIST" "PRESSURE1" "VELOCITY_X1" "VELOCITY_Y1" "VELOCITY_Z1" 
 ZONE T="TIME=0.000000000000e+00"
0.000000000000e+00 0.000000000000e+00 0.000000000000e+00 0.000000000000e+00 0.000000000000e+00 
1.666666802030e+00 0.000000000000e+00 0.000000000000e+00 0.000000000000e+00 0.000000000000e+00 
3.333333604060e+00 0.000000000000e+00 0.000000000000e+00 0.000000000000e+00 0.000000000000e+00 
5.000000406089e+00 0.000000000000e+00 0.000000000000e+00 0.000000000000e+00 0.000000000000e+00 
6.666667208119e+00 0.000000000000e+00 0.000000000000e+00 0.000000000000e+00 0.000000000000e+00 
8.333334010149e+00 0.000000000000e+00 0.000000000000e+00 0.000000000000e+00 0.000000000000e+00 
1.000000081218e+01 0.000000000000e+00 0.000000000000e+00 0.000000000000e+00 0.000000000000e+00 
 TITLE = "Profiles along polylines"
 VARIABLES = "DIST" "PRESSURE1" "VELOCITY_X1" "VELOCITY_Y1" "VELOCITY_Z1" 
 ZONE T="TIME=5.184000000000e+06"
0.000000000000e+00 2.129367185741e+06 1.414213562373e-03 0.000000000000e+00 1.414213562373e-03 
1.666666802030e+00 2.107805988118e+06 1.414213562373e-03 0.000000000000e+00 1.414213562373e-03 
3.333333604060e+00 2.086244790494e+06 1.414213562373e-03 0.000000000000e+00 1.414213562373e-03 
5.000000406089e+00 2.064683592871e+06 1.414213562373e-03 0.000000000000e+00 1.414213562373e-03 
6.666667208119e+00 2.043122395247e+06 1.414213562373e-03 0.000000000000e+00 1.414213562373e-03 
8.333334010149e+00 2.021561197624e+06 1.414213562373e-03 0.000000000000e+00 1.414213562373e-03 
1.000000081218e+01 2.000000000000e+06 1.414213562373e-03 0.000000000000e+00 1.414213562373e-03 
