VARIABLES  = "X","Y","Z", "PRESSURE1", "VELOCITY_X1", "VELOCITY_Y1", "VELOCITY_Z1"
ZONE T="0.000000000000e+00s", N=36, E=25, F=FEPOINT, ET=QUADRILATERAL
STRANDID=1, SOLUTIONTIME=0.000000000000e+00
0.000000000000e+00 0.000000000000e+00 0.000000000000e+00 0.000000000000e+00 0.000000000000e+00 0.000000000000e+00 0.000000000000e+00 
0.000000000000e+00 1.414213677232e+00 -1.414213447514e+00 0.000000000000e+00 0.000000000000e+00 0.000000000000e+00 0.000000000000e+00 
2.000000000000e+00 1.414213677232e+00 -1.414213447514e+00 0.000000000000e+00 0.000000000000e+00 0.000000000000e+00 0.000000000000e+00 
2.000000000000e+00 0.000000000000e+00 0.000000000000e+00 0.000000000000e+00 0.000000000000e+00 0.000000000000e+00 0.000000000000e+00 
4.000000000000e+00 1.414213677232e+00 -1.414213447514e+00 0.000000000000e+00 0.000000000000e+00 0.000000000000e+00 0.000000000000e+00 
4.000000000000e+00 0.000000000000e+00 0.000000000000e+00 0.000000000000e+00 0.000000000000e+00 0.000000000000e+00 0.000000000000e+00 
6.000000000000e+00 1.414213677232e+00 -1.414213447514e+00 0.000000000000e+00 0.000000000000e+00 0.000000000000e+00 0.000000000000e+00 
6.000000000000e+00 0.000000000000e+00 0.000000000000e+00 0.000000000000e+00 0.000000000000e+00 0.000000000000e+00 0.000000000000e+00 
8.000000000000e+00 1.414213677232e+00 -1.414213447514e+00 0.000000000000e+00 0.000000000000e+00 0.000000000000e+00 0.000000000000e+00 
8.000000000000e+00 0.000000000000e+00 0.000000000000e+00 0.000000000000e+00 0.000000000000e+00 0.000000000000e+00 0.000000000000e+00 
1.000000000000e+01 1.414213677232e+00 -1.414213447514e+00 0.000000000000e+00 0.000000000000e+00 0.000000000000e+00 0.000000000000e+00 
1.000000000000e+01 0.000000000000e+00 0.000000000000e+00 0.000000000000e+00 0.000000000000e+00 0.000000000000e+00 0.000000000000e+00 
0.000000000000e+00 2.828427354465e+00 -2.828426895027e+00 0.000000000000e+00 0.000000000000e+00 0.000000000000e+00 0.000000000000e+00 
2.000000000000e+00 2.828427354465e+00 -2.828426895027e+00 0.000000000000e+00 0.000000000000e+00 0.000000000000e+00 0.000000000000e+00 
4.000000000000e+00 2.828427354465e+00 -2.828426895027e+00 0.000000000000e+00 0.000000000000e+00 0.000000000000e+00 0.000000000000e+00 
6.000000000000e+00 2.828427354465e+00 -2.828426895027e+00 0.000000000000e+00 0.000000000000e+00 0.000000000000e+00 0.000000000000e+00 
8.000000000000e+00 2.828427354465e+00 -2.828426895027e+00 0.000000000000e+00 0.000000000000e+00 0.000000000000e+00 0.000000000000e+00 
1.000000000000e+01 2.828427354465e+00 -2.828426895027e+00 0.000000000000e+00 0.000000000000e+00 0.000000000000e+00 0.000000000000e+00 
0.000000000000e+00 4.242641031697e+00 -4.242640342541e+00 0.000000000000e+00 0.000000000000e+00 0.000000000000e+00 0.000000000000e+00 
2.000000000000e+00 4.242641031697e+00 -4.242640342541e+00 0.000000000000e+00 0.000000000000e+00 0.000000000000e+00 0.000000000000e+00 
4.000000000000e+00 4.242641031697e+00 -4.242640342541e+00 0.000000000000e+00 0.000000000000e+00 0.000000000000e+00 0.000000000000e+00 
6.000000000000e+00 4.242641031697e+00 -4.242640342541e+00 0.000000000000e+00 0.000000000000e+00 0.000000000000e+00 0.000000000000e+00 
8.000000000000e+00 4.242641031697e+00 -4.242640342541e+00 0.000000000000e+00 0.000000000000e+00 0.000000000000e+00 0.000000000000e+00 
1.000000000000e+01 4.242641031697e+00 -4.242640342541e+00 0.000000000000e+00 0.000000000000e+00 0.000000000000e+00 0.000000000000e+00 
0.000000000000e+00 5.656854708930e+00 -5.656853790055e+00 0.000000000000e+00 0.000000000000e+00 0.000000000000e+00 0.000000000000e+00 
2.000000000000e+00 5.656854708930e+00 -5.656853790055e+00 0.000000000000e+00 0.000000000000e+00 0.000000000000e+00 0.000000000000e+00 
4.000000000000e+00 5.656854708930e+00 -5.656853790055e+00 0.000000000000e+00 0.000000000000e+00 0.000000000000e+00 0.000000000000e+00 
6.000000000000e+00 5.656854708930e+00 -5.656853790055e+00 0.000000000000e+00 0.000000000000e+00 0.000000000000e+00 0.000000000000e+00 
8.000000000000e+00 5.656854708930e+00 -5.656853790055e+00 0.000000000000e+00 0.000000000000e+00 0.000000000000e+00 0.000000000000e+00 
1.000000000000e+01 5.656854708930e+00 -5.656853790055e+00 0.000000000000e+00 0.000000000000e+00 0.000000000000e+00 0.000000000000e+00 
0.000000000000e+00 7.071068386162e+00 -7.071067237568e+00 0.000000000000e+00 0.000000000000e+00 0.000000000000e+00 0.000000000000e+00 
2.000000000000e+00 7.071068386162e+00 -7.071067237568e+00 0.000000000000e+00 0.000000000000e+00 0.000000000000e+00 0.000000000000e+00 
4.000000000000e+00 7.071068386162e+00 -7.071067237568e+00 0.000000000000e+00 0.000000000000e+00 0.000000000000e+00 0.000000000000e+00 
6.000000000000e+00 7.071068386162e+00 -7.071067237568e+00 0.000000000000e+00 0.000000000000e+00 0.000000000000e+00 0.000000000000e+00 
8.000000000000e+00 7.071068386162e+00 -7.071067237568e+00 0.000000000000e+00 0.000000000000e+00 0.000000000000e+00 0.000000000000e+00 
1.000000000000e+01 7.071068386162e+00 -7.071067237568e+00 0.000000000000e+00 0.000000000000e+00 0.000000000000e+00 0.000000000000e+00 
1  2  3  4  
4  3  5  6  
6  5  7  8  
8  7  9  10  
10  9  11  12  
2  13  14  3  
3  14  15  5  
5  15  16  7  
7  16  17  9  
9  17  18  11  
13  19  20  14  
14  20  21  15  
15  21  22  16  
16  22  23  17  
17  23  24  18  
19  25  26  20  
20  26  27  21  
21  27  28  22  
22  28  29  23  
23  29  30  24  
25  31  32  26  
26  32  33  27  
27  33  34  28  
28  34  35  29  
29  35  36  30  
VARIABLES  = "X","Y","Z", "PRESSURE1", "VELOCITY_X1", "VELOCITY_Y1", "VELOCITY_Z1"
ZONE T="5.184000000000e+06s", N=36, E=25, F=FEPOINT, ET=QUADRILATERAL
STRANDID=1, SOLUTIONTIME=5.184000000000e+06
0.000000000000e+00 0.000000000000e+00 0.000000000000e+00 2.000000000000e+06 -7.763298674869e-18 -1.414213677233e-03 1.414213447514e-03 
0.000000000000e+00 1.414213677232e+00 -1.414213447514e+00 2.025873433920e+06 5.278573192722e-17 -1.414213677233e-03 1.414213447514e-03 
2.000000000000e+00 1.414213677232e+00 -1.414213447514e+00 2.025873433920e+06 2.914865173946e-17 -1.414213677233e-03 1.414213447514e-03 
2.000000000000e+00 0.000000000000e+00 0.000000000000e+00 2.000000000000e+06 -4.940280974917e-18 -1.414213677233e-03 1.414213447514e-03 
4.000000000000e+00 1.414213677232e+00 -1.414213447514e+00 2.025873433920e+06 2.614919543326e-17 -1.414213677233e-03 1.414213447514e-03 
4.000000000000e+00 0.000000000000e+00 0.000000000000e+00 2.000000000000e+06 -4.940280974917e-18 -1.414213677233e-03 1.414213447514e-03 
6.000000000000e+00 1.414213677232e+00 -1.414213447514e+00 2.025873433920e+06 2.738426567699e-17 -1.414213677233e-03 1.414213447514e-03 
6.000000000000e+00 0.000000000000e+00 0.000000000000e+00 2.000000000000e+06 -4.940280974917e-18 -1.414213677233e-03 1.414213447514e-03 
8.000000000000e+00 1.414213677232e+00 -1.414213447514e+00 2.025873433920e+06 7.148253114005e-17 -1.414213677233e-03 1.414213447514e-03 
8.000000000000e+00 0.000000000000e+00 0.000000000000e+00 2.000000000000e+06 -1.058631637482e-17 -1.414213677233e-03 1.414213447514e-03 
1.000000000000e+01 1.414213677232e+00 -1.414213447514e+00 2.025873433920e+06 1.349833502409e-16 -1.414213677233e-03 1.414213447514e-03 
1.000000000000e+01 0.000000000000e+00 0.000000000000e+00 2.000000000000e+06 -1.905536947468e-17 -1.414213677233e-03 1.414213447514e-03 
0.000000000000e+00 2.828427354465e+00 -2.828426895027e+00 2.051746867840e+06 1.410939545041e-17 -1.414213677233e-03 1.414213447514e-03 
2.000000000000e+00 2.828427354465e+00 -2.828426895027e+00 2.051746867840e+06 2.804519881925e-17 -1.414213677233e-03 1.414213447514e-03 
4.000000000000e+00 2.828427354465e+00 -2.828426895027e+00 2.051746867840e+06 6.524279452198e-17 -1.414213677233e-03 1.414213447514e-03 
6.000000000000e+00 2.828427354465e+00 -2.828426895027e+00 2.051746867840e+06 4.546495303030e-17 -1.414213677233e-03 1.414213447514e-03 
8.000000000000e+00 2.828427354465e+00 -2.828426895027e+00 2.051746867840e+06 4.224423683512e-17 -1.414213677233e-03 1.414213447514e-03 
1.000000000000e+01 2.828427354465e+00 -2.828426895027e+00 2.051746867840e+06 8.206315446552e-17 -1.414213677233e-03 1.414213447514e-03 
0.000000000000e+00 4.242641031697e+00 -4.242640342541e+00 2.077620301760e+06 8.118380795896e-17 -1.414213677232e-03 1.414213447514e-03 
2.000000000000e+00 4.242641031697e+00 -4.242640342541e+00 2.077620301760e+06 5.895823662119e-17 -1.414213677232e-03 1.414213447514e-03 
4.000000000000e+00 4.242641031697e+00 -4.242640342541e+00 2.077620301760e+06 1.587378151288e-17 -1.414213677232e-03 1.414213447514e-03 
6.000000000000e+00 4.242641031697e+00 -4.242640342541e+00 2.077620301760e+06 -4.985102257648e-18 -1.414213677232e-03 1.414213447514e-03 
8.000000000000e+00 4.242641031697e+00 -4.242640342541e+00 2.077620301760e+06 4.189135962263e-17 -1.414213677232e-03 1.414213447514e-03 
1.000000000000e+01 4.242641031697e+00 -4.242640342541e+00 2.077620301760e+06 8.876782150291e-17 -1.414213677232e-03 1.414213447514e-03 
0.000000000000e+00 5.656854708930e+00 -5.656853790055e+00 2.103493735680e+06 2.583829297883e-17 -1.414213677232e-03 1.414213447514e-03 
2.000000000000e+00 5.656854708930e+00 -5.656853790055e+00 2.103493735680e+06 3.007281952875e-17 -1.414213677232e-03 1.414213447514e-03 
4.000000000000e+00 5.656854708930e+00 -5.656853790055e+00 2.103493735680e+06 3.289583722871e-17 -1.414213677232e-03 1.414213447514e-03 
6.000000000000e+00 5.656854708930e+00 -5.656853790055e+00 2.103493735680e+06 5.900305790392e-17 -1.414213677232e-03 1.414213447514e-03 
8.000000000000e+00 5.656854708930e+00 -5.656853790055e+00 2.103493735680e+06 5.860535940869e-17 -1.414213677232e-03 1.414213447514e-03 
1.000000000000e+01 5.656854708930e+00 -5.656853790055e+00 2.103493735680e+06 3.068893138828e-17 -1.414213677232e-03 1.414213447514e-03 
0.000000000000e+00 7.071068386162e+00 -7.071067237568e+00 2.129367169601e+06 1.110382141234e-16 -1.414213677232e-03 1.414213447514e-03 
2.000000000000e+00 7.071068386162e+00 -7.071067237568e+00 2.129367169601e+06 6.658707144786e-17 -1.414213677232e-03 1.414213447514e-03 
4.000000000000e+00 7.071068386162e+00 -7.071067237568e+00 2.129367169601e+06 6.658707144786e-17 -1.414213677232e-03 1.414213447514e-03 
6.000000000000e+00 7.071068386162e+00 -7.071067237568e+00 2.129367169601e+06 2.769232160676e-17 -1.414213677232e-03 1.414213447514e-03 
8.000000000000e+00 7.071068386162e+00 -7.071067237568e+00 2.129367169601e+06 3.324871444120e-17 -1.414213677232e-03 1.414213447514e-03 
1.000000000000e+01 7.071068386162e+00 -7.071067237568e+00 2.129367169601e+06 1.221509997923e-16 -1.414213677232e-03 1.414213447514e-03 
1  2  3  4  
4  3  5  6  
6  5  7  8  
8  7  9  10  
10  9  11  12  
2  13  14  3  
3  14  15  5  
5  15  16  7  
7  16  17  9  
9  17  18  11  
13  19  20  14  
14  20  21  15  
15  21  22  16  
16  22  23  17  
17  23  24  18  
19  25  26  20  
20  26  27  21  
21  27  28  22  
22  28  29  23  
23  29  30  24  
25  31  32  26  
26  32  33  27  
27  33  34  28  
28  34  35  29  
29  35  36  30  
