VARIABLES = "X","Y","Z","VX","VY","VZ"
ZONE T="0.000000000000e+00s", I=25, F=POINT, C=BLACK
1.000000000000e+00 7.071068386162e-01 -7.071067237568e-01 0.000000000000e+00 0.000000000000e+00 0.000000000000e+00 
3.000000000000e+00 7.071068386162e-01 -7.071067237568e-01 0.000000000000e+00 0.000000000000e+00 0.000000000000e+00 
5.000000000000e+00 7.071068386162e-01 -7.071067237568e-01 0.000000000000e+00 0.000000000000e+00 0.000000000000e+00 
7.000000000000e+00 7.071068386162e-01 -7.071067237568e-01 0.000000000000e+00 0.000000000000e+00 0.000000000000e+00 
9.000000000000e+00 7.071068386162e-01 -7.071067237568e-01 0.000000000000e+00 0.000000000000e+00 0.000000000000e+00 
1.000000000000e+00 2.121320515849e+00 -2.121320171271e+00 0.000000000000e+00 0.000000000000e+00 0.000000000000e+00 
3.000000000000e+00 2.121320515849e+00 -2.121320171271e+00 0.000000000000e+00 0.000000000000e+00 0.000000000000e+00 
5.000000000000e+00 2.121320515849e+00 -2.121320171271e+00 0.000000000000e+00 0.000000000000e+00 0.000000000000e+00 
7.000000000000e+00 2.121320515849e+00 -2.121320171271e+00 0.000000000000e+00 0.000000000000e+00 0.000000000000e+00 
9.000000000000e+00 2.121320515849e+00 -2.121320171271e+00 0.000000000000e+00 0.000000000000e+00 0.000000000000e+00 
1.000000000000e+00 3.535534193081e+00 -3.535533618784e+00 0.000000000000e+00 0.000000000000e+00 0.000000000000e+00 
3.000000000000e+00 3.535534193081e+00 -3.535533618784e+00 0.000000000000e+00 0.000000000000e+00 0.000000000000e+00 
5.000000000000e+00 3.535534193081e+00 -3.535533618784e+00 0.000000000000e+00 0.000000000000e+00 0.000000000000e+00 
7.000000000000e+00 3.535534193081e+00 -3.535533618784e+00 0.000000000000e+00 0.000000000000e+00 0.000000000000e+00 
9.000000000000e+00 3.535534193081e+00 -3.535533618784e+00 0.000000000000e+00 0.000000000000e+00 0.000000000000e+00 
1.000000000000e+00 4.949747870314e+00 -4.949747066298e+00 0.000000000000e+00 0.000000000000e+00 0.000000000000e+00 
3.000000000000e+00 4.949747870314e+00 -4.949747066298e+00 0.000000000000e+00 0.000000000000e+00 0.000000000000e+00 
5.000000000000e+00 4.949747870314e+00 -4.949747066298e+00 0.000000000000e+00 0.000000000000e+00 0.000000000000e+00 
7.000000000000e+00 4.949747870314e+00 -4.949747066298e+00 0.000000000000e+00 0.000000000000e+00 0.000000000000e+00 
9.000000000000e+00 4.949747870314e+00 -4.949747066298e+00 0.000000000000e+00 0.000000000000e+00 0.000000000000e+00 
1.000000000000e+00 6.363961547546e+00 -6.363960513812e+00 0.000000000000e+00 0.000000000000e+00 0.000000000000e+00 
3.000000000000e+00 6.363961547546e+00 -6.363960513812e+00 0.000000000000e+00 0.000000000000e+00 0.000000000000e+00 
5.000000000000e+00 6.363961547546e+00 -6.363960513812e+00 0.000000000000e+00 0.000000000000e+00 0.000000000000e+00 
7.000000000000e+00 6.363961547546e+00 -6.363960513812e+00 0.000000000000e+00 0.000000000000e+00 0.000000000000e+00 
9.000000000000e+00 6.363961547546e+00 -6.363960513812e+00 0.000000000000e+00 0.000000000000e+00 0.000000000000e+00 
VARIABLES = "X","Y","Z","VX","VY","VZ"
ZONE T="5.184000000000e+06s", I=25, F=POINT, C=BLACK
1.000000000000e+00 7.071068386162e-01 -7.071067237568e-01 0.000000000000e+00 -1.414213677233e-03 1.414213447514e-03 
3.000000000000e+00 7.071068386162e-01 -7.071067237568e-01 0.000000000000e+00 -1.414213677233e-03 1.414213447514e-03 
5.000000000000e+00 7.071068386162e-01 -7.071067237568e-01 0.000000000000e+00 -1.414213677233e-03 1.414213447514e-03 
7.000000000000e+00 7.071068386162e-01 -7.071067237568e-01 0.000000000000e+00 -1.414213677233e-03 1.414213447514e-03 
9.000000000000e+00 7.071068386162e-01 -7.071067237568e-01 0.000000000000e+00 -1.414213677233e-03 1.414213447514e-03 
1.000000000000e+00 2.121320515849e+00 -2.121320171271e+00 3.880510727564e-17 -1.414213677233e-03 1.414213447514e-03 
3.000000000000e+00 2.121320515849e+00 -2.121320171271e+00 0.000000000000e+00 -1.414213677233e-03 1.414213447514e-03 
5.000000000000e+00 2.121320515849e+00 -2.121320171271e+00 3.880510727564e-17 -1.414213677233e-03 1.414213447514e-03 
7.000000000000e+00 2.121320515849e+00 -2.121320171271e+00 0.000000000000e+00 -1.414213677233e-03 1.414213447514e-03 
9.000000000000e+00 2.121320515849e+00 -2.121320171271e+00 1.164153218269e-16 -1.414213677233e-03 1.414213447514e-03 
1.000000000000e+00 3.535534193081e+00 -3.535533618784e+00 3.880510727564e-17 -1.414213677233e-03 1.414213447514e-03 
3.000000000000e+00 3.535534193081e+00 -3.535533618784e+00 3.880510727564e-17 -1.414213677232e-03 1.414213447514e-03 
5.000000000000e+00 3.535534193081e+00 -3.535533618784e+00 7.761021455129e-17 -1.414213677232e-03 1.414213447514e-03 
7.000000000000e+00 3.535534193081e+00 -3.535533618784e+00 0.000000000000e+00 -1.414213677232e-03 1.414213447514e-03 
9.000000000000e+00 3.535534193081e+00 -3.535533618784e+00 7.761021455129e-17 -1.414213677232e-03 1.414213447514e-03 
1.000000000000e+00 4.949747870314e+00 -4.949747066298e+00 7.761021455129e-17 -1.414213677232e-03 1.414213447514e-03 
3.000000000000e+00 4.949747870314e+00 -4.949747066298e+00 3.880510727564e-17 -1.414213677232e-03 1.414213447514e-03 
5.000000000000e+00 4.949747870314e+00 -4.949747066298e+00 0.000000000000e+00 -1.414213677232e-03 1.414213447514e-03 
7.000000000000e+00 4.949747870314e+00 -4.949747066298e+00 0.000000000000e+00 -1.414213677232e-03 1.414213447514e-03 
9.000000000000e+00 4.949747870314e+00 -4.949747066298e+00 7.761021455129e-17 -1.414213677232e-03 1.414213447514e-03 
1.000000000000e+00 6.363961547546e+00 -6.363960513812e+00 3.880510727564e-17 -1.414213677232e-03 1.414213447514e-03 
3.000000000000e+00 6.363961547546e+00 -6.363960513812e+00 3.880510727564e-17 -1.414213677232e-03 1.414213447514e-03 
5.000000000000e+00 6.363961547546e+00 -6.363960513812e+00 3.880510727564e-17 -1.414213677232e-03 1.414213447514e-03 
7.000000000000e+00 6.363961547546e+00 -6.363960513812e+00 3.880510727564e-17 -1.414213677232e-03 1.414213447514e-03 
9.000000000000e+00 6.363961547546e+00 -6.363960513812e+00 3.880510727564e-17 -1.414213677232e-03 1.414213447514e-03 
