<?xml version="1.0"?>
<!-- Time step: 0 | Time: 0.000000000000e+00 -->
<VTKFile type="UnstructuredGrid" version="0.1" byte_order="LittleEndian">
  <UnstructuredGrid>
    <Piece NumberOfPoints="36" NumberOfCells="25">
      <Points>
        <DataArray type="Float64" NumberOfComponents="3" format="ascii">
          0.000000000000e+00 0.000000000000e+00 0.000000000000e+00
          0.000000000000e+00 1.414213677232e+00 -1.414213447514e+00
          2.000000000000e+00 1.414213677232e+00 -1.414213447514e+00
          2.000000000000e+00 0.000000000000e+00 0.000000000000e+00
          4.000000000000e+00 1.414213677232e+00 -1.414213447514e+00
          4.000000000000e+00 0.000000000000e+00 0.000000000000e+00
          6.000000000000e+00 1.414213677232e+00 -1.414213447514e+00
          6.000000000000e+00 0.000000000000e+00 0.000000000000e+00
          8.000000000000e+00 1.414213677232e+00 -1.414213447514e+00
          8.000000000000e+00 0.000000000000e+00 0.000000000000e+00
          1.000000000000e+01 1.414213677232e+00 -1.414213447514e+00
          1.000000000000e+01 0.000000000000e+00 0.000000000000e+00
          0.000000000000e+00 2.828427354465e+00 -2.828426895027e+00
          2.000000000000e+00 2.828427354465e+00 -2.828426895027e+00
          4.000000000000e+00 2.828427354465e+00 -2.828426895027e+00
          6.000000000000e+00 2.828427354465e+00 -2.828426895027e+00
          8.000000000000e+00 2.828427354465e+00 -2.828426895027e+00
          1.000000000000e+01 2.828427354465e+00 -2.828426895027e+00
          0.000000000000e+00 4.242641031697e+00 -4.242640342541e+00
          2.000000000000e+00 4.242641031697e+00 -4.242640342541e+00
          4.000000000000e+00 4.242641031697e+00 -4.242640342541e+00
          6.000000000000e+00 4.242641031697e+00 -4.242640342541e+00
          8.000000000000e+00 4.242641031697e+00 -4.242640342541e+00
          1.000000000000e+01 4.242641031697e+00 -4.242640342541e+00
          0.000000000000e+00 5.656854708930e+00 -5.656853790055e+00
          2.000000000000e+00 5.656854708930e+00 -5.656853790055e+00
          4.000000000000e+00 5.656854708930e+00 -5.656853790055e+00
          6.000000000000e+00 5.656854708930e+00 -5.656853790055e+00
          8.000000000000e+00 5.656854708930e+00 -5.656853790055e+00
          1.000000000000e+01 5.656854708930e+00 -5.656853790055e+00
          0.000000000000e+00 7.071068386162e+00 -7.071067237568e+00
          2.000000000000e+00 7.071068386162e+00 -7.071067237568e+00
          4.000000000000e+00 7.071068386162e+00 -7.071067237568e+00
          6.000000000000e+00 7.071068386162e+00 -7.071067237568e+00
          8.000000000000e+00 7.071068386162e+00 -7.071067237568e+00
          1.000000000000e+01 7.071068386162e+00 -7.071067237568e+00
        </DataArray>
      </Points>
      <Cells>
        <DataArray type="Int64" Name="connectivity" format="ascii">
          0 1 2 3 
          3 2 4 5 
          5 4 6 7 
          7 6 8 9 
          9 8 10 11 
          1 12 13 2 
          2 13 14 4 
          4 14 15 6 
          6 15 16 8 
          8 16 17 10 
          12 18 19 13 
          13 19 20 14 
          14 20 21 15 
          15 21 22 16 
          16 22 23 17 
          18 24 25 19 
          19 25 26 20 
          20 26 27 21 
          21 27 28 22 
          22 28 29 23 
          24 30 31 25 
          25 31 32 26 
          26 32 33 27 
          27 33 34 28 
          28 34 35 29 
        </DataArray>
        <DataArray type="Int64" Name="offsets" format="ascii">
          4 8 12 16 20 24 28 32 36 40 44 48 52 56 60 64 68 72 76 80 84 88 92 96 100 
        </DataArray>
        <DataArray type="UInt8" Name="types" format="ascii">
          9 9 9 9 9 9 9 9 9 9 9 9 9 9 9 9 9 9 9 9 9 9 9 9 9 
        </DataArray>
      </Cells>
      <PointData Scalars="PRESSURE1">
        <DataArray type="Float64" Name="PRESSURE1" format="ascii">
          0.000000000000e+00 0.000000000000e+00 0.000000000000e+00 0.000000000000e+00 0.000000000000e+00 0.000000000000e+00 0.000000000000e+00 0.000000000000e+00 0.000000000000e+00 0.000000000000e+00 0.000000000000e+00 0.000000000000e+00 0.000000000000e+00 0.000000000000e+00 0.000000000000e+00 0.000000000000e+00 0.000000000000e+00 0.000000000000e+00 0.000000000000e+00 0.000000000000e+00 0.000000000000e+00 0.000000000000e+00 0.000000000000e+00 0.000000000000e+00 0.000000000000e+00 0.000000000000e+00 0.000000000000e+00 0.000000000000e+00 0.000000000000e+00 0.000000000000e+00 0.000000000000e+00 0.000000000000e+00 0.000000000000e+00 0.000000000000e+00 0.000000000000e+00 0.000000000000e+00 
        </DataArray>
        <DataArray type="Float64" Name="NODAL_VELOCITY1" NumberOfComponents="3" format="ascii">
          0.000000000000e+00 0.000000000000e+00 0.000000000000e+00 0.000000000000e+00 0.000000000000e+00 0.000000000000e+00 0.000000000000e+00 0.000000000000e+00 0.000000000000e+00 0.000000000000e+00 0.000000000000e+00 0.000000000000e+00 0.000000000000e+00 0.000000000000e+00 0.000000000000e+00 0.000000000000e+00 0.000000000000e+00 0.000000000000e+00 0.000000000000e+00 0.000000000000e+00 0.000000000000e+00 0.000000000000e+00 0.000000000000e+00 0.000000000000e+00 0.000000000000e+00 0.000000000000e+00 0.000000000000e+00 0.000000000000e+00 0.000000000000e+00 0.000000000000e+00 0.000000000000e+00 0.000000000000e+00 0.000000000000e+00 0.000000000000e+00 0.000000000000e+00 0.000000000000e+00 0.000000000000e+00 0.000000000000e+00 0.000000000000e+00 0.000000000000e+00 0.000000000000e+00 0.000000000000e+00 0.000000000000e+00 0.000000000000e+00 0.000000000000e+00 0.000000000000e+00 0.000000000000e+00 0.000000000000e+00 0.000000000000e+00 0.000000000000e+00 0.000000000000e+00 0.000000000000e+00 0.000000000000e+00 0.000000000000e+00 0.000000000000e+00 0.000000000000e+00 0.000000000000e+00 0.000000000000e+00 0.000000000000e+00 0.000000000000e+00 0.000000000000e+00 0.000000000000e+00 0.000000000000e+00 0.000000000000e+00 0.000000000000e+00 0.000000000000e+00 0.000000000000e+00 0.000000000000e+00 0.000000000000e+00 0.000000000000e+00 0.000000000000e+00 0.000000000000e+00 0.000000000000e+00 0.000000000000e+00 0.000000000000e+00 0.000000000000e+00 0.000000000000e+00 0.000000000000e+00 0.000000000000e+00 0.000000000000e+00 0.000000000000e+00 0.000000000000e+00 0.000000000000e+00 0.000000000000e+00 0.000000000000e+00 0.000000000000e+00 0.000000000000e+00 0.000000000000e+00 0.000000000000e+00 0.000000000000e+00 0.000000000000e+00 0.000000000000e+00 0.000000000000e+00 0.000000000000e+00 0.000000000000e+00 0.000000000000e+00 0.000000000000e+00 0.000000000000e+00 0.000000000000e+00 0.000000000000e+00 0.000000000000e+00 0.000000000000e+00 0.000000000000e+00 0.000000000000e+00 0.000000000000e+00 0.000000000000e+00 0.000000000000e+00 0.000000000000e+00 
        </DataArray>
      </PointData>
      <CellData>
        <DataArray type="Float64" Name="ELEMENT_VELOCITY" NumberOfComponents="3" format="ascii">
          0.000000000000e+00 0.000000000000e+00 0.000000000000e+00 0.000000000000e+00 0.000000000000e+00 0.000000000000e+00 0.000000000000e+00 0.000000000000e+00 0.000000000000e+00 0.000000000000e+00 0.000000000000e+00 0.000000000000e+00 0.000000000000e+00 0.000000000000e+00 0.000000000000e+00 0.000000000000e+00 0.000000000000e+00 0.000000000000e+00 0.000000000000e+00 0.000000000000e+00 0.000000000000e+00 0.000000000000e+00 0.000000000000e+00 0.000000000000e+00 0.000000000000e+00 0.000000000000e+00 0.000000000000e+00 0.000000000000e+00 0.000000000000e+00 0.000000000000e+00 0.000000000000e+00 0.000000000000e+00 0.000000000000e+00 0.000000000000e+00 0.000000000000e+00 0.000000000000e+00 0.000000000000e+00 0.000000000000e+00 0.000000000000e+00 0.000000000000e+00 0.000000000000e+00 0.000000000000e+00 0.000000000000e+00 0.000000000000e+00 0.000000000000e+00 0.000000000000e+00 0.000000000000e+00 0.000000000000e+00 0.000000000000e+00 0.000000000000e+00 0.000000000000e+00 0.000000000000e+00 0.000000000000e+00 0.000000000000e+00 0.000000000000e+00 0.000000000000e+00 0.000000000000e+00 0.000000000000e+00 0.000000000000e+00 0.000000000000e+00 0.000000000000e+00 0.000000000000e+00 0.000000000000e+00 0.000000000000e+00 0.000000000000e+00 0.000000000000e+00 0.000000000000e+00 0.000000000000e+00 0.000000000000e+00 0.000000000000e+00 0.000000000000e+00 0.000000000000e+00 0.000000000000e+00 0.000000000000e+00 0.000000000000e+00 
        </DataArray>
      </CellData>
    </Piece>
  </UnstructuredGrid>
</VTKFile>
