VARIABLES = "X","Y","Z","VX","VY","VZ"
ZONE T="0.000000000000e+00s", I=6, F=POINT, C=BLACK
5.892556988469e-01 0.000000000000e+00 5.892556988469e-01 0.000000000000e+00 0.000000000000e+00 0.000000000000e+00 
1.767767096541e+00 0.000000000000e+00 1.767767096541e+00 0.000000000000e+00 0.000000000000e+00 0.000000000000e+00 
2.946278494234e+00 0.000000000000e+00 2.946278494234e+00 0.000000000000e+00 0.000000000000e+00 0.000000000000e+00 
4.124789891928e+00 0.000000000000e+00 4.124789891928e+00 0.000000000000e+00 0.000000000000e+00 0.000000000000e+00 
5.303301289622e+00 0.000000000000e+00 5.303301289622e+00 0.000000000000e+00 0.000000000000e+00 0.000000000000e+00 
6.481812687316e+00 0.000000000000e+00 6.481812687316e+00 0.000000000000e+00 0.000000000000e+00 0.000000000000e+00 
VARIABLES = "X","Y","Z","VX","VY","VZ"
ZONE T="5.184000000000e+06s", I=6, F=POINT, C=BLACK
5.892556988469e-01 0.000000000000e+00 5.892556988469e-01 1.414213562373e-03 0.000000000000e+00 1.414213562373e-03 
1.767767096541e+00 0.000000000000e+00 1.767767096541e+00 1.414213562373e-03 0.000000000000e+00 1.414213562373e-03 
2.946278494234e+00 0.000000000000e+00 2.946278494234e+00 1.414213562373e-03 0.000000000000e+00 1.414213562373e-03 
4.124789891928e+00 0.000000000000e+00 4.124789891928e+00 1.414213562373e-03 0.000000000000e+00 1.414213562373e-03 
5.303301289622e+00 0.000000000000e+00 5.303301289622e+00 1.414213562373e-03 0.000000000000e+00 1.414213562373e-03 
6.481812687316e+00 0.000000000000e+00 6.481812687316e+00 1.414213562373e-03 0.000000000000e+00 1.414213562373e-03 
