<?xml version="1.0"?>
<!-- Time step: 1 | Time: 5.184000000000e+06 -->
<VTKFile type="UnstructuredGrid" version="0.1" byte_order="LittleEndian">
  <UnstructuredGrid>
    <Piece NumberOfPoints="36" NumberOfCells="25">
      <Points>
        <DataArray type="Float64" NumberOfComponents="3" format="ascii">
          0.000000000000e+00 0.000000000000e+00 0.000000000000e+00
          0.000000000000e+00 1.414213677232e+00 -1.414213447514e+00
          2.000000000000e+00 1.414213677232e+00 -1.414213447514e+00
          2.000000000000e+00 0.000000000000e+00 0.000000000000e+00
          4.000000000000e+00 1.414213677232e+00 -1.414213447514e+00
          4.000000000000e+00 0.000000000000e+00 0.000000000000e+00
          6.000000000000e+00 1.414213677232e+00 -1.414213447514e+00
          6.000000000000e+00 0.000000000000e+00 0.000000000000e+00
          8.000000000000e+00 1.414213677232e+00 -1.414213447514e+00
          8.000000000000e+00 0.000000000000e+00 0.000000000000e+00
          1.000000000000e+01 1.414213677232e+00 -1.414213447514e+00
          1.000000000000e+01 0.000000000000e+00 0.000000000000e+00
          0.000000000000e+00 2.828427354465e+00 -2.828426895027e+00
          2.000000000000e+00 2.828427354465e+00 -2.828426895027e+00
          4.000000000000e+00 2.828427354465e+00 -2.828426895027e+00
          6.000000000000e+00 2.828427354465e+00 -2.828426895027e+00
          8.000000000000e+00 2.828427354465e+00 -2.828426895027e+00
          1.000000000000e+01 2.828427354465e+00 -2.828426895027e+00
          0.000000000000e+00 4.242641031697e+00 -4.242640342541e+00
          2.000000000000e+00 4.242641031697e+00 -4.242640342541e+00
          4.000000000000e+00 4.242641031697e+00 -4.242640342541e+00
          6.000000000000e+00 4.242641031697e+00 -4.242640342541e+00
          8.000000000000e+00 4.242641031697e+00 -4.242640342541e+00
          1.000000000000e+01 4.242641031697e+00 -4.242640342541e+00
          0.000000000000e+00 5.656854708930e+00 -5.656853790055e+00
          2.000000000000e+00 5.656854708930e+00 -5.656853790055e+00
          4.000000000000e+00 5.656854708930e+00 -5.656853790055e+00
          6.000000000000e+00 5.656854708930e+00 -5.656853790055e+00
          8.000000000000e+00 5.656854708930e+00 -5.656853790055e+00
          1.000000000000e+01 5.656854708930e+00 -5.656853790055e+00
          0.000000000000e+00 7.071068386162e+00 -7.071067237568e+00
          2.000000000000e+00 7.071068386162e+00 -7.071067237568e+00
          4.000000000000e+00 7.071068386162e+00 -7.071067237568e+00
          6.000000000000e+00 7.071068386162e+00 -7.071067237568e+00
          8.000000000000e+00 7.071068386162e+00 -7.071067237568e+00
          1.000000000000e+01 7.071068386162e+00 -7.071067237568e+00
        </DataArray>
      </Points>
      <Cells>
        <DataArray type="Int64" Name="connectivity" format="ascii">
          0 1 2 3 
          3 2 4 5 
          5 4 6 7 
          7 6 8 9 
          9 8 10 11 
          1 12 13 2 
          2 13 14 4 
          4 14 15 6 
          6 15 16 8 
          8 16 17 10 
          12 18 19 13 
          13 19 20 14 
          14 20 21 15 
          15 21 22 16 
          16 22 23 17 
          18 24 25 19 
          19 25 26 20 
          20 26 27 21 
          21 27 28 22 
          22 28 29 23 
          24 30 31 25 
          25 31 32 26 
          26 32 33 27 
          27 33 34 28 
          28 34 35 29 
        </DataArray>
        <DataArray type="Int64" Name="offsets" format="ascii">
          4 8 12 16 20 24 28 32 36 40 44 48 52 56 60 64 68 72 76 80 84 88 92 96 100 
        </DataArray>
        <DataArray type="UInt8" Name="types" format="ascii">
          9 9 9 9 9 9 9 9 9 9 9 9 9 9 9 9 9 9 9 9 9 9 9 9 9 
        </DataArray>
      </Cells>
      <PointData Scalars="PRESSURE1">
        <DataArray type="Float64" Name="PRESSURE1" format="ascii">
          2.000000000000e+06 2.025873433920e+06 2.025873433920e+06 2.000000000000e+06 2.025873433920e+06 2.000000000000e+06 2.025873433920e+06 2.000000000000e+06 2.025873433920e+06 2.000000000000e+06 2.025873433920e+06 2.000000000000e+06 2.051746867840e+06 2.051746867840e+06 2.051746867840e+06 2.051746867840e+06 2.051746867840e+06 2.051746867840e+06 2.077620301760e+06 2.077620301760e+06 2.077620301760e+06 2.077620301760e+06 2.077620301760e+06 2.077620301760e+06 2.103493735680e+06 2.103493735680e+06 2.103493735680e+06 2.103493735680e+06 2.103493735680e+06 2.103493735680e+06 2.129367169601e+06 2.129367169601e+06 2.129367169601e+06 2.129367169601e+06 2.129367169601e+06 2.129367169601e+06 
        </DataArray>
        <DataArray type="Float64" Name="NODAL_VELOCITY1" NumberOfComponents="3" format="ascii">
          -7.763298674869e-18 -1.414213677233e-03 1.414213447514e-03 5.278573192722e-17 -1.414213677233e-03 1.414213447514e-03 2.914865173946e-17 -1.414213677233e-03 1.414213447514e-03 -4.940280974917e-18 -1.414213677233e-03 1.414213447514e-03 2.614919543326e-17 -1.414213677233e-03 1.414213447514e-03 -4.940280974917e-18 -1.414213677233e-03 1.414213447514e-03 2.738426567699e-17 -1.414213677233e-03 1.414213447514e-03 -4.940280974917e-18 -1.414213677233e-03 1.414213447514e-03 7.148253114005e-17 -1.414213677233e-03 1.414213447514e-03 -1.058631637482e-17 -1.414213677233e-03 1.414213447514e-03 1.349833502409e-16 -1.414213677233e-03 1.414213447514e-03 -1.905536947468e-17 -1.414213677233e-03 1.414213447514e-03 1.410939545041e-17 -1.414213677233e-03 1.414213447514e-03 2.804519881925e-17 -1.414213677233e-03 1.414213447514e-03 6.524279452198e-17 -1.414213677233e-03 1.414213447514e-03 4.546495303030e-17 -1.414213677233e-03 1.414213447514e-03 4.224423683512e-17 -1.414213677233e-03 1.414213447514e-03 8.206315446552e-17 -1.414213677233e-03 1.414213447514e-03 8.118380795896e-17 -1.414213677232e-03 1.414213447514e-03 5.895823662119e-17 -1.414213677232e-03 1.414213447514e-03 1.587378151288e-17 -1.414213677232e-03 1.414213447514e-03 -4.985102257648e-18 -1.414213677232e-03 1.414213447514e-03 4.189135962263e-17 -1.414213677232e-03 1.414213447514e-03 8.876782150291e-17 -1.414213677232e-03 1.414213447514e-03 2.583829297883e-17 -1.414213677232e-03 1.414213447514e-03 3.007281952875e-17 -1.414213677232e-03 1.414213447514e-03 3.289583722871e-17 -1.414213677232e-03 1.414213447514e-03 5.900305790392e-17 -1.414213677232e-03 1.414213447514e-03 5.860535940869e-17 -1.414213677232e-03 1.414213447514e-03 3.068893138828e-17 -1.414213677232e-03 1.414213447514e-03 1.110382141234e-16 -1.414213677232e-03 1.414213447514e-03 6.658707144786e-17 -1.414213677232e-03 1.414213447514e-03 6.658707144786e-17 -1.414213677232e-03 1.414213447514e-03 2.769232160676e-17 -1.414213677232e-03 1.414213447514e-03 3.324871444120e-17 -1.414213677232e-03 1.414213447514e-03 1.221509997923e-16 -1.414213677232e-03 1.414213447514e-03 
        </DataArray>
      </PointData>
      <CellData>
        <DataArray type="Float64" Name="ELEMENT_VELOCITY" NumberOfComponents="3" format="ascii">
          0.000000000000e+00 -1.414213677233e-03 1.414213447514e-03 0.000000000000e+00 -1.414213677233e-03 1.414213447514e-03 0.000000000000e+00 -1.414213677233e-03 1.414213447514e-03 0.000000000000e+00 -1.414213677233e-03 1.414213447514e-03 0.000000000000e+00 -1.414213677233e-03 1.414213447514e-03 3.880510727564e-17 -1.414213677233e-03 1.414213447514e-03 0.000000000000e+00 -1.414213677233e-03 1.414213447514e-03 3.880510727564e-17 -1.414213677233e-03 1.414213447514e-03 0.000000000000e+00 -1.414213677233e-03 1.414213447514e-03 1.164153218269e-16 -1.414213677233e-03 1.414213447514e-03 3.880510727564e-17 -1.414213677233e-03 1.414213447514e-03 3.880510727564e-17 -1.414213677232e-03 1.414213447514e-03 7.761021455129e-17 -1.414213677232e-03 1.414213447514e-03 0.000000000000e+00 -1.414213677232e-03 1.414213447514e-03 7.761021455129e-17 -1.414213677232e-03 1.414213447514e-03 7.761021455129e-17 -1.414213677232e-03 1.414213447514e-03 3.880510727564e-17 -1.414213677232e-03 1.414213447514e-03 0.000000000000e+00 -1.414213677232e-03 1.414213447514e-03 0.000000000000e+00 -1.414213677232e-03 1.414213447514e-03 7.761021455129e-17 -1.414213677232e-03 1.414213447514e-03 3.880510727564e-17 -1.414213677232e-03 1.414213447514e-03 3.880510727564e-17 -1.414213677232e-03 1.414213447514e-03 3.880510727564e-17 -1.414213677232e-03 1.414213447514e-03 3.880510727564e-17 -1.414213677232e-03 1.414213447514e-03 3.880510727564e-17 -1.414213677232e-03 1.414213447514e-03 
        </DataArray>
      </CellData>
    </Piece>
  </UnstructuredGrid>
</VTKFile>
