VARIABLES  = "X","Y","Z", "PRESSURE1", "VELOCITY_X1", "VELOCITY_Y1", "VELOCITY_Z1"
ZONE T="0.000000000000e+00s", N=7, E=6, F=FEPOINT, ET=QUADRILATERAL
STRANDID=1, SOLUTIONTIME=0.000000000000e+00
0.000000000000e+00 0.000000000000e+00 0.000000000000e+00 0.000000000000e+00 0.000000000000e+00 0.000000000000e+00 0.000000000000e+00 
1.178511397694e+00 0.000000000000e+00 1.178511397694e+00 0.000000000000e+00 0.000000000000e+00 0.000000000000e+00 0.000000000000e+00 
2.357022795387e+00 0.000000000000e+00 2.357022795387e+00 0.000000000000e+00 0.000000000000e+00 0.000000000000e+00 0.000000000000e+00 
3.535534193081e+00 0.000000000000e+00 3.535534193081e+00 0.000000000000e+00 0.000000000000e+00 0.000000000000e+00 0.000000000000e+00 
4.714045590775e+00 0.000000000000e+00 4.714045590775e+00 0.000000000000e+00 0.000000000000e+00 0.000000000000e+00 0.000000000000e+00 
5.892556988469e+00 0.000000000000e+00 5.892556988469e+00 0.000000000000e+00 0.000000000000e+00 0.000000000000e+00 0.000000000000e+00 
7.071068386162e+00 0.000000000000e+00 7.071068386162e+00 0.000000000000e+00 0.000000000000e+00 0.000000000000e+00 0.000000000000e+00 
1  2  2  1
2  3  3  2
3  4  4  3
4  5  5  4
5  6  6  5
6  7  7  6
VARIABLES  = "X","Y","Z", "PRESSURE1", "VELOCITY_X1", "VELOCITY_Y1", "VELOCITY_Z1"
ZONE T="5.184000000000e+06s", N=7, E=6, F=FEPOINT, ET=QUADRILATERAL
STRANDID=1, SOLUTIONTIME=5.184000000000e+06
0.000000000000e+00 0.000000000000e+00 0.000000000000e+00 2.129367185741e+06 1.414213562373e-03 0.000000000000e+00 1.414213562373e-03 
1.178511397694e+00 0.000000000000e+00 1.178511397694e+00 2.107805988118e+06 1.414213562373e-03 0.000000000000e+00 1.414213562373e-03 
2.357022795387e+00 0.000000000000e+00 2.357022795387e+00 2.086244790494e+06 1.414213562373e-03 0.000000000000e+00 1.414213562373e-03 
3.535534193081e+00 0.000000000000e+00 3.535534193081e+00 2.064683592871e+06 1.414213562373e-03 0.000000000000e+00 1.414213562373e-03 
4.714045590775e+00 0.000000000000e+00 4.714045590775e+00 2.043122395247e+06 1.414213562373e-03 0.000000000000e+00 1.414213562373e-03 
5.892556988469e+00 0.000000000000e+00 5.892556988469e+00 2.021561197624e+06 1.414213562373e-03 0.000000000000e+00 1.414213562373e-03 
7.071068386162e+00 0.000000000000e+00 7.071068386162e+00 2.000000000000e+06 1.414213562373e-03 0.000000000000e+00 1.414213562373e-03 
1  2  2  1
2  3  3  2
3  4  4  3
4  5  5  4
5  6  6  5
6  7  7  6
