 TITLE = "Time curves in points"
 VARIABLES = "TIME "  "PRESSURE1"  "PRESSURE2"  "PRESSURE_W"  "SATURATION1"  "VELOCITY_X1"  "VELOCITY_Y1"  "VELOCITY_X2"  "VELOCITY_Y2"  "DISPLACEMENT_X1"  "DISPLACEMENT_Y1"  "STRESS_XX"  "STRESS_XY"  "STRESS_YY"  "STRESS_ZZ"  "STRAIN_XX"  "STRAIN_XY"  "STRAIN_YY"  "STRAIN_PLS"  p_(1st_Invariant)  q_(2nd_Invariant)   Effective_Strain
 ZONE T="POINT=POINT6"
0.000000000000e+00 5.000000000000e+01 1.000000000000e+05 0.000000000000e+00 0.000000000000e+00 0.000000000000e+00 0.000000000000e+00 0.000000000000e+00 0.000000000000e+00 0.000000000000e+00 0.000000000000e+00 0.000000000000e+00 0.000000000000e+00 0.000000000000e+00 0.000000000000e+00 0.000000000000e+00 0.000000000000e+00 0.000000000000e+00 0.000000000000e+00 -0.000000000000e+00 0.000000000000e+00  0.000000000000e+00
1.000000000000e+00 8.410329342549e+01 8.173419306968e+04 8.165008977625e+04 9.999926791915e-01 -1.890988150728e-17 2.400594994722e-06 -2.209761206673e-22 3.456439053520e-11 1.542505635706e-15 -3.750945278983e-04 8.398013699233e+04 7.047296612939e-08 -7.833196151647e+04 2.259270190342e+03 3.813640450759e-03 6.577477650808e-15 -3.760924146318e-03 0.000000000000e+00 -2.635815222065e+03 1.405675354078e+05  6.559818319029e-03
2.000000000000e+00 5.348507794130e+01 1.630626695439e+05 1.630091844660e+05 9.999953443676e-01 1.296844821716e-09 5.192411733890e-06 4.779827982626e-14 1.700755784934e-10 -2.216892943282e-09 -7.504473388160e-04 1.677613049989e+05 -5.424320477321e-02 -1.568119952283e+05 4.379723908249e+03 7.624473784230e-03 -5.062699112167e-09 -7.522280226371e-03 0.000000000000e+00 -5.109677892957e+03 2.810908559330e+05  1.311757327687e-02
3.000000000000e+00 1.304918844701e+02 2.448585075984e+05 2.447280157139e+05 9.999886412760e-01 -6.965811778733e-11 8.010406641605e-06 7.279426416551e-14 4.769188215299e-10 -5.272133590724e-10 -1.125763832177e-03 2.517354906704e+05 1.873073072119e-02 -2.351700417575e+05 6.626179565168e+03 1.143843451824e-02 1.748201533977e-09 -1.128382366172e-02 0.000000000000e+00 -7.730542826030e+03 4.216758141898e+05  1.967820466219e-02
4.000000000000e+00 2.253004607807e+02 3.264793920801e+05 3.262540916193e+05 9.999803886214e-01 1.230015814560e-09 1.080346507059e-05 2.088953627015e-13 1.024894591645e-09 -3.936723886007e-09 -1.501105532478e-03 3.356033168383e+05 -4.302508790213e-02 -3.135953754044e+05 8.803176573561e+03 1.525067321235e-02 -4.015674870870e-09 -1.504526575897e-02 0.000000000000e+00 -1.027037266915e+04 5.622268670226e+05  2.623725379439e-02
5.000000000000e+00 3.435347705701e+02 4.081387314599e+05 4.077951966893e+05 9.999700968634e-01 1.369098654608e-09 1.360328724947e-05 4.347031642496e-13 1.887683549877e-09 -4.288738572776e-09 -1.876440373267e-03 4.194815513920e+05 -3.299624917317e-02 -3.920145948536e+05 1.098678261537e+04 1.906308920958e-02 -3.079649922837e-09 -1.880673094855e-02 0.000000000000e+00 -1.281791305127e+04 7.027816452253e+05  3.279647677718e-02
6.000000000000e+00 4.873529903360e+02 4.898240206727e+05 4.893366676824e+05 9.999575781426e-01 1.438455589551e-09 1.640113080342e-05 8.288608007567e-13 3.141856345765e-09 -4.913261247676e-09 -2.251773880976e-03 5.033582958809e+05 -1.668621898797e-02 -4.704356581852e+05 1.316905507828e+04 2.287549790412e-02 -1.557380438886e-09 -2.256821995230e-02 0.000000000000e+00 -1.536389759132e+04 8.433367285566e+05  3.935571399931e-02
7.000000000000e+00 6.580202732635e+02 5.715354386517e+05 5.708774183784e+05 9.999427223332e-01 1.502423036129e-09 1.919644810071e-05 1.443685712491e-12 4.867764026975e-09 -5.009969701495e-09 -2.627105944196e-03 5.872333475484e+05 -3.620382073279e-02 -5.488587188683e+05 1.534985147201e+04 2.668789648356e-02 -3.379023268402e-09 -2.632973328255e-02 0.000000000000e+00 -1.790816005068e+04 9.838920741893e+05  4.591496346217e-02
8.000000000000e+00 8.570668572444e+02 6.532738438743e+05 6.524167770171e+05 9.999253962349e-01 1.630302952505e-09 2.198861451339e-05 2.311242914073e-12 7.150064789039e-09 -5.042164284264e-09 -3.002436308421e-03 6.711060523616e+05 2.293560907361e-02 -6.272846461138e+05 1.752856249911e+04 3.050028286025e-02 2.140656846865e-09 -3.009128306860e-02 0.000000000000e+00 -2.044998958229e+04 1.124447867877e+06  5.247423383424e-02
9.000000000000e+00 1.086328003401e+03 7.350418962571e+05 7.339555682537e+05 9.999054400967e-01 1.445544649217e-09 2.477771853963e-05 3.655069125770e-12 1.007878587295e-08 -5.007493115449e-09 -3.377764659853e-03 7.549767421029e+05 -3.683880411163e-03 -7.057129477308e+05 1.970551774883e+04 3.431265713652e-02 -3.438288383751e-10 -3.385286172238e-02 0.000000000000e+00 -2.298977070697e+04 1.265003971023e+06  5.903351864774e-02
1.000000000000e+01 1.345817496215e+03 8.168382696386e+05 8.154924521424e+05 9.998828527186e-01 1.468447568245e-09 2.756290747206e-05 5.605789159194e-12 1.374924318741e-08 -4.690677654102e-09 -3.753090848350e-03 8.388460938364e+05 2.253958316913e-02 -7.841434486106e+05 2.188105809029e+04 3.812503500148e-02 2.103694429125e-09 -3.761447697938e-02 0.000000000000e+00 -2.552790110534e+04 1.405560818664e+06  6.559283820432e-02
1.100000000000e+01 1.637077595758e+03 8.986653025582e+05 8.970282249624e+05 9.998574998539e-01 1.230882602339e-09 3.034388353297e-05 8.516930139300e-12 1.826289057147e-08 -4.204703635456e-09 -4.128414674644e-03 9.227132407371e+05 8.434077097269e-02 -8.625764880327e+05 2.405470108177e+04 4.193739851725e-02 7.871805290784e-09 -4.137612215868e-02 0.000000000000e+00 -2.806381792873e+04 1.546117953466e+06  7.215217116173e-02
1.200000000000e+01 1.960974173473e+03 9.805239627899e+05 9.785629886165e+05 9.998293061325e-01 7.088960530311e-10 3.312046273286e-05 1.290296531234e-11 2.372813156137e-08 -3.386381352745e-09 -4.503735930913e-03 1.006578902165e+06 8.127504537857e-02 -9.410114567898e+05 2.622697815013e+04 4.574975645403e-02 7.585670902022e-09 -4.513779363053e-02 0.000000000000e+00 -3.059814117516e+04 1.686675471340e+06  7.871152199586e-02
1.300000000000e+01 2.318456255481e+03 1.062414591731e+06 1.060096135475e+06 9.997981889460e-01 2.950981365457e-10 3.589262796701e-05 1.875037207408e-11 3.026008778444e-08 -2.663580180960e-09 -4.879054458293e-03 1.090442832772e+06 7.964410750775e-02 -1.019449103271e+06 2.839749180050e+04 4.956211591200e-02 7.433450034086e-09 -4.889950776999e-02 0.000000000000e+00 -3.313040710059e+04 1.827233807543e+06  8.527091101869e-02
1.400000000000e+01 2.710280331682e+03 1.144338431048e+06 1.141628150717e+06 9.997640824453e-01 -3.444833138355e-10 3.865926063908e-05 2.645675367133e-11 3.798153188369e-08 -1.283276912323e-09 -5.254370483978e-03 1.174305329504e+06 1.170583684266e-01 -1.097888695245e+06 3.056665370383e+04 5.337447153736e-02 1.092544771980e-08 -5.266124961761e-02 0.000000000000e+00 -3.566109598780e+04 1.967792585513e+06  9.183032065728e-02
1.500000000000e+01 3.137794164100e+03 1.226296785705e+06 1.223158991541e+06 9.997268693140e-01 -5.556510231005e-10 4.142059342936e-05 3.666590333165e-11 4.702375961981e-08 1.075428975977e-09 -5.629683857686e-03 1.258165739318e+06 2.138184227660e-01 -1.176330259209e+06 3.273419204376e+04 5.718680553946e-02 1.995638612483e-08 -5.642300772511e-02 0.000000000000e+00 -3.818989071772e+04 2.108351262382e+06  9.838972557785e-02
1.600000000000e+01 3.597638596834e+03 1.308286225073e+06 1.304688586477e+06 9.996868419512e-01 -2.093842670361e-09 4.417535848158e-05 4.932899783899e-11 5.752376321584e-08 3.448106822898e-09 -6.004994570263e-03 1.342028180957e+06 2.613535089378e-01 -1.254770188930e+06 3.490319681096e+04 6.099916592683e-02 2.439299416756e-08 -6.018475800124e-02 0.000000000000e+00 -4.072039627945e+04 2.248910284996e+06  1.049491466331e-01
1.700000000000e+01 4.087921616818e+03 1.390306281876e+06 1.386218360259e+06 9.996441650481e-01 -2.899084003552e-09 4.692560706799e-05 6.665547699306e-11 6.962458092215e-08 4.433086068790e-09 -6.380301890778e-03 1.425892797195e+06 2.380132693495e-01 -1.333208808232e+06 3.707359558519e+04 6.481156274179e-02 2.221457180598e-08 -6.394651217813e-02 0.000000000000e+00 -4.325252818272e+04 2.389470057360e+06  1.115086026768e-01
1.800000000000e+01 4.611557945836e+03 1.472358295997e+06 1.467746738051e+06 9.995985848914e-01 -4.589078058050e-09 4.966968971797e-05 8.765570657718e-11 8.347786312945e-08 6.260253535712e-09 -6.755606372164e-03 1.509754255314e+06 1.443520244641e-01 -1.411650906501e+06 3.924133952516e+04 6.862393607015e-02 1.347285561668e-08 -6.770830481456e-02 0.000000000000e+00 -4.578156277936e+04 2.530030105015e+06  1.180680715674e-01
1.900000000000e+01 5.163514140350e+03 1.554439410170e+06 1.549275896030e+06 9.995505396194e-01 -4.589407108327e-09 5.240744264464e-05 1.154060830041e-10 9.923766352319e-08 7.989283522907e-09 -7.130907583323e-03 1.593620844360e+06 3.875883833103e-01 -1.490088366471e+06 4.141299115563e+04 7.243636648286e-02 3.617491577566e-08 -7.147006335590e-02 0.000000000000e+00 -4.831515634823e+04 2.670590583085e+06  1.246275605440e-01
2.000000000000e+01 5.740135136025e+03 1.636544662148e+06 1.630804527012e+06 9.995003473888e-01 -5.483752807818e-09 5.514108953192e-05 1.515447170617e-10 1.170653731207e-07 9.603306779211e-09 -7.506206694641e-03 1.677489797028e+06 3.717695714923e-01 -1.568522172416e+06 4.358704984460e+04 7.624879486855e-02 3.469849333930e-08 -7.523176370551e-02 0.000000000000e+00 -5.085155815204e+04 2.811149945977e+06  1.311869974789e-01
2.100000000000e+01 6.344283361779e+03 1.718677358272e+06 1.712333074911e+06 9.994477590383e-01 -7.652983015270e-09 5.786508232779e-05 1.942606512624e-10 1.371279070964e-07 1.012692650565e-08 -7.881503134025e-03 1.761356767839e+06 2.549870300080e-01 -1.646958443628e+06 4.575932968426e+04 8.006121378054e-02 2.379878946741e-08 -7.899349608790e-02 0.000000000000e+00 -5.338588463164e+04 2.951709725786e+06  1.377464538700e-01
2.200000000000e+01 6.967409836007e+03 1.800826462014e+06 1.793859052178e+06 9.993935187177e-01 -7.434027535948e-09 6.058437130035e-05 2.465761144027e-10 1.595900985840e-07 1.171406126773e-08 -8.256797484294e-03 1.845228292839e+06 4.481608795155e-01 -1.725388360632e+06 4.793597288283e+04 8.387364159798e-02 4.182834875478e-08 -8.275513556404e-02 0.000000000000e+00 -5.592530169664e+04 3.092267950976e+06  1.443058377122e-01
2.300000000000e+01 7.610488174755e+03 1.882999348138e+06 1.875388859963e+06 9.993375416782e-01 -8.999936752118e-09 6.329746156072e-05 3.102059992071e-10 1.846243408290e-07 1.216099818624e-08 -8.632088996998e-03 1.929103269864e+06 3.949773728569e-02 -1.803816257549e+06 5.011480492604e+04 8.768612836377e-02 3.686455480023e-09 -8.651678291550e-02 0.000000000000e+00 -5.846727241372e+04 3.232827418369e+06  1.508652795239e-01
2.400000000000e+01 8.263101802847e+03 1.965183454243e+06 1.956920352440e+06 9.992807346353e-01 -1.094104587612e-08 6.600625249544e-05 3.872117279434e-10 2.123946185762e-07 1.303721983566e-08 -9.007378342317e-03 2.012988469426e+06 1.761175278436e-01 -1.882233052802e+06 5.230216664945e+04 9.149869412957e-02 1.643763593205e-08 -9.027831024108e-02 0.000000000000e+00 -6.101919442436e+04 3.373386132688e+06  1.574246861921e-01
2.500000000000e+01 8.924257676361e+03 2.047375342689e+06 2.038451085013e+06 9.992231840287e-01 -1.117248225854e-08 6.870840299549e-05 4.765128801012e-10 2.430638933450e-07 1.265657656006e-08 -9.382665326196e-03 2.096873547217e+06 7.302519656251e-02 -1.960648525681e+06 5.449000861444e+04 9.531123180146e-02 6.815685012527e-09 -9.403979826712e-02 0.000000000000e+00 -6.357167671684e+04 3.513943596816e+06  1.639840345181e-01
2.600000000000e+01 9.590545641790e+03 2.129574776075e+06 2.119984230433e+06 9.991651866970e-01 -1.221936693579e-08 7.140888256894e-05 5.845002127916e-10 2.768008390379e-07 1.360490295633e-08 -9.757951004981e-03 2.180764600550e+06 1.182587794471e-01 -2.039059171735e+06 5.668217152599e+04 9.912384668778e-02 1.103748608177e-08 -9.780126268550e-02 0.000000000000e+00 -6.612920011366e+04 3.654502059945e+06  1.705434294641e-01
2.700000000000e+01 1.025562160910e+04 2.211777659892e+06 2.201522038283e+06 9.991072948642e-01 -1.518595742079e-08 7.410420132781e-05 7.126678836526e-10 3.137571674134e-07 1.460186932258e-08 -1.013323422444e-02 2.264664157733e+06 1.700892564733e-01 -2.117458811503e+06 5.888213849209e+04 1.029364942313e-01 1.587499727090e-08 -1.015625776664e-01 0.000000000000e+00 -6.869582824077e+04 3.795058363487e+06  1.771027236294e-01
2.800000000000e+01 1.092516955625e+04 2.293986040784e+06 2.283060871227e+06 9.990490137659e-01 -1.398641255221e-08 7.679481968794e-05 8.646809916572e-10 3.540945333038e-07 1.492843387027e-08 -1.050851698150e-02 2.348560896905e+06 -2.875723732004e-03 -2.195861750371e+06 6.107965861363e+04 1.067491244536e-01 -2.684008816657e-10 -1.053239324193e-01 0.000000000000e+00 -7.125960171590e+04 3.935615081293e+06  1.836620371270e-01
2.900000000000e+01 1.158716022185e+04 2.376191175835e+06 2.364604015613e+06 9.989913904945e-01 -1.666645362992e-08 7.948325576414e-05 1.028575122031e-09 3.979562071381e-07 1.584274749822e-08 -1.088379739129e-02 2.432471618128e+06 -4.151793948725e-01 -2.274250951734e+06 6.328826655762e+04 1.105618897400e-01 -3.875007685472e-08 -1.090851635203e-01 0.000000000000e+00 -7.383631098389e+04 4.076172021643e+06  1.902213610100e-01
3.000000000000e+01 1.223125090598e+04 2.458377916589e+06 2.446146665683e+06 9.989353253350e-01 -1.849153233488e-08 8.217151801999e-05 1.206412005192e-09 4.454707228036e-07 1.486878162073e-08 -1.125907707123e-02 2.516390517899e+06 -3.336867711151e-01 -2.352630639753e+06 6.550395125854e+04 1.143747064432e-01 -3.114409863741e-08 -1.128462809139e-01 0.000000000000e+00 -7.642127646829e+04 4.216727812916e+06  1.967806312694e-01
