 TITLE = "Time curves in points"
 VARIABLES = "TIME "  "PRESSURE1"  "PRESSURE2"  "PRESSURE_W"  "SATURATION1"  "VELOCITY_X1"  "VELOCITY_Y1"  "VELOCITY_X2"  "VELOCITY_Y2"  "DISPLACEMENT_X1"  "DISPLACEMENT_Y1"  "STRESS_XX"  "STRESS_XY"  "STRESS_YY"  "STRESS_ZZ"  "STRAIN_XX"  "STRAIN_XY"  "STRAIN_YY"  "STRAIN_PLS"  p_(1st_Invariant)  q_(2nd_Invariant)   Effective_Strain
 ZONE T="POINT=POINT7"
0.000000000000e+00 5.000000000000e+01 1.000000000000e+05 0.000000000000e+00 0.000000000000e+00 0.000000000000e+00 0.000000000000e+00 0.000000000000e+00 0.000000000000e+00 0.000000000000e+00 0.000000000000e+00 0.000000000000e+00 0.000000000000e+00 0.000000000000e+00 0.000000000000e+00 0.000000000000e+00 0.000000000000e+00 0.000000000000e+00 0.000000000000e+00 -0.000000000000e+00 0.000000000000e+00  0.000000000000e+00
1.000000000000e+00 8.631000391274e+01 7.875862772967e+04 7.867231772576e+04 9.999924871074e-01 -7.438116263301e-17 -8.626184123945e-08 -8.357465565111e-22 3.686718086924e-12 -1.112378351832e-14 -1.300000000000e-03 -4.266036550250e+04 4.624598659575e-08 -2.615985447598e+05 -1.217035641049e+05 3.688682601446e-03 4.319461455182e-15 -6.528432430561e-03 0.000000000000e+00 1.419874914557e+05 1.920317150814e+05  8.961480037134e-03
2.000000000000e+00 3.097877877700e+01 1.576857488477e+05 1.576547700689e+05 9.999973761680e-01 1.276223852108e-10 -9.198776397893e-08 4.657299761584e-15 9.998412647021e-12 -7.290538139669e-09 -2.600000000000e-03 -8.490642000615e+04 2.373207130586e-02 -5.226995192646e+05 -2.430423757083e+05 7.379677932766e-03 2.214993324173e-09 -1.305066669929e-02 0.000000000000e+00 2.835494383263e+05 3.839777963543e+05  1.791896382987e-02
3.000000000000e+00 3.302961120703e+01 2.369658923746e+05 2.369328627634e+05 9.999972950407e-01 4.893797375989e-11 -1.018884607160e-07 8.437641021085e-15 1.801738224947e-11 -9.663326288934e-10 -3.900000000000e-03 -1.270479658650e+05 -4.147426225245e-04 -7.837792368789e+05 -3.643308810975e+05 1.107320271085e-02 -3.870930485872e-11 -1.957425660313e-02 0.000000000000e+00 4.250526946138e+05 5.759930847486e+05  2.687967728827e-02
4.000000000000e+00 3.129290116548e+01 3.161067906395e+05 3.160754977384e+05 9.999975511039e-01 8.404200066445e-11 -1.111889683668e-07 1.503226641740e-14 2.727007569276e-11 -1.060855670040e-08 -5.200000000000e-03 -1.692406466906e+05 3.191212727688e-02 -1.044868361269e+06 -4.856436031837e+05 1.476547130301e-02 2.978465214049e-09 -2.609715537730e-02 0.000000000000e+00 5.665842037143e+05 7.679736504171e+05  3.583877035280e-02
5.000000000000e+00 2.571699576450e+01 3.952453971412e+05 3.952196801454e+05 9.999981558278e-01 1.063914973481e-10 -1.204884449702e-07 2.928772555226e-14 3.754404482485e-11 -1.189824946811e-08 -6.500000000000e-03 -2.114332872502e+05 3.670025739120e-02 -1.305960442159e+06 -6.069574917639e+05 1.845779621064e-02 3.425357367540e-09 -3.262013768513e-02 0.000000000000e+00 7.081170737245e+05 9.599568255531e+05  4.479798519248e-02
6.000000000000e+00 1.634341697645e+01 4.743802130758e+05 4.743638696588e+05 9.999991100780e-01 1.036651976144e-10 -1.298131380051e-07 5.639574985808e-14 4.884212827806e-11 -1.381725071174e-08 -7.800000000000e-03 -2.536259653005e+05 4.543228831608e-02 -1.567052897011e+06 -7.282715449245e+05 2.215012704912e-02 4.240346906936e-09 -3.914312976402e-02 0.000000000000e+00 8.496501357452e+05 1.151940295286e+06  5.375721377999e-02
7.000000000000e+00 3.175215139513e+00 5.535112193530e+05 5.535080441379e+05 1.000000000000e+00 1.110785179017e-10 -1.391813862708e-07 1.027005710491e-13 6.135970152611e-11 -1.459128906086e-08 -9.100000000000e-03 -2.958186069004e+05 5.000794667285e-02 -1.828145480727e+06 -8.495856350508e+05 2.584246131368e-02 4.667408362580e-09 -4.566612613153e-02 0.000000000000e+00 9.911832408926e+05 1.343923908055e+06  6.271644904258e-02
8.000000000000e+00 -1.278208364169e+01 6.326395813792e+05 6.326523634628e+05 1.000000000000e+00 1.296353409028e-10 -1.486484134854e-07 1.782904385376e-13 7.530366367458e-11 -1.558501707168e-08 -1.040000000000e-02 -3.380119719809e+05 5.493290501181e-02 -2.089238902882e+06 -9.709003499453e+05 2.953479097167e-02 5.127071135702e-09 -5.218913247040e-02 0.000000000000e+00 1.132717074936e+06 1.535907643946e+06  7.167569005081e-02
9.000000000000e+00 -3.088549619876e+01 7.117658548385e+05 7.117967403347e+05 1.000000000000e+00 1.214283898994e-10 -1.581981746474e-07 2.960057129431e-13 9.088382274627e-11 -1.674141734328e-08 -1.170000000000e-02 -3.802057948254e+05 6.406367628369e-02 -2.350332889154e+06 -1.092215473592e+06 3.322711834244e-02 5.979276448964e-09 -5.871214605958e-02 0.000000000000e+00 1.274251385857e+06 1.727891487016e+06  8.063493606077e-02
1.000000000000e+01 -5.094844058854e+01 7.908901802352e+05 7.909411286758e+05 1.000000000000e+00 1.281699239559e-10 -1.677803981698e-07 4.694435916455e-13 1.084039957657e-10 -1.658199528452e-08 -1.300000000000e-02 -4.223998128319e+05 6.642223580275e-02 -2.611427224318e+06 -1.213530814860e+06 3.691944676132e-02 6.199408670443e-09 -6.523516577472e-02 0.000000000000e+00 1.415785950670e+06 1.919875470204e+06  8.959418860954e-02
1.100000000000e+01 -7.258902246077e+01 8.700129952335e+05 8.700855842559e+05 1.000000000000e+00 1.280147451000e-10 -1.774252168482e-07 7.254047650203e-13 1.281763721985e-10 -1.690518730991e-08 -1.430000000000e-02 -4.645941081212e+05 7.384603284299e-02 -2.872521873901e+06 -1.334846392809e+06 4.061177328543e-02 6.892296379457e-09 -7.175818911765e-02 0.000000000000e+00 1.557320791611e+06 2.111859494542e+06  9.855344307862e-02
1.200000000000e+01 -9.551747497007e+01 9.491344825605e+05 9.492300000354e+05 1.000000000000e+00 1.765059599951e-10 -1.870984688801e-07 1.098913036096e-12 1.505244318366e-10 -1.630862418595e-08 -1.560000000000e-02 -5.067886971524e+05 7.629882940091e-02 -3.133616812085e+06 -1.456162203695e+06 4.430409697199e-02 7.121224084375e-09 -7.828121505821e-02 0.000000000000e+00 1.698855904311e+06 2.303843523716e+06  1.075126977734e-01
1.300000000000e+01 -1.194806882155e+02 1.028254990536e+06 1.028374471225e+06 1.000000000000e+00 1.055022709134e-10 -1.968121261144e-07 1.590406599265e-12 1.757719830822e-10 -1.605394960948e-08 -1.690000000000e-02 -5.489835207540e+05 8.451707218774e-02 -3.394712171684e+06 -1.577478276975e+06 4.799642195699e-02 7.888260079858e-09 -8.480424841975e-02 0.000000000000e+00 1.840391323138e+06 2.495827723059e+06  1.164719604094e-01
1.400000000000e+01 -1.442623233789e+02 1.107374593319e+06 1.107518855642e+06 1.000000000000e+00 1.570700521982e-10 -2.065488834544e-07 2.229513690784e-12 2.042440838599e-10 -1.399660545126e-08 -1.820000000000e-02 -5.911785877181e+05 8.035581093282e-02 -3.655807730824e+06 -1.698794527417e+06 5.168874385261e-02 7.499875699646e-09 -9.132728282567e-02 0.000000000000e+00 1.981926948653e+06 2.687811891945e+06  1.254312216241e-01
1.500000000000e+01 -1.696716773172e+02 1.186493595147e+06 1.186663266825e+06 1.000000000000e+00 1.271193580790e-10 -2.163122347611e-07 3.012215224603e-12 2.362618497583e-10 -1.051063903742e-08 -1.950000000000e-02 -6.333738302573e+05 7.629986386746e-02 -3.916903560931e+06 -1.820110956475e+06 5.538106589017e-02 7.121320665104e-09 -9.785032154126e-02 0.000000000000e+00 2.123462782554e+06 2.879796149475e+06  1.343904869755e-01
1.600000000000e+01 -1.955456457585e+02 1.265612098560e+06 1.265807644206e+06 1.000000000000e+00 1.731764619970e-10 -2.261071706561e-07 3.970158985202e-12 2.721412655391e-10 -6.968610601628e-09 -2.080000000000e-02 -6.755692644126e+05 6.980363139883e-02 -4.177999607455e+06 -1.941427548747e+06 5.907338660227e-02 6.515005651284e-09 -1.043733627397e-01 0.000000000000e+00 2.264998806871e+06 3.071780434672e+06  1.433497536180e-01
1.700000000000e+01 -2.217418744574e+02 1.344730322959e+06 1.344952064833e+06 1.000000000000e+00 1.896892435039e-10 -2.359206409520e-07 5.114812238437e-12 3.121960653241e-10 -3.291295578757e-09 -2.210000000000e-02 -7.177648788357e+05 5.654705991037e-02 -4.439096018102e+06 -2.062744358775e+06 6.276570906384e-02 5.277725586422e-09 -1.108964107686e-01 0.000000000000e+00 2.406535085238e+06 3.263764885705e+06  1.523090279995e-01
1.800000000000e+01 -2.481393239357e+02 1.423848229205e+06 1.424096368529e+06 1.000000000000e+00 1.624827325695e-10 -2.457669900548e-07 6.449723028312e-12 3.567328925513e-10 -1.363227935085e-10 -2.340000000000e-02 -7.599606910933e+05 5.332196759991e-02 -4.700192593495e+06 -2.184061313835e+06 6.645802906130e-02 4.976716977759e-09 -1.174194597175e-01 0.000000000000e+00 2.548071532808e+06 3.455749314178e+06  1.612683013283e-01
1.900000000000e+01 -2.746330619234e+02 1.502966009605e+06 1.503240642667e+06 1.000000000000e+00 2.084917000833e-10 -2.556262053201e-07 7.996891687743e-12 4.060588153251e-10 2.236502156108e-09 -2.470000000000e-02 -8.021566538758e+05 4.895852133632e-02 -4.961289364464e+06 -2.305378407336e+06 7.015034849481e-02 4.569461992815e-09 -1.239425113326e-01 0.000000000000e+00 2.689608141892e+06 3.647733786651e+06  1.702275767104e-01
2.000000000000e+01 -3.011321664846e+02 1.582083757305e+06 1.582384889472e+06 1.000000000000e+00 2.011937985152e-10 -2.655046846489e-07 9.756958484882e-12 4.604765165467e-10 5.046447564766e-09 -2.600000000000e-02 -8.443527628221e+05 4.709007404745e-02 -5.222386370930e+06 -2.426695653501e+06 7.384266823167e-02 4.395073594995e-09 -1.304655668134e-01 0.000000000000e+00 2.831144929084e+06 3.839718341553e+06  1.791868559392e-01
2.100000000000e+01 -3.275493671245e+02 1.661201569246e+06 1.661529118613e+06 1.000000000000e+00 7.911261191597e-11 -2.754319260797e-07 1.168700150737e-11 5.202774038185e-10 6.423266314020e-09 -2.730000000000e-02 -8.865489735973e+05 4.881584946997e-02 -5.483483489265e+06 -2.548012985145e+06 7.753498720556e-02 4.556145934489e-09 -1.369886235256e-01 0.000000000000e+00 2.972681816002e+06 4.031702908423e+06  1.881461357264e-01
2.200000000000e+01 -3.538229742476e+02 1.740319273325e+06 1.740673096300e+06 1.000000000000e+00 2.982345272022e-10 -2.853512889095e-07 1.388629471291e-11 5.857651514844e-10 6.877471981739e-09 -2.860000000000e-02 -9.287454488228e+05 4.112936789170e-02 -5.744580782507e+06 -2.669330492532e+06 8.122730203976e-02 3.838741014298e-09 -1.435116801988e-01 0.000000000000e+00 3.114218907954e+06 4.223687405664e+06  1.971054122643e-01
2.300000000000e+01 -3.798959780044e+02 1.819437018398e+06 1.819816914376e+06 1.000000000000e+00 1.838363866789e-10 -2.952875207551e-07 1.628631935412e-11 6.572366974630e-10 8.761211000211e-09 -2.990000000000e-02 -9.709420863622e+05 4.682128177956e-02 -6.005678224219e+06 -2.790648124233e+06 8.491961510062e-02 4.369986303376e-09 -1.500347379994e-01 0.000000000000e+00 3.255756144938e+06 4.415671895982e+06  2.060646884792e-01
2.400000000000e+01 -4.057169230329e+02 1.898555186126e+06 1.898960903049e+06 1.000000000000e+00 1.693943000199e-10 -3.052474027434e-07 1.891151256714e-11 7.349871988784e-10 1.018148803093e-08 -3.120000000000e-02 -1.013138743978e+06 4.459851421416e-02 -6.266775876192e+06 -2.911965848068e+06 8.861193152420e-02 4.162527992430e-09 -1.565578013125e-01 0.000000000000e+00 3.397293489413e+06 4.607656552577e+06  2.150239724536e-01
2.500000000000e+01 -4.312420486472e+02 1.977673521531e+06 1.978104763580e+06 1.000000000000e+00 2.988223458021e-10 -3.152398264880e-07 2.182348750805e-11 8.193095615625e-10 1.145917868554e-08 -3.250000000000e-02 -1.055335539538e+06 3.006800450385e-02 -6.527873640070e+06 -3.033283671843e+06 9.230424617423e-02 2.806347092210e-09 -1.630808651839e-01 0.000000000000e+00 3.538830950484e+06 4.799641190854e+06  2.239832555732e-01
2.600000000000e+01 -4.564348928425e+02 2.056792104369e+06 2.057248539262e+06 1.000000000000e+00 1.890246627679e-10 -3.252240117808e-07 2.496968969252e-11 9.105101574115e-10 1.295991452469e-08 -3.380000000000e-02 -1.097532548195e+06 3.690453851596e-02 -6.788971839173e+06 -3.154601754947e+06 9.599656298178e-02 3.444423577956e-09 -1.696039372639e-01 0.000000000000e+00 3.680368714105e+06 4.991626029331e+06  2.329425480354e-01
2.700000000000e+01 -4.812506464702e+02 2.135911114143e+06 2.136392364790e+06 1.000000000000e+00 2.182350823907e-10 -3.352763170745e-07 2.840230906437e-11 1.008872562350e-09 1.346282592611e-08 -3.510000000000e-02 -1.139729514567e+06 3.950183512643e-02 -7.050069905926e+06 -3.275919768197e+06 9.968887850275e-02 3.686837947783e-09 -1.761270064274e-01 0.000000000000e+00 3.821906396230e+06 5.183610788030e+06  2.419018367747e-01
2.800000000000e+01 -5.056695538001e+02 2.215030272618e+06 2.215535942172e+06 1.000000000000e+00 7.355412357470e-11 -3.452729856364e-07 3.203171055981e-11 1.114720329710e-09 1.544316638735e-08 -3.640000000000e-02 -1.181926795099e+06 4.197231167927e-02 -7.311168441377e+06 -3.397238094590e+06 1.033811939763e-01 3.917415747692e-09 -1.826500828501e-01 0.000000000000e+00 3.963444443689e+06 5.375595691253e+06  2.508611322585e-01
2.900000000000e+01 -5.296747399462e+02 2.294149628610e+06 2.294679303350e+06 1.000000000000e+00 1.807752201706e-10 -3.553085753172e-07 3.593026073479e-11 1.228350415912e-09 1.596921745639e-08 -3.770000000000e-02 -1.224124234088e+06 3.612845065072e-02 -7.572267030310e+06 -3.518556505759e+06 1.070735060113e-01 3.371988721232e-09 -1.891731578124e-01 0.000000000000e+00 4.104982590052e+06 5.567580508056e+06  2.598204237093e-01
3.000000000000e+01 -5.532470697679e+02 2.373269474092e+06 2.373822721162e+06 1.000000000000e+00 1.316834812495e-10 -3.653740542304e-07 4.004693817685e-11 1.350065048227e-09 1.638337963421e-08 -3.900000000000e-02 -1.266321731823e+06 3.996570082381e-02 -7.833365847270e+06 -3.639875031637e+06 1.107658206580e-01 3.730132027910e-09 -1.956962380629e-01 0.000000000000e+00 4.246520870243e+06 5.759565474151e+06  2.687797221271e-01
