 TITLE = "Time curves in points"
 VARIABLES = "TIME "  "PRESSURE1"  "PRESSURE2"  "PRESSURE_W"  "SATURATION1"  "VELOCITY_X1"  "VELOCITY_Y1"  "VELOCITY_X2"  "VELOCITY_Y2"  "DISPLACEMENT_X1"  "DISPLACEMENT_Y1"  "STRESS_XX"  "STRESS_XY"  "STRESS_YY"  "STRESS_ZZ"  "STRAIN_XX"  "STRAIN_XY"  "STRAIN_YY"  "STRAIN_PLS"  p_(1st_Invariant)  q_(2nd_Invariant)   Effective_Strain
 ZONE T="POINT=POINT6"
0.000000000000e+00 5.000000000000e+01 1.000000000000e+05 0.000000000000e+00 0.000000000000e+00 0.000000000000e+00 0.000000000000e+00 0.000000000000e+00 0.000000000000e+00 0.000000000000e+00 0.000000000000e+00 0.000000000000e+00 0.000000000000e+00 0.000000000000e+00 0.000000000000e+00 0.000000000000e+00 0.000000000000e+00 0.000000000000e+00 0.000000000000e+00 -0.000000000000e+00 0.000000000000e+00  0.000000000000e+00
1.000000000000e+00 8.411409372217e+01 8.173422933171e+04 8.165011523799e+04 9.999926782514e-01 5.545783778642e-17 2.400592080377e-06 6.472868027296e-22 3.455262629072e-11 -4.729282480599e-15 -3.750945286533e-04 8.398015175127e+04 -2.146647917201e-07 -7.833195168149e+04 2.259280027910e+03 3.813640680423e-03 -2.003538005642e-14 -3.760924146439e-03 0.000000000000e+00 -2.635826699228e+03 1.405675396819e+05  6.559818518488e-03
2.000000000000e+00 5.344187930313e+01 1.630625879165e+05 1.630091460372e+05 9.999953481279e-01 1.268501926959e-09 5.192432084513e-06 4.335697072391e-14 1.700187677899e-10 -2.213287896846e-09 -7.504473357565e-04 1.677613178409e+05 -5.227214513166e-02 -1.568119795038e+05 4.379735334844e+03 7.624473850281e-03 -4.878733545619e-09 -7.522280025801e-03 0.000000000000e+00 -5.109691223985e+03 2.810908534477e+05  1.311757316090e-02
3.000000000000e+00 1.304722755775e+02 2.448585012746e+05 2.447280289991e+05 9.999886429829e-01 -3.908250728851e-11 8.010405343052e-06 6.608319592944e-14 4.767593780570e-10 -5.105089328082e-10 -1.125763837669e-03 2.517354792057e+05 1.709965047247e-02 -2.351700476014e+05 6.626172641709e+03 1.143843430632e-02 1.595967377430e-09 -1.128382361135e-02 0.000000000000e+00 -7.730534748660e+03 4.216758093154e+05  1.967820443472e-02
4.000000000000e+00 2.252600653784e+02 3.264793058114e+05 3.262540457460e+05 9.999803921376e-01 1.234191093650e-09 1.080343535411e-05 1.923358179030e-13 1.024549721584e-09 -3.903886872854e-09 -1.501105547933e-03 3.356032914564e+05 -4.258109268009e-02 -3.135953899938e+05 8.803160585019e+03 1.525067277400e-02 -3.974235316806e-09 -1.504526569368e-02 0.000000000000e+00 -1.027035401586e+04 5.622268576605e+05  2.623725335749e-02
5.000000000000e+00 3.434995141845e+02 4.081386853792e+05 4.077951858650e+05 9.999700999323e-01 1.319613204455e-09 1.360326276309e-05 4.106993096905e-13 1.887053474379e-09 -4.305902832715e-09 -1.876440390837e-03 4.194815145045e+05 -3.793078102810e-02 -3.920145945681e+05 1.098676797458e+04 1.906308817140e-02 -3.540206229287e-09 -1.880673025199e-02 0.000000000000e+00 -1.281789597035e+04 7.027816130185e+05  3.279647527420e-02
6.000000000000e+00 4.874681208118e+02 4.898242022176e+05 4.893367340968e+05 9.999575681210e-01 1.455618411329e-09 1.640117042848e-05 8.115098167145e-13 3.140814910650e-09 -4.878917768849e-09 -2.251773858038e-03 5.033582440061e+05 -3.233041110906e-02 -4.704357561833e+05 1.316899512914e+04 2.287549828092e-02 -3.017505036838e-09 -2.256822172791e-02 0.000000000000e+00 -1.536382765066e+04 8.433367684417e+05  3.935571586061e-02
7.000000000000e+00 6.582315165210e+02 5.715355399251e+05 5.708773084085e+05 9.999427039454e-01 1.405305309152e-09 1.919639253184e-05 1.421818032653e-12 4.866128781018e-09 -4.950062959848e-09 -2.627105935592e-03 5.872331872338e+05 -2.895199374014e-02 -5.488589052085e+05 1.534971281013e+04 2.668789547311e-02 -2.702186082401e-09 -2.632973550754e-02 0.000000000000e+00 -1.790799827849e+04 9.838920965928e+05  4.591496450766e-02
8.000000000000e+00 8.571236921276e+02 6.532738450699e+05 6.524167213777e+05 9.999253912877e-01 1.518116582181e-09 2.198850525355e-05 2.321996458716e-12 7.147734448194e-09 -5.058659222572e-09 -3.002436374927e-03 6.711060875116e+05 -6.691628118201e-03 -6.272845200398e+05 1.752862698875e+04 3.050028149107e-02 -6.245519576956e-10 -3.009128019466e-02 0.000000000000e+00 -2.045006482021e+04 1.124447789197e+06  5.247423016255e-02
9.000000000000e+00 1.086011007503e+03 7.350412605890e+05 7.339552495815e+05 9.999054676897e-01 1.588296473665e-09 2.477735765981e-05 3.685532394734e-12 1.007547913480e-08 -5.088193914033e-09 -3.377764809145e-03 7.549768017704e+05 2.307703935504e-02 -7.057129038130e+05 1.970555918296e+04 3.431265798742e-02 2.153857006475e-09 -3.385286160648e-02 0.000000000000e+00 -2.298981904679e+04 1.265003984703e+06  5.903351928614e-02
1.000000000000e+01 1.345520931110e+03 8.168380509839e+05 8.154925300528e+05 9.998828785332e-01 1.480314301246e-09 2.756280590866e-05 5.558735701630e-12 1.374459369785e-08 -4.641493245997e-09 -3.753090851364e-03 8.388461166341e+05 4.486563786732e-02 -7.841433716293e+05 2.188109800194e+04 3.812503420284e-02 4.187459534287e-09 -3.761447524946e-02 0.000000000000e+00 -2.552794766893e+04 1.405560771779e+06  6.559283601634e-02
1.100000000000e+01 1.636703419104e+03 8.986647519727e+05 8.970280485536e+05 9.998575324243e-01 1.160575338117e-09 3.034386417671e-05 8.389033278517e-12 1.825641821546e-08 -4.211938520097e-09 -4.128414636029e-03 9.227130973652e+05 4.469457059089e-02 -8.625765142810e+05 2.405463323365e+04 4.193739499280e-02 4.171493255153e-09 -4.137612021735e-02 0.000000000000e+00 -2.806373877259e+04 1.546117851968e+06  7.215216642519e-02
1.200000000000e+01 1.960713960128e+03 9.805235107835e+05 9.785627968234e+05 9.998293287829e-01 6.101389232027e-10 3.312065854144e-05 1.246568555429e-11 2.371945031076e-08 -3.455127682112e-09 -4.503736031317e-03 1.006578715426e+06 6.281804065338e-02 -9.410117209185e+05 2.622679780299e+04 4.574975615574e-02 5.863017127647e-09 -4.513779754034e-02 0.000000000000e+00 -3.059793077015e+04 1.686675538185e+06  7.871152511532e-02
1.300000000000e+01 2.318885761912e+03 1.062415103131e+06 1.060096217369e+06 9.997981515594e-01 3.843483027419e-10 3.589262731299e-05 1.768236173025e-11 3.024902487729e-08 -2.629049924234e-09 -4.879054434882e-03 1.090442309641e+06 1.680638969978e-01 -1.019449602926e+06 2.839708268584e+04 4.956211059122e-02 1.568596371978e-08 -4.889951199522e-02 0.000000000000e+00 -3.312992980014e+04 1.827233786815e+06  8.527091005139e-02
1.400000000000e+01 2.711017253293e+03 1.144339306628e+06 1.141628289375e+06 9.997640182997e-01 -1.490301423022e-11 3.865916485073e-05 2.486056415437e-11 3.796801417219e-08 -1.155558742583e-09 -5.254370530776e-03 1.174305009131e+06 2.256993894842e-01 -1.097888580689e+06 3.056657137660e+04 5.337446042853e-02 2.106527635185e-08 -5.266124042975e-02 0.000000000000e+00 -3.566099993937e+04 1.967792208776e+06  9.183030307624e-02
1.500000000000e+01 3.136029076291e+03 1.226295033811e+06 1.223159004735e+06 9.997270229569e-01 -1.277164294555e-09 4.142070927876e-05 3.456298162583e-11 4.700607225585e-08 1.066109506506e-09 -5.629683704286e-03 1.258167939608e+06 2.163377737465e-01 -1.176328335462e+06 3.273584165820e+04 5.718683123764e-02 2.019152554968e-08 -5.642299493228e-02 0.000000000000e+00 -3.819181526790e+04 2.108351503475e+06  9.838973682882e-02
1.600000000000e+01 3.595678152843e+03 1.308284661938e+06 1.304688983785e+06 9.996870125989e-01 -2.009183524706e-09 4.417597826729e-05 4.766110104255e-11 5.750106258827e-08 3.186143758422e-09 -6.004994410019e-03 1.342028867170e+06 2.125660810668e-01 -1.254770008178e+06 3.490354359681e+04 6.099918176675e-02 1.983950089959e-08 -6.018476574950e-02 0.000000000000e+00 -4.072080086295e+04 2.248910723071e+06  1.049491670766e-01
1.700000000000e+01 4.088675137565e+03 1.390306907778e+06 1.386218232641e+06 9.996440994575e-01 -2.735793804670e-09 4.692603832190e-05 6.467651270128e-11 6.959813140788e-08 4.463059635237e-09 -6.380301943722e-03 1.425890609766e+06 2.288308303697e-01 -1.333211271492e+06 3.707173530977e+04 6.481154747462e-02 2.135754416784e-08 -6.394654031739e-02 0.000000000000e+00 -4.325035786140e+04 2.389470294431e+06  1.115086137401e-01
1.800000000000e+01 4.610167115074e+03 1.472357704989e+06 1.467747537873e+06 9.995987059568e-01 -3.248716409893e-09 4.967013392426e-05 8.710948567016e-11 8.344572052868e-08 6.121175173454e-09 -6.755606276097e-03 1.509756747935e+06 2.533885718205e-01 -1.411648643937e+06 3.924324159898e+04 6.862396362900e-02 2.364960003661e-08 -6.770828799169e-02 0.000000000000e+00 -4.578378186548e+04 2.530030306092e+06  1.180680809510e-01
1.900000000000e+01 5.162669619759e+03 1.554438408883e+06 1.549275739263e+06 9.995506131310e-01 -4.609219045199e-09 5.240776170813e-05 1.168907906494e-10 9.920084792369e-08 8.230194213875e-09 -7.130907933485e-03 1.593619894969e+06 3.611292332511e-01 -1.490088499780e+06 4.141255807575e+04 7.243634238835e-02 3.370539510345e-08 -7.147004936658e-02 0.000000000000e+00 -4.831465108838e+04 2.670589875922e+06  1.246275275431e-01
2.000000000000e+01 5.740123338166e+03 1.636543447611e+06 1.630803324273e+06 9.995003484158e-01 -7.105484206472e-09 5.514004131809e-05 1.546418362540e-10 1.170239930977e-07 9.859163765102e-09 -7.506206978309e-03 1.677488192972e+06 3.364704143764e-01 -1.568523920628e+06 4.358570893736e+04 7.624878258827e-02 3.140390534180e-08 -7.523178271307e-02 0.000000000000e+00 -5.084999376026e+04 2.811150069519e+06  1.311870032442e-01
2.100000000000e+01 6.340881494212e+03 1.718672269546e+06 1.712331388052e+06 9.994480551554e-01 -6.294681061764e-09 5.786523090715e-05 2.002416312413e-10 1.370788496662e-07 1.001610188043e-08 -7.881503564995e-03 1.761357971728e+06 2.272902210873e-01 -1.646956827739e+06 4.576045759548e+04 8.006121732619e-02 2.121375396813e-08 -7.899347331563e-02 0.000000000000e+00 -5.338720052806e+04 2.951709370080e+06  1.377464372704e-01
2.200000000000e+01 6.965207893001e+03 1.800824995367e+06 1.793859787474e+06 9.993937103868e-01 -7.902080365111e-09 6.058457260991e-05 2.533341964932e-10 1.595332836484e-07 1.153455299731e-08 -8.256797396581e-03 1.845228125587e+06 3.224491607539e-01 -1.725388956592e+06 4.793566759817e+04 8.387364803950e-02 3.009525500369e-08 -8.275514912887e-02 0.000000000000e+00 -5.592494553120e+04 3.092268321949e+06  1.443058550243e-01
2.300000000000e+01 7.604859769482e+03 1.882993542278e+06 1.875388682509e+06 9.993380316053e-01 -9.586836733377e-09 6.329829177896e-05 3.162071659475e-10 1.845547227629e-07 1.191930970205e-08 -8.632089055248e-03 1.929105805499e+06 1.475674374143e-01 -1.803813300159e+06 5.011700213598e+04 8.768614415692e-02 1.377296082532e-08 -8.651674744042e-02 0.000000000000e+00 -5.846983582531e+04 3.232827055250e+06  1.508652625783e-01
2.400000000000e+01 8.258755970919e+03 1.965178720852e+06 1.956919964881e+06 9.992811129201e-01 -1.312894464707e-08 6.600671259545e-05 3.923428126513e-10 2.123099144334e-07 1.301556081759e-08 -9.007378183247e-03 2.012986958834e+06 2.550034671722e-01 -1.882234269309e+06 5.230107580970e+04 9.149867454112e-02 2.380032360275e-08 -9.027831610556e-02 0.000000000000e+00 -6.101792177799e+04 3.373385876948e+06  1.574246742576e-01
2.500000000000e+01 8.918887232070e+03 2.047370335762e+06 2.038451448530e+06 9.992236515015e-01 -1.240024651074e-08 6.870984718852e-05 4.828840305659e-10 2.429639509418e-07 1.268830537184e-08 -9.382665743834e-03 2.096874606077e+06 5.913391624567e-02 -1.960647326517e+06 5.449091182400e+04 9.531123906512e-02 5.519165516263e-09 -9.403978445590e-02 0.000000000000e+00 -6.357273046133e+04 3.513943476185e+06  1.639840288886e-01
2.600000000000e+01 9.585923966538e+03 2.129571610497e+06 2.119985686530e+06 9.991655889928e-01 -1.332899385887e-08 7.140875467758e-05 5.876440799109e-10 2.766820338033e-07 1.331637319726e-08 -9.757950627863e-03 2.180765003245e+06 5.603365982257e-02 -2.039058410161e+06 5.668263723388e+04 9.912384374720e-02 5.229808250084e-09 -9.780124887841e-02 0.000000000000e+00 -6.612974343952e+04 3.654501749600e+06  1.705434149814e-01
2.700000000000e+01 1.025760702263e+04 2.211779492831e+06 2.201521885808e+06 9.991071220430e-01 -1.354847941358e-08 7.410454828065e-05 7.125837906783e-10 3.136256413605e-07 1.404467261306e-08 -1.013323423892e-02 2.264658877050e+06 -8.443944172978e-02 -2.117464653325e+06 5.887768949019e+04 1.029364554195e-01 -7.881014561479e-09 -1.015626426647e-01 0.000000000000e+00 -6.869063773856e+04 3.795058845129e+06  1.771027461060e-01
2.800000000000e+01 1.092534348541e+04 2.293986180806e+06 2.283060837321e+06 9.990489986261e-01 -1.528959955990e-08 7.679435909906e-05 8.512021676774e-10 3.539454872787e-07 1.483006827627e-08 -1.050851706944e-02 2.348562503341e+06 -1.028700873647e-01 -2.195860499726e+06 6.108080144596e+04 1.067491460884e-01 -9.601208154101e-09 -1.053239273880e-01 0.000000000000e+00 -7.126093502029e+04 3.935615390524e+06  1.836620515578e-01
2.900000000000e+01 1.158249762594e+04 2.376184446537e+06 2.364601948911e+06 9.989917963522e-01 -1.716229429186e-08 7.948404593275e-05 1.008076902733e-09 3.977809187418e-07 1.485897816648e-08 -1.088379800192e-02 2.432473555169e+06 -1.466082362395e-01 -2.274248105635e+06 6.329017981361e+04 1.105618908499e-01 -1.368343538240e-08 -1.090851199876e-01 0.000000000000e+00 -7.383854311588e+04 4.076171236238e+06  1.902213243578e-01
3.000000000000e+01 1.222943354412e+04 2.458376918277e+06 2.446147484733e+06 9.989354835280e-01 -1.613213218988e-08 8.217179102621e-05 1.180438609851e-09 4.452757176553e-07 1.511469909603e-08 -1.125907750130e-02 2.516388554419e+06 -2.444258729424e-01 -2.352631983206e+06 6.550262848514e+04 1.143746765436e-01 -2.281308147468e-08 -1.128462818789e-01 0.000000000000e+00 -7.641973323266e+04 4.216727274678e+06  1.967806061516e-01
