 TITLE = "Time curves in points"
 VARIABLES = "TIME "  "PRESSURE1"  "PRESSURE2"  "PRESSURE_W"  "SATURATION1"  "VELOCITY_X1"  "VELOCITY_Y1"  "VELOCITY_X2"  "VELOCITY_Y2"  "DISPLACEMENT_X1"  "DISPLACEMENT_Y1"  "STRESS_XX"  "STRESS_XY"  "STRESS_YY"  "STRESS_ZZ"  "STRAIN_XX"  "STRAIN_XY"  "STRAIN_YY"  "STRAIN_PLS"  p_(1st_Invariant)  q_(2nd_Invariant)   Effective_Strain
 ZONE T="POINT=POINT7"
0.000000000000e+00 5.000000000000e+01 1.000000000000e+05 0.000000000000e+00 0.000000000000e+00 0.000000000000e+00 0.000000000000e+00 0.000000000000e+00 0.000000000000e+00 0.000000000000e+00 0.000000000000e+00 0.000000000000e+00 0.000000000000e+00 0.000000000000e+00 0.000000000000e+00 0.000000000000e+00 0.000000000000e+00 0.000000000000e+00 0.000000000000e+00 -0.000000000000e+00 0.000000000000e+00  0.000000000000e+00
1.000000000000e+00 8.629216397810e+01 7.875857498006e+04 7.867228281609e+04 9.999924886603e-01 3.350647272379e-17 -8.626161001406e-08 3.762191000534e-22 3.687974245998e-12 4.950848401311e-15 -1.300000000000e-03 -4.266037880885e+04 -2.115848474205e-08 -2.615985509374e+05 -1.217035718985e+05 3.688682344184e-03 -1.974115315662e-15 -6.528432355149e-03 0.000000000000e+00 1.419875005483e+05 1.920317092945e+05  8.961479767075e-03
2.000000000000e+00 3.095092760276e+01 1.576857500623e+05 1.576547991347e+05 9.999973788829e-01 1.115982272394e-10 -9.198850702975e-08 3.048415854799e-15 1.000214638125e-11 -7.346122225738e-09 -2.600000000000e-03 -8.490638381648e+04 2.321182083688e-02 -5.226994988839e+05 -2.430423530801e+05 7.379678565637e-03 2.166436613438e-09 -1.305066680417e-02 0.000000000000e+00 2.835494119268e+05 3.839778089776e+05  1.791896441895e-02
3.000000000000e+00 3.300420615691e+01 2.369658661539e+05 2.369328619478e+05 9.999972975160e-01 6.014195812177e-11 -1.018885398146e-07 6.063221923093e-15 1.802432338256e-11 -9.077994774849e-10 -3.900000000000e-03 -1.270479713396e+05 -7.482688524760e-04 -7.837792389477e+05 -3.643308841149e+05 1.107320259618e-02 -6.983842497366e-11 -1.957425655886e-02 0.000000000000e+00 4.250526981340e+05 5.759930819555e+05  2.687967715792e-02
4.000000000000e+00 3.127969527307e+01 3.161067799756e+05 3.160755002803e+05 9.999975524233e-01 8.502300845921e-11 -1.111900249312e-07 1.284469868364e-14 2.728003760794e-11 -1.064747970572e-08 -5.200000000000e-03 -1.692406563528e+05 3.270905365935e-02 -1.044868368999e+06 -4.856436101407e+05 1.476547117677e-02 3.052845009774e-09 -2.609715541338e-02 0.000000000000e+00 5.665842118308e+05 7.679736490400e+05  3.583877028853e-02
5.000000000000e+00 2.570360024261e+01 3.952453615162e+05 3.952196579160e+05 9.999981571673e-01 1.032811890534e-10 -1.204860094293e-07 2.749813278800e-14 3.755751810832e-11 -1.185558616864e-08 -6.500000000000e-03 -2.114332993043e+05 3.708971961169e-02 -1.305960442743e+06 -6.069574968190e+05 1.845779588402e-02 3.461707160507e-09 -3.262013747646e-02 0.000000000000e+00 7.081170796221e+05 9.599568159441e+05  4.479798474406e-02
6.000000000000e+00 1.632957559881e+01 4.743802170495e+05 4.743638874739e+05 9.999991114283e-01 1.093130780195e-10 -1.298178851315e-07 5.465485811505e-14 4.885956833450e-11 -1.379441333621e-08 -7.800000000000e-03 -2.536259434206e+05 4.471785691567e-02 -1.567052864545e+06 -7.282715231862e+05 2.215012705572e-02 4.173666651869e-09 -3.914312926340e-02 0.000000000000e+00 8.496501103839e+05 1.151940285374e+06  5.375721331746e-02
7.000000000000e+00 3.164764531053e+00 5.535112309879e+05 5.535080662234e+05 1.000000000000e+00 1.136074784695e-10 -1.391830999744e-07 1.008285127896e-13 6.138159759217e-11 -1.474026808321e-08 -9.100000000000e-03 -2.958186014409e+05 4.967878665775e-02 -1.828145500560e+06 -8.495856408003e+05 2.584246183677e-02 4.636686760234e-09 -4.566612678878e-02 0.000000000000e+00 9.911832476003e+05 1.343923929911e+06  6.271645006253e-02
8.000000000000e+00 -1.279007856810e+01 6.326395587950e+05 6.326523488736e+05 1.000000000000e+00 1.238390429786e-10 -1.486477541699e-07 1.777456373335e-13 7.533064895679e-11 -1.598194371684e-08 -1.040000000000e-02 -3.380119818439e+05 5.733509827405e-02 -2.089238903058e+06 -9.709003539608e+05 2.953479069879e-02 5.351275849524e-09 -5.218913229121e-02 0.000000000000e+00 1.132717079621e+06 1.535907635820e+06  7.167568967162e-02
9.000000000000e+00 -3.089248581022e+01 7.117658431731e+05 7.117967356589e+05 1.000000000000e+00 9.160662417890e-11 -1.581905010258e-07 2.950690750519e-13 9.091701575918e-11 -1.641535128162e-08 -1.170000000000e-02 -3.802058202925e+05 6.375374807976e-02 -2.350332952373e+06 -1.092215509066e+06 3.322711880944e-02 5.950349834388e-09 -5.871214735432e-02 0.000000000000e+00 1.274251427244e+06 1.727891520701e+06  8.063493763271e-02
1.000000000000e+01 -5.095424136830e+01 7.908901765256e+05 7.909411307670e+05 1.000000000000e+00 1.279451185960e-10 -1.677844234721e-07 4.701092994298e-13 1.084426131683e-10 -1.690067880285e-08 -1.300000000000e-02 -4.223998094325e+05 6.751088134479e-02 -2.611427208940e+06 -1.213530807349e+06 3.691944656943e-02 6.301015594706e-09 -6.523516540757e-02 0.000000000000e+00 1.415785941907e+06 1.919875459664e+06  8.959418811764e-02
1.100000000000e+01 -7.259540621319e+01 8.700129757381e+05 8.700855711443e+05 1.000000000000e+00 1.398265430970e-10 -1.774232685529e-07 7.302716612174e-13 1.282218471751e-10 -1.676467652019e-08 -1.430000000000e-02 -4.645941094039e+05 7.336705713533e-02 -2.872521855074e+06 -1.334846385791e+06 4.061177289806e-02 6.847592005574e-09 -7.175818856652e-02 0.000000000000e+00 1.557320783423e+06 2.111859477067e+06  9.855344226313e-02
1.200000000000e+01 -9.552427226274e+01 9.491345059391e+05 9.492300302114e+05 1.000000000000e+00 1.130592913640e-10 -1.870981597625e-07 1.097064523034e-12 1.505774285497e-10 -1.634205838939e-08 -1.560000000000e-02 -5.067886987643e+05 7.949592219666e-02 -3.133616875888e+06 -1.456162229861e+06 4.430409811785e-02 7.419619425797e-09 -7.828121681461e-02 0.000000000000e+00 1.698855934838e+06 2.303843577932e+06  1.075127003035e-01
1.300000000000e+01 -1.194916545849e+02 1.028254960986e+06 1.028374452641e+06 1.000000000000e+00 1.496764401139e-10 -1.967995332271e-07 1.595032112521e-12 1.758356971746e-10 -1.599063619194e-08 -1.690000000000e-02 -5.489835475007e+05 8.171580196358e-02 -3.394712221392e+06 -1.577478307557e+06 4.799642213597e-02 7.626808211023e-09 -8.480424931230e-02 0.000000000000e+00 1.840391358817e+06 2.495827743902e+06  1.164719613821e-01
1.400000000000e+01 -1.442795592362e+02 1.107374572861e+06 1.107518852421e+06 1.000000000000e+00 1.132210856849e-10 -2.065405037597e-07 2.220887738576e-12 2.043196597817e-10 -1.432438681136e-08 -1.820000000000e-02 -5.911785981229e+05 8.321639825590e-02 -3.655807772446e+06 -1.698794548227e+06 5.168874433821e-02 7.766863846514e-09 -9.132728379686e-02 0.000000000000e+00 1.981926972932e+06 2.687811919462e+06  1.254312229082e-01
1.500000000000e+01 -1.696969437497e+02 1.186493590369e+06 1.186663287312e+06 1.000000000000e+00 1.710395670188e-10 -2.163120524514e-07 3.011994149944e-12 2.363499733258e-10 -1.051408306436e-08 -1.950000000000e-02 -6.333738289768e+05 7.427798397839e-02 -3.916903601083e+06 -1.820110972024e+06 5.538106667553e-02 6.932611849170e-09 -9.785032268942e-02 0.000000000000e+00 2.123462800695e+06 2.879796185520e+06  1.343904886576e-01
1.600000000000e+01 -1.955784149975e+02 1.265612087665e+06 1.265807666080e+06 1.000000000000e+00 8.535564269422e-11 -2.261077318418e-07 3.947106906861e-12 2.722438130418e-10 -6.428095680762e-09 -2.080000000000e-02 -6.755692373803e+05 6.964282388799e-02 -4.177999576195e+06 -1.941427525430e+06 5.907338677565e-02 6.499996893158e-09 -1.043733623690e-01 0.000000000000e+00 2.264998779668e+06 3.071780430136e+06  1.433497534063e-01
1.700000000000e+01 -2.217835857382e+02 1.344730216990e+06 1.344952000575e+06 1.000000000000e+00 1.159014487440e-10 -2.359189735937e-07 5.053593285339e-12 3.123156028139e-10 -4.648464967562e-09 -2.210000000000e-02 -7.177649035366e+05 6.713110976852e-02 -4.439095994850e+06 -2.062744359355e+06 6.276570793818e-02 6.265570262273e-09 -1.108964096565e-01 0.000000000000e+00 2.406535085914e+06 3.263764844721e+06  1.523090260870e-01
1.800000000000e+01 -2.481883204681e+02 1.423848214926e+06 1.424096403246e+06 1.000000000000e+00 1.693424325059e-10 -2.457770530825e-07 6.350055557984e-12 3.568692629862e-10 -8.334872358017e-10 -2.340000000000e-02 -7.599606496021e+05 5.401525110938e-02 -4.700192522912e+06 -2.184061269006e+06 6.645802890550e-02 5.041423473129e-09 -1.174194585156e-01 0.000000000000e+00 2.548071480507e+06 3.455749287529e+06  1.612683000847e-01
1.900000000000e+01 -2.746828065223e+02 1.502966118286e+06 1.503240801092e+06 1.000000000000e+00 1.244982129731e-10 -2.556353798609e-07 7.824987376111e-12 4.062137439846e-10 2.001507300848e-09 -2.470000000000e-02 -8.021565774656e+05 5.156534258276e-02 -4.961289418739e+06 -2.305378398482e+06 7.015035164742e-02 4.812765333831e-09 -1.239425142787e-01 0.000000000000e+00 2.689608131562e+06 3.647733898056e+06  1.702275819093e-01
2.000000000000e+01 -3.011775213790e+02 1.582083818685e+06 1.582384996206e+06 1.000000000000e+00 1.487808500535e-10 -2.655156622703e-07 9.500578668407e-12 4.606505081089e-10 4.750491982832e-09 -2.600000000000e-02 -8.443527318466e+05 4.724168241955e-02 -5.222386468366e+06 -2.426695680085e+06 7.384267091780e-02 4.409223776022e-09 -1.304655701198e-01 0.000000000000e+00 2.831144960099e+06 3.839718452415e+06  1.791868611127e-01
2.100000000000e+01 -3.275926728150e+02 1.661201580000e+06 1.661529172672e+06 1.000000000000e+00 1.688335591293e-10 -2.754127576776e-07 1.138154197237e-11 5.204793694619e-10 6.481489839377e-09 -2.730000000000e-02 -8.865489674082e+05 4.176042461768e-02 -5.483483572307e+06 -2.548013015886e+06 7.753498892897e-02 3.897639652001e-09 -1.369886259663e-01 0.000000000000e+00 2.972681851867e+06 4.031702985942e+06  1.881461393440e-01
2.200000000000e+01 -3.538725428977e+02 1.740319043953e+06 1.740672916496e+06 1.000000000000e+00 3.623208496873e-10 -2.853317063391e-07 1.353138284179e-11 5.859985598248e-10 7.595961489715e-09 -2.860000000000e-02 -9.287455183662e+05 3.835882944986e-02 -5.744580682409e+06 -2.669330480310e+06 8.122729822405e-02 3.580157415320e-09 -1.435116760979e-01 0.000000000000e+00 3.114218893695e+06 4.223687260113e+06  1.971054054719e-01
2.300000000000e+01 -3.799482930267e+02 1.819437039791e+06 1.819816988084e+06 1.000000000000e+00 1.804940592601e-10 -2.952937864503e-07 1.585494633505e-11 6.574979063881e-10 8.535523830144e-09 -2.990000000000e-02 -9.709420383695e+05 4.903925862163e-02 -6.005678230279e+06 -2.790648107459e+06 8.491961655752e-02 4.576997484143e-09 -1.500347390649e-01 0.000000000000e+00 3.255756125369e+06 4.415671941542e+06  2.060646906053e-01
2.400000000000e+01 -4.057716040737e+02 1.898555335212e+06 1.898961106816e+06 1.000000000000e+00 2.625819589791e-10 -3.052502936147e-07 1.846597581255e-11 7.352805176010e-10 1.108239551302e-08 -3.120000000000e-02 -1.013138641341e+06 3.769636573270e-02 -6.266775925787e+06 -2.911965826851e+06 8.861193532382e-02 3.518327506072e-09 -1.565578046170e-01 0.000000000000e+00 3.397293464660e+06 4.607656681920e+06  2.150239784896e-01
2.500000000000e+01 -4.312970606149e+02 1.977673551902e+06 1.978104848963e+06 1.000000000000e+00 1.005965235281e-10 -3.152377149880e-07 2.127693113850e-11 8.196396010738e-10 1.095939747503e-08 -3.250000000000e-02 -1.055335506339e+06 4.727976815775e-02 -6.527873721642e+06 -3.033283691192e+06 9.230424862650e-02 4.412778384019e-09 -1.630808680877e-01 0.000000000000e+00 3.538830973058e+06 4.799641289765e+06  2.239832601890e-01
2.600000000000e+01 -4.564897160435e+02 2.056791969990e+06 2.057248459706e+06 1.000000000000e+00 2.633899490950e-10 -3.252122038463e-07 2.438445794806e-11 9.108831001099e-10 1.250461570405e-08 -3.380000000000e-02 -1.097532575701e+06 3.994660545141e-02 -6.788971802611e+06 -3.154601751325e+06 9.599656152911e-02 3.728349918727e-09 -1.696039357267e-01 0.000000000000e+00 3.680368709879e+06 4.991625974400e+06  2.329425454720e-01
2.700000000000e+01 -4.813122213496e+02 2.135911061650e+06 2.136392373871e+06 1.000000000000e+00 6.036653493457e-11 -3.352455000408e-07 2.764671178014e-11 1.009299673701e-09 1.556303963843e-08 -3.510000000000e-02 -1.139729601368e+06 3.973047109321e-02 -7.050070158588e+06 -3.275919903982e+06 9.968888078868e-02 3.708177341577e-09 -1.761270118816e-01 0.000000000000e+00 3.821906554646e+06 5.183610935229e+06  2.419018436440e-01
2.800000000000e+01 -5.057493491396e+02 2.215030105197e+06 2.215535854546e+06 1.000000000000e+00 8.609130363797e-11 -3.452553927218e-07 3.114118808334e-11 1.115205243688e-09 1.355089709391e-08 -3.640000000000e-02 -1.181926845214e+06 5.257534421980e-02 -7.311168430602e+06 -3.397238110327e+06 1.033811923719e-01 4.907032150406e-09 -1.826500816128e-01 0.000000000000e+00 3.963444462048e+06 5.375595639803e+06  2.508611298575e-01
2.900000000000e+01 -5.297795764768e+02 2.294149606645e+06 2.294679386222e+06 1.000000000000e+00 3.339512103514e-10 -3.553137771102e-07 3.503104471206e-11 1.228894778508e-09 1.512180623700e-08 -3.770000000000e-02 -1.224124237800e+06 3.556627500802e-02 -7.572267178232e+06 -3.518556566413e+06 1.070735086686e-01 3.319519031181e-09 -1.891731618849e-01 0.000000000000e+00 4.104982660815e+06 5.567580633772e+06  2.598204295760e-01
3.000000000000e+01 -5.533836177572e+02 2.373269199776e+06 2.373822583394e+06 1.000000000000e+00 2.411562494068e-10 -3.653489293493e-07 3.917438176027e-11 1.350688754486e-09 1.840657719924e-08 -3.900000000000e-02 -1.266321797817e+06 2.153517957777e-02 -7.833365916205e+06 -3.639875085609e+06 1.107658200969e-01 2.009950142087e-09 -1.956962387611e-01 0.000000000000e+00 4.246520933210e+06 5.759565478798e+06  2.687797223439e-01
