 TITLE = "Time curves in points"
 VARIABLES = "TIME "  "PRESSURE1"  "PRESSURE2"  "PRESSURE_W"  "SATURATION1"  "VELOCITY_X1"  "VELOCITY_Y1"  "VELOCITY_X2"  "VELOCITY_Y2"  "DISPLACEMENT_X1"  "DISPLACEMENT_Y1"  "STRESS_XX"  "STRESS_XY"  "STRESS_YY"  "STRESS_ZZ"  "STRAIN_XX"  "STRAIN_XY"  "STRAIN_YY"  "STRAIN_PLS"  p_(1st_Invariant)  q_(2nd_Invariant)   Effective_Strain
 ZONE T="POINT=POINT7"
0.000000000000e+00 5.000000000000e+01 1.000000000000e+05 0.000000000000e+00 0.000000000000e+00 0.000000000000e+00 0.000000000000e+00 0.000000000000e+00 0.000000000000e+00 0.000000000000e+00 0.000000000000e+00 0.000000000000e+00 0.000000000000e+00 0.000000000000e+00 0.000000000000e+00 0.000000000000e+00 0.000000000000e+00 0.000000000000e+00 0.000000000000e+00 -0.000000000000e+00 0.000000000000e+00  0.000000000000e+00
1.000000000000e+00 8.631000391276e+01 7.875862772967e+04 7.867231772576e+04 9.999924871074e-01 -1.014066256266e-16 -8.626184123917e-08 -1.138930061438e-21 3.686718086927e-12 -1.504611462871e-14 -1.300000000000e-03 -4.266036550250e+04 6.600748747587e-08 -2.615985447598e+05 -1.217035641049e+05 3.688682601447e-03 6.163472510146e-15 -6.528432430561e-03 0.000000000000e+00 1.419874914557e+05 1.920317150814e+05  8.961480037134e-03
2.000000000000e+00 3.099693238312e+01 1.576857646951e+05 1.576547677627e+05 9.999973746212e-01 1.007074510844e-10 -9.199157887514e-08 1.161164948219e-15 9.996755394101e-12 -7.314838908629e-09 -2.600000000000e-03 -8.490643069972e+04 2.217284418293e-02 -5.226995372853e+05 -2.430423871940e+05 7.379677969734e-03 2.069465456639e-09 -1.305066700426e-02 0.000000000000e+00 2.835494517264e+05 3.839778030742e+05  1.791896414346e-02
3.000000000000e+00 3.303845153431e+01 2.369659038670e+05 2.369328654155e+05 9.999972943390e-01 6.110754576973e-11 -1.018880809878e-07 3.057198175421e-15 1.801412434648e-11 -9.459865357001e-10 -3.900000000000e-03 -1.270479585574e+05 1.452743308619e-04 -7.837792287522e+05 -3.643308749238e+05 1.107320276377e-02 1.355894042876e-11 -1.957425651199e-02 0.000000000000e+00 4.250526874111e+05 5.759930838041e+05  2.687967724419e-02
4.000000000000e+00 3.130134025020e+01 3.161067985226e+05 3.160754971823e+05 9.999975504113e-01 9.153162322841e-11 -1.111889612924e-07 1.027545904189e-14 2.726503504994e-11 -1.060523698254e-08 -5.200000000000e-03 -1.692406457949e+05 3.290313918842e-02 -1.044868353837e+06 -4.856435998527e+05 1.476547118936e-02 3.070959663648e-09 -2.609715518592e-02 0.000000000000e+00 5.665841998281e+05 7.679736446961e+05  3.583877008582e-02
5.000000000000e+00 2.571921916362e+01 3.952453917934e+05 3.952196725743e+05 9.999981556912e-01 1.103689576800e-10 -1.204888468862e-07 2.435741227475e-14 3.753770401210e-11 -1.176705836100e-08 -6.500000000000e-03 -2.114332831814e+05 3.584587259684e-02 -1.305960425436e+06 -6.069574834468e+05 1.845779601239e-02 3.345614786945e-09 -3.262013729281e-02 0.000000000000e+00 7.081170640213e+05 9.599568144026e+05  4.479798467212e-02
6.000000000000e+00 1.634861268129e+01 4.743802355360e+05 4.743638869233e+05 9.999991096616e-01 1.077736578239e-10 -1.298152347432e-07 5.011597417703e-14 4.883381751270e-11 -1.371381990470e-08 -7.800000000000e-03 -2.536259515395e+05 4.478260059841e-02 -1.567052878012e+06 -7.282715318206e+05 2.215012707978e-02 4.179709399768e-09 -3.914312948893e-02 0.000000000000e+00 8.496501204573e+05 1.151940290289e+06  5.375721354682e-02
7.000000000000e+00 3.193061727980e+00 5.535112393208e+05 5.535080462591e+05 1.000000000000e+00 1.173307891282e-10 -1.391814658143e-07 9.832177028447e-14 6.134696104200e-11 -1.461069160050e-08 -9.100000000000e-03 -2.958186180287e+05 4.979261918925e-02 -1.828145500783e+06 -8.495856475248e+05 2.584246137648e-02 4.647311117531e-09 -4.566612648539e-02 0.000000000000e+00 9.911832554456e+05 1.343923916183e+06  6.271644942188e-02
8.000000000000e+00 -1.277743504625e+01 6.326395590336e+05 6.326523364687e+05 1.000000000000e+00 1.379219815114e-10 -1.486464294529e-07 1.799012761584e-13 7.528972454012e-11 -1.575265793600e-08 -1.040000000000e-02 -3.380119735811e+05 5.561844550539e-02 -2.089238882263e+06 -9.709003423378e+05 2.953479054198e-02 5.191054920986e-09 -5.218913186319e-02 0.000000000000e+00 1.132717066061e+06 1.535907624645e+06  7.167568915009e-02
9.000000000000e+00 -3.088279451156e+01 7.117658455527e+05 7.117967283472e+05 1.000000000000e+00 9.835618259844e-11 -1.581923146943e-07 3.003523257606e-13 9.086941360666e-11 -1.686282855679e-08 -1.170000000000e-02 -3.802058066598e+05 6.588180386461e-02 -2.350332897507e+06 -1.092215481667e+06 3.322711816699e-02 6.148968367467e-09 -5.871214607254e-02 0.000000000000e+00 1.274251395278e+06 1.727891484358e+06  8.063493593670e-02
1.000000000000e+01 -5.094574270436e+01 7.908901822311e+05 7.909411279738e+05 1.000000000000e+00 1.212812883564e-10 -1.677831615045e-07 4.756045092171e-13 1.083883218389e-10 -1.682019860014e-08 -1.300000000000e-02 -4.223998045074e+05 6.758542603347e-02 -2.611427202051e+06 -1.213530802623e+06 3.691944657875e-02 6.307973105663e-09 -6.523516530663e-02 0.000000000000e+00 1.415785936394e+06 1.919875457798e+06  8.959418803058e-02
1.100000000000e+01 -7.258803481869e+01 8.700129785018e+05 8.700855665367e+05 1.000000000000e+00 1.080114832800e-10 -1.774271716131e-07 7.308953890562e-13 1.281597902220e-10 -1.682795593441e-08 -1.430000000000e-02 -4.645941054653e+05 7.475461275317e-02 -2.872521827277e+06 -1.334846373097e+06 4.061177248948e-02 6.977097219418e-09 -7.175818786174e-02 0.000000000000e+00 1.557320768613e+06 2.111859456164e+06  9.855344128764e-02
1.200000000000e+01 -9.551854128023e+01 9.491344734777e+05 9.492299920189e+05 1.000000000000e+00 1.366868087780e-10 -1.870936151433e-07 1.096693104782e-12 1.505081582124e-10 -1.666919657913e-08 -1.560000000000e-02 -5.067887142981e+05 7.971036178060e-02 -3.133616857994e+06 -1.456162228917e+06 4.430409734887e-02 7.439633759737e-09 -7.828121602359e-02 0.000000000000e+00 1.698855933736e+06 2.303843549309e+06  1.075126989677e-01
1.300000000000e+01 -1.194862129473e+02 1.028254957686e+06 1.028374443899e+06 1.000000000000e+00 1.312387690705e-10 -1.968010576645e-07 1.582140629376e-12 1.757575007789e-10 -1.606408650999e-08 -1.690000000000e-02 -5.489835529405e+05 8.223943249322e-02 -3.394712234463e+06 -1.577478314961e+06 4.799642222764e-02 7.675680369079e-09 -8.480424957673e-02 0.000000000000e+00 1.840391367455e+06 2.495827750720e+06  1.164719617003e-01
1.400000000000e+01 -1.442697198658e+02 1.107374656810e+06 1.107518926530e+06 1.000000000000e+00 2.000714440500e-10 -2.065503747121e-07 2.221535412283e-12 2.042297034441e-10 -1.377544961784e-08 -1.820000000000e-02 -5.911785650752e+05 7.662012078799e-02 -3.655807789134e+06 -1.698794541684e+06 5.168874557506e-02 7.151211262046e-09 -9.132728488101e-02 0.000000000000e+00 1.981926965298e+06 2.687811961735e+06  1.254312248810e-01
1.500000000000e+01 -1.696813816696e+02 1.186493628677e+06 1.186663310059e+06 1.000000000000e+00 1.275789194091e-10 -2.163146246297e-07 3.004795839681e-12 2.362476073904e-10 -9.913847529846e-09 -1.950000000000e-02 -6.333738286517e+05 7.309952052310e-02 -3.916903631155e+06 -1.820110983922e+06 5.538106724597e-02 6.822621897995e-09 -9.785032353750e-02 0.000000000000e+00 2.123462814576e+06 2.879796211984e+06  1.343904898926e-01
1.600000000000e+01 -1.955576048978e+02 1.265612109154e+06 1.265807666759e+06 1.000000000000e+00 2.214330519848e-10 -2.261090049741e-07 3.976672104975e-12 2.721274366024e-10 -6.999888031722e-09 -2.080000000000e-02 -6.755692560345e+05 6.653596693650e-02 -4.177999628435e+06 -1.941427553788e+06 5.907338722848e-02 6.210023616865e-09 -1.043733634835e-01 0.000000000000e+00 2.264998812752e+06 3.071780459977e+06  1.433497547989e-01
1.700000000000e+01 -2.217517763727e+02 1.344730371546e+06 1.344952123323e+06 1.000000000000e+00 1.792178596151e-10 -2.359371654828e-07 5.128830746328e-12 3.121794243733e-10 -4.521089348634e-09 -2.210000000000e-02 -7.177648252232e+05 6.419376074336e-02 -4.439095957561e+06 -2.062744313114e+06 6.276570943490e-02 5.991417695306e-09 -1.108964100742e-01 0.000000000000e+00 2.406535031966e+06 3.263764877976e+06  1.523090276389e-01
1.800000000000e+01 -2.481457343516e+02 1.423848301057e+06 1.424096446791e+06 1.000000000000e+00 1.926791770677e-10 -2.457654963742e-07 6.483580784105e-12 3.567166217461e-10 -6.571747003778e-10 -2.340000000000e-02 -7.599606505588e+05 5.400452227332e-02 -4.700192607165e+06 -2.184061303089e+06 6.645803045143e-02 5.040422083186e-09 -1.174194608569e-01 0.000000000000e+00 2.548071520271e+06 3.455749360106e+06  1.612683034716e-01
1.900000000000e+01 -2.746371346194e+02 1.502966000213e+06 1.503240637348e+06 1.000000000000e+00 1.865849082103e-10 -2.556189001027e-07 8.047129468706e-12 4.060440076464e-10 2.369726536157e-09 -2.470000000000e-02 -8.021566624971e+05 5.124701652676e-02 -4.961289387023e+06 -2.305378419808e+06 7.015034867451e-02 4.783054933025e-09 -1.239425118034e-01 0.000000000000e+00 2.689608156443e+06 3.647733799063e+06  1.702275772896e-01
2.000000000000e+01 -3.011325780681e+02 1.582083712874e+06 1.582384845453e+06 1.000000000000e+00 1.980303405640e-10 -2.655105277538e-07 9.827475471639e-12 4.604598502998e-10 6.118537611827e-09 -2.600000000000e-02 -8.443527793577e+05 4.122307850048e-02 -5.222386331868e+06 -2.426695644490e+06 7.384266703953e-02 3.847487370368e-09 -1.304655654110e-01 0.000000000000e+00 2.831144918572e+06 3.839718293654e+06  1.791868537038e-01
2.100000000000e+01 -3.275532712074e+02 1.661201392514e+06 1.661528945785e+06 1.000000000000e+00 2.049407412397e-10 -2.754196238309e-07 1.183083452950e-11 5.202638827420e-10 5.837934365299e-09 -2.730000000000e-02 -8.865490722822e+05 4.396127769724e-02 -5.483483463958e+06 -2.548013014496e+06 7.753498396997e-02 4.103052612947e-09 -1.369886209749e-01 0.000000000000e+00 2.972681850245e+06 4.031702803550e+06  1.881461308323e-01
2.200000000000e+01 -3.538257874704e+02 1.740319240856e+06 1.740673066644e+06 1.000000000000e+00 1.499916184583e-10 -2.853503377657e-07 1.402764728357e-11 5.857520576395e-10 7.863698153408e-09 -2.860000000000e-02 -9.287454364641e+05 4.681198857725e-02 -5.744580723954e+06 -2.669330464167e+06 8.122730129281e-02 4.369119014497e-09 -1.435116787900e-01 0.000000000000e+00 3.114218874862e+06 4.223687365041e+06  1.971054103686e-01
2.300000000000e+01 -3.798988884324e+02 1.819437042575e+06 1.819816941464e+06 1.000000000000e+00 2.024123435562e-10 -2.952857952401e-07 1.647630230404e-11 6.572244144558e-10 9.032134650654e-09 -2.990000000000e-02 -9.709420741669e+05 4.125848598778e-02 -6.005678216893e+06 -2.790648116424e+06 8.491961530532e-02 3.850792060223e-09 -1.500347380219e-01 0.000000000000e+00 3.255756135828e+06 4.415671899837e+06  2.060646886590e-01
2.400000000000e+01 -4.057176142849e+02 1.898555229690e+06 1.898960947304e+06 1.000000000000e+00 1.864746574089e-10 -3.052562564090e-07 1.914447268249e-11 7.349724725124e-10 1.178995700812e-08 -3.120000000000e-02 -1.013138724961e+06 3.621977381408e-02 -6.266775919577e+06 -2.911965857815e+06 8.861193286651e-02 3.380512232989e-09 -1.565578028822e-01 0.000000000000e+00 3.397293500784e+06 4.607656606324e+06  2.150239749618e-01
2.500000000000e+01 -4.312400348537e+02 1.977673521994e+06 1.978104762029e+06 1.000000000000e+00 2.324437958444e-10 -3.152291119154e-07 2.207162661576e-11 8.192973248174e-10 1.114457278230e-08 -3.250000000000e-02 -1.055335550829e+06 3.929034201428e-02 -6.527873699574e+06 -3.033283700161e+06 9.230424696883e-02 3.667098576188e-09 -1.630808666393e-01 0.000000000000e+00 3.538830983522e+06 4.799641233202e+06  2.239832575494e-01
2.600000000000e+01 -4.564281432365e+02 2.056792207166e+06 2.057248635309e+06 1.000000000000e+00 1.046797353637e-10 -3.252393061302e-07 2.521044125622e-11 9.104918553716e-10 1.225152994812e-08 -3.380000000000e-02 -1.097532507973e+06 4.272673698142e-02 -6.788971850911e+06 -3.154601743554e+06 9.599656432710e-02 3.987828843185e-09 -1.696039383434e-01 0.000000000000e+00 3.680368700813e+06 4.991626073314e+06  2.329425500880e-01
2.700000000000e+01 -4.812539917901e+02 2.135911056399e+06 2.136392310391e+06 1.000000000000e+00 3.096869566726e-10 -3.352458090150e-07 2.869538600441e-11 1.008864852621e-09 1.367013018728e-08 -3.510000000000e-02 -1.139729594485e+06 3.481215424836e-02 -7.050070023928e+06 -3.275919847365e+06 9.968887846774e-02 3.249134425051e-09 -1.761270082396e-01 0.000000000000e+00 3.821906488593e+06 5.183610823724e+06  2.419018384405e-01
2.800000000000e+01 -5.056902153268e+02 2.215030109940e+06 2.215535800155e+06 1.000000000000e+00 1.819507259075e-10 -3.452642438672e-07 3.240566943825e-11 1.114720380888e-09 1.556621024932e-08 -3.640000000000e-02 -1.181926884696e+06 3.629681933671e-02 -7.311168476815e+06 -3.397238144605e+06 1.033811921291e-01 3.387703145785e-09 -1.826500821698e-01 0.000000000000e+00 3.963444502039e+06 5.375595646914e+06  2.508611301893e-01
2.900000000000e+01 -5.297163509386e+02 2.294149528794e+06 2.294679245145e+06 1.000000000000e+00 1.315811293097e-10 -3.553079191776e-07 3.633566163047e-11 1.228360014281e-09 1.598477806104e-08 -3.770000000000e-02 -1.224124225762e+06 3.846669197083e-02 -7.572266936936e+06 -3.518556465079e+06 1.070735045015e-01 3.590224624539e-09 -1.891731553533e-01 0.000000000000e+00 4.104982542593e+06 5.567580433720e+06  2.598204202403e-01
3.000000000000e+01 -5.533079608104e+02 2.373269455381e+06 2.373822763342e+06 1.000000000000e+00 1.253571155689e-10 -3.653877189746e-07 4.047202885171e-11 1.350083252254e-09 1.606064366568e-08 -3.900000000000e-02 -1.266321695247e+06 4.041645815596e-02 -7.833365855027e+06 -3.639875020110e+06 1.107658218269e-01 3.772202761959e-09 -1.956962389628e-01 0.000000000000e+00 4.246520856795e+06 5.759565511608e+06  2.687797238750e-01
