 TITLE = "Time curves in points"
 VARIABLES = "TIME "  "PRESSURE1"  "PRESSURE2"  "PRESSURE_W"  "SATURATION1"  "VELOCITY_X1"  "VELOCITY_Y1"  "VELOCITY_X2"  "VELOCITY_Y2"  "DISPLACEMENT_X1"  "DISPLACEMENT_Y1"  "STRESS_XX"  "STRESS_XY"  "STRESS_YY"  "STRESS_ZZ"  "STRAIN_XX"  "STRAIN_XY"  "STRAIN_YY"  "STRAIN_PLS"  p_(1st_Invariant)  q_(2nd_Invariant)   Effective_Strain
 ZONE T="POINT=POINT6"
0.000000000000e+00 5.000000000000e+01 1.000000000000e+05 0.000000000000e+00 0.000000000000e+00 0.000000000000e+00 0.000000000000e+00 0.000000000000e+00 0.000000000000e+00 0.000000000000e+00 0.000000000000e+00 0.000000000000e+00 0.000000000000e+00 0.000000000000e+00 0.000000000000e+00 0.000000000000e+00 0.000000000000e+00 0.000000000000e+00 0.000000000000e+00 -0.000000000000e+00 0.000000000000e+00  0.000000000000e+00
1.000000000000e+00 8.411409372217e+01 8.173422933171e+04 8.165011523799e+04 9.999926782514e-01 4.131992814573e-17 2.400592080377e-06 4.822082803337e-22 3.455262629072e-11 -3.512187436426e-15 -3.750945286533e-04 8.398015175127e+04 -1.604545798450e-07 -7.833195168149e+04 2.259280027910e+03 3.813640680423e-03 -1.497576220663e-14 -3.760924146439e-03 0.000000000000e+00 -2.635826699228e+03 1.405675396819e+05  6.559818518488e-03
2.000000000000e+00 5.349191934015e+01 1.630626513102e+05 1.630091593908e+05 9.999953437721e-01 1.264925756452e-09 5.192434136058e-06 4.193698126281e-14 1.700199462677e-10 -2.208788428696e-09 -7.504473339914e-04 1.677612865524e+05 -5.472943290413e-02 -1.568120076542e+05 4.379711559285e+03 7.624473499681e-03 -5.108080404388e-09 -7.522280229964e-03 0.000000000000e+00 -5.109663485832e+03 2.810908507071e+05  1.311757303300e-02
3.000000000000e+00 1.305353998524e+02 2.448585563793e+05 2.447280209794e+05 9.999886374882e-01 -3.782025057664e-11 8.010406576991e-06 6.623281963201e-14 4.767600746433e-10 -5.294200519018e-10 -1.125763831939e-03 2.517354678471e+05 2.058231453142e-02 -2.351700715356e+05 6.626158524595e+03 1.143843443505e-02 1.921016022932e-09 -1.128382406948e-02 0.000000000000e+00 -7.730518278695e+03 4.216758201921e+05  1.967820494230e-02
4.000000000000e+00 2.253149535944e+02 3.264794016974e+05 3.262540867438e+05 9.999803873598e-01 1.233369049421e-09 1.080345998666e-05 1.972199746608e-13 1.024555891240e-09 -3.926474837261e-09 -1.501105545118e-03 3.356033422584e+05 -4.544868658452e-02 -3.135953576048e+05 8.803193861457e+03 1.525067359186e-02 -4.241877414544e-09 -1.504526573509e-02 0.000000000000e+00 -1.027039283837e+04 5.622268736391e+05  2.623725410316e-02
5.000000000000e+00 3.436043360262e+02 4.081388561772e+05 4.077952518412e+05 9.999700908080e-01 1.343542373583e-09 1.360329962914e-05 4.208438711558e-13 1.887089377946e-09 -4.339794106693e-09 -1.876440370601e-03 4.194815424535e+05 -3.009506379119e-02 -3.920145927542e+05 1.098677987974e+04 1.906308892011e-02 -2.808872620503e-09 -1.880673072292e-02 0.000000000000e+00 -1.281790985969e+04 7.027816356636e+05  3.279647633097e-02
6.000000000000e+00 4.875170402452e+02 4.898242802477e+05 4.893367632075e+05 9.999575638628e-01 1.463186301025e-09 1.640120980498e-05 7.987292174977e-13 3.140868233902e-09 -4.883260694550e-09 -2.251773829648e-03 5.033583247081e+05 -4.252882604774e-02 -4.704356823498e+05 1.316905694334e+04 2.287549916236e-02 -3.969357097776e-09 -2.256822116701e-02 0.000000000000e+00 -1.536389976723e+04 8.433367744503e+05  3.935571614101e-02
7.000000000000e+00 6.580213190416e+02 5.715352825264e+05 5.708772612073e+05 9.999427222422e-01 1.543969938693e-09 1.919633232290e-05 1.415275604203e-12 4.866200600708e-09 -4.879850389072e-09 -2.627105986661e-03 5.872333604771e+05 -1.746668259323e-02 -5.488587225470e+05 1.534985517203e+04 2.668789691423e-02 -1.630223708690e-09 -2.632973362689e-02 0.000000000000e+00 -1.790816436737e+04 9.838920885751e+05  4.591496413351e-02
8.000000000000e+00 8.570090938426e+02 6.532738786199e+05 6.524168695260e+05 9.999254012630e-01 1.500477737512e-09 2.198862793401e-05 2.307149051159e-12 7.147786216439e-09 -5.030745766169e-09 -3.002436323505e-03 6.711061540276e+05 -2.254484715119e-02 -6.272845114194e+05 1.752865704328e+04 3.050028319260e-02 -2.104185734108e-09 -3.009128119492e-02 0.000000000000e+00 -2.045009988383e+04 1.124447839365e+06  5.247423250372e-02
9.000000000000e+00 1.085652971018e+03 7.350407610468e+05 7.339551080758e+05 9.999054988552e-01 1.641079645388e-09 2.477754135006e-05 3.665300311193e-12 1.007535548455e-08 -5.042732411855e-09 -3.377764741083e-03 7.549769122827e+05 7.621219862486e-03 -7.057128480834e+05 1.970562567971e+04 3.431266004147e-02 7.113138538365e-10 -3.385286210895e-02 0.000000000000e+00 -2.298989662633e+04 1.265004032211e+06  5.903352150316e-02
1.000000000000e+01 1.345552166506e+03 8.168381854899e+05 8.154926333234e+05 9.998828758143e-01 1.147454111269e-09 2.756294834036e-05 5.609971776572e-12 1.374438979440e-08 -4.599769867214e-09 -3.753090787620e-03 8.388458425416e+05 3.522635222366e-02 -7.841435594234e+05 2.188091324727e+04 3.812503003374e-02 3.287792874230e-09 -3.761447539130e-02 0.000000000000e+00 -2.552773212181e+04 1.405560696863e+06  6.559283252027e-02
1.100000000000e+01 1.637151603387e+03 8.986656061252e+05 8.970284545218e+05 9.998574934119e-01 1.142079753330e-09 3.034392516066e-05 8.433163595999e-12 1.825658548730e-08 -4.204198940067e-09 -4.128414690240e-03 9.227130696592e+05 9.205283884909e-02 -8.625765213371e+05 2.405461932881e+04 4.193739434875e-02 8.591598292601e-09 -4.137611989774e-02 0.000000000000e+00 -2.806372255028e+04 1.546117834072e+06  7.215216559001e-02
1.200000000000e+01 1.961224290869e+03 9.805237432095e+05 9.785625189186e+05 9.998292843609e-01 9.506541401784e-10 3.312041637022e-05 1.237989117478e-11 2.371981363211e-08 -3.333060556062e-09 -4.503735989631e-03 1.006578339762e+06 9.508945169349e-02 -9.410119828281e+05 2.622654277346e+04 4.574975052612e-02 8.875015491404e-09 -4.513779786141e-02 0.000000000000e+00 -3.059763323571e+04 1.686675439424e+06  7.871152050645e-02
1.300000000000e+01 2.318299539864e+03 1.062414173942e+06 1.060095874402e+06 9.997982025874e-01 4.056987755235e-10 3.589235428415e-05 1.829172784010e-11 3.024939664688e-08 -2.685467880001e-09 -4.879054625863e-03 1.090442926840e+06 1.167672232242e-01 -1.019448916651e+06 2.839760407561e+04 4.956211506234e-02 1.089827416762e-08 -4.889950430057e-02 0.000000000000e+00 -3.313053808822e+04 1.827233727501e+06  8.527090728338e-02
1.400000000000e+01 2.710057374987e+03 1.144337738306e+06 1.141627680931e+06 9.997641018527e-01 -2.140799319949e-10 3.865934605874e-05 2.618164045559e-11 3.796790333524e-08 -1.197635297770e-09 -5.254370597305e-03 1.174304971094e+06 1.738712172209e-01 -1.097888935887e+06 3.056641408286e+04 5.337446599384e-02 1.622798027396e-08 -5.266124966524e-02 0.000000000000e+00 -3.566081643001e+04 1.967792483290e+06  9.183031588688e-02
1.500000000000e+01 3.135312190177e+03 1.226294145062e+06 1.223158832871e+06 9.997270853585e-01 -1.189408642277e-09 4.142037653649e-05 3.668721141759e-11 4.700546934262e-08 1.028891448512e-09 -5.629683915804e-03 1.258167449174e+06 2.109991571645e-01 -1.176328479858e+06 3.273558772644e+04 5.718682020089e-02 1.969325466869e-08 -5.642298982061e-02 0.000000000000e+00 -3.819151901417e+04 2.108351203553e+06  9.838972283249e-02
1.600000000000e+01 3.594199566420e+03 1.308282884686e+06 1.304688685119e+06 9.996871413031e-01 -1.735672186075e-09 4.417592752746e-05 5.058837712181e-11 5.749926560019e-08 3.385827630301e-09 -6.004994514750e-03 1.342029101323e+06 2.329360645048e-01 -1.254769474718e+06 3.490385064194e+04 6.099917836510e-02 2.174069935378e-08 -6.018475518346e-02 0.000000000000e+00 -4.072115908226e+04 2.248910464162e+06  1.049491549942e-01
1.700000000000e+01 4.086735886398e+03 1.390305277536e+06 1.386218541649e+06 9.996442682605e-01 -3.229796058142e-09 4.692654450772e-05 6.855951182461e-11 6.959367270170e-08 4.410214322020e-09 -6.380301735931e-03 1.425891464806e+06 2.979617545026e-01 -1.333210870057e+06 3.707223789974e+04 6.481156392229e-02 2.780976375357e-08 -6.394654503797e-02 0.000000000000e+00 -4.325094421636e+04 2.389470687749e+06  1.115086320950e-01
1.800000000000e+01 4.608599708840e+03 1.472355696966e+06 1.467747097258e+06 9.995988423924e-01 -3.463221673517e-09 4.967069677999e-05 9.013489100097e-11 8.343964459836e-08 6.447803946132e-09 -6.755606464964e-03 1.509755922452e+06 4.495068975278e-01 -1.411649056909e+06 3.924274621718e+04 6.862394822429e-02 4.195397710259e-08 -6.770828414589e-02 0.000000000000e+00 -4.578320392004e+04 2.530029948370e+06  1.180680642573e-01
1.900000000000e+01 5.159807132844e+03 1.554435260048e+06 1.549275452915e+06 9.995508622975e-01 -5.084264317959e-09 5.240809205091e-05 1.171709394862e-10 9.919290089639e-08 8.189464602230e-09 -7.130908063743e-03 1.593620686618e+06 1.406306280873e-01 -1.490087703940e+06 4.141319307116e+04 7.243634969885e-02 1.312552528816e-08 -7.147004186052e-02 0.000000000000e+00 -4.831539191636e+04 2.670589872909e+06  1.246275274024e-01
2.000000000000e+01 5.739304520912e+03 1.636543185148e+06 1.630803880627e+06 9.995004196901e-01 -5.427654710909e-09 5.514023708816e-05 1.513679711066e-10 1.170160019954e-07 1.002047461185e-08 -7.506207265362e-03 1.677486986637e+06 2.052511931747e-01 -1.568525153341e+06 4.358473331821e+04 7.624877182152e-02 1.915677802966e-08 -7.523179471076e-02 0.000000000000e+00 -5.084885553792e+04 2.811150091417e+06  1.311870042661e-01
2.100000000000e+01 6.341008126192e+03 1.718673360121e+06 1.712332351994e+06 9.994480441326e-01 -7.289342823239e-09 5.786543419599e-05 1.933609733220e-10 1.370702779630e-07 1.000654368398e-08 -7.881503214619e-03 1.761357935450e+06 2.965988341702e-01 -1.646956790481e+06 4.576045798751e+04 8.006121561492e-02 2.768255785592e-08 -7.899347159521e-02 0.000000000000e+00 -5.338720098542e+04 2.951709306397e+06  1.377464342985e-01
2.200000000000e+01 6.964442853090e+03 1.800824572862e+06 1.793860130009e+06 9.993937769801e-01 -7.343855927092e-09 6.058490864586e-05 2.464525389829e-10 1.595256939194e-07 1.110573671280e-08 -8.256797394070e-03 1.845229301412e+06 2.405198878110e-01 -1.725388113859e+06 4.793647502140e+04 8.387366523156e-02 2.244852286239e-08 -8.275514748106e-02 0.000000000000e+00 -5.592588752497e+04 3.092268611194e+06  1.443058685224e-01
2.300000000000e+01 7.603090683194e+03 1.882991619932e+06 1.875388529249e+06 9.993381855962e-01 -9.091389799128e-09 6.329868834432e-05 3.108797735142e-10 1.845469904706e-07 1.222037281506e-08 -8.632088819333e-03 1.929106391684e+06 2.467415773250e-01 -1.803812553084e+06 5.011753544002e+04 8.768614662473e-02 2.302921388369e-08 -8.651673746446e-02 0.000000000000e+00 -5.847045801335e+04 3.232826916434e+06  1.508652561002e-01
2.400000000000e+01 8.261664814040e+03 1.965181509515e+06 1.956919844701e+06 9.992808597186e-01 -1.089381824954e-08 6.600610250515e-05 3.881665509836e-10 2.123069579342e-07 1.253569036776e-08 -9.007378435546e-03 2.012982811501e+06 1.986348792906e-01 -1.882238050423e+06 5.229790443095e+04 9.149862899658e-02 1.853925540046e-08 -9.027834455986e-02 0.000000000000e+00 -6.101422183611e+04 3.373385556722e+06  1.574246593137e-01
2.500000000000e+01 8.922889477679e+03 2.047373557743e+06 2.038450668265e+06 9.992233031242e-01 -1.244677603399e-08 6.870900473552e-05 4.799997569312e-10 2.429663747133e-07 1.227889692600e-08 -9.382665753260e-03 2.096873286252e+06 4.237594442148e-02 -1.960648973108e+06 5.448972525773e+04 9.531123284641e-02 3.955088145933e-09 -9.403980592373e-02 0.000000000000e+00 -6.357134613402e+04 3.513943758021e+06  1.639840420410e-01
2.600000000000e+01 9.587231786365e+03 2.129572716793e+06 2.119985485007e+06 9.991654751530e-01 -1.410205032355e-08 7.140830539809e-05 5.881241090215e-10 2.766856390852e-07 1.317481924741e-08 -9.757950863108e-03 2.180766643357e+06 -9.281302056854e-02 -2.039055933409e+06 5.668428397946e+04 9.912384343764e-02 -8.662548586464e-09 -9.780121014479e-02 0.000000000000e+00 -6.613166464270e+04 3.654501026651e+06  1.705433812437e-01
2.700000000000e+01 1.025642913481e+04 2.211777525307e+06 2.201521096172e+06 9.991072245727e-01 -1.394025463034e-08 7.410337555437e-05 7.100213903581e-10 3.136254852419e-07 1.426257819874e-08 -1.013323450227e-02 2.264660165430e+06 1.064114377341e-01 -2.117463119460e+06 5.887881838829e+04 1.029364628620e-01 9.931734188489e-09 -1.015626237662e-01 0.000000000000e+00 -6.869195478633e+04 3.795058633629e+06  1.771027362360e-01
2.800000000000e+01 1.092122802579e+04 2.293982458087e+06 2.283061230062e+06 9.990493568581e-01 -1.520067503347e-08 7.679597276764e-05 8.508831249858e-10 3.539373154982e-07 1.477245733112e-08 -1.050851691790e-02 2.348565347253e+06 -1.181768321326e-01 -2.195857927757e+06 6.108296779818e+04 1.067491777079e-01 -1.102983766573e-08 -1.053239084593e-01 0.000000000000e+00 -7.126346243121e+04 3.935615628132e+06  1.836620626462e-01
2.900000000000e+01 1.158105380177e+04 2.376183705666e+06 2.364602651864e+06 9.989919220306e-01 -1.678936184204e-08 7.948479002459e-05 1.011762840837e-09 3.977710686725e-07 1.511758444531e-08 -1.088379822479e-02 2.432471969568e+06 -1.070128941955e-01 -2.274249808337e+06 6.328886449216e+04 1.105618782369e-01 -9.987870124973e-09 -1.090851380654e-01 0.000000000000e+00 -7.383700857419e+04 4.076171336374e+06  1.902213290308e-01
3.000000000000e+01 1.222874938245e+04 2.458376306613e+06 2.446147557231e+06 9.989355430812e-01 -1.660584722169e-08 8.217242519757e-05 1.193156054018e-09 4.452625518637e-07 1.504830405371e-08 -1.125907722153e-02 2.516388435247e+06 -2.287250094391e-01 -2.352633000725e+06 6.550217380895e+04 1.143746922004e-01 -2.134766754766e-08 -1.128463081449e-01 0.000000000000e+00 -7.641920277711e+04 4.216728052221e+06  1.967806424370e-01
