<?xml version="1.0"?>
<!-- Time step: 1 | Time: 8.640000000000e+04 -->
<VTKFile type="UnstructuredGrid" version="0.1" byte_order="LittleEndian">
  <UnstructuredGrid>
    <Piece NumberOfPoints="804" NumberOfCells="200">
      <Points>
        <DataArray type="Float64" NumberOfComponents="3" format="ascii">
          0.000000000000e+00 0.000000000000e+00 0.000000000000e+00
          1.000000000000e+02 0.000000000000e+00 0.000000000000e+00
          1.000000000000e+02 5.000000000000e-01 0.000000000000e+00
          0.000000000000e+00 5.000000000000e-01 0.000000000000e+00
          5.000000000000e+01 0.000000000000e+00 0.000000000000e+00
          5.000000000000e+01 5.000000000000e-01 0.000000000000e+00
          5.000000000000e-01 0.000000000000e+00 0.000000000000e+00
          1.000000000000e+00 0.000000000000e+00 0.000000000000e+00
          1.500000000000e+00 0.000000000000e+00 0.000000000000e+00
          2.000000000000e+00 0.000000000000e+00 0.000000000000e+00
          2.500000000000e+00 0.000000000000e+00 0.000000000000e+00
          3.000000000000e+00 0.000000000000e+00 0.000000000000e+00
          3.500000000000e+00 0.000000000000e+00 0.000000000000e+00
          4.000000000000e+00 0.000000000000e+00 0.000000000000e+00
          4.500000000000e+00 0.000000000000e+00 0.000000000000e+00
          5.000000000000e+00 0.000000000000e+00 0.000000000000e+00
          5.500000000000e+00 0.000000000000e+00 0.000000000000e+00
          6.000000000000e+00 0.000000000000e+00 0.000000000000e+00
          6.500000000000e+00 0.000000000000e+00 0.000000000000e+00
          7.000000000000e+00 0.000000000000e+00 0.000000000000e+00
          7.500000000000e+00 0.000000000000e+00 0.000000000000e+00
          8.000000000000e+00 0.000000000000e+00 0.000000000000e+00
          8.500000000000e+00 0.000000000000e+00 0.000000000000e+00
          9.000000000000e+00 0.000000000000e+00 0.000000000000e+00
          9.500000000000e+00 0.000000000000e+00 0.000000000000e+00
          1.000000000000e+01 0.000000000000e+00 0.000000000000e+00
          1.050000000000e+01 0.000000000000e+00 0.000000000000e+00
          1.100000000000e+01 0.000000000000e+00 0.000000000000e+00
          1.150000000000e+01 0.000000000000e+00 0.000000000000e+00
          1.200000000000e+01 0.000000000000e+00 0.000000000000e+00
          1.250000000000e+01 0.000000000000e+00 0.000000000000e+00
          1.300000000000e+01 0.000000000000e+00 0.000000000000e+00
          1.350000000000e+01 0.000000000000e+00 0.000000000000e+00
          1.400000000000e+01 0.000000000000e+00 0.000000000000e+00
          1.450000000000e+01 0.000000000000e+00 0.000000000000e+00
          1.500000000000e+01 0.000000000000e+00 0.000000000000e+00
          1.550000000000e+01 0.000000000000e+00 0.000000000000e+00
          1.600000000000e+01 0.000000000000e+00 0.000000000000e+00
          1.650000000000e+01 0.000000000000e+00 0.000000000000e+00
          1.700000000000e+01 0.000000000000e+00 0.000000000000e+00
          1.750000000000e+01 0.000000000000e+00 0.000000000000e+00
          1.800000000000e+01 0.000000000000e+00 0.000000000000e+00
          1.850000000000e+01 0.000000000000e+00 0.000000000000e+00
          1.900000000000e+01 0.000000000000e+00 0.000000000000e+00
          1.950000000000e+01 0.000000000000e+00 0.000000000000e+00
          2.000000000000e+01 0.000000000000e+00 0.000000000000e+00
          2.050000000000e+01 0.000000000000e+00 0.000000000000e+00
          2.100000000000e+01 0.000000000000e+00 0.000000000000e+00
          2.150000000000e+01 0.000000000000e+00 0.000000000000e+00
          2.200000000000e+01 0.000000000000e+00 0.000000000000e+00
          2.250000000000e+01 0.000000000000e+00 0.000000000000e+00
          2.300000000000e+01 0.000000000000e+00 0.000000000000e+00
          2.350000000000e+01 0.000000000000e+00 0.000000000000e+00
          2.400000000000e+01 0.000000000000e+00 0.000000000000e+00
          2.450000000000e+01 0.000000000000e+00 0.000000000000e+00
          2.500000000000e+01 0.000000000000e+00 0.000000000000e+00
          2.550000000000e+01 0.000000000000e+00 0.000000000000e+00
          2.600000000000e+01 0.000000000000e+00 0.000000000000e+00
          2.650000000000e+01 0.000000000000e+00 0.000000000000e+00
          2.700000000000e+01 0.000000000000e+00 0.000000000000e+00
          2.750000000000e+01 0.000000000000e+00 0.000000000000e+00
          2.800000000000e+01 0.000000000000e+00 0.000000000000e+00
          2.850000000000e+01 0.000000000000e+00 0.000000000000e+00
          2.900000000000e+01 0.000000000000e+00 0.000000000000e+00
          2.950000000000e+01 0.000000000000e+00 0.000000000000e+00
          3.000000000000e+01 0.000000000000e+00 0.000000000000e+00
          3.050000000000e+01 0.000000000000e+00 0.000000000000e+00
          3.100000000000e+01 0.000000000000e+00 0.000000000000e+00
          3.150000000000e+01 0.000000000000e+00 0.000000000000e+00
          3.200000000000e+01 0.000000000000e+00 0.000000000000e+00
          3.250000000000e+01 0.000000000000e+00 0.000000000000e+00
          3.300000000000e+01 0.000000000000e+00 0.000000000000e+00
          3.350000000000e+01 0.000000000000e+00 0.000000000000e+00
          3.400000000000e+01 0.000000000000e+00 0.000000000000e+00
          3.450000000000e+01 0.000000000000e+00 0.000000000000e+00
          3.500000000000e+01 0.000000000000e+00 0.000000000000e+00
          3.550000000000e+01 0.000000000000e+00 0.000000000000e+00
          3.600000000000e+01 0.000000000000e+00 0.000000000000e+00
          3.650000000000e+01 0.000000000000e+00 0.000000000000e+00
          3.700000000000e+01 0.000000000000e+00 0.000000000000e+00
          3.750000000000e+01 0.000000000000e+00 0.000000000000e+00
          3.800000000000e+01 0.000000000000e+00 0.000000000000e+00
          3.850000000000e+01 0.000000000000e+00 0.000000000000e+00
          3.900000000000e+01 0.000000000000e+00 0.000000000000e+00
          3.950000000000e+01 0.000000000000e+00 0.000000000000e+00
          4.000000000000e+01 0.000000000000e+00 0.000000000000e+00
          4.050000000000e+01 0.000000000000e+00 0.000000000000e+00
          4.100000000000e+01 0.000000000000e+00 0.000000000000e+00
          4.150000000000e+01 0.000000000000e+00 0.000000000000e+00
          4.200000000000e+01 0.000000000000e+00 0.000000000000e+00
          4.250000000000e+01 0.000000000000e+00 0.000000000000e+00
          4.300000000000e+01 0.000000000000e+00 0.000000000000e+00
          4.350000000000e+01 0.000000000000e+00 0.000000000000e+00
          4.400000000000e+01 0.000000000000e+00 0.000000000000e+00
          4.450000000000e+01 0.000000000000e+00 0.000000000000e+00
          4.500000000000e+01 0.000000000000e+00 0.000000000000e+00
          4.550000000000e+01 0.000000000000e+00 0.000000000000e+00
          4.600000000000e+01 0.000000000000e+00 0.000000000000e+00
          4.650000000000e+01 0.000000000000e+00 0.000000000000e+00
          4.700000000000e+01 0.000000000000e+00 0.000000000000e+00
          4.750000000000e+01 0.000000000000e+00 0.000000000000e+00
          4.800000000000e+01 0.000000000000e+00 0.000000000000e+00
          4.850000000000e+01 0.000000000000e+00 0.000000000000e+00
          4.900000000000e+01 0.000000000000e+00 0.000000000000e+00
          4.950000000000e+01 0.000000000000e+00 0.000000000000e+00
          5.000000000000e-01 5.000000000000e-01 0.000000000000e+00
          1.000000000000e+00 5.000000000000e-01 0.000000000000e+00
          1.500000000000e+00 5.000000000000e-01 0.000000000000e+00
          2.000000000000e+00 5.000000000000e-01 0.000000000000e+00
          2.500000000000e+00 5.000000000000e-01 0.000000000000e+00
          3.000000000000e+00 5.000000000000e-01 0.000000000000e+00
          3.500000000000e+00 5.000000000000e-01 0.000000000000e+00
          4.000000000000e+00 5.000000000000e-01 0.000000000000e+00
          4.500000000000e+00 5.000000000000e-01 0.000000000000e+00
          5.000000000000e+00 5.000000000000e-01 0.000000000000e+00
          5.500000000000e+00 5.000000000000e-01 0.000000000000e+00
          6.000000000000e+00 5.000000000000e-01 0.000000000000e+00
          6.500000000000e+00 5.000000000000e-01 0.000000000000e+00
          7.000000000000e+00 5.000000000000e-01 0.000000000000e+00
          7.500000000000e+00 5.000000000000e-01 0.000000000000e+00
          8.000000000000e+00 5.000000000000e-01 0.000000000000e+00
          8.500000000000e+00 5.000000000000e-01 0.000000000000e+00
          9.000000000000e+00 5.000000000000e-01 0.000000000000e+00
          9.500000000000e+00 5.000000000000e-01 0.000000000000e+00
          1.000000000000e+01 5.000000000000e-01 0.000000000000e+00
          1.050000000000e+01 5.000000000000e-01 0.000000000000e+00
          1.100000000000e+01 5.000000000000e-01 0.000000000000e+00
          1.150000000000e+01 5.000000000000e-01 0.000000000000e+00
          1.200000000000e+01 5.000000000000e-01 0.000000000000e+00
          1.250000000000e+01 5.000000000000e-01 0.000000000000e+00
          1.300000000000e+01 5.000000000000e-01 0.000000000000e+00
          1.350000000000e+01 5.000000000000e-01 0.000000000000e+00
          1.400000000000e+01 5.000000000000e-01 0.000000000000e+00
          1.450000000000e+01 5.000000000000e-01 0.000000000000e+00
          1.500000000000e+01 5.000000000000e-01 0.000000000000e+00
          1.550000000000e+01 5.000000000000e-01 0.000000000000e+00
          1.600000000000e+01 5.000000000000e-01 0.000000000000e+00
          1.650000000000e+01 5.000000000000e-01 0.000000000000e+00
          1.700000000000e+01 5.000000000000e-01 0.000000000000e+00
          1.750000000000e+01 5.000000000000e-01 0.000000000000e+00
          1.800000000000e+01 5.000000000000e-01 0.000000000000e+00
          1.850000000000e+01 5.000000000000e-01 0.000000000000e+00
          1.900000000000e+01 5.000000000000e-01 0.000000000000e+00
          1.950000000000e+01 5.000000000000e-01 0.000000000000e+00
[...]
      <PointData Scalars="HEAD">
        <DataArray type="Float64" Name="HEAD" format="ascii">
          1.000000000000e+00 0.000000000000e+00 0.000000000000e+00 1.000000000000e+00 5.000000000001e-01 5.000000000001e-01 9.950000000000e-01 9.900000000000e-01 9.850000000001e-01 9.800000000001e-01 9.750000000001e-01 9.700000000001e-01 9.650000000001e-01 9.600000000001e-01 9.550000000002e-01 9.500000000002e-01 9.450000000002e-01 9.400000000002e-01 9.350000000002e-01 9.300000000002e-01 9.250000000003e-01 9.200000000003e-01 9.150000000003e-01 9.100000000003e-01 9.050000000003e-01 9.000000000003e-01 8.950000000003e-01 8.900000000003e-01 8.850000000004e-01 8.800000000004e-01 8.750000000004e-01 8.700000000004e-01 8.650000000004e-01 8.600000000004e-01 8.550000000004e-01 8.500000000004e-01 8.450000000004e-01 8.400000000004e-01 8.350000000004e-01 8.300000000005e-01 8.250000000005e-01 8.200000000005e-01 8.150000000005e-01 8.100000000005e-01 8.050000000005e-01 8.000000000005e-01 7.950000000005e-01 7.900000000005e-01 7.850000000005e-01 7.800000000005e-01 7.750000000005e-01 7.700000000005e-01 7.650000000005e-01 7.600000000005e-01 7.550000000005e-01 7.500000000005e-01 7.450000000005e-01 7.400000000005e-01 7.350000000005e-01 7.300000000005e-01 7.250000000005e-01 7.200000000005e-01 7.150000000005e-01 7.100000000005e-01 7.050000000005e-01 7.000000000005e-01 6.950000000005e-01 6.900000000004e-01 6.850000000004e-01 6.800000000004e-01 6.750000000004e-01 6.700000000004e-01 6.650000000004e-01 6.600000000004e-01 6.550000000004e-01 6.500000000004e-01 6.450000000004e-01 6.400000000004e-01 6.350000000004e-01 6.300000000004e-01 6.250000000004e-01 6.200000000003e-01 6.150000000003e-01 6.100000000003e-01 6.050000000003e-01 6.000000000003e-01 5.950000000003e-01 5.900000000003e-01 5.850000000003e-01 5.800000000003e-01 5.750000000003e-01 5.700000000003e-01 5.650000000003e-01 5.600000000002e-01 5.550000000002e-01 5.500000000002e-01 5.450000000002e-01 5.400000000002e-01 5.350000000002e-01 5.300000000002e-01 5.250000000002e-01 5.200000000002e-01 5.150000000002e-01 5.100000000002e-01 5.050000000002e-01 9.950000000000e-01 9.900000000000e-01 9.850000000001e-01 9.800000000001e-01 9.750000000001e-01 9.700000000001e-01 9.650000000001e-01 9.600000000001e-01 9.550000000002e-01 9.500000000002e-01 9.450000000002e-01 9.400000000002e-01 9.350000000002e-01 9.300000000002e-01 9.250000000003e-01 9.200000000003e-01 9.150000000003e-01 9.100000000003e-01 9.050000000003e-01 9.000000000003e-01 8.950000000003e-01 8.900000000003e-01 8.850000000003e-01 8.800000000004e-01 8.750000000004e-01 8.700000000004e-01 8.650000000004e-01 8.600000000004e-01 8.550000000004e-01 8.500000000004e-01 8.450000000004e-01 8.400000000004e-01 8.350000000004e-01 8.300000000005e-01 8.250000000005e-01 8.200000000005e-01 8.150000000005e-01 8.100000000005e-01 8.050000000005e-01 8.000000000005e-01 7.950000000005e-01 7.900000000005e-01 7.850000000005e-01 7.800000000005e-01 7.750000000005e-01 7.700000000005e-01 7.650000000005e-01 7.600000000005e-01 7.550000000005e-01 7.500000000005e-01 7.450000000005e-01 7.400000000005e-01 7.350000000005e-01 7.300000000005e-01 7.250000000005e-01 7.200000000005e-01 7.150000000005e-01 7.100000000005e-01 7.050000000005e-01 7.000000000005e-01 6.950000000005e-01 6.900000000004e-01 6.850000000004e-01 6.800000000004e-01 6.750000000004e-01 6.700000000004e-01 6.650000000004e-01 6.600000000004e-01 6.550000000004e-01 6.500000000004e-01 6.450000000004e-01 6.400000000004e-01 6.350000000004e-01 6.300000000004e-01 6.250000000004e-01 6.200000000003e-01 6.150000000003e-01 6.100000000003e-01 6.050000000003e-01 6.000000000003e-01 5.950000000003e-01 5.900000000003e-01 5.850000000003e-01 5.800000000003e-01 5.750000000003e-01 5.700000000003e-01 5.650000000003e-01 5.600000000002e-01 5.550000000002e-01 5.500000000002e-01 5.450000000002e-01 5.400000000002e-01 5.350000000002e-01 5.300000000002e-01 5.250000000002e-01 5.200000000002e-01 5.150000000002e-01 5.100000000002e-01 5.050000000002e-01 4.950000000001e-01 4.900000000001e-01 4.850000000001e-01 4.800000000001e-01 4.750000000001e-01 4.700000000001e-01 4.650000000001e-01 4.600000000001e-01 4.550000000001e-01 4.500000000001e-01 4.450000000001e-01 4.400000000001e-01 4.350000000000e-01 4.300000000000e-01 4.250000000000e-01 4.200000000000e-01 4.150000000000e-01 4.100000000000e-01 4.050000000000e-01 4.000000000000e-01 3.950000000000e-01 3.900000000000e-01 3.850000000000e-01 3.800000000000e-01 3.750000000000e-01 3.700000000000e-01 3.650000000000e-01 3.600000000000e-01 3.550000000000e-01 3.499999999999e-01 3.449999999999e-01 3.399999999999e-01 3.349999999999e-01 3.299999999999e-01 3.249999999999e-01 3.199999999999e-01 3.149999999999e-01 3.099999999999e-01 3.049999999999e-01 2.999999999999e-01 2.949999999999e-01 2.899999999999e-01 2.849999999999e-01 2.799999999999e-01 2.749999999999e-01 2.699999999999e-01 2.649999999999e-01 2.599999999999e-01 2.549999999999e-01 2.499999999999e-01 2.449999999999e-01 2.399999999999e-01 2.349999999999e-01 2.299999999999e-01 2.249999999999e-01 2.199999999999e-01 2.149999999999e-01 2.099999999999e-01 2.049999999999e-01 1.999999999999e-01 1.949999999999e-01 1.899999999999e-01 1.849999999999e-01 1.799999999999e-01 1.749999999999e-01 1.699999999999e-01 1.649999999999e-01 1.599999999999e-01 1.549999999999e-01 1.499999999999e-01 1.449999999999e-01 1.399999999999e-01 1.349999999999e-01 1.299999999999e-01 1.249999999999e-01 1.199999999999e-01 1.149999999999e-01 1.099999999999e-01 1.049999999999e-01 9.999999999994e-02 9.499999999994e-02 8.999999999994e-02 8.499999999995e-02 7.999999999995e-02 7.499999999995e-02 6.999999999995e-02 6.499999999996e-02 5.999999999996e-02 5.499999999996e-02 4.999999999997e-02 4.499999999997e-02 3.999999999997e-02 3.499999999998e-02 2.999999999998e-02 2.499999999998e-02 1.999999999999e-02 1.499999999999e-02 9.999999999993e-03 4.999999999997e-03 4.950000000001e-01 4.900000000001e-01 4.850000000001e-01 4.800000000001e-01 4.750000000001e-01 4.700000000001e-01 4.650000000001e-01 4.600000000001e-01 4.550000000001e-01 4.500000000001e-01 4.450000000001e-01 4.400000000001e-01 4.350000000000e-01 4.300000000000e-01 4.250000000000e-01 4.200000000000e-01 4.150000000000e-01 4.100000000000e-01 4.050000000000e-01 4.000000000000e-01 3.950000000000e-01 3.900000000000e-01 3.850000000000e-01 3.800000000000e-01 3.750000000000e-01 3.700000000000e-01 3.650000000000e-01 3.600000000000e-01 3.550000000000e-01 3.499999999999e-01 3.449999999999e-01 3.399999999999e-01 3.349999999999e-01 3.299999999999e-01 3.249999999999e-01 3.199999999999e-01 3.149999999999e-01 3.099999999999e-01 3.049999999999e-01 2.999999999999e-01 2.949999999999e-01 2.899999999999e-01 2.849999999999e-01 2.799999999999e-01 2.749999999999e-01 2.699999999999e-01 2.649999999999e-01 2.599999999999e-01 2.549999999999e-01 2.499999999999e-01 2.449999999999e-01 2.399999999999e-01 2.349999999999e-01 2.299999999999e-01 2.249999999999e-01 2.199999999999e-01 2.149999999999e-01 2.099999999999e-01 2.049999999999e-01 1.999999999999e-01 1.949999999999e-01 1.899999999999e-01 1.849999999999e-01 1.799999999999e-01 1.749999999999e-01 1.699999999999e-01 1.649999999999e-01 1.599999999999e-01 1.549999999999e-01 1.499999999999e-01 1.449999999999e-01 1.399999999999e-01 1.349999999999e-01 1.299999999999e-01 1.249999999999e-01 1.199999999999e-01 1.149999999999e-01 1.099999999999e-01 1.049999999999e-01 9.999999999994e-02 9.499999999994e-02 8.999999999994e-02 8.499999999994e-02 7.999999999995e-02 7.499999999995e-02 6.999999999995e-02 6.499999999996e-02 5.999999999996e-02 5.499999999996e-02 4.999999999997e-02 4.499999999997e-02 3.999999999997e-02 3.499999999998e-02 2.999999999998e-02 2.499999999998e-02 1.999999999999e-02 1.499999999999e-02 9.999999999993e-03 4.999999999997e-03 1.000000000000e+00 0.000000000000e+00 0.000000000000e+00 1.000000000000e+00 5.000000000001e-01 5.000000000001e-01 9.950000000000e-01 9.900000000000e-01 9.850000000001e-01 9.800000000001e-01 9.750000000001e-01 9.700000000001e-01 9.650000000001e-01 9.600000000001e-01 9.550000000002e-01 9.500000000002e-01 9.450000000002e-01 9.400000000002e-01 9.350000000002e-01 9.300000000002e-01 9.250000000003e-01 9.200000000003e-01 9.150000000003e-01 9.100000000003e-01 9.050000000003e-01 9.000000000003e-01 8.950000000003e-01 8.900000000003e-01 8.850000000004e-01 8.800000000004e-01 8.750000000004e-01 8.700000000004e-01 8.650000000004e-01 8.600000000004e-01 8.550000000004e-01 8.500000000004e-01 8.450000000004e-01 8.400000000004e-01 8.350000000004e-01 8.300000000005e-01 8.250000000005e-01 8.200000000005e-01 8.150000000005e-01 8.100000000005e-01 8.050000000005e-01 8.000000000005e-01 7.950000000005e-01 7.900000000005e-01 7.850000000005e-01 7.800000000005e-01 7.750000000005e-01 7.700000000005e-01 7.650000000005e-01 7.600000000005e-01 7.550000000005e-01 7.500000000005e-01 7.450000000005e-01 7.400000000005e-01 7.350000000005e-01 7.300000000005e-01 7.250000000005e-01 7.200000000005e-01 7.150000000005e-01 7.100000000005e-01 7.050000000005e-01 7.000000000005e-01 6.950000000005e-01 6.900000000004e-01 6.850000000004e-01 6.800000000004e-01 6.750000000004e-01 6.700000000004e-01 6.650000000004e-01 6.600000000004e-01 6.550000000004e-01 6.500000000004e-01 6.450000000004e-01 6.400000000004e-01 6.350000000004e-01 6.300000000004e-01 6.250000000004e-01 6.200000000003e-01 6.150000000003e-01 6.100000000003e-01 6.050000000003e-01 6.000000000003e-01 5.950000000003e-01 5.900000000003e-01 5.850000000003e-01 5.800000000003e-01 5.750000000003e-01 5.700000000003e-01 5.650000000003e-01 5.600000000002e-01 5.550000000002e-01 5.500000000002e-01 5.450000000002e-01 5.400000000002e-01 5.350000000002e-01 5.300000000002e-01 5.250000000002e-01 5.200000000002e-01 5.150000000002e-01 5.100000000002e-01 5.050000000002e-01 9.950000000000e-01 9.900000000000e-01 9.850000000001e-01 9.800000000001e-01 9.750000000001e-01 9.700000000001e-01 9.650000000001e-01 9.600000000001e-01 9.550000000002e-01 9.500000000002e-01 9.450000000002e-01 9.400000000002e-01 9.350000000002e-01 9.300000000002e-01 9.250000000003e-01 9.200000000003e-01 9.150000000003e-01 9.100000000003e-01 9.050000000003e-01 9.000000000003e-01 8.950000000003e-01 8.900000000003e-01 8.850000000004e-01 8.800000000004e-01 8.750000000004e-01 8.700000000004e-01 8.650000000004e-01 8.600000000004e-01 8.550000000004e-01 8.500000000004e-01 8.450000000004e-01 8.400000000004e-01 8.350000000004e-01 8.300000000005e-01 8.250000000005e-01 8.200000000005e-01 8.150000000005e-01 8.100000000005e-01 8.050000000005e-01 8.000000000005e-01 7.950000000005e-01 7.900000000005e-01 7.850000000005e-01 7.800000000005e-01 7.750000000005e-01 7.700000000005e-01 7.650000000005e-01 7.600000000005e-01 7.550000000005e-01 7.500000000005e-01 7.450000000005e-01 7.400000000005e-01 7.350000000005e-01 7.300000000005e-01 7.250000000005e-01 7.200000000005e-01 7.150000000005e-01 7.100000000005e-01 7.050000000005e-01 7.000000000005e-01 6.950000000005e-01 6.900000000004e-01 6.850000000004e-01 6.800000000004e-01 6.750000000004e-01 6.700000000004e-01 6.650000000004e-01 6.600000000004e-01 6.550000000004e-01 6.500000000004e-01 6.450000000004e-01 6.400000000004e-01 6.350000000004e-01 6.300000000004e-01 6.250000000004e-01 6.200000000003e-01 6.150000000003e-01 6.100000000003e-01 6.050000000003e-01 6.000000000003e-01 5.950000000003e-01 5.900000000003e-01 5.850000000003e-01 5.800000000003e-01 5.750000000003e-01 5.700000000003e-01 5.650000000003e-01 5.600000000002e-01 5.550000000002e-01 5.500000000002e-01 5.450000000002e-01 5.400000000002e-01 5.350000000002e-01 5.300000000002e-01 5.250000000002e-01 5.200000000002e-01 5.150000000002e-01 5.100000000002e-01 5.050000000002e-01 4.950000000001e-01 4.900000000001e-01 4.850000000001e-01 4.800000000001e-01 4.750000000001e-01 4.700000000001e-01 4.650000000001e-01 4.600000000001e-01 4.550000000001e-01 4.500000000001e-01 4.450000000001e-01 4.400000000001e-01 4.350000000000e-01 4.300000000000e-01 4.250000000000e-01 4.200000000000e-01 4.150000000000e-01 4.100000000000e-01 4.050000000000e-01 4.000000000000e-01 3.950000000000e-01 3.900000000000e-01 3.850000000000e-01 3.800000000000e-01 3.750000000000e-01 3.700000000000e-01 3.650000000000e-01 3.600000000000e-01 3.550000000000e-01 3.499999999999e-01 3.449999999999e-01 3.399999999999e-01 3.349999999999e-01 3.299999999999e-01 3.249999999999e-01 3.199999999999e-01 3.149999999999e-01 3.099999999999e-01 3.049999999999e-01 2.999999999999e-01 2.949999999999e-01 2.899999999999e-01 2.849999999999e-01 2.799999999999e-01 2.749999999999e-01 2.699999999999e-01 2.649999999999e-01 2.599999999999e-01 2.549999999999e-01 2.499999999999e-01 2.449999999999e-01 2.399999999999e-01 2.349999999999e-01 2.299999999999e-01 2.249999999999e-01 2.199999999999e-01 2.149999999999e-01 2.099999999999e-01 2.049999999999e-01 1.999999999999e-01 1.949999999999e-01 1.899999999999e-01 1.849999999999e-01 1.799999999999e-01 1.749999999999e-01 1.699999999999e-01 1.649999999999e-01 1.599999999999e-01 1.549999999999e-01 1.499999999999e-01 1.449999999999e-01 1.399999999999e-01 1.349999999999e-01 1.299999999999e-01 1.249999999999e-01 1.199999999999e-01 1.149999999999e-01 1.099999999999e-01 1.049999999999e-01 9.999999999994e-02 9.499999999994e-02 8.999999999994e-02 8.499999999994e-02 7.999999999995e-02 7.499999999995e-02 6.999999999995e-02 6.499999999996e-02 5.999999999996e-02 5.499999999996e-02 4.999999999997e-02 4.499999999997e-02 3.999999999997e-02 3.499999999998e-02 2.999999999998e-02 2.499999999998e-02 1.999999999999e-02 1.499999999999e-02 9.999999999993e-03 4.999999999997e-03 4.950000000001e-01 4.900000000001e-01 4.850000000001e-01 4.800000000001e-01 4.750000000001e-01 4.700000000001e-01 4.650000000001e-01 4.600000000001e-01 4.550000000001e-01 4.500000000001e-01 4.450000000001e-01 4.400000000001e-01 4.350000000000e-01 4.300000000000e-01 4.250000000000e-01 4.200000000000e-01 4.150000000000e-01 4.100000000000e-01 4.050000000000e-01 4.000000000000e-01 3.950000000000e-01 3.900000000000e-01 3.850000000000e-01 3.800000000000e-01 3.750000000000e-01 3.700000000000e-01 3.650000000000e-01 3.600000000000e-01 3.550000000000e-01 3.499999999999e-01 3.449999999999e-01 3.399999999999e-01 3.349999999999e-01 3.299999999999e-01 3.249999999999e-01 3.199999999999e-01 3.149999999999e-01 3.099999999999e-01 3.049999999999e-01 2.999999999999e-01 2.949999999999e-01 2.899999999999e-01 2.849999999999e-01 2.799999999999e-01 2.749999999999e-01 2.699999999999e-01 2.649999999999e-01 2.599999999999e-01 2.549999999999e-01 2.499999999999e-01 2.449999999999e-01 2.399999999999e-01 2.349999999999e-01 2.299999999999e-01 2.249999999999e-01 2.199999999999e-01 2.149999999999e-01 2.099999999999e-01 2.049999999999e-01 1.999999999999e-01 1.949999999999e-01 1.899999999999e-01 1.849999999999e-01 1.799999999999e-01 1.749999999999e-01 1.699999999999e-01 1.649999999999e-01 1.599999999999e-01 1.549999999999e-01 1.499999999999e-01 1.449999999999e-01 1.399999999999e-01 1.349999999999e-01 1.299999999999e-01 1.249999999999e-01 1.199999999999e-01 1.149999999999e-01 1.099999999999e-01 1.049999999999e-01 9.999999999994e-02 9.499999999994e-02 8.999999999994e-02 8.499999999995e-02 7.999999999995e-02 7.499999999995e-02 6.999999999995e-02 6.499999999996e-02 5.999999999996e-02 5.499999999996e-02 4.999999999997e-02 4.499999999997e-02 3.999999999997e-02 3.499999999998e-02 2.999999999998e-02 2.499999999998e-02 1.999999999999e-02 1.499999999999e-02 9.999999999993e-03 4.999999999997e-03 
        </DataArray>
        <DataArray type="Float64" Name="GL_NODAL_VELOCITY1" NumberOfComponents="3" format="ascii">