# vtk DataFile Version 3.6.2
Particle file: OpenGeoSys->Paraview. Current time (s) = 2.000000000000e+06
ASCII

DATASET POLYDATA
POINTS 500 double
1.000000000000e+00 5.228898046104e-01 8.825656186884e-01
1.000000000000e+00 9.022106732909e-02 7.454776148041e-01
1.000000000000e+00 7.030416508375e-01 9.531685396999e-01
1.000000000000e+00 2.353836280176e-01 4.625190153956e-01
1.000000000000e+00 7.901076051899e-01 6.268270711682e-01
1.000000000000e+00 4.529715727952e-01 9.207609427971e-01
1.000000000000e+00 7.225732691724e-01 9.671509539187e-01
1.000000000000e+00 8.967949568811e-02 7.597401655968e-01
2.839624331443e-01 8.803552675952e-01 1.000000000000e+00
1.000000000000e+00 2.470797145318e-01 6.154780180576e-01
1.000000000000e+00 7.491761651251e-01 3.892061837186e-01
2.300943136322e-01 4.056711871059e-01 7.784253270386e-01
1.000000000000e+00 6.213228474741e-02 9.026489345724e-01
1.814172688417e-01 6.467701770285e-01 3.108920343113e-01
1.000000000000e+00 1.049155436782e-01 3.463443693385e-01
1.000000000000e+00 2.186493608385e-01 3.840924912260e-01
3.272786225737e-01 1.472814365240e-01 5.709818274333e-01
1.000000000000e+00 8.121010623427e-01 5.112595756480e-01
1.590881389916e-01 4.378494570316e-01 3.027899337927e-01
3.788369999306e-01 4.516546900566e-01 1.000000000000e+00
1.000000000000e+00 9.153350486606e-02 4.389084729820e-01
3.772498721987e-01 4.030414955838e-01 8.670259903309e-01
1.698635634544e-01 2.876733206014e-01 4.307332910394e-01
2.014502089684e-01 6.870798043266e-01 6.872354436650e-01
1.000000000000e+00 8.517013396694e-01 7.049287383112e-01
1.000000000000e+00 4.192124313779e-01 7.269978184804e-01
1.000000000000e+00 8.980810832999e-01 5.092983773739e-01
1.000000000000e+00 8.580308520384e-01 5.632495668811e-01
1.000000000000e+00 2.095429970531e-01 9.265151789896e-01
1.000000000000e+00 6.308638473797e-01 2.780585367792e-01
3.464116346113e-01 1.319982907045e-01 4.873808771837e-01
1.000000000000e+00 7.486748564966e-01 4.063560413518e-02
1.000000000000e+00 2.739472271426e-01 2.147674426114e-01
1.000000000000e+00 7.922523374591e-01 2.143968595951e-01
2.423957589577e-01 8.113806632658e-01 1.000000000000e+00
1.000000000000e+00 4.890694749619e-01 7.533523057068e-01
1.000000000000e+00 5.536963304723e-01 2.393169604363e-01
1.000000000000e+00 6.892144991644e-01 6.770748616512e-02
1.000000000000e+00 4.434848841426e-01 8.815306242440e-01
1.000000000000e+00 1.310542966429e-01 6.347876701885e-01
1.000000000000e+00 7.931205168859e-01 1.017424683222e-01
1.000000000000e+00 8.186033412405e-01 1.702075859104e-01
1.000000000000e+00 8.229449438731e-02 5.073898317339e-01
1.000000000000e+00 8.459689299913e-01 2.254986021094e-01
1.000000000000e+00 9.478255405204e-01 8.323906332303e-01
1.000000000000e+00 6.450708198637e-02 4.689626069352e-01
1.000000000000e+00 9.507127260923e-01 6.674528208356e-01
1.000000000000e+00 9.182607825540e-01 4.940474341018e-01
1.000000000000e+00 2.693849505847e-01 2.276718393096e-01
1.000000000000e+00 5.356676343769e-01 7.621262956236e-01
1.000000000000e+00 3.868373389559e-01 1.699510757585e-01
5.926974488468e-02 4.953123188375e-01 1.000000000000e+00
1.000000000000e+00 8.826181234767e-01 6.864112200242e-01
2.341445780910e-01 3.517738777621e-01 2.421081034754e-01
1.000000000000e+00 6.955376709265e-01 1.201295635550e-01
3.197885458375e-01 5.684994369207e-01 1.512790025330e-01
1.000000000000e+00 8.842542500456e-01 3.522051398561e-01
1.000000000000e+00 6.030342863958e-02 8.244027333386e-01
1.000000000000e+00 3.225024961077e-01 1.732168265947e-01
1.000000000000e+00 5.245609936540e-01 8.706126662648e-01
1.266923880820e-01 5.433752925508e-01 6.348369864061e-01
1.000000000000e+00 2.017404390520e-01 6.378661780494e-01
1.000000000000e+00 3.946377423552e-02 6.470197053054e-02
3.182243790425e-01 9.758969732020e-01 0.000000000000e+00
1.000000000000e+00 2.113473887428e-01 3.061235333053e-01
1.000000000000e+00 7.807408956886e-01 7.501899719254e-01
1.431743269367e-01 4.143167017841e-01 6.561028688250e-01
1.000000000000e+00 5.136902578388e-02 6.043265502647e-01
1.000000000000e+00 2.182282015133e-01 2.219860425138e-01
1.000000000000e+00 5.281371852051e-01 2.302974129084e-01
1.000000000000e+00 1.409700088332e-01 4.989063816568e-01
1.000000000000e+00 5.566117411611e-02 1.475884453873e-01
1.000000000000e+00 2.186275157360e-02 7.092794626633e-01
1.000000000000e+00 2.574034951768e-01 7.496394683526e-01
1.000000000000e+00 2.706251866576e-01 4.133199380014e-01
1.000000000000e+00 8.826461511645e-01 3.207972655527e-01
1.408748037287e-01 6.428673283677e-01 4.023731029096e-01
1.000000000000e+00 7.279002901985e-01 9.036440804376e-01
1.000000000000e+00 5.778162427112e-01 8.752056034074e-01
2.757020891269e-01 6.330655100442e-01 1.978440275185e-01
1.000000000000e+00 6.246468208709e-01 8.568283683337e-01
2.508977704056e-01 6.407509406588e-01 1.084202172486e-19
1.768974971791e-01 6.644837918714e-01 6.665877085777e-01
1.000000000000e+00 1.544612150144e-01 6.272504796811e-01
1.000000000000e+00 3.923328594540e-02 7.962989422078e-02
1.000000000000e+00 8.237070880799e-01 8.659496391302e-01
2.226058514036e-01 2.127428396657e-01 4.918464788433e-01
1.470061376475e-01 5.407699054108e-01 2.710505431214e-20
1.000000000000e+00 7.218968569655e-01 9.468995293249e-01
1.000000000000e+00 9.212112085688e-01 2.865659220602e-01
1.000000000000e+00 7.466055745405e-01 1.267299938999e-01
2.667693143074e-01 2.563443001705e-01 0.000000000000e+00
1.000000000000e+00 8.281028061514e-01 3.131521236371e-01
1.000000000000e+00 1.454170279403e-01 6.896102605788e-01
1.000000000000e+00 1.000279565712e-01 8.423125151993e-01
1.000000000000e+00 4.986698638855e-01 2.557630442596e-01
4.447120885111e-01 5.193891226426e-01 8.947128868250e-01
1.000000000000e+00 2.214860790834e-01 5.454241053312e-01
1.000000000000e+00 1.714272325067e-01 2.844861424242e-01
1.000000000000e+00 4.512309494695e-01 1.340127314930e-01
4.740926037798e-01 6.633358018859e-01 1.000000000000e+00
1.000000000000e+00 9.396160401392e-01 5.146229013889e-01
2.793818968256e-01 8.085717875062e-01 3.776396839961e-01
3.258503277482e-01 1.717081730556e-01 6.455462886050e-01
1.000000000000e+00 8.341372442042e-01 4.001243442591e-01
1.523463309461e-01 6.812768585563e-01 4.237137615387e-01
1.000000000000e+00 5.777904591297e-01 6.174431310253e-02
1.000000000000e+00 6.419662956620e-02 2.644283432965e-01
1.000000000000e+00 9.281791781835e-01 6.097343522924e-01
1.000000000000e+00 2.338080585977e-01 5.779639959660e-01
3.070964211821e-01 3.214341982468e-01 1.999303952905e-01
1.000000000000e+00 1.110165161245e-01 1.458735192276e-01
1.410191010286e-01 5.320258274265e-01 3.283136946292e-01
2.783678516696e-01 0.000000000000e+00 4.604103046725e-01
1.000000000000e+00 9.416219237806e-01 4.466434792358e-01
2.023023415624e-01 0.000000000000e+00 6.444776273907e-01
1.000000000000e+00 8.241131929980e-01 3.154970733837e-01
1.000000000000e+00 3.721212985495e-01 2.247995132544e-01
1.000000000000e+00 3.374943835446e-02 9.829459353945e-01
1.000000000000e+00 8.039141244680e-01 8.879614971051e-01
1.000000000000e+00 3.190405487601e-01 1.434906958748e-01
1.000000000000e+00 3.736822756546e-01 1.724545762638e-01
1.000000000000e+00 9.609848763537e-01 4.524246144084e-01
1.000000000000e+00 9.094475324995e-02 6.815602996724e-01
1.000000000000e+00 7.898077785887e-01 2.657786841737e-01
1.000000000000e+00 2.333744298219e-02 5.969960922085e-02
1.000000000000e+00 2.284207865921e-01 8.774508068939e-01
2.588877780577e-01 5.983456632646e-01 1.972197285131e-01
1.000000000000e+00 2.314491923800e-01 6.149523888662e-01
1.349848909408e-01 3.793031559655e-01 3.939622152189e-01
1.000000000000e+00 3.793369741341e-01 6.824480630694e-01
1.000000000000e+00 1.343404643732e-01 2.667613622168e-01
1.063332808413e-01 5.539061786165e-01 4.631594802769e-01
1.000000000000e+00 4.957258495188e-01 1.789042761093e-01
1.000000000000e+00 5.933048814049e-01 1.063010973338e-01
1.000000000000e+00 7.924905979555e-01 4.853317933224e-01
1.000000000000e+00 4.215694064381e-01 9.257832333906e-01
1.000000000000e+00 7.372949804120e-01 8.212049250716e-01
3.582737635960e-01 7.679321857488e-01 7.597210721777e-01
1.000000000000e+00 1.421727654590e-01 8.055098898884e-01
1.559984182590e-01 4.730944561128e-01 2.987428339594e-01
1.000000000000e+00 4.990747134945e-01 8.881898187017e-01
1.000000000000e+00 7.173979749897e-01 7.855055528642e-01
1.000000000000e+00 3.072534655812e-01 7.368443447555e-02
1.000000000000e+00 8.336545899296e-01 6.120311818638e-01
2.314602458335e-01 3.353877643694e-01 5.421010862428e-20
1.000000000000e+00 1.208130375277e-01 9.576291113867e-01
1.000000000000e+00 6.881150753717e-01 8.271126770165e-01
1.098041512816e-01 0.000000000000e+00 3.729475363965e-02
1.000000000000e+00 7.480341524140e-01 6.820220396972e-02
1.000000000000e+00 7.151955902516e-01 8.189588995272e-01
1.990127369666e-01 4.886090630209e-01 2.384797403733e-01
1.000000000000e+00 5.181475758109e-01 7.803394345556e-01
1.000000000000e+00 2.041124435746e-01 5.538008470025e-01
1.758037449520e-01 2.754487168254e-01 5.593553046879e-01
1.084448958127e-01 4.301968268958e-01 5.339978006318e-01
1.186088481109e-01 4.226561088201e-01 4.135632309339e-01
1.383048801605e-01 3.424189131971e-01 4.387671190297e-01
1.000000000000e+00 9.172899858051e-01 5.353934617630e-01
1.000000000000e+00 8.305581087679e-01 4.556025213829e-01
1.000000000000e+00 3.917735798182e-01 8.957278598769e-01
1.000000000000e+00 2.670309714452e-01 8.466991914770e-01
1.000000000000e+00 1.551080330574e-02 1.581681804400e-01
1.000000000000e+00 1.911005960662e-01 6.846593977653e-01
2.869238658538e-01 6.702525769441e-01 2.088074317266e-01
1.000000000000e+00 6.092686178086e-01 1.271996868938e-01
3.409931552411e-01 1.485987287691e-01 6.030276672914e-01
1.000000000000e+00 7.371584593756e-01 8.969186125166e-01
4.032513691336e-01 8.710810096014e-01 3.905174067228e-01
1.000000000000e+00 2.726560513127e-01 3.268575327966e-01
1.552986404385e-01 3.262619019614e-01 4.002127880353e-01
1.000000000000e+00 6.758852907123e-01 1.618815443953e-01
[...]
POINT_DATA 500
SCALARS identity float 1
LOOKUP_TABLE default
0
0
0
0
0
0
0
0
0
0
0
0
0
0
0
0
0
0
0
0
0
0
0
0
0
0
0
0
0
0
0
0
0
0
0
0
0
0
0
0
0
0
0
0
0
0
0
0
0
0
0
0
0
0
0
0
0
0
0
0
0
0
0
0
0
0
0
0
0
0
0
0
0
0
0
0
0
0
0
0
0
0
0
0
0
0
0
0
0
0
0
0
0
0
0
0
0
0
0
0
0
0
0
0
0
0
0
0
0
0
0
0
0
0
0
0
0
0
0
0
0
0
0
0
0
0
0
0
0
0
0
0
0
0
0
0
0
0
0
0
0
0
0
0
0
0
0
0
0
0
0
0
0
0
0
0
0
0
0
0
0
0
0
0
0
0
0
0
0
0
0
0
0
0
0
0
0
0
0
0
0
0
0
0
0
0
0
0
0
0
0
0
0
0
0
0
0
0
0
0
0
0
0
0
0
0
0
0
0
0
0
0
0
0
0
0
0
0
0
0
0
0
0
0
0
0
0
0
0
0
0
0
0
0
0
0
0
0
0
0
0
0
0
0
0
0
0
0
0
0
0
0
0
0
0
0
0
0
0
0
0
0
0
0
0
0
0
0
0
0
0
0
0
0
0
0
0
0
0
0
0
0
0
0
0
0
0
0
0
0
0
0
0
0
0
0
0
0
0
0
0
0
0
0
0
0
0
0
0
0
0
0
0
0
0
0
0
0
0
0
0
0
0
0
0
0
0
0
0
0
0
0
0
0
0
0
0
0
0
0
0
0
0
0
0
0
0
0
0
0
0
0
0
0
0
0
0
0
0
0
0
0
0
0
0
0
0
0
0
0
0
0
0
0
0
0
0
0
0
0
0
0
0
0
0
0
0
0
0
0
0
0
0
0
0
0
0
0
0
0
0
0
0
0
0
0
0
0
0
0
0
0
0
0
0
0
0
0
0
0
0
0
0
0
0
0
0
0
0
0
0
0
0
0
0
0
0
0
0
0
0
0
0
0
0
0
0
0
0
0
0
0
0
0
0
0
0
0
0
0
0
0
0
0
0
0
0
0
0
0
0
0
0
0
0
0
0
0
0
0
0
0
0
0
0
0
0
0
0
0
0
0
0
0
0
0
0
0
0
0

SCALARS on_boundary float 1
LOOKUP_TABLE default
1
1
1
1
1
1
1
1
1
1
1
1
1
1
1
1
1
1
1
1
1
1
1
1
1
1
1
1
1
1
1
1
1
1
1
1
1
1
1
1
1
1
1
1
1
1
1
1
1
1
1
1
1
1
1
1
1
1
1
1
1
1
1
1
1
1
1
1
1
1
1
1
1
1
1
1
1
1
1
1
1
1
1
1
1
1
1
1
1
1
1
1
1
1
1
1
1
1
1
1
1
1
1
1
1
1
1
1
1
1
1
1
1
1
1
1
1
1
1
1
1
1
1
1
1
1
1
1
1
1
1
1
1
1
1
1
1
1
1
1
1
1
1
1
1
1
1
1
1
1
1
1
1
1
1
1
1
1
1
1
1
1
1
1
1
1
1
1
1
1
1
1
1
1
1
1
1
1
1
1
1
1
1
1
1
1
1
1
1
1
1
1
1
1
1
1
1
1
1
1
1
1
1
1
1
1
1
1
1
1
1
1
1
1
1
1
1
1
1
1
1
1
1
1
1
1
1
1
1
1
1
1
1
1
1
1
1
1
1
1
1
1
1
1
1
1
1
1
1
1
1
1
1
1
1
1
1
1
1
1
1
1
1
1
1
1
1
1
1
1
1
1
1
1
1
1
1
1
1
1
1
1
1
1
1
1
1
1
1
1
1
1
1
1
1
1
1
1
1
1
1
1
1
1
1
1
1
1
1
1
1
1
1
1
1
1
1
1
1
1
1
1
1
1
1
1
1
1
1
1
1
1
1
1
1
1
1
1
1
1
1
1
1
1
1
1
1
1
1
1
1
1
1
1
1
1
1
1
1
1
1
1
1
1
1
1
1
1
1
1
1
1
1
1
1
1
1
1
1
1
1
1
1
1
1
1
1
1
1
1
1
1
1
1
1
1
1
1
1
1
1
1
1
1
1
1
1
1
1
1
1
1
1
1
1
1
1
1
1
1
1
1
1
1
1
1
1
1
1
1
1
1
1
1
1
1
1
1
1
1
1
1
1
1
1
1
1
1
1
1
1
1
1
1
1
1
1
1
1
1
1
1
1
1
1
1
1
1
1
1
1
1
1
1
1
1
1
1
1
1
1
1
1
1
1
1
1
1
1
1
1
1
1
1
1
1
1
1
1
1

VECTORS velocity float
6.680892328895e-07 -7.890344669383e-09 -2.687084361009e-08
7.977694826387e-07 3.645548414074e-09 -1.023233129452e-08
7.837063369885e-07 -1.056261068068e-08 1.366241597858e-10
5.497840948713e-07 3.633792401781e-08 3.654844580770e-09
6.005251212231e-07 -2.593362049333e-08 -1.901040974344e-08
7.286761534519e-07 2.534219575892e-09 -1.151822386511e-08
8.047794580384e-07 -9.307950995164e-09 2.666646175715e-09
8.000886385963e-07 5.579861787855e-09 -1.144414632096e-08
1.030487764221e-06 4.052594549917e-08 2.739054017659e-08
5.576759289056e-07 2.468777122243e-08 -9.585982748545e-09
5.828585657887e-07 -2.716604135035e-08 1.495335590772e-08
7.014410618828e-07 -1.661697669916e-07 4.263914432283e-07
8.619468955534e-07 -2.485163391882e-09 -2.071828485256e-09
4.973303587454e-07 2.589160322889e-07 -3.100331532115e-07
7.390541866918e-07 4.775557939498e-09 1.454032592329e-08
6.235829557905e-07 1.709232600149e-08 9.801212238520e-09
1.114128170272e-06 -4.322953350719e-07 1.083468797160e-07
5.875620111195e-07 -2.280840063981e-08 -3.501643428319e-09
4.149387532018e-07 -1.081733988939e-07 -3.265096960427e-07
1.157532616452e-06 -3.134165689403e-08 9.404914440734e-08
7.130866140625e-07 1.003426172797e-09 -3.998281729561e-09
1.248562594610e-06 -1.218885528097e-07 2.784719715513e-07
4.592389866815e-07 -3.530861984345e-07 -1.141497766447e-07
5.598106520777e-07 3.235001020453e-07 2.963441397768e-07
7.349372814186e-07 -7.713807580437e-09 -5.332978013270e-09
4.656586201276e-07 5.927570620755e-09 -3.749402513630e-08
6.858878418486e-07 -8.038724066352e-09 -5.997116255751e-09
6.779933777283e-07 -1.984456450116e-08 -1.151082549443e-08
8.047492311850e-07 1.118210159941e-08 -3.340328105273e-09
5.208418766671e-07 -1.179937963086e-08 1.360986857404e-08
1.210968816988e-06 -3.202043034696e-07 -8.239146533935e-09
7.956700289373e-07 -4.765041282189e-09 1.695771532196e-09
6.872609468335e-07 8.314092710828e-09 1.540048274633e-08
7.441507815930e-07 -2.434213004576e-09 -9.693563688700e-09
9.485905585819e-07 5.808947601830e-08 3.601078583573e-08
4.921387348299e-07 -3.044362796310e-09 -2.392945029924e-08
4.917078035729e-07 2.164606733059e-09 4.034854387545e-09
7.577572122137e-07 -8.288020619796e-09 7.831077377718e-09
6.909027496483e-07 6.018619582021e-09 -1.715848331440e-08
7.143570889271e-07 1.305290659157e-08 -1.507209935304e-08
8.023111473996e-07 -1.150922347113e-08 1.035388284523e-08
7.807327197436e-07 -1.262921723879e-08 6.440115139327e-09
7.157169806330e-07 5.142324660436e-09 4.050107327775e-09
7.740256749166e-07 -1.178819787009e-08 3.895664956499e-09
8.415359183418e-07 1.155552651857e-09 -6.838671915830e-09
7.147139120096e-07 3.098919909830e-09 -2.080200339022e-09
7.610084606491e-07 -2.392265572382e-09 -1.189588530485e-09
7.084114173527e-07 -1.154873979591e-08 -5.619177752766e-09
6.717681155003e-07 1.070086936451e-08 1.902513395654e-08
5.480108146490e-07 1.716209113083e-08 -1.583491704103e-08
6.406347813355e-07 5.662395751917e-09 2.254666749316e-08
7.598647956402e-07 7.976646156205e-09 1.395153101056e-08
7.398400426544e-07 -5.784181857113e-09 -7.037032877000e-09
7.595579443258e-07 -2.628866585917e-07 -4.020157376067e-07
7.059046809660e-07 -1.165815339078e-08 2.577065061225e-08
1.062184221332e-06 1.031886714659e-07 -3.886404093586e-07
7.140586408963e-07 -3.339344383022e-09 2.176308777310e-09
8.391097699393e-07 -2.209158950080e-10 -7.472718379434e-09
6.916880298006e-07 2.381915299068e-08 1.803689409076e-08
6.604282673325e-07 -7.830316364839e-09 -2.984185160765e-08
2.050378266647e-07 6.745174236543e-08 1.652889669139e-07
6.501274206059e-07 6.917359196336e-09 -9.509461792904e-09
8.649901382500e-07 -1.358833978542e-09 -1.205172271802e-09
1.045261982854e-06 2.379668003950e-08 -2.038090629105e-08
6.487439855570e-07 2.017307565911e-08 1.011631312135e-08
7.001613322389e-07 -1.662452676109e-08 -5.321626212890e-09
2.974259373237e-07 -1.189595811714e-07 2.601076113763e-07
7.633930809177e-07 8.000334406205e-09 -1.404031357090e-08
7.278782438034e-07 1.699250255284e-08 1.090895939137e-08
5.550118852341e-07 -1.904961286857e-09 1.354491714013e-08
6.363276380168e-07 1.741525914296e-08 5.496857892374e-09
8.426959005496e-07 -2.329209181044e-09 5.701146389747e-09
8.039009736030e-07 4.161205574901e-09 2.328304350001e-09
6.700019700112e-07 2.351920846378e-08 -1.437697282150e-08
4.728711081418e-07 2.072958705689e-08 6.081620378672e-09
7.159547775960e-07 -9.318163329990e-09 5.156352112043e-09
2.820804737746e-07 2.025969224328e-07 -1.377382564369e-07
7.891721080566e-07 -8.200326879740e-09 -4.375073249878e-09
7.039309074614e-07 -4.201189927880e-09 -4.267213855515e-09
9.230026046536e-07 1.894417125038e-07 -4.030946116788e-07
7.001403205346e-07 -5.850654720315e-09 -1.728328611059e-08
9.380539848389e-07 6.486112768990e-08 -7.823884520371e-08
4.575528866441e-07 2.774393363568e-07 2.914795687063e-07
6.949301754467e-07 6.788078188501e-09 -1.238916772251e-08
8.649550278758e-07 -1.834269467355e-09 -1.478606884023e-09
8.184846024424e-07 -7.698814036485e-09 -9.346612232662e-09
6.665962007409e-07 -4.633205142385e-07 2.949990375761e-09
8.411018370293e-07 3.679655745094e-08 -5.074743045213e-08
8.027695986644e-07 -1.002706618807e-08 6.659202188908e-09
7.829956198409e-07 -8.168340376168e-09 9.939935122376e-09
7.423054023575e-07 -3.834769296876e-09 8.939002409012e-09
1.018048042683e-06 -8.710584205166e-08 -6.101916494733e-08
6.872522246354e-07 -5.392478494290e-10 6.876197826976e-09
7.299425910653e-07 1.224535749650e-08 -8.268222264252e-09
8.437734858761e-07 3.510801599314e-09 -7.367425228620e-09
4.676490657433e-07 -8.587356377636e-09 2.340477692743e-08
1.465216057723e-06 3.832211521752e-08 1.153812763194e-07
5.258078804160e-07 1.918791047504e-08 -1.619338791115e-08
7.243140566008e-07 1.633517737313e-08 1.317632704096e-08
6.684006202352e-07 4.704584955436e-09 2.171153213112e-08
1.277317009789e-06 1.551371407953e-08 1.679704076999e-08
7.199622906246e-07 -1.196874900146e-08 -6.204132849335e-09
9.321223317785e-07 4.309379814765e-07 -1.643880066983e-07
1.120523331837e-06 -3.720343705896e-07 1.910661204788e-07
6.553582536786e-07 -1.323263714536e-08 2.792710746208e-09
3.493923055968e-07 3.058122056330e-07 -1.286358088111e-07
7.163685246271e-07 -1.053902489991e-09 1.613637216147e-08
8.003241569072e-07 2.304785398868e-09 1.088199564975e-08
7.572808252097e-07 1.513620501704e-09 -4.068443715681e-09
5.386333586802e-07 2.013984463353e-08 -1.484250378649e-08
1.019027351934e-06 -2.441019754953e-07 -3.643536566293e-07
8.224506041615e-07 5.182685126230e-09 9.431128473063e-09
3.014463287851e-07 5.972237915060e-08 -2.919964531365e-07
1.064421620489e-06 -1.058289832739e-07 -3.047425081286e-08
7.113736225062e-07 -7.140166586409e-09 1.850924738916e-09
8.792827342590e-07 -5.841948232252e-08 7.048901026456e-08
6.822340172787e-07 2.023701924877e-09 5.547325661064e-09
5.509879914937e-07 1.840607054128e-08 1.723013477156e-08
8.726351291430e-07 -6.475788896421e-10 1.787904069125e-09
8.102927595959e-07 -5.204875254007e-09 -9.132446330784e-09
7.078830219305e-07 2.433687100715e-08 1.498108145998e-08
6.504597338708e-07 7.854174446251e-09 1.944816650104e-08
7.174466976531e-07 -3.774823400896e-09 9.505078816260e-10
7.538621164270e-07 5.511535085953e-09 -1.086574767180e-08
6.738341322672e-07 -7.471365540480e-09 6.056494002892e-09
8.667816615893e-07 -4.938381281778e-10 -4.970662799918e-11
7.792237315555e-07 1.319261454267e-08 -8.647380746815e-09
8.423451905235e-07 1.521221338022e-07 -4.720994165937e-07
5.710634870599e-07 2.254909083143e-08 -1.048733442707e-08
2.573904804073e-07 -2.074301248946e-07 -1.593925303719e-07
4.084461224612e-07 9.014889749270e-09 -2.755016448178e-08
7.665205474799e-07 1.227266310481e-08 1.570105005406e-08
9.911687348280e-08 8.380963747372e-08 -5.934790366040e-08
5.982730987643e-07 4.397449185784e-10 2.632142229230e-08
7.073921404579e-07 -1.780303675040e-09 1.492810053329e-08
5.802682614848e-07 -2.425286334273e-08 -2.910412761743e-09
7.311197472438e-07 4.868588418241e-09 -8.781302720670e-09
7.170629550862e-07 -1.350393798007e-08 -1.792469796715e-08
1.163720447126e-06 2.848606340111e-07 2.571046456045e-07
7.984894349795e-07 1.025261075575e-08 -1.215192589688e-08
3.647956539422e-07 -5.698536532432e-08 -3.365616263539e-07
6.757393726941e-07 -7.497604623374e-09 -2.373218391122e-08
6.568509859087e-07 -1.707887456957e-08 -1.814156516893e-08
7.538408584536e-07 1.185637801681e-08 9.035290555639e-09
6.675041272027e-07 -1.212721874785e-08 -9.642135841725e-09
9.808866444384e-07 -7.294982047917e-08 -7.130677900725e-08
8.566061923010e-07 1.419390519369e-10 1.929818014947e-09
6.822878781597e-07 -9.932167343994e-09 -2.736081309192e-08
8.991754468509e-07 -2.103303990718e-08 -2.023322324413e-08
7.883133064046e-07 -5.300935949078e-09 2.441713419122e-09
6.813127721955e-07 -1.152088966257e-08 -2.064990182193e-08
5.808786867522e-07 -1.488765886258e-08 -3.965506381055e-07
5.754982497382e-07 9.117835274801e-09 -2.466002921965e-08
5.902939031154e-07 2.090401650034e-08 -3.068588659613e-09
4.476997225441e-07 -3.759358052307e-07 8.570852425961e-08
1.059849108891e-07 -9.488562312433e-08 6.055477741741e-08
1.776000191716e-07 -1.162610502912e-07 -1.257614090795e-07
2.874333438248e-07 -2.661999912974e-07 -1.280277985203e-07
7.093481126215e-07 -1.069898825666e-08 -5.512497193103e-09
6.499824365065e-07 -2.364335118353e-08 5.183172841199e-09
7.128688429650e-07 1.581198652637e-10 -1.757568877079e-09
7.599157413880e-07 1.707412071757e-08 -7.400061432510e-09
8.479663399090e-07 -3.515313115556e-09 3.162311634919e-09
6.641806135601e-07 1.930186988536e-08 -1.272855052920e-08
1.009905212595e-06 2.437546558918e-07 -3.620966088603e-07
6.864089343298e-07 -5.403703661520e-09 1.561935653563e-08
1.143395722096e-06 -3.628708065877e-07 1.485641410296e-07
7.881926492215e-07 -7.844147418144e-09 -6.511479547339e-09
1.333044741391e-06 2.324041872604e-07 -1.154328480016e-07
5.496076281269e-07 2.368608532242e-08 2.022541420103e-08
3.355464429898e-07 -2.668028439875e-07 -1.722450588651e-07
6.856026510977e-07 -1.297386979797e-08 2.904520488823e-08
8.064808400595e-07 -8.317135353718e-09 -1.151866038795e-08
8.064178781106e-07 9.694294180005e-09 -1.247394192719e-08
6.063472158622e-07 1.796944538143e-07 -4.125503900945e-07
6.766441879441e-07 5.633404366613e-09 -1.876070375112e-08
7.847029930675e-07 -3.542247614640e-08 -3.204989447658e-08
8.341106062863e-07 -1.801207734052e-10 4.835878208099e-09
5.244206105906e-07 2.001689474466e-08 -1.269283256207e-08
6.263870221397e-07 -2.397962515437e-08 -7.282285027313e-09
6.836069412172e-07 9.664514504978e-10 5.882494714530e-09
8.011526437456e-07 -1.722649138288e-09 1.206143545758e-09
7.993095954559e-07 -2.049966709511e-09 -5.475136010316e-10
7.258629460444e-07 -1.496000752867e-08 -1.507639998253e-08
6.990113095793e-07 -1.299312983974e-08 3.012582837261e-09
1.103070432994e-06 -6.172626149391e-08 -4.724831434653e-08
6.780171579138e-07 7.466582637025e-09 2.001519694851e-08
6.635898354218e-07 1.287473358143e-08 2.083096190551e-08
5.702086704256e-07 -8.482028131973e-11 1.922634047438e-08
6.272610015250e-07 -1.608464951510e-08 2.603092596150e-09
9.182679398956e-07 4.174745510708e-07 -1.501330113363e-07
7.778349554704e-07 1.172613910429e-08 -6.719861434823e-09
7.341683105611e-07 -7.732700594371e-09 -4.815370728171e-09
8.395887933469e-07 -4.571376120955e-10 -7.347656309124e-09
5.931775479587e-07 3.655814515873e-09 -2.319140581748e-08
4.602257450907e-07 3.216951617910e-08 -2.706406136969e-08
6.955948699922e-07 -5.022720339792e-09 -3.583074102653e-09
7.692276098375e-07 5.303391558767e-09 -1.068280756402e-08
1.050668709400e-06 2.927158527002e-08 4.307191807626e-08
7.202283831017e-07 6.098265870058e-09 2.491673243299e-09
5.071443119122e-07 -2.922374348340e-08 1.114908856007e-08
7.534703655126e-07 -1.939673450239e-09 6.816227674591e-09
7.458180708751e-07 7.750784469202e-09 -6.790508840886e-09
1.870005859086e-07 -1.148922880793e-07 1.467657281926e-07
1.037963615828e-06 -2.576218380830e-07 3.245729834209e-07
8.349063133147e-07 7.626712240035e-09 1.974202526439e-10
7.733982293491e-07 -1.045147436150e-08 4.223151321789e-08
8.573991184438e-07 -1.948046064303e-09 -3.737240445649e-09
5.057026539917e-07 1.157598932559e-07 -3.880776536232e-07
6.955440507928e-07 -7.688696165878e-09 1.508212084413e-08
7.075817030058e-07 -9.977244340741e-09 -5.279080231079e-09
6.183432575487e-07 -1.229958728366e-08 1.245838165712e-08
6.228212914761e-07 -1.690015260024e-08 1.625643131265e-08
8.100440028523e-07 -9.384344342230e-10 1.449831002405e-09
7.153648676968e-07 -8.534320510520e-10 1.140310494020e-09
7.169157825554e-07 1.389451523081e-08 -1.521786283276e-08
7.945657613592e-07 -1.435643804401e-09 6.847909473963e-08
7.657088100996e-07 -1.989357797604e-09 -2.751240245665e-09
6.191443111015e-07 -6.458676150896e-09 1.725683973875e-08
7.883193428836e-07 2.645905383626e-09 8.633377319705e-09
6.636326124911e-07 -2.280240961135e-08 5.766590792744e-09
8.063843413643e-07 4.205878856560e-09 4.510347714128e-09
5.340346136276e-07 -1.515218835143e-08 1.797504130736e-08
1.173475260287e-06 5.363296773896e-08 -6.316701630920e-08
8.719487779177e-07 -1.808911970154e-10 -2.850215162083e-09
6.278141069178e-07 -1.463983743411e-09 1.169450593451e-08
7.553098291553e-07 -1.311585625483e-09 -4.591347395272e-09
8.148913166664e-07 7.036771134941e-09 7.954976748356e-09
7.359473647163e-07 9.864252058402e-09 -2.110643439355e-09
7.891757696806e-07 4.349408927414e-07 -1.329485333674e-07
8.005126105534e-07 4.239459093905e-09 3.812926065586e-09
7.569612608871e-07 3.210420158112e-09 -6.338591974262e-09
9.705241253155e-07 3.901362946491e-08 9.035627865486e-08
4.331265840578e-07 3.226394668106e-07 -1.884552508351e-07
7.195812823530e-07 5.536979270256e-11 8.455340460150e-09
7.705918050022e-07 6.647019474844e-09 -1.234996250307e-08
6.997717793471e-07 -1.217107384607e-08 -1.071065606571e-09
7.479014348600e-07 -8.266466366121e-09 1.119526289031e-08
7.173411237109e-07 -1.681846675108e-08 -1.200973822177e-08
4.585865552164e-07 1.208271596296e-08 -1.509125370237e-08
6.647213123933e-07 1.484319753758e-08 4.533127694828e-09
8.753839639321e-07 6.043037669950e-10 -1.350437715387e-09
1.066074210523e-06 -8.617149681043e-08 3.852466412797e-07
7.924218061402e-07 1.183788025292e-08 7.005601198316e-09
4.696807418989e-07 -2.534677495298e-08 2.080703307897e-08
7.216415605900e-07 5.015858630822e-09 -2.139943297198e-08
7.059005218215e-07 -9.402025980047e-09 -5.062907845573e-09
8.441876327397e-07 -3.516767969041e-09 3.055723327484e-09
7.537470500628e-07 4.765716352423e-09 -4.910900601710e-09
7.586886715424e-07 1.724636108922e-08 -7.166086819882e-09
1.269920679158e-06 2.949873019669e-08 2.845198280631e-08
8.704706744175e-07 -8.514180580916e-10 -3.861436318699e-09
6.989979114172e-07 -7.791628818924e-09 1.526153954656e-08
6.580018035094e-07 -1.623063467411e-09 -1.514744592433e-08
7.608116799606e-07 -2.742218116355e-09 -5.048431511121e-09
8.499947492680e-07 -2.354200421128e-09 -3.095073666445e-09
7.348548890228e-07 -6.907215458388e-09 -6.786502308767e-09
8.508551520768e-07 3.685910642187e-10 3.964307139821e-10
8.162587062312e-07 -9.019266936066e-09 1.116224792079e-08
6.341472051721e-07 1.778827615915e-08 8.514283400937e-09
7.029879734023e-07 -8.123922828419e-09 4.577439123253e-09
7.158629238847e-07 -1.764817705025e-08 4.710756027787e-09
5.055951118440e-07 2.121704182724e-08 1.513353904149e-08
6.212197248725e-07 -1.552536592934e-08 -9.556812919019e-09
1.053109223542e-06 1.240610417302e-07 -3.753435299020e-07
7.182740288570e-07 2.359653813051e-09 -3.090405956564e-09
5.162162002143e-07 -1.547230763256e-07 3.673025028801e-07
6.126638350471e-07 -1.883781112519e-08 -7.452789722965e-09
6.958534610937e-07 -9.481038347249e-09 -5.582067425663e-09
6.635867937832e-07 -3.906206459907e-07 -2.445939118128e-07
9.419841573107e-07 -4.857243356101e-07 -1.347891820043e-07
7.075814312542e-07 -1.775197455639e-08 -1.135863045099e-08
7.676667653095e-07 -1.399846757841e-08 -1.134726789981e-08
5.947467904463e-07 -2.491493267557e-08 -1.920436507486e-08
7.620176430069e-07 1.252893256718e-08 1.939370253361e-08
8.151834327337e-07 -4.724723661146e-09 -1.036843752143e-08
4.809240921722e-07 -2.280863852662e-08 -3.342264464090e-08
7.195850057442e-07 1.146759712355e-09 -3.823881189953e-09
7.968396894184e-07 1.072291577149e-08 -1.777549196450e-09
1.175831899051e-06 -2.519774887190e-07 -2.711893827550e-07
1.132426395210e-06 -3.124865233421e-07 -2.233291768294e-07
1.031585863843e-06 -7.053573988115e-08 -8.054350234101e-08
9.263208048604e-07 -4.128027412521e-07 -3.155582751154e-07
1.077526622070e-06 7.674757627635e-08 -5.288750725109e-08
8.054571212626e-07 9.787213394683e-09 -1.285853898644e-08
8.208078738434e-07 -6.909887699864e-09 -9.455403547806e-09
1.219416202425e-07 -5.322099558178e-08 -1.088111267591e-07
7.641963745844e-07 3.115965761505e-09 -4.604387370494e-09
7.622847617643e-07 1.397865017123e-09 -3.788205893034e-09
7.994910962367e-07 1.136117565797e-08 -2.353869994508e-09
7.790398196092e-07 8.043277535372e-10 -6.170239930162e-09
8.122233039572e-07 4.458521416890e-09 -9.385720511060e-09
9.685920516823e-07 3.640141295307e-07 3.223512007001e-07
6.844789720599e-07 2.204745438697e-08 -1.193064624848e-08
8.090938613022e-07 -1.558667816052e-10 2.649865357231e-09
7.292253778072e-07 -1.025713317483e-09 4.009804352726e-09
8.476230820822e-07 1.341258327893e-09 4.569971971687e-09
7.869436822396e-07 3.011731364834e-09 8.078139587083e-09
4.694922210871e-07 -3.137986880637e-08 1.608899711714e-08
6.799190967031e-07 -1.435303262505e-08 -4.799506032282e-09
8.040407143299e-07 3.742257084562e-09 2.521075413655e-09
6.464437487123e-07 -1.308426509756e-08 2.864485174030e-09
9.072954856378e-07 4.727202083998e-08 6.325355393789e-08
8.794235981543e-07 -3.633146630039e-07 -3.328135297399e-07
7.128822757481e-07 2.338917034412e-08 1.543278858516e-08
1.292769907891e-06 -1.598608679970e-08 -2.481395950379e-08
6.288962639036e-07 -9.065819322229e-09 1.872541363769e-08