<?xml version="1.0"?>
<!-- Time step: 20 | Time: 2.000000000000e+06 -->
<VTKFile type="UnstructuredGrid" version="0.1" byte_order="LittleEndian">
  <UnstructuredGrid>
    <Piece NumberOfPoints="2499" NumberOfCells="11162">
      <Points>
        <DataArray type="Float64" NumberOfComponents="3" format="ascii">
          0.000000000000e+00 0.000000000000e+00 0.000000000000e+00
          5.000000000000e-01 0.000000000000e+00 0.000000000000e+00
          5.000000000000e-01 1.000000000000e+00 0.000000000000e+00
          0.000000000000e+00 1.000000000000e+00 0.000000000000e+00
          0.000000000000e+00 0.000000000000e+00 1.000000000000e+00
          5.000000000000e-01 0.000000000000e+00 1.000000000000e+00
          5.000000000000e-01 1.000000000000e+00 1.000000000000e+00
          0.000000000000e+00 1.000000000000e+00 1.000000000000e+00
          1.000000000000e+00 0.000000000000e+00 0.000000000000e+00
          1.000000000000e+00 1.000000000000e+00 0.000000000000e+00
          1.000000000000e+00 0.000000000000e+00 1.000000000000e+00
          1.000000000000e+00 1.000000000000e+00 1.000000000000e+00
          5.000000000000e-01 5.000000000000e-01 9.000000000000e-01
          5.000000000000e-01 5.000000000000e-01 1.000000000000e-01
          5.000000000000e-01 9.000000000000e-01 5.000000000000e-01
          1.000000000000e-01 5.000000000000e-01 5.000000000000e-01
          5.000000000000e-01 1.000000000000e-01 5.000000000000e-01
          9.000000000000e-01 5.000000000000e-01 5.000000000000e-01
          5.000000000000e-01 5.522104768874e-01 8.965779445496e-01
          5.000000000000e-01 6.035276180398e-01 8.863703305160e-01
          5.000000000000e-01 6.530733729443e-01 8.695518130053e-01
          5.000000000000e-01 6.999999999987e-01 8.464101615145e-01
          5.000000000000e-01 7.435045716026e-01 8.173413361171e-01
          5.000000000000e-01 7.828427124742e-01 7.828427124751e-01
          5.000000000000e-01 8.173413361165e-01 7.435045716035e-01
          5.000000000000e-01 8.464101615141e-01 6.999999999994e-01
          5.000000000000e-01 8.695518130050e-01 6.530733729448e-01
          5.000000000000e-01 8.863703305159e-01 6.035276180402e-01
          5.000000000000e-01 8.965779445496e-01 5.522104768876e-01
          5.000000000000e-01 5.522104768875e-01 1.034220554504e-01
          5.000000000000e-01 6.035276180399e-01 1.136296694841e-01
          5.000000000000e-01 6.530733729445e-01 1.304481869949e-01
          5.000000000000e-01 6.999999999990e-01 1.535898384856e-01
          5.000000000000e-01 7.435045716029e-01 1.826586638830e-01
          5.000000000000e-01 7.828427124744e-01 2.171572875252e-01
          5.000000000000e-01 8.173413361166e-01 2.564954283967e-01
          5.000000000000e-01 8.464101615142e-01 3.000000000007e-01
          5.000000000000e-01 8.695518130050e-01 3.469266270552e-01
          5.000000000000e-01 8.863703305159e-01 3.964723819598e-01
          5.000000000000e-01 8.965779445496e-01 4.477895231124e-01
          5.000000000000e-01 0.000000000000e+00 1.111111111108e-01
          5.000000000000e-01 0.000000000000e+00 2.222222222217e-01
          5.000000000000e-01 0.000000000000e+00 3.333333333326e-01
          5.000000000000e-01 0.000000000000e+00 4.444444444436e-01
          5.000000000000e-01 0.000000000000e+00 5.555555555546e-01
          5.000000000000e-01 0.000000000000e+00 6.666666666659e-01
          5.000000000000e-01 0.000000000000e+00 7.777777777772e-01
          5.000000000000e-01 0.000000000000e+00 8.888888888886e-01
          5.000000000000e-01 1.111111111108e-01 1.000000000000e+00
          5.000000000000e-01 2.222222222217e-01 1.000000000000e+00
          5.000000000000e-01 3.333333333326e-01 1.000000000000e+00
          5.000000000000e-01 4.444444444436e-01 1.000000000000e+00
          5.000000000000e-01 5.555555555546e-01 1.000000000000e+00
          5.000000000000e-01 6.666666666659e-01 1.000000000000e+00
          5.000000000000e-01 7.777777777772e-01 1.000000000000e+00
          5.000000000000e-01 8.888888888886e-01 1.000000000000e+00
          5.000000000000e-01 1.000000000000e+00 8.888888888890e-01
          5.000000000000e-01 1.000000000000e+00 7.777777777781e-01
          5.000000000000e-01 1.000000000000e+00 6.666666666674e-01
          5.000000000000e-01 1.000000000000e+00 5.555555555567e-01
          5.000000000000e-01 1.000000000000e+00 4.444444444458e-01
          5.000000000000e-01 1.000000000000e+00 3.333333333345e-01
          5.000000000000e-01 1.000000000000e+00 2.222222222231e-01
          5.000000000000e-01 1.000000000000e+00 1.111111111116e-01
          5.000000000000e-01 8.888888888890e-01 0.000000000000e+00
          5.000000000000e-01 7.777777777781e-01 0.000000000000e+00
          5.000000000000e-01 6.666666666674e-01 0.000000000000e+00
          5.000000000000e-01 5.555555555567e-01 0.000000000000e+00
          5.000000000000e-01 4.444444444458e-01 0.000000000000e+00
          5.000000000000e-01 3.333333333345e-01 0.000000000000e+00
          5.000000000000e-01 2.222222222231e-01 0.000000000000e+00
          5.000000000000e-01 1.111111111116e-01 0.000000000000e+00
          3.750000000002e-01 1.000000000000e+00 1.000000000000e+00
          2.500000000007e-01 1.000000000000e+00 1.000000000000e+00
          1.250000000005e-01 1.000000000000e+00 1.000000000000e+00
          0.000000000000e+00 1.000000000000e+00 8.888888888890e-01
          0.000000000000e+00 1.000000000000e+00 7.777777777781e-01
          0.000000000000e+00 1.000000000000e+00 6.666666666674e-01
          0.000000000000e+00 1.000000000000e+00 5.555555555567e-01
          0.000000000000e+00 1.000000000000e+00 4.444444444458e-01
          0.000000000000e+00 1.000000000000e+00 3.333333333345e-01
          0.000000000000e+00 1.000000000000e+00 2.222222222231e-01
          0.000000000000e+00 1.000000000000e+00 1.111111111116e-01
          1.249999999997e-01 1.000000000000e+00 0.000000000000e+00
          2.499999999995e-01 1.000000000000e+00 0.000000000000e+00
          3.749999999997e-01 1.000000000000e+00 0.000000000000e+00
          0.000000000000e+00 8.888888888890e-01 1.000000000000e+00
          0.000000000000e+00 7.777777777781e-01 1.000000000000e+00
          0.000000000000e+00 6.666666666674e-01 1.000000000000e+00
          0.000000000000e+00 5.555555555567e-01 1.000000000000e+00
          0.000000000000e+00 4.444444444458e-01 1.000000000000e+00
          0.000000000000e+00 3.333333333345e-01 1.000000000000e+00
          0.000000000000e+00 2.222222222231e-01 1.000000000000e+00
          0.000000000000e+00 1.111111111116e-01 1.000000000000e+00
          1.249999999997e-01 0.000000000000e+00 1.000000000000e+00
          2.499999999995e-01 0.000000000000e+00 1.000000000000e+00
          3.749999999997e-01 0.000000000000e+00 1.000000000000e+00
          0.000000000000e+00 0.000000000000e+00 1.111111111108e-01
          0.000000000000e+00 0.000000000000e+00 2.222222222217e-01
          0.000000000000e+00 0.000000000000e+00 3.333333333326e-01
          0.000000000000e+00 0.000000000000e+00 4.444444444436e-01
          0.000000000000e+00 0.000000000000e+00 5.555555555546e-01
          0.000000000000e+00 0.000000000000e+00 6.666666666659e-01
          0.000000000000e+00 0.000000000000e+00 7.777777777772e-01
          0.000000000000e+00 0.000000000000e+00 8.888888888886e-01
          1.249999999997e-01 0.000000000000e+00 0.000000000000e+00
          2.499999999995e-01 0.000000000000e+00 0.000000000000e+00
          3.749999999997e-01 0.000000000000e+00 0.000000000000e+00
          0.000000000000e+00 1.111111111108e-01 0.000000000000e+00
          0.000000000000e+00 2.222222222217e-01 0.000000000000e+00
          0.000000000000e+00 3.333333333326e-01 0.000000000000e+00
          0.000000000000e+00 4.444444444436e-01 0.000000000000e+00
          0.000000000000e+00 5.555555555546e-01 0.000000000000e+00
          0.000000000000e+00 6.666666666659e-01 0.000000000000e+00
          0.000000000000e+00 7.777777777772e-01 0.000000000000e+00
          0.000000000000e+00 8.888888888886e-01 0.000000000000e+00
          4.477895231125e-01 5.000000000000e-01 1.034220554504e-01
          3.964723819600e-01 5.000000000000e-01 1.136296694841e-01
          3.469266270554e-01 5.000000000000e-01 1.304481869949e-01
          3.000000000010e-01 5.000000000000e-01 1.535898384857e-01
          2.564954283971e-01 5.000000000000e-01 1.826586638831e-01
          2.171572875256e-01 5.000000000000e-01 2.171572875252e-01
          1.826586638834e-01 5.000000000000e-01 2.564954283967e-01
          1.535898384859e-01 5.000000000000e-01 3.000000000006e-01
          1.304481869950e-01 5.000000000000e-01 3.469266270551e-01
          1.136296694842e-01 5.000000000000e-01 3.964723819598e-01
          1.034220554504e-01 5.000000000000e-01 4.477895231124e-01
          4.477895231126e-01 5.000000000000e-01 8.965779445496e-01
          3.964723819602e-01 5.000000000000e-01 8.863703305159e-01
          3.469266270556e-01 5.000000000000e-01 8.695518130052e-01
          3.000000000012e-01 5.000000000000e-01 8.464101615145e-01
          2.564954283973e-01 5.000000000000e-01 8.173413361171e-01
          2.171572875258e-01 5.000000000000e-01 7.828427124751e-01
          1.826586638835e-01 5.000000000000e-01 7.435045716035e-01
          1.535898384859e-01 5.000000000000e-01 6.999999999995e-01
          1.304481869950e-01 5.000000000000e-01 6.530733729450e-01
          1.136296694842e-01 5.000000000000e-01 6.035276180403e-01
          1.034220554504e-01 5.000000000000e-01 5.522104768876e-01
          5.000000000000e-01 4.477895231125e-01 1.034220554504e-01
          5.000000000000e-01 3.964723819600e-01 1.136296694841e-01
          5.000000000000e-01 3.469266270554e-01 1.304481869949e-01
          5.000000000000e-01 3.000000000010e-01 1.535898384857e-01
          5.000000000000e-01 2.564954283971e-01 1.826586638831e-01
          5.000000000000e-01 2.171572875256e-01 2.171572875252e-01
[...]
      <PointData Scalars="HEAD">
        <DataArray type="Float64" Name="HEAD" format="ascii">
          1.000000000000e-02 5.001945931364e-03 5.002917975900e-03 1.000000000000e-02 1.000000000000e-02 5.001066797438e-03 5.003104611224e-03 1.000000000000e-02 0.000000000000e+00 0.000000000000e+00 0.000000000000e+00 0.000000000000e+00 5.006424177448e-03 4.992414962190e-03 5.010404591994e-03 9.881703937414e-03 4.996365795555e-03 1.158082606753e-04 5.003532677836e-03 4.998736490417e-03 4.999110886699e-03 5.000629745092e-03 5.001293609954e-03 5.003855084314e-03 5.004767527741e-03 4.998202302449e-03 5.001837682263e-03 4.998296795344e-03 5.000231471933e-03 4.992370758901e-03 4.980055096151e-03 4.999008683065e-03 4.995174719287e-03 5.001267161139e-03 4.994848410683e-03 5.005242206655e-03 4.999505453600e-03 4.995532867357e-03 4.997958442706e-03 5.003680214783e-03 5.003940677762e-03 4.992783108009e-03 5.005157933952e-03 5.002079014558e-03 5.004566436607e-03 5.001146732290e-03 4.994811962841e-03 5.000090042261e-03 5.000789430369e-03 4.994464060818e-03 5.003634183645e-03 5.002760956421e-03 4.997946040049e-03 5.004011058148e-03 5.000311102213e-03 4.995992801455e-03 4.999665298841e-03 4.996775454355e-03 4.988659343055e-03 4.992365187448e-03 4.995447626721e-03 4.990145247861e-03 5.000826590554e-03 5.003177902949e-03 4.999778463586e-03 4.998694383551e-03 5.001626304350e-03 5.008131402072e-03 5.005426647296e-03 5.000284699509e-03 4.998756798199e-03 4.997747851652e-03 6.396219843011e-03 7.710274710775e-03 8.892123349507e-03 1.000000000000e-02 1.000000000000e-02 1.000000000000e-02 1.000000000000e-02 1.000000000000e-02 1.000000000000e-02 1.000000000000e-02 1.000000000000e-02 8.894997432124e-03 7.701991880896e-03 6.401763376877e-03 1.000000000000e-02 1.000000000000e-02 1.000000000000e-02 1.000000000000e-02 1.000000000000e-02 1.000000000000e-02 1.000000000000e-02 1.000000000000e-02 8.897244375498e-03 7.702645489401e-03 6.401568705412e-03 1.000000000000e-02 1.000000000000e-02 1.000000000000e-02 1.000000000000e-02 1.000000000000e-02 1.000000000000e-02 1.000000000000e-02 1.000000000000e-02 8.895698482206e-03 7.704505487769e-03 6.402733944712e-03 1.000000000000e-02 1.000000000000e-02 1.000000000000e-02 1.000000000000e-02 1.000000000000e-02 1.000000000000e-02 1.000000000000e-02 1.000000000000e-02 5.788478624617e-03 6.558118720693e-03 7.186502357529e-03 7.804334847781e-03 8.327556581012e-03 8.791173163723e-03 9.161147548209e-03 9.461865063003e-03 9.671736303387e-03 9.795425554441e-03 9.861284349267e-03 5.785494654400e-03 6.509566684691e-03 7.211645878450e-03 7.811468915235e-03 8.333166780245e-03 8.786526055945e-03 9.155096249006e-03 9.452849718833e-03 9.655608022567e-03 9.784730304247e-03 9.853926480721e-03 5.007877268860e-03 4.994943557051e-03 5.007441232294e-03 4.985838120567e-03 5.002330628168e-03 4.998173345430e-03 4.994147344283e-03 5.020091175216e-03 5.011455209107e-03 4.990175039367e-03 4.999110218829e-03 4.994569186068e-03 5.002548942951e-03 5.015665091681e-03 5.013859995553e-03 4.996317934354e-03 4.994765319256e-03 5.014019029631e-03 5.004483384158e-03 4.993471109343e-03 5.002756584110e-03 4.993476547953e-03 3.874207020393e-03 2.801057229940e-03 1.809831924662e-03 8.808034281739e-04 0.000000000000e+00 0.000000000000e+00 0.000000000000e+00 0.000000000000e+00 0.000000000000e+00 0.000000000000e+00 0.000000000000e+00 0.000000000000e+00 0.000000000000e+00 0.000000000000e+00 0.000000000000e+00 0.000000000000e+00 0.000000000000e+00 0.000000000000e+00 0.000000000000e+00 0.000000000000e+00 8.854361892606e-04 1.798726869326e-03 2.796267459143e-03 3.875036245378e-03 0.000000000000e+00 0.000000000000e+00 0.000000000000e+00 0.000000000000e+00 0.000000000000e+00 0.000000000000e+00 0.000000000000e+00 0.000000000000e+00 8.802622013708e-04 1.798715105101e-03 2.796046613400e-03 3.875089905086e-03 0.000000000000e+00 0.000000000000e+00 0.000000000000e+00 0.000000000000e+00 0.000000000000e+00 0.000000000000e+00 0.000000000000e+00 0.000000000000e+00 8.775420425697e-04 1.806419028848e-03 2.796577111758e-03 3.870404845650e-03 4.214568066686e-03 3.478912989851e-03 2.805600129929e-03 2.197011249510e-03 1.640410497894e-03 1.187996737025e-03 8.310400020758e-04 5.519738024250e-04 3.459037438822e-04 2.165128289192e-04 1.404039253382e-04 1.501292166383e-04 2.220852151512e-04 3.323146570105e-04 5.435019135052e-04 8.401155489167e-04 1.204858767687e-03 1.643677616013e-03 2.185752723071e-03 2.810937412052e-03 3.467597185053e-03 4.234803125070e-03 5.005429166466e-03 4.997599603351e-03 5.002032073784e-03 4.999723928818e-03 4.995666347198e-03 5.007192299223e-03 5.007678013003e-03 5.002961507535e-03 5.007212350835e-03 5.003994629546e-03 4.997592977727e-03 4.994418968216e-03 4.993856620030e-03 4.995282954237e-03 5.002386903095e-03 4.998515188177e-03 4.998294088794e-03 4.999355752587e-03 5.000135198800e-03 5.000385482533e-03 5.001845395238e-03 4.997154334636e-03 4.994428098722e-03 4.999958787255e-03 4.995669638429e-03 4.999347287673e-03 4.991873522736e-03 4.998216316072e-03 5.004092109531e-03 4.999157434772e-03 5.004999711040e-03 4.999928204502e-03 4.998346752864e-03 4.999635051740e-03 4.995982997479e-03 4.997413468095e-03 4.997613444342e-03 4.997648582604e-03 4.998922045440e-03 7.896488222121e-03 7.978517779844e-03 7.948228419278e-03 6.663179251581e-03 8.707119360367e-03 6.916428603093e-03 8.764587444545e-03 7.036076156245e-03 8.756146108732e-03 8.767627899571e-03 7.005446257033e-03 9.249619083535e-03 6.146609347777e-03 6.800583492186e-03 8.686540610966e-03 7.737110143054e-03 7.756891327909e-03 9.119902779603e-03 6.221706176825e-03 5.832454773925e-03 9.398831396033e-03 7.849965113094e-03 8.331254059626e-03 7.302050290106e-03 5.927274990109e-03 9.391525456340e-03 5.784389885275e-03 9.402627086912e-03 9.397694739820e-03 6.038946473810e-03 6.894176163820e-03 8.759351244773e-03 6.047491917999e-03 9.414589946584e-03 6.024504057446e-03 9.403855826321e-03 8.932752572444e-03 6.372331940015e-03 1.000000000000e-02 1.000000000000e-02 1.000000000000e-02 1.000000000000e-02 1.000000000000e-02 1.000000000000e-02 1.000000000000e-02 1.000000000000e-02 1.000000000000e-02 1.000000000000e-02 1.000000000000e-02 1.000000000000e-02 1.000000000000e-02 1.000000000000e-02 1.000000000000e-02 1.000000000000e-02 1.000000000000e-02 1.000000000000e-02 1.000000000000e-02 1.000000000000e-02 1.000000000000e-02 1.000000000000e-02 1.000000000000e-02 1.000000000000e-02 1.000000000000e-02 1.000000000000e-02 1.000000000000e-02 1.000000000000e-02 1.000000000000e-02 1.000000000000e-02 1.000000000000e-02 1.000000000000e-02 1.000000000000e-02 1.000000000000e-02 1.000000000000e-02 1.000000000000e-02 1.000000000000e-02 1.000000000000e-02 1.000000000000e-02 1.000000000000e-02 1.000000000000e-02 1.000000000000e-02 1.000000000000e-02 1.000000000000e-02 1.000000000000e-02 1.000000000000e-02 1.000000000000e-02 1.000000000000e-02 1.000000000000e-02 1.000000000000e-02 1.000000000000e-02 1.000000000000e-02 1.000000000000e-02 1.000000000000e-02 1.000000000000e-02 1.000000000000e-02 1.000000000000e-02 1.000000000000e-02 1.000000000000e-02 1.000000000000e-02 1.000000000000e-02 1.000000000000e-02 1.000000000000e-02 1.000000000000e-02 1.000000000000e-02 1.000000000000e-02 1.000000000000e-02 1.000000000000e-02 1.000000000000e-02 1.000000000000e-02 1.000000000000e-02 1.000000000000e-02 1.000000000000e-02 1.000000000000e-02 1.000000000000e-02 1.000000000000e-02 1.000000000000e-02 1.000000000000e-02 1.000000000000e-02 7.700241389666e-03 6.599603055746e-03 8.534508243950e-03 8.548408468580e-03 6.377159391026e-03 6.361092578645e-03 8.822183866816e-03 7.705836320714e-03 7.756542404518e-03 9.364262825063e-03 9.101413098619e-03 6.444031666486e-03 7.063722075405e-03 8.669730428170e-03 7.293620373872e-03 9.341386551949e-03 8.307627770296e-03 9.436487868705e-03 7.783471324283e-03 8.771427618828e-03 7.104403722225e-03 9.467676290528e-03 6.126684483848e-03 6.065453749590e-03 8.368798808303e-03 9.242334003785e-03 9.273037111323e-03 5.933934138969e-03 9.377865702899e-03 5.729495521487e-03 5.736812125184e-03 8.026263257960e-03 8.761320237433e-03 6.854269160620e-03 6.853895441984e-03 9.205515957808e-03 9.068151926730e-03 6.635161539690e-03 7.897169274594e-03 7.762561468620e-03 5.882668417784e-03 6.591216894114e-03 9.117616980390e-03 8.579280581229e-03 6.846972350328e-03 8.519455697680e-03 5.864469241367e-03 7.463473796517e-03 5.891561023965e-03 8.159757310779e-03 6.926300761953e-03 8.320334780596e-03 5.907630401133e-03 9.224926254486e-03 9.341611624698e-03 7.530692299994e-03 6.310216653512e-03 6.108292557519e-03 9.294056811540e-03 5.829499302673e-03 9.444201593869e-03 9.462158313011e-03 7.849033554460e-03 7.971636419841e-03 6.839695936750e-03 8.597297044387e-03 6.614360106312e-03 9.073789403299e-03 6.604915060180e-03 9.029993643368e-03 6.353143311558e-03 8.978995886390e-03 6.423429894031e-03 9.136615735687e-03 7.836588953091e-03 6.289531841107e-03 9.385679934612e-03 6.176210226912e-03 9.285875666879e-03 7.498358540071e-03 8.461011970414e-03 7.959902490663e-03 8.633985083033e-03 7.060892310045e-03 7.335625936752e-03 8.187237508110e-03 6.024237626319e-03 9.341585487676e-03 7.675243348529e-03 8.162897040833e-03 5.940520642669e-03 9.328460876090e-03 9.379430792218e-03 5.678050752178e-03 7.287630314839e-03 8.791214666864e-03 8.936536455821e-03 7.979271791029e-03 9.205271631640e-03 5.917747436601e-03 7.425959997586e-03 6.644536930038e-03 6.051483327766e-03 6.118599352501e-03 7.446943669031e-03 8.866749509385e-03 6.238881274759e-03 8.484423270030e-03 8.750415611922e-03 7.352821103140e-03 5.504137401994e-03 7.733951834519e-03 8.186467521680e-03 5.564377776390e-03 7.360639797335e-03 6.664678100100e-03 7.344744280472e-03 6.192752191023e-03 5.555746937709e-03 5.831457814474e-03 5.645978906459e-03 7.006737314588e-03 6.103562630226e-03 7.190947679605e-03 9.615976346309e-03 8.689498739400e-03 8.763351302482e-03 9.528082899738e-03 8.336235667879e-03 9.047550324462e-03 5.687277609102e-03 9.325609642854e-03 7.300995069413e-03 8.534920354254e-03 7.574665775217e-03 8.155214489571e-03 8.709112620882e-03 8.863649153755e-03 5.610829015957e-03 6.085238100448e-03 8.071276592325e-03 7.975026117772e-03 7.039977396369e-03 8.950293505693e-03 7.262051015030e-03 8.008096548798e-03 7.750822790529e-03 7.043307120876e-03 9.139469988788e-03 8.795545640765e-03 6.858481773997e-03 9.707586066420e-03 9.315945698263e-03 8.940252279240e-03 9.396223549240e-03 7.863110951015e-03 8.496526005945e-03 7.413261001450e-03 8.967394404073e-03 7.597775343528e-03 7.382025222100e-03 5.700722908648e-03 6.704745704578e-03 7.977574577158e-03 9.345212777933e-03 8.448439921252e-03 9.039585471297e-03 6.894779634019e-03 8.877926507747e-03 8.683069958820e-03 7.034241096949e-03 6.649897416412e-03 8.769690911533e-03 9.207879721118e-03 7.621206171626e-03 9.066581731691e-03 8.352318788121e-03 8.493254298540e-03 9.134998719455e-03 8.382332559885e-03 8.313322049446e-03 5.373693064440e-03 7.968296916840e-03 6.290622821966e-03 7.210773351229e-03 9.758523427391e-03 7.407380524207e-03 9.595294101837e-03 8.718511861601e-03 8.523884977867e-03 6.844674765325e-03 8.585586594898e-03 9.469158651190e-03 7.419404785816e-03 8.402468852218e-03 7.922390822309e-03 9.368994445205e-03 7.708527600884e-03 9.354191585490e-03 6.591801273807e-03 6.875743826519e-03 5.487519285486e-03 7.617860765265e-03 6.231028678431e-03 6.221136728297e-03 5.534005280764e-03 6.187417924170e-03 8.318344257208e-03 9.357261813820e-03 8.257127025822e-03 6.866242486675e-03 5.524278384802e-03 9.593001224836e-03 9.180439836294e-03 7.976396710984e-03 5.583999766584e-03 7.972851483253e-03 5.703049229407e-03 9.226592290722e-03 7.900801272482e-03 5.556894716699e-03 8.756567810337e-03 6.554172189432e-03 7.096587477933e-03 8.588481221687e-03 7.896133003108e-03 9.555362142961e-03 7.329661041095e-03 6.511205692755e-03 9.551604404564e-03 7.973198331638e-03 8.162518974849e-03 7.099445757164e-03 5.595471232057e-03 8.428387718396e-03 7.651495046580e-03 9.326925743164e-03 9.400661211924e-03 8.100111705278e-03 5.462929959523e-03 5.674860531199e-03 7.088923251484e-03 7.919800611614e-03 9.591445005079e-03 6.949422036947e-03 8.069049873454e-03 5.512927342486e-03 9.711483168443e-03 9.764726997629e-03 9.547218722752e-03 9.293673311221e-03 9.703271918222e-03 6.559638188640e-03 8.427432264179e-03 9.817246811399e-03 5.502327537170e-03 5.899585385385e-03 9.873766235538e-03 6.375200579050e-03 9.102102753154e-03 5.939980497179e-03 5.261138646499e-03 5.702285159095e-03 6.309889942889e-03 9.754675001217e-03 6.405549087998e-03 9.829292749028e-03 6.324316385987e-03 9.868500378613e-03 6.266071010223e-03 6.450738147389e-03 5.224966805095e-03 5.457943959680e-03 9.593575262011e-03 9.721790113052e-03 9.830619100120e-03 9.853870141160e-03 6.100765293796e-03 6.527680085439e-03 9.783956359575e-03 5.955104734479e-03 9.568137980465e-03 9.489450355661e-03 9.086465229165e-03 9.018814195919e-03 9.872761384609e-03 9.743373436425e-03 7.631884502829e-03 9.046142565300e-03 6.032880655201e-03 7.903184651721e-03 8.052958469337e-03 7.727383957326e-03 6.339059988372e-03 6.823483948139e-03 8.584861453265e-03 9.335513002690e-03 9.285161175968e-03 8.317854573725e-03 8.778465590296e-03 9.499514401987e-03 6.617088335884e-03 6.016078230386e-03 6.222100210969e-03 8.392112257796e-03 7.371023749303e-03 6.902950078319e-03 6.318439191824e-03 5.480084183184e-03 7.062913018106e-03 6.703457256045e-03 6.350659040468e-03 6.141474949439e-03 5.609338246945e-03 6.315274631100e-03 6.274134140325e-03 8.413363018371e-03 7.482923642848e-03 5.637475363702e-03 8.795832046949e-03 9.041538181509e-03 8.863308586401e-03 8.456876416867e-03 7.947870720741e-03 7.563454126728e-03 8.702099428262e-03 7.179215322316e-03 7.095210477676e-03 9.071428064019e-03 8.706568133977e-03 8.613461887179e-03 9.777829521962e-03 9.368007985435e-03 9.708064012515e-03 9.000737462384e-03 5.558926435760e-03 5.897632755747e-03 8.926024973750e-03 9.328602126554e-03 8.837013326618e-03 7.113111099665e-03 8.791104705267e-03 7.811028369747e-03 8.085393503223e-03 8.087248485194e-03 8.146231363481e-03 6.935057106529e-03 7.116485884707e-03 7.610740989584e-03 5.784843197914e-03 7.564920124539e-03 7.491309770344e-03 5.634946601088e-03 6.177523664174e-03 8.742544386642e-03 6.931204937098e-03 7.823688831695e-03 5.528608347376e-03 6.441268571610e-03 5.701472041520e-03 6.807218618143e-03 7.840687255988e-03 6.896291189321e-03 7.318693837109e-03 6.732942856174e-03 8.906890889159e-03 5.635840039093e-03 7.491040021244e-03 8.272726202854e-03 9.077170536629e-03 8.411929681208e-03 8.310711012235e-03 9.458958705509e-03 7.985242484744e-03 8.596041823316e-03 8.734273219687e-03 9.135552459085e-03 9.150520841472e-03 8.450257388025e-03 8.329038889974e-03 7.808540729618e-03 7.734921539714e-03 8.730085649899e-03 9.026753060683e-03 7.740667288708e-03 8.262678090492e-03 7.489050475247e-03 8.609956270708e-03 6.121306321628e-03 8.125927094619e-03 8.155423454333e-03 8.667737934812e-03 7.338993357485e-03 6.400405769288e-03 7.018764773790e-03 5.663832328668e-03 9.588551446940e-03 7.880203897156e-03 7.935424294193e-03 6.444363959684e-03 7.702498377844e-03 9.447577254088e-03 7.934111518220e-03 6.977167317276e-03 9.093207088451e-03 8.607823070736e-03 8.057035431547e-03 6.195501515549e-03 9.314733094485e-03 8.164127454365e-03 6.831989999083e-03 9.733890655607e-03 6.624582839782e-03 9.124937571278e-03 9.294173851122e-03 8.805783754318e-03 6.393818026718e-03 5.904430788494e-03 8.313600662401e-03 8.947206743660e-03 7.442423385390e-03 7.335483968970e-03 9.047602556167e-03 9.366374024618e-03 6.009799768011e-03 9.684081242432e-03 9.651089487801e-03 5.470440188834e-03 6.285021686612e-03 6.792477074885e-03 7.362108236796e-03 8.115815355604e-03 7.022020878919e-03 8.353060633873e-03 6.805918506666e-03 5.579569546695e-03 9.396242342683e-03 9.470918437080e-03 7.336810185848e-03 6.380925509321e-03 5.683744841726e-03 5.614072284167e-03 5.223553862365e-03 9.612126376542e-03 6.569248879978e-03 7.460096001898e-03 5.715062547093e-03 5.427374534463e-03 5.728373163466e-03 5.422020328496e-03 6.916969688633e-03 5.977206898486e-03 9.739098550897e-03 5.468252169179e-03 6.654870627801e-03 6.423754283024e-03 9.871504192190e-03 9.776932636783e-03 9.549650151101e-03 9.539969374145e-03 5.302328710111e-03 9.778260009151e-03 9.878170959035e-03 7.170332826440e-03 5.337050434559e-03 5.671932097334e-03 9.836083403657e-03 9.505676114820e-03 9.709477784354e-03 7.617295813852e-03 9.849868354138e-03 5.395120871023e-03 9.216864649788e-03 5.731731149414e-03 9.672774402362e-03 9.526012907887e-03 7.554495757364e-03 6.674847551431e-03 9.613813252600e-03 9.808288544665e-03 9.283234391729e-03 9.522263124299e-03 6.375875055910e-03 7.399208832126e-03 9.827271157931e-03 9.845340228234e-03 2.261967250334e-03 4.086217559926e-03 1.418714488387e-03 3.526139299704e-03 3.422499542465e-03 1.334999727595e-03 3.772367620756e-03 7.800984288555e-04 3.900974138231e-03 3.372309042145e-03 8.127524158640e-04 3.131692940782e-03 1.367881602091e-03 2.061504017948e-03 9.876871273133e-04 1.619146011154e-03 2.390005705940e-03 1.636436652241e-03 1.165086926178e-03 4.248719773178e-03 1.957269807708e-03 2.083359893632e-03 5.982341324088e-04 4.189100371191e-03 2.884908073478e-03 7.802076501231e-04 3.084875591271e-03 2.308813699699e-03 2.351769889729e-03 6.040160860165e-04 2.235959789854e-03 7.554760371683e-04 2.854417231900e-03 7.249937779841e-04 3.035745893165e-03 4.039395108096e-03 5.124520869321e-04 1.909526020366e-03 6.912101524173e-04 2.743544272062e-03 8.793420089706e-04 1.001868669318e-03 2.914813899399e-03 6.969869822305e-04 3.625321775698e-03 7.906845990710e-04 1.147042121611e-03 3.815941843663e-03 1.469647570103e-03 3.260038154280e-03 2.175904769925e-03 3.496468933629e-03 2.671945371261e-03 1.761616503179e-03 2.467155156477e-03 3.491910867256e-03 5.713954252265e-04 2.492989849076e-03 2.365577742341e-03 3.987540511951e-03 5.318306926188e-04 1.657335768975e-03 3.929604179812e-03 1.527064092833e-03 2.249463176260e-03 1.714987680191e-03 4.209357326709e-03 2.324205548793e-03 3.736903212673e-03 1.499945143027e-03 3.736850127402e-03 1.467798497148e-03 6.229963161475e-04 4.341745984152e-03 2.247730250655e-03 4.090787236776e-03 1.414381135988e-03 3.534511058901e-03 3.420717029458e-03 1.338985950887e-03 3.780872558085e-03 7.907742732055e-04 3.896199678815e-03 3.365075716135e-03 8.164341251384e-04 3.138052718567e-03 1.369025645490e-03 2.066228305940e-03 9.957701299540e-04 1.619252987173e-03 2.381208472905e-03 1.658618339345e-03 1.158793873187e-03 4.251885425571e-03 1.947457110656e-03 2.084484356005e-03 5.861538147099e-04 4.183394821704e-03 2.876518655894e-03 7.819537685666e-04 3.084492459094e-03 2.304496685290e-03 2.346151851625e-03 6.012774704157e-04 2.228733605457e-03 7.704889245844e-04 2.860247462809e-03 7.318670491358e-04 3.034542930862e-03 4.041132137584e-03 5.085037059891e-04 1.906794562163e-03 6.860861912551e-04 2.750592838277e-03 8.695787673282e-04 1.003018527366e-03 2.910145226223e-03 6.936647647040e-04 3.621534625413e-03 7.902067161171e-04 1.146439109512e-03 3.815209959209e-03 1.464072244325e-03 3.260290146210e-03 2.172958270474e-03 3.504562978176e-03 2.672865024518e-03 1.733055842574e-03 2.471673083462e-03 3.493611210801e-03 5.750198500034e-04 2.478442451696e-03 2.364484540534e-03 3.999271467614e-03 5.338220669839e-04 1.650979946677e-03 3.930202395409e-03 1.523118529486e-03 2.246309141697e-03 1.723079957522e-03 4.209097950003e-03 2.318533208509e-03 3.744553006460e-03 1.507578167171e-03 3.744030817691e-03 1.474521341818e-03 6.193231182953e-04 4.342234839827e-03 0.000000000000e+00 0.000000000000e+00 0.000000000000e+00 0.000000000000e+00 0.000000000000e+00 0.000000000000e+00 0.000000000000e+00 0.000000000000e+00 0.000000000000e+00 0.000000000000e+00 0.000000000000e+00 0.000000000000e+00 0.000000000000e+00 0.000000000000e+00 0.000000000000e+00 0.000000000000e+00 0.000000000000e+00 0.000000000000e+00 0.000000000000e+00 0.000000000000e+00 0.000000000000e+00 0.000000000000e+00 0.000000000000e+00 0.000000000000e+00 0.000000000000e+00 0.000000000000e+00 0.000000000000e+00 0.