 TITLE = "Profiles along polylines"
 VARIABLES = "DIST" "PCE-l" "PCE-h" 
 ZONE T="TIME=0.000000000000e+00"
0.000000000000e+00 1.000000000000e-10 1.000000000000e-10 
7.300000000000e+00 1.000000000000e-10 1.000000000000e-10 
1.460000000000e+01 1.000000000000e-10 1.000000000000e-10 
2.190000000000e+01 1.000000000000e-10 1.000000000000e-10 
2.920000000000e+01 1.000000000000e-10 1.000000000000e-10 
3.650000000000e+01 1.000000000000e-10 1.000000000000e-10 
4.380000000000e+01 1.000000000000e-10 1.000000000000e-10 
5.110000000000e+01 1.000000000000e-10 1.000000000000e-10 
5.840000000000e+01 1.000000000000e-10 1.000000000000e-10 
6.570000000000e+01 1.000000000000e-10 1.000000000000e-10 
7.300000000000e+01 1.000000000000e-10 1.000000000000e-10 
8.030000000000e+01 1.000000000000e-10 1.000000000000e-10 
8.760000000000e+01 1.000000000000e-10 1.000000000000e-10 
9.490000000000e+01 1.000000000000e-10 1.000000000000e-10 
1.022000000000e+02 1.000000000000e-10 1.000000000000e-10 
1.095000000000e+02 1.000000000000e-10 1.000000000000e-10 
1.168000000000e+02 1.000000000000e-10 1.000000000000e-10 
1.241000000000e+02 1.000000000000e-10 1.000000000000e-10 
1.314000000000e+02 1.000000000000e-10 1.000000000000e-10 
1.387000000000e+02 1.000000000000e-10 1.000000000000e-10 
1.460000000000e+02 1.000000000000e-10 1.000000000000e-10 
1.533000000000e+02 1.000000000000e-10 1.000000000000e-10 
1.606000000000e+02 1.000000000000e-10 1.000000000000e-10 
1.679000000000e+02 1.000000000000e-10 1.000000000000e-10 
1.752000000000e+02 1.000000000000e-10 1.000000000000e-10 
1.825000000000e+02 1.000000000000e-10 1.000000000000e-10 
1.898000000000e+02 1.000000000000e-10 1.000000000000e-10 
1.971000000000e+02 1.000000000000e-10 1.000000000000e-10 
2.044000000000e+02 1.000000000000e-10 1.000000000000e-10 
2.117000000000e+02 1.000000000000e-10 1.000000000000e-10 
2.190000000000e+02 1.000000000000e-10 1.000000000000e-10 
2.263000000000e+02 1.000000000000e-10 1.000000000000e-10 
2.336000000000e+02 1.000000000000e-10 1.000000000000e-10 
2.409000000000e+02 1.000000000000e-10 1.000000000000e-10 
2.482000000000e+02 1.000000000000e-10 1.000000000000e-10 
2.555000000000e+02 1.000000000000e-10 1.000000000000e-10 
2.628000000000e+02 1.000000000000e-10 1.000000000000e-10 
2.701000000000e+02 1.000000000000e-10 1.000000000000e-10 
2.774000000000e+02 1.000000000000e-10 1.000000000000e-10 
2.847000000000e+02 1.000000000000e-10 1.000000000000e-10 
2.920000000000e+02 1.000000000000e-10 1.000000000000e-10 
2.993000000000e+02 1.000000000000e-10 1.000000000000e-10 
3.066000000000e+02 1.000000000000e-10 1.000000000000e-10 
3.139000000000e+02 1.000000000000e-10 1.000000000000e-10 
3.212000000000e+02 1.000000000000e-10 1.000000000000e-10 
3.285000000000e+02 1.000000000000e-10 1.000000000000e-10 
3.358000000000e+02 1.000000000000e-10 1.000000000000e-10 
3.431000000000e+02 1.000000000000e-10 1.000000000000e-10 
3.504000000000e+02 1.000000000000e-10 1.000000000000e-10 
3.577000000000e+02 1.000000000000e-10 1.000000000000e-10 
3.650000000000e+02 1.000000000000e-10 1.000000000000e-10 
3.723000000000e+02 1.000000000000e-10 1.000000000000e-10 
3.796000000000e+02 1.000000000000e-10 1.000000000000e-10 
3.869000000000e+02 1.000000000000e-10 1.000000000000e-10 
3.942000000000e+02 1.000000000000e-10 1.000000000000e-10 
4.015000000000e+02 1.000000000000e-10 1.000000000000e-10 
4.088000000000e+02 1.000000000000e-10 1.000000000000e-10 
4.161000000000e+02 1.000000000000e-10 1.000000000000e-10 
4.234000000000e+02 1.000000000000e-10 1.000000000000e-10 
4.307000000000e+02 1.000000000000e-10 1.000000000000e-10 
4.380000000000e+02 1.000000000000e-10 1.000000000000e-10 
4.453000000000e+02 1.000000000000e-10 1.000000000000e-10 
4.526000000000e+02 1.000000000000e-10 1.000000000000e-10 
4.599000000000e+02 1.000000000000e-10 1.000000000000e-10 
4.672000000000e+02 1.000000000000e-10 1.000000000000e-10 
4.745000000000e+02 1.000000000000e-10 1.000000000000e-10 
4.818000000000e+02 1.000000000000e-10 1.000000000000e-10 
4.891000000000e+02 1.000000000000e-10 1.000000000000e-10 
4.964000000000e+02 1.000000000000e-10 1.000000000000e-10 
5.037000000000e+02 1.000000000000e-10 1.000000000000e-10 
5.110000000000e+02 1.000000000000e-10 1.000000000000e-10 
5.183000000000e+02 1.000000000000e-10 1.000000000000e-10 
5.256000000000e+02 1.000000000000e-10 1.000000000000e-10 
5.329000000000e+02 1.000000000000e-10 1.000000000000e-10 
5.402000000000e+02 1.000000000000e-10 1.000000000000e-10 
5.475000000000e+02 1.000000000000e-10 1.000000000000e-10 
5.548000000000e+02 1.000000000000e-10 1.000000000000e-10 
5.621000000000e+02 1.000000000000e-10 1.000000000000e-10 
5.694000000000e+02 1.000000000000e-10 1.000000000000e-10 
5.767000000000e+02 1.000000000000e-10 1.000000000000e-10 
5.840000000000e+02 1.000000000000e-10 1.000000000000e-10 
5.913000000000e+02 1.000000000000e-10 1.000000000000e-10 
5.986000000000e+02 1.000000000000e-10 1.000000000000e-10 
6.059000000000e+02 1.000000000000e-10 1.000000000000e-10 
6.132000000000e+02 1.000000000000e-10 1.000000000000e-10 
6.205000000000e+02 1.000000000000e-10 1.000000000000e-10 
6.278000000000e+02 1.000000000000e-10 1.000000000000e-10 
6.351000000000e+02 1.000000000000e-10 1.000000000000e-10 
6.424000000000e+02 1.000000000000e-10 1.000000000000e-10 
6.497000000000e+02 1.000000000000e-10 1.000000000000e-10 
6.570000000000e+02 1.000000000000e-10 1.000000000000e-10 
6.643000000000e+02 1.000000000000e-10 1.000000000000e-10 
6.716000000000e+02 1.000000000000e-10 1.000000000000e-10 
6.789000000000e+02 1.000000000000e-10 1.000000000000e-10 
6.862000000000e+02 1.000000000000e-10 1.000000000000e-10 
6.935000000000e+02 1.000000000000e-10 1.000000000000e-10 
7.008000000000e+02 1.000000000000e-10 1.000000000000e-10 
7.081000000000e+02 1.000000000000e-10 1.000000000000e-10 
7.154000000000e+02 1.000000000000e-10 1.000000000000e-10 
7.227000000000e+02 1.000000000000e-10 1.000000000000e-10 
7.300000000000e+02 1.000000000000e-10 1.000000000000e-10 
7.373000000000e+02 1.000000000000e-10 1.000000000000e-10 
7.446000000000e+02 1.000000000000e-10 1.000000000000e-10 
7.519000000000e+02 1.000000000000e-10 1.000000000000e-10 
7.592000000000e+02 1.000000000000e-10 1.000000000000e-10 
7.665000000000e+02 1.000000000000e-10 1.000000000000e-10 
7.738000000000e+02 1.000000000000e-10 1.000000000000e-10 
7.811000000000e+02 1.000000000000e-10 1.000000000000e-10 
7.884000000000e+02 1.000000000000e-10 1.000000000000e-10 
7.957000000000e+02 1.000000000000e-10 1.000000000000e-10 
8.030000000000e+02 1.000000000000e-10 1.000000000000e-10 
8.103000000000e+02 1.000000000000e-10 1.000000000000e-10 
8.176000000000e+02 1.000000000000e-10 1.000000000000e-10 
8.249000000000e+02 1.000000000000e-10 1.000000000000e-10 
8.322000000000e+02 1.000000000000e-10 1.000000000000e-10 
8.395000000000e+02 1.000000000000e-10 1.000000000000e-10 
8.468000000000e+02 1.000000000000e-10 1.000000000000e-10 
8.541000000000e+02 1.000000000000e-10 1.000000000000e-10 
8.614000000000e+02 1.000000000000e-10 1.000000000000e-10 
8.687000000000e+02 1.000000000000e-10 1.000000000000e-10 
8.760000000000e+02 1.000000000000e-10 1.000000000000e-10 
 TITLE = "Profiles along polylines"
 VARIABLES = "DIST" "PCE-l" "PCE-h" 
 ZONE T="TIME=6.307200000000e+08"
0.000000000000e+00 9.892176365800e-01 1.078236342500e-02 
7.300000000000e+00 6.796037270271e-01 7.421304595901e-03 
1.460000000000e+01 4.644803459211e-01 5.081678558258e-03 
2.190000000000e+01 3.174526318333e-01 3.479638470021e-03 
2.920000000000e+01 2.169654202642e-01 2.382654420809e-03 
3.650000000000e+01 1.482866697900e-01 1.631503427135e-03 
4.380000000000e+01 1.013476544350e-01 1.117158833228e-03 
5.110000000000e+01 6.926682670819e-02 7.649655145696e-04 
5.840000000000e+01 4.734094053759e-02 5.238039758328e-04 
6.570000000000e+01 3.235552655560e-02 3.586705542564e-04 
7.300000000000e+01 2.211363117840e-02 2.455967736512e-04 
8.030000000000e+01 1.511372973807e-02 1.681704129655e-04 
8.760000000000e+01 1.032959375836e-02 1.151533360007e-04 
9.490000000000e+01 7.059839567182e-03 7.885031949577e-05 
1.022000000000e+02 4.825101149204e-03 5.399212129241e-05 
1.095000000000e+02 3.297752148402e-03 3.697067025594e-05 
1.168000000000e+02 2.253873835183e-03 2.531536873264e-05 
1.241000000000e+02 1.540427247479e-03 1.733449487449e-05 
1.314000000000e+02 1.052816740590e-03 1.186965577068e-05 
1.387000000000e+02 7.195556239081e-04 8.127651201792e-06 
1.460000000000e+02 4.917857743834e-04 5.565343709527e-06 
1.533000000000e+02 3.361147347634e-04 3.810824284921e-06 
1.606000000000e+02 2.297201783372e-04 2.609431258348e-06 
1.679000000000e+02 1.570040075104e-04 1.786787052796e-06 
1.752000000000e+02 1.073055860951e-04 1.223488053892e-06 
1.825000000000e+02 7.333882102590e-05 8.377735979598e-07 
1.898000000000e+02 5.012397644136e-05 5.736587285869e-07 
1.971000000000e+02 3.425761389588e-05 3.928081974463e-07 
2.044000000000e+02 2.341362743257e-05 2.689722517790e-07 
2.117000000000e+02 1.600222219834e-05 1.841765846457e-07 
2.190000000000e+02 1.093684077888e-05 1.261134340348e-07 
2.263000000000e+02 7.474867223877e-06 8.635515895911e-08 
2.336000000000e+02 5.108755000428e-06 5.913100009041e-08 
2.409000000000e+02 3.491617558928e-06 4.048947640401e-08 
2.482000000000e+02 2.386372645200e-06 2.772484310775e-08 
2.555000000000e+02 1.630984578719e-06 1.898436316022e-08 
2.628000000000e+02 1.114708850036e-06 1.299938992241e-08 
2.701000000000e+02 7.618562565523e-07 8.901227549065e-09 
2.774000000000e+02 5.206964806507e-07 6.095044075077e-09 
2.847000000000e+02 3.558739548589e-07 4.173532083606e-09 
2.920000000000e+02 2.432248168398e-07 2.857793071522e-09 
2.993000000000e+02 1.662337607796e-07 1.956849704539e-09 
3.066000000000e+02 1.136139156031e-07 1.339939222823e-09 
3.139000000000e+02 7.764889398009e-08 9.174963467968e-10 
3.212000000000e+02 5.306875433562e-08 6.282369315896e-10 
3.285000000000e+02 3.626957890018e-08 4.301724400205e-10 
3.358000000000e+02 2.478826514883e-08 2.945518145264e-10 
3.431000000000e+02 1.694141778645e-08 2.016883541781e-10 
3.504000000000e+02 1.157852858566e-08 1.381019915847e-10 
3.577000000000e+02 7.913288362180e-09 9.456252522519e-11 
3.650000000000e+02 5.408297974948e-09 6.474976265228e-11 
3.723000000000e+02 3.696274626545e-09 4.433608084724e-11 
3.796000000000e+02 2.526200697173e-09 3.035822811348e-11 
3.869000000000e+02 1.726519430279e-09 2.078717822089e-11 
3.942000000000e+02 1.179981205156e-09 1.423359679523e-11 
4.015000000000e+02 8.064523457413e-10 9.746165428306e-12 
4.088000000000e+02 5.511658856165e-10 6.673488221023e-12 
4.161000000000e+02 3.766916111915e-10 4.569535102148e-12 
4.234000000000e+02 2.574480272539e-10 3.128896067265e-12 
4.307000000000e+02 1.759515868351e-10 2.142447837878e-12 
4.380000000000e+02 1.202532458299e-10 1.466997509457e-12 
4.453000000000e+02 8.218648886707e-11 1.004496657839e-12 
4.526000000000e+02 5.616995121964e-11 6.878086221016e-13 
4.599000000000e+02 3.838907664148e-11 4.709629414340e-13 
4.672000000000e+02 2.623682544459e-11 3.224822793378e-13 
4.745000000000e+02 1.793142918850e-11 2.208131709260e-13 
4.818000000000e+02 1.225514700403e-11 1.511973202205e-13 
4.891000000000e+02 8.375719888826e-12 1.035292847151e-13 
4.964000000000e+02 5.724344525073e-12 7.088956853271e-14 
5.037000000000e+02 3.912275085106e-12 4.854018783575e-14 
5.110000000000e+02 2.673825147277e-12 3.323690472589e-14 
5.183000000000e+02 1.827412633388e-12 2.275829337685e-14 
5.256000000000e+02 1.248936169164e-12 1.558327775580e-14 
5.329000000000e+02 8.535792733150e-13 1.067033192900e-14 
5.402000000000e+02 5.833745587540e-13 7.306292490420e-15 
5.475000000000e+02 3.987044523234e-13 5.002834708766e-15 
5.548000000000e+02 2.724926338650e-13 3.425589633981e-15 
5.621000000000e+02 1.862336440961e-13 2.345601425098e-15 
5.694000000000e+02 1.272806826133e-13 1.606105436747e-15 
5.767000000000e+02 8.698886317776e-14 1.099742005352e-15 
5.840000000000e+02 5.945322890652e-14 7.530392791326e-16 
5.913000000000e+02 4.063056501445e-14 5.155988529422e-16 
5.986000000000e+02 2.777533537307e-14 3.531177184821e-16 
6.059000000000e+02 1.897475300878e-14 2.416806808369e-16 
6.132000000000e+02 1.300966191741e-14 1.659074275118e-16 
6.205000000000e+02 8.883170110319e-15 1.133660376925e-16 
6.278000000000e+02 6.298559433818e-15 7.990471999876e-17 
6.351000000000e+02 4.360340878073e-15 5.458870560733e-17 
6.424000000000e+02 4.235207410306e-15 5.076683640743e-17 
6.497000000000e+02 5.512208835095e-15 6.207011891180e-17 
6.570000000000e+02 6.998397697175e-15 7.499702730888e-17 
6.643000000000e+02 8.899877862483e-15 9.151864056696e-17 
6.716000000000e+02 1.064919641500e-14 1.137344748290e-16 
6.789000000000e+02 -6.122764846183e-15 3.249633828784e-17 
6.862000000000e+02 -1.625393938834e-13 -1.024844012152e-15 
6.935000000000e+02 -9.047385131139e-13 -6.496838370732e-15 
7.008000000000e+02 -3.651663991527e-12 -2.771098515513e-14 
7.081000000000e+02 -1.219245692395e-11 -9.591791942434e-14 
7.154000000000e+02 -3.520208522353e-11 -2.845792113220e-13 
7.227000000000e+02 -8.987647420292e-11 -7.425974562151e-13 
7.300000000000e+02 -2.058920009488e-10 -1.731890948990e-12 
7.373000000000e+02 -4.277890751785e-10 -3.652214989838e-12 
7.446000000000e+02 -8.130877513716e-10 -7.027734303106e-12 
7.519000000000e+02 -1.423666324158e-09 -1.243091876470e-11 
7.592000000000e+02 -2.309914711901e-09 -2.033665949490e-11 
7.665000000000e+02 -3.490240208037e-09 -3.092925679424e-11 
7.738000000000e+02 -4.932186716753e-09 -4.391981643036e-11 
7.811000000000e+02 -6.542327476061e-09 -5.844494589559e-11 
7.884000000000e+02 -8.171998338207e-09 -7.311367957223e-11 
7.957000000000e+02 -9.638623137678e-09 -8.620977422249e-11 
8.030000000000e+02 -1.076176513372e-08 -9.603180643673e-11 
8.103000000000e+02 -1.139757294742e-08 -1.012353402751e-10 
8.176000000000e+02 -1.147437638492e-08 -1.011632991178e-10 
8.249000000000e+02 -1.099438951903e-08 -9.589291390667e-11 
8.322000000000e+02 -1.005039209563e-08 -8.634393687726e-11 
8.395000000000e+02 -8.760211210145e-09 -7.373166825685e-11 
8.468000000000e+02 -7.319904426676e-09 -5.991059519343e-11 
8.541000000000e+02 -5.813133686466e-09 -4.581061849437e-11 
8.614000000000e+02 -4.494487947050e-09 -3.367103808977e-11 
8.687000000000e+02 -3.195055935577e-09 -2.216354017381e-11 
8.760000000000e+02 -2.425936195736e-09 -1.556484670747e-11 
