 TITLE = "Time curves in points"
 VARIABLES = "TIME "  "PRESSURE1"  "PRESSURE2"  "PRESSURE_W"  "SATURATION1" SATURATION2  "VELOCITY_X1"  "VELOCITY_Y1"  "VELOCITY_X2"  "VELOCITY_Y2" 
 ZONE T="POINT=POINT4"
0.000000000000e+00 5.000000000000e+04 0.000000000000e+00 -5.000000000000e+04 1.000000000000e-02 9.900000000000e-01 0.000000000000e+00 0.000000000000e+00 0.000000000000e+00 0.000000000000e+00 
1.000000000000e+01 5.000000000353e+03 2.000000000000e+05 1.949999999996e+05 4.153274421831e-01 5.846725578169e-01 6.594387003313e-04 -3.221081471988e-16 -5.606085278678e-05 6.051106317994e-15 
