 TITLE = "Profiles along polylines"
 VARIABLES = "DIST" "PRESSURE1" "PRESSURE2" "PRESSURE_W" "SATURATION1" SATURATION2 "VELOCITY_X1" "VELOCITY_Y1" "VELOCITY_X2" "VELOCITY_Y2" 
 ZONE T="TIME=0.000000000000e+00"
0.000000000000e+00 5.000000000000e+04 0.000000000000e+00 -5.000000000000e+04 1.000000000000e-02 9.900000000000e-01 0.000000000000e+00 0.000000000000e+00 0.000000000000e+00 0.000000000000e+00 
8.965517241379e-02 5.000000000000e+04 0.000000000000e+00 -5.000000000000e+04 1.000000000000e-02 9.900000000000e-01 0.000000000000e+00 0.000000000000e+00 0.000000000000e+00 0.000000000000e+00 
1.793103448276e-01 5.000000000000e+04 0.000000000000e+00 -5.000000000000e+04 1.000000000000e-02 9.900000000000e-01 0.000000000000e+00 0.000000000000e+00 0.000000000000e+00 0.000000000000e+00 
2.689655172414e-01 5.000000000000e+04 0.000000000000e+00 -5.000000000000e+04 1.000000000000e-02 9.900000000000e-01 0.000000000000e+00 0.000000000000e+00 0.000000000000e+00 0.000000000000e+00 
3.586206896552e-01 5.000000000000e+04 0.000000000000e+00 -5.000000000000e+04 1.000000000000e-02 9.900000000000e-01 0.000000000000e+00 0.000000000000e+00 0.000000000000e+00 0.000000000000e+00 
4.482758620690e-01 5.000000000000e+04 0.000000000000e+00 -5.000000000000e+04 1.000000000000e-02 9.900000000000e-01 0.000000000000e+00 0.000000000000e+00 0.000000000000e+00 0.000000000000e+00 
5.379310344828e-01 5.000000000000e+04 0.000000000000e+00 -5.000000000000e+04 1.000000000000e-02 9.900000000000e-01 0.000000000000e+00 0.000000000000e+00 0.000000000000e+00 0.000000000000e+00 
6.275862068966e-01 5.000000000000e+04 0.000000000000e+00 -5.000000000000e+04 1.000000000000e-02 9.900000000000e-01 0.000000000000e+00 0.000000000000e+00 0.000000000000e+00 0.000000000000e+00 
7.172413793105e-01 5.000000000000e+04 0.000000000000e+00 -5.000000000000e+04 1.000000000000e-02 9.900000000000e-01 0.000000000000e+00 0.000000000000e+00 0.000000000000e+00 0.000000000000e+00 
8.068965517245e-01 5.000000000000e+04 0.000000000000e+00 -5.000000000000e+04 1.000000000000e-02 9.900000000000e-01 0.000000000000e+00 0.000000000000e+00 0.000000000000e+00 0.000000000000e+00 
8.965517241385e-01 5.000000000000e+04 0.000000000000e+00 -5.000000000000e+04 1.000000000000e-02 9.900000000000e-01 0.000000000000e+00 0.000000000000e+00 0.000000000000e+00 0.000000000000e+00 
9.862068965524e-01 5.000000000000e+04 0.000000000000e+00 -5.000000000000e+04 1.000000000000e-02 9.900000000000e-01 0.000000000000e+00 0.000000000000e+00 0.000000000000e+00 0.000000000000e+00 
1.075862068966e+00 5.000000000000e+04 0.000000000000e+00 -5.000000000000e+04 1.000000000000e-02 9.900000000000e-01 0.000000000000e+00 0.000000000000e+00 0.000000000000e+00 0.000000000000e+00 
1.165517241380e+00 5.000000000000e+04 0.000000000000e+00 -5.000000000000e+04 1.000000000000e-02 9.900000000000e-01 0.000000000000e+00 0.000000000000e+00 0.000000000000e+00 0.000000000000e+00 
1.255172413794e+00 5.000000000000e+04 0.000000000000e+00 -5.000000000000e+04 1.000000000000e-02 9.900000000000e-01 0.000000000000e+00 0.000000000000e+00 0.000000000000e+00 0.000000000000e+00 
1.344827586208e+00 5.000000000000e+04 0.000000000000e+00 -5.000000000000e+04 1.000000000000e-02 9.900000000000e-01 0.000000000000e+00 0.000000000000e+00 0.000000000000e+00 0.000000000000e+00 
1.434482758622e+00 5.000000000000e+04 0.000000000000e+00 -5.000000000000e+04 1.000000000000e-02 9.900000000000e-01 0.000000000000e+00 0.000000000000e+00 0.000000000000e+00 0.000000000000e+00 
1.524137931036e+00 5.000000000000e+04 0.000000000000e+00 -5.000000000000e+04 1.000000000000e-02 9.900000000000e-01 0.000000000000e+00 0.000000000000e+00 0.000000000000e+00 0.000000000000e+00 
1.613793103450e+00 5.000000000000e+04 0.000000000000e+00 -5.000000000000e+04 1.000000000000e-02 9.900000000000e-01 0.000000000000e+00 0.000000000000e+00 0.000000000000e+00 0.000000000000e+00 
1.703448275863e+00 5.000000000000e+04 0.000000000000e+00 -5.000000000000e+04 1.000000000000e-02 9.900000000000e-01 0.000000000000e+00 0.000000000000e+00 0.000000000000e+00 0.000000000000e+00 
1.793103448277e+00 5.000000000000e+04 0.000000000000e+00 -5.000000000000e+04 1.000000000000e-02 9.900000000000e-01 0.000000000000e+00 0.000000000000e+00 0.000000000000e+00 0.000000000000e+00 
1.882758620691e+00 5.000000000000e+04 0.000000000000e+00 -5.000000000000e+04 1.000000000000e-02 9.900000000000e-01 0.000000000000e+00 0.000000000000e+00 0.000000000000e+00 0.000000000000e+00 
1.972413793105e+00 5.000000000000e+04 0.000000000000e+00 -5.000000000000e+04 1.000000000000e-02 9.900000000000e-01 0.000000000000e+00 0.000000000000e+00 0.000000000000e+00 0.000000000000e+00 
2.062068965518e+00 5.000000000000e+04 0.000000000000e+00 -5.000000000000e+04 1.000000000000e-02 9.900000000000e-01 0.000000000000e+00 0.000000000000e+00 0.000000000000e+00 0.000000000000e+00 
2.151724137932e+00 5.000000000000e+04 0.000000000000e+00 -5.000000000000e+04 1.000000000000e-02 9.900000000000e-01 0.000000000000e+00 0.000000000000e+00 0.000000000000e+00 0.000000000000e+00 
2.241379310346e+00 5.000000000000e+04 0.000000000000e+00 -5.000000000000e+04 1.000000000000e-02 9.900000000000e-01 0.000000000000e+00 0.000000000000e+00 0.000000000000e+00 0.000000000000e+00 
2.331034482759e+00 5.000000000000e+04 0.000000000000e+00 -5.000000000000e+04 1.000000000000e-02 9.900000000000e-01 0.000000000000e+00 0.000000000000e+00 0.000000000000e+00 0.000000000000e+00 
2.420689655173e+00 5.000000000000e+04 0.000000000000e+00 -5.000000000000e+04 1.000000000000e-02 9.900000000000e-01 0.000000000000e+00 0.000000000000e+00 0.000000000000e+00 0.000000000000e+00 
2.510344827586e+00 5.000000000000e+04 0.000000000000e+00 -5.000000000000e+04 1.000000000000e-02 9.900000000000e-01 0.000000000000e+00 0.000000000000e+00 0.000000000000e+00 0.000000000000e+00 
2.600000000000e+00 5.000000000000e+04 0.000000000000e+00 -5.000000000000e+04 1.000000000000e-02 9.900000000000e-01 0.000000000000e+00 0.000000000000e+00 0.000000000000e+00 0.000000000000e+00 
 TITLE = "Profiles along polylines"
 VARIABLES = "DIST" "PRESSURE1" "PRESSURE2" "PRESSURE_W" "SATURATION1" SATURATION2 "VELOCITY_X1" "VELOCITY_Y1" "VELOCITY_X2" "VELOCITY_Y2" 
 ZONE T="TIME=1.000000000000e+01"
0.000000000000e+00 5.000000000000e+03 2.000000000000e+05 1.950000000000e+05 4.153274422154e-01 5.846725577846e-01 6.594387005416e-04 5.855452410474e-15 -5.606085277698e-05 -3.463334821652e-15 
8.965517241379e-02 3.397391476176e+04 2.001925235868e+05 1.662186088251e+05 -1.036081255005e-03 1.001036081255e+00 -4.186944155558e-05 -3.671453201540e-16 -1.110352726194e-04 4.258333936760e-14 
1.793103448276e-01 4.999923278070e+04 2.001925246118e+05 1.501932918311e+05 9.744517208842e-03 9.902554827912e-01 -5.166954268213e-11 2.530506294236e-18 -5.607226494003e-10 1.018944190849e-13 
2.689655172414e-01 4.999999999211e+04 2.001925246117e+05 1.501925246196e+05 1.000000000280e-02 9.899999999972e-01 4.278724928392e-15 7.242487620718e-22 1.745921072259e-13 2.650295195691e-15 
3.586206896552e-01 5.000000000003e+04 2.001925246115e+05 1.501925246115e+05 9.999999999990e-03 9.900000000000e-01 4.589971739671e-20 3.310275983693e-22 2.070028362025e-13 2.553317385606e-15 
4.482758620690e-01 4.999999999996e+04 2.001925246113e+05 1.501925246114e+05 1.000000000002e-02 9.900000000000e-01 2.146746644004e-21 -5.102607079272e-22 2.084253797630e-13 8.583743340735e-16 
5.379310344828e-01 5.000000000003e+04 2.001925246111e+05 1.501925246111e+05 9.999999999988e-03 9.900000000000e-01 2.483081280984e-21 3.559743805323e-22 2.069283099735e-13 8.769623252171e-16 
6.275862068966e-01 5.000000000002e+04 2.001925246109e+05 1.501925246109e+05 9.999999999991e-03 9.900000000000e-01 2.072833032661e-21 2.885016449566e-22 2.034422622072e-13 7.138829321440e-16 
7.172413793105e-01 5.000000000003e+04 2.001925246108e+05 1.501925246107e+05 9.999999999989e-03 9.900000000000e-01 1.609061904204e-21 3.462252102850e-22 1.989757694924e-13 6.118225648301e-16 
8.068965517245e-01 4.999999999995e+04 2.001925246106e+05 1.501925246106e+05 1.000000000002e-02 9.900000000000e-01 2.021160303333e-21 -6.227762231274e-22 1.939123217699e-13 2.820947176388e-16 
8.965517241385e-01 5.000000000004e+04 2.001925246104e+05 1.501925246104e+05 9.999999999986e-03 9.900000000000e-01 2.092621938521e-21 4.319768353240e-22 1.883505976913e-13 1.273150134571e-16 
9.862068965524e-01 4.999999999998e+04 2.001925246102e+05 1.501925246103e+05 1.000000000001e-02 9.900000000000e-01 1.761304933471e-21 -2.563119332829e-22 1.819656465392e-13 2.275026550312e-16 
1.075862068966e+00 5.000000000002e+04 2.001925246101e+05 1.501925246100e+05 9.999999999993e-03 9.900000000000e-01 1.871739234711e-21 2.269305881400e-22 1.751034265690e-13 1.895195875748e-16 
1.165517241380e+00 4.999999999999e+04 2.001925246099e+05 1.501925246099e+05 1.000000000000e-02 9.900000000000e-01 1.582233428411e-21 -7.113323702495e-23 1.676966129751e-13 4.039765875700e-16 
1.255172413794e+00 5.000000000000e+04 2.001925246098e+05 1.501925246098e+05 1.000000000000e-02 9.900000000000e-01 1.673347823210e-21 -4.410602216190e-23 1.596948071810e-13 8.664592867839e-16 
1.344827586208e+00 5.000000000000e+04 2.001925246096e+05 1.501925246096e+05 9.999999999999e-03 9.900000000000e-01 1.551441072560e-21 3.127342095520e-23 1.510378987074e-13 1.197289295801e-15 
1.434482758622e+00 5.000000000000e+04 2.001925246095e+05 1.501925246095e+05 1.000000000000e-02 9.900000000000e-01 1.448584948354e-21 -1.823560985005e-23 1.419983556428e-13 1.244358928471e-15 
1.524137931036e+00 5.000000000000e+04 2.001925246094e+05 1.501925246094e+05 9.999999999999e-03 9.900000000000e-01 1.397129651816e-21 3.348475378368e-23 1.325516828880e-13 1.581028422199e-15 
1.613793103450e+00 5.000000000001e+04 2.001925246092e+05 1.501925246092e+05 9.999999999998e-03 9.900000000000e-01 1.289728699279e-21 7.935333896965e-23 1.226681855609e-13 1.619110214487e-15 
1.703448275863e+00 5.000000000001e+04 2.001925246091e+05 1.501925246091e+05 9.999999999997e-03 9.900000000000e-01 1.110072651353e-21 1.132426862310e-22 1.124095803942e-13 1.368647318537e-15 
1.793103448277e+00 5.000000000000e+04 2.001925246090e+05 1.501925246090e+05 1.000000000000e-02 9.900000000000e-01 1.006783332825e-21 -4.527004472861e-24 1.018055637314e-13 1.191931869659e-15 
1.882758620691e+00 5.000000000000e+04 2.001925246089e+05 1.501925246089e+05 9.999999999999e-03 9.900000000000e-01 9.269167919241e-22 3.741604648516e-23 9.109469137269e-14 7.202217619425e-16 
1.972413793105e+00 5.000000000000e+04 2.001925246089e+05 1.501925246089e+05 1.000000000000e-02 9.900000000000e-01 8.126951225660e-22 -1.611220407371e-23 8.010330949085e-14 6.502666316270e-16 
2.062068965518e+00 5.000000000000e+04 2.001925246088e+05 1.501925246088e+05 9.999999999999e-03 9.900000000000e-01 7.239877310903e-22 2.243382003874e-23 6.892154402843e-14 3.030337203806e-16 
2.151724137932e+00 5.000000000000e+04 2.001925246087e+05 1.501925246087e+05 9.999999999999e-03 9.900000000000e-01 5.676680678693e-22 2.549354063122e-23 5.772735824811e-14 3.512486074431e-16 
2.241379310346e+00 5.000000000000e+04 2.001925246087e+05 1.501925246087e+05 1.000000000000e-02 9.900000000000e-01 4.594237973552e-22 -2.240337030728e-23 4.623935325288e-14 4.448348436508e-16 
2.331034482759e+00 5.000000000000e+04 2.001925246087e+05 1.501925246087e+05 1.000000000000e-02 9.900000000000e-01 3.674652067935e-22 1.256823383819e-24 3.483289513628e-14 6.231718845607e-16 
2.420689655173e+00 5.000000000000e+04 2.001925246086e+05 1.501925246086e+05 1.000000000000e-02 9.900000000000e-01 2.404368452708e-22 9.870613782738e-24 2.342640348262e-14 1.008080246909e-15 
2.510344827586e+00 5.000000000000e+04 2.001925246086e+05 1.501925246086e+05 1.000000000000e-02 9.900000000000e-01 6.848414276243e-23 1.317563564275e-23 1.167182259386e-14 1.409354139851e-15 
2.600000000000e+00 4.999999999999e+04 2.001925246086e+05 1.501925246086e+05 1.000000000000e-02 9.900000000000e-01 -4.191839843762e-23 -9.718000019436e-23 5.782910424216e-15 1.517828080237e-15 
