 TITLE = "Profiles along polylines"
 VARIABLES = "DIST" "PRESSURE1" "PRESSURE2" "PRESSURE_W" "SATURATION1" SATURATION2 "VELOCITY_X1" "VELOCITY_Y1" "VELOCITY_X2" "VELOCITY_Y2" 
 ZONE T="TIME=0.000000000000e+00"
0.000000000000e+00 5.000000000000e+04 0.000000000000e+00 -5.000000000000e+04 1.000000000000e-02 9.900000000000e-01 0.000000000000e+00 0.000000000000e+00 0.000000000000e+00 0.000000000000e+00 
8.965517241379e-02 5.000000000000e+04 0.000000000000e+00 -5.000000000000e+04 1.000000000000e-02 9.900000000000e-01 0.000000000000e+00 0.000000000000e+00 0.000000000000e+00 0.000000000000e+00 
1.793103448276e-01 5.000000000000e+04 0.000000000000e+00 -5.000000000000e+04 1.000000000000e-02 9.900000000000e-01 0.000000000000e+00 0.000000000000e+00 0.000000000000e+00 0.000000000000e+00 
2.689655172414e-01 5.000000000000e+04 0.000000000000e+00 -5.000000000000e+04 1.000000000000e-02 9.900000000000e-01 0.000000000000e+00 0.000000000000e+00 0.000000000000e+00 0.000000000000e+00 
3.586206896552e-01 5.000000000000e+04 0.000000000000e+00 -5.000000000000e+04 1.000000000000e-02 9.900000000000e-01 0.000000000000e+00 0.000000000000e+00 0.000000000000e+00 0.000000000000e+00 
4.482758620690e-01 5.000000000000e+04 0.000000000000e+00 -5.000000000000e+04 1.000000000000e-02 9.900000000000e-01 0.000000000000e+00 0.000000000000e+00 0.000000000000e+00 0.000000000000e+00 
5.379310344828e-01 5.000000000000e+04 0.000000000000e+00 -5.000000000000e+04 1.000000000000e-02 9.900000000000e-01 0.000000000000e+00 0.000000000000e+00 0.000000000000e+00 0.000000000000e+00 
6.275862068966e-01 5.000000000000e+04 0.000000000000e+00 -5.000000000000e+04 1.000000000000e-02 9.900000000000e-01 0.000000000000e+00 0.000000000000e+00 0.000000000000e+00 0.000000000000e+00 
7.172413793105e-01 5.000000000000e+04 0.000000000000e+00 -5.000000000000e+04 1.000000000000e-02 9.900000000000e-01 0.000000000000e+00 0.000000000000e+00 0.000000000000e+00 0.000000000000e+00 
8.068965517245e-01 5.000000000000e+04 0.000000000000e+00 -5.000000000000e+04 1.000000000000e-02 9.900000000000e-01 0.000000000000e+00 0.000000000000e+00 0.000000000000e+00 0.000000000000e+00 
8.965517241385e-01 5.000000000000e+04 0.000000000000e+00 -5.000000000000e+04 1.000000000000e-02 9.900000000000e-01 0.000000000000e+00 0.000000000000e+00 0.000000000000e+00 0.000000000000e+00 
9.862068965524e-01 5.000000000000e+04 0.000000000000e+00 -5.000000000000e+04 1.000000000000e-02 9.900000000000e-01 0.000000000000e+00 0.000000000000e+00 0.000000000000e+00 0.000000000000e+00 
1.075862068966e+00 5.000000000000e+04 0.000000000000e+00 -5.000000000000e+04 1.000000000000e-02 9.900000000000e-01 0.000000000000e+00 0.000000000000e+00 0.000000000000e+00 0.000000000000e+00 
1.165517241380e+00 5.000000000000e+04 0.000000000000e+00 -5.000000000000e+04 1.000000000000e-02 9.900000000000e-01 0.000000000000e+00 0.000000000000e+00 0.000000000000e+00 0.000000000000e+00 
1.255172413794e+00 5.000000000000e+04 0.000000000000e+00 -5.000000000000e+04 1.000000000000e-02 9.900000000000e-01 0.000000000000e+00 0.000000000000e+00 0.000000000000e+00 0.000000000000e+00 
1.344827586208e+00 5.000000000000e+04 0.000000000000e+00 -5.000000000000e+04 1.000000000000e-02 9.900000000000e-01 0.000000000000e+00 0.000000000000e+00 0.000000000000e+00 0.000000000000e+00 
1.434482758622e+00 5.000000000000e+04 0.000000000000e+00 -5.000000000000e+04 1.000000000000e-02 9.900000000000e-01 0.000000000000e+00 0.000000000000e+00 0.000000000000e+00 0.000000000000e+00 
1.524137931036e+00 5.000000000000e+04 0.000000000000e+00 -5.000000000000e+04 1.000000000000e-02 9.900000000000e-01 0.000000000000e+00 0.000000000000e+00 0.000000000000e+00 0.000000000000e+00 
1.613793103450e+00 5.000000000000e+04 0.000000000000e+00 -5.000000000000e+04 1.000000000000e-02 9.900000000000e-01 0.000000000000e+00 0.000000000000e+00 0.000000000000e+00 0.000000000000e+00 
1.703448275863e+00 5.000000000000e+04 0.000000000000e+00 -5.000000000000e+04 1.000000000000e-02 9.900000000000e-01 0.000000000000e+00 0.000000000000e+00 0.000000000000e+00 0.000000000000e+00 
1.793103448277e+00 5.000000000000e+04 0.000000000000e+00 -5.000000000000e+04 1.000000000000e-02 9.900000000000e-01 0.000000000000e+00 0.000000000000e+00 0.000000000000e+00 0.000000000000e+00 
1.882758620691e+00 5.000000000000e+04 0.000000000000e+00 -5.000000000000e+04 1.000000000000e-02 9.900000000000e-01 0.000000000000e+00 0.000000000000e+00 0.000000000000e+00 0.000000000000e+00 
1.972413793105e+00 5.000000000000e+04 0.000000000000e+00 -5.000000000000e+04 1.000000000000e-02 9.900000000000e-01 0.000000000000e+00 0.000000000000e+00 0.000000000000e+00 0.000000000000e+00 
2.062068965518e+00 5.000000000000e+04 0.000000000000e+00 -5.000000000000e+04 1.000000000000e-02 9.900000000000e-01 0.000000000000e+00 0.000000000000e+00 0.000000000000e+00 0.000000000000e+00 
2.151724137932e+00 5.000000000000e+04 0.000000000000e+00 -5.000000000000e+04 1.000000000000e-02 9.900000000000e-01 0.000000000000e+00 0.000000000000e+00 0.000000000000e+00 0.000000000000e+00 
2.241379310346e+00 5.000000000000e+04 0.000000000000e+00 -5.000000000000e+04 1.000000000000e-02 9.900000000000e-01 0.000000000000e+00 0.000000000000e+00 0.000000000000e+00 0.000000000000e+00 
2.331034482759e+00 5.000000000000e+04 0.000000000000e+00 -5.000000000000e+04 1.000000000000e-02 9.900000000000e-01 0.000000000000e+00 0.000000000000e+00 0.000000000000e+00 0.000000000000e+00 
2.420689655173e+00 5.000000000000e+04 0.000000000000e+00 -5.000000000000e+04 1.000000000000e-02 9.900000000000e-01 0.000000000000e+00 0.000000000000e+00 0.000000000000e+00 0.000000000000e+00 
2.510344827586e+00 5.000000000000e+04 0.000000000000e+00 -5.000000000000e+04 1.000000000000e-02 9.900000000000e-01 0.000000000000e+00 0.000000000000e+00 0.000000000000e+00 0.000000000000e+00 
2.600000000000e+00 5.000000000000e+04 0.000000000000e+00 -5.000000000000e+04 1.000000000000e-02 9.900000000000e-01 0.000000000000e+00 0.000000000000e+00 0.000000000000e+00 0.000000000000e+00 
 TITLE = "Profiles along polylines"
 VARIABLES = "DIST" "PRESSURE1" "PRESSURE2" "PRESSURE_W" "SATURATION1" SATURATION2 "VELOCITY_X1" "VELOCITY_Y1" "VELOCITY_X2" "VELOCITY_Y2" 
 ZONE T="TIME=1.000000000000e+01"
0.000000000000e+00 5.000000000000e+03 2.000000000000e+05 1.950000000000e+05 4.153274419919e-01 5.846725580081e-01 6.594386995543e-04 7.406850330334e-14 -5.606085296330e-05 -1.640202685079e-14 
8.965517241379e-02 3.397391478171e+04 2.001925235872e+05 1.662186088055e+05 -1.036081271503e-03 1.001036081272e+00 -4.186944149293e-05 -4.688918296324e-15 -1.110352730821e-04 2.031327471318e-13 
1.793103448276e-01 4.999923284040e+04 2.001925246127e+05 1.501932917723e+05 9.744517184717e-03 9.902554828153e-01 -5.166954337063e-11 3.037711667497e-18 -5.611375788520e-10 1.238152038804e-13 
2.689655172414e-01 4.999999999212e+04 2.001925246129e+05 1.501925246207e+05 1.000000000280e-02 9.899999999972e-01 4.278388347372e-15 8.111680656694e-22 -1.888903354826e-13 -2.590822651533e-15 
3.586206896552e-01 5.000000000003e+04 2.001925246130e+05 1.501925246130e+05 9.999999999988e-03 9.900000000000e-01 4.215554312515e-20 3.502816423008e-22 -1.479804563507e-13 -1.785550751193e-15 
4.482758620690e-01 4.999999999995e+04 2.001925246131e+05 1.501925246132e+05 1.000000000002e-02 9.900000000000e-01 -1.531235168790e-21 -6.488277443201e-22 -1.524176131102e-13 -2.073699565995e-15 
5.379310344828e-01 5.000000000003e+04 2.001925246133e+05 1.501925246132e+05 9.999999999986e-03 9.900000000000e-01 -1.144709841503e-21 4.058535423904e-22 -1.562350999721e-13 -1.269425742320e-15 
6.275862068966e-01 5.000000000003e+04 2.001925246134e+05 1.501925246134e+05 9.999999999989e-03 9.900000000000e-01 -1.620308452353e-21 3.288863157551e-22 -1.584312904946e-13 -1.052514259075e-15 
7.172413793105e-01 5.000000000003e+04 2.001925246136e+05 1.501925246135e+05 9.999999999986e-03 9.900000000000e-01 -2.131343251739e-21 4.079124339968e-22 -1.589177076563e-13 -3.284474704401e-16 
8.068965517245e-01 4.999999999994e+04 2.001925246137e+05 1.501925246138e+05 1.000000000003e-02 9.900000000000e-01 -1.562630648924e-21 -7.599900363242e-22 -1.580682248731e-13 -3.031304969926e-16 
8.965517241385e-01 5.000000000004e+04 2.001925246139e+05 1.501925246138e+05 9.999999999983e-03 9.900000000000e-01 -1.384723633204e-21 5.207467085051e-22 -1.559589578282e-13 4.430655895628e-17 
9.862068965524e-01 4.999999999997e+04 2.001925246140e+05 1.501925246140e+05 1.000000000001e-02 9.900000000000e-01 -1.673039759159e-21 -3.102099061780e-22 -1.526498991030e-13 2.160412203900e-16 
1.075862068966e+00 5.000000000002e+04 2.001925246141e+05 1.501925246141e+05 9.999999999991e-03 9.900000000000e-01 -1.410281199693e-21 2.745864471669e-22 -1.482985976834e-13 2.374699508501e-16 
1.165517241380e+00 4.999999999999e+04 2.001925246143e+05 1.501925246143e+05 1.000000000000e-02 9.900000000000e-01 -1.612712728194e-21 -9.042366138049e-23 -1.427578245984e-13 4.168152993027e-17 
1.255172413794e+00 4.999999999999e+04 2.001925246144e+05 1.501925246144e+05 1.000000000000e-02 9.900000000000e-01 -1.337741732556e-21 -6.282469416073e-23 -1.362284314686e-13 1.191648111134e-16 
1.344827586208e+00 5.000000000000e+04 2.001925246145e+05 1.501925246145e+05 9.999999999999e-03 9.900000000000e-01 -1.305449093605e-21 2.240560243019e-23 -1.290753724049e-13 -1.203454889235e-17 
1.434482758622e+00 5.000000000000e+04 2.001925246146e+05 1.501925246146e+05 1.000000000000e-02 9.900000000000e-01 -1.238758804541e-21 -3.707530309983e-23 -1.213383215762e-13 6.544106314145e-17 
1.524137931036e+00 5.000000000000e+04 2.001925246147e+05 1.501925246147e+05 9.999999999999e-03 9.900000000000e-01 -1.101749391855e-21 2.021568087162e-23 -1.131491501816e-13 -1.475888721559e-16 
1.613793103450e+00 5.000000000001e+04 2.001925246148e+05 1.501925246148e+05 9.999999999997e-03 9.900000000000e-01 -1.018739937275e-21 7.291051297621e-23 -1.043704734142e-13 -3.285279346438e-16 
1.703448275863e+00 5.000000000001e+04 2.001925246149e+05 1.501925246149e+05 9.999999999996e-03 9.900000000000e-01 -1.019518932935e-21 1.204659016720e-22 -9.551192741772e-14 5.069894907184e-18 
1.793103448277e+00 5.000000000000e+04 2.001925246150e+05 1.501925246150e+05 1.000000000000e-02 9.900000000000e-01 -9.239077843583e-22 -2.071454687871e-23 -8.670926152971e-14 -7.492630039126e-17 
1.882758620691e+00 5.000000000000e+04 2.001925246151e+05 1.501925246151e+05 9.999999999999e-03 9.900000000000e-01 -7.956655229629e-22 3.446522922495e-23 -7.765758902587e-14 -1.796270350298e-16 
1.972413793105e+00 5.000000000000e+04 2.001925246152e+05 1.501925246152e+05 1.000000000000e-02 9.900000000000e-01 -7.023906262979e-22 -2.996018420801e-23 -6.824204540021e-14 -2.496933061463e-16 
2.062068965518e+00 5.000000000000e+04 2.001925246152e+05 1.501925246152e+05 9.999999999999e-03 9.900000000000e-01 -5.753752925828e-22 2.290919191147e-23 -5.887251714664e-14 2.972075020202e-17 
2.151724137932e+00 5.000000000000e+04 2.001925246153e+05 1.501925246153e+05 9.999999999999e-03 9.900000000000e-01 -5.293834768986e-22 2.664219291679e-23 -4.929045586759e-14 -4.756605542795e-17 
2.241379310346e+00 5.000000000000e+04 2.001925246153e+05 1.501925246153e+05 1.000000000000e-02 9.900000000000e-01 -4.189447291472e-22 -3.241124410892e-23 -3.955885538691e-14 8.414701385377e-17 
2.331034482759e+00 5.000000000000e+04 2.001925246153e+05 1.501925246153e+05 1.000000000000e-02 9.900000000000e-01 -2.890230463021e-22 -4.415783346389e-24 -2.976600824126e-14 1.837692103261e-16 
2.420689655173e+00 5.000000000000e+04 2.001925246154e+05 1.501925246154e+05 1.000000000000e-02 9.900000000000e-01 -2.007039512401e-22 1.252452224084e-24 -1.983601104822e-14 1.931260202569e-16 
2.510344827586e+00 5.000000000000e+04 2.001925246154e+05 1.501925246154e+05 1.000000000000e-02 9.900000000000e-01 -1.568535060812e-22 5.671929706484e-25 -9.882547574145e-15 3.180479036586e-16 
2.600000000000e+00 4.999999999999e+04 2.001925246154e+05 1.501925246154e+05 1.000000000000e-02 9.900000000000e-01 -1.607173388729e-22 -1.213263502408e-22 -4.995919259266e-15 2.637136697987e-16 
