 TITLE = "Time curves in points"
 VARIABLES = "TIME "  "Tracer1" 
 ZONE T="POINT=POINT11"
0.000000000000e+00 1.000000000000e-10 
2.160000000000e+04 1.402732538431e-10 
4.320000000000e+04 8.201825716939e-10 
6.480000000000e+04 6.662587158920e-09 
8.640000000000e+04 4.077193894631e-08 
1.080000000000e+05 1.931308324656e-07 
1.296000000000e+05 7.489722672411e-07 
1.512000000000e+05 2.475348053777e-06 
1.728000000000e+05 7.173028465067e-06 
1.944000000000e+05 1.861049799282e-05 
2.160000000000e+05 4.392986790271e-05 
2.376000000000e+05 9.554192010017e-05 
2.592000000000e+05 1.934151020528e-04 
2.808000000000e+05 3.675332233982e-04 
3.024000000000e+05 6.601817370387e-04 
3.240000000000e+05 1.127656306126e-03 
3.456000000000e+05 1.840993241972e-03 
3.672000000000e+05 2.885405379668e-03 
3.888000000000e+05 4.358256224809e-03 
4.104000000000e+05 6.365592209206e-03 
4.320000000000e+05 9.017443075119e-03 
4.536000000000e+05 1.242226073621e-02 
4.752000000000e+05 1.668097285158e-02 
4.968000000000e+05 2.188116648387e-02 
5.184000000000e+05 2.809189003307e-02 
5.400000000000e+05 3.535947910368e-02 
5.616000000000e+05 4.370469174424e-02 
5.832000000000e+05 5.312130076441e-02 
6.048000000000e+05 6.357615458643e-02 
6.264000000000e+05 7.501059856262e-02 
6.480000000000e+05 8.734305603315e-02 
6.696000000000e+05 1.004725074450e-01 
6.912000000000e+05 1.142825767715e-01 
7.128000000000e+05 1.286459338714e-01 
7.344000000000e+05 1.434287436739e-01 
7.560000000000e+05 1.584949315015e-01 
7.776000000000e+05 1.737100817731e-01 
7.992000000000e+05 1.889448387985e-01 
8.208000000000e+05 2.040777285479e-01 
8.424000000000e+05 2.189973656385e-01 
8.640000000000e+05 2.336040481020e-01 
8.856000000000e+05 2.478107726907e-01 
9.072000000000e+05 2.615437253941e-01 
9.288000000000e+05 2.747423159744e-01 
9.504000000000e+05 2.873588326578e-01 
9.720000000000e+05 2.993577948182e-01 
9.936000000000e+05 3.107150788402e-01 
1.015200000000e+06 3.214168865660e-01 
1.036800000000e+06 3.314586179212e-01 
1.058400000000e+06 3.408437004023e-01 
1.080000000000e+06 3.495824188553e-01 
1.101600000000e+06 3.576907799356e-01 
1.123200000000e+06 3.651894372150e-01 
1.144800000000e+06 3.721026953608e-01 
1.166400000000e+06 3.784576052679e-01 
1.188000000000e+06 3.842831565543e-01 
1.209600000000e+06 3.896095693787e-01 
1.231200000000e+06 3.944676840680e-01 
1.252800000000e+06 3.988884444326e-01 
1.274400000000e+06 4.029024687940e-01 
1.296000000000e+06 4.065397015402e-01 
1.317600000000e+06 4.098291373335e-01 
1.339200000000e+06 4.127986098244e-01 
1.360800000000e+06 4.154746367768e-01 
1.382400000000e+06 4.178823138000e-01 
1.404000000000e+06 4.200452493367e-01 
1.425600000000e+06 4.219855341253e-01 
1.447200000000e+06 4.237237389844e-01 
1.468800000000e+06 4.252789354201e-01 
1.490400000000e+06 4.266687342139e-01 
1.512000000000e+06 4.279093377787e-01 
1.533600000000e+06 4.290156026682e-01 
1.555200000000e+06 4.300011091759e-01 
1.576800000000e+06 4.308782354616e-01 
1.598400000000e+06 4.316582340925e-01 
1.620000000000e+06 4.323513092837e-01 
1.641600000000e+06 4.329666934706e-01 
1.663200000000e+06 4.335127221437e-01 
1.684800000000e+06 4.339969061367e-01 
1.706400000000e+06 4.344260007698e-01 
1.728000000000e+06 4.348060714366e-01 
1.749600000000e+06 4.351425553670e-01 
1.771200000000e+06 4.354403194247e-01 
1.792800000000e+06 4.357037138919e-01 
1.814400000000e+06 4.359366222716e-01 
1.836000000000e+06 4.361425071995e-01 
1.857600000000e+06 4.363244525982e-01 
1.879200000000e+06 4.364852022423e-01 
1.900800000000e+06 4.366271949222e-01 
1.922400000000e+06 4.367525964116e-01 
1.944000000000e+06 4.368633284472e-01 
1.965600000000e+06 4.369610949338e-01 
1.987200000000e+06 4.370474055851e-01 
2.008800000000e+06 4.371235972049e-01 
2.030400000000e+06 4.371908528054e-01 
2.052000000000e+06 4.372502187512e-01 
2.073600000000e+06 4.373026201069e-01 
2.095200000000e+06 4.373488743531e-01 
2.116800000000e+06 4.373897036286e-01 
2.138400000000e+06 4.374257456401e-01 
2.160000000000e+06 4.374575633734e-01 
