 TITLE = "Time curves in points"
 VARIABLES = "TIME "  "Tracer1" 
 ZONE T="POINT=POINT10"
0.000000000000e+00 1.000000000000e-10 
2.160000000000e+04 1.127875850452e-05 
4.320000000000e+04 1.158238736460e-04 
6.480000000000e+04 6.144663578888e-04 
8.640000000000e+04 2.247837459863e-03 
1.080000000000e+05 6.385007047822e-03 
1.296000000000e+05 1.503401447256e-02 
1.512000000000e+05 3.058770114425e-02 
1.728000000000e+05 5.534559920524e-02 
1.944000000000e+05 9.096504947478e-02 
2.160000000000e+05 1.380274604717e-01 
2.376000000000e+05 1.958521127508e-01 
2.592000000000e+05 2.625911530036e-01 
2.808000000000e+05 3.355476303561e-01 
3.024000000000e+05 4.116072908687e-01 
3.240000000000e+05 4.876705959270e-01 
3.456000000000e+05 5.610005185751e-01 
3.672000000000e+05 6.294439139529e-01 
3.888000000000e+05 6.915229583325e-01 
4.104000000000e+05 7.464193380293e-01 
4.320000000000e+05 7.938858226287e-01 
4.536000000000e+05 8.341203955460e-01 
4.752000000000e+05 8.676317363032e-01 
4.968000000000e+05 8.951157426406e-01 
5.184000000000e+05 9.173538998653e-01 
5.400000000000e+05 9.351372306039e-01 
5.616000000000e+05 9.492147849026e-01 
5.832000000000e+05 9.602629768588e-01 
6.048000000000e+05 9.688710455414e-01 
6.264000000000e+05 9.755379586684e-01 
6.480000000000e+05 9.806767065690e-01 
6.696000000000e+05 9.846227982651e-01 
6.912000000000e+05 9.876446461074e-01 
7.128000000000e+05 9.899542893593e-01 
7.344000000000e+05 9.917175125252e-01 
7.560000000000e+05 9.930628580267e-01 
7.776000000000e+05 9.940893353912e-01 
7.992000000000e+05 9.948728197053e-01 
8.208000000000e+05 9.954712403485e-01 
8.424000000000e+05 9.959287127336e-01 
8.640000000000e+05 9.962787812464e-01 
8.856000000000e+05 9.965469357273e-01 
9.072000000000e+05 9.967525469251e-01 
9.288000000000e+05 9.969103450047e-01 
9.504000000000e+05 9.970315433961e-01 
9.720000000000e+05 9.971246901701e-01 
9.936000000000e+05 9.971963116995e-01 
1.015200000000e+06 9.972513988716e-01 
1.036800000000e+06 9.972937744163e-01 
1.058400000000e+06 9.973263706782e-01 
1.080000000000e+06 9.973514399929e-01 
1.101600000000e+06 9.973707143379e-01 
1.123200000000e+06 9.973855267634e-01 
1.144800000000e+06 9.973969039744e-01 
1.166400000000e+06 9.974056370858e-01 
1.188000000000e+06 9.974123358203e-01 
1.209600000000e+06 9.974174701088e-01 
1.231200000000e+06 9.974214020799e-01 
1.252800000000e+06 9.974244106967e-01 
1.274400000000e+06 9.974267107527e-01 
1.296000000000e+06 9.974284675333e-01 
1.317600000000e+06 9.974298081364e-01 
1.339200000000e+06 9.974308302179e-01 
1.360800000000e+06 9.974316087475e-01 
1.382400000000e+06 9.974322012263e-01 
1.404000000000e+06 9.974326517152e-01 
1.425600000000e+06 9.974329939437e-01 
1.447200000000e+06 9.974332537066e-01 
1.468800000000e+06 9.974334507111e-01 
1.490400000000e+06 9.974335999987e-01 
1.512000000000e+06 9.974337130379e-01 
1.533600000000e+06 9.974337985651e-01 
1.555200000000e+06 9.974338632287e-01 
1.576800000000e+06 9.974339120834e-01 
1.598400000000e+06 9.974339489690e-01 
1.620000000000e+06 9.974339767994e-01 
1.641600000000e+06 9.974339977844e-01 
1.663200000000e+06 9.974340135981e-01 
1.684800000000e+06 9.974340255078e-01 
1.706400000000e+06 9.974340344724e-01 
1.728000000000e+06 9.974340412165e-01 
1.749600000000e+06 9.974340462875e-01 
1.771200000000e+06 9.974340500985e-01 
1.792800000000e+06 9.974340529614e-01 
1.814400000000e+06 9.974340551109e-01 
1.836000000000e+06 9.974340567242e-01 
1.857600000000e+06 9.974340579345e-01 
1.879200000000e+06 9.974340588421e-01 
1.900800000000e+06 9.974340595224e-01 
1.922400000000e+06 9.974340600322e-01 
1.944000000000e+06 9.974340604141e-01 
1.965600000000e+06 9.974340607001e-01 
1.987200000000e+06 9.974340609141e-01 
2.008800000000e+06 9.974340610743e-01 
2.030400000000e+06 9.974340611942e-01 
2.052000000000e+06 9.974340612838e-01 
2.073600000000e+06 9.974340613508e-01 
2.095200000000e+06 9.974340614008e-01 
2.116800000000e+06 9.974340614383e-01 
2.138400000000e+06 9.974340614662e-01 
2.160000000000e+06 9.974340614871e-01 
