VARIABLES  = "X","Y","Z", "HEAD", "Tracer1"
ZONE T="0.000000000000e+00s", N=10201, E=10000, F=FEPOINT, ET=QUADRILATERAL
STRANDID=1, SOLUTIONTIME=0.000000000000e+00
0.000000000000e+00 0.000000000000e+00 0.000000000000e+00 1.000000000000e+01 1.000000000000e-10 
1.000000000000e+00 0.000000000000e+00 0.000000000000e+00 9.992940643521e+00 1.000000000000e-10 
2.000000000000e+00 0.000000000000e+00 0.000000000000e+00 9.988053605931e+00 1.000000000000e-10 
3.000000000000e+00 0.000000000000e+00 0.000000000000e+00 9.977594285864e+00 1.000000000000e-10 
4.000000000000e+00 0.000000000000e+00 0.000000000000e+00 9.969003308912e+00 1.000000000000e-10 
5.000000000000e+00 0.000000000000e+00 0.000000000000e+00 9.961963076792e+00 1.000000000000e-10 
6.000000000000e+00 0.000000000000e+00 0.000000000000e+00 9.953835718075e+00 1.000000000000e-10 
7.000000000000e+00 0.000000000000e+00 0.000000000000e+00 9.949016682233e+00 1.000000000000e-10 
8.000000000000e+00 0.000000000000e+00 0.000000000000e+00 9.942426968340e+00 1.000000000000e-10 
9.000000000000e+00 0.000000000000e+00 0.000000000000e+00 9.934955197718e+00 1.000000000000e-10 
1.000000000000e+01 0.000000000000e+00 0.000000000000e+00 9.928390296584e+00 1.000000000000e-10 
1.100000000000e+01 0.000000000000e+00 0.000000000000e+00 9.924446086323e+00 1.000000000000e-10 
1.200000000000e+01 0.000000000000e+00 0.000000000000e+00 9.918840946894e+00 1.000000000000e-10 
1.300000000000e+01 0.000000000000e+00 0.000000000000e+00 9.908275047854e+00 1.000000000000e-10 
1.400000000000e+01 0.000000000000e+00 0.000000000000e+00 9.891531678323e+00 1.000000000000e-10 
1.500000000000e+01 0.000000000000e+00 0.000000000000e+00 9.879532289809e+00 1.000000000000e-10 
1.600000000000e+01 0.000000000000e+00 0.000000000000e+00 9.870468502529e+00 1.000000000000e-10 
1.700000000000e+01 0.000000000000e+00 0.000000000000e+00 9.862962687968e+00 1.000000000000e-10 
1.800000000000e+01 0.000000000000e+00 0.000000000000e+00 9.852097299069e+00 1.000000000000e-10 
1.900000000000e+01 0.000000000000e+00 0.000000000000e+00 9.838260048397e+00 1.000000000000e-10 
2.000000000000e+01 0.000000000000e+00 0.000000000000e+00 9.827285662898e+00 1.000000000000e-10 
2.100000000000e+01 0.000000000000e+00 0.000000000000e+00 9.820741225193e+00 1.000000000000e-10 
2.200000000000e+01 0.000000000000e+00 0.000000000000e+00 9.800975172779e+00 1.000000000000e-10 
2.300000000000e+01 0.000000000000e+00 0.000000000000e+00 9.777641260218e+00 1.000000000000e-10 
2.400000000000e+01 0.000000000000e+00 0.000000000000e+00 9.746881541117e+00 1.000000000000e-10 
2.500000000000e+01 0.000000000000e+00 0.000000000000e+00 9.721705038827e+00 1.000000000000e-10 
2.600000000000e+01 0.000000000000e+00 0.000000000000e+00 9.703803594194e+00 1.000000000000e-10 
2.700000000000e+01 0.000000000000e+00 0.000000000000e+00 9.670565551207e+00 1.000000000000e-10 
2.800000000000e+01 0.000000000000e+00 0.000000000000e+00 9.648226791489e+00 1.000000000000e-10 
2.900000000000e+01 0.000000000000e+00 0.000000000000e+00 9.633063659750e+00 1.000000000000e-10 
3.000000000000e+01 0.000000000000e+00 0.000000000000e+00 9.621412750388e+00 1.000000000000e-10 
3.100000000000e+01 0.000000000000e+00 0.000000000000e+00 9.613911333794e+00 1.000000000000e-10 
3.200000000000e+01 0.000000000000e+00 0.000000000000e+00 9.590934117015e+00 1.000000000000e-10 
3.300000000000e+01 0.000000000000e+00 0.000000000000e+00 9.573797007613e+00 1.000000000000e-10 
3.400000000000e+01 0.000000000000e+00 0.000000000000e+00 9.564278045306e+00 1.000000000000e-10 
3.500000000000e+01 0.000000000000e+00 0.000000000000e+00 9.556347010587e+00 1.000000000000e-10 
3.600000000000e+01 0.000000000000e+00 0.000000000000e+00 9.548864514288e+00 1.000000000000e-10 
3.700000000000e+01 0.000000000000e+00 0.000000000000e+00 9.540872373833e+00 1.000000000000e-10 
3.800000000000e+01 0.000000000000e+00 0.000000000000e+00 9.532267153024e+00 1.000000000000e-10 
3.900000000000e+01 0.000000000000e+00 0.000000000000e+00 9.519594283699e+00 1.000000000000e-10 
4.000000000000e+01 0.000000000000e+00 0.000000000000e+00 9.509786896153e+00 1.000000000000e-10 
4.100000000000e+01 0.000000000000e+00 0.000000000000e+00 9.490554372753e+00 1.000000000000e-10 
4.200000000000e+01 0.000000000000e+00 0.000000000000e+00 9.470859065358e+00 1.000000000000e-10 
4.300000000000e+01 0.000000000000e+00 0.000000000000e+00 9.453464361925e+00 1.000000000000e-10 
4.400000000000e+01 0.000000000000e+00 0.000000000000e+00 9.437988991992e+00 1.000000000000e-10 
4.500000000000e+01 0.000000000000e+00 0.000000000000e+00 9.414282113281e+00 1.000000000000e-10 
4.600000000000e+01 0.000000000000e+00 0.000000000000e+00 9.391165719608e+00 1.000000000000e-10 
4.700000000000e+01 0.000000000000e+00 0.000000000000e+00 9.361373278916e+00 1.000000000000e-10 
4.800000000000e+01 0.000000000000e+00 0.000000000000e+00 9.335766971580e+00 1.000000000000e-10 
4.900000000000e+01 0.000000000000e+00 0.000000000000e+00 9.305599559894e+00 1.000000000000e-10 
5.000000000000e+01 0.000000000000e+00 0.000000000000e+00 9.258736787625e+00 1.000000000000e-10 
5.100000000000e+01 0.000000000000e+00 0.000000000000e+00 9.222315277803e+00 1.000000000000e-10 
5.200000000000e+01 0.000000000000e+00 0.000000000000e+00 9.201251143874e+00 1.000000000000e-10 
5.300000000000e+01 0.000000000000e+00 0.000000000000e+00 9.176249149389e+00 1.000000000000e-10 
5.400000000000e+01 0.000000000000e+00 0.000000000000e+00 9.155235039116e+00 1.000000000000e-10 
5.500000000000e+01 0.000000000000e+00 0.000000000000e+00 9.126951546130e+00 1.000000000000e-10 
5.600000000000e+01 0.000000000000e+00 0.000000000000e+00 9.085913744127e+00 1.000000000000e-10 
5.700000000000e+01 0.000000000000e+00 0.000000000000e+00 9.060837523856e+00 1.000000000000e-10 
5.800000000000e+01 0.000000000000e+00 0.000000000000e+00 9.041908737429e+00 1.000000000000e-10 
5.900000000000e+01 0.000000000000e+00 0.000000000000e+00 9.008998242281e+00 1.000000000000e-10 
6.000000000000e+01 0.000000000000e+00 0.000000000000e+00 8.986898427985e+00 1.000000000000e-10 
6.100000000000e+01 0.000000000000e+00 0.000000000000e+00 8.961955675902e+00 1.000000000000e-10 
6.200000000000e+01 0.000000000000e+00 0.000000000000e+00 8.941499870259e+00 1.000000000000e-10 
6.300000000000e+01 0.000000000000e+00 0.000000000000e+00 8.895157080395e+00 1.000000000000e-10 
6.400000000000e+01 0.000000000000e+00 0.000000000000e+00 8.859519994432e+00 1.000000000000e-10 
6.500000000000e+01 0.000000000000e+00 0.000000000000e+00 8.798843727905e+00 1.000000000000e-10 
6.600000000000e+01 0.000000000000e+00 0.000000000000e+00 8.755222855698e+00 1.000000000000e-10 
6.700000000000e+01 0.000000000000e+00 0.000000000000e+00 8.716695220235e+00 1.000000000000e-10 
6.800000000000e+01 0.000000000000e+00 0.000000000000e+00 8.649639850240e+00 1.000000000000e-10 
6.900000000000e+01 0.000000000000e+00 0.000000000000e+00 8.608711059406e+00 1.000000000000e-10 
7.000000000000e+01 0.000000000000e+00 0.000000000000e+00 8.569463299794e+00 1.000000000000e-10 
7.100000000000e+01 0.000000000000e+00 0.000000000000e+00 8.533013344952e+00 1.000000000000e-10 
7.200000000000e+01 0.000000000000e+00 0.000000000000e+00 8.515312212906e+00 1.000000000000e-10 
7.300000000000e+01 0.000000000000e+00 0.000000000000e+00 8.488214590960e+00 1.000000000000e-10 
7.400000000000e+01 0.000000000000e+00 0.000000000000e+00 8.468978899972e+00 1.000000000000e-10 
7.500000000000e+01 0.000000000000e+00 0.000000000000e+00 8.456288415163e+00 1.000000000000e-10 
7.600000000000e+01 0.000000000000e+00 0.000000000000e+00 8.442624843315e+00 1.000000000000e-10 
7.700000000000e+01 0.000000000000e+00 0.000000000000e+00 8.429483519997e+00 1.000000000000e-10 
7.800000000000e+01 0.000000000000e+00 0.000000000000e+00 8.417639014945e+00 1.000000000000e-10 
7.900000000000e+01 0.000000000000e+00 0.000000000000e+00 8.402296509029e+00 1.000000000000e-10 
8.000000000000e+01 0.000000000000e+00 0.000000000000e+00 8.394254177855e+00 1.000000000000e-10 
8.100000000000e+01 0.000000000000e+00 0.000000000000e+00 8.386332589039e+00 1.000000000000e-10 
8.200000000000e+01 0.000000000000e+00 0.000000000000e+00 8.371415088123e+00 1.000000000000e-10 
8.300000000000e+01 0.000000000000e+00 0.000000000000e+00 8.362227555946e+00 1.000000000000e-10 
8.400000000000e+01 0.000000000000e+00 0.000000000000e+00 8.354500518623e+00 1.000000000000e-10 
8.500000000000e+01 0.000000000000e+00 0.000000000000e+00 8.349935637044e+00 1.000000000000e-10 
8.600000000000e+01 0.000000000000e+00 0.000000000000e+00 8.343538500204e+00 1.000000000000e-10 
8.700000000000e+01 0.000000000000e+00 0.000000000000e+00 8.340571281920e+00 1.000000000000e-10 
8.800000000000e+01 0.000000000000e+00 0.000000000000e+00 8.338422391250e+00 1.000000000000e-10 
8.900000000000e+01 0.000000000000e+00 0.000000000000e+00 8.336297548160e+00 1.000000000000e-10 
9.000000000000e+01 0.000000000000e+00 0.000000000000e+00 8.334584925112e+00 1.000000000000e-10 
9.100000000000e+01 0.000000000000e+00 0.000000000000e+00 8.331599698398e+00 1.000000000000e-10 
9.200000000000e+01 0.000000000000e+00 0.000000000000e+00 8.329058110792e+00 1.000000000000e-10 
9.300000000000e+01 0.000000000000e+00 0.000000000000e+00 8.327703660690e+00 1.000000000000e-10 
9.400000000000e+01 0.000000000000e+00 0.000000000000e+00 8.325585865993e+00 1.000000000000e-10 
9.500000000000e+01 0.000000000000e+00 0.000000000000e+00 8.322046972688e+00 1.000000000000e-10 
9.600000000000e+01 0.000000000000e+00 0.000000000000e+00 8.315171611505e+00 1.000000000000e-10 
9.700000000000e+01 0.000000000000e+00 0.000000000000e+00 8.306378419982e+00 1.000000000000e-10 
9.800000000000e+01 0.000000000000e+00 0.000000000000e+00 8.282909763566e+00 1.000000000000e-10 
9.900000000000e+01 0.000000000000e+00 0.000000000000e+00 8.259224130693e+00 1.000000000000e-10 
1.000000000000e+02 0.000000000000e+00 0.000000000000e+00 8.220085132309e+00 1.000000000000e-10 
0.000000000000e+00 1.000000000000e+00 0.000000000000e+00 1.000000000000e+01 1.000000000000e-10 
1.000000000000e+00 1.000000000000e+00 0.000000000000e+00 9.992540408495e+00 1.000000000000e-10 
2.000000000000e+00 1.000000000000e+00 0.000000000000e+00 9.987031130252e+00 1.000000000000e-10 
3.000000000000e+00 1.000000000000e+00 0.000000000000e+00 9.979014942451e+00 1.000000000000e-10 
4.000000000000e+00 1.000000000000e+00 0.000000000000e+00 9.969122490367e+00 1.000000000000e-10 
5.000000000000e+00 1.000000000000e+00 0.000000000000e+00 9.962909124398e+00 1.000000000000e-10 
6.000000000000e+00 1.000000000000e+00 0.000000000000e+00 9.954875809505e+00 1.000000000000e-10 
7.000000000000e+00 1.000000000000e+00 0.000000000000e+00 9.948988410439e+00 1.000000000000e-10 
8.000000000000e+00 1.000000000000e+00 0.000000000000e+00 9.941280213577e+00 1.000000000000e-10 
9.000000000000e+00 1.000000000000e+00 0.000000000000e+00 9.935237505118e+00 1.000000000000e-10 
1.000000000000e+01 1.000000000000e+00 0.000000000000e+00 9.929538299998e+00 1.000000000000e-10 
1.100000000000e+01 1.000000000000e+00 0.000000000000e+00 9.924435888751e+00 1.000000000000e-10 
1.200000000000e+01 1.000000000000e+00 0.000000000000e+00 9.919170176343e+00 1.000000000000e-10 
1.300000000000e+01 1.000000000000e+00 0.000000000000e+00 9.907305815111e+00 1.000000000000e-10 
1.400000000000e+01 1.000000000000e+00 0.000000000000e+00 9.891322328768e+00 1.000000000000e-10 
1.500000000000e+01 1.000000000000e+00 0.000000000000e+00 9.880155700794e+00 1.000000000000e-10 
1.600000000000e+01 1.000000000000e+00 0.000000000000e+00 9.870923440557e+00 1.000000000000e-10 
1.700000000000e+01 1.000000000000e+00 0.000000000000e+00 9.863016673755e+00 1.000000000000e-10 
1.800000000000e+01 1.000000000000e+00 0.000000000000e+00 9.853563945124e+00 1.000000000000e-10 
1.900000000000e+01 1.000000000000e+00 0.000000000000e+00 9.837758624322e+00 1.000000000000e-10 
2.000000000000e+01 1.000000000000e+00 0.000000000000e+00 9.828038678662e+00 1.000000000000e-10 
2.100000000000e+01 1.000000000000e+00 0.000000000000e+00 9.819751732151e+00 1.000000000000e-10 
2.200000000000e+01 1.000000000000e+00 0.000000000000e+00 9.803872914389e+00 1.000000000000e-10 
2.300000000000e+01 1.000000000000e+00 0.000000000000e+00 9.775247692927e+00 1.000000000000e-10 
2.400000000000e+01 1.000000000000e+00 0.000000000000e+00 9.749192502985e+00 1.000000000000e-10 
2.500000000000e+01 1.000000000000e+00 0.000000000000e+00 9.723596555783e+00 1.000000000000e-10 
2.600000000000e+01 1.000000000000e+00 0.000000000000e+00 9.703437170530e+00 1.000000000000e-10 
2.700000000000e+01 1.000000000000e+00 0.000000000000e+00 9.669775963835e+00 1.000000000000e-10 
2.800000000000e+01 1.000000000000e+00 0.000000000000e+00 9.646209371906e+00 1.000000000000e-10 
2.900000000000e+01 1.000000000000e+00 0.000000000000e+00 9.631912352332e+00 1.000000000000e-10 
3.000000000000e+01 1.000000000000e+00 0.000000000000e+00 9.622475787771e+00 1.000000000000e-10 
3.100000000000e+01 1.000000000000e+00 0.000000000000e+00 9.613343142617e+00 1.000000000000e-10 
3.200000000000e+01 1.000000000000e+00 0.000000000000e+00 9.591213261619e+00 1.000000000000e-10 
3.300000000000e+01 1.000000000000e+00 0.000000000000e+00 9.571747393714e+00 1.000000000000e-10 
3.400000000000e+01 1.000000000000e+00 0.000000000000e+00 9.563969224602e+00 1.000000000000e-10 
3.500000000000e+01 1.000000000000e+00 0.000000000000e+00 9.555760466401e+00 1.000000000000e-10 
3.600000000000e+01 1.000000000000e+00 0.000000000000e+00 9.549249548026e+00 1.000000000000e-10 
3.700000000000e+01 1.000000000000e+00 0.000000000000e+00 9.541711883520e+00 1.000000000000e-10 
3.800000000000e+01 1.000000000000e+00 0.000000000000e+00 9.531563924499e+00 1.000000000000e-10 
3.900000000000e+01 1.000000000000e+00 0.000000000000e+00 9.519326240280e+00 1.000000000000e-10 
4.000000000000e+01 1.000000000000e+00 0.000000000000e+00 9.508464631604e+00 1.000000000000e-10 
4.100000000000e+01 1.000000000000e+00 0.000000000000e+00 9.489261789695e+00 1.000000000000e-10 
4.200000000000e+01 1.000000000000e+00 0.000000000000e+00 9.469965297341e+00 1.000000000000e-10 
4.300000000000e+01 1.000000000000e+00 0.000000000000e+00 9.452439813707e+00 1.000000000000e-10 
4.400000000000e+01 1.000000000000e+00 0.000000000000e+00 9.436899128857e+00 1.000000000000e-10 
4.500000000000e+01 1.000000000000e+00 0.000000000000e+00 9.413767924133e+00 1.000000000000e-10 
4.600000000000e+01 1.000000000000e+00 0.000000000000e+00 9.387905753410e+00 1.000000000000e-10 
4.700000000000e+01 1.000000000000e+00 0.000000000000e+00 9.360842686872e+00 1.000000000000e-10 
4.800000000000e+01 1.000000000000e+00 0.000000000000e+00 9.336113346964e+00 1.000000000000e-10 
4.900000000000e+01 1.000000000000e+00 0.000000000000e+00 9.302343048265e+00 1.000000000000e-10 
5.000000000000e+01 1.000000000000e+00 0.000000000000e+00 9.266597165863e+00 1.000000000000e-10 
5.100000000000e+01 1.000000000000e+00 0.000000000000e+00 9.224932183026e+00 1.000000000000e-10 
5.200000000000e+01 1.000000000000e+00 0.000000000000e+00 9.200939147238e+00 1.000000000000e-10 
5.300000000000e+01 1.000000000000e+00 0.000000000000e+00 9.177862416295e+00 1.000000000000e-10 
5.400000000000e+01 1.000000000000e+00 0.000000000000e+00 9.151963743107e+00 1.000000000000e-10 
5.500000000000e+01 1.000000000000e+00 0.000000000000e+00 9.122452434024e+00 1.000000000000e-10 
5.600000000000e+01 1.000000000000e+00 0.000000000000e+00 9.089461228180e+00 1.000000000000e-10 
5.700000000000e+01 1.000000000000e+00 0.000000000000e+00 9.062756063012e+00 1.000000000000e-10 
5.800000000000e+01 1.000000000000e+00 0.000000000000e+00 9.042777519652e+00 1.000000000000e-10 
5.900000000000e+01 1.000000000000e+00 0.000000000000e+00 9.007318379520e+00 1.000000000000e-10 
6.000000000000e+01 1.000000000000e+00 0.000000000000e+00 8.988778300485e+00 1.000000000000e-10 
6.100000000000e+01 1.000000000000e+00 0.000000000000e+00 8.961744764597e+00 1.000000000000e-10 
6.200000000000e+01 1.000000000000e+00 0.000000000000e+00 8.936479101062e+00 1.000000000000e-10 
6.300000000000e+01 1.000000000000e+00 0.000000000000e+00 8.897592434691e+00 1.000000000000e-10 
6.400000000000e+01 1.000000000000e+00 0.000000000000e+00 8.858370945135e+00 1.000000000000e-10 
6.500000000000e+01 1.000000000000e+00 0.000000000000e+00 8.799262809606e+00 1.000000000000e-10 
6.600000000000e+01 1.000000000000e+00 0.000000000000e+00 8.763097084269e+00 1.000000000000e-10 
6.700000000000e+01 1.000000000000e+00 0.000000000000e+00 8.710663487161e+00 1.000000000000e-10 
6.800000000000e+01 1.000000000000e+00 0.000000000000e+00 8.648977592061e+00 1.000000000000e-10 
6.900000000000e+01 1.000000000000e+00 0.000000000000e+00 8.605650852767e+00 1.000000000000e-10 
7.000000000000e+01 1.000000000000e+00 0.000000000000e+00 8.574306698907e+00 1.000000000000e-10 
7.100000000000e+01 1.000000000000e+00 0.000000000000e+00 8.534542181414e+00 1.000000000000e-10 
7.200000000000e+01 1.000000000000e+00 0.000000000000e+00 8.516395245183e+00 1.000000000000e-10 
7.300000000000e+01 1.000000000000e+00 0.000000000000e+00 8.488322017817e+00 1.000000000000e-10 
7.400000000000e+01 1.000000000000e+00 0.000000000000e+00 8.470347977445e+00 1.000000000000e-10 
7.500000000000e+01 1.000000000000e+00 0.000000000000e+00 8.455435574280e+00 1.000000000000e-10 
7.600000000000e+01 1.000000000000e+00 0.000000000000e+00 8.442184259323e+00 1.000000000000e-10 
7.700000000000e+01 1.000000000000e+00 0.000000000000e+00 8.430262820711e+00 1.000000000000e-10 
7.800000000000e+01 1.000000000000e+00 0.000000000000e+00 8.416589254132e+00 1.000000000000e-10 
7.900000000000e+01 1.000000000000e+00 0.000000000000e+00 8.403866687329e+00 1.000000000000e-10 
8.000000000000e+01 1.000000000000e+00 0.000000000000e+00 8.394597298420e+00 1.000000000000e-10 
8.100000000000e+01 1.000000000000e+00 0.000000000000e+00 8.384615738435e+00 1.000000000000e-10 
8.200000000000e+01 1.000000000000e+00 0.000000000000e+00 8.372204690162e+00 1.000000000000e-10 
8.300000000000e+01 1.000000000000e+00 0.000000000000e+00 8.362320352464e+00 1.000000000000e-10 
8.400000000000e+01 1.000000000000e+00 0.000000000000e+00 8.354369491842e+00 1.000000000000e-10 
8.500000000000e+01 1.000000000000e+00 0.000000000000e+00 8.349612448500e+00 1.000000000000e-10 
8.600000000000e+01 1.000000000000e+00 0.000000000000e+00 8.343632622688e+00 1.000000000000e-10 
8.700000000000e+01 1.000000000000e+00 0.000000000000e+00 8.340459270497e+00 1.000000000000e-10 
8.800000000000e+01 1.000000000000e+00 0.000000000000e+00 8.338190394082e+00 1.000000000000e-10 
8.900000000000e+01 1.000000000000e+00 0.000000000000e+00 8.336427793569e+00 1.000000000000e-10 
9.000000000000e+01 1.000000000000e+00 0.000000000000e+00 8.334341746295e+00 1.000000000000e-10 
9.100000000000e+01 1.000000000000e+00 0.000000000000e+00 8.331585589218e+00 1.000000000000e-10 
9.200000000000e+01 1.000000000000e+00 0.000000000000e+00 8.329389590940e+00 1.000000000000e-10 
9.300000000000e+01 1.000000000000e+00 0.000000000000e+00 8.327771736199e+00 1.000000000000e-10 
9.400000000000e+01 1.000000000000e+00 0.000000000000e+00 8.325423513787e+00 1.000000000000e-10 
9.500000000000e+01 1.000000000000e+00 0.000000000000e+00 8.321660740225e+00 1.000000000000e-10 
9.600000000000e+01 1.000000000000e+00 0.000000000000e+00 8.315228858091e+00 1.000000000000e-10 
9.700000000000e+01 1.000000000000e+00 0.000000000000e+00 8.306894379430e+00 1.000000000000e-10 
9.800000000000e+01 1.000000000000e+00 0.000000000000e+00 8.283059163893e+00 1.000000000000e-10 
9.900000000000e+01 1.000000000000e+00 0.000000000000e+00 8.258761963892e+00 1.000000000000e-10 
1.000000000000e+02 1.000000000000e+00 0.000000000000e+00 8.234561946555e+00 1.000000000000e-10 
0.000000000000e+00 2.000000000000e+00 0.000000000000e+00 1.000000000000e+01 1.000000000000e-10 
1.000000000000e+00 2.000000000000e+00 0.000000000000e+00 9.992517151871e+00 1.000000000000e-10 
2.000000000000e+00 2.000000000000e+00 0.000000000000e+00 9.986094706155e+00 1.000000000000e-10 
3.000000000000e+00 2.000000000000e+00 0.000000000000e+00 9.980139922280e+00 1.000000000000e-10 
4.000000000000e+00 2.000000000000e+00 0.000000000000e+00 9.970979412241e+00 1.000000000000e-10 
5.000000000000e+00 2.000000000000e+00 0.000000000000e+00 9.963397896509e+00 1.000000000000e-10 
6.000000000000e+00 2.000000000000e+00 0.000000000000e+00 9.956252029051e+00 1.000000000000e-10 
7.000000000000e+00 2.000000000000e+00 0.000000000000e+00 9.948387410652e+00 1.000000000000e-10 
8.000000000000e+00 2.000000000000e+00 0.000000000000e+00 9.940908178088e+00 1.000000000000e-10 
9.000000000000e+00 2.000000000000e+00 0.000000000000e+00 9.935541180837e+00 1.000000000000e-10 
1.000000000000e+01 2.000000000000e+00 0.000000000000e+00 9.930562133995e+00 1.000000000000e-10 
1.100000000000e+01 2.000000000000e+00 0.000000000000e+00 9.924762760573e+00 1.000000000000e-10 
1.200000000000e+01 2.000000000000e+00 0.000000000000e+00 9.918421166714e+00 1.000000000000e-10 
1.300000000000e+01 2.000000000000e+00 0.000000000000e+00 9.908345247963e+00 1.000000000000e-10 
1.400000000000e+01 2.000000000000e+00 0.000000000000e+00 9.892499138974e+00 1.000000000000e-10 
1.500000000000e+01 2.000000000000e+00 0.000000000000e+00 9.881343514430e+00 1.000000000000e-10 
1.600000000000e+01 2.000000000000e+00 0.000000000000e+00 9.871837697286e+00 1.000000000000e-10 
1.700000000000e+01 2.000000000000e+00 0.000000000000e+00 9.863750392677e+00 1.000000000000e-10 
1.800000000000e+01 2.000000000000e+00 0.000000000000e+00 9.854562583332e+00 1.000000000000e-10 
1.900000000000e+01 2.000000000000e+00 0.000000000000e+00 9.840468660964e+00 1.000000000000e-10 
2.000000000000e+01 2.000000000000e+00 0.000000000000e+00 9.828451400491e+00 1.000000000000e-10 
2.100000000000e+01 2.000000000000e+00 0.000000000000e+00 9.819544668295e+00 1.000000000000e-10 
2.200000000000e+01 2.000000000000e+00 0.000000000000e+00 9.804367829677e+00 1.000000000000e-10 
2.300000000000e+01 2.000000000000e+00 0.000000000000e+00 9.774673773850e+00 1.000000000000e-10 
2.400000000000e+01 2.000000000000e+00 0.000000000000e+00 9.753055248598e+00 1.000000000000e-10 
2.500000000000e+01 2.000000000000e+00 0.000000000000e+00 9.728797039695e+00 1.000000000000e-10 
2.600000000000e+01 2.000000000000e+00 0.000000000000e+00 9.701533710308e+00 1.000000000000e-10 
2.700000000000e+01 2.000000000000e+00 0.000000000000e+00 9.668026832668e+00 1.000000000000e-10 
2.800000000000e+01 2.000000000000e+00 0.000000000000e+00 9.645100839160e+00 1.000000000000e-10 
2.900000000000e+01 2.000000000000e+00 0.000000000000e+00 9.630678711526e+00 1.000000000000e-10 
3.000000000000e+01 2.000000000000e+00 0.000000000000e+00 9.621743865314e+00 1.000000000000e-10 
3.100000000000e+01 2.000000000000e+00 0.000000000000e+00 9.610341637468e+00 1.000000000000e-10 
3.200000000000e+01 2.000000000000e+00 0.000000000000e+00 9.591935166730e+00 1.000000000000e-10 
3.300000000000e+01 2.000000000000e+00 0.000000000000e+00 9.569379295671e+00 1.000000000000e-10 
3.400000000000e+01 2.000000000000e+00 0.000000000000e+00 9.562285144815e+00 1.000000000000e-10 
3.500000000000e+01 2.000000000000e+00 0.000000000000e+00 9.555543094754e+00 1.000000000000e-10 
3.600000000000e+01 2.000000000000e+00 0.000000000000e+00 9.549718559076e+00 1.000000000000e-10 
3.700000000000e+01 2.000000000000e+00 0.000000000000e+00 9.541321353286e+00 1.000000000000e-10 
3.800000000000e+01 2.000000000000e+00 0.000000000000e+00 9.529889419244e+00 1.000000000000e-10 
3.900000000000e+01 2.000000000000e+00 0.000000000000e+00 9.517326606601e+00 1.000000000000e-10 
4.000000000000e+01 2.000000000000e+00 0.000000000000e+00 9.502849219840e+00 1.000000000000e-10 
4.100000000000e+01 2.000000000000e+00 0.000000000000e+00 9.484562922359e+00 1.000000000000e-10 
4.200000000000e+01 2.000000000000e+00 0.000000000000e+00 9.465672348240e+00 1.000000000000e-10 
4.300000000000e+01 2.000000000000e+00 0.000000000000e+00 9.449286623020e+00 1.000000000000e-10 
4.400000000000e+01 2.000000000000e+00 0.000000000000e+00 9.431698181211e+00 1.000000000000e-10 
4.500000000000e+01 2.000000000000e+00 0.000000000000e+00 9.408980302814e+00 1.000000000000e-10 
4.600000000000e+01 2.000000000000e+00 0.000000000000e+00 9.384380850642e+00 1.000000000000e-10 
4.700000000000e+01 2.000000000000e+00 0.000000000000e+00 9.363162156794e+00 1.000000000000e-10 
4.800000000000e+01 2.000000000000e+00 0.000000000000e+00 9.334719693083e+00 1.000000000000e-10 
4.900000000000e+01 2.000000000000e+00 0.000000000000e+00 9.303488037033e+00 1.000000000000e-10 
5.000000000000e+01 2.000000000000e+00 0.000000000000e+00 9.270892683698e+00 1.000000000000e-10 
5.100000000000e+01 2.000000000000e+00 0.000000000000e+00 9.233160537318e+00 1.000000000000e-10 
5.200000000000e+01 2.000000000000e+00 0.000000000000e+00 9.206189945800e+00 1.000000000000e-10 
5.300000000000e+01 2.000000000000e+00 0.000000000000e+00 9.179385387087e+00 1.000000000000e-10 
5.400000000000e+01 2.000000000000e+00 0.000000000000e+00 9.147190713881e+00 1.000000000000e-10 
5.500000000000e+01 2.000000000000e+00 0.000000000000e+00 9.121593552432e+00 1.000000000000e-10 
5.600000000000e+01 2.000000000000e+00 0.000000000000e+00 9.094019662473e+00 1.000000000000e-10 
5.700000000000e+01 2.000000000000e+00 0.000000000000e+00 9.064891049391e+00 1.000000000000e-10 
5.800000000000e+01 2.000000000000e+00 0.000000000000e+00 9.039276372497e+00 1.000000000000e-10 
5.900000000000e+01 2.000000000000e+00 0.000000000000e+00 9.008128149513e+00 1.000000000000e-10 
6.000000000000e+01 2.000000000000e+00 0.000000000000e+00 8.987995368025e+00 1.000000000000e-10 
6.100000000000e+01 2.000000000000e+00 0.000000000000e+00 8.962871706617e+00 1.000000000000e-10 
6.200000000000e+01 2.000000000000e+00 0.000000000000e+00 8.926880636825e+00 1.000000000000e-10 
6.300000000000e+01 2.000000000000e+00 0.000000000000e+00 8.896610088433e+00 1.000000000000e-10 
6.400000000000e+01 2.000000000000e+00 0.000000000000e+00 8.854844455087e+00 1.000000000000e-10 
6.500000000000e+01 2.000000000000e+00 0.000000000000e+00 8.807239856180e+00 1.000000000000e-10 
6.600000000000e+01 2.000000000000e+00 0.000000000000e+00 8.768035468571e+00 1.000000000000e-10 
6.700000000000e+01 2.000000000000e+00 0.000000000000e+00 8.697040851832e+00 1.000000000000e-10 
6.800000000000e+01 2.000000000000e+00 0.000000000000e+00 8.644000909971e+00 1.000000000000e-10 
6.900000000000e+01 2.000000000000e+00 0.000000000000e+00 8.607460287058e+00 1.000000000000e-10 
7.000000000000e+01 2.000000000000e+00 0.000000000000e+00 8.576004138088e+00 1.000000000000e-10 
7.100000000000e+01 2.000000000000e+00 0.000000000000e+00 8.543718631631e+00 1.000000000000e-10 
7.200000000000e+01 2.000000000000e+00 0.000000000000e+00 8.519419813106e+00 1.000000000000e-10 
7.300000000000e+01 2.000000000000e+00 0.000000000000e+00 8.491578116673e+00 1.000000000000e-10 
7.400000000000e+01 2.000000000000e+00 0.000000000000e+00 8.472895101856e+00 1.000000000000e-10 
7.500000000000e+01 2.000000000000e+00 0.000000000000e+00 8.453634947238e+00 1.000000000000e-10 
7.600000000000e+01 2.000000000000e+00 0.000000000000e+00 8.442428184199e+00 1.000000000000e-10 
7.700000000000e+01 2.000000000000e+00 0.000000000000e+00 8.431400956762e+00 1.000000000000e-10 
7.800000000000e+01 2.000000000000e+00 0.000000000000e+00 8.416640337945e+00 1.000000000000e-10 
7.900000000000e+01 2.000000000000e+00 0.000000000000e+00 8.404347160534e+00 1.000000000000e-10 
8.000000000000e+01 2.000000000000e+00 0.000000000000e+00 8.394114176123e+00 1.000000000000e-10 
8.100000000000e+01 2.000000000000e+00 0.000000000000e+00 8.381832146898e+00 1.000000000000e-10 
8.200000000000e+01 2.000000000000e+00 0.000000000000e+00 8.373464663983e+00 1.000000000000e-10 
8.300000000000e+01 2.000000000000e+00 0.000000000000e+00 8.363165150960e+00 1.000000000000e-10 
8.400000000000e+01 2.000000000000e+00 0.000000000000e+00 8.354488722223e+00 1.000000000000e-10 
8.500000000000e+01 2.000000000000e+00 0.000000000000e+00 8.348917313650e+00 1.000000000000e-10 
8.600000000000e+01 2.000000000000e+00 0.000000000000e+00 8.343642996927e+00 1.000000000000e-10 
8.700000000000e+01 2.000000000000e+00 0.000000000000e+00 8.340256845906e+00 1.000000000000e-10 
8.800000000000e+01 2.000000000000e+00 0.000000000000e+00 8.338221677051e+00 1.000000000000e-10 
8.900000000000e+01 2.000000000000e+00 0.000000000000e+00 8.336352830674e+00 1.000000000000e-10 
9.000000000000e+01 2.000000000000e+00 0.000000000000e+00 8.334053223286e+00 1.000000000000e-10 
9.100000000000e+01 2.000000000000e+00 0.000000000000e+00 8.331516974664e+00 1.000000000000e-10 
9.200000000000e+01 2.000000000000e+00 0.000000000000e+00 8.329713965798e+00 1.000000000000e-10 
9.300000000000e+01 2.000000000000e+00 0.000000000000e+00 8.327840626146e+00 1.000000000000e-10 
9.400000000000e+01 2.000000000000e+00 0.000000000000e+00 8.324889389167e+00 1.000000000000e-10 
9.500000000000e+01 2.000000000000e+00 0.000000000000e+00 8.321563435936e+00 1.000000000000e-10 
9.600000000000e+01 2.000000000000e+00 0.000000000000e+00 8.315862264754e+00 1.000000000000e-10 
9.700000000000e+01 2.000000000000e+00 0.000000000000e+00 8.304038278857e+00 1.000000000000e-10 
9.800000000000e+01 2.000000000000e+00 0.000000000000e+00 8.285641001094e+00 1.000000000000e-10 
9.900000000000e+01 2.000000000000e+00 0.000000000000e+00 8.260742819906e+00 1.000000000000e-10 
1.000000000000e+02 2.000000000000e+00 0.000000000000e+00 8.235822673693e+00 1.000000000000e-10 
0.000000000000e+00 3.000000000000e+00 0.000000000000e+00 1.000000000000e+01 1.000000000000e-10 
1.000000000000e+00 3.000000000000e+00 0.000000000000e+00 9.991345517791e+00 1.000000000000e-10 
2.000000000000e+00 3.000000000000e+00 0.000000000000e+00 9.986057207111e+00 1.000000000000e-10 
3.000000000000e+00 3.000000000000e+00 0.000000000000e+00 9.981267812676e+00 1.000000000000e-10 
4.000000000000e+00 3.000000000000e+00 0.000000000000e+00 9.972598781192e+00 1.000000000000e-10 
5.000000000000e+00 3.000000000000e+00 0.000000000000e+00 9.963526493213e+00 1.000000000000e-10 
6.000000000000e+00 3.000000000000e+00 0.000000000000e+00 9.956615063093e+00 1.000000000000e-10 