<?xml version="1.0"?>
<!-- Time step: 1 | Time: 1.000000000000e+00 -->
<VTKFile type="UnstructuredGrid" version="0.1" byte_order="LittleEndian">
  <UnstructuredGrid>
    <Piece NumberOfPoints="527" NumberOfCells="480">
      <Points>
        <DataArray type="Float64" NumberOfComponents="3" format="ascii">
          1.000000000000e-03 0.000000000000e+00 0.000000000000e+00
          1.033333333333e-03 0.000000000000e+00 0.000000000000e+00
          1.066666666667e-03 0.000000000000e+00 0.000000000000e+00
          1.100000000000e-03 0.000000000000e+00 0.000000000000e+00
          1.133333333333e-03 0.000000000000e+00 0.000000000000e+00
          1.166666666667e-03 0.000000000000e+00 0.000000000000e+00
          1.200000000000e-03 0.000000000000e+00 0.000000000000e+00
          1.233333333333e-03 0.000000000000e+00 0.000000000000e+00
          1.266666666667e-03 0.000000000000e+00 0.000000000000e+00
          1.300000000000e-03 0.000000000000e+00 0.000000000000e+00
          1.333333333333e-03 0.000000000000e+00 0.000000000000e+00
          1.366666666667e-03 0.000000000000e+00 0.000000000000e+00
          1.400000000000e-03 0.000000000000e+00 0.000000000000e+00
          1.433333333333e-03 0.000000000000e+00 0.000000000000e+00
          1.466666666667e-03 0.000000000000e+00 0.000000000000e+00
          1.500000000000e-03 0.000000000000e+00 0.000000000000e+00
          1.533333333333e-03 0.000000000000e+00 0.000000000000e+00
          1.566666666667e-03 0.000000000000e+00 0.000000000000e+00
          1.600000000000e-03 0.000000000000e+00 0.000000000000e+00
          1.633333333333e-03 0.000000000000e+00 0.000000000000e+00
          1.666666666667e-03 0.000000000000e+00 0.000000000000e+00
          1.700000000000e-03 0.000000000000e+00 0.000000000000e+00
          1.733333333333e-03 0.000000000000e+00 0.000000000000e+00
          1.766666666667e-03 0.000000000000e+00 0.000000000000e+00
          1.800000000000e-03 0.000000000000e+00 0.000000000000e+00
          1.833333333333e-03 0.000000000000e+00 0.000000000000e+00
          1.866666666667e-03 0.000000000000e+00 0.000000000000e+00
          1.900000000000e-03 0.000000000000e+00 0.000000000000e+00
          1.933333333333e-03 0.000000000000e+00 0.000000000000e+00
          1.966666666667e-03 0.000000000000e+00 0.000000000000e+00
          2.000000000000e-03 0.000000000000e+00 0.000000000000e+00
          9.951847265300e-04 9.801714177290e-05 0.000000000000e+00
          1.028357550748e-03 1.012843798320e-04 0.000000000000e+00
          1.061530374965e-03 1.045516178911e-04 0.000000000000e+00
          1.094703199183e-03 1.078188559502e-04 0.000000000000e+00
          1.127876023401e-03 1.110860940093e-04 0.000000000000e+00
          1.161048847618e-03 1.143533320684e-04 0.000000000000e+00
          1.194221671836e-03 1.176205701275e-04 0.000000000000e+00
          1.227394496054e-03 1.208878081866e-04 0.000000000000e+00
          1.260567320271e-03 1.241550462457e-04 0.000000000000e+00
          1.293740144489e-03 1.274222843048e-04 0.000000000000e+00
          1.326912968707e-03 1.306895223639e-04 0.000000000000e+00
          1.360085792924e-03 1.339567604230e-04 0.000000000000e+00
          1.393258617142e-03 1.372239984821e-04 0.000000000000e+00
          1.426431441360e-03 1.404912365412e-04 0.000000000000e+00
          1.459604265577e-03 1.437584746002e-04 0.000000000000e+00
          1.492777089795e-03 1.470257126593e-04 0.000000000000e+00
          1.525949914013e-03 1.502929507184e-04 0.000000000000e+00
          1.559122738230e-03 1.535601887775e-04 0.000000000000e+00
          1.592295562448e-03 1.568274268366e-04 0.000000000000e+00
          1.625468386666e-03 1.600946648957e-04 0.000000000000e+00
          1.658641210883e-03 1.633619029548e-04 0.000000000000e+00
          1.691814035101e-03 1.666291410139e-04 0.000000000000e+00
          1.724986859319e-03 1.698963790730e-04 0.000000000000e+00
          1.758159683536e-03 1.731636171321e-04 0.000000000000e+00
          1.791332507754e-03 1.764308551912e-04 0.000000000000e+00
          1.824505331972e-03 1.796980932503e-04 0.000000000000e+00
          1.857678156189e-03 1.829653313094e-04 0.000000000000e+00
          1.890850980407e-03 1.862325693685e-04 0.000000000000e+00
          1.924023804625e-03 1.894998074276e-04 0.000000000000e+00
          1.957196628842e-03 1.927670454867e-04 0.000000000000e+00
          1.990369453060e-03 1.960342835458e-04 0.000000000000e+00
          9.807852798373e-04 1.950903248610e-04 0.000000000000e+00
          1.013478122499e-03 2.015933356897e-04 0.000000000000e+00
          1.046170965160e-03 2.080963465184e-04 0.000000000000e+00
          1.078863807821e-03 2.145993573471e-04 0.000000000000e+00
          1.111556650482e-03 2.211023681758e-04 0.000000000000e+00
          1.144249493144e-03 2.276053790045e-04 0.000000000000e+00
          1.176942335805e-03 2.341083898332e-04 0.000000000000e+00
          1.209635178466e-03 2.406114006619e-04 0.000000000000e+00
          1.242328021127e-03 2.471144114906e-04 0.000000000000e+00
          1.275020863789e-03 2.536174223193e-04 0.000000000000e+00
          1.307713706450e-03 2.601204331480e-04 0.000000000000e+00
          1.340406549111e-03 2.666234439767e-04 0.000000000000e+00
          1.373099391772e-03 2.731264548054e-04 0.000000000000e+00
          1.405792234434e-03 2.796294656341e-04 0.000000000000e+00
          1.438485077095e-03 2.861324764628e-04 0.000000000000e+00
          1.471177919756e-03 2.926354872915e-04 0.000000000000e+00
          1.503870762417e-03 2.991384981202e-04 0.000000000000e+00
          1.536563605079e-03 3.056415089489e-04 0.000000000000e+00
          1.569256447740e-03 3.121445197776e-04 0.000000000000e+00
          1.601949290401e-03 3.186475306064e-04 0.000000000000e+00
          1.634642133062e-03 3.251505414351e-04 0.000000000000e+00
          1.667334975723e-03 3.316535522638e-04 0.000000000000e+00
          1.700027818385e-03 3.381565630925e-04 0.000000000000e+00
          1.732720661046e-03 3.446595739212e-04 0.000000000000e+00
          1.765413503707e-03 3.511625847499e-04 0.000000000000e+00
          1.798106346368e-03 3.576655955786e-04 0.000000000000e+00
          1.830799189030e-03 3.641686064073e-04 0.000000000000e+00
          1.863492031691e-03 3.706716172360e-04 0.000000000000e+00
          1.896184874352e-03 3.771746280647e-04 0.000000000000e+00
          1.928877717013e-03 3.836776388934e-04 0.000000000000e+00
          1.961570559675e-03 3.901806497221e-04 0.000000000000e+00
          9.569403344692e-04 2.902846814181e-04 0.000000000000e+00
          9.888383456182e-04 2.999608374653e-04 0.000000000000e+00
          1.020736356767e-03 3.096369935126e-04 0.000000000000e+00
          1.052634367916e-03 3.193131495599e-04 0.000000000000e+00
          1.084532379065e-03 3.289893056071e-04 0.000000000000e+00
          1.116430390214e-03 3.386654616544e-04 0.000000000000e+00
          1.148328401363e-03 3.483416177017e-04 0.000000000000e+00
          1.180226412512e-03 3.580177737490e-04 0.000000000000e+00
          1.212124423661e-03 3.676939297962e-04 0.000000000000e+00
          1.244022434810e-03 3.773700858435e-04 0.000000000000e+00
          1.275920445959e-03 3.870462418908e-04 0.000000000000e+00
          1.307818457108e-03 3.967223979380e-04 0.000000000000e+00
          1.339716468257e-03 4.063985539853e-04 0.000000000000e+00
          1.371614479406e-03 4.160747100326e-04 0.000000000000e+00
          1.403512490555e-03 4.257508660798e-04 0.000000000000e+00
          1.435410501704e-03 4.354270221271e-04 0.000000000000e+00
          1.467308512853e-03 4.451031781744e-04 0.000000000000e+00
          1.499206524002e-03 4.547793342216e-04 0.000000000000e+00
          1.531104535151e-03 4.644554902689e-04 0.000000000000e+00
          1.563002546300e-03 4.741316463162e-04 0.000000000000e+00
          1.594900557449e-03 4.838078023634e-04 0.000000000000e+00
          1.626798568598e-03 4.934839584107e-04 0.000000000000e+00
          1.658696579747e-03 5.031601144580e-04 0.000000000000e+00
          1.690594590896e-03 5.128362705053e-04 0.000000000000e+00
          1.722492602045e-03 5.225124265525e-04 0.000000000000e+00
          1.754390613194e-03 5.321885825998e-04 0.000000000000e+00
          1.786288624343e-03 5.418647386471e-04 0.000000000000e+00
          1.818186635491e-03 5.515408946943e-04 0.000000000000e+00
          1.850084646640e-03 5.612170507416e-04 0.000000000000e+00
          1.881982657789e-03 5.708932067889e-04 0.000000000000e+00
          1.913880668938e-03 5.805693628361e-04 0.000000000000e+00
          9.238795302912e-04 3.826834377248e-04 0.000000000000e+00
          9.546755146343e-04 3.954395523156e-04 0.000000000000e+00
          9.854714989773e-04 4.081956669064e-04 0.000000000000e+00
          1.016267483320e-03 4.209517814972e-04 0.000000000000e+00
          1.047063467663e-03 4.337078960881e-04 0.000000000000e+00
          1.077859452006e-03 4.464640106789e-04 0.000000000000e+00
          1.108655436349e-03 4.592201252697e-04 0.000000000000e+00
          1.139451420693e-03 4.719762398606e-04 0.000000000000e+00
          1.170247405036e-03 4.847323544514e-04 0.000000000000e+00
          1.201043389379e-03 4.974884690422e-04 0.000000000000e+00
          1.231839373722e-03 5.102445836330e-04 0.000000000000e+00
          1.262635358065e-03 5.230006982239e-04 0.000000000000e+00
          1.293431342408e-03 5.357568128147e-04 0.000000000000e+00
          1.324227326751e-03 5.485129274055e-04 0.000000000000e+00
          1.355023311094e-03 5.612690419963e-04 0.000000000000e+00
          1.385819295437e-03 5.740251565872e-04 0.000000000000e+00
          1.416615279780e-03 5.867812711780e-04 0.000000000000e+00
          1.447411264123e-03 5.995373857688e-04 0.000000000000e+00
          1.478207248466e-03 6.122935003596e-04 0.000000000000e+00
          1.509003232809e-03 6.250496149505e-04 0.000000000000e+00
[...]
      <PointData Scalars="DISPLACEMENT_X1">
        <DataArray type="Float64" Name="STRESS_1" format="ascii">
          8.703974430313e+07 8.261453117651e+07 7.859543136169e+07 7.493555047883e+07 7.159363881493e+07 6.853398226863e+07 6.572568944910e+07 6.314196824142e+07 6.075949947131e+07 5.855791290392e+07 5.651935150503e+07 5.462810842419e+07 5.287032388312e+07 5.123373034992e+07 4.970743816451e+07 4.828175371219e+07 4.694802546277e+07 4.569851203103e+07 4.452627001058e+07 4.342505688246e+07 4.238924815983e+07 4.141376489404e+07 4.049401172777e+07 3.962582189259e+07 3.880541003520e+07 3.802932944579e+07 3.729443451577e+07 3.659784473538e+07 3.593691024562e+07 3.530917301269e+07 3.471229001949e+07 8.703974041523e+07 8.261452981333e+07 7.859543042192e+07 7.493554961906e+07 7.159363798172e+07 6.853398145123e+07 6.572568864444e+07 6.314196743293e+07 6.075949867729e+07 5.855791212517e+07 5.651935072095e+07 5.462810764911e+07 5.287032312212e+07 5.123372959455e+07 4.970743739662e+07 4.828175297234e+07 4.694802471721e+07 4.569851129392e+07 4.452626926197e+07 4.342505615677e+07 4.238924741026e+07 4.141376415536e+07 4.049401097735e+07 3.962582115442e+07 3.880540927174e+07 3.802932871241e+07 3.729443377122e+07 3.659784403851e+07 3.593690958048e+07 3.530917249109e+07 3.471228961244e+07 8.703974299409e+07 8.261453201500e+07 7.859543231960e+07 7.493555127375e+07 7.159363939833e+07 6.853398267399e+07 6.572568968992e+07 6.314196834046e+07 6.075949942657e+07 5.855791276523e+07 5.651935123661e+07 5.462810807023e+07 5.287032341468e+07 5.123372981580e+07 4.970743751188e+07 4.828175301288e+07 4.694802465027e+07 4.569851117770e+07 4.452626904431e+07 4.342505586914e+07 4.238924703290e+07 4.141376372514e+07 4.049401044183e+07 3.962582056260e+07 3.880540860308e+07 3.802932796084e+07 3.729443294100e+07 3.659784314237e+07 3.593690860758e+07 3.530917142616e+07 3.471228847642e+07 8.703974708751e+07 8.261453554371e+07 7.859543535811e+07 7.493555390083e+07 7.159364166477e+07 6.853398463535e+07 6.572569137786e+07 6.314196977848e+07 6.075950065763e+07 5.855791379686e+07 5.651935208457e+07 5.462810874174e+07 5.287032393583e+07 5.123373017321e+07 4.970743772032e+07 4.828175309017e+07 4.694802459143e+07 4.569851098601e+07 4.452626871588e+07 4.342505543070e+07 4.238924644600e+07 4.141376303723e+07 4.049400960290e+07 3.962581962930e+07 3.880540750730e+07 3.802932678611e+07 3.729443159185e+07 3.659784171090e+07 3.593690700496e+07 3.530916973448e+07 3.471228662810e+07 8.703975245538e+07 8.261454016086e+07 7.859543935625e+07 7.493555732403e+07 7.159364465690e+07 6.853398720728e+07 6.572569359889e+07 6.314197166561e+07 6.075950229018e+07 5.855791515166e+07 5.651935320578e+07 5.462810962953e+07 5.287032464861e+07 5.123373064938e+07 4.970743803787e+07 4.828175320159e+07 4.694802456170e+07 4.569851072534e+07 4.452626834368e+07 4.342505484334e+07 4.238924573541e+07 4.141376209260e+07 4.049400857235e+07 3.962581835305e+07 3.880540612412e+07 3.802932517074e+07 3.729442987508e+07 3.659783974895e+07 3.593690492122e+07 3.530916744074e+07 3.471228417124e+07 8.703975874997e+07 8.261454556137e+07 7.859544398547e+07 7.493556137464e+07 7.159364813553e+07 6.853399022101e+07 6.572569618681e+07 6.314197393333e+07 6.075950417506e+07 5.855791675304e+07 5.651935452755e+07 5.462811073698e+07 5.287032543954e+07 5.123373127512e+07 4.970743841561e+07 4.828175339043e+07 4.694802446978e+07 4.569851052724e+07 4.452626786339e+07 4.342505420282e+07 4.238924484815e+07 4.141376108970e+07 4.049400727069e+07 3.962581692510e+07 3.880540444856e+07 3.802932334133e+07 3.729442777524e+07 3.659783749897e+07 3.593690243377e+07 3.530916473279e+07 3.471228122199e+07 8.703976548709e+07 8.261455134830e+07 7.859544899779e+07 7.493556567869e+07 7.159365189268e+07 6.853399347138e+07 6.572569901188e+07 6.314197632036e+07 6.075950625230e+07 5.855791848465e+07 5.651935597398e+07 5.462811187425e+07 5.287032637373e+07 5.123373190743e+07 4.970743885602e+07 4.828175354983e+07 4.694802446892e+07 4.569851024128e+07 4.452626740817e+07 4.342505349633e+07 4.238924398604e+07 4.141375993459e+07 4.049400596475e+07 3.962581536301e+07 3.880540268276e+07 3.802932132408e+07 3.729442557090e+07 3.659783504014e+07 3.593689973178e+07 3.530916181763e+07 3.471227805849e+07 8.703977217324e+07 8.261455709377e+07 7.859545397704e+07 7.493557002266e+07 7.159365563738e+07 6.853399673460e+07 6.572570182523e+07 6.314197875206e+07 6.075950830713e+07 5.855792024131e+07 5.651935740795e+07 5.462811304610e+07 5.287032726403e+07 5.123373258197e+07 4.970743924511e+07 4.828175375176e+07 4.694802440924e+07 4.569850999124e+07 4.452626691008e+07 4.342505282174e+07 4.238924306392e+07 4.141375883889e+07 4.049400461854e+07 3.962581382458e+07 3.880540092422e+07 3.802931933652e+07 3.729442335675e+07 3.659783260341e+07 3.593689707120e+07 3.530915889329e+07 3.471227489406e+07 8.703977833451e+07 8.261456242521e+07 7.859545861111e+07 7.493557405179e+07 7.159365915594e+07 6.853399978128e+07 6.572570447229e+07 6.314198102784e+07 6.075951025236e+07 5.855792186748e+07 5.651935875998e+07 5.462811412896e+07 5.287032810971e+07 5.123373316576e+07 4.970743962757e+07 4.828175390852e+07 4.694802436258e+07 4.569850972437e+07 4.452626647823e+07 4.342505215821e+07 4.238924221496e+07 4.141375779138e+07 4.049400339211e+07 3.962581238080e+07 3.880539927989e+07 3.802931751098e+07 3.729442131512e+07 3.659783034903e+07 3.593689460979e+07 3.530915624193e+07 3.471227200049e+07 8.703978356020e+07 8.261456699923e+07 7.859546262205e+07 7.493557754521e+07 7.159366220271e+07 6.853400246423e+07 6.572570678831e+07 6.314198301977e+07 6.075951196260e+07 5.855792330578e+07 5.651935994331e+07 5.462811507397e+07 5.287032882926e+07 5.123373368692e+07 4.970743993481e+07 4.828175403279e+07 4.694802430743e+07 4.569850948235e+07 4.452626606091e+07 4.342505159070e+07 4.238924146129e+07 4.141375687571e+07 4.049400231526e+07 3.962581113948e+07 3.880539787460e+07 3.802931594066e+07 3.729441958030e+07 3.659782844471e+07 3.593689253366e+07 3.530915399785e+07 3.471226958987e+07 8.703978767326e+07 8.261457059921e+07 7.859546579356e+07 7.493558035667e+07 7.159366468254e+07 6.853400461654e+07 6.572570865865e+07 6.314198465673e+07 6.075951336072e+07 5.855792446439e+07 5.651936091056e+07 5.462811584963e+07 5.287032940389e+07 5.123373409814e+07 4.970744017943e+07 4.828175411769e+07 4.694802424907e+07 4.569850928134e+07 4.452626571269e+07 4.342505111110e+07 4.238924084429e+07 4.141375613470e+07 4.049400144244e+07 3.962581014460e+07 3.880539675818e+07 3.802931470281e+07 3.729441822240e+07 3.659782697823e+07 3.593689094649e+07 3.530915229057e+07 3.471226777626e+07 8.703979046854e+07 8.261457314044e+07 7.859546808734e+07 7.493558240213e+07 7.159366647359e+07 6.853400620592e+07 6.572571007346e+07 6.314198585880e+07 6.075951437757e+07 5.855792534417e+07 5.651936163929e+07 5.462811640869e+07 5.287032983111e+07 5.123373442402e+07 4.970744036832e+07 4.828175416436e+07 4.694802421146e+07 4.569850913794e+07 4.452626544170e+07 4.342505074478e+07 4.238924039827e+07 4.141375558669e+07 4.049400079797e+07 3.962580942384e+07 3.880539597134e+07 3.802931382364e+07 3.729441726503e+07 3.659782596894e+07 3.593688986964e+07 3.530915113476e+07 3.471226657430e+07 8.703979208765e+07 8.261457464886e+07 7.859546946046e+07 7.493558366911e+07 7.159366762580e+07 6.853400722556e+07 6.572571096990e+07 6.314198665512e+07 6.075951506433e+07 5.855792591928e+07 5.651936211391e+07 5.462811679819e+07 5.287033013805e+07 5.123373462272e+07 4.970744049132e+07 4.828175422582e+07 4.694802417617e+07 4.569850901861e+07 4.452626527320e+07 4.342505050464e+07 4.238924009097e+07 4.141375522072e+07 4.049400039321e+07 3.962580897504e+07 3.880539546934e+07 3.802931328817e+07 3.729441671664e+07 3.659782537580e+07 3.593688925411e+07 3.530915051772e+07 3.471226594169e+07 8.703979260455e+07 8.261457521609e+07 7.859547003142e+07 7.493558420479e+07 7.159366816283e+07 6.853400773448e+07 6.572571142949e+07 6.314198707496e+07 6.075951544591e+07 5.855792624912e+07 5.651936237922e+07 5.462811702789e+07 5.287033031507e+07 5.123373473485e+07 4.970744056691e+07 4.828175425951e+07 4.694802414916e+07 4.569850896213e+07 4.452626519097e+07 4.342505037898e+07 4.238923994142e+07 4.141375506082e+07 4.049400021518e+07 3.962580876726e+07 3.880539526091e+07 3.802931308456e+07 3.729441649924e+07 3.659782515762e+07 3.593688905276e+07 3.530915033248e+07 3.471226575528e+07 8.703979218725e+07 8.261457490968e+07 7.859546982934e+07 7.493558411109e+07 7.159366818362e+07 6.853400783000e+07 6.572571155970e+07 6.314198723767e+07 6.075951561570e+07 5.855792639449e+07 5.651936251372e+07 5.462811714428e+07 5.287033039586e+07 5.123373478669e+07 4.970744059743e+07 4.828175426129e+07 4.694802412943e+07 4.569850893695e+07 4.452626514966e+07 4.342505034113e+07 4.238923991042e+07 4.141375503514e+07 4.049400020181e+07 3.962580878221e+07 3.880539529246e+07 3.802931314480e+07 3.729441658339e+07 3.659782527159e+07 3.593688919400e+07 3.530915049498e+07 3.471226594341e+07 8.703979095422e+07 8.261457345936e+07 7.859546890883e+07 7.493558363612e+07 7.159366794062e+07 6.853400775670e+07 6.572571160191e+07 6.314198729158e+07 6.075951567093e+07 5.855792647857e+07 5.651936257688e+07 5.462811716473e+07 5.287033041409e+07 5.123373479288e+07 4.970744056803e+07 4.828175421391e+07 4.694802409063e+07 4.569850888529e+07 4.452626508624e+07 4.342505030045e+07 4.238923988842e+07 4.141375503056e+07 4.049400023801e+07 3.962580888319e+07 3.880539545247e+07 3.802931338450e+07 3.729441693785e+07 3.659782572376e+07 3.593688971703e+07 3.530915102492e+07 3.471226633647e+07 8.703978893295e+07 8.261457366746e+07 7.859546986995e+07 7.493558482065e+07 7.159366920579e+07 6.853400899099e+07 6.572571274733e+07 6.314198840404e+07 6.075951674111e+07 5.855792744780e+07 5.651936349682e+07 5.462811806172e+07 5.287033123007e+07 5.123373555261e+07 4.970744130823e+07 4.828175490744e+07 4.694802472758e+07 4.569850949936e+07 4.452626568789e+07 4.342505085516e+07 4.238924042246e+07 4.141375555969e+07 4.049400075547e+07 3.962580938418e+07 3.880539598307e+07 3.802931395569e+07 3.729441756646e+07 3.659782650169e+07 3.593689076290e+07 3.530915256041e+07 3.471226890773e+07 
        </DataArray>
        <DataArray type="Float64" Name="STRESS_2" format="ascii">