 TITLE = "Time curves in points"
 VARIABLES = "TIME "  "HEAD" 
 ZONE T="POINT=POINTOBS"
0.000000000000e+00 0.000000000000e+00 
8.640000000000e-01 -1.651766087403e-05 
1.728000000000e+00 -1.144990214683e-04 
2.592000000000e+00 -4.274570352777e-04 
3.456000000000e+00 -1.146904496253e-03 
4.320000000000e+00 -2.487880098585e-03 
5.184000000000e+00 -4.650149906341e-03 
6.048000000000e+00 -7.790183343685e-03 
6.912000000000e+00 -1.200865362808e-02 
7.776000000000e+00 -1.735083611085e-02 
8.640000000000e+00 -2.381472007459e-02 
1.641600000000e+01 -1.297462193177e-01 
2.419200000000e+01 -2.540043785247e-01 
3.196800000000e+01 -3.814407688627e-01 
3.974400000000e+01 -5.051870019231e-01 
4.752000000000e+01 -6.225105712355e-01 
5.529600000000e+01 -7.326194052280e-01 
6.307200000000e+01 -8.355894856986e-01 
7.084800000000e+01 -9.318564982348e-01 
7.862400000000e+01 -1.021978874243e+00 
8.640000000000e+01 -1.106529972590e+00 
1.641600000000e+02 -1.670475979868e+00 
2.419200000000e+02 -2.079237790848e+00 
3.196800000000e+02 -2.394515364322e+00 
3.974400000000e+02 -2.649009267463e+00 
4.752000000000e+02 -2.861461015510e+00 
5.529600000000e+02 -3.043366801745e+00 
6.307200000000e+02 -3.202191858645e+00 
7.084800000000e+02 -3.343018428449e+00 
7.862400000000e+02 -3.469444809388e+00 
8.640000000000e+02 -3.584103399641e+00 
1.641600000000e+03 -4.270487997297e+00 
2.419200000000e+03 -4.738793249873e+00 
3.196800000000e+03 -5.087330685191e+00 
3.974400000000e+03 -5.362444888166e+00 
4.752000000000e+03 -5.588718679961e+00 
5.529600000000e+03 -5.780452558728e+00 
6.307200000000e+03 -5.946589910923e+00 
7.084800000000e+03 -6.093053655913e+00 
7.862400000000e+03 -6.223950844987e+00 
8.640000000000e+03 -6.342237907642e+00 
1.641600000000e+04 -7.042574037567e+00 
2.419200000000e+04 -7.517420101722e+00 
3.196800000000e+04 -7.869525684030e+00 
3.974400000000e+04 -8.146817895595e+00 
4.752000000000e+04 -8.374535830656e+00 
5.529600000000e+04 -8.567287362668e+00 
6.307200000000e+04 -8.734174074876e+00 
7.084800000000e+04 -8.881205952319e+00 
7.862400000000e+04 -9.012539728732e+00 
8.640000000000e+04 -9.131160011874e+00 
1.641600000000e+05 -9.819659588359e+00 
2.419200000000e+05 -1.026230529561e+01 
3.196800000000e+05 -1.056158745397e+01 
3.974400000000e+05 -1.076871619090e+01 
4.752000000000e+05 -1.091358315276e+01 
5.529600000000e+05 -1.101538025243e+01 
6.307200000000e+05 -1.108706150790e+01 
7.084800000000e+05 -1.113758303493e+01 
7.862400000000e+05 -1.117320556770e+01 
8.640000000000e+05 -1.119832742294e+01 
