VARIABLES = "X","Y","Z","VX","VY","VZ"
ZONE T="0.000000000000e+00s", I=100, F=POINT, C=BLACK
5.000000000000e-04 0.000000000000e+00 0.000000000000e+00 0.000000000000e+00 0.000000000000e+00 0.000000000000e+00 
1.500000000000e-03 0.000000000000e+00 0.000000000000e+00 0.000000000000e+00 0.000000000000e+00 0.000000000000e+00 
2.500000000000e-03 0.000000000000e+00 0.000000000000e+00 0.000000000000e+00 0.000000000000e+00 0.000000000000e+00 
3.500000000000e-03 0.000000000000e+00 0.000000000000e+00 0.000000000000e+00 0.000000000000e+00 0.000000000000e+00 
4.500000000000e-03 0.000000000000e+00 0.000000000000e+00 0.000000000000e+00 0.000000000000e+00 0.000000000000e+00 
5.500000000000e-03 0.000000000000e+00 0.000000000000e+00 0.000000000000e+00 0.000000000000e+00 0.000000000000e+00 
6.500000000000e-03 0.000000000000e+00 0.000000000000e+00 0.000000000000e+00 0.000000000000e+00 0.000000000000e+00 
7.500000000000e-03 0.000000000000e+00 0.000000000000e+00 0.000000000000e+00 0.000000000000e+00 0.000000000000e+00 
8.500000000000e-03 0.000000000000e+00 0.000000000000e+00 0.000000000000e+00 0.000000000000e+00 0.000000000000e+00 
9.500000000000e-03 0.000000000000e+00 0.000000000000e+00 0.000000000000e+00 0.000000000000e+00 0.000000000000e+00 
1.050000000000e-02 0.000000000000e+00 0.000000000000e+00 0.000000000000e+00 0.000000000000e+00 0.000000000000e+00 
1.150000000000e-02 0.000000000000e+00 0.000000000000e+00 0.000000000000e+00 0.000000000000e+00 0.000000000000e+00 
1.250000000000e-02 0.000000000000e+00 0.000000000000e+00 0.000000000000e+00 0.000000000000e+00 0.000000000000e+00 
1.350000000000e-02 0.000000000000e+00 0.000000000000e+00 0.000000000000e+00 0.000000000000e+00 0.000000000000e+00 
1.450000000000e-02 0.000000000000e+00 0.000000000000e+00 0.000000000000e+00 0.000000000000e+00 0.000000000000e+00 
1.550000000000e-02 0.000000000000e+00 0.000000000000e+00 0.000000000000e+00 0.000000000000e+00 0.000000000000e+00 
1.650000000000e-02 0.000000000000e+00 0.000000000000e+00 0.000000000000e+00 0.000000000000e+00 0.000000000000e+00 
1.750000000000e-02 0.000000000000e+00 0.000000000000e+00 0.000000000000e+00 0.000000000000e+00 0.000000000000e+00 
1.850000000000e-02 0.000000000000e+00 0.000000000000e+00 0.000000000000e+00 0.000000000000e+00 0.000000000000e+00 
1.950000000000e-02 0.000000000000e+00 0.000000000000e+00 0.000000000000e+00 0.000000000000e+00 0.000000000000e+00 
2.050000000000e-02 0.000000000000e+00 0.000000000000e+00 0.000000000000e+00 0.000000000000e+00 0.000000000000e+00 
2.150000000000e-02 0.000000000000e+00 0.000000000000e+00 0.000000000000e+00 0.000000000000e+00 0.000000000000e+00 
2.250000000000e-02 0.000000000000e+00 0.000000000000e+00 0.000000000000e+00 0.000000000000e+00 0.000000000000e+00 
2.350000000000e-02 0.000000000000e+00 0.000000000000e+00 0.000000000000e+00 0.000000000000e+00 0.000000000000e+00 
2.450000000000e-02 0.000000000000e+00 0.000000000000e+00 0.000000000000e+00 0.000000000000e+00 0.000000000000e+00 
2.550000000000e-02 0.000000000000e+00 0.000000000000e+00 0.000000000000e+00 0.000000000000e+00 0.000000000000e+00 
2.650000000000e-02 0.000000000000e+00 0.000000000000e+00 0.000000000000e+00 0.000000000000e+00 0.000000000000e+00 
2.750000000000e-02 0.000000000000e+00 0.000000000000e+00 0.000000000000e+00 0.000000000000e+00 0.000000000000e+00 
2.850000000000e-02 0.000000000000e+00 0.000000000000e+00 0.000000000000e+00 0.000000000000e+00 0.000000000000e+00 
2.950000000000e-02 0.000000000000e+00 0.000000000000e+00 0.000000000000e+00 0.000000000000e+00 0.000000000000e+00 
3.050000000000e-02 0.000000000000e+00 0.000000000000e+00 0.000000000000e+00 0.000000000000e+00 0.000000000000e+00 
3.150000000000e-02 0.000000000000e+00 0.000000000000e+00 0.000000000000e+00 0.000000000000e+00 0.000000000000e+00 
3.250000000000e-02 0.000000000000e+00 0.000000000000e+00 0.000000000000e+00 0.000000000000e+00 0.000000000000e+00 
3.350000000000e-02 0.000000000000e+00 0.000000000000e+00 0.000000000000e+00 0.000000000000e+00 0.000000000000e+00 
3.450000000000e-02 0.000000000000e+00 0.000000000000e+00 0.000000000000e+00 0.000000000000e+00 0.000000000000e+00 
3.550000000000e-02 0.000000000000e+00 0.000000000000e+00 0.000000000000e+00 0.000000000000e+00 0.000000000000e+00 
3.650000000000e-02 0.000000000000e+00 0.000000000000e+00 0.000000000000e+00 0.000000000000e+00 0.000000000000e+00 
3.750000000000e-02 0.000000000000e+00 0.000000000000e+00 0.000000000000e+00 0.000000000000e+00 0.000000000000e+00 
3.850000000000e-02 0.000000000000e+00 0.000000000000e+00 0.000000000000e+00 0.000000000000e+00 0.000000000000e+00 
3.950000000000e-02 0.000000000000e+00 0.000000000000e+00 0.000000000000e+00 0.000000000000e+00 0.000000000000e+00 
4.050000000000e-02 0.000000000000e+00 0.000000000000e+00 0.000000000000e+00 0.000000000000e+00 0.000000000000e+00 
4.150000000000e-02 0.000000000000e+00 0.000000000000e+00 0.000000000000e+00 0.000000000000e+00 0.000000000000e+00 
4.250000000000e-02 0.000000000000e+00 0.000000000000e+00 0.000000000000e+00 0.000000000000e+00 0.000000000000e+00 
4.350000000000e-02 0.000000000000e+00 0.000000000000e+00 0.000000000000e+00 0.000000000000e+00 0.000000000000e+00 
4.450000000000e-02 0.000000000000e+00 0.000000000000e+00 0.000000000000e+00 0.000000000000e+00 0.000000000000e+00 
4.550000000000e-02 0.000000000000e+00 0.000000000000e+00 0.000000000000e+00 0.000000000000e+00 0.000000000000e+00 
4.650000000000e-02 0.000000000000e+00 0.000000000000e+00 0.000000000000e+00 0.000000000000e+00 0.000000000000e+00 
4.750000000000e-02 0.000000000000e+00 0.000000000000e+00 0.000000000000e+00 0.000000000000e+00 0.000000000000e+00 
4.850000000000e-02 0.000000000000e+00 0.000000000000e+00 0.000000000000e+00 0.000000000000e+00 0.000000000000e+00 
4.950000000000e-02 0.000000000000e+00 0.000000000000e+00 0.000000000000e+00 0.000000000000e+00 0.000000000000e+00 
5.050000000000e-02 0.000000000000e+00 0.000000000000e+00 0.000000000000e+00 0.000000000000e+00 0.000000000000e+00 
5.150000000000e-02 0.000000000000e+00 0.000000000000e+00 0.000000000000e+00 0.000000000000e+00 0.000000000000e+00 
5.250000000000e-02 0.000000000000e+00 0.000000000000e+00 0.000000000000e+00 0.000000000000e+00 0.000000000000e+00 
5.350000000000e-02 0.000000000000e+00 0.000000000000e+00 0.000000000000e+00 0.000000000000e+00 0.000000000000e+00 
5.450000000000e-02 0.000000000000e+00 0.000000000000e+00 0.000000000000e+00 0.000000000000e+00 0.000000000000e+00 
5.550000000000e-02 0.000000000000e+00 0.000000000000e+00 0.000000000000e+00 0.000000000000e+00 0.000000000000e+00 
5.650000000000e-02 0.000000000000e+00 0.000000000000e+00 0.000000000000e+00 0.000000000000e+00 0.000000000000e+00 
5.750000000000e-02 0.000000000000e+00 0.000000000000e+00 0.000000000000e+00 0.000000000000e+00 0.000000000000e+00 
5.850000000000e-02 0.000000000000e+00 0.000000000000e+00 0.000000000000e+00 0.000000000000e+00 0.000000000000e+00 
5.950000000000e-02 0.000000000000e+00 0.000000000000e+00 0.000000000000e+00 0.000000000000e+00 0.000000000000e+00 
6.050000000000e-02 0.000000000000e+00 0.000000000000e+00 0.000000000000e+00 0.000000000000e+00 0.000000000000e+00 
6.150000000000e-02 0.000000000000e+00 0.000000000000e+00 0.000000000000e+00 0.000000000000e+00 0.000000000000e+00 
6.250000000000e-02 0.000000000000e+00 0.000000000000e+00 0.000000000000e+00 0.000000000000e+00 0.000000000000e+00 
6.350000000000e-02 0.000000000000e+00 0.000000000000e+00 0.000000000000e+00 0.000000000000e+00 0.000000000000e+00 
6.450000000000e-02 0.000000000000e+00 0.000000000000e+00 0.000000000000e+00 0.000000000000e+00 0.000000000000e+00 
6.550000000000e-02 0.000000000000e+00 0.000000000000e+00 0.000000000000e+00 0.000000000000e+00 0.000000000000e+00 
6.650000000000e-02 0.000000000000e+00 0.000000000000e+00 0.000000000000e+00 0.000000000000e+00 0.000000000000e+00 
6.750000000000e-02 0.000000000000e+00 0.000000000000e+00 0.000000000000e+00 0.000000000000e+00 0.000000000000e+00 
6.850000000000e-02 0.000000000000e+00 0.000000000000e+00 0.000000000000e+00 0.000000000000e+00 0.000000000000e+00 
6.950000000000e-02 0.000000000000e+00 0.000000000000e+00 0.000000000000e+00 0.000000000000e+00 0.000000000000e+00 
7.050000000000e-02 0.000000000000e+00 0.000000000000e+00 0.000000000000e+00 0.000000000000e+00 0.000000000000e+00 
7.150000000000e-02 0.000000000000e+00 0.000000000000e+00 0.000000000000e+00 0.000000000000e+00 0.000000000000e+00 
7.250000000000e-02 0.000000000000e+00 0.000000000000e+00 0.000000000000e+00 0.000000000000e+00 0.000000000000e+00 
7.350000000000e-02 0.000000000000e+00 0.000000000000e+00 0.000000000000e+00 0.000000000000e+00 0.000000000000e+00 
7.450000000000e-02 0.000000000000e+00 0.000000000000e+00 0.000000000000e+00 0.000000000000e+00 0.000000000000e+00 
7.550000000000e-02 0.000000000000e+00 0.000000000000e+00 0.000000000000e+00 0.000000000000e+00 0.000000000000e+00 
7.650000000000e-02 0.000000000000e+00 0.000000000000e+00 0.000000000000e+00 0.000000000000e+00 0.000000000000e+00 
7.750000000000e-02 0.000000000000e+00 0.000000000000e+00 0.000000000000e+00 0.000000000000e+00 0.000000000000e+00 
7.850000000000e-02 0.000000000000e+00 0.000000000000e+00 0.000000000000e+00 0.000000000000e+00 0.000000000000e+00 
7.950000000000e-02 0.000000000000e+00 0.000000000000e+00 0.000000000000e+00 0.000000000000e+00 0.000000000000e+00 
8.050000000000e-02 0.000000000000e+00 0.000000000000e+00 0.000000000000e+00 0.000000000000e+00 0.000000000000e+00 
8.150000000000e-02 0.000000000000e+00 0.000000000000e+00 0.000000000000e+00 0.000000000000e+00 0.000000000000e+00 
8.250000000000e-02 0.000000000000e+00 0.000000000000e+00 0.000000000000e+00 0.000000000000e+00 0.000000000000e+00 
8.350000000000e-02 0.000000000000e+00 0.000000000000e+00 0.000000000000e+00 0.000000000000e+00 0.000000000000e+00 
8.450000000000e-02 0.000000000000e+00 0.000000000000e+00 0.000000000000e+00 0.000000000000e+00 0.000000000000e+00 
8.550000000000e-02 0.000000000000e+00 0.000000000000e+00 0.000000000000e+00 0.000000000000e+00 0.000000000000e+00 
8.650000000000e-02 0.000000000000e+00 0.000000000000e+00 0.000000000000e+00 0.000000000000e+00 0.000000000000e+00 
8.750000000000e-02 0.000000000000e+00 0.000000000000e+00 0.000000000000e+00 0.000000000000e+00 0.000000000000e+00 
8.850000000000e-02 0.000000000000e+00 0.000000000000e+00 0.000000000000e+00 0.000000000000e+00 0.000000000000e+00 
8.950000000000e-02 0.000000000000e+00 0.000000000000e+00 0.000000000000e+00 0.000000000000e+00 0.000000000000e+00 
9.050000000000e-02 0.000000000000e+00 0.000000000000e+00 0.000000000000e+00 0.000000000000e+00 0.000000000000e+00 
9.150000000000e-02 0.000000000000e+00 0.000000000000e+00 0.000000000000e+00 0.000000000000e+00 0.000000000000e+00 
9.250000000000e-02 0.000000000000e+00 0.000000000000e+00 0.000000000000e+00 0.000000000000e+00 0.000000000000e+00 
9.350000000000e-02 0.000000000000e+00 0.000000000000e+00 0.000000000000e+00 0.000000000000e+00 0.000000000000e+00 
9.450000000000e-02 0.000000000000e+00 0.000000000000e+00 0.000000000000e+00 0.000000000000e+00 0.000000000000e+00 
9.550000000000e-02 0.000000000000e+00 0.000000000000e+00 0.000000000000e+00 0.000000000000e+00 0.000000000000e+00 
9.650000000000e-02 0.000000000000e+00 0.000000000000e+00 0.000000000000e+00 0.000000000000e+00 0.000000000000e+00 
9.750000000000e-02 0.000000000000e+00 0.000000000000e+00 0.000000000000e+00 0.000000000000e+00 0.000000000000e+00 
9.850000000000e-02 0.000000000000e+00 0.000000000000e+00 0.000000000000e+00 0.000000000000e+00 0.000000000000e+00 
9.950000000000e-02 0.000000000000e+00 0.000000000000e+00 0.000000000000e+00 0.000000000000e+00 0.000000000000e+00 
VARIABLES = "X","Y","Z","VX","VY","VZ"
ZONE T="5.100000000000e+01s", I=100, F=POINT, C=BLACK
5.000000000000e-04 0.000000000000e+00 0.000000000000e+00 6.242456337204e-05 0.000000000000e+00 0.000000000000e+00 
1.500000000000e-03 0.000000000000e+00 0.000000000000e+00 6.211648673278e-05 0.000000000000e+00 0.000000000000e+00 
2.500000000000e-03 0.000000000000e+00 0.000000000000e+00 6.181150505742e-05 0.000000000000e+00 0.000000000000e+00 
3.500000000000e-03 0.000000000000e+00 0.000000000000e+00 6.150961728193e-05 0.000000000000e+00 0.000000000000e+00 
4.500000000000e-03 0.000000000000e+00 0.000000000000e+00 6.121082241817e-05 0.000000000000e+00 0.000000000000e+00 
5.500000000000e-03 0.000000000000e+00 0.000000000000e+00 6.091511955274e-05 0.000000000000e+00 0.000000000000e+00 
6.500000000000e-03 0.000000000000e+00 0.000000000000e+00 6.062250784588e-05 0.000000000000e+00 0.000000000000e+00 
7.500000000000e-03 0.000000000000e+00 0.000000000000e+00 6.033298653034e-05 0.000000000000e+00 0.000000000000e+00 
8.500000000000e-03 0.000000000000e+00 0.000000000000e+00 6.004655491020e-05 0.000000000000e+00 0.000000000000e+00 
9.500000000000e-03 0.000000000000e+00 0.000000000000e+00 5.976321235974e-05 0.000000000000e+00 0.000000000000e+00 
1.050000000000e-02 0.000000000000e+00 0.000000000000e+00 5.948295832219e-05 0.000000000000e+00 0.000000000000e+00 
1.150000000000e-02 0.000000000000e+00 0.000000000000e+00 5.920579230857e-05 0.000000000000e+00 0.000000000000e+00 
1.250000000000e-02 0.000000000000e+00 0.000000000000e+00 5.893171389645e-05 0.000000000000e+00 0.000000000000e+00 
1.350000000000e-02 0.000000000000e+00 0.000000000000e+00 5.866072272870e-05 0.000000000000e+00 0.000000000000e+00 
1.450000000000e-02 0.000000000000e+00 0.000000000000e+00 5.839281851222e-05 0.000000000000e+00 0.000000000000e+00 
1.550000000000e-02 0.000000000000e+00 0.000000000000e+00 5.812800101666e-05 0.000000000000e+00 0.000000000000e+00 
1.650000000000e-02 0.000000000000e+00 0.000000000000e+00 5.786627007319e-05 0.000000000000e+00 0.000000000000e+00 
1.750000000000e-02 0.000000000000e+00 0.000000000000e+00 5.760762557306e-05 0.000000000000e+00 0.000000000000e+00 
1.850000000000e-02 0.000000000000e+00 0.000000000000e+00 5.735206746639e-05 0.000000000000e+00 0.000000000000e+00 
1.950000000000e-02 0.000000000000e+00 0.000000000000e+00 5.709959576077e-05 0.000000000000e+00 0.000000000000e+00 
2.050000000000e-02 0.000000000000e+00 0.000000000000e+00 5.685021051988e-05 0.000000000000e+00 0.000000000000e+00 
2.150000000000e-02 0.000000000000e+00 0.000000000000e+00 5.660391186219e-05 0.000000000000e+00 0.000000000000e+00 
2.250000000000e-02 0.000000000000e+00 0.000000000000e+00 5.636069995951e-05 0.000000000000e+00 0.000000000000e+00 
2.350000000000e-02 0.000000000000e+00 0.000000000000e+00 5.612057503555e-05 0.000000000000e+00 0.000000000000e+00 
2.450000000000e-02 0.000000000000e+00 0.000000000000e+00 5.588353736462e-05 0.000000000000e+00 0.000000000000e+00 
2.550000000000e-02 0.000000000000e+00 0.000000000000e+00 5.564958727008e-05 0.000000000000e+00 0.000000000000e+00 
2.650000000000e-02 0.000000000000e+00 0.000000000000e+00 5.541872512297e-05 0.000000000000e+00 0.000000000000e+00 
2.750000000000e-02 0.000000000000e+00 0.000000000000e+00 5.519095134050e-05 0.000000000000e+00 0.000000000000e+00 
2.850000000000e-02 0.000000000000e+00 0.000000000000e+00 5.496626638463e-05 0.000000000000e+00 0.000000000000e+00 
2.950000000000e-02 0.000000000000e+00 0.000000000000e+00 5.474467076056e-05 0.000000000000e+00 0.000000000000e+00 
3.050000000000e-02 0.000000000000e+00 0.000000000000e+00 5.452616501523e-05 0.000000000000e+00 0.000000000000e+00 
3.150000000000e-02 0.000000000000e+00 0.000000000000e+00 5.431074973585e-05 0.000000000000e+00 0.000000000000e+00 
3.250000000000e-02 0.000000000000e+00 0.000000000000e+00 5.409842554838e-05 0.000000000000e+00 0.000000000000e+00 
3.350000000000e-02 0.000000000000e+00 0.000000000000e+00 5.388919311597e-05 0.000000000000e+00 0.000000000000e+00 
3.450000000000e-02 0.000000000000e+00 0.000000000000e+00 5.368305313750e-05 0.000000000000e+00 0.000000000000e+00 
3.550000000000e-02 0.000000000000e+00 0.000000000000e+00 5.348000634599e-05 0.000000000000e+00 0.000000000000e+00 
3.650000000000e-02 0.000000000000e+00 0.000000000000e+00 5.328005350708e-05 0.000000000000e+00 0.000000000000e+00 
3.750000000000e-02 0.000000000000e+00 0.000000000000e+00 5.308319541750e-05 0.000000000000e+00 0.000000000000e+00 
3.850000000000e-02 0.000000000000e+00 0.000000000000e+00 5.288943290346e-05 0.000000000000e+00 0.000000000000e+00 
3.950000000000e-02 0.000000000000e+00 0.000000000000e+00 5.269876681917e-05 0.000000000000e+00 0.000000000000e+00 
4.050000000000e-02 0.000000000000e+00 0.000000000000e+00 5.251119804521e-05 0.000000000000e+00 0.000000000000e+00 
4.150000000000e-02 0.000000000000e+00 0.000000000000e+00 5.232672748702e-05 0.000000000000e+00 0.000000000000e+00 
4.250000000000e-02 0.000000000000e+00 0.000000000000e+00 5.214535607328e-05 0.000000000000e+00 0.000000000000e+00 
4.350000000000e-02 0.000000000000e+00 0.000000000000e+00 5.196708475441e-05 0.000000000000e+00 0.000000000000e+00 
4.450000000000e-02 0.000000000000e+00 0.000000000000e+00 5.179191450093e-05 0.000000000000e+00 0.000000000000e+00 
4.550000000000e-02 0.000000000000e+00 0.000000000000e+00 5.161984630195e-05 0.000000000000e+00 0.000000000000e+00 
4.650000000000e-02 0.000000000000e+00 0.000000000000e+00 5.145088116359e-05 0.000000000000e+00 0.000000000000e+00 
4.750000000000e-02 0.000000000000e+00 0.000000000000e+00 5.128502010739e-05 0.000000000000e+00 0.000000000000e+00 
4.850000000000e-02 0.000000000000e+00 0.000000000000e+00 5.112226416882e-05 0.000000000000e+00 0.000000000000e+00 
4.950000000000e-02 0.000000000000e+00 0.000000000000e+00 5.096261439563e-05 0.000000000000e+00 0.000000000000e+00 
5.050000000000e-02 0.000000000000e+00 0.000000000000e+00 5.080607184639e-05 0.000000000000e+00 0.000000000000e+00 
5.150000000000e-02 0.000000000000e+00 0.000000000000e+00 5.065263758891e-05 0.000000000000e+00 0.000000000000e+00 
5.250000000000e-02 0.000000000000e+00 0.000000000000e+00 5.050231269869e-05 0.000000000000e+00 0.000000000000e+00 
5.350000000000e-02 0.000000000000e+00 0.000000000000e+00 5.035509825741e-05 0.000000000000e+00 0.000000000000e+00 
5.450000000000e-02 0.000000000000e+00 0.000000000000e+00 5.021099535144e-05 0.000000000000e+00 0.000000000000e+00 
5.550000000000e-02 0.000000000000e+00 0.000000000000e+00 5.007000507030e-05 0.000000000000e+00 0.000000000000e+00 
5.650000000000e-02 0.000000000000e+00 0.000000000000e+00 4.993212850516e-05 0.000000000000e+00 0.000000000000e+00 
5.750000000000e-02 0.000000000000e+00 0.000000000000e+00 4.979736674739e-05 0.000000000000e+00 0.000000000000e+00 
5.850000000000e-02 0.000000000000e+00 0.000000000000e+00 4.966572088707e-05 0.000000000000e+00 0.000000000000e+00 
5.950000000000e-02 0.000000000000e+00 0.000000000000e+00 4.953719201155e-05 0.000000000000e+00 0.000000000000e+00 
6.050000000000e-02 0.000000000000e+00 0.000000000000e+00 4.941178120398e-05 0.000000000000e+00 0.000000000000e+00 
6.150000000000e-02 0.000000000000e+00 0.000000000000e+00 4.928948954194e-05 0.000000000000e+00 0.000000000000e+00 
6.250000000000e-02 0.000000000000e+00 0.000000000000e+00 4.917031809600e-05 0.000000000000e+00 0.000000000000e+00 
6.350000000000e-02 0.000000000000e+00 0.000000000000e+00 4.905426792835e-05 0.000000000000e+00 0.000000000000e+00 
6.450000000000e-02 0.000000000000e+00 0.000000000000e+00 4.894134009142e-05 0.000000000000e+00 0.000000000000e+00 
6.550000000000e-02 0.000000000000e+00 0.000000000000e+00 4.883153562655e-05 0.000000000000e+00 0.000000000000e+00 
6.650000000000e-02 0.000000000000e+00 0.000000000000e+00 4.872485556267e-05 0.000000000000e+00 0.000000000000e+00 
6.750000000000e-02 0.000000000000e+00 0.000000000000e+00 4.862130091500e-05 0.000000000000e+00 0.000000000000e+00 
6.850000000000e-02 0.000000000000e+00 0.000000000000e+00 4.852087268377e-05 0.000000000000e+00 0.000000000000e+00 
6.950000000000e-02 0.000000000000e+00 0.000000000000e+00 4.842357185296e-05 0.000000000000e+00 0.000000000000e+00 
7.050000000000e-02 0.000000000000e+00 0.000000000000e+00 4.832939938911e-05 0.000000000000e+00 0.000000000000e+00 
7.150000000000e-02 0.000000000000e+00 0.000000000000e+00 4.823835624009e-05 0.000000000000e+00 0.000000000000e+00 
7.250000000000e-02 0.000000000000e+00 0.000000000000e+00 4.815044333394e-05 0.000000000000e+00 0.000000000000e+00 
7.350000000000e-02 0.000000000000e+00 0.000000000000e+00 4.806566157774e-05 0.000000000000e+00 0.000000000000e+00 
7.450000000000e-02 0.000000000000e+00 0.000000000000e+00 4.798401185650e-05 0.000000000000e+00 0.000000000000e+00 
7.550000000000e-02 0.000000000000e+00 0.000000000000e+00 4.790549503205e-05 0.000000000000e+00 0.000000000000e+00 
7.650000000000e-02 0.000000000000e+00 0.000000000000e+00 4.783011194204e-05 0.000000000000e+00 0.000000000000e+00 
7.750000000000e-02 0.000000000000e+00 0.000000000000e+00 4.775786339890e-05 0.000000000000e+00 0.000000000000e+00 
7.850000000000e-02 0.000000000000e+00 0.000000000000e+00 4.768875018884e-05 0.000000000000e+00 0.000000000000e+00 
7.950000000000e-02 0.000000000000e+00 0.000000000000e+00 4.762277307094e-05 0.000000000000e+00 0.000000000000e+00 
8.050000000000e-02 0.000000000000e+00 0.000000000000e+00 4.755993277621e-05 0.000000000000e+00 0.000000000000e+00 
8.150000000000e-02 0.000000000000e+00 0.000000000000e+00 4.750023000673e-05 0.000000000000e+00 0.000000000000e+00 
8.250000000000e-02 0.000000000000e+00 0.000000000000e+00 4.744366543479e-05 0.000000000000e+00 0.000000000000e+00 
8.350000000000e-02 0.000000000000e+00 0.000000000000e+00 4.739023970212e-05 0.000000000000e+00 0.000000000000e+00 
8.450000000000e-02 0.000000000000e+00 0.000000000000e+00 4.733995341907e-05 0.000000000000e+00 0.000000000000e+00 
8.550000000000e-02 0.000000000000e+00 0.000000000000e+00 4.729280716395e-05 0.000000000000e+00 0.000000000000e+00 
8.650000000000e-02 0.000000000000e+00 0.000000000000e+00 4.724880148230e-05 0.000000000000e+00 0.000000000000e+00 
8.750000000000e-02 0.000000000000e+00 0.000000000000e+00 4.720793688625e-05 0.000000000000e+00 0.000000000000e+00 
8.850000000000e-02 0.000000000000e+00 0.000000000000e+00 4.717021385393e-05 0.000000000000e+00 0.000000000000e+00 
8.950000000000e-02 0.000000000000e+00 0.000000000000e+00 4.713563282887e-05 0.000000000000e+00 0.000000000000e+00 
9.050000000000e-02 0.000000000000e+00 0.000000000000e+00 4.710419421952e-05 0.000000000000e+00 0.000000000000e+00 
9.150000000000e-02 0.000000000000e+00 0.000000000000e+00 4.707589839873e-05 0.000000000000e+00 0.000000000000e+00 
9.250000000000e-02 0.000000000000e+00 0.000000000000e+00 4.705074570334e-05 0.000000000000e+00 0.000000000000e+00 
9.350000000000e-02 0.000000000000e+00 0.000000000000e+00 4.702873643374e-05 0.000000000000e+00 0.000000000000e+00 
9.450000000000e-02 0.000000000000e+00 0.000000000000e+00 4.700987085360e-05 0.000000000000e+00 0.000000000000e+00 
9.550000000000e-02 0.000000000000e+00 0.000000000000e+00 4.699414918946e-05 0.000000000000e+00 0.000000000000e+00 
9.650000000000e-02 0.000000000000e+00 0.000000000000e+00 4.698157163050e-05 0.000000000000e+00 0.000000000000e+00 
9.750000000000e-02 0.000000000000e+00 0.000000000000e+00 4.697213832838e-05 0.000000000000e+00 0.000000000000e+00 
9.850000000000e-02 0.000000000000e+00 0.000000000000e+00 4.696584939697e-05 0.000000000000e+00 0.000000000000e+00 
9.950000000000e-02 0.000000000000e+00 0.000000000000e+00 4.696270491225e-05 0.000000000000e+00 0.000000000000e+00 
VARIABLES = "X","Y","Z","VX","VY","VZ"
ZONE T="1.020000000000e+02s", I=100, F=POINT, C=BLACK
5.000000000000e-04 0.000000000000e+00 0.000000000000e+00 5.564301754930e-05 0.000000000000e+00 0.000000000000e+00 
1.500000000000e-03 0.000000000000e+00 0.000000000000e+00 5.556111401500e-05 0.000000000000e+00 0.000000000000e+00 
2.500000000000e-03 0.000000000000e+00 0.000000000000e+00 5.547894371501e-05 0.000000000000e+00 0.000000000000e+00 
3.500000000000e-03 0.000000000000e+00 0.000000000000e+00 5.539654804873e-05 0.000000000000e+00 0.000000000000e+00 
4.500000000000e-03 0.000000000000e+00 0.000000000000e+00 5.531396750797e-05 0.000000000000e+00 0.000000000000e+00 
5.500000000000e-03 0.000000000000e+00 0.000000000000e+00 5.523124169796e-05 0.000000000000e+00 0.000000000000e+00 
6.500000000000e-03 0.000000000000e+00 0.000000000000e+00 5.514840935783e-05 0.000000000000e+00 0.000000000000e+00 
7.500000000000e-03 0.000000000000e+00 0.000000000000e+00 5.506550838027e-05 0.000000000000e+00 0.000000000000e+00 
8.500000000000e-03 0.000000000000e+00 0.000000000000e+00 5.498257583086e-05 0.000000000000e+00 0.000000000000e+00 
9.500000000000e-03 0.000000000000e+00 0.000000000000e+00 5.489964796665e-05 0.000000000000e+00 0.000000000000e+00 
1.050000000000e-02 0.000000000000e+00 0.000000000000e+00 5.481676025432e-05 0.000000000000e+00 0.000000000000e+00 
1.150000000000e-02 0.000000000000e+00 0.000000000000e+00 5.473394738770e-05 0.000000000000e+00 0.000000000000e+00 
1.250000000000e-02 0.000000000000e+00 0.000000000000e+00 5.465124330490e-05 0.000000000000e+00 0.000000000000e+00 
1.350000000000e-02 0.000000000000e+00 0.000000000000e+00 5.456868120487e-05 0.000000000000e+00 0.000000000000e+00 
1.450000000000e-02 0.000000000000e+00 0.000000000000e+00 5.448629356345e-05 0.000000000000e+00 0.000000000000e+00 
1.550000000000e-02 0.000000000000e+00 0.000000000000e+00 5.440411214912e-05 0.000000000000e+00 0.000000000000e+00 
1.650000000000e-02 0.000000000000e+00 0.000000000000e+00 5.432216803812e-05 0.000000000000e+00 0.000000000000e+00 
1.750000000000e-02 0.000000000000e+00 0.000000000000e+00 5.424049162921e-05 0.000000000000e+00 0.000000000000e+00 
1.850000000000e-02 0.000000000000e+00 0.000000000000e+00 5.415911265807e-05 0.000000000000e+00 0.000000000000e+00 
1.950000000000e-02 0.000000000000e+00 0.000000000000e+00 5.407806021118e-05 0.000000000000e+00 0.000000000000e+00 
2.050000000000e-02 0.000000000000e+00 0.000000000000e+00 5.399736273941e-05 0.000000000000e+00 0.000000000000e+00 
2.150000000000e-02 0.000000000000e+00 0.000000000000e+00 5.391704807116e-05 0.000000000000e+00 0.000000000000e+00 
2.250000000000e-02 0.000000000000e+00 0.000000000000e+00 5.383714342517e-05 0.000000000000e+00 0.000000000000e+00 
2.350000000000e-02 0.000000000000e+00 0.000000000000e+00 5.375767542292e-05 0.000000000000e+00 0.000000000000e+00 
2.450000000000e-02 0.000000000000e+00 0.000000000000e+00 5.367867010077e-05 0.000000000000e+00 0.000000000000e+00 
2.550000000000e-02 0.000000000000e+00 0.000000000000e+00 5.360015292167e-05 0.000000000000e+00 0.000000000000e+00 
2.650000000000e-02 0.000000000000e+00 0.000000000000e+00 5.352214878664e-05 0.000000000000e+00 0.000000000000e+00 
2.750000000000e-02 0.000000000000e+00 0.000000000000e+00 5.344468204576e-05 0.000000000000e+00 0.000000000000e+00 
2.850000000000e-02 0.000000000000e+00 0.000000000000e+00 5.336777650906e-05 0.000000000000e+00 0.000000000000e+00 
2.950000000000e-02 0.000000000000e+00 0.000000000000e+00 5.329145545703e-05 0.000000000000e+00 0.000000000000e+00 
3.050000000000e-02 0.000000000000e+00 0.000000000000e+00 5.321574165074e-05 0.000000000000e+00 0.000000000000e+00 
3.150000000000e-02 0.000000000000e+00 0.000000000000e+00 5.314065734180e-05 0.000000000000e+00 0.000000000000e+00 
3.250000000000e-02 0.000000000000e+00 0.000000000000e+00 5.306622428203e-05 0.000000000000e+00 0.000000000000e+00 
3.350000000000e-02 0.000000000000e+00 0.000000000000e+00 5.299246373280e-05 0.000000000000e+00 0.000000000000e+00 
3.450000000000e-02 0.000000000000e+00 0.000000000000e+00 5.291939647414e-05 0.000000000000e+00 0.000000000000e+00 
3.550000000000e-02 0.000000000000e+00 0.000000000000e+00 5.284704281366e-05 0.000000000000e+00 0.000000000000e+00 
3.650000000000e-02 0.000000000000e+00 0.000000000000e+00 5.277542259507e-05 0.000000000000e+00 0.000000000000e+00 
3.750000000000e-02 0.000000000000e+00 0.000000000000e+00 5.270455520664e-05 0.000000000000e+00 0.000000000000e+00 
3.850000000000e-02 0.000000000000e+00 0.000000000000e+00 5.263445958932e-05 0.000000000000e+00 0.000000000000e+00 
3.950000000000e-02 0.000000000000e+00 0.000000000000e+00 5.256515424462e-05 0.000000000000e+00 0.000000000000e+00 
4.050000000000e-02 0.000000000000e+00 0.000000000000e+00 5.249665724232e-05 0.000000000000e+00 0.000000000000e+00 
4.150000000000e-02 0.000000000000e+00 0.000000000000e+00 5.242898622801e-05 0.000000000000e+00 0.000000000000e+00 
4.250000000000e-02 0.000000000000e+00 0.000000000000e+00 5.236215843024e-05 0.000000000000e+00 0.000000000000e+00 
4.350000000000e-02 0.000000000000e+00 0.000000000000e+00 5.229619066768e-05 0.000000000000e+00 0.000000000000e+00 
4.450000000000e-02 0.000000000000e+00 0.000000000000e+00 5.223109935593e-05 0.000000000000e+00 0.000000000000e+00 
4.550000000000e-02 0.000000000000e+00 0.000000000000e+00 5.216690051421e-05 0.000000000000e+00 0.000000000000e+00 
4.650000000000e-02 0.000000000000e+00 0.000000000000e+00 5.210360977183e-05 0.000000000000e+00 0.000000000000e+00 
4.750000000000e-02 0.000000000000e+00 0.000000000000e+00 5.204124237448e-05 0.000000000000e+00 0.000000000000e+00 
4.850000000000e-02 0.000000000000e+00 0.000000000000e+00 5.197981319036e-05 0.000000000000e+00 0.000000000000e+00 
4.950000000000e-02 0.000000000000e+00 0.000000000000e+00 5.191933671606e-05 0.000000000000e+00 0.000000000000e+00 
5.050000000000e-02 0.000000000000e+00 0.000000000000e+00 5.185982708243e-05 0.000000000000e+00 0.000000000000e+00 
5.150000000000e-02 0.000000000000e+00 0.000000000000e+00 5.180129806003e-05 0.000000000000e+00 0.000000000000e+00 
5.250000000000e-02 0.000000000000e+00 0.000000000000e+00 5.174376306471e-05 0.000000000000e+00 0.000000000000e+00 
5.350000000000e-02 0.000000000000e+00 0.000000000000e+00 5.168723516274e-05 0.000000000000e+00 0.000000000000e+00 
5.450000000000e-02 0.000000000000e+00 0.000000000000e+00 5.163172707602e-05 0.000000000000e+00 0.000000000000e+00 
5.550000000000e-02 0.000000000000e+00 0.000000000000e+00 5.157725118699e-05 0.000000000000e+00 0.000000000000e+00 
5.650000000000e-02 0.000000000000e+00 0.000000000000e+00 5.152381954349e-05 0.000000000000e+00 0.000000000000e+00 
5.750000000000e-02 0.000000000000e+00 0.000000000000e+00 5.147144386333e-05 0.000000000000e+00 0.000000000000e+00 