 TITLE = "Time curves in points"
 VARIABLES = "TIME " leavingParticles 
 ZONE T="POINT=POINTBC_DOWN"
0.000000000000e+00 0 
5.100000000000e+01 0 
1.020000000000e+02 0 
1.530000000000e+02 0 
2.040000000000e+02 0 
2.550000000000e+02 0 
3.060000000000e+02 1 
3.570000000000e+02 0 
4.080000000000e+02 3 
4.590000000000e+02 5 
5.100000000000e+02 12 
5.610000000000e+02 15 
6.120000000000e+02 21 
6.630000000000e+02 33 
7.140000000000e+02 37 
7.650000000000e+02 44 
8.160000000000e+02 48 
8.670000000000e+02 63 
9.180000000000e+02 67 
9.690000000000e+02 80 
1.020000000000e+03 81 
1.071000000000e+03 78 
1.122000000000e+03 67 
1.173000000000e+03 83 
1.224000000000e+03 104 
1.275000000000e+03 77 
1.326000000000e+03 100 
1.377000000000e+03 79 
1.428000000000e+03 88 
1.479000000000e+03 86 
1.530000000000e+03 87 
1.581000000000e+03 88 
1.632000000000e+03 89 
1.683000000000e+03 87 
1.734000000000e+03 71 
1.785000000000e+03 100 
1.836000000000e+03 56 
1.887000000000e+03 50 
1.938000000000e+03 52 
1.989000000000e+03 43 
2.040000000000e+03 40 
2.091000000000e+03 30 
2.142000000000e+03 27 
2.193000000000e+03 25 
2.244000000000e+03 29 
2.295000000000e+03 17 
2.346000000000e+03 15 
2.397000000000e+03 2 
2.448000000000e+03 9 
2.499000000000e+03 3 
2.550000000000e+03 2 
2.601000000000e+03 3 
2.652000000000e+03 4 
2.703000000000e+03 0 
2.754000000000e+03 2 
2.805000000000e+03 0 
2.856000000000e+03 1 
2.907000000000e+03 0 
2.958000000000e+03 0 
3.009000000000e+03 0 
3.060000000000e+03 0 
