<?xml version="1.0"?>
<!-- Time step: 60 | Time: 3.060000000000e+03 -->
<VTKFile type="UnstructuredGrid" version="0.1" byte_order="LittleEndian">
  <UnstructuredGrid>
    <Piece NumberOfPoints="101" NumberOfCells="100">
      <Points>
        <DataArray type="Float64" NumberOfComponents="3" format="ascii">
          0.000000000000e+00 0.000000000000e+00 0.000000000000e+00
          1.000000000000e-03 0.000000000000e+00 0.000000000000e+00
          2.000000000000e-03 0.000000000000e+00 0.000000000000e+00
          3.000000000000e-03 0.000000000000e+00 0.000000000000e+00
          4.000000000000e-03 0.000000000000e+00 0.000000000000e+00
          5.000000000000e-03 0.000000000000e+00 0.000000000000e+00
          6.000000000000e-03 0.000000000000e+00 0.000000000000e+00
          7.000000000000e-03 0.000000000000e+00 0.000000000000e+00
          8.000000000000e-03 0.000000000000e+00 0.000000000000e+00
          9.000000000000e-03 0.000000000000e+00 0.000000000000e+00
          1.000000000000e-02 0.000000000000e+00 0.000000000000e+00
          1.100000000000e-02 0.000000000000e+00 0.000000000000e+00
          1.200000000000e-02 0.000000000000e+00 0.000000000000e+00
          1.300000000000e-02 0.000000000000e+00 0.000000000000e+00
          1.400000000000e-02 0.000000000000e+00 0.000000000000e+00
          1.500000000000e-02 0.000000000000e+00 0.000000000000e+00
          1.600000000000e-02 0.000000000000e+00 0.000000000000e+00
          1.700000000000e-02 0.000000000000e+00 0.000000000000e+00
          1.800000000000e-02 0.000000000000e+00 0.000000000000e+00
          1.900000000000e-02 0.000000000000e+00 0.000000000000e+00
          2.000000000000e-02 0.000000000000e+00 0.000000000000e+00
          2.100000000000e-02 0.000000000000e+00 0.000000000000e+00
          2.200000000000e-02 0.000000000000e+00 0.000000000000e+00
          2.300000000000e-02 0.000000000000e+00 0.000000000000e+00
          2.400000000000e-02 0.000000000000e+00 0.000000000000e+00
          2.500000000000e-02 0.000000000000e+00 0.000000000000e+00
          2.600000000000e-02 0.000000000000e+00 0.000000000000e+00
          2.700000000000e-02 0.000000000000e+00 0.000000000000e+00
          2.800000000000e-02 0.000000000000e+00 0.000000000000e+00
          2.900000000000e-02 0.000000000000e+00 0.000000000000e+00
          3.000000000000e-02 0.000000000000e+00 0.000000000000e+00
          3.100000000000e-02 0.000000000000e+00 0.000000000000e+00
          3.200000000000e-02 0.000000000000e+00 0.000000000000e+00
          3.300000000000e-02 0.000000000000e+00 0.000000000000e+00
          3.400000000000e-02 0.000000000000e+00 0.000000000000e+00
          3.500000000000e-02 0.000000000000e+00 0.000000000000e+00
          3.600000000000e-02 0.000000000000e+00 0.000000000000e+00
          3.700000000000e-02 0.000000000000e+00 0.000000000000e+00
          3.800000000000e-02 0.000000000000e+00 0.000000000000e+00
          3.900000000000e-02 0.000000000000e+00 0.000000000000e+00
          4.000000000000e-02 0.000000000000e+00 0.000000000000e+00
          4.100000000000e-02 0.000000000000e+00 0.000000000000e+00
          4.200000000000e-02 0.000000000000e+00 0.000000000000e+00
          4.300000000000e-02 0.000000000000e+00 0.000000000000e+00
          4.400000000000e-02 0.000000000000e+00 0.000000000000e+00
          4.500000000000e-02 0.000000000000e+00 0.000000000000e+00
          4.600000000000e-02 0.000000000000e+00 0.000000000000e+00
          4.700000000000e-02 0.000000000000e+00 0.000000000000e+00
          4.800000000000e-02 0.000000000000e+00 0.000000000000e+00
          4.900000000000e-02 0.000000000000e+00 0.000000000000e+00
          5.000000000000e-02 0.000000000000e+00 0.000000000000e+00
          5.100000000000e-02 0.000000000000e+00 0.000000000000e+00
          5.200000000000e-02 0.000000000000e+00 0.000000000000e+00
          5.300000000000e-02 0.000000000000e+00 0.000000000000e+00
          5.400000000000e-02 0.000000000000e+00 0.000000000000e+00
          5.500000000000e-02 0.000000000000e+00 0.000000000000e+00
          5.600000000000e-02 0.000000000000e+00 0.000000000000e+00
          5.700000000000e-02 0.000000000000e+00 0.000000000000e+00
          5.800000000000e-02 0.000000000000e+00 0.000000000000e+00
          5.900000000000e-02 0.000000000000e+00 0.000000000000e+00
          6.000000000000e-02 0.000000000000e+00 0.000000000000e+00
          6.100000000000e-02 0.000000000000e+00 0.000000000000e+00
          6.200000000000e-02 0.000000000000e+00 0.000000000000e+00
          6.300000000000e-02 0.000000000000e+00 0.000000000000e+00
          6.400000000000e-02 0.000000000000e+00 0.000000000000e+00
          6.500000000000e-02 0.000000000000e+00 0.000000000000e+00
          6.600000000000e-02 0.000000000000e+00 0.000000000000e+00
          6.700000000000e-02 0.000000000000e+00 0.000000000000e+00
          6.800000000000e-02 0.000000000000e+00 0.000000000000e+00
          6.900000000000e-02 0.000000000000e+00 0.000000000000e+00
          7.000000000000e-02 0.000000000000e+00 0.000000000000e+00
          7.100000000000e-02 0.000000000000e+00 0.000000000000e+00
          7.200000000000e-02 0.000000000000e+00 0.000000000000e+00
          7.300000000000e-02 0.000000000000e+00 0.000000000000e+00
          7.400000000000e-02 0.000000000000e+00 0.000000000000e+00
          7.500000000000e-02 0.000000000000e+00 0.000000000000e+00
          7.600000000000e-02 0.000000000000e+00 0.000000000000e+00
          7.700000000000e-02 0.000000000000e+00 0.000000000000e+00
          7.800000000000e-02 0.000000000000e+00 0.000000000000e+00
          7.900000000000e-02 0.000000000000e+00 0.000000000000e+00
          8.000000000000e-02 0.000000000000e+00 0.000000000000e+00
          8.100000000000e-02 0.000000000000e+00 0.000000000000e+00
          8.200000000000e-02 0.000000000000e+00 0.000000000000e+00
          8.300000000000e-02 0.000000000000e+00 0.000000000000e+00
          8.400000000000e-02 0.000000000000e+00 0.000000000000e+00
          8.500000000000e-02 0.000000000000e+00 0.000000000000e+00
          8.600000000000e-02 0.000000000000e+00 0.000000000000e+00
          8.700000000000e-02 0.000000000000e+00 0.000000000000e+00
          8.800000000000e-02 0.000000000000e+00 0.000000000000e+00
          8.900000000000e-02 0.000000000000e+00 0.000000000000e+00
          9.000000000000e-02 0.000000000000e+00 0.000000000000e+00
          9.100000000000e-02 0.000000000000e+00 0.000000000000e+00
          9.200000000000e-02 0.000000000000e+00 0.000000000000e+00
          9.300000000000e-02 0.000000000000e+00 0.000000000000e+00
          9.400000000000e-02 0.000000000000e+00 0.000000000000e+00
          9.500000000000e-02 0.000000000000e+00 0.000000000000e+00
          9.600000000000e-02 0.000000000000e+00 0.000000000000e+00
          9.700000000000e-02 0.000000000000e+00 0.000000000000e+00
          9.800000000000e-02 0.000000000000e+00 0.000000000000e+00
          9.900000000000e-02 0.000000000000e+00 0.000000000000e+00
          1.000000000000e-01 0.000000000000e+00 0.000000000000e+00
        </DataArray>
      </Points>
      <Cells>
        <DataArray type="Int64" Name="connectivity" format="ascii">
          0 1 
          1 2 
          2 3 
          3 4 
          4 5 
          5 6 
          6 7 
          7 8 
          8 9 
          9 10 
          10 11 
          11 12 
          12 13 
          13 14 
          14 15 
          15 16 
          16 17 
          17 18 
          18 19 
          19 20 
          20 21 
          21 22 
          22 23 
          23 24 
          24 25 
          25 26 
          26 27 
          27 28 
          28 29 
          29 30 
          30 31 
          31 32 
          32 33 
          33 34 
          34 35 
          35 36 
          36 37 
          37 38 
          38 39 
          39 40 
          40 41 
          41 42 
          42 43 
          43 44 
          44 45 
          45 46 
          46 47 
          47 48 
          48 49 
          49 50 
          50 51 
          51 52 
          52 53 
          53 54 
          54 55 
          55 56 
          56 57 
          57 58 
          58 59 
          59 60 
          60 61 
          61 62 
          62 63 
          63 64 
          64 65 
          65 66 
          66 67 
          67 68 
          68 69 
          69 70 
          70 71 
          71 72 
          72 73 
          73 74 
          74 75 
          75 76 
          76 77 
          77 78 
          78 79 
          79 80 
          80 81 
          81 82 
          82 83 
          83 84 
          84 85 
          85 86 
          86 87 
          87 88 
          88 89 
          89 90 
          90 91 
          91 92 
          92 93 
          93 94 
          94 95 
          95 96 
          96 97 
          97 98 
          98 99 
          99 100 
        </DataArray>
        <DataArray type="Int64" Name="offsets" format="ascii">
          2 4 6 8 10 12 14 16 18 20 22 24 26 28 30 32 34 36 38 40 42 44 46 48 50 52 54 56 58 60 62 64 66 68 70 72 74 76 78 80 82 84 86 88 90 92 94 96 98 100 102 104 106 108 110 112 114 116 118 120 122 124 126 128 130 132 134 136 138 140 142 144 146 148 150 152 154 156 158 160 162 164 166 168 170 172 174 176 178 180 182 184 186 188 190 192 194 196 198 200 
        </DataArray>
        <DataArray type="UInt8" Name="types" format="ascii">
          3 3 3 3 3 3 3 3 3 3 3 3 3 3 3 3 3 3 3 3 3 3 3 3 3 3 3 3 3 3 3 3 3 3 3 3 3 3 3 3 3 3 3 3 3 3 3 3 3 3 3 3 3 3 3 3 3 3 3 3 3 3 3 3 3 3 3 3 3 3 3 3 3 3 3 3 3 3 3 3 3 3 3 3 3 3 3 3 3 3 3 3 3 3 3 3 3 3 3 3 
        </DataArray>
      </Cells>
      <PointData Scalars="HEAD">
        <DataArray type="Float64" Name="HEAD" format="ascii">
          9.555000000000e-02 9.479829999999e-02 9.404659999998e-02 9.329489999998e-02 9.254319999997e-02 9.179149999996e-02 9.103979999995e-02 9.028809999995e-02 8.953639999994e-02 8.878469999993e-02 8.803299999993e-02 8.728129999992e-02 8.652959999991e-02 8.577789999991e-02 8.502619999990e-02 8.427449999989e-02 8.352279999989e-02 8.277109999988e-02 8.201939999988e-02 8.126769999987e-02 8.051599999987e-02 7.976429999987e-02 7.901259999986e-02 7.826089999986e-02 7.750919999986e-02 7.675749999986e-02 7.600579999985e-02 7.525409999985e-02 7.450239999985e-02 7.375069999985e-02 7.299899999985e-02 7.224729999985e-02 7.149559999985e-02 7.074389999984e-02 6.999219999984e-02 6.924049999984e-02 6.848879999984e-02 6.773709999984e-02 6.698539999984e-02 6.623369999984e-02 6.548199999984e-02 6.473029999984e-02 6.397859999984e-02 6.322689999984e-02 6.247519999984e-02 6.172349999984e-02 6.097179999984e-02 6.022009999984e-02 5.946839999985e-02 5.871669999985e-02 5.796499999985e-02 5.721329999985e-02 5.646159999985e-02 5.570989999985e-02 5.495819999985e-02 5.420649999985e-02 5.345479999985e-02 5.270309999985e-02 5.195139999985e-02 5.119969999985e-02 5.044799999985e-02 4.969629999986e-02 4.894459999986e-02 4.819289999986e-02 4.744119999986e-02 4.668949999986e-02 4.593779999986e-02 4.518609999986e-02 4.443439999986e-02 4.368269999986e-02 4.293099999986e-02 4.217929999986e-02 4.142759999986e-02 4.067589999987e-02 3.992419999987e-02 3.917249999987e-02 3.842079999987e-02 3.766909999987e-02 3.691739999988e-02 3.616569999988e-02 3.541399999989e-02 3.466229999989e-02 3.391059999989e-02 3.315889999990e-02 3.240719999990e-02 3.165549999991e-02 3.090379999992e-02 3.015209999992e-02 2.940039999993e-02 2.864869999993e-02 2.789699999994e-02 2.714529999995e-02 2.639359999995e-02 2.564189999996e-02 2.489019999996e-02 2.413849999997e-02 2.338679999998e-02 2.263509999998e-02 2.188339999999e-02 2.113169999999e-02 2.038000000000e-02 
        </DataArray>
        <DataArray type="Float64" Name="NODAL_VELOCITY1" NumberOfComponents="3" format="ascii">
          5.228993946714e-05 0.000000000000e+00 0.000000000000e+00 5.228993946714e-05 0.000000000000e+00 0.000000000000e+00 5.228993946714e-05 0.000000000000e+00 0.000000000000e+00 5.228993946714e-05 0.000000000000e+00 0.000000000000e+00 5.228993946713e-05 0.000000000000e+00 0.000000000000e+00 5.228993946713e-05 0.000000000000e+00 0.000000000000e+00 5.228993946713e-05 0.000000000000e+00 0.000000000000e+00 5.228993946712e-05 0.000000000000e+00 0.000000000000e+00 5.228993946712e-05 0.000000000000e+00 0.000000000000e+00 5.228993946711e-05 0.000000000000e+00 0.000000000000e+00 5.228993946710e-05 0.000000000000e+00 0.000000000000e+00 5.228993946709e-05 0.000000000000e+00 0.000000000000e+00 5.228993946708e-05 0.000000000000e+00 0.000000000000e+00 5.228993946707e-05 0.000000000000e+00 0.000000000000e+00 5.228993946706e-05 0.000000000000e+00 0.000000000000e+00 5.228993946704e-05 0.000000000000e+00 0.000000000000e+00 5.228993946703e-05 0.000000000000e+00 0.000000000000e+00 5.228993946701e-05 0.000000000000e+00 0.000000000000e+00 5.228993946699e-05 0.000000000000e+00 0.000000000000e+00 5.228993946697e-05 0.000000000000e+00 0.000000000000e+00 5.228993946695e-05 0.000000000000e+00 0.000000000000e+00 5.228993946693e-05 0.000000000000e+00 0.000000000000e+00 5.228993946691e-05 0.000000000000e+00 0.000000000000e+00 5.228993946689e-05 0.000000000000e+00 0.000000000000e+00 5.228993946687e-05 0.000000000000e+00 0.000000000000e+00 5.228993946686e-05 0.000000000000e+00 0.000000000000e+00 5.228993946684e-05 0.000000000000e+00 0.000000000000e+00 5.228993946684e-05 0.000000000000e+00 0.000000000000e+00 5.228993946683e-05 0.000000000000e+00 0.000000000000e+00 5.228993946682e-05 0.000000000000e+00 0.000000000000e+00 5.228993946681e-05 0.000000000000e+00 0.000000000000e+00 5.228993946681e-05 0.000000000000e+00 0.000000000000e+00 5.228993946680e-05 0.000000000000e+00 0.000000000000e+00 5.228993946680e-05 0.000000000000e+00 0.000000000000e+00 5.228993946679e-05 0.000000000000e+00 0.000000000000e+00 5.228993946679e-05 0.000000000000e+00 0.000000000000e+00 5.228993946678e-05 0.000000000000e+00 0.000000000000e+00 5.228993946678e-05 0.000000000000e+00 0.000000000000e+00 5.228993946677e-05 0.000000000000e+00 0.000000000000e+00 5.228993946676e-05 0.000000000000e+00 0.000000000000e+00 5.228993946675e-05 0.000000000000e+00 0.000000000000e+00 5.228993946674e-05 0.000000000000e+00 0.000000000000e+00 5.228993946673e-05 0.000000000000e+00 0.000000000000e+00 5.228993946672e-05 0.000000000000e+00 0.000000000000e+00 5.228993946672e-05 0.000000000000e+00 0.000000000000e+00 5.228993946671e-05 0.000000000000e+00 0.000000000000e+00 5.228993946671e-05 0.000000000000e+00 0.000000000000e+00 5.228993946670e-05 0.000000000000e+00 0.000000000000e+00 5.228993946670e-05 0.000000000000e+00 0.000000000000e+00 5.228993946670e-05 0.000000000000e+00 0.000000000000e+00 5.228993946670e-05 0.000000000000e+00 0.000000000000e+00 5.228993946670e-05 0.000000000000e+00 0.000000000000e+00 5.228993946671e-05 0.000000000000e+00 0.000000000000e+00 5.228993946671e-05 0.000000000000e+00 0.000000000000e+00 5.228993946671e-05 0.000000000000e+00 0.000000000000e+00 5.228993946671e-05 0.000000000000e+00 0.000000000000e+00 5.228993946672e-05 0.000000000000e+00 0.000000000000e+00 5.228993946672e-05 0.000000000000e+00 0.000000000000e+00 5.228993946672e-05 0.000000000000e+00 0.000000000000e+00 5.228993946673e-05 0.000000000000e+00 0.000000000000e+00 5.228993946673e-05 0.000000000000e+00 0.000000000000e+00 5.228993946673e-05 0.000000000000e+00 0.000000000000e+00 5.228993946673e-05 0.000000000000e+00 0.000000000000e+00 5.228993946673e-05 0.000000000000e+00 0.000000000000e+00 5.228993946673e-05 0.000000000000e+00 0.000000000000e+00 5.228993946673e-05 0.000000000000e+00 0.000000000000e+00 5.228993946672e-05 0.000000000000e+00 0.000000000000e+00 5.228993946672e-05 0.000000000000e+00 0.000000000000e+00 5.228993946671e-05 0.000000000000e+00 0.000000000000e+00 5.228993946670e-05 0.000000000000e+00 0.000000000000e+00 5.228993946669e-05 0.000000000000e+00 0.000000000000e+00 5.228993946668e-05 0.000000000000e+00 0.000000000000e+00 5.228993946667e-05 0.000000000000e+00 0.000000000000e+00 5.228993946666e-05 0.000000000000e+00 0.000000000000e+00 5.228993946664e-05 0.000000000000e+00 0.000000000000e+00 5.228993946663e-05 0.000000000000e+00 0.000000000000e+00 5.228993946661e-05 0.000000000000e+00 0.000000000000e+00 5.228993946659e-05 0.000000000000e+00 0.000000000000e+00 5.228993946657e-05 0.000000000000e+00 0.000000000000e+00 5.228993946656e-05 0.000000000000e+00 0.000000000000e+00 5.228993946654e-05 0.000000000000e+00 0.000000000000e+00 5.228993946652e-05 0.000000000000e+00 0.000000000000e+00 5.228993946651e-05 0.000000000000e+00 0.000000000000e+00 5.228993946650e-05 0.000000000000e+00 0.000000000000e+00 5.228993946648e-05 0.000000000000e+00 0.000000000000e+00 5.228993946647e-05 0.000000000000e+00 0.000000000000e+00 5.228993946646e-05 0.000000000000e+00 0.000000000000e+00 5.228993946646e-05 0.000000000000e+00 0.000000000000e+00 5.228993946645e-05 0.000000000000e+00 0.000000000000e+00 5.228993946645e-05 0.000000000000e+00 0.000000000000e+00 5.228993946644e-05 0.000000000000e+00 0.000000000000e+00 5.228993946644e-05 0.000000000000e+00 0.000000000000e+00 5.228993946644e-05 0.000000000000e+00 0.000000000000e+00 5.228993946644e-05 0.000000000000e+00 0.000000000000e+00 5.228993946644e-05 0.000000000000e+00 0.000000000000e+00 5.228993946644e-05 0.000000000000e+00 0.000000000000e+00 5.228993946644e-05 0.000000000000e+00 0.000000000000e+00 5.228993946644e-05 0.000000000000e+00 0.000000000000e+00 5.228993946644e-05 0.000000000000e+00 0.000000000000e+00 5.228993946644e-05 0.000000000000e+00 0.000000000000e+00 5.228993946644e-05 0.000000000000e+00 0.000000000000e+00 
        </DataArray>
      </PointData>
      <CellData>
      </CellData>
    </Piece>
  </UnstructuredGrid>
</VTKFile>
