<?xml version="1.0"?>
<!-- Time step: 60 | Time: 3.600000000000e+07 -->
<VTKFile type="UnstructuredGrid" version="0.1" byte_order="LittleEndian">
  <UnstructuredGrid>
    <Piece NumberOfPoints="415" NumberOfCells="766">
      <Points>
        <DataArray type="Float64" NumberOfComponents="3" format="ascii">
          1.207938530154e+00 2.415959878103e-01 0.000000000000e+00
          1.300000000000e+00 2.499999999994e-01 0.000000000000e+00
          1.220000000000e+00 3.100000000000e-01 0.000000000000e+00
          1.300000000000e+00 3.333333333326e-01 0.000000000000e+00
          8.200000000000e-01 3.099999907180e-01 0.000000000000e+00
          8.320614730209e-01 3.784040209120e-01 0.000000000000e+00
          7.503508241230e-01 3.552767902482e-01 0.000000000000e+00
          1.207938523804e+00 3.784040296343e-01 0.000000000000e+00
          1.300000000000e+00 4.166666666658e-01 0.000000000000e+00
          7.600000000000e-01 4.100000000000e-01 0.000000000000e+00
          2.561902203926e-01 5.078411520450e-01 0.000000000000e+00
          3.287433399033e-01 5.627346023625e-01 0.000000000000e+00
          2.700000096462e-01 5.841154217496e-01 0.000000000000e+00
          1.949999969186e-01 5.591858446495e-01 0.000000000000e+00
          4.774328853885e-01 5.128460131256e-01 0.000000000000e+00
          5.199999957128e-01 5.485640621303e-01 0.000000000000e+00
          4.500000120577e-01 5.841154342803e-01 0.000000000000e+00
          4.978880093076e-01 6.242982416332e-01 0.000000000000e+00
          -3.500000616284e-02 5.591858393123e-01 0.000000000000e+00
          4.006091329651e-02 5.865057821630e-01 0.000000000000e+00
          -4.047979771015e-02 6.225826841191e-01 0.000000000000e+00
          2.221120068016e-01 6.242982224349e-01 0.000000000000e+00
          1.500001138785e-02 6.427756879314e-01 0.000000000000e+00
          -2.297477425353e-01 7.318565673969e-01 0.000000000000e+00
          -2.400000000000e-01 7.899999921103e-01 0.000000000000e+00
          -3.000000000000e-01 7.500000000003e-01 0.000000000000e+00
          -3.000000000000e-01 8.333333333336e-01 0.000000000000e+00
          -2.297477479322e-01 8.481434177752e-01 0.000000000000e+00
          7.544515513989e-01 9.121296405866e-01 0.000000000000e+00
          8.049999949090e-01 9.545448237797e-01 0.000000000000e+00
          7.105263157909e-01 1.000000000000e+00 0.000000000000e+00
          1.045548442933e+00 9.121296473415e-01 0.000000000000e+00
          1.047368421053e+00 1.000000000000e+00 0.000000000000e+00
          9.949999974545e-01 9.545448281887e-01 0.000000000000e+00
          3.287433234494e-01 9.172653947363e-01 0.000000000000e+00
          3.912566683236e-01 9.172653961869e-01 0.000000000000e+00
          3.736842105279e-01 1.000000000000e+00 0.000000000000e+00
          2.894736842120e-01 1.000000000000e+00 0.000000000000e+00
          -1.550000045551e-01 9.372243160134e-01 0.000000000000e+00
          -9.952019451997e-02 9.574173172509e-01 0.000000000000e+00
          -1.315789473679e-01 1.000000000000e+00 0.000000000000e+00
          1.499999772243e-02 9.372243199583e-01 0.000000000000e+00
          3.684210526418e-02 1.000000000000e+00 0.000000000000e+00
          -4.047981324990e-02 9.574173186210e-01 0.000000000000e+00
          8.670068414189e-01 9.771134722216e-01 0.000000000000e+00
          7.947368421066e-01 1.000000000000e+00 0.000000000000e+00
          9.631578947379e-01 1.000000000000e+00 0.000000000000e+00
          9.329931498972e-01 9.771134737529e-01 0.000000000000e+00
          -4.736842105186e-02 1.000000000000e+00 0.000000000000e+00
          8.789473684223e-01 1.000000000000e+00 0.000000000000e+00
          1.220140513920e+00 8.708522108707e-01 0.000000000000e+00
          1.300000000000e+00 8.333333333329e-01 0.000000000000e+00
          1.300000000000e+00 9.166666666664e-01 0.000000000000e+00
          -2.157894736844e-01 0.000000000000e+00 0.000000000000e+00
          -1.315789473689e-01 0.000000000000e+00 0.000000000000e+00
          -1.729701395524e-01 8.533172290824e-02 0.000000000000e+00
          -2.253868227720e-01 1.473636439423e-01 0.000000000000e+00
          -3.000000000000e-01 1.666666666674e-01 0.000000000000e+00
          -3.000000000000e-01 8.333333333368e-02 0.000000000000e+00
          1.104339330064e+00 5.680912583836e-01 0.000000000000e+00
          1.054729631471e+00 5.069615513188e-01 0.000000000000e+00
          1.119999997321e+00 4.832050823039e-01 0.000000000000e+00
          1.215789473684e+00 1.000000000000e+00 0.000000000000e+00
          1.131578947369e+00 1.000000000000e+00 0.000000000000e+00
          1.170164247833e+00 9.428979967600e-01 0.000000000000e+00
          8.667911067357e-01 4.385575164070e-01 0.000000000000e+00
          9.199999946410e-01 4.832050776629e-01 0.000000000000e+00
          8.373053486063e-01 5.014933379662e-01 0.000000000000e+00
          1.638402246392e-01 9.258059061812e-01 0.000000000000e+00
          2.052631578961e-01 1.000000000000e+00 0.000000000000e+00
          1.210526315802e-01 1.000000000000e+00 0.000000000000e+00
          -4.736842105329e-02 0.000000000000e+00 0.000000000000e+00
          -8.910046105699e-02 9.056429311187e-02 0.000000000000e+00
          2.625957929725e-01 8.339547519858e-02 0.000000000000e+00
          2.052631578936e-01 0.000000000000e+00 0.000000000000e+00
          2.894736842093e-01 0.000000000000e+00 0.000000000000e+00
          2.221119960621e-01 8.557017647663e-01 0.000000000000e+00
          1.483717367759e-01 8.468865985656e-01 0.000000000000e+00
          1.908553257188e-01 8.015636188208e-01 0.000000000000e+00
          1.176768722761e+00 7.442649879194e-02 0.000000000000e+00
          1.131578947368e+00 0.000000000000e+00 0.000000000000e+00
          1.215789473684e+00 0.000000000000e+00 0.000000000000e+00
          1.300000000000e+00 8.333333333313e-02 0.000000000000e+00
          1.300000000000e+00 1.666666666663e-01 0.000000000000e+00
          1.230221424054e+00 1.266364559953e-01 0.000000000000e+00
          1.026183028519e+00 5.634456431138e-01 0.000000000000e+00
          9.852703593883e-01 5.069615497070e-01 0.000000000000e+00
          3.513310899481e-01 4.981094123732e-01 0.000000000000e+00
          2.961293023751e-01 4.386646340794e-01 0.000000000000e+00
          8.052400923779e-01 4.541691807252e-01 0.000000000000e+00
          4.198186839884e-01 5.148514690425e-01 0.000000000000e+00
          3.912566847775e-01 5.627346067143e-01 0.000000000000e+00
          1.173208887298e+00 4.385575235174e-01 0.000000000000e+00
          1.218294453612e+00 4.577377547577e-01 0.000000000000e+00
          1.103210650972e+00 9.506069699314e-01 0.000000000000e+00
          8.425078750989e-02 6.358658211655e-01 0.000000000000e+00
          1.199390761913e-01 5.865057840166e-01 0.000000000000e+00
          7.693347658022e-01 2.775055490852e-01 0.000000000000e+00
          7.225671193846e-01 3.071539925628e-01 0.000000000000e+00
          1.244713466180e+00 1.931290986291e-01 0.000000000000e+00
          1.539343898654e-01 6.276068456419e-01 0.000000000000e+00
          1.300000000000e+00 0.000000000000e+00 0.000000000000e+00
          1.245531176627e+00 5.753505689752e-02 0.000000000000e+00
          1.300000000000e+00 1.000000000000e+00 0.000000000000e+00
          1.238626915819e+00 9.468997524437e-01 0.000000000000e+00
          -2.404510237281e-01 6.106005434673e-02 0.000000000000e+00
          -3.000000000000e-01 0.000000000000e+00 0.000000000000e+00
          6.022756434609e-02 6.807261170980e-01 0.000000000000e+00
          1.908553314332e-01 6.784363654791e-01 0.000000000000e+00
          7.503508190436e-01 4.647232237074e-01 0.000000000000e+00
          9.446176150742e-01 6.420354944623e-02 0.000000000000e+00
          9.852703776703e-01 1.130384470694e-01 0.000000000000e+00
          9.200000107180e-01 1.367949130551e-01 0.000000000000e+00
          8.667795810503e-01 6.983553088741e-02 0.000000000000e+00
          8.789473684207e-01 0.000000000000e+00 0.000000000000e+00
          9.631578947366e-01 0.000000000000e+00 0.000000000000e+00
          1.017646300240e+00 6.017892686272e-02 0.000000000000e+00
          1.054729649753e+00 1.130384519048e-01 0.000000000000e+00
          1.047368421052e+00 0.000000000000e+00 0.000000000000e+00
          1.173208899231e+00 1.814424907035e-01 0.000000000000e+00
          4.496491784167e-01 4.647232167296e-01 0.000000000000e+00
          8.356369000872e-02 7.078483216263e-02 0.000000000000e+00
          3.684210526228e-02 0.000000000000e+00 0.000000000000e+00
          1.210526315779e-01 0.000000000000e+00 0.000000000000e+00
          1.199390972157e-01 1.334942196905e-01 0.000000000000e+00
          4.006093432087e-02 1.334942141298e-01 0.000000000000e+00
          7.074738816445e-03 7.462174218855e-02 0.000000000000e+00
          9.950000127276e-01 6.254551806292e-01 0.000000000000e+00
          9.329931672651e-01 6.028865293096e-01 0.000000000000e+00
          9.521580157346e-01 5.565015505141e-01 0.000000000000e+00
          -1.361292987243e-01 2.813353558900e-01 0.000000000000e+00
          -1.500000000000e-01 3.599999893257e-01 0.000000000000e+00
          -2.225146693395e-01 3.407928543350e-01 0.000000000000e+00
          -2.388751889824e-01 2.473156806119e-01 0.000000000000e+00
          -3.000000000000e-01 4.166666666679e-01 0.000000000000e+00
          -3.000000000000e-01 3.333333333345e-01 0.000000000000e+00
          -3.000000000000e-01 2.500000000010e-01 0.000000000000e+00
          -3.499998767432e-02 1.608141500133e-01 0.000000000000e+00
          1.300000000000e+00 4.999999999990e-01 0.000000000000e+00
          1.200908537232e+00 5.112058526764e-01 0.000000000000e+00
          7.947368421046e-01 0.000000000000e+00 0.000000000000e+00
          7.943395889017e-01 8.785913283682e-02 0.000000000000e+00
          8.320614793702e-01 2.415959616435e-01 0.000000000000e+00
          7.795147846302e-01 2.112805515871e-01 0.000000000000e+00
[...]
      <PointData Scalars="HEAD">
        <DataArray type="Float64" Name="HEAD" format="ascii">
          1.330800572425e-03 0.000000000000e+00 6.225863631337e-04 0.000000000000e+00 3.415282568902e-02 3.160716967024e-02 3.352758055318e-02 9.800629204879e-04 0.000000000000e+00 3.149711475914e-02 5.901389119157e-02 5.683067911689e-02 6.147934531469e-02 6.554158955621e-02 4.986038347111e-02 4.597147283915e-02 4.870114952868e-02 4.444010424824e-02 8.826379958453e-02 7.892780650538e-02 8.663509001265e-02 6.676298743977e-02 7.947520309927e-02 9.933782307982e-02 9.961131003296e-02 1.000000000000e-01 1.000000000000e-01 9.900871046124e-02 3.875709883066e-02 3.525462512243e-02 3.938547659437e-02 5.948383005039e-03 7.284055155274e-03 9.766848510282e-03 5.889612332109e-02 5.346221024980e-02 5.519890735508e-02 6.118841873290e-02 9.364801000003e-02 8.783264169684e-02 9.073243153896e-02 7.496493808859e-02 7.433428873150e-02 8.067105683859e-02 2.764243885737e-02 3.525374852537e-02 1.354200772046e-02 1.736076721655e-02 8.174736279322e-02 2.580253106995e-02 1.731897018530e-03 0.000000000000e+00 0.000000000000e+00 9.592309699398e-02 9.133868673178e-02 9.408252124396e-02 9.705367978178e-02 1.000000000000e-01 1.000000000000e-01 7.119815900491e-03 1.004066075152e-02 5.434554513168e-03 1.948953892433e-03 4.099264533360e-03 2.989569980270e-03 2.840562778923e-02 2.350203881287e-02 2.802592577280e-02 6.803689112168e-02 6.598039306422e-02 6.980011664448e-02 8.578916898614e-02 8.936934754105e-02 6.100895786110e-02 6.548328842198e-02 5.983569430033e-02 6.711459815677e-02 6.912529121383e-02 6.920342157247e-02 6.332962929665e-03 9.775570627629e-03 4.473118580130e-03 0.000000000000e+00 0.000000000000e+00 2.904399622612e-03 1.214437392235e-02 1.663918134779e-02 5.489485684143e-02 5.529291840597e-02 2.988765831088e-02 5.215993177933e-02 5.291056842002e-02 2.472887033752e-03 1.748332258176e-03 4.793583720083e-03 7.419133208131e-02 7.172283483068e-02 3.545829611536e-02 3.582835977554e-02 1.441837319966e-03 7.022372211863e-02 0.000000000000e+00 2.718932109751e-03 0.000000000000e+00 1.397585490918e-03 9.724897989218e-02 1.000000000000e-01 7.410667109646e-02 7.004429676723e-02 3.075102591318e-02 2.481124251829e-02 2.202072405725e-02 2.832712901447e-02 3.027978359763e-02 2.912398721605e-02 2.306877535817e-02 1.864444453702e-02 1.485120419716e-02 1.619546448187e-02 3.851103211852e-03 5.250980153129e-02 7.524486429424e-02 7.922870600528e-02 7.209660501710e-02 7.126332500612e-02 7.991609803940e-02 8.204196174695e-02 1.288186780943e-02 1.952263624137e-02 1.866834377590e-02 9.665635815121e-02 9.790219731756e-02 9.859940861377e-02 9.830637269362e-02 1.000000000000e-01 1.000000000000e-01 1.000000000000e-01 8.753485731899e-02 0.000000000000e+00 2.765586073370e-03 3.406381682596e-02 3.442274111106e-02 3.488933870287e-02 3.581818876528e-02 5.389898127223e-02 5.095448113644e-02 4.795559599645e-02 4.977229592062e-02 4.089734770391e-02 4.229846192902e-02 3.889578209903e-03 3.111076077592e-03 5.720476685634e-03 3.805567880194e-02 3.836946420799e-02 4.104151580313e-02 5.583376742489e-02 5.485395355449e-02 5.792545940646e-02 5.504442809713e-02 5.397099327826e-02 5.254588790976e-02 9.009157498044e-03 7.785029307822e-03 3.768196677516e-02 2.604102216701e-02 3.129809012598e-02 2.994666965565e-02 3.599384813655e-03 4.290592942420e-02 4.153634116324e-02 4.160705373146e-02 2.864373778486e-03 1.495687821394e-03 5.696114539824e-02 5.823270267649e-02 1.238374054149e-02 8.571482156113e-03 3.062300813375e-02 3.228097379060e-02 3.843226126083e-02 3.725373657400e-02 3.524986970962e-02 3.951678413956e-02 3.996118596743e-02 4.061551279448e-02 4.753193783749e-03 5.327095603810e-02 7.182246699816e-02 9.826810235148e-02 5.394367230203e-02 3.230381702650e-02 3.289054116484e-02 6.813519607789e-02 5.402142438375e-03 4.063273834387e-03 7.144143394713e-02 3.865983371881e-02 5.322980568930e-02 4.637876691529e-02 4.413685712992e-02 4.080410475382e-02 5.648415319750e-02 6.367251780842e-02 9.727713771665e-02 4.574167035026e-02 4.910179554258e-02 4.172251058877e-02 4.205929396619e-02 5.158400209340e-02 5.193759960587e-02 4.323132190027e-02 4.506361519154e-02 4.267955302429e-02 4.581303444521e-02 3.864637677502e-02 4.028771811933e-02 5.508547795751e-02 0.000000000000e+00 5.084270364318e-02 5.280458903758e-02 4.648606580186e-02 4.259404024874e-02 9.316432712636e-02 4.155148041268e-02 9.328693419622e-02 7.014150181849e-02 6.981118495743e-02 3.561286430983e-02 3.425666152099e-02 4.895512867848e-03 4.037210906339e-02 4.877302083253e-02 6.978659078538e-02 7.114376078628e-02 7.130212402985e-02 6.990124969328e-02 4.414912985670e-02 9.239705933104e-02 9.612004095698e-02 9.505455525418e-02 9.564793367709e-02 3.765112069997e-02 4.929380066218e-02 4.672543975577e-02 4.537042081119e-02 3.721637353376e-03 7.037167715739e-02 5.354906486366e-02 9.786092466007e-02 9.828695175346e-02 4.079641355296e-02 4.011527148558e-03 3.261091767072e-02 3.542407770708e-02 9.718974482307e-02 9.441172901816e-02 5.417089068025e-02 9.248860492373e-02 7.080444553940e-02 9.644000143635e-02 2.444027511535e-02 3.903676434672e-02 4.049992368016e-02 4.188140339104e-02 4.182929449902e-02 9.866453279900e-02 9.828506070591e-02 1.000000000000e-01 1.000000000000e-01 3.890101611015e-02 4.228293074113e-02 5.281989730601e-02 3.698460053040e-02 5.337264160516e-02 2.134702416677e-03 0.000000000000e+00 9.633062457604e-02 1.000000000000e-01 9.875819413437e-02 1.000000000000e-01 9.710044738633e-02 1.521706872035e-03 0.000000000000e+00 6.376405321628e-02 6.432511199714e-02 1.000000000000e-01 4.959314911241e-02 9.561724199031e-02 8.924822977413e-02 9.223590942003e-02 8.759176743367e-02 8.322548913160e-02 7.639297985095e-02 9.002987209660e-02 9.528146491454e-02 9.241319463285e-02 8.661236099501e-02 7.779107259933e-02 8.008193156981e-02 8.260245669247e-02 8.636282354915e-02 8.120182828000e-02 9.078726048916e-02 9.500939212713e-02 8.425471179137e-02 7.583000056109e-02 7.387672172341e-02 7.951300754911e-02 7.623885923083e-02 8.900854163436e-02 6.864527048032e-02 6.665700295613e-02 6.036281478126e-02 8.288717746544e-02 8.151081866499e-02 9.017441465917e-02 8.317764909793e-02 6.688891466615e-02 8.132568745841e-02 7.117001044455e-02 7.436457801824e-02 9.147755910728e-02 6.565826063060e-02 7.419865853395e-02 6.989827312239e-02 6.108758737600e-02 7.535303429609e-02 8.735382423270e-02 6.339998690895e-02 7.742357891359e-02 7.515623178447e-02 5.683005497937e-02 5.860821039646e-02 5.255201769085e-02 5.499133391064e-02 6.010056938198e-02 5.185977957574e-02 5.688219134336e-02 5.462843566332e-02 4.776575824798e-02 6.163020382832e-02 6.050147786257e-02 5.082633943995e-02 4.562382756356e-02 6.423239443293e-02 4.692132532950e-02 4.971884581273e-02 4.651940274986e-02 6.577551740006e-02 6.071190239502e-02 6.416635756843e-02 3.595871603593e-02 3.960474007290e-02 4.054478365209e-02 4.352836789005e-02 4.225564461532e-02 4.779169860071e-02 4.549012303669e-02 4.711819446910e-02 4.637762780802e-02 4.063544150347e-02 4.965792403480e-02 4.344735532234e-02 3.854024727524e-02 4.980099050951e-02 3.793353799504e-02 3.963222387679e-02 4.944965282929e-02 3.562101978009e-02 3.587508334634e-02 3.793982237272e-02 4.227861908397e-02 3.483433150204e-02 1.410830095971e-02 2.801416324306e-02 2.197380201433e-02 2.096739936626e-02 1.473199388940e-02 8.849707097531e-03 9.194341857474e-03 1.310200899325e-02 1.395392697515e-02 2.766053623890e-02 3.365856065696e-02 1.807361158241e-02 2.801154277629e-02 2.946604118828e-02 8.876136901173e-03 3.293803157198e-02 2.331173728477e-02 2.108874166289e-02 2.187580334344e-02 1.802415242104e-02 1.070734393134e-02 1.471737869989e-02 1.853429211395e-02 1.905012240642e-02 2.475517925856e-02 2.428534824662e-02 2.272010482439e-02 1.440551201349e-02 2.512040559828e-02 8.499289014240e-03 9.776563696696e-03 2.894120733705e-02 2.356189386822e-02 6.296069744275e-03 2.029771763633e-02 1.771695542074e-02 3.008421330205e-02 5.989094185943e-03 1.124984698740e-02 1.304058395907e-02 5.809552647393e-03 
        </DataArray>
        <DataArray type="Float64" Name="NODAL_VELOCITY1" NumberOfComponents="3" format="ascii">
          1.166110770506e-08 9.006591623413e-09 0.000000000000e+00 1.522917912143e-08 5.083150441863e-09 0.000000000000e+00 5.443249580161e-09 7.250664168838e-10 0.000000000000e+00 9.093142402602e-09 -1.221741705272e-09 0.000000000000e+00 6.952069693872e-09 1.269300168998e-08 0.000000000000e+00 1.036338013054e-08 1.864264166681e-08 0.000000000000e+00 1.083751512180e-08 2.141047407952e-08 0.000000000000e+00 8.370696445132e-09 -3.926441016521e-09 0.000000000000e+00 1.585197369550e-08 -3.902975416402e-09 0.000000000000e+00 7.441725527689e-09 1.310058075750e-08 0.000000000000e+00 3.101168197417e-08 -1.923401911656e-08 0.000000000000e+00 2.829043436105e-08 -1.125265745465e-08 0.000000000000e+00 4.080390828827e-08 -2.738346419742e-08 0.000000000000e+00 3.775163141698e-08 -2.232563065469e-08 0.000000000000e+00 2.846063830330e-08 2.051788767051e-08 0.000000000000e+00 3.241266098113e-08 1.752778631829e-08 0.000000000000e+00 3.193174603553e-08 1.862313021592e-08 0.000000000000e+00 2.855267082927e-08 1.870197201161e-08 0.000000000000e+00 3.843270539539e-08 1.382292682452e-08 0.000000000000e+00 6.611979350084e-08 1.955423549683e-08 0.000000000000e+00 5.763397749458e-08 1.676497818571e-08 0.000000000000e+00 2.848233864840e-08 -1.993542486230e-08 0.000000000000e+00 5.520399202217e-08 2.239741746753e-08 0.000000000000e+00 6.461343609840e-09 -2.099302423222e-09 0.000000000000e+00 4.954122161249e-09 8.478847484909e-10 0.000000000000e+00 8.168850613841e-09 -1.062258468579e-09 0.000000000000e+00 1.511157460906e-08 4.221261259050e-09 0.000000000000e+00 1.206225860836e-08 6.883177841332e-09 0.000000000000e+00 1.858561309587e-08 6.174474864032e-09 0.000000000000e+00 4.357217888188e-08 1.109882651278e-08 0.000000000000e+00 4.100600715119e-08 9.970926727246e-09 0.000000000000e+00 2.004259361747e-08 -8.889920724389e-09 0.000000000000e+00 5.110972884370e-08 -1.774291339179e-08 0.000000000000e+00 5.242964534673e-08 -8.657147648428e-09 0.000000000000e+00 4.273176977676e-08 5.433078269037e-09 0.000000000000e+00 3.847810219752e-08 -3.824302790385e-09 0.000000000000e+00 7.487262536485e-08 -1.109490381183e-09 0.000000000000e+00 6.494629185012e-08 6.783345885102e-09 0.000000000000e+00 3.884167234800e-08 7.847890325096e-09 0.000000000000e+00 6.639957127566e-08 3.008833945491e-09 0.000000000000e+00 9.163521839915e-08 1.412077011375e-08 0.000000000000e+00 3.457062670099e-08 -1.018112081810e-08 0.000000000000e+00 7.260595835030e-08 -1.288199122155e-08 0.000000000000e+00 5.120373567609e-08 -6.538660022446e-09 0.000000000000e+00 6.426407833436e-08 7.694730004756e-09 0.000000000000e+00 9.157736752526e-08 1.952202157550e-08 0.000000000000e+00 1.145713768843e-07 -1.745209656845e-08 0.000000000000e+00 7.154910108014e-08 -3.648657744652e-09 0.000000000000e+00 1.053425730595e-07 -1.485849665713e-09 0.000000000000e+00 1.378807163921e-07 -1.367060338405e-09 0.000000000000e+00 2.106414871748e-08 -6.826273170878e-10 0.000000000000e+00 2.212211599067e-08 2.340772294991e-10 0.000000000000e+00 2.224313435339e-08 -3.392283032864e-10 0.000000000000e+00 5.021480758699e-08 -3.440315200650e-09 0.000000000000e+00 5.894442913815e-08 -6.555158136844e-09 0.000000000000e+00 5.143479991395e-08 -8.361578352836e-09 0.000000000000e+00 4.134694307867e-08 -8.312457461224e-09 0.000000000000e+00 3.491745871099e-08 -2.488239054188e-09 0.000000000000e+00 4.328214190854e-08 -1.815097756389e-09 0.000000000000e+00 5.352773909161e-08 3.132763382873e-09 0.000000000000e+00 3.299436515983e-08 -4.243208923482e-11 0.000000000000e+00 3.125470010612e-08 -7.744372697000e-09 0.000000000000e+00 2.398463672384e-08 -9.940189144971e-10 0.000000000000e+00 3.004847288152e-08 -3.724377163928e-09 0.000000000000e+00 2.401362334047e-08 -2.990447955371e-09 0.000000000000e+00 2.115012409190e-08 1.492020535999e-08 0.000000000000e+00 4.352264031698e-08 1.479732275169e-08 0.000000000000e+00 5.021348665656e-08 1.302174830339e-08 0.000000000000e+00 3.818656247791e-08 5.237504183816e-09 0.000000000000e+00 4.896830330399e-08 5.160474839715e-09 0.000000000000e+00 4.644552070664e-08 -2.374983355884e-09 0.000000000000e+00 7.306660858573e-08 -6.859425746339e-09 0.000000000000e+00 6.416822223442e-08 -1.433984605142e-08 0.000000000000e+00 6.233251526819e-08 1.322043285486e-08 0.000000000000e+00 7.265004830133e-08 6.244818154375e-09 0.000000000000e+00 5.995803675127e-08 5.252077552669e-09 0.000000000000e+00 2.483645132291e-08 1.247676243455e-08 0.000000000000e+00 1.732698307803e-08 9.819089869948e-09 0.000000000000e+00 7.927258929288e-09 9.066156732790e-09 0.000000000000e+00 5.936031142068e-08 1.237064254313e-08 0.000000000000e+00 6.987126084446e-08 6.229369424506e-09 0.000000000000e+00 5.645558742123e-08 4.666624342376e-09 0.000000000000e+00 4.595579228192e-08 2.526666282400e-09 0.000000000000e+00 3.361726631400e-08 4.923654754767e-09 0.000000000000e+00 4.294693688583e-08 1.385559708181e-08 0.000000000000e+00 7.655403120617e-08 1.614840410572e-08 0.000000000000e+00 5.600856741732e-08 1.032110293663e-08 0.000000000000e+00 3.736851741837e-08 -6.846487373914e-09 0.000000000000e+00 1.217636858130e-08 -8.374042593326e-09 0.000000000000e+00 2.477588450890e-08 1.702770274370e-08 0.000000000000e+00 3.975876160048e-08 2.047884764299e-08 0.000000000000e+00 2.775546938534e-08 3.543707995555e-09 0.000000000000e+00 1.407806154624e-08 -7.193512125295e-09 0.000000000000e+00 2.125138622826e-08 -9.327299670462e-09 0.000000000000e+00 2.939461035997e-08 -8.432545086338e-09 0.000000000000e+00 6.699772113423e-08 1.773415234704e-08 0.000000000000e+00 3.702879871156e-08 -3.095423031415e-09 0.000000000000e+00 2.086770465853e-08 1.937219782484e-08 0.000000000000e+00 1.683413856494e-08 1.350491066358e-08 0.000000000000e+00 2.668125615824e-08 1.342963341682e-08 0.000000000000e+00 5.155238999128e-08 -1.857411688397e-08 0.000000000000e+00 5.151775037868e-08 1.515235074520e-09 0.000000000000e+00 5.150609530071e-08 4.606532059602e-09 0.000000000000e+00 2.295789432995e-08 -2.149008893122e-10 0.000000000000e+00 2.295787995990e-08 -6.190978721767e-10 0.000000000000e+00 4.715233713274e-08 -3.268534620495e-09 0.000000000000e+00 4.730541429861e-08 -1.080393499313e-09 0.000000000000e+00 2.678612134959e-08 1.630982423644e-08 0.000000000000e+00 1.853570253172e-08 -6.576152127343e-09 0.000000000000e+00 1.116792182709e-08 -2.471837287712e-10 0.000000000000e+00 7.807151518109e-08 -1.153612511232e-08 0.000000000000e+00 4.668180171829e-08 -5.136786398353e-09 0.000000000000e+00 3.965653193204e-08 -1.289480012624e-08 0.000000000000e+00 6.048951111012e-08 -1.219464561930e-08 0.000000000000e+00 6.683524008431e-08 -5.689731909066e-09 0.000000000000e+00 7.927181457065e-08 -3.185817833118e-09 0.000000000000e+00 8.700638124227e-08 -4.245692665401e-10 0.000000000000e+00 4.674398420213e-08 4.842274047503e-09 0.000000000000e+00 8.091257089812e-08 2.668512501626e-09 0.000000000000e+00 2.460007468680e-08 1.484146282856e-08 0.000000000000e+00 1.314191684984e-08 9.870518363286e-09 0.000000000000e+00 9.079493831435e-08 5.604268915260e-11 0.000000000000e+00 8.378257595726e-08 -2.847197034667e-09 0.000000000000e+00 8.363299261142e-08 3.203989298821e-09 0.000000000000e+00 4.883467823207e-08 5.324555054045e-09 0.000000000000e+00 4.914760667351e-08 -4.975585428327e-09 0.000000000000e+00 8.281170688963e-08 -1.218929715677e-08 0.000000000000e+00 4.578038324640e-08 1.616537394597e-08 0.000000000000e+00 5.703379872068e-08 8.774371641166e-09 0.000000000000e+00 8.955535744092e-08 2.326382913020e-08 0.000000000000e+00 1.541163126905e-08 -1.191919643903e-08 0.000000000000e+00 6.322056230067e-09 -9.592178561212e-10 0.000000000000e+00 1.590469450917e-08 -3.974373518613e-09 0.000000000000e+00 2.654146163999e-08 -7.410658447963e-09 0.000000000000e+00 1.943093554972e-08 9.090307792915e-10 0.000000000000e+00 2.149185698444e-08 -2.135465615167e-09 0.000000000000e+00 2.770768985918e-08 0.000000000000e+00 0.000000000000e+00 4.120786696479e-08 -1.498491969091e-08 0.000000000000e+00 2.641817102568e-08 -3.102683737018e-09 0.000000000000e+00 3.145289739091e-08 -9.746670716068e-09 0.000000000000e+00 5.414653335396e-08 -3.898379642030e-09 0.000000000000e+00 4.994396941330e-08 -6.767845143775e-09 0.000000000000e+00 1.195614587362e-08 8.893182604064e-10 0.000000000000e+00 3.013720856179e-08 -2.229007367702e-10 0.000000000000e+00 1.338592933258e-08 -4.462554107013e-09 0.000000000000e+00 4.548880693073e-08 3.108206047087e-10 0.000000000000e+00 4.819452489490e-08 -1.818755601996e-09 0.000000000000e+00 4.358319898552e-08 -6.278689864113e-09 0.000000000000e+00 2.714377264816e-08 3.144124743885e-09 0.000000000000e+00 3.331283042012e-08 -5.914367522860e-10 0.000000000000e+00 3.547949859423e-08 5.237357356794e-09 0.000000000000e+00 2.555897014935e-08 8.286043989527e-09 0.000000000000e+00 3.391330899870e-08 1.875982698790e-08 0.000000000000e+00 4.708451145314e-08 -1.434887295411e-09 0.000000000000e+00 4.349212230306e-08 2.552216031783e-09 0.000000000000e+00 4.834135221153e-08 1.393465864297e-09 0.000000000000e+00 3.226426155914e-08 2.066181740690e-08 0.000000000000e+00 1.222350029304e-08 8.218188921512e-09 0.000000000000e+00 2.148674181254e-08 1.512275254369e-08 0.000000000000e+00 3.980131265936e-08 1.109673997218e-08 0.000000000000e+00 2.650948216533e-08 7.090888766641e-09 0.000000000000e+00 3.836979361401e-08 9.385479070151e-10 0.000000000000e+00 5.702264311009e-08 2.492140722823e-08 0.000000000000e+00 2.396331207086e-08 1.664083368566e-08 0.000000000000e+00 3.870897380971e-08 1.609009008361e-08 0.000000000000e+00 4.054182491091e-08 -4.598898259878e-09 0.000000000000e+00 3.649479023026e-08 -1.708458794289e-08 0.000000000000e+00 5.655863923273e-08 -1.364298326236e-08 0.000000000000e+00 1.893083528740e-08 -7.019503699173e-09 0.000000000000e+00 2.380555714730e-08 -1.782860652684e-08 0.000000000000e+00 1.466546914729e-08 -1.314949221084e-08 0.000000000000e+00 1.888032409754e-08 -6.664637910612e-09 0.000000000000e+00 1.723844223122e-08 3.860560878252e-09 0.000000000000e+00 2.231142146783e-08 2.193473244502e-09 0.000000000000e+00 4.955765045940e-08 1.246595233876e-08 0.000000000000e+00 4.837232738688e-08 2.301172058419e-08 0.000000000000e+00 7.892737009165e-08 1.120307327248e-08 0.000000000000e+00 4.030567712775e-08 1.337523594996e-08 0.000000000000e+00 3.425136308189e-08 -8.941727062978e-09 0.000000000000e+00 2.187042567922e-08 -1.429822342627e-08 0.000000000000e+00 5.016410698150e-08 -7.180961171654e-10 0.000000000000e+00 4.965899508892e-08 -1.754768532748e-09 0.000000000000e+00 4.094179975404e-08 -8.177663046618e-09 0.000000000000e+00 2.706583492678e-08 -1.214414560571e-08 0.000000000000e+00 1.620283927337e-08 -1.691258098340e-08 0.000000000000e+00 1.762413409613e-08 -7.449139951745e-09 0.000000000000e+00 3.950309733192e-08 -4.894508628865e-09 0.000000000000e+00 2.169320843674e-08 7.945901389117e-09 0.000000000000e+00 3.273542311719e-08 1.187473562268e-08 0.000000000000e+00 1.548550204379e-08 4.839403917266e-09 0.000000000000e+00 4.571450825061e-08 5.589086180345e-09 0.000000000000e+00 5.056700223268e-08 -1.924123038899e-08 0.000000000000e+00 2.281162357097e-08 -1.121214363284e-08 0.000000000000e+00 8.173545315050e-08 1.192585977403e-08 0.000000000000e+00 5.375563527801e-08 2.521950335684e-08 0.000000000000e+00 6.721041818452e-09 -4.940465025823e-09 0.000000000000e+00 1.093952457495e-08 1.086348305185e-08 0.000000000000e+00 2.583564066512e-08 8.622884035722e-09 0.000000000000e+00 7.159340593673e-09 7.694962836919e-10 0.000000000000e+00 5.287266226033e-08 -5.920422374580e-09 0.000000000000e+00 5.012105512174e-08 -9.237871042980e-11 0.000000000000e+00 4.906552574849e-08 -2.245198641858e-10 0.000000000000e+00 5.319458347005e-08 5.457276166167e-09 0.000000000000e+00 4.786204293901e-08 1.737417619713e-08 0.000000000000e+00 9.101747163842e-09 7.133246811972e-09 0.000000000000e+00 3.082479447969e-08 -8.887153589653e-10 0.000000000000e+00 2.644682344239e-08 -8.284288184467e-09 0