 TITLE = "Time curves in points"
 VARIABLES = "TIME "  "PRESSURE1" 
 ZONE T="POINT=POINTOBS"
0.000000000000e+00 0.000000000000e+00 
8.640000000000e-01 -1.522749742178e-01 
1.728000000000e+00 -1.062538349489e+00 
2.592000000000e+00 -3.992363044457e+00 
3.456000000000e+00 -1.077472847041e+01 
4.320000000000e+00 -2.349576590749e+01 
5.184000000000e+00 -4.412154192532e+01 
6.048000000000e+00 -7.421815864342e+01 
6.912000000000e+00 -1.148166422679e+02 
7.776000000000e+00 -1.664105117275e+02 
8.640000000000e+00 -2.290228344050e+02 
1.641600000000e+01 -1.266141775306e+03 
2.419200000000e+01 -2.486148184062e+03 
3.196800000000e+01 -3.738549495151e+03 
3.974400000000e+01 -4.954982239334e+03 
4.752000000000e+01 -6.108221780797e+03 
5.529600000000e+01 -7.190351837981e+03 
6.307200000000e+01 -8.202085336071e+03 
7.084800000000e+01 -9.147715917187e+03 
7.862400000000e+01 -1.003279923347e+04 
8.640000000000e+01 -1.086298435323e+04 
1.641600000000e+02 -1.639474093421e+04 
2.419200000000e+02 -2.040160747691e+04 
3.196800000000e+02 -2.349075756622e+04 
3.974400000000e+02 -2.598349474730e+04 
4.752000000000e+02 -2.806395770129e+04 
5.529600000000e+02 -2.984515769962e+04 
6.307200000000e+02 -3.140013254992e+04 
7.084800000000e+02 -3.277873854281e+04 
7.862400000000e+02 -3.401626078535e+04 
8.640000000000e+02 -3.513852621442e+04 
1.641600000000e+03 -4.185575463526e+04 
2.419200000000e+03 -4.643697097268e+04 
3.196800000000e+03 -4.984638415036e+04 
3.974400000000e+03 -5.253751598070e+04 
4.752000000000e+03 -5.475187078303e+04 
5.529600000000e+03 -5.662718365307e+04 
6.307200000000e+03 -5.825135575076e+04 
7.084800000000e+03 -5.968526374357e+04 
7.862400000000e+03 -6.096605582141e+04 
8.640000000000e+03 -6.212313349715e+04 
1.641600000000e+04 -6.897804480631e+04 
2.419200000000e+04 -7.362135390369e+04 
3.196800000000e+04 -7.706687554479e+04 
3.974400000000e+04 -7.977582630553e+04 
4.752000000000e+04 -8.200168862840e+04 
5.529600000000e+04 -8.389288614223e+04 
6.307200000000e+04 -8.551629945959e+04 
7.084800000000e+04 -8.695150725077e+04 
7.862400000000e+04 -8.823990844611e+04 
8.640000000000e+04 -8.939960283949e+04 
1.641600000000e+05 -9.613500312189e+04 
2.419200000000e+05 -1.004575808057e+05 
3.196800000000e+05 -1.033832068967e+05 
3.974400000000e+05 -1.054097316096e+05 
4.752000000000e+05 -1.068303477620e+05 
5.529600000000e+05 -1.078278933807e+05 
6.307200000000e+05 -1.085205850097e+05 
7.084800000000e+05 -1.090203119736e+05 
7.862400000000e+05 -1.093641185067e+05 
8.640000000000e+05 -1.096064639273e+05 
