VARIABLES  = "X","Y","Z", "PRESSURE1"
ZONE T="0.000000000000e+00s", N=801, E=1, F=FEPOINT, ET=QUADRILATERAL
STRANDID=1, SOLUTIONTIME=0.000000000000e+00
0.000000000000e+00 0.000000000000e+00 0.000000000000e+00 0.000000000000e+00 
5.700000000000e-01 4.986930000000e-02 0.000000000000e+00 0.000000000000e+00 
1.144900000000e+00 1.001673010000e-01 0.000000000000e+00 0.000000000000e+00 
1.724700000000e+00 1.508940030000e-01 0.000000000000e+00 0.000000000000e+00 
2.309500000000e+00 2.020581550000e-01 0.000000000000e+00 0.000000000000e+00 
2.899300000000e+00 2.536597570000e-01 0.000000000000e+00 0.000000000000e+00 
3.494100000000e+00 3.056988090000e-01 0.000000000000e+00 0.000000000000e+00 
4.094100000000e+00 3.581928090000e-01 0.000000000000e+00 0.000000000000e+00 
4.699100000000e+00 4.111242590000e-01 0.000000000000e+00 0.000000000000e+00 
5.309400000000e+00 4.645194060000e-01 0.000000000000e+00 0.000000000000e+00 
5.924900000000e+00 5.183695010000e-01 0.000000000000e+00 0.000000000000e+00 
6.545700000000e+00 5.726832930000e-01 0.000000000000e+00 0.000000000000e+00 
7.171800000000e+00 6.274607820000e-01 0.000000000000e+00 0.000000000000e+00 
7.803200000000e+00 6.827019680000e-01 0.000000000000e+00 0.000000000000e+00 
8.440100000000e+00 7.384243490000e-01 0.000000000000e+00 0.000000000000e+00 
9.082400000000e+00 7.946191760000e-01 0.000000000000e+00 0.000000000000e+00 
9.602300000000e+00 8.401000000000e-01 0.000000000000e+00 0.000000000000e+00 
1.038400000000e+01 9.084961600000e-01 0.000000000000e+00 0.000000000000e+00 
1.104300000000e+01 9.661520700000e-01 0.000000000000e+00 0.000000000000e+00 
1.170700000000e+01 1.024245430000e+00 0.000000000000e+00 0.000000000000e+00 
1.237800000000e+01 1.082951220000e+00 0.000000000000e+00 0.000000000000e+00 
1.305400000000e+01 1.142094460000e+00 0.000000000000e+00 0.000000000000e+00 
1.373600000000e+01 1.201762640000e+00 0.000000000000e+00 0.000000000000e+00 
1.442300000000e+01 1.261868270000e+00 0.000000000000e+00 0.000000000000e+00 
1.511700000000e+01 1.322586330000e+00 0.000000000000e+00 0.000000000000e+00 
1.581600000000e+01 1.383741840000e+00 0.000000000000e+00 0.000000000000e+00 
1.652200000000e+01 1.445509780000e+00 0.000000000000e+00 0.000000000000e+00 
1.723400000000e+01 1.507802660000e+00 0.000000000000e+00 0.000000000000e+00 
1.795100000000e+01 1.570532990000e+00 0.000000000000e+00 0.000000000000e+00 
1.867500000000e+01 1.633875750000e+00 0.000000000000e+00 0.000000000000e+00 
1.940500000000e+01 1.697743450000e+00 0.000000000000e+00 0.000000000000e+00 
2.014100000000e+01 1.762136090000e+00 0.000000000000e+00 0.000000000000e+00 
2.088400000000e+01 1.827141160000e+00 0.000000000000e+00 0.000000000000e+00 
2.163300000000e+01 1.892671170000e+00 0.000000000000e+00 0.000000000000e+00 
2.238800000000e+01 1.958726120000e+00 0.000000000000e+00 0.000000000000e+00 
2.315000000000e+01 2.025393500000e+00 0.000000000000e+00 0.000000000000e+00 
2.391900000000e+01 2.092673310000e+00 0.000000000000e+00 0.000000000000e+00 
2.469400000000e+01 2.160478060000e+00 0.000000000000e+00 0.000000000000e+00 
2.547500000000e+01 2.228807750000e+00 0.000000000000e+00 0.000000000000e+00 
2.626300000000e+01 2.297749870000e+00 0.000000000000e+00 0.000000000000e+00 
2.705900000000e+01 2.367391910000e+00 0.000000000000e+00 0.000000000000e+00 
2.786000000000e+01 2.437471400000e+00 0.000000000000e+00 0.000000000000e+00 
2.866900000000e+01 2.508250810000e+00 0.000000000000e+00 0.000000000000e+00 
2.948500000000e+01 2.579642650000e+00 0.000000000000e+00 0.000000000000e+00 
3.030800000000e+01 2.651646920000e+00 0.000000000000e+00 0.000000000000e+00 
3.113700000000e+01 2.724176130000e+00 0.000000000000e+00 0.000000000000e+00 
3.197400000000e+01 2.797405260000e+00 0.000000000000e+00 0.000000000000e+00 
3.281800000000e+01 2.871246820000e+00 0.000000000000e+00 0.000000000000e+00 
3.366900000000e+01 2.945700810000e+00 0.000000000000e+00 0.000000000000e+00 
3.452800000000e+01 3.020854720000e+00 0.000000000000e+00 0.000000000000e+00 
3.539400000000e+01 3.096621060000e+00 0.000000000000e+00 0.000000000000e+00 
3.626700000000e+01 3.172999830000e+00 0.000000000000e+00 0.000000000000e+00 
3.714800000000e+01 3.250078520000e+00 0.000000000000e+00 0.000000000000e+00 
3.803600000000e+01 3.327769640000e+00 0.000000000000e+00 0.000000000000e+00 
3.893200000000e+01 3.406160680000e+00 0.000000000000e+00 0.000000000000e+00 
3.983600000000e+01 3.485251640000e+00 0.000000000000e+00 0.000000000000e+00 
4.074700000000e+01 3.564955030000e+00 0.000000000000e+00 0.000000000000e+00 
4.166600000000e+01 3.645358340000e+00 0.000000000000e+00 0.000000000000e+00 
4.259300000000e+01 3.726461570000e+00 0.000000000000e+00 0.000000000000e+00 
4.352800000000e+01 3.808264720000e+00 0.000000000000e+00 0.000000000000e+00 
4.447100000000e+01 3.890767790000e+00 0.000000000000e+00 0.000000000000e+00 
4.542300000000e+01 3.974058270000e+00 0.000000000000e+00 0.000000000000e+00 
4.638200000000e+01 4.057961180000e+00 0.000000000000e+00 0.000000000000e+00 
4.734900000000e+01 4.142564010000e+00 0.000000000000e+00 0.000000000000e+00 
4.832500000000e+01 4.227954250000e+00 0.000000000000e+00 0.000000000000e+00 
4.930900000000e+01 4.314044410000e+00 0.000000000000e+00 0.000000000000e+00 
5.030200000000e+01 4.400921980000e+00 0.000000000000e+00 0.000000000000e+00 
5.130300000000e+01 4.488499470000e+00 0.000000000000e+00 0.000000000000e+00 
5.231200000000e+01 4.576776880000e+00 0.000000000000e+00 0.000000000000e+00 
5.333100000000e+01 4.665929190000e+00 0.000000000000e+00 0.000000000000e+00 
5.435800000000e+01 4.755781420000e+00 0.000000000000e+00 0.000000000000e+00 
5.539400000000e+01 4.846421060000e+00 0.000000000000e+00 0.000000000000e+00 
5.643800000000e+01 4.937760620000e+00 0.000000000000e+00 0.000000000000e+00 
5.749200000000e+01 5.029975080000e+00 0.000000000000e+00 0.000000000000e+00 
5.855500000000e+01 5.122976950000e+00 0.000000000000e+00 0.000000000000e+00 
5.962600000000e+01 5.216678740000e+00 0.000000000000e+00 0.000000000000e+00 
6.070700000000e+01 5.311255430000e+00 0.000000000000e+00 0.000000000000e+00 
6.179800000000e+01 5.406707020000e+00 0.000000000000e+00 0.000000000000e+00 
6.289700000000e+01 5.502858530000e+00 0.000000000000e+00 0.000000000000e+00 
6.400600000000e+01 5.599884940000e+00 0.000000000000e+00 0.000000000000e+00 
6.512500000000e+01 5.697786250000e+00 0.000000000000e+00 0.000000000000e+00 
6.625300000000e+01 5.796474970000e+00 0.000000000000e+00 0.000000000000e+00 
6.739100000000e+01 5.896038590000e+00 0.000000000000e+00 0.000000000000e+00 
6.853800000000e+01 5.996389620000e+00 0.000000000000e+00 0.000000000000e+00 
6.969600000000e+01 6.097703040000e+00 0.000000000000e+00 0.000000000000e+00 
7.086300000000e+01 6.199803870000e+00 0.000000000000e+00 0.000000000000e+00 
7.204000000000e+01 6.302779600000e+00 0.000000000000e+00 0.000000000000e+00 
7.322700000000e+01 6.406630230000e+00 0.000000000000e+00 0.000000000000e+00 
7.442500000000e+01 6.511443250000e+00 0.000000000000e+00 0.000000000000e+00 
7.563300000000e+01 6.617131170000e+00 0.000000000000e+00 0.000000000000e+00 
7.685100000000e+01 6.723693990000e+00 0.000000000000e+00 0.000000000000e+00 
7.807900000000e+01 6.831131710000e+00 0.000000000000e+00 0.000000000000e+00 
7.931900000000e+01 6.939619310000e+00 0.000000000000e+00 0.000000000000e+00 
8.056800000000e+01 7.048894320000e+00 0.000000000000e+00 0.000000000000e+00 
8.182900000000e+01 7.159219210000e+00 0.000000000000e+00 0.000000000000e+00 
8.310000000000e+01 7.270419000000e+00 0.000000000000e+00 0.000000000000e+00 
8.438200000000e+01 7.382581180000e+00 0.000000000000e+00 0.000000000000e+00 
8.567500000000e+01 7.495705750000e+00 0.000000000000e+00 0.000000000000e+00 
8.697900000000e+01 7.609792710000e+00 0.000000000000e+00 0.000000000000e+00 
8.829500000000e+01 7.724929550000e+00 0.000000000000e+00 0.000000000000e+00 
8.962200000000e+01 7.841028780000e+00 0.000000000000e+00 0.000000000000e+00 
9.096000000000e+01 7.958090400000e+00 0.000000000000e+00 0.000000000000e+00 
9.230900000000e+01 8.076114410000e+00 0.000000000000e+00 0.000000000000e+00 
9.367000000000e+01 8.195188300000e+00 0.000000000000e+00 0.000000000000e+00 
9.504300000000e+01 8.315312070000e+00 0.000000000000e+00 0.000000000000e+00 
9.642700000000e+01 8.436398230000e+00 0.000000000000e+00 0.000000000000e+00 
9.782400000000e+01 8.558621760000e+00 0.000000000000e+00 0.000000000000e+00 
9.923200000000e+01 8.681807680000e+00 0.000000000000e+00 0.000000000000e+00 
1.006500000000e+02 8.805868500000e+00 0.000000000000e+00 0.000000000000e+00 
1.020800000000e+02 8.930979200000e+00 0.000000000000e+00 0.000000000000e+00 
1.035300000000e+02 9.057839700000e+00 0.000000000000e+00 0.000000000000e+00 
1.049900000000e+02 9.185575100000e+00 0.000000000000e+00 0.000000000000e+00 
1.064600000000e+02 9.314185400000e+00 0.000000000000e+00 0.000000000000e+00 
1.079400000000e+02 9.443670600000e+00 0.000000000000e+00 0.000000000000e+00 
1.094300000000e+02 9.574030700000e+00 0.000000000000e+00 0.000000000000e+00 
1.109400000000e+02 9.706140600000e+00 0.000000000000e+00 0.000000000000e+00 
1.124600000000e+02 9.839125400000e+00 0.000000000000e+00 0.000000000000e+00 
1.140000000000e+02 9.973860000000e+00 0.000000000000e+00 0.000000000000e+00 
1.155400000000e+02 1.010859460000e+01 0.000000000000e+00 0.000000000000e+00 
1.171000000000e+02 1.024507900000e+01 0.000000000000e+00 0.000000000000e+00 
1.186800000000e+02 1.038331320000e+01 0.000000000000e+00 0.000000000000e+00 
1.202600000000e+02 1.052154740000e+01 0.000000000000e+00 0.000000000000e+00 
1.218600000000e+02 1.066153140000e+01 0.000000000000e+00 0.000000000000e+00 
1.234800000000e+02 1.080326520000e+01 0.000000000000e+00 0.000000000000e+00 
1.251100000000e+02 1.094587390000e+01 0.000000000000e+00 0.000000000000e+00 
1.267500000000e+02 1.108935750000e+01 0.000000000000e+00 0.000000000000e+00 
1.284100000000e+02 1.123459090000e+01 0.000000000000e+00 0.000000000000e+00 
1.300800000000e+02 1.138069920000e+01 0.000000000000e+00 0.000000000000e+00 
1.317600000000e+02 1.152768240000e+01 0.000000000000e+00 0.000000000000e+00 
1.334600000000e+02 1.167641540000e+01 0.000000000000e+00 0.000000000000e+00 
1.351700000000e+02 1.182602330000e+01 0.000000000000e+00 0.000000000000e+00 
1.369000000000e+02 1.197738100000e+01 0.000000000000e+00 0.000000000000e+00 
1.386400000000e+02 1.212961360000e+01 0.000000000000e+00 0.000000000000e+00 
1.404000000000e+02 1.228359600000e+01 0.000000000000e+00 0.000000000000e+00 
1.421800000000e+02 1.243932820000e+01 0.000000000000e+00 0.000000000000e+00 
1.439600000000e+02 1.259506040000e+01 0.000000000000e+00 0.000000000000e+00 
1.457700000000e+02 1.275341730000e+01 0.000000000000e+00 0.000000000000e+00 
1.475900000000e+02 1.291264910000e+01 0.000000000000e+00 0.000000000000e+00 
1.494200000000e+02 1.307275580000e+01 0.000000000000e+00 0.000000000000e+00 
1.512700000000e+02 1.323461230000e+01 0.000000000000e+00 0.000000000000e+00 
1.531400000000e+02 1.339821860000e+01 0.000000000000e+00 0.000000000000e+00 
1.550200000000e+02 1.356269980000e+01 0.000000000000e+00 0.000000000000e+00 
1.569200000000e+02 1.372893080000e+01 0.000000000000e+00 0.000000000000e+00 
1.588300000000e+02 1.389603670000e+01 0.000000000000e+00 0.000000000000e+00 
1.607700000000e+02 1.406576730000e+01 0.000000000000e+00 0.000000000000e+00 
1.627100000000e+02 1.423549790000e+01 0.000000000000e+00 0.000000000000e+00 
1.646800000000e+02 1.440785320000e+01 0.000000000000e+00 0.000000000000e+00 
1.666600000000e+02 1.458108340000e+01 0.000000000000e+00 0.000000000000e+00 
1.686600000000e+02 1.475606340000e+01 0.000000000000e+00 0.000000000000e+00 
1.706700000000e+02 1.493191830000e+01 0.000000000000e+00 0.000000000000e+00 
1.727100000000e+02 1.511039790000e+01 0.000000000000e+00 0.000000000000e+00 
1.747600000000e+02 1.528975240000e+01 0.000000000000e+00 0.000000000000e+00 
1.768200000000e+02 1.546998180000e+01 0.000000000000e+00 0.000000000000e+00 
1.789100000000e+02 1.565283590000e+01 0.000000000000e+00 0.000000000000e+00 
1.810100000000e+02 1.583656490000e+01 0.000000000000e+00 0.000000000000e+00 
1.831300000000e+02 1.602204370000e+01 0.000000000000e+00 0.000000000000e+00 
1.852700000000e+02 1.620927230000e+01 0.000000000000e+00 0.000000000000e+00 
1.874300000000e+02 1.639825070000e+01 0.000000000000e+00 0.000000000000e+00 
1.896100000000e+02 1.658897890000e+01 0.000000000000e+00 0.000000000000e+00 
1.918000000000e+02 1.678058200000e+01 0.000000000000e+00 0.000000000000e+00 
1.940100000000e+02 1.697393490000e+01 0.000000000000e+00 0.000000000000e+00 
1.962500000000e+02 1.716991250000e+01 0.000000000000e+00 0.000000000000e+00 
1.985000000000e+02 1.736676500000e+01 0.000000000000e+00 0.000000000000e+00 
2.007700000000e+02 1.756536730000e+01 0.000000000000e+00 0.000000000000e+00 
2.030600000000e+02 1.776571940000e+01 0.000000000000e+00 0.000000000000e+00 
2.053700000000e+02 1.796782130000e+01 0.000000000000e+00 0.000000000000e+00 
2.077000000000e+02 1.817167300000e+01 0.000000000000e+00 0.000000000000e+00 
2.100500000000e+02 1.837727450000e+01 0.000000000000e+00 0.000000000000e+00 
2.124200000000e+02 1.858462580000e+01 0.000000000000e+00 0.000000000000e+00 
2.148100000000e+02 1.879372690000e+01 0.000000000000e+00 0.000000000000e+00 
2.172200000000e+02 1.900457780000e+01 0.000000000000e+00 0.000000000000e+00 
2.196500000000e+02 1.921717850000e+01 0.000000000000e+00 0.000000000000e+00 
2.221100000000e+02 1.943240390000e+01 0.000000000000e+00 0.000000000000e+00 
2.245800000000e+02 1.964850420000e+01 0.000000000000e+00 0.000000000000e+00 
2.270700000000e+02 1.986635430000e+01 0.000000000000e+00 0.000000000000e+00 
2.295900000000e+02 2.008682910000e+01 0.000000000000e+00 0.000000000000e+00 
2.321300000000e+02 2.030905370000e+01 0.000000000000e+00 0.000000000000e+00 
2.346900000000e+02 2.053302810000e+01 0.000000000000e+00 0.000000000000e+00 
2.372700000000e+02 2.075875230000e+01 0.000000000000e+00 0.000000000000e+00 
2.398700000000e+02 2.098622630000e+01 0.000000000000e+00 0.000000000000e+00 
2.425000000000e+02 2.121632500000e+01 0.000000000000e+00 0.000000000000e+00 
2.451400000000e+02 2.144729860000e+01 0.000000000000e+00 0.000000000000e+00 
2.478200000000e+02 2.168177180000e+01 0.000000000000e+00 0.000000000000e+00 
2.505100000000e+02 2.191711990000e+01 0.000000000000e+00 0.000000000000e+00 
2.532300000000e+02 2.215509270000e+01 0.000000000000e+00 0.000000000000e+00 
2.559700000000e+02 2.239481530000e+01 0.000000000000e+00 0.000000000000e+00 
2.587300000000e+02 2.263628770000e+01 0.000000000000e+00 0.000000000000e+00 
2.615200000000e+02 2.288038480000e+01 0.000000000000e+00 0.000000000000e+00 
2.643300000000e+02 2.312623170000e+01 0.000000000000e+00 0.000000000000e+00 
2.671600000000e+02 2.337382840000e+01 0.000000000000e+00 0.000000000000e+00 
2.700200000000e+02 2.362404980000e+01 0.000000000000e+00 0.000000000000e+00 
2.729100000000e+02 2.387689590000e+01 0.000000000000e+00 0.000000000000e+00 
2.758100000000e+02 2.413061690000e+01 0.000000000000e+00 0.000000000000e+00 
2.787500000000e+02 2.438783750000e+01 0.000000000000e+00 0.000000000000e+00 
2.817100000000e+02 2.464680790000e+01 0.000000000000e+00 0.000000000000e+00 
2.846900000000e+02 2.490752810000e+01 0.000000000000e+00 0.000000000000e+00 
2.877000000000e+02 2.517087300000e+01 0.000000000000e+00 0.000000000000e+00 
2.907400000000e+02 2.543684260000e+01 0.000000000000e+00 0.000000000000e+00 
2.938000000000e+02 2.570456200000e+01 0.000000000000e+00 0.000000000000e+00 
2.968900000000e+02 2.597490610000e+01 0.000000000000e+00 0.000000000000e+00 
3.000000000000e+02 2.624700000000e+01 0.000000000000e+00 0.000000000000e+00 
3.035000000000e+02 2.655321500000e+01 0.000000000000e+00 0.000000000000e+00 
3.070000000000e+02 2.685943000000e+01 0.000000000000e+00 0.000000000000e+00 
3.105000000000e+02 2.716564500000e+01 0.000000000000e+00 0.000000000000e+00 
3.140000000000e+02 2.747186000000e+01 0.000000000000e+00 0.000000000000e+00 
3.175000000000e+02 2.777807500000e+01 0.000000000000e+00 0.000000000000e+00 
3.210000000000e+02 2.808429000000e+01 0.000000000000e+00 0.000000000000e+00 
3.245000000000e+02 2.839050500000e+01 0.000000000000e+00 0.000000000000e+00 
3.280000000000e+02 2.869672000000e+01 0.000000000000e+00 0.000000000000e+00 
3.315000000000e+02 2.900293500000e+01 0.000000000000e+00 0.000000000000e+00 
3.350000000000e+02 2.930915000000e+01 0.000000000000e+00 0.000000000000e+00 
3.385000000000e+02 2.961536500000e+01 0.000000000000e+00 0.000000000000e+00 
3.420000000000e+02 2.992158000000e+01 0.000000000000e+00 0.000000000000e+00 
3.455000000000e+02 3.022779500000e+01 0.000000000000e+00 0.000000000000e+00 
3.490000000000e+02 3.053401000000e+01 0.000000000000e+00 0.000000000000e+00 
3.525000000000e+02 3.084022500000e+01 0.000000000000e+00 0.000000000000e+00 
3.560000000000e+02 3.114644000000e+01 0.000000000000e+00 0.000000000000e+00 
3.595000000000e+02 3.145265500000e+01 0.000000000000e+00 0.000000000000e+00 
3.630000000000e+02 3.175887000000e+01 0.000000000000e+00 0.000000000000e+00 
3.665000000000e+02 3.206508500000e+01 0.000000000000e+00 0.000000000000e+00 
3.700000000000e+02 3.237130000000e+01 0.000000000000e+00 0.000000000000e+00 
3.735000000000e+02 3.267751500000e+01 0.000000000000e+00 0.000000000000e+00 
3.770000000000e+02 3.298373000000e+01 0.000000000000e+00 0.000000000000e+00 
3.805000000000e+02 3.328994500000e+01 0.000000000000e+00 0.000000000000e+00 
3.840000000000e+02 3.359616000000e+01 0.000000000000e+00 0.000000000000e+00 
3.875000000000e+02 3.390237500000e+01 0.000000000000e+00 0.000000000000e+00 
3.910000000000e+02 3.420859000000e+01 0.000000000000e+00 0.000000000000e+00 
3.945000000000e+02 3.451480500000e+01 0.000000000000e+00 0.000000000000e+00 
3.980000000000e+02 3.482102000000e+01 0.000000000000e+00 0.000000000000e+00 
4.015000000000e+02 3.512723500000e+01 0.000000000000e+00 0.000000000000e+00 
4.050000000000e+02 3.543345000000e+01 0.000000000000e+00 0.000000000000e+00 
4.085000000000e+02 3.573966500000e+01 0.000000000000e+00 0.000000000000e+00 
4.120000000000e+02 3.604588000000e+01 0.000000000000e+00 0.000000000000e+00 
4.155000000000e+02 3.635209500000e+01 0.000000000000e+00 0.000000000000e+00 
4.190000000000e+02 3.665831000000e+01 0.000000000000e+00 0.000000000000e+00 
4.225000000000e+02 3.696452500000e+01 0.000000000000e+00 0.000000000000e+00 
4.260000000000e+02 3.727074000000e+01 0.000000000000e+00 0.000000000000e+00 
4.295000000000e+02 3.757695500000e+01 0.000000000000e+00 0.000000000000e+00 
4.330000000000e+02 3.788317000000e+01 0.000000000000e+00 0.000000000000e+00 
4.365000000000e+02 3.818938500000e+01 0.000000000000e+00 0.000000000000e+00 
4.400000000000e+02 3.849560000000e+01 0.000000000000e+00 0.000000000000e+00 
4.435000000000e+02 3.880181500000e+01 0.000000000000e+00 0.000000000000e+00 
4.470000000000e+02 3.910803000000e+01 0.000000000000e+00 0.000000000000e+00 
4.505000000000e+02 3.941424500000e+01 0.000000000000e+00 0.000000000000e+00 
4.540000000000e+02 3.972046000000e+01 0.000000000000e+00 0.000000000000e+00 
4.575000000000e+02 4.002667500000e+01 0.000000000000e+00 0.000000000000e+00 
4.610000000000e+02 4.033289000000e+01 0.000000000000e+00 0.000000000000e+00 
4.645000000000e+02 4.063910500000e+01 0.000000000000e+00 0.000000000000e+00 
4.680000000000e+02 4.094532000000e+01 0.000000000000e+00 0.000000000000e+00 
4.715000000000e+02 4.125153500000e+01 0.000000000000e+00 0.000000000000e+00 
4.750000000000e+02 4.155775000000e+01 0.000000000000e+00 0.000000000000e+00 
4.785000000000e+02 4.186396500000e+01 0.000000000000e+00 0.000000000000e+00 
4.820000000000e+02 4.217018000000e+01 0.000000000000e+00 0.000000000000e+00 
4.855000000000e+02 4.247639500000e+01 0.000000000000e+00 0.000000000000e+00 
4.890000000000e+02 4.278261000000e+01 0.000000000000e+00 0.000000000000e+00 
4.925000000000e+02 4.308882500000e+01 0.000000000000e+00 0.000000000000e+00 
4.960000000000e+02 4.339504000000e+01 0.000000000000e+00 0.000000000000e+00 
4.995000000000e+02 4.370125500000e+01 0.000000000000e+00 0.000000000000e+00 
5.030000000000e+02 4.400747000000e+01 0.000000000000e+00 0.000000000000e+00 
5.065000000000e+02 4.431368500000e+01 0.000000000000e+00 0.000000000000e+00 
5.100000000000e+02 4.461990000000e+01 0.000000000000e+00 0.000000000000e+00 
5.135000000000e+02 4.492611500000e+01 0.000000000000e+00 0.000000000000e+00 
5.170000000000e+02 4.523233000000e+01 0.000000000000e+00 0.000000000000e+00 
5.205000000000e+02 4.553854500000e+01 0.000000000000e+00 0.000000000000e+00 
5.240000000000e+02 4.584476000000e+01 0.000000000000e+00 0.000000000000e+00 
5.275000000000e+02 4.615097500000e+01 0.000000000000e+00 0.000000000000e+00 
5.310000000000e+02 4.645719000000e+01 0.000000000000e+00 0.000000000000e+00 
5.345000000000e+02 4.676340500000e+01 0.000000000000e+00 0.000000000000e+00 
5.380000000000e+02 4.706962000000e+01 0.000000000000e+00 0.000000000000e+00 
5.415000000000e+02 4.737583500000e+01 0.000000000000e+00 0.000000000000e+00 
5.450000000000e+02 4.768205000000e+01 0.000000000000e+00 0.000000000000e+00 
5.485000000000e+02 4.798826500000e+01 0.000000000000e+00 0.000000000000e+00 
5.520000000000e+02 4.829448000000e+01 0.000000000000e+00 0.000000000000e+00 
5.555000000000e+02 4.860069500000e+01 0.000000000000e+00 0.000000000000e+00 
5.590000000000e+02 4.890691000000e+01 0.000000000000e+00 0.000000000000e+00 
5.625000000000e+02 4.921312500000e+01 0.000000000000e+00 0.000000000000e+00 
5.660000000000e+02 4.951934000000e+01 0.000000000000e+00 0.000000000000e+00 
5.695000000000e+02 4.982555500000e+01 0.000000000000e+00 0.000000000000e+00 
5.730000000000e+02 5.013177000000e+01 0.000000000000e+00 0.000000000000e+00 
5.765000000000e+02 5.043798500000e+01 0.000000000000e+00 0.000000000000e+00 
5.800000000000e+02 5.074420000000e+01 0.000000000000e+00 0.000000000000e+00 
5.835000000000e+02 5.105041500000e+01 0.000000000000e+00 0.000000000000e+00 
5.870000000000e+02 5.135663000000e+01 0.000000000000e+00 0.000000000000e+00 
5.905000000000e+02 5.166284500000e+01 0.000000000000e+00 0.000000000000e+00 
5.940000000000e+02 5.196906000000e+01 0.000000000000e+00 0.000000000000e+00 
5.975000000000e+02 5.227527500000e+01 0.000000000000e+00 0.000000000000e+00 
6.010000000000e+02 5.258149000000e+01 0.000000000000e+00 0.000000000000e+00 
6.045000000000e+02 5.288770500000e+01 0.000000000000e+00 0.000000000000e+00 
6.080000000000e+02 5.319392000000e+01 0.000000000000e+00 0.000000000000e+00 
6.115000000000e+02 5.350013500000e+01 0.000000000000e+00 0.000000000000e+00 
6.150000000000e+02 5.380635000000e+01 0.000000000000e+00 0.000000000000e+00 
6.185000000000e+02 5.411256500000e+01 0.000000000000e+00 0.000000000000e+00 
6.220000000000e+02 5.441878000000e+01 0.000000000000e+00 0.000000000000e+00 
6.255000000000e+02 5.472499500000e+01 0.000000000000e+00 0.000000000000e+00 
6.290000000000e+02 5.503121000000e+01 0.000000000000e+00 0.000000000000e+00 
6.325000000000e+02 5.533742500000e+01 0.000000000000e+00 0.000000000000e+00 
6.360000000000e+02 5.564364000000e+01 0.000000000000e+00 0.000000000000e+00 
6.395000000000e+02 5.594985500000e+01 0.000000000000e+00 0.000000000000e+00 
6.430000000000e+02 5.625607000000e+01 0.000000000000e+00 0.000000000000e+00 
6.465000000000e+02 5.656228500000e+01 0.000000000000e+00 0.000000000000e+00 
6.500000000000e+02 5.686850000000e+01 0.000000000000e+00 0.000000000000e+00 
6.535000000000e+02 5.717471500000e+01 0.000000000000e+00 0.000000000000e+00 
6.570000000000e+02 5.748093000000e+01 0.000000000000e+00 0.000000000000e+00 
6.605000000000e+02 5.778714500000e+01 0.000000000000e+00 0.000000000000e+00 
6.640000000000e+02 5.809336000000e+01 0.000000000000e+00 0.000000000000e+00 
6.675000000000e+02 5.839957500000e+01 0.000000000000e+00 0.000000000000e+00 
6.710000000000e+02 5.870579000000e+01 0.000000000000e+00 0.000000000000e+00 
6.745000000000e+02 5.901200500000e+01 0.000000000000e+00 0.000000000000e+00 
6.780000000000e+02 5.931822000000e+01 0.000000000000e+00 0.000000000000e+00 
6.815000000000e+02 5.962443500000e+01 0.000000000000e+00 0.000000000000e+00 
6.850000000000e+02 5.993065000000e+01 0.000000000000e+00 0.000000000000e+00 
6.885000000000e+02 6.023686500000e+01 0.000000000000e+00 0.000000000000e+00 
6.920000000000e+02 6.054308000000e+01 0.000000000000e+00 0.000000000000e+00 
6.955000000000e+02 6.084929500000e+01 0.000000000000e+00 0.000000000000e+00 
6.990000000000e+02 6.115551000000e+01 0.000000000000e+00 0.000000000000e+00 
7.025000000000e+02 6.146172500000e+01 0.000000000000e+00 0.000000000000e+00 
7.060000000000e+02 6.176794000000e+01 0.000000000000e+00 0.000000000000e+00 
7.095000000000e+02 6.207415500000e+01 0.000000000000e+00 0.000000000000e+00 
7.130000000000e+02 6.238037000000e+01 0.000000000000e+00 0.000000000000e+00 
7.165000000000e+02 6.268658500000e+01 0.000000000000e+00 0.000000000000e+00 
7.200000000000e+02 6.299280000000e+01 0.000000000000e+00 0.000000000000e+00 
7.235000000000e+02 6.329901500000e+01 0.000000000000e+00 0.000000000000e+00 
7.270000000000e+02 6.360523000000e+01 0.000000000000e+00 0.000000000000e+00 
7.305000000000e+02 6.391144500000e+01 0.000000000000e+00 0.000000000000e+00 
7.340000000000e+02 6.421766000000e+01 0.000000000000e+00 0.000000000000e+00 
7.375000000000e+02 6.452387500000e+01 0.000000000000e+00 0.000000000000e+00 
7.410000000000e+02 6.483009000000e+01 0.000000000000e+00 0.000000000000e+00 
7.445000000000e+02 6.513630500000e+01 0.000000000000e+00 0.000000000000e+00 
7.480000000000e+02 6.544252000000e+01 0.000000000000e+00 0.000000000000e+00 
7.515000000000e+02 6.574873500000e+01 0.000000000000e+00 0.000000000000e+00 
7.550000000000e+02 6.605495000000e+01 0.000000000000e+00 0.000000000000e+00 
7.585000000000e+02 6.636116500000e+01 0.000000000000e+00 0.000000000000e+00 
7.620000000000e+02 6.666738000000e+01 0.000000000000e+00 0.000000000000e+00 
7.655000000000e+02 6.697359500000e+01 0.000000000000e+00 0.000000000000e+00 
7.690000000000e+02 6.727981000000e+01 0.000000000000e+00 0.000000000000e+00 
7.725000000000e+02 6.758602500000e+01 0.000000000000e+00 0.000000000000e+00 
7.760000000000e+02 6.789224000000e+01 0.000000000000e+00 0.000000000000e+00 
7.795000000000e+02 6.819845500000e+01 0.000000000000e+00 0.000000000000e+00 
7.830000000000e+02 6.850467000000e+01 0.000000000000e+00 0.000000000000e+00 
7.865000000000e+02 6.881088500000e+01 0.000000000000e+00 0.000000000000e+00 
7.900000000000e+02 6.911710000000e+01 0.000000000000e+00 0.000000000000e+00 
7.935000000000e+02 6.942331500000e+01 0.000000000000e+00 0.000000000000e+00 
7.970000000000e+02 6.972953000000e+01 0.000000000000e+00 0.000000000000e+00 
8.005000000000e+02 7.003574500000e+01 0.000000000000e+00 0.000000000000e+00 
8.040000000000e+02 7.034196000000e+01 0.000000000000e+00 0.000000000000e+00 
8.075000000000e+02 7.064817500000e+01 0.000000000000e+00 0.000000000000e+00 
8.110000000000e+02 7.095439000000e+01 0.000000000000e+00 0.000000000000e+00 
8.145000000000e+02 7.126060500000e+01 0.000000000000e+00 0.000000000000e+00 
8.180000000000e+02 7.156682000000e+01 0.000000000000e+00 0.000000000000e+00 
8.215000000000e+02 7.187303500000e+01 0.000000000000e+00 0.000000000000e+00 
8.250000000000e+02 7.217925000000e+01 0.000000000000e+00 0.000000000000e+00 
8.285000000000e+02 7.248546500000e+01 0.000000000000e+00 0.000000000000e+00 
8.320000000000e+02 7.279168000000e+01 0.000000000000e+00 0.000000000000e+00 
8.355000000000e+02 7.309789500000e+01 0.000000000000e+00 0.000000000000e+00 
8.390000000000e+02 7.340411000000e+01 0.000000000000e+00 0.000000000000e+00 
8.425000000000e+02 7.371032500000e+01 0.000000000000e+00 0.000000000000e+00 
8.460000000000e+02 7.401654000000e+01 0.000000000000e+00 0.000000000000e+00 
8.495000000000e+02 7.432275500000e+01 0.000000000000e+00 0.000000000000e+00 
8.530000000000e+02 7.462897000000e+01 0.000000000000e+00 0.000000000000e+00 
8.565000000000e+02 7.493518500000e+01 0.000000000000e+00 0.000000000000e+00 
8.600000000000e+02 7.524140000000e+01 0.000000000000e+00 0.000000000000e+00 
8.635000000000e+02 7.554761500000e+01 0.000000000000e+00 0.000000000000e+00 
8.670000000000e+02 7.585383000000e+01 0.000000000000e+00 0.000000000000e+00 
8.705000000000e+02 7.616004500000e+01 0.000000000000e+00 0.000000000000e+00 
8.740000000000e+02 7.646626000000e+01 0.000000000000e+00 0.000000000000e+00 
8.775000000000e+02 7.677247500000e+01 0.000000000000e+00 0.000000000000e+00 
8.810000000000e+02 7.707869000000e+01 0.000000000000e+00 0.000000000000e+00 
8.845000000000e+02 7.738490500000e+01 0.000000000000e+00 0.000000000000e+00 
8.880000000000e+02 7.769112000000e+01 0.000000000000e+00 0.000000000000e+00 
8.915000000000e+02 7.799733500000e+01 0.000000000000e+00 0.000000000000e+00 
8.950000000000e+02 7.830355000000e+01 0.000000000000e+00 0.000000000000e+00 
8.985000000000e+02 7.860976500000e+01 0.000000000000e+00 0.000000000000e+00 
9.020000000000e+02 7.891598000000e+01 0.000000000000e+00 0.000000000000e+00 
9.055000000000e+02 7.922219500000e+01 0.000000000000e+00 0.000000000000e+00 
9.090000000000e+02 7.952841000000e+01 0.000000000000e+00 0.000000000000e+00 
9.125000000000e+02 7.983462500000e+01 0.000000000000e+00 0.000000000000e+00 
9.160000000000e+02 8.014084000000e+01 0.000000000000e+00 0.000000000000e+00 
9.195000000000e+02 8.044705500000e+01 0.000000000000e+00 0.000000000000e+00 
9.230000000000e+02 8.075327000000e+01 0.000000000000e+00 0.000000000000e+00 
9.265000000000e+02 8.105948500000e+01 0.000000000000e+00 0.000000000000e+00 
9.300000000000e+02 8.136570000000e+01 0.000000000000e+00 0.000000000000e+00 
9.335000000000e+02 8.167191500000e+01 0.000000000000e+00 0.000000000000e+00 
9.370000000000e+02 8.197813000000e+01 0.000000000000e+00 0.000000000000e+00 
9.405000000000e+02 8.228434500000e+01 0.000000000000e+00 0.000000000000e+00 
9.440000000000e+02 8.259056000000e+01 0.000000000000e+00 0.000000000000e+00 
9.475000000000e+02 8.289677500000e+01 0.000000000000e+00 0.000000000000e+00 
9.510000000000e+02 8.320299000000e+01 0.000000000000e+00 0.000000000000e+00 