 TITLE = "Time curves in points"
 VARIABLES = "TIME "  "DISPLACEMENT_X1"  "DISPLACEMENT_Y1"  "TEMPERATURE1"  "STRESS_XX"  "STRESS_XY"  "STRESS_YY"  "STRESS_ZZ"  "STRAIN_XX"  "STRAIN_XY"  "STRAIN_YY"  "STRAIN_ZZ"  p_(1st_Invariant)  q_(2nd_Invariant)   Effective_Strain
 ZONE T="POINT=POINT1"
0.000000000000e+00 0.000000000000e+00 0.000000000000e+00 1.000000000000e+02 0.000000000000e+00 0.000000000000e+00 0.000000000000e+00 0.000000000000e+00 0.000000000000e+00 0.000000000000e+00 0.000000000000e+00 0.000000000000e+00 -0.000000000000e+00 0.000000000000e+00  0.000000000000e+00
1.000000000000e-01 -3.799326308934e-18 5.000000000104e-05 1.000000000000e+02 4.101893269493e-10 6.437201402571e-11 3.306698248551e-10 -5.000000000304e+00 5.400000001612e-05 6.540196625012e-15 5.400000001208e-05 -2.000000000202e-04 1.666666666521e+00 5.000000000674e+00  2.540000000343e-04
2.000000000000e-01 -1.020555806482e-18 5.038827464761e-05 1.000000000000e+02 6.713593974731e-11 2.615327231523e-12 6.059514059501e-11 -5.000000000003e+00 5.477654930114e-05 2.957100721426e-16 5.477654930077e-05 -2.015530985996e-04 1.666666666625e+00 5.000000000067e+00  2.563296479006e-04
3.000000000000e-01 -1.212559948099e-18 5.077654929686e-05 1.000000000000e+02 -1.219613212505e-11 5.912784090144e-12 -2.351872429446e-11 -5.000000000040e+00 5.555309859785e-05 6.319502472949e-16 5.555309859723e-05 -2.031061971965e-04 1.666666666692e+00 5.000000000022e+00  2.586592957940e-04
4.000000000000e-01 -1.243276924543e-18 5.116482394604e-05 1.000000000000e+02 6.301653065108e-12 4.707131118987e-12 -3.803131420898e-12 -5.000000000029e+00 5.632964789680e-05 5.122108464279e-16 5.632964789624e-05 -2.046592957935e-04 1.666666666675e+00 5.000000000030e+00  2.609889436901e-04
5.000000000000e-01 -1.258617982386e-18 5.155309859520e-05 1.000000000000e+02 5.993739127704e-11 2.951599518348e-13 5.492786607497e-11 -4.999999999984e+00 5.710619719638e-05 6.614776746640e-17 5.710619719607e-05 -2.062123943900e-04 1.666666666623e+00 5.000000000041e+00  2.633185915863e-04
6.000000000000e-01 -1.191779769122e-18 5.194137324441e-05 1.000000000000e+02 4.601004878017e-11 3.390598288268e-12 3.777339378785e-11 -5.000000000014e+00 5.788274649490e-05 3.807818262001e-16 5.788274649443e-05 -2.077654929880e-04 1.666666666644e+00 5.000000000056e+00  2.656482394827e-04
7.000000000000e-01 -1.340574831689e-18 5.232964789365e-05 1.000000000000e+02 -5.067520477308e-13 5.488902249856e-12 -1.189767034893e-11 -5.000000000037e+00 5.865929579239e-05 5.955492887310e-16 5.865929579176e-05 -2.093185915851e-04 1.666666666683e+00 5.000000000031e+00  2.679778873771e-04
8.000000000000e-01 -1.351208773907e-18 5.271792254281e-05 1.000000000000e+02 4.558732326817e-11 3.769100550119e-12 3.638469329067e-11 -5.000000000016e+00 5.943584509204e-05 4.233748779528e-16 5.943584509151e-05 -2.108716901823e-04 1.666666666645e+00 5.000000000057e+00  2.703075352741e-04
9.000000000000e-01 -1.376384631807e-18 5.310619719201e-05 1.000000000000e+02 5.709341246302e-11 3.371174763918e-12 4.829812620446e-11 -5.000000000011e+00 6.021239439089e-05 3.847017535078e-16 6.021239439038e-05 -2.124247887795e-04 1.666666666635e+00 5.000000000064e+00  2.726371831702e-04
1.000000000000e+00 -1.358236531612e-18 5.349447184119e-05 1.000000000000e+02 7.258671644074e-11 2.310300256276e-12 6.500611305036e-11 -5.000000000003e+00 6.098894368982e-05 2.784876335704e-16 6.098894368936e-05 -2.139778873767e-04 1.666666666622e+00 5.000000000071e+00  2.749668310663e-04
1.100000000000e+00 -1.486771459928e-18 5.388274649043e-05 1.000000000000e+02 2.318732966050e-11 4.725080590216e-12 1.227328221692e-11 -5.000000000028e+00 6.176549298727e-05 5.249057527249e-16 6.176549298664e-05 -2.155309859738e-04 1.666666666664e+00 5.000000000046e+00  2.772964789607e-04
1.200000000000e+00 -1.449159681300e-18 5.427102113959e-05 1.000000000000e+02 7.332599255792e-11 2.503541013966e-12 6.522065671098e-11 -5.000000000004e+00 6.254204228701e-05 3.013988865885e-16 6.254204228652e-05 -2.170840845711e-04 1.666666666622e+00 5.000000000073e+00  2.796261268578e-04
1.300000000000e+00 -1.606106788675e-18 5.465929578883e-05 1.000000000000e+02 1.456301803686e-11 5.048637730017e-12 2.818519723169e-12 -5.000000000031e+00 6.331859158421e-05 5.611471867504e-16 6.331859158353e-05 -2.186371831680e-04 1.666666666671e+00 5.000000000040e+00  2.819557747519e-04
1.400000000000e+00 -1.621728288909e-18 5.504757043802e-05 1.000000000000e+02 1.430761007356e-11 4.640121211688e-12 2.746282946424e-12 -5.000000000032e+00 6.409514088277e-05 5.219942181408e-16 6.409514088209e-05 -2.201902817651e-04 1.666666666672e+00 5.000000000040e+00  2.842854226476e-04
1.500000000000e+00 -1.685631670661e-18 5.543584508722e-05 1.000000000000e+02 2.352807271927e-11 4.354241450393e-12 1.212994664203e-11 -5.000000000027e+00 6.487169018155e-05 4.951108041165e-16 6.487169018087e-05 -2.217433803623e-04 1.666666666664e+00 5.000000000045e+00  2.866150705435e-04
1.600000000000e+00 -1.704090473190e-18 5.582411973640e-05 1.000000000000e+02 3.791560959874e-11 3.443879878679e-12 2.750506969175e-11 -5.000000000019e+00 6.564823948043e-05 4.046468383168e-16 6.564823947980e-05 -2.232964789594e-04 1.666666666651e+00 5.000000000051e+00  2.889447184395e-04
1.700000000000e+00 -1.906804899360e-18 5.621239438566e-05 1.000000000000e+02 -5.804121014826e-11 5.791701665871e-12 -7.249148677169e-11 -5.000000000052e+00 6.642478877660e-05 6.447901373980e-16 6.642478877576e-05 -2.248495775557e-04 1.666666666728e+00 4.999999999987e+00  2.912743663319e-04
1.800000000000e+00 -1.823511195570e-18 5.660066903480e-05 1.000000000000e+02 5.187334387267e-11 3.136383798090e-12 4.138355254544e-11 -5.000000000014e+00 6.720133807788e-05 3.777083671510e-16 6.720133807724e-05 -2.264026761537e-04 1.666666666640e+00 5.000000000061e+00  2.936040142312e-04
1.900000000000e+00 -1.866035144125e-18 5.698894368399e-05 1.000000000000e+02 4.990922403368e-11 3.175049918488e-12 3.925185437098e-11 -5.000000000015e+00 6.797788737641e-05 3.830981789665e-16 6.797788737575e-05 -2.279557747508e-04 1.666666666642e+00 5.000000000060e+00  2.959336621269e-04
2.000000000000e+00 -1.911748420329e-18 5.737721833320e-05 1.000000000000e+02 3.839558272018e-11 3.467406832072e-12 2.713445006880e-11 -5.000000000020e+00 6.875443667471e-05 4.142809910589e-16 6.875443667402e-05 -2.295088733479e-04 1.666666666652e+00 5.000000000053e+00  2.982633100223e-04
2.100000000000e+00 -1.988945388523e-18 5.776549298241e-05 1.000000000000e+02 3.193628550271e-11 3.809522894714e-12 2.006567915297e-11 -5.000000000023e+00 6.953098597313e-05 4.506555504293e-16 6.953098597240e-05 -2.310619719450e-04 1.666666666657e+00 5.000000000049e+00  3.005929579177e-04
2.200000000000e+00 -2.044039897348e-18 5.815376763162e-05 1.000000000000e+02 1.253930842262e-11 4.134070065713e-12 -8.868860507066e-14 -5.000000000030e+00 7.030753527121e-05 4.854045124018e-16 7.030753527044e-05 -2.326150705420e-04 1.666666666672e+00 5.000000000036e+00  3.029226058128e-04
2.300000000000e+00 -2.104478550309e-18 5.854204228082e-05 1.000000000000e+02 7.723764336443e-12 4.037408501357e-12 -5.077170165771e-12 -5.000000000030e+00 7.108408456963e-05 4.775098829891e-16 7.108408456885e-05 -2.341681691390e-04 1.666666666676e+00 5.000000000031e+00  3.052522537082e-04
2.400000000000e+00 -2.267067035555e-18 5.893031693005e-05 1.000000000000e+02 -3.248557065710e-11 5.026024609623e-12 -4.711860097697e-11 -5.000000000042e+00 7.186063386716e-05 5.798344276327e-16 7.186063386627e-05 -2.357212677357e-04 1.666666666707e+00 5.000000000002e+00  3.075819016024e-04
2.500000000000e+00 -2.171375296281e-18 5.931859157918e-05 1.000000000000e+02 6.512163551464e-11 2.198774153991e-12 5.460469865622e-11 -5.000000000005e+00 7.263718316810e-05 2.949275548715e-16 7.263718316742e-05 -2.372743663334e-04 1.666666666628e+00 5.000000000065e+00  3.099115495012e-04
2.600000000000e+00 -2.234788213785e-18 5.970686622841e-05 1.000000000000e+02 1.548020363516e-11 3.578507022265e-12 2.772564874447e-12 -5.000000000026e+00 7.341373246548e-05 4.361328882043e-16 7.341373246468e-05 -2.388274649303e-04 1.666666666669e+00 5.000000000035e+00  3.122411973954e-04
2.700000000000e+00 -2.250188839623e-18 6.009514087759e-05 1.000000000000e+02 4.428973825419e-11 3.023131263675e-12 3.239285142204e-11 -5.000000000017e+00 7.419028176477e-05 3.813740434024e-16 7.419028176401e-05 -2.403805635277e-04 1.666666666647e+00 5.000000000055e+00  3.145708452921e-04
2.800000000000e+00 -2.246342763749e-18 6.048341552678e-05 1.000000000000e+02 5.263825949194e-11 2.460138297000e-12 4.135044563702e-11 -5.000000000013e+00 7.496683106354e-05 3.255825242656e-16 7.496683106280e-05 -2.419336621249e-04 1.666666666640e+00 5.000000000060e+00  3.169004931880e-04
2.900000000000e+00 -2.249395262337e-18 6.087169017596e-05 1.000000000000e+02 7.522017846558e-11 1.344225846302e-12 6.543259394957e-11 -5.000000000000e+00 7.574338036262e-05 2.133520704760e-16 7.574338036195e-05 -2.434867607220e-04 1.666666666620e+00 5.000000000070e+00  3.192301410843e-04
3.000000000000e+00 -2.300788448562e-18 6.125996482519e-05 1.000000000000e+02 4.241783920639e-11 2.768850879190e-12 3.070931674463e-11 -5.000000000017e+00 7.651992966045e-05 3.587202884002e-16 7.651992965968e-05 -2.450398593191e-04 1.666666666648e+00 5.000000000053e+00  3.215597889791e-04
3.100000000000e+00 -2.283925816110e-18 6.164823947435e-05 1.000000000000e+02 8.639475304143e-11 -2.258947060579e-13 7.837907290790e-11 -4.999999999985e+00 7.729647895992e-05 5.574422646390e-17 7.729647895933e-05 -2.465929579159e-04 1.666666666607e+00 5.000000000068e+00  3.238894368756e-04
3.200000000000e+00 -2.418301509399e-18 6.203651412361e-05 1.000000000000e+02 -3.321978976622e-12 4.293083802053e-12 -1.718560161077e-11 -5.000000000034e+00 7.807302825647e-05 5.147671918627e-16 7.807302825558e-05 -2.481460565131e-04 1.666666666685e+00 5.000000000024e+00  3.262190847691e-04
3.300000000000e+00 -2.523770851490e-18 6.242478877277e-05 1.000000000000e+02 2.499938595255e-11 -2.129959041165e-12 1.814181935465e-11 -4.999999999973e+00 7.884957755511e-05 -1.358136862792e-16 7.884957755457e-05 -2.496991551084e-04 1.666666666643e+00 4.999999999994e+00  3.285487326632e-04
3.400000000000e+00 -2.284479355706e-18 6.281306342196e-05 1.000000000000e+02 6.651162780258e-11 1.723873841192e-12 5.660177650653e-11 -5.000000000004e+00 7.962612685521e-05 2.547433236487e-16 7.962612685452e-05 -2.512522537075e-04 1.666666666627e+00 5.000000000065e+00  3.308783805624e-04
3.500000000000e+00 -2.344048848495e-18 6.320133807117e-05 1.000000000000e+02 5.120427288193e-11 2.744836814304e-12 3.997609014650e-11 -5.000000000013e+00 8.040267615347e-05 3.592763655301e-16 8.040267615270e-05 -2.528053523047e-04 1.666666666641e+00 5.000000000059e+00  3.332080284578e-04
3.600000000000e+00 -2.409717162784e-18 6.358961272038e-05 1.000000000000e+02 3.477454782463e-11 3.629366314402e-12 2.227618321286e-11 -5.000000000023e+00 8.117922545168e-05 4.504234634018e-16 8.117922545084e-05 -2.543584509019e-04 1.666666666655e+00 5.000000000051e+00  3.355376763531e-04
3.700000000000e+00 -2.388622967519e-18 6.397788736957e-05 1.000000000000e+02 4.948241874118e-11 2.916004380136e-12 3.776663761816e-11 -5.000000000018e+00 8.195577475062e-05 3.796369199997e-16 8.195577474981e-05 -2.559115494992e-04 1.666666666644e+00 5.000000000062e+00  3.378673242494e-04
3.800000000000e+00 -2.426609124001e-18 6.436616201876e-05 1.000000000000e+02 5.826871363884e-11 1.937117076625e-12 4.771626178670e-11 -5.000000000007e+00 8.273232404932e-05 2.815406226566e-16 8.273232404857e-05 -2.574646480961e-04 1.666666666634e+00 5.000000000060e+00  3.401969721450e-04
3.900000000000e+00 -2.497672997192e-18 6.475443666799e-05 1.000000000000e+02 2.007901917650e-11 3.275856638067e-12 7.535687062780e-12 -5.000000000025e+00 8.350887334699e-05 4.184591222434e-16 8.350887334613e-05 -2.590177466931e-04 1.666666666666e+00 5.000000000038e+00  3.425266200396e-04
4.000000000000e+00 -2.441692853642e-18 6.514271131714e-05 1.000000000000e+02 8.307670957414e-11 2.950165941214e-13 7.448383605492e-11 -4.999999999991e+00 8.428542264698e-05 1.171320922832e-16 8.428542264632e-05 -2.605708452902e-04 1.666666666611e+00 5.000000000070e+00  3.448562679369e-04
4.100000000000e+00 -2.556963152348e-18 6.553098596638e-05 1.000000000000e+02 1.667633565961e-11 3.581263098452e-12 3.768999580027e-12 -5.000000000026e+00 8.506197194406e-05 4.511521940807e-16 8.506197194317e-05 -2.621239438873e-04 1.666666666669e+00 5.000000000037e+00  3.471859158309e-04
4.200000000000e+00 -2.576513374976e-18 6.591926061557e-05 1.000000000000e+02 5.438762143197e-11 2.591360415772e-12 4.287512387948e-11 -5.000000000011e+00 8.583852124354e-05 3.522466979287e-16 8.583852124271e-05 -2.636770424847e-04 1.666666666638e+00 5.000000000060e+00  3.495155637278e-04
4.300000000000e+00 -2.729330394499e-18 6.630753526481e-05 1.000000000000e+02 -2.200636316692e-11 4.905101750859e-12 -3.712894170356e-11 -5.000000000041e+00 8.661507054025e-05 5.885302090414e-16 8.661507053924e-05 -2.652301410813e-04 1.666666666700e+00 5.000000000012e+00  3.518452116211e-04
4.400000000000e+00 -2.713774432685e-18 6.669580991399e-05 1.000000000000e+02 1.088094978702e-11 3.663852540239e-12 -2.732797495241e-12 -5.000000000029e+00 8.739161983960e-05 4.647047212368e-16 8.739161983866e-05 -2.667832396786e-04 1.666666666674e+00 5.000000000033e+00  3.541748595178e-04
4.500000000000e+00 -2.696544042542e-18 6.708408456316e-05 1.000000000000e+02 4.797275713249e-11 2.576883465142e-12 3.588712891670e-11 -5.000000000015e+00 8.816816913907e-05 3.559757604790e-16 8.816816913820e-05 -2.683363382760e-04 1.666666666644e+00 5.000000000057e+00  3.565045074146e-04
4.600000000000e+00 -2.707107548838e-18 6.747235921235e-05 1.000000000000e+02 5.446841068457e-11 1.769430359339e-12 4.332782801523e-11 -5.000000000008e+00 8.894471843775e-05 2.751391711578e-16 8.894471843692e-05 -2.698894368730e-04 1.666666666637e+00 5.000000000057e+00  3.588341553103e-04
4.700000000000e+00 -2.742593332233e-18 6.786063386155e-05 1.000000000000e+02 4.810706029137e-11 2.177946053861e-12 3.645164407586e-11 -5.000000000012e+00 8.972126773618e-05 3.174687956639e-16 8.972126773532e-05 -2.714425354702e-04 1.666666666642e+00 5.000000000054e+00  3.611638032059e-04
4.800000000000e+00 -2.826930026608e-18 6.824890851077e-05 1.000000000000e+02 2.622090536595e-11 3.601856000250e-12 1.260383550999e-11 -5.000000000026e+00 9.049781703429e-05 4.631528157053e-16 9.049781703332e-05 -2.729956340674e-04 1.666666666662e+00 5.000000000045e+00  3.634934511012e-04
4.900000000000e+00 -2.786820095179e-18 6.863718315993e-05 1.000000000000e+02 7.678133620801e-11 -1.817213638121e-13 6.774813667241e-11 -4.999999999989e+00 9.127436633388e-05 8.041956676684e-17 9.127436633314e-05 -2.745487326642e-04 1.666666666615e+00 5.000000000061e+00  3.658230989977e-04
5.000000000000e+00 -2.974055467180e-18 6.902545780920e-05 1.000000000000e+02 -3.095462861730e-11 4.300772212673e-12 -4.596058285113e-11 -5.000000000038e+00 9.205091562990e-05 5.357562447792e-16 9.205091562885e-05 -2.761018312609e-04 1.666666666705e+00 4.999999999999e+00  3.681527468902e-04
5.100000000000e+00 -2.801784170471e-18 6.941373245832e-05 1.000000000000e+02 7.938176158073e-11 5.525521828716e-13 6.962449598339e-11 -4.999999999995e+00 9.282746493114e-05 1.569409467383e-16 9.282746493036e-05 -2.776549298587e-04 1.666666666615e+00 5.000000000070e+00  3.704823947894e-04
5.200000000000e+00 -2.838270440873e-18 6.980200710754e-05 1.000000000000e+02 6.471241077721e-11 2.011380711493e-12 5.329301005127e-11 -5.000000000008e+00 9.360401422945e-05 3.054153756523e-16 9.360401422858e-05 -2.792080284560e-04 1.666666666630e+00 5.000000000067e+00  3.728120426850e-04
5.300000000000e+00 -2.869981473666e-18 7.019028175674e-05 1.000000000000e+02 5.727218034315e-11 1.979660839403e-12 4.581502683019e-11 -5.000000000009e+00 9.438056352782e-05 3.031297984163e-16 9.438056352694e-05 -2.807611270530e-04 1.666666666635e+00 5.000000000061e+00  3.751416905804e-04
5.400000000000e+00 -2.935226885992e-18 7.057855640595e-05 1.000000000000e+02 3.925489967804e-11 2.900470491700e-12 2.656187711910e-11 -5.000000000018e+00 9.515711282599e-05 3.976064416314e-16 9.515711282504e-05 -2.823142256501e-04 1.666666666651e+00 5.000000000051e+00  3.774713384757e-04
5.500000000000e+00 -2.917167633839e-18 7.096683105513e-05 1.000000000000e+02 6.039155691732e-11 1.736064448889e-12 4.915510591156e-11 -5.000000000007e+00 9.593366212504e-05 2.806542026773e-16 9.593366212416e-05 -2.838673242473e-04 1.666666666632e+00 5.000000000062e+00  3.798009863719e-04
5.600000000000e+00 -3.091233754518e-18 7.135510570437e-05 1.000000000000e+02 2.621625717441e-12 4.168042814394e-12 -1.200325255857e-11 -5.000000000031e+00 9.671021142222e-05 5.285520883906e-16 9.671021142117e-05 -2.854204228441e-04 1.666666666680e+00 5.000000000026e+00  3.821306342658e-04
5.700000000000e+00 -3.129634333658e-18 7.174338035357e-05 1.000000000000e+02 -6.730586863308e-12 3.657025508794e-12 -2.108623316464e-11 -5.000000000030e+00 9.748676072049e-05 4.785747445759e-16 9.748676071944e-05 -2.869735214410e-04 1.666666666686e+00 5.000000000016e+00  3.844602821610e-04
5.800000000000e+00 -3.029530329074e-18 7.213165500274e-05 1.000000000000e+02 3.935303240684e-11 2.435014054529e-12 2.668358589641e-11 -5.000000000020e+00 9.826331002024e-05 3.561222971789e-16 9.826331001927e-05 -2.885266200387e-04 1.666666666651e+00 5.000000000053e+00  3.867899300584e-04
5.900000000000e+00 -3.118568941199e-18 7.251992965194e-05 1.000000000000e+02 4.517259309667e-11 2.442673468835e-12 3.253412990401e-11 -5.000000000014e+00 9.903985931893e-05 3.580350387459e-16 9.903985931795e-05 -2.900797186357e-04 1.666666666646e+00 5.000000000053e+00  3.891195779541e-04
6.000000000000e+00 -3.126621282659e-18 7.290820430113e-05 1.000000000000e+02 4.923133775647e-11 2.184995533616e-12 3.688061025557e-11 -5.000000000013e+00 9.981640861760e-05 3.329930743490e-16 9.981640861663e-05 -2.916328172329e-04 1.666666666642e+00 5.000000000056e+00  3.914492258500e-04
6.100000000000e+00 -3.097805722302e-18 7.329647895031e-05 1.000000000000e+02 7.768068104273e-11 5.837511159146e-13 6.742010624552e-11 -4.999999999996e+00 1.005929579168e-04 1.713246955599e-16 1.005929579159e-04 -2.931859158300e-04 1.666666666617e+00 5.000000000069e+00  3.937788737464e-04
6.200000000000e+00 -3.344303716247e-18 7.368475359959e-05 1.000000000000e+02 -4.478788722996e-11 4.810451590874e-12 -6.115570116288e-11 -5.000000000045e+00 1.013695072124e-04 6.010294507275e-16 1.013695072112e-04 -2.947390144264e-04 1.666666666717e+00 4.999999999992e+00  3.961085216382e-04
6.300000000000e+00 -3.243911050534e-18 7.407302824875e-05 1.000000000000e+02 1.900420099066e-11 3.000425017801e-12 5.180579923381e-12 -5.000000000026e+00 1.021460565125e-04 4.193720825884e-16 1.021460565115e-04 -2.962921130241e-04 1.666666666667e+00 5.000000000038e+00  3.984381695361e-04
6.400000000000e+00 -3.378244900216e-18 7.446130289796e-05 1.000000000000e+02 1.229802428875e-12 3.715651372709e-12 -1.372513069633e-11 -5.000000000030e+00 1.029226058107e-04 4.934370670128e-16 1.029226058095e-04 -2.978452116210e-04 1.666666666681e+00 5.000000000024e+00  4.007678174311e-04
6.500000000000e+00 -3.448856990158e-18 7.484957754717e-05 1.000000000000e+02 -1.096476931241e-11 3.937527502686e-12 -2.647630754684e-11 -5.000000000034e+00 1.036991551089e-04 5.177109136987e-16 1.036991551077e-04 -2.993983102179e-04 1.666666666690e+00 5.000000000015e+00  4.030974653262e-04
6.600000000000e+00 -3.360767846867e-18 7.523785219633e-05 1.000000000000e+02 4.791451812860e-11 1.514421969330e-12 3.567953426921e-11 -5.000000000008e+00 1.044757044088e-04 2.733580020418e-16 1.044757044078e-04 -3.009514088153e-04 1.666666666642e+00 5.000000000050e+00  4.054271132236e-04
6.700000000000e+00 -3.451823326258e-18 7.562612684556e-05 1.000000000000e+02 2.830659896296e-12 3.049189462407e-12 -1.168750570861e-11 -5.000000000028e+00 1.052522537063e-04 4.299959933293e-16 1.052522537052e-04 -3.025045074122e-04 1.666666666679e+00 5.000000000023e+00  4.077567611180e-04
6.800000000000e+00 -3.381810837393e-18 7.601440149470e-05 1.000000000000e+02 8.509388506328e-11 -7.773869954168e-13 7.567464710423e-11 -4.999999999984e+00 1.060288030067e-04 4.263653277730e-17 1.060288030059e-04 -3.040576060094e-04 1.666666666608e+00 5.000000000064e+00  4.100864090157e-04
6.900000000000e+00 -3.377008035061e-18 7.640267614391e-05 1.000000000000e+02 6.239693397386e-11 1.389884520123e-12 5.062286556381e-11 -5.000000000005e+00 1.068053523049e-04 2.624691111606e-16 1.068053523039e-04 -3.056107046069e-04 1.666666666631e+00 5.000000000062e+00  4.124160569113e-04
7.000000000000e+00 -3.395244762115e-18 7.679095079312e-05 1.000000000000e+02 4.853439091596e-11 2.212335693103e-12 3.571082347655e-11 -5.000000000015e+00 1.075819016032e-04 3.466777386448e-16 1.075819016022e-04 -3.071638032041e-04 1.666666666644e+00 5.000000000057e+00  4.147457048068e-04
7.100000000000e+00 -3.382007822514e-18 7.717922544229e-05 1.000000000000e+02 7.843473584744e-11 4.009264575867e-13 6.793655366275e-11 -4.999999999995e+00 1.083584509024e-04 1.636693529548e-16 1.083584509015e-04 -3.087169018011e-04 1.666666666616e+00 5.000000000069e+00  4.170753527031e-04
7.200000000000e+00 -3.388840106529e-18 7.756750009151e-05 1.000000000000e+02 5.902004059089e-11 1.453418762497e-12 4.727876308045e-11 -5.000000000008e+00 1.091350002006e-04 2.707893746293e-16 1.091350001996e-04 -3.102700003983e-04 1.666666666634e+00 5.000000000061e+00  4.194050005984e-04
7.300000000000e+00 -3.490016711479e-18 7.795577474070e-05 1.000000000000e+02 5.407156637947e-11 -1.514839676407e-12 4.541843897504e-11 -4.999999999980e+00 1.099115494987e-04 -3.010849197095e-17 1.099115494978e-04 -3.118230989943e-04 1.666666666627e+00 5.000000000030e+00  4.217346484926e-04
7.400000000000e+00 -3.391847284241e-18 7.834404938991e-05 1.000000000000e+02 4.834729202633e-11 1.951194730986e-12 3.632969099165e-11 -5.000000000012e+00 1.106880987974e-04 3.213347952073e-16 1.106880987964e-04 -3.133761975925e-04 1.666666666642e+00 5.000000000054e+00  4.240642963895e-04
7.500000000000e+00 -3.511440838683e-18 7.873232403912e-05 1.000000000000e+02 2.541136918943e-11 3.122326449711e-12 1.179456879386e-11 -5.000000000021e+00 1.114646480955e-04 4.412308971695e-16 1.114646480943e-04 -3.149292961895e-04 1.666666666661e+00 5.000000000040e+00  4.263939442844e-04
7.600000000000e+00 -3.423627666825e-18 7.912059868828e-05 1.000000000000e+02 7.729563517023e-11 5.250157495959e-13 6.704370334361e-11 -4.999999999995e+00 1.122411973952e-04 1.787989142865e-16 1.122411973943e-04 -3.164823947868e-04 1.666666666617e+00 5.000000000068e+00  4.287235921815e-04
7.700000000000e+00 -3.529537556136e-18 7.950887333753e-05 1.000000000000e+02 2.256263665484e-11 3.606982115654e-12 8.321169274462e-12 -5.000000000028e+00 1.130177466926e-04 4.921713174453e-16 1.130177466914e-04 -3.180354933840e-04 1.666666666666e+00 5.000000000043e+00  4.310532400760e-04
7.800000000000e+00 -3.510400817333e-18 7.989714798670e-05 1.000000000000e+02 4.793901589352e-11 1.738135625531e-12 3.601845182064e-11 -5.000000000010e+00 1.137942959917e-04 3.039771137078e-16 1.137942959906e-04 -3.195885919810e-04 1.666666666642e+00 5.000000000052e+00  4.333828879721e-04
7.900000000000e+00 -3.574506957388e-18 8.028542263591e-05 1.000000000000e+02 4.005941845603e-11 2.855326223896e-12 2.675661630915e-11 -5.000000000019e+00 1.145708452901e-04 4.182935273022e-16 1.145708452890e-04 -3.211416905783e-04 1.666666666651e+00 5.000000000052e+00  4.357125358678e-04
8.000000000000e+00 -3.532828405097e-18 8.067369728509e-05 1.000000000000e+02 7.223119469444e-11 8.504081032708e-13 6.145965651914e-11 -4.999999999999e+00 1.153473945894e-04 2.159242271925e-16 1.153473945884e-04 -3.226947891753e-04 1.666666666622e+00 5.000000000066e+00  4.380421837642e-04
8.100000000000e+00 -3.615848352466e-18 8.106197193431e-05 1.000000000000e+02 2.874950740435e-11 2.738037259693e-12 1.548332527005e-11 -5.000000000020e+00 1.161239438870e-04 4.081035797746e-16 1.161239438858e-04 -3.242478877724e-04 1.666666666659e+00 5.000000000042e+00  4.403718316588e-04
8.200000000000e+00 -3.595287282680e-18 8.145024658349e-05 1.000000000000e+02 6.772282185273e-11 1.494479073156e-12 5.617326077669e-11 -5.000000000004e+00 1.169004931865e-04 2.830338005705e-16 1.169004931854e-04 -3.258009863697e-04 1.666666666627e+00 5.000000000066e+00  4.427014795557e-04
8.300000000000e+00 -3.637626613749e-18 8.183852123269e-05 1.000000000000e+02 5.025902784228e-11 2.167376397729e-12 3.785445799413e-11 -5.000000000012e+00 1.176770424846e-04 3.520964907527e-16 1.176770424835e-04 -3.273540849668e-04 1.666666666641e+00 5.000000000056e+00  4.450311274509e-04
8.400000000000e+00 -3.633788383375e-18 8.222679588189e-05 1.000000000000e+02 5.184706425761e-11 2.087542867627e-12 3.950385100056e-11 -5.000000000012e+00 1.184535917833e-04 3.449952488672e-16 1.184535917822e-04 -3.289071835640e-04 1.666666666640e+00 5.000000000058e+00  4.473607753467e-04
8.500000000000e+00 -3.638723956203e-18 8.261507053108e-05 1.000000000000e+02 6.084902662758e-11 1.514274414502e-12 4.922324758442e-11 -5.000000000007e+00 1.192301410820e-04 2.877238219994e-16 1.192301410810e-04 -3.304602821611e-04 1.666666666632e+00 5.000000000062e+00  4.496904232426e-04
8.600000000000e+00 -3.719695036545e-18 8.300334518030e-05 1.000000000000e+02 3.073408281346e-11 2.837030070817e-12 1.728565178725e-11 -5.000000000021e+00 1.200066903799e-04 4.228213419218e-16 1.200066903787e-04 -3.320133807582e-04 1.666666666658e+00 5.000000000045e+00  4.520200711375e-04
8.700000000000e+00 -3.818210205950e-18 8.339161982953e-05 1.000000000000e+02 1.107470596719e-13 4.321478328735e-12 -1.553033107208e-11 -5.000000000038e+00 1.207832396778e-04 5.749631411531e-16 1.207832396765e-04 -3.335664793553e-04 1.666666666684e+00 5.000000000030e+00  4.543497190324e-04
8.800000000000e+00 -3.759226384479e-18 8.377989447868e-05 1.000000000000e+02 6.638737736625e-11 1.178533454514e-12 5.485914529359e-11 -5.000000000003e+00 1.215597889779e-04 2.576534465111e-16 1.215597889768e-04 -3.351195779525e-04 1.666666666627e+00 5.000000000064e+00  4.566793669298e-04
8.900000000000e+00 -3.908805903647e-18 8.416816912793e-05 1.000000000000e+02 -2.281095914010e-11 3.507446550339e-12 -3.793952941163e-11 -5.000000000035e+00 1.223363382742e-04 4.948201306435e-16 1.223363382729e-04 -3.366726765489e-04 1.666666666699e+00 5.000000000004e+00  4.590090148225e-04
9.000000000000e+00 -3.836497882143e-18 8.455644377707e-05 1.000000000000e+02 6.879012781856e-11 1.374451822257e-12 5.694145242124e-11 -5.000000000004e+00 1.231128875751e-04 2.797420893653e-16 1.231128875739e-04 -3.382257751467e-04 1.666666666626e+00 5.000000000067e+00  4.613386627212e-04
9.100000000000e+00 -3.847666236005e-18 8.494471842627e-05 1.000000000000e+02 6.717190114321e-11 1.242954279385e-12 5.552773807889e-11 -5.000000000003e+00 1.238894368736e-04 2.670223367685e-16 1.238894368725e-04 -3.397788737438e-04 1.666666666627e+00 5.000000000064e+00  4.636683106168e-04
9.200000000000e+00 -3.894857019298e-18 8.533299307548e-05 1.000000000000e+02 5.469220591461e-11 1.964408908873e-12 4.217898108329e-11 -5.000000000009e+00 1.246659861719e-04 3.409012562889e-16 1.246659861707e-04 -3.413319723409e-04 1.666666666637e+00 5.000000000057e+00  4.659979585122e-04
9.300000000000e+00 -3.903738257853e-18 8.572126772468e-05 1.000000000000e+02 4.828747153287e-11 2.033520177022e-12 3.563699248893e-11 -5.000000000012e+00 1.254425354703e-04 3.488382373489e-16 1.254425354691e-04 -3.428850709381e-04 1.666666666643e+00 5.000000000054e+00  4.683276064078e-04
9.400000000000e+00 -4.022706683065e-18 8.610954237392e-05 1.000000000000e+02 -3.200513638834e-12 4.298047335585e-12 -1.909884316670e-11 -5.000000000038e+00 1.262190847677e-04 5.798616738592e-16 1.262190847663e-04 -3.444381695351e-04 1.666666666687e+00 5.000000000027e+00  4.706572543021e-04
9.500000000000e+00 -3.953708695862e-18 8.649781702306e-05 1.000000000000e+02 7.215558590438e-11 8.885390425968e-13 6.077707087604e-11 -5.000000000000e+00 1.269956340680e-04 2.354582186777e-16 1.269956340668e-04 -3.459912681323e-04 1.666666666622e+00 5.000000000066e+00  4.729869021997e-04
9.600000000000e+00 -4.080314387921e-18 8.688609167229e-05 1.000000000000e+02 1.295805823753e-11 3.705725931312e-12 -2.200473599630e-12 -5.000000000029e+00 1.277721833652e-04 5.220984031933e-16 1.277721833639e-04 -3.475443667294e-04 1.666666666673e+00 5.000000000035e+00  4.753165500939e-04
9.700000000000e+00 -4.013148080827e-18 8.727436632146e-05 1.000000000000e+02 7.129315193755e-11 8.878511416716e-13 5.981063561089e-11 -5.000000000000e+00 1.285487326651e-04 2.375289318895e-16 1.285487326639e-04 -3.490974653266e-04 1.666666666623e+00 5.000000000065e+00  4.776461979911e-04
9.800000000000e+00 -4.048294843569e-18 8.766264097067e-05 1.000000000000e+02 5.159890107779e-11 2.037575682175e-12 3.873359850452e-11 -5.000000000012e+00 1.293252819632e-04 3.547546213134e-16 1.293252819620e-04 -3.506505639238e-04 1.666666666640e+00 5.000000000057e+00  4.799758458864e-04
9.900000000000e+00 -4.189925949677e-18 8.805091561992e-05 1.000000000000e+02 -1.614169272783e-11 4.238749910541e-12 -3.232481354346e-11 -5.000000000039e+00 1.301018312601e-04 5.793432896955e-16 1.301018312588e-04 -3.522036625205e-04 1.666666666696e+00 5.000000000015e+00  4.823054937800e-04
1.000000000000e+01 -4.190773599883e-18 8.843919026909e-05 1.000000000000e+02 2.139179487483e-11 2.722665535731e-12 7.180654508499e-12 -5.000000000021e+00 1.308783805596e-04 4.272840761765e-16 1.308783805583e-04 -3.537567611177e-04 1.666666666664e+00 5.000000000035e+00  4.846351416766e-04
1.010000000000e+01 -4.192757948318e-18 8.882746491828e-05 1.000000000000e+02 3.015968348905e-11 2.339529049146e-12 1.641508312380e-11 -5.000000000018e+00 1.316549298583e-04 3.896259795467e-16 1.316549298571e-04 -3.553098597149e-04 1.666666666657e+00 5.000000000041e+00  4.869647895726e-04