 TITLE = "Time curves in points"
 VARIABLES = "TIME "  "DISPLACEMENT_X1"  "DISPLACEMENT_Y1"  "STRESS_XX"  "STRESS_XY"  "STRESS_YY"  "STRESS_ZZ"  "STRAIN_XX"  "STRAIN_XY"  "STRAIN_YY"  "STRAIN_ZZ"  "STRAIN_PLS"  p_(1st_Invariant)  q_(2nd_Invariant)   Effective_Strain
 ZONE T="POINT=POINT2"
0.000000000000e+00 0.000000000000e+00 0.000000000000e+00 0.000000000000e+00 0.000000000000e+00 0.000000000000e+00 0.000000000000e+00 0.000000000000e+00 0.000000000000e+00 0.000000000000e+00 0.000000000000e+00 0.000000000000e+00 -0.000000000000e+00 0.000000000000e+00  0.000000000000e+00
1.000000000000e+00 4.499999986312e-04 -2.159999999750e-02 -4.999999999917e+00 -3.027356010108e-10 -5.000000002641e+00 -1.499999999905e+01 1.000000000589e-02 -7.871125626280e-12 9.999999970490e-03 -1.199999999828e-01 0.000000000000e+00 8.333333333869e+00 9.999999997769e+00  1.299999999710e-01
2.000000000000e+00 4.514999999962e-04 -2.161199999999e-02 -4.999999999999e+00 1.032404305623e-13 -5.000000000002e+00 -1.500000000000e+01 1.003333333332e-02 -3.431048125002e-16 1.003333333325e-02 -1.200666666666e-01 0.000000000000e+00 8.333333333333e+00 9.999999999996e+00  1.300999999998e-01
3.000000000000e+00 4.529999999959e-04 -2.162399999999e-02 -4.999999999999e+00 1.046664344966e-14 -5.000000000003e+00 -1.500000000000e+01 1.006666666665e-02 -2.754190873123e-15 1.006666666658e-02 -1.201333333332e-01 0.000000000000e+00 8.333333333333e+00 9.999999999996e+00  1.301999999998e-01
4.000000000000e+00 4.544999999966e-04 -2.163599999999e-02 -4.999999999999e+00 1.400564434305e-13 -5.000000000001e+00 -1.500000000000e+01 1.009999999998e-02 6.152485928141e-16 1.009999999993e-02 -1.201999999999e-01 0.000000000000e+00 8.333333333332e+00 9.999999999997e+00  1.302999999998e-01
5.000000000000e+00 4.559999999961e-04 -2.164799999999e-02 -4.999999999999e+00 9.605307656575e-14 -5.000000000002e+00 -1.500000000000e+01 1.013333333332e-02 -5.274383812362e-16 1.013333333325e-02 -1.202666666666e-01 0.000000000000e+00 8.333333333333e+00 9.999999999996e+00  1.303999999998e-01
6.000000000000e+00 4.574999999964e-04 -2.165999999999e-02 -4.999999999999e+00 1.318438023650e-13 -5.000000000002e+00 -1.500000000000e+01 1.016666666665e-02 4.040810203091e-16 1.016666666659e-02 -1.203333333332e-01 0.000000000000e+00 8.333333333333e+00 9.999999999997e+00  1.304999999998e-01
7.000000000000e+00 4.589999999966e-04 -2.167199999999e-02 -4.999999999999e+00 1.573736619676e-13 -5.000000000001e+00 -1.500000000000e+01 1.019999999998e-02 1.069175808002e-15 1.019999999992e-02 -1.203999999999e-01 0.000000000000e+00 8.333333333332e+00 9.999999999997e+00  1.305999999998e-01
8.000000000000e+00 4.604999999963e-04 -2.168399999999e-02 -4.999999999999e+00 1.109941576988e-13 -5.000000000002e+00 -1.500000000000e+01 1.023333333331e-02 -1.351175663678e-16 1.023333333325e-02 -1.204666666666e-01 0.000000000000e+00 8.333333333333e+00 9.999999999997e+00  1.306999999998e-01
9.000000000000e+00 4.619999999964e-04 -2.169599999999e-02 -4.999999999999e+00 1.005731855925e-13 -5.000000000002e+00 -1.500000000000e+01 1.026666666665e-02 -4.049528995541e-16 1.026666666659e-02 -1.205333333332e-01 0.000000000000e+00 8.333333333333e+00 9.999999999997e+00  1.307999999998e-01
1.000000000000e+01 4.634999999955e-04 -2.170799999999e-02 -4.999999999999e+00 4.639836918451e-14 -5.000000000003e+00 -1.500000000000e+01 1.029999999998e-02 -1.812492394307e-15 1.029999999990e-02 -1.205999999999e-01 0.000000000000e+00 8.333333333333e+00 9.999999999995e+00  1.308999999998e-01
1.100000000000e+01 4.649999999966e-04 -2.171999999999e-02 -4.999999999999e+00 1.547631239561e-13 -5.000000000001e+00 -1.500000000000e+01 1.033333333331e-02 1.005455213446e-15 1.033333333326e-02 -1.206666666666e-01 0.000000000000e+00 8.333333333333e+00 9.999999999997e+00  1.309999999998e-01
1.200000000000e+01 4.664999999961e-04 -2.173199999999e-02 -4.999999999999e+00 7.131203320560e-14 -5.000000000002e+00 -1.500000000000e+01 1.036666666665e-02 -1.162725514827e-15 1.036666666658e-02 -1.207333333332e-01 0.000000000000e+00 8.333333333333e+00 9.999999999996e+00  1.310999999998e-01
1.300000000000e+01 4.679999999964e-04 -2.174399999999e-02 -4.999999999999e+00 1.180087672497e-13 -5.000000000002e+00 -1.500000000000e+01 1.039999999998e-02 5.210269065248e-17 1.039999999992e-02 -1.207999999999e-01 0.000000000000e+00 8.333333333333e+00 9.999999999997e+00  1.311999999998e-01
1.400000000000e+01 4.694999999961e-04 -2.175599999999e-02 -4.999999999999e+00 9.192984334725e-14 -5.000000000002e+00 -1.500000000000e+01 1.043333333332e-02 -6.247692431393e-16 1.043333333325e-02 -1.208666666666e-01 0.000000000000e+00 8.333333333333e+00 9.999999999996e+00  1.312999999998e-01
1.500000000000e+01 4.709999999958e-04 -2.176799999999e-02 -4.999999999999e+00 4.560778390506e-14 -5.000000000003e+00 -1.500000000000e+01 1.046666666665e-02 -1.828223490203e-15 1.046666666657e-02 -1.209333333332e-01 0.000000000000e+00 8.333333333333e+00 9.999999999996e+00  1.313999999998e-01
1.600000000000e+01 4.724999999966e-04 -2.177999999999e-02 -4.999999999999e+00 1.630431756102e-13 -5.000000000001e+00 -1.500000000000e+01 1.049999999998e-02 1.225552771970e-15 1.049999999992e-02 -1.209999999999e-01 0.000000000000e+00 8.333333333332e+00 9.999999999997e+00  1.314999999998e-01
1.700000000000e+01 4.739999999964e-04 -2.179199999999e-02 -4.999999999999e+00 1.081213136467e-13 -5.000000000001e+00 -1.500000000000e+01 1.053333333331e-02 -2.007852073252e-16 1.053333333325e-02 -1.210666666666e-01 0.000000000000e+00 8.333333333333e+00 9.999999999997e+00  1.315999999998e-01
1.800000000000e+01 4.754999999963e-04 -2.180399999999e-02 -4.999999999999e+00 9.704036984328e-14 -5.000000000002e+00 -1.500000000000e+01 1.056666666665e-02 -4.878085330773e-16 1.056666666659e-02 -1.211333333332e-01 0.000000000000e+00 8.333333333333e+00 9.999999999997e+00  1.316999999998e-01
1.900000000000e+01 4.769999999969e-04 -2.181599999999e-02 -4.999999999999e+00 1.760270940322e-13 -5.000000000001e+00 -1.500000000000e+01 1.059999999998e-02 1.566816699532e-15 1.059999999993e-02 -1.211999999999e-01 0.000000000000e+00 8.333333333332e+00 9.999999999998e+00  1.317999999999e-01
2.000000000000e+01 4.784999999959e-04 -2.182799999999e-02 -4.999999999999e+00 1.102759825021e-13 -5.000000000003e+00 -1.500000000000e+01 1.063333333331e-02 -1.409519293085e-16 1.063333333324e-02 -1.212666666666e-01 0.000000000000e+00 8.333333333333e+00 9.999999999996e+00  1.318999999998e-01
2.100000000000e+01 4.799999999964e-04 -2.183999999999e-02 -4.999999999999e+00 1.001039233653e-13 -5.000000000002e+00 -1.500000000000e+01 1.066666666665e-02 -4.043227070414e-16 1.066666666659e-02 -1.213333333332e-01 0.000000000000e+00 8.333333333333e+00 9.999999999997e+00  1.319999999998e-01
2.200000000000e+01 4.814999999966e-04 -2.185199999999e-02 -4.999999999999e+00 1.305455332438e-13 -5.000000000001e+00 -1.500000000000e+01 1.069999999998e-02 3.881601890325e-16 1.069999999992e-02 -1.213999999999e-01 0.000000000000e+00 8.333333333332e+00 9.999999999997e+00  1.320999999998e-01
2.300000000000e+01 4.829999999956e-04 -2.186399999999e-02 -4.999999999999e+00 -1.675818351303e-14 -5.000000000003e+00 -1.500000000000e+01 1.073333333332e-02 -3.440430991312e-15 1.073333333324e-02 -1.214666666665e-01 0.000000000000e+00 8.333333333333e+00 9.999999999995e+00  1.321999999998e-01
2.400000000000e+01 4.844999999964e-04 -2.187599999999e-02 -4.999999999999e+00 1.680910929486e-13 -5.000000000001e+00 -1.500000000000e+01 1.076666666665e-02 1.365482614856e-15 1.076666666659e-02 -1.215333333332e-01 0.000000000000e+00 8.333333333333e+00 9.999999999997e+00  1.322999999998e-01
2.500000000000e+01 4.859999999959e-04 -2.188799999999e-02 -4.999999999999e+00 4.059151163963e-15 -5.000000000003e+00 -1.500000000000e+01 1.079999999998e-02 -2.897666960615e-15 1.079999999991e-02 -1.215999999999e-01 0.000000000000e+00 8.333333333333e+00 9.999999999996e+00  1.323999999998e-01
2.600000000000e+01 4.874999999966e-04 -2.189999999999e-02 -4.999999999999e+00 1.408538453094e-13 -5.000000000001e+00 -1.500000000000e+01 1.083333333331e-02 6.590356786781e-16 1.083333333326e-02 -1.216666666666e-01 0.000000000000e+00 8.333333333332e+00 9.999999999997e+00  1.324999999998e-01
2.700000000000e+01 4.889999999966e-04 -2.191199999999e-02 -4.999999999999e+00 1.423089531528e-13 -5.000000000001e+00 -1.500000000000e+01 1.086666666665e-02 6.982770210585e-16 1.086666666659e-02 -1.217333333332e-01 0.000000000000e+00 8.333333333332e+00 9.999999999997e+00  1.325999999998e-01
2.800000000000e+01 4.904999999962e-04 -2.192399999999e-02 -4.999999999999e+00 9.773820692794e-14 -5.000000000002e+00 -1.500000000000e+01 1.089999999998e-02 -4.591392912559e-16 1.089999999992e-02 -1.217999999999e-01 0.000000000000e+00 8.333333333333e+00 9.999999999996e+00  1.326999999998e-01
2.900000000000e+01 4.919999999963e-04 -2.193599999999e-02 -4.999999999999e+00 9.744985011991e-14 -5.000000000002e+00 -1.500000000000e+01 1.093333333331e-02 -4.656591861953e-16 1.093333333325e-02 -1.218666666666e-01 0.000000000000e+00 8.333333333333e+00 9.999999999997e+00  1.327999999998e-01
3.000000000000e+01 4.934999999964e-04 -2.194799999999e-02 -4.999999999999e+00 2.403895762134e-13 -5.000000000002e+00 -1.500000000000e+01 1.096666666665e-02 3.251748190738e-15 1.096666666659e-02 -1.219333333332e-01 0.000000000000e+00 8.333333333333e+00 9.999999999997e+00  1.328999999998e-01
3.100000000000e+01 4.949999999960e-04 -2.195999999999e-02 -4.999999999999e+00 7.608019150712e-14 -5.000000000002e+00 -1.500000000000e+01 1.099999999998e-02 -1.017891915864e-15 1.099999999991e-02 -1.219999999999e-01 0.000000000000e+00 8.333333333333e+00 9.999999999996e+00  1.329999999998e-01
3.200000000000e+01 4.964999999959e-04 -2.197199999999e-02 -4.999999999999e+00 6.475876445567e-14 -5.000000000002e+00 -1.500000000000e+01 1.103333333331e-02 -1.311488217287e-15 1.103333333324e-02 -1.220666666666e-01 0.000000000000e+00 8.333333333333e+00 9.999999999996e+00  1.330999999998e-01
3.300000000000e+01 4.979999999958e-04 -2.198399999999e-02 -4.999999999999e+00 3.785420056557e-14 -5.000000000003e+00 -1.500000000000e+01 1.106666666665e-02 -2.010359290785e-15 1.106666666657e-02 -1.221333333332e-01 0.000000000000e+00 8.333333333333e+00 9.999999999996e+00  1.331999999998e-01
3.400000000000e+01 4.994999999964e-04 -2.199599999999e-02 -4.999999999999e+00 1.529391693900e-13 -5.000000000001e+00 -1.500000000000e+01 1.109999999998e-02 9.822284406552e-16 1.109999999992e-02 -1.221999999999e-01 0.000000000000e+00 8.333333333333e+00 9.999999999997e+00  1.332999999998e-01
3.500000000000e+01 5.009999999964e-04 -2.200799999999e-02 -4.999999999999e+00 8.139702089679e-14 -5.000000000001e+00 -1.500000000000e+01 1.113333333331e-02 -8.763380284738e-16 1.113333333325e-02 -1.222666666666e-01 0.000000000000e+00 8.333333333332e+00 9.999999999997e+00  1.333999999998e-01
3.600000000000e+01 5.024999999961e-04 -2.201999999999e-02 -4.999999999999e+00 9.249242602060e-14 -5.000000000002e+00 -1.500000000000e+01 1.116666666665e-02 -5.870435250459e-16 1.116666666658e-02 -1.223333333332e-01 0.000000000000e+00 8.333333333333e+00 9.999999999996e+00  1.334999999998e-01
3.700000000000e+01 5.039999999962e-04 -2.203199999999e-02 -4.999999999999e+00 9.439177932523e-14 -5.000000000002e+00 -1.500000000000e+01 1.119999999998e-02 -5.367354148653e-16 1.119999999992e-02 -1.223999999999e-01 0.000000000000e+00 8.333333333333e+00 9.999999999996e+00  1.335999999998e-01
3.800000000000e+01 5.054999999963e-04 -2.204399999999e-02 -4.999999999999e+00 1.154966787192e-13 -5.000000000002e+00 -1.500000000000e+01 1.123333333331e-02 1.293588717142e-17 1.123333333325e-02 -1.224666666666e-01 0.000000000000e+00 8.333333333333e+00 9.999999999997e+00  1.336999999998e-01
3.900000000000e+01 5.069999999962e-04 -2.205599999999e-02 -4.999999999999e+00 9.305075484487e-14 -5.000000000002e+00 -1.500000000000e+01 1.126666666665e-02 -5.695031667741e-16 1.126666666658e-02 -1.225333333332e-01 0.000000000000e+00 8.333333333333e+00 9.999999999996e+00  1.337999999998e-01
4.000000000000e+01 5.084999999958e-04 -2.206799999999e-02 -4.999999999999e+00 9.359807226142e-14 -5.000000000003e+00 -1.500000000000e+01 1.129999999998e-02 -5.543424063956e-16 1.129999999991e-02 -1.225999999999e-01 0.000000000000e+00 8.333333333333e+00 9.999999999996e+00  1.338999999998e-01
4.100000000000e+01 5.099999999965e-04 -2.207999999999e-02 -4.999999999999e+00 1.232852844362e-13 -5.000000000001e+00 -1.500000000000e+01 1.133333333331e-02 2.184610908705e-16 1.133333333326e-02 -1.226666666666e-01 0.000000000000e+00 8.333333333332e+00 9.999999999997e+00  1.339999999998e-01
4.200000000000e+01 5.114999999962e-04 -2.209199999999e-02 -4.999999999999e+00 9.343034322932e-14 -5.000000000002e+00 -1.500000000000e+01 1.136666666665e-02 -5.565345276630e-16 1.136666666658e-02 -1.227333333332e-01 0.000000000000e+00 8.333333333333e+00 9.999999999997e+00  1.340999999998e-01
4.300000000000e+01 5.129999999964e-04 -2.210399999999e-02 -4.999999999999e+00 1.180835510781e-13 -5.000000000001e+00 -1.500000000000e+01 1.139999999998e-02 8.538317983875e-17 1.139999999992e-02 -1.227999999999e-01 0.000000000000e+00 8.333333333333e+00 9.999999999997e+00  1.341999999998e-01
4.400000000000e+01 5.144999999965e-04 -2.211599999999e-02 -4.999999999999e+00 1.469047999822e-13 -5.000000000001e+00 -1.500000000000e+01 1.143333333331e-02 8.359164868555e-16 1.143333333326e-02 -1.228666666666e-01 0.000000000000e+00 8.333333333332e+00 9.999999999997e+00  1.342999999998e-01
4.500000000000e+01 5.159999999965e-04 -2.212799999999e-02 -4.999999999999e+00 1.290574352999e-13 -5.000000000001e+00 -1.500000000000e+01 1.146666666665e-02 3.733540531145e-16 1.146666666659e-02 -1.229333333332e-01 0.000000000000e+00 8.333333333332e+00 9.999999999997e+00  1.343999999998e-01
4.600000000000e+01 5.174999999964e-04 -2.213999999999e-02 -4.999999999999e+00 1.124150305143e-13 -5.000000000001e+00 -1.500000000000e+01 1.149999999998e-02 -5.805789695836e-17 1.149999999992e-02 -1.229999999999e-01 0.000000000000e+00 8.333333333333e+00 9.999999999997e+00  1.344999999998e-01
4.700000000000e+01 5.189999999963e-04 -2.215199999999e-02 -4.999999999999e+00 1.093663038793e-13 -5.000000000002e+00 -1.500000000000e+01 1.153333333331e-02 -1.362006391630e-16 1.153333333325e-02 -1.230666666666e-01 0.000000000000e+00 8.333333333333e+00 9.999999999997e+00  1.345999999998e-01
4.800000000000e+01 5.204999999961e-04 -2.216399999999e-02 -4.999999999999e+00 9.336505325031e-14 -5.000000000002e+00 -1.500000000000e+01 1.156666666665e-02 -5.511394924777e-16 1.156666666658e-02 -1.231333333332e-01 0.000000000000e+00 8.333333333333e+00 9.999999999996e+00  1.346999999998e-01
4.900000000000e+01 5.219999999965e-04 -2.217599999999e-02 -4.999999999999e+00 1.321907980465e-13 -5.000000000001e+00 -1.500000000000e+01 1.159999999998e-02 4.592635227568e-16 1.159999999992e-02 -1.231999999999e-01 0.000000000000e+00 8.333333333332e+00 9.999999999997e+00  1.347999999998e-01
5.000000000000e+01 5.234999999955e-04 -2.218799999999e-02 -4.999999999999e+00 1.611659669844e-14 -5.000000000003e+00 -1.500000000000e+01 1.163333333331e-02 -2.557343804313e-15 1.163333333323e-02 -1.232666666665e-01 0.000000000000e+00 8.333333333333e+00 9.999999999995e+00  1.348999999998e-01
5.100000000000e+01 5.249999999959e-04 -2.219999999999e-02 -4.999999999999e+00 2.143006897927e-14 -5.000000000002e+00 -1.500000000000e+01 1.166666666665e-02 -2.419032359045e-15 1.166666666658e-02 -1.233333333332e-01 0.000000000000e+00 8.333333333333e+00 9.999999999996e+00  1.349999999998e-01
5.200000000000e+01 5.264999999954e-04 -2.221199999999e-02 -4.999999999999e+00 -2.457595891184e-15 -5.000000000003e+00 -1.500000000000e+01 1.169999999998e-02 -3.039897344987e-15 1.169999999990e-02 -1.233999999999e-01 0.000000000000e+00 8.333333333333e+00 9.999999999995e+00  1.350999999998e-01
5.300000000000e+01 5.279999999960e-04 -2.222399999999e-02 -4.999999999999e+00 7.233032075596e-14 -5.000000000002e+00 -1.500000000000e+01 1.173333333331e-02 -1.095436088120e-15 1.173333333324e-02 -1.234666666666e-01 0.000000000000e+00 8.333333333333e+00 9.999999999996e+00  1.351999999998e-01
5.400000000000e+01 5.294999999969e-04 -2.223599999999e-02 -4.999999999999e+00 1.697767942173e-13 -5.000000000000e+00 -1.500000000000e+01 1.176666666664e-02 1.438895525083e-15 1.176666666660e-02 -1.235333333332e-01 0.000000000000e+00 8.333333333332e+00 9.999999999998e+00  1.352999999998e-01
5.500000000000e+01 5.309999999958e-04 -2.224799999999e-02 -4.999999999999e+00 -2.860875912421e-14 -5.000000000003e+00 -1.500000000000e+01 1.179999999998e-02 -3.717431093855e-15 1.179999999991e-02 -1.235999999999e-01 0.000000000000e+00 8.333333333333e+00 9.999999999996e+00  1.353999999998e-01
5.600000000000e+01 5.324999999969e-04 -2.225999999999e-02 -4.999999999999e+00 1.865306296863e-13 -5.000000000000e+00 -1.500000000000e+01 1.183333333331e-02 1.875906927626e-15 1.183333333326e-02 -1.236666666666e-01 0.000000000000e+00 8.333333333332e+00 9.999999999998e+00  1.354999999998e-01
5.700000000000e+01 5.339999999964e-04 -2.227199999999e-02 -4.999999999999e+00 2.697608853039e-13 -5.000000000001e+00 -1.500000000000e+01 1.186666666664e-02 4.041758879983e-15 1.186666666659e-02 -1.237333333332e-01 0.000000000000e+00 8.333333333333e+00 9.999999999997e+00  1.355999999998e-01
5.800000000000e+01 5.354999999963e-04 -2.228399999999e-02 -4.999999999999e+00 1.107519692713e-13 -5.000000000001e+00 -1.500000000000e+01 1.189999999998e-02 -8.977532801262e-17 1.189999999992e-02 -1.237999999999e-01 0.000000000000e+00 8.333333333332e+00 9.999999999997e+00  1.356999999998e-01
5.900000000000e+01 5.369999999961e-04 -2.229599999999e-02 -4.999999999999e+00 8.175031495792e-14 -5.000000000002e+00 -1.500000000000e+01 1.193333333331e-02 -8.427108204679e-16 1.193333333325e-02 -1.238666666666e-01 0.000000000000e+00 8.333333333333e+00 9.999999999996e+00  1.357999999998e-01
6.000000000000e+01 5.384999999968e-04 -2.230799999999e-02 -4.999999999999e+00 1.568749331241e-13 -5.000000000001e+00 -1.500000000000e+01 1.196666666664e-02 1.111346755003e-15 1.196666666660e-02 -1.239333333332e-01 0.000000000000e+00 8.333333333332e+00 9.999999999998e+00  1.358999999998e-01
6.100000000000e+01 5.399999999962e-04 -2.231999999999e-02 -4.999999999999e+00 9.767167216540e-14 -5.000000000002e+00 -1.500000000000e+01 1.199999999998e-02 -4.263692805925e-16 1.199999999992e-02 -1.239999999999e-01 0.000000000000e+00 8.333333333333e+00 9.999999999997e+00  1.359999999998e-01
6.200000000000e+01 5.414999999957e-04 -2.233199999999e-02 -4.999999999999e+00 3.677322512428e-14 -5.000000000003e+00 -1.500000000000e+01 1.203333333331e-02 -2.008752186940e-15 1.203333333324e-02 -1.240666666665e-01 0.000000000000e+00 8.333333333333e+00 9.999999999996e+00  1.360999999998e-01
6.300000000000e+01 5.429999999967e-04 -2.234399999999e-02 -4.999999999999e+00 1.883802813268e-13 -5.000000000001e+00 -1.500000000000e+01 1.206666666664e-02 1.933399006577e-15 1.206666666659e-02 -1.241333333332e-01 0.000000000000e+00 8.333333333332e+00 9.999999999997e+00  1.361999999998e-01
6.400000000000e+01 5.444999999961e-04 -2.235599999999e-02 -4.999999999999e+00 6.824533773302e-14 -5.000000000002e+00 -1.500000000000e+01 1.209999999998e-02 -1.188225724048e-15 1.209999999991e-02 -1.241999999999e-01 0.000000000000e+00 8.333333333333e+00 9.999999999996e+00  1.362999999998e-01
6.500000000000e+01 5.459999999961e-04 -2.236799999999e-02 -4.999999999999e+00 8.226185328959e-14 -5.000000000002e+00 -1.500000000000e+01 1.213333333331e-02 -8.231138662002e-16 1.213333333325e-02 -1.242666666666e-01 0.000000000000e+00 8.333333333333e+00 9.999999999996e+00  1.363999999998e-01
6.600000000000e+01 5.474999999965e-04 -2.237999999999e-02 -4.999999999999e+00 1.269284468050e-13 -5.000000000001e+00 -1.500000000000e+01 1.216666666664e-02 3.390401837326e-16 1.216666666659e-02 -1.243333333332e-01 0.000000000000e+00 8.333333333332e+00 9.999999999997e+00  1.364999999998e-01
6.700000000000e+01 5.489999999965e-04 -2.239199999999e-02 -4.999999999999e+00 1.346340627721e-13 -5.000000000001e+00 -1.500000000000e+01 1.219999999998e-02 5.406554833471e-16 1.219999999992e-02 -1.243999999999e-01 0.000000000000e+00 8.333333333332e+00 9.999999999997e+00  1.365999999998e-01
6.800000000000e+01 5.504999999958e-04 -2.240399999999e-02 -4.999999999999e+00 7.289482558318e-14 -5.000000000002e+00 -1.500000000000e+01 1.223333333331e-02 -1.063218342938e-15 1.223333333324e-02 -1.244666666665e-01 0.000000000000e+00 8.333333333333e+00 9.999999999996e+00  1.366999999998e-01
6.900000000000e+01 5.519999999963e-04 -2.241599999999e-02 -4.999999999999e+00 1.094778118467e-13 -5.000000000001e+00 -1.500000000000e+01 1.226666666664e-02 -1.113317518316e-16 1.226666666658e-02 -1.245333333332e-01 0.000000000000e+00 8.333333333333e+00 9.999999999997e+00  1.367999999998e-01
7.000000000000e+01 5.534999999963e-04 -2.242799999999e-02 -4.999999999999e+00 1.285870241591e-14 -5.000000000001e+00 -1.500000000000e+01 1.229999999998e-02 -2.622333818913e-15 1.229999999992e-02 -1.245999999999e-01 0.000000000000e+00 8.333333333332e+00 9.999999999997e+00  1.368999999998e-01
7.100000000000e+01 5.549999999960e-04 -2.243999999999e-02 -4.999999999999e+00 9.907006951830e-14 -5.000000000002e+00 -1.500000000000e+01 1.233333333331e-02 -3.807096872265e-16 1.233333333325e-02 -1.246666666665e-01 0.000000000000e+00 8.333333333333e+00 9.999999999996e+00  1.369999999998e-01
7.200000000000e+01 5.564999999961e-04 -2.245199999999e-02 -4.999999999999e+00 8.462098145669e-14 -5.000000000002e+00 -1.500000000000e+01 1.236666666665e-02 -7.553952761331e-16 1.236666666658e-02 -1.247333333332e-01 0.000000000000e+00 8.333333333333e+00 9.999999999996e+00  1.370999999998e-01
7.300000000000e+01 5.579999999967e-04 -2.246399999999e-02 -4.999999999999e+00 1.523744835651e-13 -5.000000000001e+00 -1.500000000000e+01 1.239999999998e-02 1.007041988501e-15 1.239999999993e-02 -1.247999999999e-01 0.000000000000e+00 8.333333333332e+00 9.999999999998e+00  1.371999999998e-01
7.400000000000e+01 5.594999999960e-04 -2.247599999999e-02 -4.999999999999e+00 8.286755977396e-14 -5.000000000002e+00 -1.500000000000e+01 1.243333333331e-02 -7.986142852338e-16 1.243333333325e-02 -1.248666666665e-01 0.000000000000e+00 8.333333333333e+00 9.999999999996e+00  1.372999999998e-01
7.500000000000e+01 5.609999999965e-04 -2.248799999999e-02 -4.999999999999e+00 1.639820086712e-13 -5.000000000001e+00 -1.500000000000e+01 1.246666666664e-02 1.311190061692e-15 1.246666666659e-02 -1.249333333332e-01 0.000000000000e+00 8.333333333332e+00 9.999999999997e+00  1.373999999998e-01
7.600000000000e+01 5.624999999960e-04 -2.249999999999e-02 -4.999999999999e+00 7.638312232921e-14 -5.000000000002e+00 -1.500000000000e+01 1.249999999998e-02 -9.647411631129e-16 1.249999999991e-02 -1.249999999999e-01 0.000000000000e+00 8.333333333333e+00 9.999999999996e+00  1.374999999998e-01
7.700000000000e+01 5.639999999961e-04 -2.251199999999e-02 -4.999999999999e+00 7.034515310294e-14 -5.000000000002e+00 -1.500000000000e+01 1.253333333331e-02 -1.120964531773e-15 1.253333333325e-02 -1.250666666665e-01 0.000000000000e+00 8.333333333333e+00 9.999999999996e+00  1.375999999998e-01
7.800000000000e+01 5.654999999956e-04 -2.252399999999e-02 -4.999999999999e+00 2.532622649672e-14 -5.000000000003e+00 -1.500000000000e+01 1.256666666665e-02 -2.290753172003e-15 1.256666666657e-02 -1.251333333332e-01 0.000000000000e+00 8.333333333333e+00 9.999999999996e+00  1.376999999998e-01
7.900000000000e+01 5.669999999964e-04 -2.253599999999e-02 -4.999999999999e+00 1.330353161710e-13 -5.000000000001e+00 -1.500000000000e+01 1.259999999998e-02 5.099364217933e-16 1.259999999992e-02 -1.251999999999e-01 0.000000000000e+00 8.333333333332e+00 9.999999999997e+00  1.377999999998e-01
8.000000000000e+01 5.684999999959e-04 -2.254799999999e-02 -4.999999999999e+00 1.771686016519e-13 -5.000000000002e+00 -1.500000000000e+01 1.263333333331e-02 1.658732197459e-15 1.263333333324e-02 -1.252666666665e-01 0.000000000000e+00 8.333333333333e+00 9.999999999996e+00  1.378999999998e-01
8.100000000000e+01 5.699999999964e-04 -2.255999999999e-02 -4.999999999999e+00 2.797288169057e-14 -5.000000000001e+00 -1.500000000000e+01 1.266666666664e-02 -2.218584835520e-15 1.266666666659e-02 -1.253333333332e-01 0.000000000000e+00 8.333333333332e+00 9.999999999997e+00  1.379999999998e-01
8.200000000000e+01 5.714999999963e-04 -2.257199999999e-02 -4.999999999999e+00 1.181254354309e-13 -5.000000000001e+00 -1.500000000000e+01 1.269999999998e-02 1.256612905466e-16 1.269999999992e-02 -1.253999999999e-01 0.000000000000e+00 8.333333333332e+00 9.999999999997e+00  1.380999999998e-01
8.300000000000e+01 5.729999999956e-04 -2.258399999999e-02 -4.999999999999e+00 -1.480130994166e-14 -5.000000000003e+00 -1.500000000000e+01 1.273333333331e-02 -3.329252834787e-15 1.273333333324e-02 -1.254666666665e-01 0.000000000000e+00 8.333333333333e+00 9.999999999996e+00  1.381999999998e-01
8.400000000000e+01 5.744999999955e-04 -2.259599999999e-02 -4.999999999999e+00 2.139779664292e-14 -5.000000000003e+00 -1.500000000000e+01 1.276666666665e-02 -2.388224076687e-15 1.276666666657e-02 -1.255333333332e-01 0.000000000000e+00 8.333333333333e+00 9.999999999995e+00  1.382999999998e-01
8.500000000000e+01 5.759999999963e-04 -2.260799999999e-02 -4.999999999999e+00 1.143024350841e-13 -5.000000000001e+00 -1.500000000000e+01 1.279999999998e-02 2.751050075054e-17 1.279999999992e-02 -1.255999999999e-01 0.000000000000e+00 8.333333333332e+00 9.999999999997e+00  1.383999999998e-01
8.600000000000e+01 5.774999999962e-04 -2.261999999999e-02 -4.999999999999e+00 1.000598982210e-13 -5.000000000001e+00 -1.500000000000e+01 1.283333333331e-02 -3.416524333400e-16 1.283333333325e-02 -1.256666666666e-01 0.000000000000e+00 8.333333333332e+00 9.999999999997e+00  1.384999999998e-01
8.700000000000e+01 5.789999999963e-04 -2.263199999999e-02 -4.999999999999e+00 1.084139463989e-13 -5.000000000001e+00 -1.500000000000e+01 1.286666666664e-02 -1.234465817319e-16 1.286666666658e-02 -1.257333333332e-01 0.000000000000e+00 8.333333333332e+00 9.999999999997e+00  1.385999999998e-01
8.800000000000e+01 5.804999999959e-04 -2.264399999999e-02 -4.999999999999e+00 6.642413654809e-14 -5.000000000002e+00 -1.500000000000e+01 1.289999999998e-02 -1.214097498389e-15 1.289999999991e-02 -1.257999999999e-01 0.000000000000e+00 8.333333333333e+00 9.999999999996e+00  1.386999999998e-01
8.900000000000e+01 5.819999999961e-04 -2.265599999999e-02 -4.999999999999e+00 8.435130008877e-14 -5.000000000002e+00 -1.500000000000e+01 1.293333333331e-02 -7.473270049662e-16 1.293333333325e-02 -1.258666666665e-01 0.000000000000e+00 8.333333333333e+00 9.999999999996e+00  1.387999999998e-01
9.000000000000e+01 5.834999999964e-04 -2.266799999999e-02 -4.999999999999e+00 1.865274995831e-13 -5.000000000001e+00 -1.500000000000e+01 1.296666666664e-02 1.910097694886e-15 1.296666666659e-02 -1.259333333332e-01 0.000000000000e+00 8.333333333332e+00 9.999999999997e+00  1.388999999998e-01
9.100000000000e+01 5.849999999964e-04 -2.267999999999e-02 -4.999999999999e+00 1.236905299704e-13 -5.000000000001e+00 -1.500000000000e+01 1.299999999998e-02 2.782017599517e-16 1.299999999992e-02 -1.259999999999e-01 0.000000000000e+00 8.333333333332e+00 9.999999999997e+00  1.389999999998e-01
9.200000000000e+01 5.864999999962e-04 -2.269199999999e-02 -4.999999999999e+00 1.053190277853e-13 -5.000000000001e+00 -1.500000000000e+01 1.303333333331e-02 -1.982203915610e-16 1.303333333325e-02 -1.260666666666e-01 0.000000000000e+00 8.333333333332e+00 9.999999999997e+00  1.390999999998e-01
9.300000000000e+01 5.879999999965e-04 -2.270399999999e-02 -4.999999999999e+00 5.212064395103e-14 -5.000000000001e+00 -1.500000000000e+01 1.306666666664e-02 -1.580325180973e-15 1.306666666659e-02 -1.261333333332e-01 0.000000000000e+00 8.333333333332e+00 9.999999999997e+00  1.391999999998e-01
9.400000000000e+01 5.894999999963e-04 -2.271599999999e-02 -4.999999999999e+00 1.383420172320e-13 -5.000000000001e+00 -1.500000000000e+01 1.309999999998e-02 6.619517307712e-16 1.309999999992e-02 -1.261999999999e-01 0.000000000000e+00 8.333333333332e+00 9.999999999997e+00  1.392999999998e-01
9.500000000000e+01 5.909999999962e-04 -2.272799999999e-02 -4.999999999999e+00 3.542727409197e-13 -5.000000000002e+00 -1.500000000000e+01 1.313333333331e-02 6.277533966824e-15 1.313333333325e-02 -1.262666666666e-01 0.000000000000e+00 8.333333333333e+00 9.999999999997e+00  1.393999999998e-01
9.600000000000e+01 5.924999999956e-04 -2.273999999999e-02 -4.999999999999e+00 3.048475865144e-14 -5.000000000003e+00 -1.500000000000e+01 1.316666666665e-02 -2.137410844741e-15 1.316666666657e-02 -1.263333333332e-01 0.000000000000e+00 8.333333333333e+00 9.999999999996e+00  1.394999999998e-01
9.700000000000e+01 5.939999999959e-04 -2.275199999999e-02 -4.999999999999e+00 2.611663470257e-14 -5.000000000002e+00 -1.500000000000e+01 1.319999999998e-02 -2.250677219826e-15 1.319999999991e-02 -1.263999999999e-01 0.000000000000e+00 8.333333333333e+00 9.999999999996e+00  1.395999999998e-01
9.800000000000e+01 5.954999999969e-04 -2.276399999999e-02 -4.999999999999e+00 2.090711361484e-13 -5.000000000000e+00 -1.500000000000e+01 1.323333333331e-02 2.506400984113e-15 1.323333333327e-02 -1.264666666666e-01 0.000000000000e+00 8.333333333332e+00 9.999999999998e+00  1.396999999998e-01
9.900000000000e+01 5.969999999954e-04 -2.277599999999e-02 -4.999999999999e+00 1.909801304772e-14 -5.000000000003e+00 -1.500000000000e+01 1.326666666665e-02 -2.430809505143e-15 1.326666666657e-02 -1.265333333332e-01 0.000000000000e+00 8.333333333333e+00 9.999999999995e+00  1.397999999998e-01
1.000000000000e+02 5.984999999966e-04 -2.278799999999e-02 -4.999999999999e+00 8.560243124448e-14 -5.000000000001e+00 -1.500000000000e+01 1.329999999998e-02 -7.015036518969e-16 1.329999999992e-02 -1.265999999999e-01 0.000000000000e+00 8.333333333332e+00 9.999999999997e+00  1.398999999998e-01
