 TITLE = "Time curves in points"
 VARIABLES = "TIME "  "DISPLACEMENT_X1"  "DISPLACEMENT_Y1"  "STRESS_XX"  "STRESS_XY"  "STRESS_YY"  "STRESS_ZZ"  "STRAIN_XX"  "STRAIN_XY"  "STRAIN_YY"  "STRAIN_ZZ"  "STRAIN_PLS"  p_(1st_Invariant)  q_(2nd_Invariant)   Effective_Strain
 ZONE T="POINT=POINT2"
0.000000000000e+00 0.000000000000e+00 0.000000000000e+00 0.000000000000e+00 0.000000000000e+00 0.000000000000e+00 0.000000000000e+00 0.000000000000e+00 0.000000000000e+00 0.000000000000e+00 0.000000000000e+00 0.000000000000e+00 -0.000000000000e+00 0.000000000000e+00  0.000000000000e+00
1.000000000000e+00 4.499999986312e-04 -2.159999999750e-02 -4.999999999917e+00 -3.027356010108e-10 -5.000000002641e+00 -1.499999999905e+01 1.000000000589e-02 -7.871125626280e-12 9.999999970490e-03 -1.199999999828e-01 0.000000000000e+00 8.333333333869e+00 9.999999997769e+00  1.299999999710e-01
2.000000000000e+00 4.514999999959e-04 -2.161199999999e-02 -4.999999999999e+00 7.309018421081e-14 -5.000000000003e+00 -1.500000000000e+01 1.003333333332e-02 -1.127011217640e-15 1.003333333324e-02 -1.200666666666e-01 0.000000000000e+00 8.333333333333e+00 9.999999999996e+00  1.300999999998e-01
3.000000000000e+00 4.529999999965e-04 -2.162399999999e-02 -4.999999999999e+00 9.937069875529e-14 -5.000000000001e+00 -1.500000000000e+01 1.006666666665e-02 -4.429869376413e-16 1.006666666659e-02 -1.201333333332e-01 0.000000000000e+00 8.333333333333e+00 9.999999999997e+00  1.301999999998e-01
4.000000000000e+00 4.544999999966e-04 -2.163599999999e-02 -4.999999999999e+00 1.665781208752e-13 -5.000000000001e+00 -1.500000000000e+01 1.009999999998e-02 1.305399744463e-15 1.009999999993e-02 -1.201999999999e-01 0.000000000000e+00 8.333333333332e+00 9.999999999997e+00  1.302999999998e-01
5.000000000000e+00 4.559999999958e-04 -2.164799999999e-02 -4.999999999999e+00 3.131951459417e-14 -5.000000000003e+00 -1.500000000000e+01 1.013333333332e-02 -2.209658237634e-15 1.013333333324e-02 -1.202666666666e-01 0.000000000000e+00 8.333333333333e+00 9.999999999996e+00  1.303999999998e-01
6.000000000000e+00 4.574999999960e-04 -2.165999999999e-02 -4.999999999999e+00 6.731501296515e-14 -5.000000000002e+00 -1.500000000000e+01 1.016666666665e-02 -1.273462084843e-15 1.016666666658e-02 -1.203333333332e-01 0.000000000000e+00 8.333333333333e+00 9.999999999996e+00  1.304999999998e-01
7.000000000000e+00 4.589999999964e-04 -2.167199999999e-02 -4.999999999999e+00 1.366251105796e-14 -5.000000000002e+00 -1.500000000000e+01 1.019999999998e-02 -2.667753984300e-15 1.019999999992e-02 -1.203999999999e-01 0.000000000000e+00 8.333333333332e+00 9.999999999997e+00  1.305999999998e-01
8.000000000000e+00 4.604999999963e-04 -2.168399999999e-02 -4.999999999999e+00 9.752780899033e-14 -5.000000000002e+00 -1.500000000000e+01 1.023333333332e-02 -4.871196129478e-16 1.023333333325e-02 -1.204666666666e-01 0.000000000000e+00 8.333333333333e+00 9.999999999996e+00  1.306999999998e-01
9.000000000000e+00 4.619999999962e-04 -2.169599999999e-02 -4.999999999999e+00 8.795305480917e-14 -5.000000000002e+00 -1.500000000000e+01 1.026666666665e-02 -7.350879435679e-16 1.026666666658e-02 -1.205333333332e-01 0.000000000000e+00 8.333333333333e+00 9.999999999996e+00  1.307999999998e-01
1.000000000000e+01 4.634999999966e-04 -2.170799999999e-02 -4.999999999999e+00 1.236385192217e-13 -5.000000000001e+00 -1.500000000000e+01 1.029999999998e-02 1.936136617062e-16 1.029999999993e-02 -1.205999999999e-01 0.000000000000e+00 8.333333333332e+00 9.999999999997e+00  1.308999999998e-01
1.100000000000e+01 4.649999999960e-04 -2.171999999999e-02 -4.999999999999e+00 6.248040568143e-14 -5.000000000002e+00 -1.500000000000e+01 1.033333333332e-02 -1.395260905149e-15 1.033333333325e-02 -1.206666666666e-01 0.000000000000e+00 8.333333333333e+00 9.999999999996e+00  1.309999999998e-01
1.200000000000e+01 4.664999999967e-04 -2.173199999999e-02 -4.999999999999e+00 2.313383250308e-13 -5.000000000001e+00 -1.500000000000e+01 1.036666666665e-02 2.995669801991e-15 1.036666666659e-02 -1.207333333332e-01 0.000000000000e+00 8.333333333332e+00 9.999999999997e+00  1.310999999998e-01
1.300000000000e+01 4.679999999961e-04 -2.174399999999e-02 -4.999999999999e+00 9.464043970738e-14 -5.000000000002e+00 -1.500000000000e+01 1.039999999998e-02 -5.561618331671e-16 1.039999999991e-02 -1.207999999999e-01 0.000000000000e+00 8.333333333333e+00 9.999999999996e+00  1.311999999998e-01
1.400000000000e+01 4.694999999957e-04 -2.175599999999e-02 -4.999999999999e+00 2.857551910767e-14 -5.000000000003e+00 -1.500000000000e+01 1.043333333332e-02 -2.272903364362e-15 1.043333333324e-02 -1.208666666666e-01 0.000000000000e+00 8.333333333333e+00 9.999999999996e+00  1.312999999998e-01
1.500000000000e+01 4.709999999963e-04 -2.176799999999e-02 -4.999999999999e+00 1.034495385753e-13 -5.000000000002e+00 -1.500000000000e+01 1.046666666665e-02 -3.258931030129e-16 1.046666666658e-02 -1.209333333332e-01 0.000000000000e+00 8.333333333333e+00 9.999999999996e+00  1.313999999998e-01
1.600000000000e+01 4.724999999964e-04 -2.177999999999e-02 -4.999999999999e+00 1.012865210368e-13 -5.000000000002e+00 -1.500000000000e+01 1.049999999998e-02 -3.810970636286e-16 1.049999999992e-02 -1.209999999999e-01 0.000000000000e+00 8.333333333333e+00 9.999999999997e+00  1.314999999998e-01
1.700000000000e+01 4.739999999959e-04 -2.179199999999e-02 -4.999999999999e+00 5.893323020709e-14 -5.000000000003e+00 -1.500000000000e+01 1.053333333332e-02 -1.481269759990e-15 1.053333333324e-02 -1.210666666666e-01 0.000000000000e+00 8.333333333333e+00 9.999999999996e+00  1.315999999998e-01
1.800000000000e+01 4.754999999958e-04 -2.180399999999e-02 -4.999999999999e+00 4.717220724669e-14 -5.000000000003e+00 -1.500000000000e+01 1.056666666665e-02 -1.786467024659e-15 1.056666666658e-02 -1.211333333332e-01 0.000000000000e+00 8.333333333333e+00 9.999999999996e+00  1.316999999998e-01
1.900000000000e+01 4.769999999963e-04 -2.181599999999e-02 -4.999999999999e+00 1.159566391417e-13 -5.000000000002e+00 -1.500000000000e+01 1.059999999998e-02 2.399926683983e-18 1.059999999992e-02 -1.211999999999e-01 0.000000000000e+00 8.333333333333e+00 9.999999999996e+00  1.317999999998e-01
2.000000000000e+01 4.784999999968e-04 -2.182799999999e-02 -4.999999999999e+00 2.040239694899e-13 -5.000000000001e+00 -1.500000000000e+01 1.063333333331e-02 2.293310082128e-15 1.063333333326e-02 -1.212666666666e-01 0.000000000000e+00 8.333333333332e+00 9.999999999997e+00  1.318999999999e-01
2.100000000000e+01 4.799999999964e-04 -2.183999999999e-02 -4.999999999999e+00 1.134479773967e-13 -5.000000000002e+00 -1.500000000000e+01 1.066666666665e-02 -5.962547260030e-17 1.066666666659e-02 -1.213333333332e-01 0.000000000000e+00 8.333333333333e+00 9.999999999997e+00  1.319999999998e-01
2.200000000000e+01 4.814999999960e-04 -2.185199999999e-02 -4.999999999999e+00 6.029698495709e-14 -5.000000000002e+00 -1.500000000000e+01 1.069999999998e-02 -1.440416796256e-15 1.069999999991e-02 -1.213999999999e-01 0.000000000000e+00 8.333333333333e+00 9.999999999996e+00  1.320999999998e-01
2.300000000000e+01 4.829999999961e-04 -2.186399999999e-02 -4.999999999999e+00 5.921726137948e-14 -5.000000000002e+00 -1.500000000000e+01 1.073333333332e-02 -1.467886639424e-15 1.073333333325e-02 -1.214666666666e-01 0.000000000000e+00 8.333333333333e+00 9.999999999996e+00  1.321999999998e-01
2.400000000000e+01 4.844999999965e-04 -2.187599999999e-02 -4.999999999999e+00 1.310605398249e-13 -5.000000000001e+00 -1.500000000000e+01 1.076666666665e-02 4.006307727697e-16 1.076666666659e-02 -1.215333333332e-01 0.000000000000e+00 8.333333333332e+00 9.999999999997e+00  1.322999999998e-01
2.500000000000e+01 4.859999999961e-04 -2.188799999999e-02 -4.999999999999e+00 8.158827883268e-14 -5.000000000002e+00 -1.500000000000e+01 1.079999999998e-02 -8.843374076286e-16 1.079999999991e-02 -1.215999999999e-01 0.000000000000e+00 8.333333333333e+00 9.999999999996e+00  1.323999999998e-01
2.600000000000e+01 4.874999999963e-04 -2.189999999999e-02 -4.999999999999e+00 1.036217160631e-13 -5.000000000002e+00 -1.500000000000e+01 1.083333333331e-02 -3.106521568486e-16 1.083333333325e-02 -1.216666666666e-01 0.000000000000e+00 8.333333333333e+00 9.999999999996e+00  1.324999999998e-01
2.700000000000e+01 4.889999999959e-04 -2.191199999999e-02 -4.999999999999e+00 8.387800738757e-14 -5.000000000003e+00 -1.500000000000e+01 1.086666666665e-02 -8.229523652525e-16 1.086666666658e-02 -1.217333333332e-01 0.000000000000e+00 8.333333333333e+00 9.999999999996e+00  1.325999999998e-01
2.800000000000e+01 4.904999999959e-04 -2.192399999999e-02 -4.999999999999e+00 4.421329220140e-14 -5.000000000002e+00 -1.500000000000e+01 1.089999999998e-02 -1.853396180019e-15 1.089999999991e-02 -1.217999999999e-01 0.000000000000e+00 8.333333333333e+00 9.999999999996e+00  1.326999999998e-01
2.900000000000e+01 4.919999999967e-04 -2.193599999999e-02 -4.999999999999e+00 1.524329805323e-13 -5.000000000001e+00 -1.500000000000e+01 1.093333333331e-02 9.607578495074e-16 1.093333333326e-02 -1.218666666666e-01 0.000000000000e+00 8.333333333332e+00 9.999999999997e+00  1.327999999998e-01
3.000000000000e+01 4.934999999963e-04 -2.194799999999e-02 -4.999999999999e+00 1.992657923598e-13 -5.000000000002e+00 -1.500000000000e+01 1.096666666665e-02 2.179935286826e-15 1.096666666659e-02 -1.219333333332e-01 0.000000000000e+00 8.333333333333e+00 9.999999999997e+00  1.328999999998e-01
3.100000000000e+01 4.949999999961e-04 -2.195999999999e-02 -4.999999999999e+00 6.903949869370e-14 -5.000000000002e+00 -1.500000000000e+01 1.099999999998e-02 -1.203955690568e-15 1.099999999992e-02 -1.219999999999e-01 0.000000000000e+00 8.333333333333e+00 9.999999999996e+00  1.329999999998e-01
3.200000000000e+01 4.964999999965e-04 -2.197199999999e-02 -4.999999999999e+00 1.188272567315e-13 -5.000000000001e+00 -1.500000000000e+01 1.103333333331e-02 9.121641340130e-17 1.103333333326e-02 -1.220666666666e-01 0.000000000000e+00 8.333333333332e+00 9.999999999997e+00  1.330999999998e-01
3.300000000000e+01 4.979999999961e-04 -2.198399999999e-02 -4.999999999999e+00 3.377888736514e-14 -5.000000000002e+00 -1.500000000000e+01 1.106666666665e-02 -2.118852917557e-15 1.106666666658e-02 -1.221333333332e-01 0.000000000000e+00 8.333333333333e+00 9.999999999996e+00  1.331999999998e-01
3.400000000000e+01 4.994999999966e-04 -2.199599999999e-02 -4.999999999999e+00 1.414500628216e-13 -5.000000000001e+00 -1.500000000000e+01 1.109999999998e-02 6.809354331842e-16 1.109999999992e-02 -1.221999999999e-01 0.000000000000e+00 8.333333333332e+00 9.999999999997e+00  1.332999999998e-01
3.500000000000e+01 5.009999999956e-04 -2.200799999999e-02 -4.999999999999e+00 5.767379306737e-14 -5.000000000003e+00 -1.500000000000e+01 1.113333333332e-02 -1.495833079797e-15 1.113333333324e-02 -1.222666666665e-01 0.000000000000e+00 8.333333333333e+00 9.999999999995e+00  1.333999999998e-01
3.600000000000e+01 5.024999999965e-04 -2.201999999999e-02 -4.999999999999e+00 1.857338518609e-13 -5.000000000001e+00 -1.500000000000e+01 1.116666666665e-02 1.834305186765e-15 1.116666666659e-02 -1.223333333332e-01 0.000000000000e+00 8.333333333332e+00 9.999999999997e+00  1.334999999998e-01
3.700000000000e+01 5.039999999965e-04 -2.203199999999e-02 -4.999999999999e+00 1.272478093399e-13 -5.000000000001e+00 -1.500000000000e+01 1.119999999998e-02 3.155254197387e-16 1.119999999992e-02 -1.223999999999e-01 0.000000000000e+00 8.333333333332e+00 9.999999999997e+00  1.335999999998e-01
3.800000000000e+01 5.054999999960e-04 -2.204399999999e-02 -4.999999999999e+00 3.553183294566e-14 -5.000000000002e+00 -1.500000000000e+01 1.123333333331e-02 -2.067817488419e-15 1.123333333325e-02 -1.224666666666e-01 0.000000000000e+00 8.333333333333e+00 9.999999999996e+00  1.336999999998e-01
3.900000000000e+01 5.069999999963e-04 -2.205599999999e-02 -4.999999999999e+00 9.870895316300e-14 -5.000000000002e+00 -1.500000000000e+01 1.126666666665e-02 -4.248570444383e-16 1.126666666659e-02 -1.225333333332e-01 0.000000000000e+00 8.333333333333e+00 9.999999999997e+00  1.337999999998e-01
4.000000000000e+01 5.084999999965e-04 -2.206799999999e-02 -4.999999999999e+00 1.274340986280e-13 -5.000000000001e+00 -1.500000000000e+01 1.129999999998e-02 3.229838271836e-16 1.129999999992e-02 -1.225999999999e-01 0.000000000000e+00 8.333333333332e+00 9.999999999997e+00  1.338999999998e-01
4.100000000000e+01 5.099999999965e-04 -2.207999999999e-02 -4.999999999999e+00 1.214373504703e-13 -5.000000000001e+00 -1.500000000000e+01 1.133333333331e-02 1.683427160692e-16 1.133333333326e-02 -1.226666666666e-01 0.000000000000e+00 8.333333333332e+00 9.999999999997e+00  1.339999999998e-01
4.200000000000e+01 5.114999999959e-04 -2.209199999999e-02 -4.999999999999e+00 6.702068485245e-14 -5.000000000002e+00 -1.500000000000e+01 1.136666666665e-02 -1.245276216490e-15 1.136666666658e-02 -1.227333333332e-01 0.000000000000e+00 8.333333333333e+00 9.999999999996e+00  1.340999999998e-01
4.300000000000e+01 5.129999999959e-04 -2.210399999999e-02 -4.999999999999e+00 6.505846003578e-14 -5.000000000002e+00 -1.500000000000e+01 1.139999999998e-02 -1.295623854875e-15 1.139999999991e-02 -1.227999999999e-01 0.000000000000e+00 8.333333333333e+00 9.999999999996e+00  1.341999999998e-01
4.400000000000e+01 5.144999999962e-04 -2.211599999999e-02 -4.999999999999e+00 7.738378604834e-14 -5.000000000002e+00 -1.500000000000e+01 1.143333333331e-02 -9.745147939478e-16 1.143333333325e-02 -1.228666666666e-01 0.000000000000e+00 8.333333333333e+00 9.999999999996e+00  1.342999999998e-01
4.500000000000e+01 5.159999999959e-04 -2.212799999999e-02 -4.999999999999e+00 6.064432175891e-14 -5.000000000002e+00 -1.500000000000e+01 1.146666666665e-02 -1.408967027613e-15 1.146666666658e-02 -1.229333333332e-01 0.000000000000e+00 8.333333333333e+00 9.999999999996e+00  1.343999999998e-01
4.600000000000e+01 5.174999999959e-04 -2.213999999999e-02 -4.999999999999e+00 5.200315350164e-14 -5.000000000002e+00 -1.500000000000e+01 1.149999999998e-02 -1.633030959084e-15 1.149999999991e-02 -1.229999999999e-01 0.000000000000e+00 8.333333333333e+00 9.999999999996e+00  1.344999999998e-01
4.700000000000e+01 5.189999999969e-04 -2.215199999999e-02 -4.999999999999e+00 1.715531900039e-13 -5.000000000000e+00 -1.500000000000e+01 1.153333333331e-02 1.475790021510e-15 1.153333333326e-02 -1.230666666666e-01 0.000000000000e+00 8.333333333332e+00 9.999999999998e+00  1.345999999998e-01
4.800000000000e+01 5.204999999961e-04 -2.216399999999e-02 -4.999999999999e+00 1.190664673440e-13 -5.000000000002e+00 -1.500000000000e+01 1.156666666665e-02 1.128507642514e-16 1.156666666658e-02 -1.231333333332e-01 0.000000000000e+00 8.333333333333e+00 9.999999999996e+00  1.346999999998e-01
4.900000000000e+01 5.219999999962e-04 -2.217599999999e-02 -4.999999999999e+00 1.034982073830e-13 -5.000000000002e+00 -1.500000000000e+01 1.159999999998e-02 -2.907333300609e-16 1.159999999992e-02 -1.231999999999e-01 0.000000000000e+00 8.333333333333e+00 9.999999999997e+00  1.347999999998e-01
5.000000000000e+01 5.234999999961e-04 -2.218799999999e-02 -4.999999999999e+00 7.736735309982e-14 -5.000000000002e+00 -1.500000000000e+01 1.163333333331e-02 -9.691005593490e-16 1.163333333325e-02 -1.232666666666e-01 0.000000000000e+00 8.333333333333e+00 9.999999999996e+00  1.348999999998e-01
5.100000000000e+01 5.249999999958e-04 -2.219999999999e-02 -4.999999999999e+00 -4.330496905551e-15 -5.000000000003e+00 -1.500000000000e+01 1.166666666665e-02 -3.092470985958e-15 1.166666666657e-02 -1.233333333332e-01 0.000000000000e+00 8.333333333333e+00 9.999999999996e+00  1.349999999998e-01
5.200000000000e+01 5.264999999958e-04 -2.221199999999e-02 -4.999999999999e+00 2.834010006852e-14 -5.000000000003e+00 -1.500000000000e+01 1.169999999998e-02 -2.243078769601e-15 1.169999999991e-02 -1.233999999999e-01 0.000000000000e+00 8.333333333333e+00 9.999999999996e+00  1.350999999998e-01
5.300000000000e+01 5.279999999964e-04 -2.222399999999e-02 -4.999999999999e+00 1.325996942760e-13 -5.000000000001e+00 -1.500000000000e+01 1.173333333331e-02 4.679540807947e-16 1.173333333325e-02 -1.234666666666e-01 0.000000000000e+00 8.333333333332e+00 9.999999999997e+00  1.351999999998e-01
5.400000000000e+01 5.294999999957e-04 -2.223599999999e-02 -4.999999999999e+00 5.082148250654e-14 -5.000000000003e+00 -1.500000000000e+01 1.176666666665e-02 -1.656953428269e-15 1.176666666657e-02 -1.235333333332e-01 0.000000000000e+00 8.333333333333e+00 9.999999999996e+00  1.352999999998e-01
5.500000000000e+01 5.309999999962e-04 -2.224799999999e-02 -4.999999999999e+00 3.095208788308e-14 -5.000000000002e+00 -1.500000000000e+01 1.179999999998e-02 -2.173049473654e-15 1.179999999992e-02 -1.235999999999e-01 0.000000000000e+00 8.333333333332e+00 9.999999999997e+00  1.353999999998e-01
5.600000000000e+01 5.324999999967e-04 -2.225999999999e-02 -4.999999999999e+00 1.762575466031e-13 -5.000000000001e+00 -1.500000000000e+01 1.183333333331e-02 1.605201973946e-15 1.183333333326e-02 -1.236666666666e-01 0.000000000000e+00 8.333333333332e+00 9.999999999997e+00  1.354999999998e-01
5.700000000000e+01 5.339999999962e-04 -2.227199999999e-02 -4.999999999999e+00 9.572457900581e-14 -5.000000000002e+00 -1.500000000000e+01 1.186666666665e-02 -4.868926081179e-16 1.186666666658e-02 -1.237333333332e-01 0.000000000000e+00 8.333333333333e+00 9.999999999996e+00  1.355999999998e-01
5.800000000000e+01 5.354999999964e-04 -2.228399999999e-02 -4.999999999999e+00 1.223350274424e-13 -5.000000000001e+00 -1.500000000000e+01 1.189999999998e-02 2.059362970229e-16 1.189999999992e-02 -1.237999999999e-01 0.000000000000e+00 8.333333333332e+00 9.999999999997e+00  1.356999999998e-01
5.900000000000e+01 5.369999999960e-04 -2.229599999999e-02 -4.999999999999e+00 8.079539330490e-14 -5.000000000002e+00 -1.500000000000e+01 1.193333333331e-02 -8.728708402773e-16 1.193333333325e-02 -1.238666666666e-01 0.000000000000e+00 8.333333333333e+00 9.999999999996e+00  1.357999999998e-01
6.000000000000e+01 5.384999999963e-04 -2.230799999999e-02 -4.999999999999e+00 9.778438100782e-14 -5.000000000002e+00 -1.500000000000e+01 1.196666666665e-02 -4.303492060683e-16 1.196666666658e-02 -1.239333333332e-01 0.000000000000e+00 8.333333333333e+00 9.999999999997e+00  1.358999999998e-01
6.100000000000e+01 5.399999999960e-04 -2.231999999999e-02 -4.999999999999e+00 8.111395486476e-14 -5.000000000002e+00 -1.500000000000e+01 1.199999999998e-02 -8.628024419776e-16 1.199999999991e-02 -1.239999999999e-01 0.000000000000e+00 8.333333333333e+00 9.999999999996e+00  1.359999999998e-01
6.200000000000e+01 5.414999999967e-04 -2.233199999999e-02 -4.999999999999e+00 1.503706604014e-13 -5.000000000001e+00 -1.500000000000e+01 1.203333333331e-02 9.386830415246e-16 1.203333333326e-02 -1.240666666666e-01 0.000000000000e+00 8.333333333332e+00 9.999999999997e+00  1.360999999998e-01
6.300000000000e+01 5.429999999962e-04 -2.234399999999e-02 -4.999999999999e+00 7.180655416150e-14 -5.000000000002e+00 -1.500000000000e+01 1.206666666665e-02 -1.102480014110e-15 1.206666666658e-02 -1.241333333332e-01 0.000000000000e+00 8.333333333332e+00 9.999999999996e+00  1.361999999998e-01
6.400000000000e+01 5.444999999968e-04 -2.235599999999e-02 -4.999999999999e+00 1.661476587862e-13 -5.000000000001e+00 -1.500000000000e+01 1.209999999998e-02 1.351106771675e-15 1.209999999993e-02 -1.241999999999e-01 0.000000000000e+00 8.333333333332e+00 9.999999999997e+00  1.362999999998e-01
6.500000000000e+01 5.459999999973e-04 -2.236799999999e-02 -4.999999999999e+00 2.393351651191e-13 -5.000000000000e+00 -1.500000000000e+01 1.213333333331e-02 3.255643412917e-15 1.213333333327e-02 -1.242666666666e-01 0.000000000000e+00 8.333333333332e+00 9.999999999998e+00  1.363999999999e-01
6.600000000000e+01 5.474999999967e-04 -2.237999999999e-02 -4.999999999999e+00 1.731531719538e-13 -5.000000000001e+00 -1.500000000000e+01 1.216666666664e-02 1.537304942272e-15 1.216666666659e-02 -1.243333333332e-01 0.000000000000e+00 8.333333333332e+00 9.999999999997e+00  1.364999999998e-01
6.700000000000e+01 5.489999999965e-04 -2.239199999999e-02 -4.999999999999e+00 1.508430115717e-13 -5.000000000001e+00 -1.500000000000e+01 1.219999999998e-02 9.589723040545e-16 1.219999999992e-02 -1.243999999999e-01 0.000000000000e+00 8.333333333332e+00 9.999999999997e+00  1.365999999998e-01
6.800000000000e+01 5.504999999961e-04 -2.240399999999e-02 -4.999999999999e+00 8.865299990587e-14 -5.000000000002e+00 -1.500000000000e+01 1.223333333331e-02 -6.564595691401e-16 1.223333333325e-02 -1.244666666666e-01 0.000000000000e+00 8.333333333333e+00 9.999999999997e+00  1.366999999998e-01
6.900000000000e+01 5.519999999966e-04 -2.241599999999e-02 -4.999999999999e+00 2.448008318000e-13 -5.000000000001e+00 -1.500000000000e+01 1.226666666664e-02 3.404270590106e-15 1.226666666659e-02 -1.245333333332e-01 0.000000000000e+00 8.333333333332e+00 9.999999999997e+00  1.367999999998e-01
7.000000000000e+01 5.534999999963e-04 -2.242799999999e-02 -4.999999999999e+00 1.298420165347e-13 -5.000000000001e+00 -1.500000000000e+01 1.229999999998e-02 4.177894015266e-16 1.229999999992e-02 -1.245999999999e-01 0.000000000000e+00 8.333333333333e+00 9.999999999997e+00  1.368999999998e-01
7.100000000000e+01 5.549999999961e-04 -2.243999999999e-02 -4.999999999999e+00 9.167646342287e-14 -5.000000000002e+00 -1.500000000000e+01 1.233333333331e-02 -5.732165592157e-16 1.233333333325e-02 -1.246666666666e-01 0.000000000000e+00 8.333333333333e+00 9.999999999996e+00  1.369999999998e-01
7.200000000000e+01 5.564999999964e-04 -2.245199999999e-02 -4.999999999999e+00 1.108712402146e-13 -5.000000000001e+00 -1.500000000000e+01 1.236666666664e-02 -7.323559799677e-17 1.236666666659e-02 -1.247333333332e-01 0.000000000000e+00 8.333333333332e+00 9.999999999997e+00  1.370999999998e-01
7.300000000000e+01 5.579999999958e-04 -2.246399999999e-02 -4.999999999999e+00 5.866557196999e-14 -5.000000000002e+00 -1.500000000000e+01 1.239999999998e-02 -1.429474259954e-15 1.239999999991e-02 -1.247999999999e-01 0.000000000000e+00 8.333333333333e+00 9.999999999996e+00  1.371999999998e-01
7.400000000000e+01 5.594999999958e-04 -2.247599999999e-02 -4.999999999999e+00 6.861128295004e-14 -5.000000000002e+00 -1.500000000000e+01 1.243333333331e-02 -1.170299118753e-15 1.243333333324e-02 -1.248666666665e-01 0.000000000000e+00 8.333333333333e+00 9.999999999996e+00  1.372999999998e-01
7.500000000000e+01 5.609999999965e-04 -2.248799999999e-02 -4.999999999999e+00 1.463702317335e-13 -5.000000000001e+00 -1.500000000000e+01 1.246666666664e-02 8.521196624470e-16 1.246666666659e-02 -1.249333333332e-01 0.000000000000e+00 8.333333333332e+00 9.999999999997e+00  1.373999999998e-01
7.600000000000e+01 5.624999999962e-04 -2.249999999999e-02 -4.999999999999e+00 9.935143170127e-14 -5.000000000002e+00 -1.500000000000e+01 1.249999999998e-02 -3.689054360744e-16 1.249999999992e-02 -1.249999999999e-01 0.000000000000e+00 8.333333333333e+00 9.999999999997e+00  1.374999999998e-01
7.700000000000e+01 5.639999999955e-04 -2.251199999999e-02 -4.999999999999e+00 2.412036738091e-14 -5.000000000003e+00 -1.500000000000e+01 1.253333333331e-02 -2.323919594087e-15 1.253333333324e-02 -1.250666666665e-01 0.000000000000e+00 8.333333333333e+00 9.999999999996e+00  1.375999999998e-01
7.800000000000e+01 5.654999999968e-04 -2.252399999999e-02 -4.999999999999e+00 2.023796425247e-13 -5.000000000000e+00 -1.500000000000e+01 1.256666666664e-02 2.311062763325e-15 1.256666666660e-02 -1.251333333332e-01 0.000000000000e+00 8.333333333332e+00 9.999999999998e+00  1.376999999998e-01
7.900000000000e+01 5.669999999959e-04 -2.253599999999e-02 -4.999999999999e+00 6.078344875621e-14 -5.000000000002e+00 -1.500000000000e+01 1.259999999998e-02 -1.368414478230e-15 1.259999999991e-02 -1.251999999999e-01 0.000000000000e+00 8.333333333333e+00 9.999999999996e+00  1.377999999998e-01
8.000000000000e+01 5.684999999960e-04 -2.254799999999e-02 -4.999999999999e+00 9.964609342512e-14 -5.000000000002e+00 -1.500000000000e+01 1.263333333331e-02 -3.573778823509e-16 1.263333333324e-02 -1.252666666665e-01 0.000000000000e+00 8.333333333333e+00 9.999999999996e+00  1.378999999998e-01
8.100000000000e+01 5.699999999962e-04 -2.255999999999e-02 -4.999999999999e+00 5.228182192453e-14 -5.000000000001e+00 -1.500000000000e+01 1.266666666664e-02 -1.587852480432e-15 1.266666666658e-02 -1.253333333332e-01 0.000000000000e+00 8.333333333332e+00 9.999999999997e+00  1.379999999998e-01
8.200000000000e+01 5.714999999959e-04 -2.257199999999e-02 -4.999999999999e+00 6.955039442392e-14 -5.000000000002e+00 -1.500000000000e+01 1.269999999998e-02 -1.138346777228e-15 1.269999999991e-02 -1.253999999999e-01 0.000000000000e+00 8.333333333333e+00 9.999999999996e+00  1.380999999998e-01
8.300000000000e+01 5.729999999963e-04 -2.258399999999e-02 -4.999999999999e+00 1.132473981343e-13 -5.000000000001e+00 -1.500000000000e+01 1.273333333331e-02 -1.529176814002e-18 1.273333333325e-02 -1.254666666666e-01 0.000000000000e+00 8.333333333332e+00 9.999999999997e+00  1.381999999998e-01
8.400000000000e+01 5.744999999960e-04 -2.259599999999e-02 -4.999999999999e+00 6.956479087536e-14 -5.000000000002e+00 -1.500000000000e+01 1.276666666665e-02 -1.136144491566e-15 1.276666666658e-02 -1.255333333332e-01 0.000000000000e+00 8.333333333333e+00 9.999999999996e+00  1.382999999998e-01
8.500000000000e+01 5.759999999971e-04 -2.260799999999e-02 -4.999999999999e+00 2.223919502198e-13 -5.000000000000e+00 -1.500000000000e+01 1.279999999997e-02 2.838057299298e-15 1.279999999994e-02 -1.255999999999e-01 0.000000000000e+00 8.333333333332e+00 9.999999999998e+00  1.383999999999e-01
8.600000000000e+01 5.774999999958e-04 -2.261999999999e-02 -4.999999999999e+00 6.823811520025e-14 -5.000000000002e+00 -1.500000000000e+01 1.283333333331e-02 -1.167718491707e-15 1.283333333324e-02 -1.256666666665e-01 0.000000000000e+00 8.333333333333e+00 9.999999999996e+00  1.384999999998e-01
8.700000000000e+01 5.789999999962e-04 -2.263199999999e-02 -4.999999999999e+00 9.818402201595e-14 -5.000000000002e+00 -1.500000000000e+01 1.286666666664e-02 -3.884425333471e-16 1.286666666658e-02 -1.257333333332e-01 0.000000000000e+00 8.333333333332e+00 9.999999999997e+00  1.385999999998e-01
8.800000000000e+01 5.804999999960e-04 -2.264399999999e-02 -4.999999999999e+00 8.271696738890e-14 -5.000000000002e+00 -1.500000000000e+01 1.289999999998e-02 -7.896041134304e-16 1.289999999991e-02 -1.257999999999e-01 0.000000000000e+00 8.333333333333e+00 9.999999999996e+00  1.386999999998e-01
8.900000000000e+01 5.819999999960e-04 -2.265599999999e-02 -4.999999999999e+00 7.132122883755e-14 -5.000000000002e+00 -1.500000000000e+01 1.293333333331e-02 -1.085066146092e-15 1.293333333325e-02 -1.258666666665e-01 0.000000000000e+00 8.333333333333e+00 9.999999999996e+00  1.387999999998e-01
9.000000000000e+01 5.834999999962e-04 -2.266799999999e-02 -4.999999999999e+00 1.275620225314e-13 -5.000000000001e+00 -1.500000000000e+01 1.296666666664e-02 3.779077022381e-16 1.296666666658e-02 -1.259333333332e-01 0.000000000000e+00 8.333333333333e+00 9.999999999997e+00  1.388999999998e-01
9.100000000000e+01 5.849999999963e-04 -2.267999999999e-02 -4.999999999999e+00 1.233088099160e-13 -5.000000000001e+00 -1.500000000000e+01 1.299999999998e-02 2.685997944607e-16 1.299999999992e-02 -1.259999999999e-01 0.000000000000e+00 8.333333333333e+00 9.999999999997e+00  1.389999999998e-01
9.200000000000e+01 5.864999999963e-04 -2.269199999999e-02 -4.999999999999e+00 1.062712490939e-13 -5.000000000001e+00 -1.500000000000e+01 1.303333333331e-02 -1.731436988140e-16 1.303333333325e-02 -1.260666666666e-01 0.000000000000e+00 8.333333333332e+00 9.999999999997e+00  1.390999999998e-01
9.300000000000e+01 5.879999999963e-04 -2.270399999999e-02 -4.999999999999e+00 1.055283372548e-13 -5.000000000001e+00 -1.500000000000e+01 1.306666666664e-02 -1.913966941387e-16 1.306666666659e-02 -1.261333333332e-01 0.000000000000e+00 8.333333333332e+00 9.999999999997e+00  1.391999999998e-01
9.400000000000e+01 5.894999999961e-04 -2.271599999999e-02 -4.999999999999e+00 6.198044506692e-14 -5.000000000002e+00 -1.500000000000e+01 1.309999999998e-02 -1.322586607652e-15 1.309999999991e-02 -1.261999999999e-01 0.000000000000e+00 8.333333333333e+00 9.999999999997e+00  1.392999999998e-01
9.500000000000e+01 5.909999999957e-04 -2.272799999999e-02 -4.999999999999e+00 1.707554494063e-14 -5.000000000003e+00 -1.500000000000e+01 1.313333333331e-02 -2.489494206484e-15 1.313333333324e-02 -1.262666666665e-01 0.000000000000e+00 8.333333333333e+00 9.999999999996e+00  1.393999999998e-01
9.600000000000e+01 5.924999999963e-04 -2.273999999999e-02 -4.999999999999e+00 1.210978283726e-13 -5.000000000001e+00 -1.500000000000e+01 1.316666666664e-02 2.152559181972e-16 1.316666666659e-02 -1.263333333332e-01 0.000000000000e+00 8.333333333332e+00 9.999999999997e+00  1.394999999998e-01
9.700000000000e+01 5.939999999960e-04 -2.275199999999e-02 -4.999999999999e+00 4.470908493810e-14 -5.000000000002e+00 -1.500000000000e+01 1.319999999998e-02 -1.769640432817e-15 1.319999999991e-02 -1.263999999999e-01 0.000000000000e+00 8.333333333333e+00 9.999999999996e+00  1.395999999998e-01
9.800000000000e+01 5.954999999961e-04 -2.276399999999e-02 -4.999999999999e+00 1.090769050236e-13 -5.000000000002e+00 -1.500000000000e+01 1.323333333331e-02 -9.563001974492e-17 1.323333333325e-02 -1.264666666665e-01 0.000000000000e+00 8.333333333333e+00 9.999999999996e+00  1.396999999998e-01
9.900000000000e+01 5.969999999959e-04 -2.277599999999e-02 -4.999999999999e+00 1.349314426958e-13 -5.000000000002e+00 -1.500000000000e+01 1.326666666664e-02 5.776787287821e-16 1.326666666658e-02 -1.265333333332e-01 0.000000000000e+00 8.333333333333e+00 9.999999999996e+00  1.397999999998e-01
1.000000000000e+02 5.984999999957e-04 -2.278799999999e-02 -4.999999999999e+00 5.807246614627e-14 -5.000000000002e+00 -1.500000000000e+01 1.329999999998e-02 -1.419305347078e-15 1.329999999991e-02 -1.265999999999e-01 0.000000000000e+00 8.333333333333e+00 9.999999999996e+00  1.398999999998e-01
