 TITLE = "Time curves in points"
 VARIABLES = "TIME "  "DISPLACEMENT_X1"  "DISPLACEMENT_Y1"  "TEMPERATURE1"  "STRESS_XX"  "STRESS_XY"  "STRESS_YY"  "STRESS_ZZ"  "STRAIN_XX"  "STRAIN_XY"  "STRAIN_YY"  "STRAIN_ZZ"  p_(1st_Invariant)  q_(2nd_Invariant)   Effective_Strain
 ZONE T="POINT=POINT1"
0.000000000000e+00 0.000000000000e+00 0.000000000000e+00 1.000000000000e+02 0.000000000000e+00 0.000000000000e+00 0.000000000000e+00 0.000000000000e+00 0.000000000000e+00 0.000000000000e+00 0.000000000000e+00 0.000000000000e+00 -0.000000000000e+00 0.000000000000e+00  0.000000000000e+00
1.000000000000e-01 -3.799326308934e-18 5.000000000104e-05 1.000000000000e+02 4.101893269493e-10 6.437201402571e-11 3.306698248551e-10 -5.000000000304e+00 5.400000001612e-05 6.540196625012e-15 5.400000001208e-05 -2.000000000202e-04 1.666666666521e+00 5.000000000674e+00  2.540000000343e-04
2.000000000000e-01 -1.119941988831e-18 5.038827464763e-05 1.000000000000e+02 3.131823128379e-11 4.105361841678e-12 2.272773578134e-11 -5.000000000018e+00 5.477654930027e-05 4.470975885344e-16 5.477654929979e-05 -2.015530985994e-04 1.666666666654e+00 5.000000000045e+00  2.563296478994e-04
3.000000000000e-01 -1.083291195581e-18 5.077654929680e-05 1.000000000000e+02 7.223693605091e-11 2.336938124289e-12 6.586843281457e-11 -4.999999999999e+00 5.555309859980e-05 2.693385483628e-16 5.555309859943e-05 -2.031061971967e-04 1.666666666620e+00 5.000000000068e+00  2.586592957963e-04
4.000000000000e-01 -1.150733437741e-18 5.116482394603e-05 1.000000000000e+02 3.209231722960e-11 4.370236944241e-12 2.291625801158e-11 -5.000000000023e+00 5.632964789750e-05 4.770105570667e-16 5.632964789699e-05 -2.046592957939e-04 1.666666666656e+00 5.000000000050e+00  2.609889436911e-04
5.000000000000e-01 -1.143004135125e-18 5.155309859521e-05 1.000000000000e+02 6.684858424912e-11 3.092773860835e-12 5.921889309942e-11 -5.000000000009e+00 5.710619719691e-05 3.492565304527e-16 5.710619719647e-05 -2.062123943912e-04 1.666666666628e+00 5.000000000072e+00  2.633185915879e-04
6.000000000000e-01 -1.335038370154e-18 5.194137324444e-05 1.000000000000e+02 5.858994423884e-12 5.333594937265e-12 -5.074165913832e-12 -5.000000000032e+00 5.788274649400e-05 5.783649666414e-16 5.788274649339e-05 -2.077654929880e-04 1.666666666677e+00 5.000000000032e+00  2.656482394816e-04
7.000000000000e-01 -1.272447922705e-18 5.232964789361e-05 1.000000000000e+02 6.192172671606e-11 2.757602971704e-12 5.425334573955e-11 -5.000000000005e+00 5.865929579386e-05 3.191292625848e-16 5.865929579342e-05 -2.093185915852e-04 1.666666666630e+00 5.000000000063e+00  2.679778873789e-04
8.000000000000e-01 -1.285205296289e-18 5.271792254280e-05 1.000000000000e+02 7.339245241637e-11 2.726719769301e-12 6.574096157499e-11 -5.000000000004e+00 5.943584509276e-05 3.172763780127e-16 5.943584509231e-05 -2.108716901826e-04 1.666666666622e+00 5.000000000073e+00  2.703075352751e-04
9.000000000000e-01 -1.358550449665e-18 5.310619719202e-05 1.000000000000e+02 4.049796782646e-11 3.758024953361e-12 3.129811369564e-11 -5.000000000017e+00 6.021239439054e-05 4.233274441077e-16 6.021239439001e-05 -2.124247887795e-04 1.666666666648e+00 5.000000000053e+00  2.726371831698e-04
1.000000000000e+00 -1.354407627230e-18 5.349447184119e-05 1.000000000000e+02 7.677424436932e-11 2.531023366035e-12 6.915125416729e-11 -5.000000000002e+00 6.098894368999e-05 3.004150578203e-16 6.098894368954e-05 -2.139778873769e-04 1.666666666619e+00 5.000000000075e+00  2.749668310666e-04
1.100000000000e+00 -1.423401562130e-18 5.388274649041e-05 1.000000000000e+02 3.894435497467e-11 4.180838904671e-12 2.899732681981e-11 -5.000000000021e+00 6.176549298772e-05 4.692155951974e-16 6.176549298714e-05 -2.155309859740e-04 1.666666666651e+00 5.000000000055e+00  2.772964789614e-04
1.200000000000e+00 -1.588283268556e-18 5.427102113966e-05 1.000000000000e+02 -2.819476770111e-11 5.561043259394e-12 -4.073608204230e-11 -5.000000000042e+00 6.254204228458e-05 6.113923341486e-16 6.254204228387e-05 -2.170840845705e-04 1.666666666704e+00 5.000000000008e+00  2.796261268547e-04
1.300000000000e+00 -1.473809176585e-18 5.465929578879e-05 1.000000000000e+02 7.414005376063e-11 1.721355283112e-12 6.684192638042e-11 -4.999999999998e+00 6.331859158556e-05 2.238710903036e-16 6.331859158511e-05 -2.186371831680e-04 1.666666666619e+00 5.000000000068e+00  2.819557747534e-04
1.400000000000e+00 -1.597150866852e-18 5.504757043802e-05 1.000000000000e+02 2.369847663016e-11 3.990465367971e-12 1.327477913473e-11 -5.000000000021e+00 6.409514088296e-05 4.552147052679e-16 6.409514088235e-05 -2.201902817650e-04 1.666666666661e+00 5.000000000040e+00  2.842854226477e-04
1.500000000000e+00 -1.528847123249e-18 5.543584508718e-05 1.000000000000e+02 7.753474887591e-11 1.399750247235e-12 7.045813151668e-11 -4.999999999995e+00 6.487169018277e-05 1.938573248506e-16 6.487169018232e-05 -2.217433803623e-04 1.666666666616e+00 5.000000000069e+00  2.866150705448e-04
1.600000000000e+00 -1.706230268833e-18 5.582411973645e-05 1.000000000000e+02 -1.571535667803e-11 5.450699510858e-12 -2.843545104242e-11 -5.000000000040e+00 6.564823947919e-05 6.060859550783e-16 6.564823947845e-05 -2.232964789592e-04 1.666666666695e+00 5.000000000018e+00  2.889447184380e-04
1.700000000000e+00 -1.674917475292e-18 5.621239438560e-05 1.000000000000e+02 4.646792788517e-11 3.763027101483e-12 3.601179655403e-11 -5.000000000019e+00 6.642478877929e-05 4.371580804148e-16 6.642478877866e-05 -2.248495775568e-04 1.666666666646e+00 5.000000000060e+00  2.912743663358e-04
1.800000000000e+00 -1.700721222679e-18 5.660066903477e-05 1.000000000000e+02 7.112236349629e-11 -7.807316733691e-13 6.578131586897e-11 -4.999999999977e+00 6.720133807807e-05 -2.273450547647e-17 6.720133807770e-05 -2.264026761528e-04 1.666666666613e+00 5.000000000045e+00  2.936040142307e-04
1.900000000000e+00 -1.776582119552e-18 5.698894368404e-05 1.000000000000e+02 -1.521964123017e-11 5.221701104286e-12 -2.793283746666e-11 -5.000000000040e+00 6.797788737488e-05 5.867488987533e-16 6.797788737413e-05 -2.279557747505e-04 1.666666666694e+00 5.000000000018e+00  2.959336621250e-04
2.000000000000e+00 -1.790952255576e-18 5.737721833321e-05 1.000000000000e+02 1.660166448758e-11 3.963337665644e-12 5.379939838531e-12 -5.000000000026e+00 6.875443667418e-05 4.613321183852e-16 6.875443667350e-05 -2.295088733477e-04 1.666666666668e+00 5.000000000037e+00  2.982633100216e-04
2.100000000000e+00 -1.858725280993e-18 5.776549298241e-05 1.000000000000e+02 2.563130234677e-11 3.971305361510e-12 1.431282060464e-11 -5.000000000023e+00 6.953098597297e-05 4.639882725356e-16 6.953098597228e-05 -2.310619719449e-04 1.666666666661e+00 5.000000000043e+00  3.005929579176e-04
2.200000000000e+00 -1.943363140140e-18 5.815376763163e-05 1.000000000000e+02 -4.515382281041e-12 4.672455729849e-12 -1.721662077949e-11 -5.000000000034e+00 7.030753527080e-05 5.370754985945e-16 7.030753527003e-05 -2.326150705419e-04 1.666666666685e+00 5.000000000024e+00  3.029226058123e-04
2.300000000000e+00 -1.952297197507e-18 5.854204228080e-05 1.000000000000e+02 3.168308757712e-11 3.874025552528e-12 2.007135169874e-11 -5.000000000023e+00 7.108408457026e-05 4.581320279104e-16 7.108408456954e-05 -2.341681691393e-04 1.666666666657e+00 5.000000000049e+00  3.052522537092e-04
2.400000000000e+00 -2.017054091137e-18 5.893031693002e-05 1.000000000000e+02 -4.616091363318e-12 4.319968431111e-12 -1.737153360974e-11 -5.000000000035e+00 7.186063386791e-05 5.052448474697e-16 7.186063386713e-05 -2.357212677361e-04 1.666666666686e+00 5.000000000024e+00  3.075819016036e-04
2.500000000000e+00 -1.961980748775e-18 5.931859157916e-05 1.000000000000e+02 8.096226438113e-11 1.188100545943e-12 7.242239765069e-11 -4.999999999996e+00 7.263718316850e-05 1.890598714095e-16 7.263718316792e-05 -2.372743663335e-04 1.666666666614e+00 5.000000000073e+00  3.099115495017e-04
2.600000000000e+00 -2.027964164433e-18 5.970686622838e-05 1.000000000000e+02 5.560633550839e-11 3.108223570182e-12 4.474206450935e-11 -5.000000000014e+00 7.341373246656e-05 3.846979418596e-16 7.341373246586e-05 -2.388274649308e-04 1.666666666638e+00 5.000000000064e+00  3.122411973971e-04
2.700000000000e+00 -2.129295397817e-18 6.009514087761e-05 1.000000000000e+02 1.452536528557e-11 4.083611339793e-12 1.980525118906e-12 -5.000000000028e+00 7.419028176411e-05 4.852455525520e-16 7.419028176332e-05 -2.403805635276e-04 1.666666666671e+00 5.000000000036e+00  3.145708452914e-04
2.800000000000e+00 -2.068927803743e-18 6.048341552677e-05 1.000000000000e+02 6.850253524149e-11 2.226004315572e-12 5.848790520189e-11 -5.000000000007e+00 7.496683106399e-05 2.984153542040e-16 7.496683106332e-05 -2.419336621251e-04 1.666666666627e+00 5.000000000071e+00  3.169004931888e-04
2.900000000000e+00 -2.186071368855e-18 6.087169017601e-05 1.000000000000e+02 1.561841917371e-11 4.226559990176e-12 2.675685194243e-12 -5.000000000031e+00 7.574338036132e-05 5.027089719977e-16 7.574338036050e-05 -2.434867607220e-04 1.666666666671e+00 5.000000000040e+00  3.192301410830e-04
3.000000000000e+00 -2.205002131629e-18 6.125996482519e-05 1.000000000000e+02 4.025248566177e-11 3.432757716948e-12 2.828236863456e-11 -5.000000000021e+00 7.651992966048e-05 4.240279403551e-16 7.651992965971e-05 -2.450398593193e-04 1.666666666651e+00 5.000000000055e+00  3.215597889794e-04
3.100000000000e+00 -2.358061552256e-18 6.164823947443e-05 1.000000000000e+02 -2.836689419241e-11 5.319995206877e-12 -4.348328988546e-11 -5.000000000047e+00 7.729647895737e-05 6.173706926903e-16 7.729647895643e-05 -2.465929579160e-04 1.666666666706e+00 5.000000000011e+00  3.238894368729e-04
3.200000000000e+00 -2.396690555513e-18 6.203651412360e-05 1.000000000000e+02 1.167539011073e-11 3.898460634433e-12 -1.646651565101e-12 -5.000000000028e+00 7.807302825685e-05 4.754215232576e-16 7.807302825599e-05 -2.481460565132e-04 1.666666666673e+00 5.000000000033e+00  3.262190847696e-04
3.300000000000e+00 -2.403772007440e-18 6.242478877279e-05 1.000000000000e+02 3.901378467971e-11 3.557424803761e-12 2.619679560084e-11 -5.000000000022e+00 7.884957755613e-05 4.425886909840e-16 7.884957755530e-05 -2.496991551106e-04 1.666666666652e+00 5.000000000055e+00  3.285487326664e-04
3.400000000000e+00 -2.358719525638e-18 6.281306342195e-05 1.000000000000e+02 8.185416233708e-11 3.027339814536e-13 7.299148727565e-11 -4.999999999991e+00 7.962612685558e-05 1.135696128792e-16 7.962612685493e-05 -2.512522537075e-04 1.666666666612e+00 5.000000000068e+00  3.308783805627e-04
3.500000000000e+00 -2.352806469597e-18 6.320133807114e-05 1.000000000000e+02 8.237700134297e-11 8.619533674422e-13 7.313824083403e-11 -4.999999999994e+00 8.040267615421e-05 1.705273552122e-16 8.040267615355e-05 -2.528053523048e-04 1.666666666613e+00 5.000000000072e+00  3.332080284587e-04
3.600000000000e+00 -2.357272495946e-18 6.358961272036e-05 1.000000000000e+02 5.634220058097e-11 1.697880371404e-12 4.602195707859e-11 -5.000000000006e+00 8.117922545218e-05 2.558591483845e-16 8.117922545146e-05 -2.543584509019e-04 1.666666666635e+00 5.000000000058e+00  3.355376763537e-04
3.700000000000e+00 -2.387751045693e-18 6.397788736955e-05 1.000000000000e+02 7.387798359182e-11 -9.783265398206e-13 6.660291184309e-11 -4.999999999980e+00 8.195577475095e-05 -1.525238110905e-17 8.195577475038e-05 -2.559115494984e-04 1.666666666613e+00 5.000000000050e+00  3.378673242490e-04
3.800000000000e+00 -2.341866304020e-18 6.436616201875e-05 1.000000000000e+02 5.879529531063e-11 1.884227840873e-12 4.863213940350e-11 -5.000000000007e+00 8.273232404940e-05 2.751273126965e-16 8.273232404867e-05 -2.574646480962e-04 1.666666666633e+00 5.000000000060e+00  3.401969721452e-04
3.900000000000e+00 -2.378487403062e-18 6.475443666795e-05 1.000000000000e+02 6.045995417277e-11 1.953477547263e-12 5.022136034584e-11 -5.000000000006e+00 8.350887334801e-05 2.830410003505e-16 8.350887334728e-05 -2.590177466934e-04 1.666666666632e+00 5.000000000061e+00  3.425266200410e-04
4.000000000000e+00 -2.386414131620e-18 6.514271131716e-05 1.000000000000e+02 5.327761524778e-11 2.012958370734e-12 4.288737796611e-11 -5.000000000009e+00 8.428542264641e-05 2.899944349867e-16 8.428542264567e-05 -2.605708452905e-04 1.666666666637e+00 5.000000000057e+00  3.448562679365e-04
4.100000000000e+00 -2.395370029063e-18 6.553098596636e-05 1.000000000000e+02 5.799348674895e-11 2.078219037165e-12 4.756562360421e-11 -5.000000000009e+00 8.506197194513e-05 2.975628155426e-16 8.506197194437e-05 -2.621239438877e-04 1.666666666634e+00 5.000000000062e+00  3.471859158325e-04
4.200000000000e+00 -2.585623095591e-18 6.591926061561e-05 1.000000000000e+02 -2.619074141591e-11 4.856427317808e-12 -4.083552043963e-11 -5.000000000042e+00 8.583852124165e-05 5.807970805773e-16 8.583852124068e-05 -2.636770424843e-04 1.666666666703e+00 5.000000000009e+00  3.495155637255e-04
4.300000000000e+00 -2.511763190115e-18 6.630753526475e-05 1.000000000000e+02 6.472714060337e-11 2.431247596647e-12 5.361655419413e-11 -5.000000000010e+00 8.661507054245e-05 3.366615740435e-16 8.661507054166e-05 -2.652301410821e-04 1.666666666631e+00 5.000000000069e+00  3.518452116242e-04
4.400000000000e+00 -2.491592403307e-18 6.669580991394e-05 1.000000000000e+02 7.439604112156e-11 1.056998922920e-12 6.495208537682e-11 -4.999999999998e+00 8.739161984118e-05 1.981706989623e-16 8.739161984046e-05 -2.667832396790e-04 1.666666666620e+00 5.000000000068e+00  3.541748595199e-04
4.500000000000e+00 -2.636762225471e-18 6.708408456319e-05 1.000000000000e+02 5.740488524346e-12 4.226754951576e-12 -8.049409518558e-12 -5.000000000033e+00 8.816816913817e-05 5.207103985371e-16 8.816816913723e-05 -2.683363382761e-04 1.666666666678e+00 5.000000000032e+00  3.565045074138e-04
4.600000000000e+00 -2.637349437236e-18 6.747235921235e-05 1.000000000000e+02 4.828964658699e-11 2.636835299153e-12 3.659990250685e-11 -5.000000000013e+00 8.894471843773e-05 3.611439320067e-16 8.894471843689e-05 -2.698894368733e-04 1.666666666643e+00 5.000000000055e+00  3.588341553106e-04
4.700000000000e+00 -2.627576738564e-18 6.786063386154e-05 1.000000000000e+02 6.423276118171e-11 1.781211547535e-12 5.365096590373e-11 -5.000000000004e+00 8.972126773667e-05 2.754411384035e-16 8.972126773587e-05 -2.714425354705e-04 1.666666666629e+00 5.000000000063e+00  3.611638032067e-04
4.800000000000e+00 -2.695835215539e-18 6.824890851076e-05 1.000000000000e+02 2.977494899942e-11 3.544646642627e-12 1.678892412825e-11 -5.000000000025e+00 9.049781703448e-05 4.554360632115e-16 9.049781703356e-05 -2.729956340676e-04 1.666666666659e+00 5.000000000048e+00  3.634934511017e-04
4.900000000000e+00 -2.717154013357e-18 6.863718315995e-05 1.000000000000e+02 4.082409612906e-11 2.951773772013e-12 2.849946725373e-11 -5.000000000019e+00 9.127436633330e-05 3.968517352754e-16 9.127436633241e-05 -2.745487326648e-04 1.666666666650e+00 5.000000000053e+00  3.658230989976e-04
5.000000000000e+00 -2.767291994846e-18 6.902545780915e-05 1.000000000000e+02 4.246851452681e-11 2.943650622562e-12 3.006390362353e-11 -5.000000000017e+00 9.205091563191e-05 3.974017420025e-16 9.205091563101e-05 -2.761018312619e-04 1.666666666648e+00 5.000000000054e+00  3.681527468934e-04
5.100000000000e+00 -2.843872242809e-18 6.941373245837e-05 1.000000000000e+02 1.771952231935e-11 3.327933007294e-12 4.505457928036e-12 -5.000000000024e+00 9.282746492984e-05 4.378163661870e-16 9.282746492889e-05 -2.776549298588e-04 1.666666666667e+00 5.000000000035e+00  3.704823947881e-04
5.200000000000e+00 -2.780947992445e-18 6.980200710752e-05 1.000000000000e+02 7.908606842327e-11 8.637234872324e-13 6.915597637371e-11 -4.999999999996e+00 9.360401422985e-05 1.890032613742e-16 9.360401422906e-05 -2.792080284561e-04 1.666666666616e+00 5.000000000070e+00  3.728120426856e-04
5.300000000000e+00 -2.865732671478e-18 7.019028175675e-05 1.000000000000e+02 2.948720289932e-11 3.010054865680e-12 1.675069429228e-11 -5.000000000020e+00 9.438056352727e-05 4.074729637454e-16 9.438056352634e-05 -2.807611270531e-04 1.666666666658e+00 5.000000000043e+00  3.751416905799e-04
5.400000000000e+00 -2.883617084573e-18 7.057855640595e-05 1.000000000000e+02 3.229626375362e-11 3.203783790201e-12 1.922928540935e-11 -5.000000000023e+00 9.515711282595e-05 4.285582960735e-16 9.515711282499e-05 -2.823142256504e-04 1.666666666657e+00 5.000000000049e+00  3.774713384759e-04
5.500000000000e+00 -2.882173218523e-18 7.096683105513e-05 1.000000000000e+02 6.629166457671e-11 1.824315212359e-12 5.507264840924e-11 -5.000000000006e+00 9.593366212531e-05 2.898970261978e-16 9.593366212444e-05 -2.838673242476e-04 1.666666666628e+00 5.000000000066e+00  3.798009863725e-04
5.600000000000e+00 -2.940068272926e-18 7.135510570435e-05 1.000000000000e+02 3.084457660350e-11 2.892081062876e-12 1.802577531684e-11 -5.000000000021e+00 9.671021142303e-05 3.992320390294e-16 9.671021142207e-05 -2.854204228446e-04 1.666666666657e+00 5.000000000045e+00  3.821306342671e-04
5.700000000000e+00 -2.930886069975e-18 7.174338035353e-05 1.000000000000e+02 6.870291633053e-11 1.502741209055e-12 5.778885616564e-11 -5.000000000003e+00 9.748676072249e-05 2.594226159936e-16 9.748676072162e-05 -2.869735214418e-04 1.666666666625e+00 5.000000000066e+00  3.844602821639e-04
5.800000000000e+00 -3.082602694469e-18 7.213165500277e-05 1.000000000000e+02 -5.938286321005e-12 3.799370863052e-12 -2.024791705829e-11 -5.000000000031e+00 9.826331001923e-05 4.934603604188e-16 9.826331001819e-05 -2.885266200385e-04 1.666666666686e+00 5.000000000018e+00  3.867899300572e-04
5.900000000000e+00 -3.055534523749e-18 7.251992965193e-05 1.000000000000e+02 4.742472589405e-11 2.846979053096e-12 3.461026922234e-11 -5.000000000016e+00 9.903985931915e-05 3.984675917945e-16 9.903985931818e-05 -2.900797186361e-04 1.666666666645e+00 5.000000000057e+00  3.891195779548e-04
6.000000000000e+00 -3.071263895729e-18 7.290820430114e-05 1.000000000000e+02 3.114408326140e-11 2.897890971208e-12 1.800668815444e-11 -5.000000000021e+00 9.981640861732e-05 4.049667344266e-16 9.981640861632e-05 -2.916328172331e-04 1.666666666657e+00 5.000000000046e+00  3.914492258499e-04
6.100000000000e+00 -3.161067880692e-18 7.329647895035e-05 1.000000000000e+02 2.161587286479e-11 3.356672275191e-12 7.749066723943e-12 -5.000000000024e+00 1.005929579156e-04 4.529291280319e-16 1.005929579146e-04 -2.931859158302e-04 1.666666666665e+00 5.000000000039e+00  3.937788737453e-04
6.200000000000e+00 -3.146936344796e-18 7.368475359954e-05 1.000000000000e+02 3.547936828589e-11 3.252152800555e-12 2.170363512753e-11 -5.000000000025e+00 1.013695072146e-04 4.438739223093e-16 1.013695072136e-04 -2.947390144276e-04 1.666666666656e+00 5.000000000053e+00  3.961085216417e-04
6.300000000000e+00 -3.124711875937e-18 7.407302824871e-05 1.000000000000e+02 6.798159922726e-11 1.095605638459e-12 5.692985030152e-11 -5.000000000003e+00 1.021460565139e-04 2.262840048260e-16 1.021460565130e-04 -2.962921130246e-04 1.666666666626e+00 5.000000000065e+00  3.984381695380e-04
6.400000000000e+00 -3.260558197945e-18 7.446130289796e-05 1.000000000000e+02 -1.860370653823e-12 4.095700218889e-12 -1.709820045964e-11 -5.000000000037e+00 1.029226058108e-04 5.316040892717e-16 1.029226058097e-04 -2.978452116215e-04 1.666666666685e+00 5.000000000028e+00  4.007678174318e-04
6.500000000000e+00 -3.257928663096e-18 7.484957754713e-05 1.000000000000e+02 2.853503631301e-11 2.511838099345e-12 1.527504251558e-11 -5.000000000020e+00 1.036991551101e-04 3.725920058053e-16 1.036991551090e-04 -2.993983102187e-04 1.666666666659e+00 5.000000000042e+00  4.030974653282e-04
6.600000000000e+00 -3.279817210545e-18 7.523785219632e-05 1.000000000000e+02 4.937145194987e-11 2.305980804212e-12 3.649958894153e-11 -5.000000000015e+00 1.044757044092e-04 3.528472442883e-16 1.044757044081e-04 -3.009514088160e-04 1.666666666643e+00 5.000000000058e+00  4.054271132247e-04
6.700000000000e+00 -3.248586221907e-18 7.562612684550e-05 1.000000000000e+02 7.713966473690e-11 -6.112539399240e-13 6.772021600895e-11 -4.999999999988e+00 1.052522537082e-04 5.753061894966e-17 1.052522537074e-04 -3.025045074127e-04 1.666666666614e+00 5.000000000060e+00  4.077567611205e-04
6.800000000000e+00 -3.405172253474e-18 7.601440149476e-05 1.000000000000e+02 -1.503769880608e-11 4.395557539104e-12 -3.088079011254e-11 -5.000000000040e+00 1.060288030047e-04 5.659378639279e-16 1.060288030036e-04 -3.040576060099e-04 1.666666666695e+00 5.000000000017e+00  4.100864090140e-04
6.900000000000e+00 -3.503687033204e-18 7.640267614397e-05 1.000000000000e+02 -2.657701865296e-11 4.203688106305e-12 -4.256089115399e-11 -5.000000000039e+00 1.068053523029e-04 5.484919498298e-16 1.068053523017e-04 -3.056107046067e-04 1.666666666703e+00 5.000000000005e+00  4.124160569090e-04
7.000000000000e+00 -3.503624364643e-18 7.679095079313e-05 1.000000000000e+02 2.452239221869e-11 3.148944504758e-12 1.014858654289e-11 -5.000000000022e+00 1.075819016028e-04 4.432886225427e-16 1.075819016016e-04 -3.071638032042e-04 1.666666666662e+00 5.000000000040e+00  4.147457048064e-04
7.100000000000e+00 -3.495056103122e-18 7.717922544233e-05 1.000000000000e+02 2.344472532778e-11 2.698965354972e-12 9.439614310122e-12 -5.000000000022e+00 1.083584509013e-04 3.990379273123e-16 1.083584509002e-04 -3.087169018013e-04 1.666666666663e+00 5.000000000038e+00  4.170753527020e-04
7.200000000000e+00 -3.553311280327e-18 7.756750009154e-05 1.000000000000e+02 1.196026466523e-11 2.930874304620e-12 -2.521539979131e-12 -5.000000000025e+00 1.091350001996e-04 4.238574043884e-16 1.091350001984e-04 -3.102700003983e-04 1.666666666672e+00 5.000000000030e+00  4.194050005972e-04
7.300000000000e+00 -3.559397969780e-18 7.795577474072e-05 1.000000000000e+02 3.207689727262e-11 1.988087226816e-12 1.880666600460e-11 -5.000000000015e+00 1.099115494986e-04 3.294358183148e-16 1.099115494975e-04 -3.118230989954e-04 1.666666666655e+00 5.000000000040e+00  4.217346484934e-04
7.400000000000e+00 -3.649623300567e-18 7.834404938994e-05 1.000000000000e+02 2.582943118650e-12 3.163237681553e-12 -1.236254125690e-11 -5.000000000028e+00 1.106880987964e-04 4.497574131609e-16 1.106880987952e-04 -3.133761975924e-04 1.666666666679e+00 5.000000000023e+00  4.240642963882e-04
7.500000000000e+00 -3.737657274417e-18 7.873232403916e-05 1.000000000000e+02 -2.817888544032e-11 3.916259056926e-12 -4.450278080076e-11 -5.000000000039e+00 1.114646480942e-04 5.277382309005e-16 1.114646480930e-04 -3.149292961892e-04 1.666666666704e+00 5.000000000003e+00  4.263939442828e-04
7.600000000000e+00 -3.644253518127e-18 7.912059868830e-05 1.000000000000e+02 5.687365104331e-11 1.456317032128e-12 4.414487236408e-11 -5.000000000008e+00 1.122411973949e-04 2.796328221151e-16 1.122411973938e-04 -3.164823947869e-04 1.666666666636e+00 5.000000000058e+00  4.287235921812e-04
7.700000000000e+00 -3.730373759596e-18 7.950887333753e-05 1.000000000000e+02 1.893069208336e-11 2.893585102062e-12 4.180504900587e-12 -5.000000000024e+00 1.130177466925e-04 4.263377992023e-16 1.130177466913e-04 -3.180354933839e-04 1.666666666667e+00 5.000000000036e+00  4.310532400758e-04
7.800000000000e+00 -3.693802488574e-18 7.989714798669e-05 1.000000000000e+02 6.564936036920e-11 7.571361164000e-13 5.376271534445e-11 -5.000000000000e+00 1.137942959921e-04 2.106227891478e-16 1.137942959911e-04 -3.195885919811e-04 1.666666666627e+00 5.000000000060e+00  4.333828879727e-04
7.900000000000e+00 -3.790985019585e-18 8.028542263593e-05 1.000000000000e+02 1.759389335609e-11 3.383213540268e-12 2.265600612210e-12 -5.000000000028e+00 1.145708452897e-04 4.777850275248e-16 1.145708452884e-04 -3.211416905782e-04 1.666666666669e+00 5.000000000038e+00  4.357125358673e-04
8.000000000000e+00 -3.837136221927e-18 8.067369728513e-05 1.000000000000e+02 6.677093773722e-12 3.224601788892e-12 -8.736930739069e-12 -5.000000000029e+00 1.153473945879e-04 4.632464128459e-16 1.153473945867e-04 -3.226947891752e-04 1.666666666677e+00 5.000000000028e+00  4.380421837625e-04
8.100000000000e+00 -3.877146707248e-18 8.106197193433e-05 1.000000000000e+02 8.916130854465e-12 2.779776670666e-12 -6.082910795439e-12 -5.000000000026e+00 1.161239438865e-04 4.195546181885e-16 1.161239438853e-04 -3.242478877722e-04 1.666666666674e+00 5.000000000027e+00  4.403718316580e-04
8.200000000000e+00 -3.884473990555e-18 8.145024658352e-05 1.000000000000e+02 2.588208842848e-11 2.539076094538e-12 1.127678853075e-11 -5.000000000022e+00 1.169004931855e-04 3.963946198282e-16 1.169004931843e-04 -3.258009863695e-04 1.666666666661e+00 5.000000000040e+00  4.427014795544e-04
8.300000000000e+00 -4.024657678787e-18 8.183852123275e-05 1.000000000000e+02 -3.609087305632e-11 4.250945442647e-12 -5.354014887687e-11 -5.000000000045e+00 1.176770424825e-04 5.715035762522e-16 1.176770424812e-04 -3.273540849662e-04 1.666666666712e+00 5.000000000000e+00  4.450311274480e-04
8.400000000000e+00 -4.054854599734e-18 8.222679588194e-05 1.000000000000e+02 -1.297410471881e-11 3.374191350679e-12 -2.935655711578e-11 -5.000000000035e+00 1.184535917816e-04 4.844060017291e-16 1.184535917803e-04 -3.289071835633e-04 1.666666666692e+00 5.000000000013e+00  4.473607753443e-04
8.500000000000e+00 -3.962305338448e-18 8.261507053108e-05 1.000000000000e+02 7.040985445147e-11 4.678438702765e-13 5.816987805792e-11 -4.999999999999e+00 1.192301410822e-04 1.906932332761e-16 1.192301410810e-04 -3.304602821608e-04 1.666666666624e+00 5.000000000063e+00  4.496904232424e-04
8.600000000000e+00 -3.998227289835e-18 8.300334518029e-05 1.000000000000e+02 4.721655184892e-11 1.666299492957e-12 3.349390267452e-11 -5.000000000012e+00 1.200066903802e-04 3.126743068381e-16 1.200066903790e-04 -3.320133807580e-04 1.666666666644e+00 5.000000000053e+00  4.520200711376e-04
8.700000000000e+00 -4.132451287322e-18 8.339161982953e-05 1.000000000000e+02 -5.152030422653e-12 3.433123914530e-12 -2.151598604144e-11 -5.000000000033e+00 1.207832396775e-04 4.929600462913e-16 1.207832396762e-04 -3.335664793548e-04 1.666666666687e+00 5.000000000020e+00  4.543497190316e-04
8.800000000000e+00 -4.082224841402e-18 8.377989447869e-05 1.000000000000e+02 6.046058243179e-11 1.502619939429e-12 4.691801634704e-11 -5.000000000008e+00 1.215597889777e-04 2.984204364017e-16 1.215597889765e-04 -3.351195779523e-04 1.666666666633e+00 5.000000000061e+00  4.566793669294e-04
8.900000000000e+00 -4.093273583148e-18 8.416816912789e-05 1.000000000000e+02 4.718741514429e-11 1.738079675494e-12 3.328172257464e-11 -5.000000000013e+00 1.223363382759e-04 3.230432606619e-16 1.223363382747e-04 -3.366726765494e-04 1.666666666644e+00 5.000000000053e+00  4.590090148247e-04
9.000000000000e+00 -4.093069074862e-18 8.455644377709e-05 1.000000000000e+02 5.537531428771e-11 9.341925807224e-13 4.251872609782e-11 -5.000000000005e+00 1.231128875746e-04 2.421781545648e-16 1.231128875735e-04 -3.382257751464e-04 1.666666666636e+00 5.000000000054e+00  4.613386627204e-04
9.100000000000e+00 -4.082292053096e-18 8.494471842628e-05 1.000000000000e+02 6.585991821351e-11 9.817016774630e-13 5.312647023692e-11 -5.000000000004e+00 1.238894368735e-04 2.474403467496e-16 1.238894368723e-04 -3.397788737437e-04 1.666666666628e+00 5.000000000064e+00  4.636683106166e-04
9.200000000000e+00 -4.122895397456e-18 8.533299307549e-05 1.000000000000e+02 4.062733049287e-11 2.168862201291e-12 2.635189867243e-11 -5.000000000018e+00 1.246659861715e-04 3.685132598199e-16 1.246659861702e-04 -3.413319723409e-04 1.666666666650e+00 5.000000000052e+00  4.659979585117e-04
9.300000000000e+00 -4.127722928282e-18 8.572126772467e-05 1.000000000000e+02 6.619563230892e-11 6.901864065298e-13 5.386084807324e-11 -5.000000000001e+00 1.254425354706e-04 2.192903361249e-16 1.254425354694e-04 -3.428850709379e-04 1.666666666627e+00 5.000000000061e+00  4.683276064079e-04
9.400000000000e+00 -4.231223865944e-18 8.610954237390e-05 1.000000000000e+02 2.867361729997e-11 2.949720553548e-12 1.342916750025e-11 -5.000000000023e+00 1.262190847684e-04 4.491805837238e-16 1.262190847670e-04 -3.444381695351e-04 1.666666666660e+00 5.000000000044e+00  4.706572543028e-04
9.500000000000e+00 -4.213393854172e-18 8.649781702309e-05 1.000000000000e+02 3.809452406300e-11 1.648986744038e-12 2.440843302938e-11 -5.000000000013e+00 1.269956340671e-04 3.184003907337e-16 1.269956340658e-04 -3.459912681320e-04 1.666666666650e+00 5.000000000044e+00  4.729869021984e-04
9.600000000000e+00 -4.351811801492e-18 8.688609167233e-05 1.000000000000e+02 -3.654560248173e-11 4.245532654143e-12 -5.413438707719e-11 -5.000000000046e+00 1.277721833639e-04 5.829777669000e-16 1.277721833624e-04 -3.475443667288e-04 1.666666666712e+00 5.000000000001e+00  4.753165500919e-04
9.700000000000e+00 -4.302082753676e-18 8.727436632146e-05 1.000000000000e+02 6.611415350373e-11 -1.581987474768e-12 5.590968978296e-11 -4.999999999981e+00 1.285487326646e-04 -7.120158954625e-18 1.285487326635e-04 -3.490974653255e-04 1.666666666620e+00 5.000000000042e+00  4.776461979896e-04
9.800000000000e+00 -4.392484536756e-18 8.766264097072e-05 1.000000000000e+02 -2.162982958252e-11 4.282591931487e-12 -3.898748656093e-11 -5.000000000042e+00 1.293252819614e-04 5.879840139626e-16 1.293252819599e-04 -3.506505639231e-04 1.666666666701e+00 5.000000000012e+00  4.799758458838e-04
9.900000000000e+00 -4.289600660815e-18 8.805091561986e-05 1.000000000000e+02 6.758924612123e-11 1.021953582837e-12 5.474313855234e-11 -5.000000000004e+00 1.301018312620e-04 2.586985439959e-16 1.301018312608e-04 -3.522036625207e-04 1.666666666627e+00 5.000000000065e+00  4.823054937821e-04
1.000000000000e+01 -4.309285864131e-18 8.843919026906e-05 1.000000000000e+02 7.464144175425e-11 3.132959010564e-13 6.282426893526e-11 -4.999999999995e+00 1.308783805607e-04 1.871750819297e-16 1.308783805595e-04 -3.537567611176e-04 1.666666666619e+00 5.000000000063e+00  4.846351416777e-04
1.010000000000e+01 -4.506210223875e-18 8.882746491833e-05 1.000000000000e+02 -4.621054436095e-11 4.328691974272e-12 -6.390046535890e-11 -5.000000000045e+00 1.316549298564e-04 5.952852967957e-16 1.316549298549e-04 -3.553098597141e-04 1.666666666718e+00 4.999999999990e+00  4.869647895697e-04