 TITLE = "Time curves in points"
 VARIABLES = "TIME "  "DISPLACEMENT_X1"  "DISPLACEMENT_Y1"  "STRESS_XX"  "STRESS_XY"  "STRESS_YY"  "STRESS_ZZ"  "STRAIN_XX"  "STRAIN_XY"  "STRAIN_YY"  "STRAIN_ZZ"  p_(1st_Invariant)  q_(2nd_Invariant)   Effective_Strain
 ZONE T="POINT=POINT1"
0.000000000000e+00 0.000000000000e+00 0.000000000000e+00 0.000000000000e+00 0.000000000000e+00 0.000000000000e+00 0.000000000000e+00 0.000000000000e+00 0.000000000000e+00 0.000000000000e+00 0.000000000000e+00 -0.000000000000e+00 0.000000000000e+00  0.000000000000e+00
2.314800000000e-05 -4.661214948866e-07 0.000000000000e+00 -4.810462286555e+05 1.304781792022e-06 -4.810462285426e+05 -5.665811913786e-04 -1.553738317018e-05 1.828190738263e-16 -1.553738316288e-05 1.565420557812e-05 3.206974859216e+05 4.810462280325e+05  3.119158874465e-05
4.629600000000e-05 -9.428310995171e-07 0.000000000000e+00 -9.773157861657e+05 1.712932170200e+01 -9.751763531142e+05 -2.572966185897e+03 -3.157801646469e-05 -5.149350431545e-09 -3.142726932756e-05 3.165790787914e-05 6.516883684886e+05 9.736748667550e+05  6.316068632708e-05
6.944400000000e-05 -1.420749869153e-06 0.000000000000e+00 -1.474546749627e+06 -1.224461656390e+02 -1.470267607232e+06 -5.269696735811e+03 -4.765940397669e-05 -3.034222234777e-08 -4.735758391740e-05 4.769875989387e-05 9.833613511982e+05 1.467142177317e+06  9.520762714925e-05
9.259200000000e-05 -1.898939367269e-06 0.000000000000e+00 -1.971802135300e+06 -2.990561029780e+02 -1.965346553730e+06 -7.853239983923e+03 -6.375119130838e-05 -5.968630117041e-08 -6.329677332951e-05 6.375309957738e-05 1.315000643005e+06 1.960729143445e+06  1.272777322833e-04
1.157400000000e-04 -2.377344696757e-06 0.000000000000e+00 -2.468987991292e+06 -4.850669253124e+02 -2.460349036784e+06 -1.025538805385e+04 -7.984947106338e-05 -8.963443292380e-08 -7.924294123113e-05 7.982019026595e-05 1.646530805376e+06 2.454424672408e+06  1.593673376748e-04
1.388880000000e-04 -2.855999423015e-06 0.000000000000e+00 -2.966102349089e+06 -6.668700834288e+02 -2.955309825525e+06 -1.245819384663e+04 -9.595298355684e-05 -1.184842100008e-07 -9.519717952525e-05 9.590052698384e-05 1.977956789487e+06 2.948262935079e+06  1.914768372553e-04
1.620360000000e-04 -3.334941728556e-06 0.000000000000e+00 -3.463161313659e+06 -8.339367606404e+02 -3.450278108045e+06 -1.445878911429e+04 -1.120608794651e-04 -1.449259965253e-07 -1.111607454619e-04 1.119944092514e-04 2.309299403606e+06 3.442279306276e+06  2.236067214323e-04
1.851840000000e-04 -3.814205849631e-06 0.000000000000e+00 -3.960184012610e+06 -9.760894130691e+02 -3.945302723771e+06 -1.625192411855e+04 -1.281723908999e-04 -1.676847124860e-07 -1.271347643295e-04 1.281021860699e-04 2.640579553500e+06 3.936512903201e+06  2.557575072487e-04
2.083320000000e-04 -4.293822285516e-06 0.000000000000e+00 -4.457190576161e+06 -1.083040538220e+03 -4.440431085560e+06 -1.782661720050e+04 -1.442867769192e-04 -1.854609240724e-07 -1.431202351700e-04 1.442243401797e-04 2.971816092974e+06 4.431008381963e+06  2.879297977518e-04
2.314800000000e-04 -4.773818898973e-06 0.000000000000e+00 -4.954202714160e+06 -1.144591118696e+03 -4.935711055620e+06 -1.916791446397e+04 -1.604032799077e-04 -1.969581801610e-07 -1.591180693210e-04 1.603614300066e-04 3.303027228081e+06 4.925815401283e+06  3.201242213098e-04
3.981500000000e-04 -4.696382716958e-06 0.000000000000e+00 -4.966929175291e+06 -3.118678873113e+02 -4.945047991961e+06 -1.964418418309e+05 -1.580359350752e-04 -9.211119387533e-08 -1.565344009483e-04 1.522749128342e-04 3.369473003028e+06 4.759584495390e+06  3.095628531661e-04
5.648200000000e-04 -4.610499544384e-06 0.000000000000e+00 -4.966866515250e+06 -1.952072879410e+02 -4.944299243424e+06 -3.738249958188e+05 -1.552164857826e-04 -7.723684534094e-08 -1.536712022542e-04 1.438139824748e-04 3.428330251498e+06 4.581799578639e+06  2.982608587914e-04
7.314900000000e-04 -4.524598679697e-06 0.000000000000e+00 -4.966580428014e+06 -7.711388120237e+01 -4.943459733296e+06 -5.512399311282e+05 -1.523879616419e-04 -6.215411293562e-08 -1.508073863437e-04 1.353487235968e-04 3.487093364146e+06 4.403825671856e+06  2.869496825974e-04
8.981600000000e-04 -4.438692241683e-06 0.000000000000e+00 -4.966285368727e+06 4.829414552680e+01 -4.942609656011e+06 -7.286814525322e+05 -1.495593551474e-04 -4.614618464810e-08 -1.479433878697e-04 1.268839496800e-04 3.545858825757e+06 4.225815803368e+06  2.756388854785e-04
1.064830000000e-03 -4.352779893934e-06 0.000000000000e+00 -4.965984968953e+06 1.809560740384e+02 -4.941752067405e+06 -9.061553172362e+05 -1.467306926482e-04 -2.922186947738e-08 -1.450791968841e-04 1.184194656225e-04 3.604630784531e+06 4.047767616904e+06  2.643282846533e-04
1.231500000000e-03 -4.266861539468e-06 0.000000000000e+00 -4.965679873132e+06 3.206436273802e+02 -4.940888686705e+06 -1.083665776894e+06 -1.439019024968e-04 -1.141088845079e-08 -1.422148105869e-04 1.099550766205e-04 3.663411445577e+06 3.869678102838e+06  2.530176524683e-04
1.398170000000e-03 -4.180937089388e-06 0.000000000000e+00 -4.965370698522e+06 4.671170088204e+02 -4.940021226919e+06 -1.261217005374e+06 -1.410729119436e-04 7.255652187994e-09 -1.393502263503e-04 1.014905878941e-04 3.722202976938e+06 3.691544323709e+06  2.417067616152e-04
1.564840000000e-03 -4.095006423234e-06 0.000000000000e+00 -4.965057819192e+06 6.202858399833e+02 -4.939150840449e+06 -1.438811746434e+06 -1.382436674479e-04 2.676569300856e-08 -1.364854405175e-04 9.302585735931e-05 3.781006802025e+06 3.513364386083e+06  2.303954476742e-04
1.731510000000e-03 -4.009069359742e-06 0.000000000000e+00 -4.964741146132e+06 7.803455190397e+02 -4.938277670091e+06 -1.616450278931e+06 -1.354141483330e-04 4.714347487063e-08 -1.336204475460e-04 8.456083565727e-05 3.839823031718e+06 3.335138146858e+06  2.190836559620e-04
1.898180000000e-03 -3.923125668857e-06 0.000000000000e+00 -4.964420239088e+06 9.477084820424e+02 -4.937401090955e+06 -1.794131045665e+06 -1.325843588191e-04 6.844073650533e-08 -1.307552403740e-04 7.609554365328e-05 3.898650791902e+06 3.156866767131e+06  2.077714156564e-04
2.064850000000e-03 -3.837175106695e-06 0.000000000000e+00 -4.964094601698e+06 1.122820690563e+03 -4.936520328149e+06 -1.971852159644e+06 -1.297543085419e-04 9.071339471487e-08 -1.278898114593e-04 6.763001625586e-05 3.957489029831e+06 2.978551668705e+06  1.964587748467e-04
2.231520000000e-03 -3.751217437595e-06 0.000000000000e+00 -4.963763858670e+06 1.306049830310e+03 -4.935634826694e+06 -2.149612285144e+06 -1.269240009804e-04 1.140073755512e-07 -1.250241534355e-04 5.916426897405e-05 4.016336990170e+06 2.800193935948e+06  1.851457622674e-04
2.398190000000e-03 -3.665252437626e-06 0.000000000000e+00 -4.963427781223e+06 1.497667287477e+03 -4.934744306315e+06 -2.327410751352e+06 -1.240934317207e-04 1.383563576125e-07 -1.221582592152e-04 5.069829297634e-05 4.075194279630e+06 2.621794256647e+06  1.738323824919e-04
2.564860000000e-03 -3.579279891118e-06 0.000000000000e+00 -4.963086253737e+06 1.697866934788e+03 -4.933848693860e+06 -2.505247372050e+06 -1.212625905450e-04 1.637841791548e-07 -1.192921218869e-04 4.223206122647e-05 4.134060773216e+06 2.443353073141e+06  1.625186244506e-04
2.731530000000e-03 -3.493299587507e-06 0.000000000000e+00 -4.962739236622e+06 1.906786741408e+03 -4.932948046568e+06 -2.683122244319e+06 -1.184314638675e-04 1.903075956333e-07 -1.164257346233e-04 3.376553555406e-05 4.192936509170e+06 2.264870758132e+06  1.512044716966e-04
2.898200000000e-03 -3.407311318695e-06 0.000000000000e+00 -4.962386739413e+06 2.124524408304e+03 -4.932042495861e+06 -2.861035600164e+06 -1.156000365249e-04 2.179382744159e-07 -1.135590906040e-04 2.529867181471e-05 4.251821611813e+06 2.086347769092e+06  1.398899114277e-04
3.064870000000e-03 -3.321314877568e-06 0.000000000000e+00 -4.962028803512e+06 2.351147186746e+03 -4.931132210956e+06 -3.038987706804e+06 -1.127682929536e-04 2.466840489639e-07 -1.106921829728e-04 1.683142326274e-05 4.310716240424e+06 1.907784795386e+06  1.285749430127e-04
3.231540000000e-03 -3.235310056076e-06 0.000000000000e+00 -4.961665491728e+06 2.586697603378e+03 -4.930217377580e+06 -3.216978806458e+06 -1.099362178229e-04 2.765496523580e-07 -1.078250047790e-04 8.363742397939e-06 4.369620558589e+06 1.729182922835e+06  1.172595873641e-04
3.398210000000e-03 -3.149296645322e-06 0.000000000000e+00 -4.961296882367e+06 2.831196715283e+03 -4.929298187474e+06 -3.395009079042e+06 -1.071037963363e-04 3.075371368759e-07 -1.049575489849e-04 -1.044180613871e-07 4.428534716294e+06 1.550543866136e+06  1.059438999375e-04
3.564880000000e-03 -3.063274435658e-06 0.000000000000e+00 -4.960923066256e+06 3.084646101799e+03 -4.928374834227e+06 -3.573078619697e+06 -1.042710143189e-04 3.396461332483e-07 -1.020898084735e-04 -8.573104817040e-06 4.487458840060e+06 1.371870350037e+06  9.462799152921e-05
3.731550000000e-03 -2.977243216280e-06 0.000000000000e+00 -4.960544145738e+06 3.347029164109e+03 -4.927447512581e+06 -3.751187424380e+06 -1.014378581916e-04 3.728740223636e-07 -9.922177603939e-05 -1.704236399175e-05 4.546393027566e+06 1.193166810916e+06  8.331206526086e-05
3.898220000000e-03 -2.891202774827e-06 0.000000000000e+00 -4.960160234900e+06 3.618312047439e+03 -4.926516419650e+06 -3.929335378401e+06 -9.860431490169e-05 4.072160595834e-07 -9.635344438038e-05 -2.551224129428e-05 4.605337344317e+06 1.014440824592e+06  7.199648827039e-05
4.064890000000e-03 -2.805152895553e-06 0.000000000000e+00 -4.959771460548e+06 3.898444309917e+03 -4.925581757642e+06 -4.107522250083e+06 -9.577037175351e-05 4.426654675674e-07 -9.348480604066e-05 -3.398278247386e-05 4.664291822758e+06 8.357063472416e+05  6.068194346122e-05
4.231560000000e-03 -2.719093358908e-06 0.000000000000e+00 -4.959377963633e+06 4.187359399947e+03 -4.924643737917e+06 -4.285747683601e+06 -9.293601622030e-05 4.792135056078e-07 -9.061585340108e-05 -4.245403378949e-05 4.723256461717e+06 6.569922346212e+05  4.936979059838e-05
4.398230000000e-03 -2.633023940693e-06 0.000000000000e+00 -4.958979900967e+06 4.484974956230e+03 -4.923702586380e+06 -4.464011195622e+06 -9.010123564734e-05 5.168495175966e-07 -8.774657865422e-05 -5.092604271592e-05 4.782231227656e+06 4.783698218613e+05  3.806307146104e-05
4.564900000000e-03 -2.546944412549e-06 0.000000000000e+00 -4.958577447242e+06 4.791192899075e+03 -4.922758548973e+06 -4.642312171001e+06 -8.726601691462e-05 5.555609564853e-07 -8.487697382364e-05 -5.939885866355e-05 4.841216055739e+06 3.000788417424e+05  2.677006047667e-05
4.731570000000e-03 -2.460854544073e-06 0.000000000000e+00 -4.958170797696e+06 5.105899197562e+03 -4.921811892605e+06 -4.820649857914e+06 -8.443034599968e-05 5.953333869290e-07 -8.200703083700e-05 -6.787253369758e-05 4.900210849405e+06 1.237419843064e+05  1.552327518669e-05
4.898240000000e-03 -2.374754126320e-06 0.000000000000e+00 -4.957760168264e+06 5.428964696195e+03 -4.920862839074e+06 -4.999023328652e+06 -8.159420775828e-05 6.361508893119e-07 -7.913674231166e-05 -7.634712071458e-05 4.959215445330e+06 6.837384508636e+04  4.678737823618e-06
5.064910000000e-03 -2.288643252365e-06 0.000000000000e+00 -4.957345606966e+06 5.760296548633e+03 -4.919911932327e+06 -5.177431565215e+06 -7.875759493520e-05 6.779964297756e-07 -7.626611096868e-05 -8.482265946699e-05 5.018229701503e+06 2.411996646315e+05  7.712493023878e-06
5.231580000000e-03 -2.202521341641e-06 0.000000000000e+00 -4.956927829611e+06 6.099609618713e+03 -4.918959810518e+06 -5.355873574042e+06 -7.592048868900e-05 7.208427949717e-07 -7.339511679169e-05 -9.329924075184e-05 5.077253738057e+06 4.193543523415e+05  1.881077301858e-05
5.398250000000e-03 -2.116387670710e-06 0.000000000000e+00 -4.956506963477e+06 6.446760043682e+03 -4.918006815146e+06 -5.534347971226e+06 -7.308284567520e-05 7.646707341191e-07 -7.052373526006e-05 -1.017769693313e-04 5.136287249950e+06 5.981255205336e+05  3.008467006975e-05
5.564920000000e-03 -2.030241718209e-06 0.000000000000e+00 -4.956083329104e+06 6.801551475662e+03 -4.917053524107e+06 -5.712853292248e+06 -7.024463328656e-05 8.094553571433e-07 -6.765194845717e-05 -1.102559429150e-04 5.195330048486e+06 7.771096899355e+05  4.139238193452e-05
5.731590000000e-03 -1.944082966699e-06 0.000000000000e+00 -4.955657286054e+06 7.163763628054e+03 -4.916100588132e+06 -5.891387935690e+06 -6.740581598587e-05 8.551696185155e-07 -6.477973856922e-05 -1.187362668104e-04 5.254381936625e+06 9.562034062852e+05  5.271340576527e-05
5.898260000000e-03 -1.857910898012e-06 0.000000000000e+00 -4.955229228421e+06 7.533155700401e+03 -4.915148740235e+06 -6.069950163244e+06 -6.456635527214e-05 9.017841819021e-07 -6.190708772692e-05 -1.272180542453e-04 5.313442710634e+06 1.135366906612e+06  6.404181729127e-05
6.064930000000e-03 -1.771724992259e-06 0.000000000000e+00 -4.954799584115e+06 7.909466905135e+03 -4.914198796356e+06 -6.248538110726e+06 -6.172620961909e-05 9.492674144399e-07 -5.903397797095e-05 -1.357014264961e-04 5.372512163732e+06 1.314580648548e+06  7.537534457083e-05
6.231600000000e-03 -1.685524727331e-06 0.000000000000e+00 -4.954368813184e+06 8.292417517861e+03 -4.913251652147e+06 -6.427149805306e+06 -5.888533455124e-05 9.975854962790e-07 -5.616039123434e-05 -1.441865126474e-04 5.431590090212e+06 1.493833102283e+06  8.671299041277e-05
6.398270000000e-03 -1.599309577544e-06 0.000000000000e+00 -4.953937404413e+06 8.681710911102e+03 -4.912308275809e+06 -6.605783192161e+06 -5.604368282249e-05 1.046702658483e-06 -5.328630929721e-05 -1.526734490703e-04 5.490676290794e+06 1.673116405960e+06  9.805430103992e-05
6.564940000000e-03 -1.513079012818e-06 0.000000000000e+00 -4.953505869900e+06 9.077036813961e+03 -4.911369696247e+06 -6.784436166157e+06 -5.320120477406e-05 1.096581570675e-06 -5.041171375981e-05 -1.611623783993e-04 5.549770577434e+06 1.852424568392e+06  1.093990880574e-04
6.731610000000e-03 -1.426832496255e-06 0.000000000000e+00 -4.953074737478e+06 9.478075867905e+03 -4.910436986550e+06 -6.963106611593e+06 -5.035784879459e-05 1.147183885100e-06 -4.753658596390e-05 -1.696534482273e-04 5.608872778540e+06 2.031752655452e+06  1.207473059787e-04
6.898280000000e-03 -1.340569483063e-06 0.000000000000e+00 -4.952644541230e+06 9.884505365495e+03 -4.909511243801e+06 -7.141792442880e+06 -4.751356193107e-05 1.198470923289e-06 -4.466090695990e-05 -1.781468093331e-04 5.667982742637e+06 2.211096401006e+06  1.320989914702e-04
7.064950000000e-03 -1.254289417298e-06 0.000000000000e+00 -4.952215810495e+06 1.029600591646e+04 -4.908593565191e+06 -7.320491647063e+06 -4.466829056351e-05 1.250404475081e-06 -4.178465740271e-05 -1.866426137609e-04 5.727100340916e+06 2.390452022330e+06  1.434542302895e-04
7.231620000000e-03 -1.167991729597e-06 0.000000000000e+00 -4.951789058169e+06 1.071226855849e+04 -4.907685023210e+06 -7.499202321812e+06 -4.182198112602e-05 1.302947652162e-06 -3.890781748157e-05 -1.951410127265e-04 5.786225467731e+06 2.569816134165e+06  1.548131375766e-04
7.398290000000e-03 -1.081675833792e-06 0.000000000000e+00 -4.951364769139e+06 1.113300180685e+04 -4.906786640640e+06 -7.677922707184e+06 -3.897458081295e-05 1.356065735730e-06 -3.603036681319e-05 -2.036421545966e-04 5.845358038988e+06 2.749185712236e+06  1.661758453288e-04
7.564960000000e-03 -9.953411238588e-07 0.000000000000e+00 -4.950943389833e+06 1.155793801110e+04 -4.905899368447e+06 -7.856651209943e+06 -3.612603818955e-05 1.409726941792e-06 -3.315228434649e-05 -2.121461831132e-04 5.904497989407e+06 2.928558079105e+06  1.775424940780e-04
7.731630000000e-03 -9.089869710737e-07 0.000000000000e+00 -4.950525319561e+06 1.198683863642e+04 -4.905024067385e+06 -8.035386418304e+06 -3.327630369166e-05 1.463903058283e-06 -3.027354827340e-05 -2.206532359409e-04 5.963645268417e+06 3.107930896621e+06  1.889132272084e-04
7.898300000000e-03 -8.226127214417e-07 0.000000000000e+00 -4.950110904257e+06 1.241949806413e+04 -4.904161494985e+06 -8.214127109318e+06 -3.042532995504e-05 1.518569904204e-06 -2.739413594861e-05 -2.291634436929e-04 6.022799836187e+06 3.287302158820e+06  2.002881872004e-04
8.064970000000e-03 -7.362176927868e-07 0.000000000000e+00 -4.949700432794e+06 1.285574582401e+04 -4.903312298080e+06 -8.392872251195e+06 -2.757307195055e-05 1.573707599934e-06 -2.451402379691e-05 -2.376769295115e-04 6.081961660690e+06 3.466670183163e+06  2.116675133836e-04
8.231640000000e-03 -6.498011737959e-07 0.000000000000e+00 -4.949294135747e+06 1.329544732200e+04 -4.902477010620e+06 -8.571620997387e+06 -2.471948701208e-05 1.629300656017e-06 -2.163318728457e-05 -2.461938089517e-04 6.141130714585e+06 3.646033594532e+06  2.230513405607e-04
8.398310000000e-03 -5.633624216784e-07 0.000000000000e+00 -4.948892186392e+06 1.373850319766e+04 -4.901656056205e+06 -8.750372681447e+06 -2.186453466515e-05 1.685337895943e-06 -1.875160084405e-05 -2.547141904434e-04 6.200306974681e+06 3.825391309821e+06  2.344397986972e-04
8.564980000000e-03 -4.769006613057e-07 0.000000000000e+00 -4.948494703394e+06 1.418484763655e+04 -4.900849754157e+06 -8.929126807474e+06 -1.900817639226e-05 1.741812252310e-06 -1.586923784689e-05 -2.632381759389e-04 6.259490421675e+06 4.004742517748e+06  2.458330130455e-04
8.731650000000e-03 -3.904150842180e-07 0.000000000000e+00 -4.948101754793e+06 1.463444588867e+04 -4.900058328412e+06 -9.107883041470e+06 -1.615037529886e-05 1.798720466323e-06 -1.298607057176e-05 -2.717658618417e-04 6.318681041558e+06 4.184086659097e+06  2.572311047741e-04
8.898320000000e-03 -3.039048476046e-07 0.000000000000e+00 -4.947713362775e+06 1.508729128849e+04 -4.899281917900e+06 -9.286641203006e+06 -1.329109573613e-05 1.856062726454e-06 -1.010207017101e-05 -2.802973400733e-04 6.377878827894e+06 4.363423407277e+06  2.686341918760e-04
9.064990000000e-03 -2.173690738101e-07 0.000000000000e+00 -4.947329508881e+06 1.554340200580e+04 -4.898520587914e+06 -9.465401257482e+06 -1.043030290495e-05 1.913842273926e-06 -7.217206654514e-06 -2.888326991864e-04 6.437083784759e+06 4.542752649574e+06  2.800423902110e-04
9.231660000000e-03 -1.308068501228e-07 0.000000000000e+00 -4.946950139304e+06 1.600281772446e+04 -4.897774341597e+06 -9.644163308959e+06 -7.567962468682e-06 1.972064999013e-06 -4.331448882687e-06 -2.973720254589e-04 6.496295929953e+06 4.722074469490e+06  2.914558145827e-04
9.398330000000e-03 -4.421722811967e-08 0.000000000000e+00 -4.946575170084e+06 1.646559637154e+04 -4.897043131275e+06 -9.822927595803e+06 -4.704040152802e-06 2.030739042951e-06 -1.444764544615e-06 -3.059154040233e-04 6.555515299054e+06 4.901389132467e+06  3.028745799115e-04
9.565000000000e-03 4.240077638200e-08 0.000000000000e+00 -4.946204492004e+06 1.693181101313e+04 -4.896326868919e+06 -1.000169448585e+07 -1.838501399244e-06 2.089874419747e-06 1.442879843592e-06 -3.144629198510e-04 6.614741948923e+06 5.080697072080e+06  3.142988022617e-04
9.731670000000e-03 1.290481824952e-07 0.000000000000e+00 -4.945837974595e+06 1.740154698183e+04 -4.895625435583e+06 -1.018046447304e+07 1.028688944043e-06 2.149482665697e-06 4.331518911518e-06 -3.230146586158e-04 6.673975961074e+06 5.259998878908e+06  3.257285997420e-04
9.898340000000e-03 2.157260303615e-07 0.000000000000e+00 -4.945475457314e+06 1.787490007269e+04 -4.894938684763e+06 -1.035923818260e+07 3.897566953807e-06 2.209576615981e-06 7.221187970790e-06 -3.315707069275e-04 6.733217441559e+06 5.439295307548e+06  3.371640925865e-04
1.006501000000e-02 3.024353688531e-07 0.000000000000e+00 -4.945116787813e+06 1.835197319405e+04 -4.894266477676e+06 -1.053801635172e+07 6.768168975501e-06 2.270169996927e-06 1.011192259318e-05 -3.401311524203e-04 6.792466539071e+06 5.618587219950e+06  3.486054026395e-04
1.023168000000e-02 3.891773261679e-07 0.000000000000e+00 -4.944761819911e+06 1.883287085478e+04 -4.893608653322e+06 -1.071679982765e+07 9.640532199631e-06 2.331276748683e-06 1.300376100011e-05 -3.486960864521e-04 6.851723433627e+06 5.797875599048e+06  3.600526574887e-04
1.039835000000e-02 4.759530771205e-07 0.000000000000e+00 -4.944410365252e+06 1.931770425040e+04 -4.892965044640e+06 -1.089558961426e+07 1.251469769210e-05 2.392911664893e-06 1.589674293069e-05 -3.572656064986e-04 6.910988341382e+06 5.977161610694e+06  3.715059937513e-04
1.056502000000e-02 5.627638253717e-07 0.000000000000e+00 -4.944062244282e+06 1.980658523229e+04 -4.892335494096e+06 -1.107438682331e+07 1.539070753945e-05 2.455089638455e-06 1.879090906680e-05 -3.658398131603e-04 6.970261520561e+06 6.156446521443e+06  3.829655523381e-04
1.073169000000e-02 6.496108129579e-07 0.000000000000e+00 -4.943717276376e+06 2.029962567694e+04 -4.891719852299e+06 -1.125319268891e+07 1.826860570638e-05 2.517825586945e-06 2.168630134926e-05 -3.744188115522e-04 7.029543272529e+06 6.335731718329e+06  3.944314803978e-04
1.089836000000e-02 7.364953214796e-07 0.000000000000e+00 -4.943375281151e+06 2.079693629257e+04 -4.891117980966e+06 -1.143200856846e+07 2.114843817838e-05 2.581134306295e-06 2.458296301620e-05 -3.830027116947e-04 7.088833943524e+06 6.515018707395e+06  4.059039317745e-04
1.106503000000e-02 8.234186728586e-07 0.000000000000e+00 -4.943036080013e+06 2.129862556904e+04 -4.890529755633e+06 -1.161083594326e+07 2.403025306000e-05 2.645030341960e-06 2.748093862762e-05 -3.915916288177e-04 7.148133926302e+06 6.694309112021e+06  4.173830673523e-04
1.123170000000e-02 9.103822302983e-07 0.000000000000e+00 -4.942699497444e+06 2.180479891417e+04 -4.889955067411e+06 -1.178967641839e+07 2.691410063595e-05 2.709527883061e-06 3.038027409671e-05 -4.001856835811e-04 7.207443661082e+06 6.873604671043e+06  4.288690553046e-04
1.139837000000e-02 9.973873986888e-07 0.000000000000e+00 -4.942365362074e+06 2.231555792184e+04 -4.889393824871e+06 -1.196853172297e+07 2.980003343570e-05 2.774640672682e-06 3.328101670276e-05 -4.087850022691e-04 7.266763636639e+06 7.052907237441e+06  4.403620713138e-04
1.156504000000e-02 1.084435625868e-06 0.000000000000e+00 -4.942033507461e+06 2.283099981700e+04 -4.888845954855e+06 -1.214740371027e+07 3.268810627795e-05 2.840381940157e-06 3.618321513252e-05 -4.173897169553e-04 7.326094390862e+06 7.232218777501e+06  4.518622987661e-04
1.173171000000e-02 1.171528402734e-06 0.000000000000e+00 -4.941703772696e+06 2.335121701457e+04 -4.888311403450e+06 -1.232629435662e+07 3.557837629747e-05 2.906764347392e-06 3.908691948337e-05 -4.259999655822e-04 7.385436510922e+06 7.411541368870e+06  4.633699288373e-04
1.189838000000e-02 1.258667263892e-06 0.000000000000e+00 -4.941376002790e+06 2.387629681477e+04 -4.887790136519e+06 -1.250520576098e+07 3.847090297706e-05 2.973799952163e-06 4.199218128432e-05 -4.346158920548e-04 7.444790633430e+06 7.590877199542e+06  4.748851606038e-04
1.206505000000e-02 1.345853788094e-06 0.000000000000e+00 -4.941050048924e+06 2.440632120773e+04 -4.887282140077e+06 -1.268414014398e+07 4.136574816992e-05 3.041500184995e-06 4.489905351020e-05 -4.432376463002e-04 7.504157444327e+06 7.770228566531e+06  4.864082011134e-04
1.223172000000e-02 1.433089598601e-06 0.000000000000e+00 -4.940725768583e+06 2.494136678844e+04 -4.886787420521e+06 -1.286309984684e+07 4.426297611945e-05 3.109875839769e-06 4.780759059336e-05 -4.518653843100e-04 7.563537678647e+06 7.949597874549e+06  4.979392654378e-04
1.239839000000e-02 1.520376363369e-06 0.000000000000e+00 -4.940403025657e+06 2.548150474969e+04 -4.886306004977e+06 -1.304208733044e+07 4.716265348182e-05 3.178937073986e-06 5.071784842945e-05 -4.604992681810e-04 7.622932120358e+06 8.128987634793e+06  5.094785767226e-04
1.256506000000e-02 1.607715795691e-06 0.000000000000e+00 -4.940081690459e+06 2.602680097942e+04 -4.885837941303e+06 -1.322110517456e+07 5.006484934704e-05 3.248693422084e-06 5.362988439860e-05 -4.691394661619e-04 7.682341602107e+06 8.308400464125e+06  5.210263662508e-04
1.273173000000e-02 1.695109654379e-06 0.000000000000e+00 -4.939761639811e+06 2.657731620298e+04 -4.885383298440e+06 -1.340015607725e+07 5.296963526383e-05 3.319153814259e-06 5.654375737127e-05 -4.777861526961e-04 7.741767005167e+06 8.487839084190e+06  5.325828734980e-04
1.289840000000e-02 1.782559744569e-06 0.000000000000e+00 -4.939442757091e+06 2.713310619746e+04 -4.884942166449e+06 -1.357924285469e+07 5.587708526674e-05 3.390326604304e-06 5.945952773494e-05 -4.864395084868e-04 7.801209259410e+06 8.667306321201e+06  5.441483462206e-04
1.306507000000e-02 1.870067918016e-06 0.000000000000e+00 -4.939124932335e+06 2.769422203597e+04 -4.884514656686e+06 -1.375836844045e+07 5.878727589195e-05 3.462219601128e-06 6.237725740403e-05 -4.950997205249e-04 7.860669343157e+06 8.846805105034e+06  5.557230404954e-04
1.323174000000e-02 1.957636073666e-06 0.000000000000e+00 -4.938808062352e+06 2.826071035647e+04 -4.884100901880e+06 -1.393753588516e+07 6.170028619582e-05 3.534840103333e-06 6.529700983868e-05 -5.037669821325e-04 7.920148283130e+06 9.026338468762e+06  5.673072207795e-04
1.339841000000e-02 2.045266158715e-06 0.000000000000e+00 -4.938492050844e+06 2.883261364963e+04 -4.883701055942e+06 -1.411674835645e+07 6.461619777188e-05 3.608194936176e-06 6.821885008042e-05 -5.124414930188e-04 7.979647154413e+06 9.205909548647e+06  5.789011599905e-04
1.356508000000e-02 2.132960168442e-06 0.000000000000e+00 -4.938176808555e+06 2.940997052485e+04 -4.883315294091e+06 -1.429600913744e+07 6.753509474502e-05 3.682290485756e-06 7.114284474651e-05 -5.211234592516e-04 8.039167080030e+06 9.385521582424e+06  5.905051394715e-04
1.373175000000e-02 2.220720148300e-06 0.000000000000e+00 -4.937862253423e+06 2.999281597303e+04 -4.882943812502e+06 -1.447532162858e+07 7.045706381162e-05 3.757132732809e-06 7.406906209988e-05 -5.298130933936e-04 8.098709231501e+06 9.565177911263e+06  6.021194491812e-04
1.389842000000e-02 2.308548193363e-06 0.000000000000e+00 -4.937548310744e+06 3.058118158376e+04 -4.882586828047e+06 -1.465468934432e+07 7.338219419508e-05 3.832727280771e-06 7.699757203084e-05 -5.385106143838e-04 8.158274827704e+06 9.744881976492e+06  6.137443875431e-04
1.406509000000e-02 2.396446449809e-06 0.000000000000e+00 -4.937234913370e+06 3.117509571713e+04 -4.882244578169e+06 -1.483411591462e+07 7.631057767718e-05 3.909079378095e-06 7.992844610679e-05 -5.472162476381e-04 8.217865135387e+06 9.924637321001e+06  6.253802615856e-04
1.423176000000e-02 2.484417115687e-06 0.000000000000e+00 -4.936922001913e+06 3.177458362708e+04 -4.881917320508e+06 -1.501360508419e+07 7.924230858873e-05 3.986193934470e-06 8.286175759823e-05 -5.559302250455e-04 8.277481468870e+06 1.010444758859e+07  6.370273869453e-04
1.439843000000e-02 2.572462441108e-06 0.000000000000e+00 -4.936609525006e+06 3.237966750830e+04 -4.881605332822e+06 -1.519316071143e+07 8.217748379660e-05 4.064075527358e-06 8.579758148556e-05 -5.646527849394e-04 8.337125189753e+06 1.028431652285e+07  6.486860878353e-04
1.456510000000e-02 2.660584729726e-06 0.000000000000e+00 -4.936297439567e+06 3.299036649275e+04 -4.881308912343e+06 -1.537278676845e+07 8.511620269740e-05 4.142728402147e-06 8.873599450872e-05 -5.733841721262e-04 8.396797706788e+06 1.046424796727e+07  6.603566970933e-04
1.473177000000e-02 2.748786339221e-06 0.000000000000e+00 -4.935985711124e+06 3.360669656523e+04 -4.881028375353e+06 -1.555248733954e+07 8.805856718789e-05 4.222156462021e-06 9.167707518397e-05 -5.821246378359e-04 8.456500475338e+06 1.064424586383e+07  6.720395561258e-04
1.489844000000e-02 2.837069681868e-06 0.000000000000e+00 -4.935674314180e+06 3.422867041531e+04 -4.880764056310e+06 -1.573226661833e+07 9.100468160678e-05 4.302363249718e-06 9.462090382300e-05 -5.908744396204e-04 8.516234996273e+06 1.082431425041e+07  6.837350147859e-04
1.506511000000e-02 2.925437226733e-06 0.000000000000e+00 -4.935363232640e+06 3.485629721980e+04 -4.880516306735e+06 -1.591212890761e+07 9.395465271130e-05 4.383351920355e-06 9.756756260641e-05 -5.996338413791e-04 8.576002815661e+06 1.100445726088e+07  6.954434314221e-04
1.523178000000e-02 3.013891500005e-06 0.000000000000e+00 -4.935052460323e+06 3.548958234901e+04 -4.880285493976e+06 -1.609207861451e+07 9.690858957722e-05 4.465125204461e-06 1.005171355946e-04 -6.084031131725e-04 8.635805522935e+06 1.118467912070e+07  7.071651726473e-04
1.539845000000e-02 3.102435086343e-06 0.000000000000e+00 -4.934742001601e+06 3.612852699568e+04 -4.880072000183e+06 -1.627212024831e+07 9.986660353909e-05 4.547685360956e-06 1.034697087727e-04 -6.171825311580e-04 8.695644750032e+06 1.136498414492e+07  7.189006132656e-04
1.556512000000e-02 3.191070630278e-06 0.000000000000e+00 -4.934431872178e+06 3.677312771679e+04 -4.879876221540e+06 -1.645225841880e+07 1.028288081389e-04 4.631034118760e-06 1.064253700976e-04 -6.259723775515e-04 8.755522170840e+06 1.154537673647e+07  7.306501362298e-04
1.573179000000e-02 3.279800835602e-06 0.000000000000e+00 -4.934122100059e+06 3.742337587219e+04 -4.879698567941e+06 -1.663249783140e+07 1.057953190245e-04 4.715172604925e-06 1.093842094770e-04 -6.347729404330e-04 8.815439499801e+06 1.172586138103e+07  7.424141323847e-04
1.589846000000e-02 3.368628467922e-06 0.000000000000e+00 -4.933812726720e+06 3.807925694274e+04 -4.879539462251e+06 -1.681284328726e+07 1.087662539133e-04 4.800101256917e-06 1.123463188549e-04 -6.435845137985e-04 8.875398492077e+06 1.190644264683e+07  7.541930005410e-04
1.606513000000e-02 3.457556354126e-06 0.000000000000e+00 -4.933503808659e+06 3.874074964549e+04 -4.879399339891e+06 -1.699329967721e+07 1.117417324481e-04 4.885819708309e-06 1.153117921922e-04 -6.524073973177e-04 8.935400941919e+06 1.208712517808e+07  7.659871471491e-04
1.623180000000e-02 3.546587385266e-06 0.000000000000e+00 -4.933195419144e+06 3.940782489625e+04 -4.879278647348e+06 -1.717387197918e+07 1.147218760842e-04 4.972326654281e-06 1.182807255611e-04 -6.612418962767e-04 8.995448681890e+06 1.226791369225e+07  7.777969862301e-04
1.639847000000e-02 3.635724517988e-06 0.000000000000e+00 -4.932887650448e+06 4.008044451864e+04 -4.879177841149e+06 -1.735456525325e+07 1.177068079246e-04 5.059619683720e-06 1.212532171907e-04 -6.700883214022e-04 9.055543581615e+06 1.244881297445e+07  7.896229391362e-04