 TITLE = "Time curves in points"
 VARIABLES = "TIME "  "DISPLACEMENT_X1"  "DISPLACEMENT_Y1"  "STRESS_XX"  "STRESS_XY"  "STRESS_YY"  "STRESS_ZZ"  "STRAIN_XX"  "STRAIN_XY"  "STRAIN_YY"  "STRAIN_ZZ"  p_(1st_Invariant)  q_(2nd_Invariant)   Effective_Strain
 ZONE T="POINT=POINT1"
0.000000000000e+00 0.000000000000e+00 0.000000000000e+00 0.000000000000e+00 0.000000000000e+00 0.000000000000e+00 0.000000000000e+00 0.000000000000e+00 0.000000000000e+00 0.000000000000e+00 0.000000000000e+00 -0.000000000000e+00 0.000000000000e+00  0.000000000000e+00
2.314800000000e-05 -4.661214948866e-07 0.000000000000e+00 -4.879245910277e+05 1.349143094508e-06 -4.879245909134e+05 -5.749149180095e-04 -1.553738317018e-05 1.828190738263e-16 -1.553738316288e-05 1.565420557812e-05 3.252830608387e+05 4.879245903956e+05  3.119158874465e-05
4.629600000000e-05 -9.936850754334e-07 0.000000000000e+00 -9.864775867489e+05 -7.740230462998e+01 -9.887407687953e+05 5.618408693575e+03 -3.296726987967e-05 -1.536291963153e-08 -3.311821427862e-05 3.348660055484e-05 6.565333156169e+05 9.932295293559e+05  6.652947638097e-05
6.944400000000e-05 -1.573463193975e-06 0.000000000000e+00 -1.484086056646e+06 1.235565915877e+02 -1.489406648147e+06 1.255357158894e+04 -5.205883739767e-05 1.057076269156e-08 -5.243721827699e-05 5.310067375146e-05 9.869797110682e+05 1.499307019720e+06  1.053492128150e-04
9.259200000000e-05 -2.210226211533e-06 0.000000000000e+00 -1.981496250206e+06 3.942078025032e+02 -1.990326979013e+06 1.980528068514e+04 -7.298876571664e-05 5.095808346962e-08 -7.365484871974e-05 7.463615913096e-05 1.317339316178e+06 2.005731591365e+06  1.479591171448e-04
1.157400000000e-04 -2.909652607904e-06 0.000000000000e+00 -2.478801176550e+06 7.194041912190e+02 -2.491589790069e+06 2.732583489153e+04 -9.593742705532e-05 1.055250247294e-07 -9.696040311897e-05 9.828217349012e-05 1.647688377243e+06 2.512546037094e+06  1.947331895828e-04
1.388880000000e-04 -3.677939614249e-06 0.000000000000e+00 -2.976024338027e+06 1.093490508726e+03 -2.993222400886e+06 3.511650326453e+04 -1.211002830476e-04 1.754851598009e-07 -1.225603804693e-04 1.242465239024e-04 1.978043411883e+06 3.019777196432e+06  2.460802921617e-04
1.620360000000e-04 -4.521876182982e-06 0.000000000000e+00 -3.473176115158e+06 1.512213865315e+03 -3.495239244062e+06 4.318068912594e+04 -1.486909286759e-04 2.623628720098e-07 -1.506809871459e-04 1.527568352150e-04 2.308411556698e+06 3.527441091005e+06  3.024480449039e-04
1.851840000000e-04 -5.448912465208e-06 0.000000000000e+00 -3.970262714159e+06 1.971901426803e+03 -3.997650895499e+06 5.152185097344e+04 -1.789432094738e-04 3.678860240558e-07 -1.815704574019e-04 1.840627826183e-04 2.638797252895e+06 4.035549805290e+06  3.643272779898e-04
2.083320000000e-04 -6.467228392805e-06 0.000000000000e+00 -4.467288587085e+06 2.469240373878e+03 -4.500466414458e+06 6.014334487164e+04 -2.121132863645e-04 4.939689041975e-07 -2.155013392351e-04 2.184383648444e-04 2.969203885557e+06 4.544113699420e+06  4.322564829296e-04
2.314800000000e-04 -7.585806718539e-06 0.000000000000e+00 -4.964257292057e+06 3.001186016238e+03 -5.003694132183e+06 6.904837633917e+04 -2.484818197305e-04 6.427146164630e-07 -2.527729280732e-04 2.561843251887e-04 3.299634349300e+06 5.053142181669e+06  5.068265460583e-04
3.981500000000e-04 -7.410128942993e-06 0.000000000000e+00 -4.973373779622e+06 3.054071539543e+03 -5.015242026734e+06 -1.060235179157e+05 -2.422294535754e-04 6.634820149587e-07 -2.469023346774e-04 2.364962553794e-04 3.364879774757e+06 4.888421721358e+06  4.810805433352e-04
5.648200000000e-04 -7.198334561862e-06 0.000000000000e+00 -4.973309900532e+06 2.988578440716e+03 -5.014784781029e+06 -2.875137001233e+05 -2.352308451128e-04 6.431806236764e-07 -2.398433558038e-04 2.155493150770e-04 3.425202793895e+06 4.706673541869e+06  4.531053932892e-04
7.314900000000e-04 -6.990565076772e-06 0.000000000000e+00 -4.973293831141e+06 2.923688982790e+03 -5.014397515050e+06 -4.688413117789e+05 -2.283617093177e-04 6.234567114225e-07 -2.329182348765e-04 1.949862770304e-04 3.485510885990e+06 4.525147207377e+06  4.256459109224e-04
8.981600000000e-04 -6.786336603959e-06 0.000000000000e+00 -4.973279210719e+06 2.857442809559e+03 -5.014012792825e+06 -6.502044705941e+05 -2.216094833367e-04 6.036670410721e-07 -2.261111520351e-04 1.747733827381e-04 3.545832158046e+06 4.343587601077e+06  3.986541347098e-04
1.064830000000e-03 -6.585593406950e-06 0.000000000000e+00 -4.973266280654e+06 2.789938609139e+03 -5.013631045486e+06 -8.316008896674e+05 -2.149722991430e-04 5.838490835630e-07 -2.194202447293e-04 1.549050247865e-04 3.606166071936e+06 4.161997384181e+06  3.721226085941e-04
1.231500000000e-03 -6.388276107127e-06 0.000000000000e+00 -4.973255061429e+06 2.721154340308e+03 -5.013252289368e+06 -1.013031200059e+06 -2.084482005760e-04 5.640033852901e-07 -2.128435336641e-04 1.353753369273e-04 3.666512850285e+06 3.980375987381e+06  3.460435191772e-04
1.398170000000e-03 -6.194326381329e-06 0.000000000000e+00 -4.973245575813e+06 2.651070021620e+03 -5.012876543709e+06 -1.194496006912e+06 -2.020352660391e-04 5.441311812619e-07 -2.063790746580e-04 1.161785565541e-04 3.726872708811e+06 3.798722878213e+06  3.204091973463e-04
1.564840000000e-03 -6.003686894253e-06 0.000000000000e+00 -4.973237847023e+06 2.579665297811e+03 -5.012503827949e+06 -1.375995926166e+06 -1.957316064463e-04 5.242336685423e-07 -2.000249564610e-04 9.730901870705e-05 3.787245867046e+06 3.617037524149e+06  2.952121123527e-04
1.731510000000e-03 -5.816301282498e-06 0.000000000000e+00 -4.973231898775e+06 2.506919464045e+03 -5.012134161754e+06 -1.557531584115e+06 -1.895353647006e-04 5.043120157980e-07 -1.937793002223e-04 7.876115449184e-05 3.847632548215e+06 3.435319395844e+06  2.704448729768e-04
1.898180000000e-03 -5.632114137822e-06 0.000000000000e+00 -4.973227755305e+06 2.432811456784e+03 -5.011767565025e+06 -1.739103617925e+06 -1.834447151433e-04 4.843673631185e-07 -1.876402589310e-04 6.052948942143e-05 3.908032979418e+06 3.253567970321e+06  2.461002303416e-04
2.064850000000e-03 -5.451070991280e-06 0.000000000000e+00 -4.973225441395e+06 2.357319845170e+03 -5.011404057854e+06 -1.920712675387e+06 -1.774578630411e-04 4.644008220545e-07 -1.816060168883e-04 4.260864186156e-05 3.968447391545e+06 3.071782736197e+06  2.221710838154e-04
2.231520000000e-03 -5.273118297459e-06 0.000000000000e+00 -4.973224982400e+06 2.280422817746e+03 -5.011043660585e+06 -2.102359415149e+06 -1.715730440615e-04 4.444134745160e-07 -1.756747891815e-04 2.499332145646e-05 4.028876019378e+06 2.889963200394e+06  1.986504920872e-04
2.398190000000e-03 -5.098203418399e-06 0.000000000000e+00 -4.973226404278e+06 2.202098174627e+03 -5.010686393722e+06 -2.284044507064e+06 -1.657885237585e-04 4.244063732257e-07 -1.698448211483e-04 7.678327564312e-06 4.089319101688e+06 2.708108897423e+06  1.755316938758e-04
2.564860000000e-03 -4.926274608781e-06 0.000000000000e+00 -4.973229733627e+06 2.122323309581e+03 -5.010332277976e+06 -2.465768631938e+06 -1.601025970815e-04 4.043805396760e-07 -1.641143878826e-04 -9.341452218694e-06 4.149776881180e+06 2.526219403532e+06  1.528081477237e-04
2.731530000000e-03 -4.757281000504e-06 0.000000000000e+00 -4.973234997721e+06 2.041075200961e+03 -5.009981334228e+06 -2.647532481871e+06 -1.545135878755e-04 3.843369645273e-07 -1.584817937207e-04 -2.607104357169e-05 4.210249604607e+06 2.344294356669e+06  1.304736120626e-04
2.898200000000e-03 -4.591172587912e-06 0.000000000000e+00 -4.973242224548e+06 1.958330395833e+03 -5.009633583517e+06 -2.829336760286e+06 -1.490198483995e-04 3.642766064006e-07 -1.529453717487e-04 -4.251538690608e-05 4.270737522784e+06 2.162333487051e+06  1.085223197978e-04
3.064870000000e-03 -4.427900213250e-06 0.000000000000e+00 -4.973251442863e+06 1.874064992559e+03 -5.009289047024e+06 -3.011182181933e+06 -1.436197588524e-04 3.442003904953e-07 -1.475034833177e-04 -5.867933879839e-05 4.331240890607e+06 1.980336664641e+06  8.694940416043e-05
3.231540000000e-03 -4.267415551981e-06 0.000000000000e+00 -4.973262682235e+06 1.788254625645e+03 -5.008947746048e+06 -3.193069473262e+06 -1.383117268966e-04 3.241092079529e-07 -1.421545175542e-04 -7.456767343362e-05 4.391759967182e+06 1.798303975105e+06  6.575212228813e-05
3.398210000000e-03 -4.109671099090e-06 0.000000000000e+00 -4.973275973109e+06 1.700874444621e+03 -5.008609701983e+06 -3.374999371964e+06 -1.330941872138e-04 3.040039140013e-07 -1.368968909038e-04 -9.018508395234e-05 4.452295015685e+06 1.616235848253e+06  4.493439171172e-05
3.564880000000e-03 -3.954620154942e-06 0.000000000000e+00 -4.973291346871e+06 1.611899094690e+03 -5.008274936265e+06 -3.556972627129e+06 -1.279656010495e-04 2.838853267973e-07 -1.317290466594e-04 -1.055361838340e-04 4.512846303422e+06 1.434133283422e+06  2.453356769556e-05
3.731550000000e-03 -3.802216811423e-06 0.000000000000e+00 -4.973308835931e+06 1.521302688474e+03 -5.007943470460e+06 -3.738989999757e+06 -1.229244557532e-04 2.637542245446e-07 -1.266494544993e-04 -1.206255082831e-04 4.573414102049e+06 1.251998271609e+06  5.285172697814e-06
3.898220000000e-03 -3.652415938714e-06 0.000000000000e+00 -4.973328473794e+06 1.429058787990e+03 -5.007615326016e+06 -3.921052261731e+06 -1.179692643760e-04 2.436113453371e-07 -1.216566100468e-04 -1.354575154763e-04 4.633998687180e+06 1.069834650923e+06  1.597273480410e-05
4.064890000000e-03 -3.505173171793e-06 0.000000000000e+00 -4.973350295178e+06 1.335140366421e+03 -5.007290524473e+06 -4.103160196651e+06 -1.130985652133e-04 2.234573831221e-07 -1.167490344192e-04 -1.500365879347e-04 4.694600338767e+06 8.876500132438e+05  3.525694446666e-05
4.231560000000e-03 -3.360444897503e-06 0.000000000000e+00 -4.973374336122e+06 1.239519772148e+03 -5.006969087321e+06 -4.285314599101e+06 -1.083109214075e-04 2.032929854192e-07 -1.119252737980e-04 -1.643670337570e-04 4.755219340848e+06 7.054605686501e+05  5.434030470458e-05
4.398230000000e-03 -3.218188241897e-06 0.000000000000e+00 -4.973400634129e+06 1.142168682984e+03 -5.006651036171e+06 -4.467516274482e+06 -1.036049205381e-04 1.831187518484e-07 -1.071838990063e-04 -1.784530878761e-04 4.815855981594e+06 5.233061690488e+05  7.312508365044e-05
4.564900000000e-03 -3.078361057474e-06 0.000000000000e+00 -4.973429228366e+06 1.043057997973e+03 -5.006336393097e+06 -4.649766039197e+06 -9.897917422020e-05 1.629352295698e-07 -1.025235050847e-04 -1.922989133196e-04 4.876510553553e+06 3.413134092102e+05  9.159945195781e-05
4.731570000000e-03 -2.940921913659e-06 0.000000000000e+00 -4.973460160270e+06 9.421573666199e+02 -5.006025182472e+06 -4.832064719366e+06 -9.443231778518e-05 1.427428873334e-07 -9.794271097644e-05 -2.059086022827e-04 4.937183354036e+06 1.601885140492e+05  1.097634748094e-04
4.898240000000e-03 -2.805830133568e-06 0.000000000000e+00 -4.973493478954e+06 8.394304712558e+02 -5.005717446210e+06 -5.014413119081e+06 -8.996301102831e-05 1.225418290108e-07 -9.344016073151e-05 -2.192861743180e-04 4.997874681415e+06 3.736738953737e+04  1.276202969122e-04
5.064910000000e-03 -2.673045876683e-06 0.000000000000e+00 -4.973529142428e+06 7.348784712032e+02 -5.005413121445e+06 -5.196812176487e+06 -8.556994741198e-05 1.023405555571e-07 -8.901452630883e-05 -2.324355632318e-04 5.058584813453e+06 2.091754526294e+05  1.451740867158e-04
5.231580000000e-03 -2.542529534401e-06 0.000000000000e+00 -4.973567374903e+06 6.284389563754e+02 -5.005112301700e+06 -5.379262724506e+06 -8.125181762935e-05 8.212522410994e-08 -8.466448735638e-05 -2.453606832456e-04 5.119314133703e+06 3.908802294791e+05  1.624294830520e-04
5.398250000000e-03 -2.414241912903e-06 0.000000000000e+00 -4.973608163334e+06 5.200663175644e+02 -5.004814953823e+06 -5.561765591086e+06 -7.700733102426e-05 6.189973657981e-08 -8.038873738968e-05 -2.580653850871e-04 5.180062902748e+06 5.731922272470e+05  1.793912859875e-04
5.564920000000e-03 -2.288144680622e-06 0.000000000000e+00 -4.973651559357e+06 4.097348237115e+02 -5.004521107132e+06 -5.744321640129e+06 -7.283522662821e-05 4.166544369420e-08 -7.618599864714e-05 -2.705534431649e-04 5.240831435539e+06 7.557086536144e+05  1.960643194566e-04
5.731590000000e-03 -2.164200162195e-06 0.000000000000e+00 -4.973697620915e+06 2.974100231253e+02 -5.004230780355e+06 -5.926931732388e+06 -6.873426478944e-05 2.142246933176e-08 -7.205501524554e-05 -2.828285672471e-04 5.301620044553e+06 9.383403227777e+05  2.124533957193e-04
5.898260000000e-03 -2.042371315065e-06 0.000000000000e+00 -4.973746411007e+06 1.830550880567e+02 -5.003943987317e+06 -6.109596727973e+06 -6.470322706080e-05 1.170683322859e-09 -6.799455239374e-05 -2.948944039385e-04 5.362429042099e+06 1.121056648912e+06  2.285632881436e-04
6.064930000000e-03 -1.922621716659e-06 0.000000000000e+00 -4.973797998222e+06 6.663132384214e+01 -5.003660737942e+06 -6.292317483542e+06 -6.074091591929e-05 -1.909023314854e-08 -6.400339596545e-05 -3.067545377853e-04 5.423258739902e+06 1.303844632426e+06  2.443987162008e-04
6.231600000000e-03 -1.804915551818e-06 0.000000000000e+00 -4.973852457722e+06 -5.190191132723e+01 -5.003381037843e+06 -6.475094847825e+06 -5.684615448854e-05 -3.936079693546e-08 -6.008035208011e-05 -3.184124923264e-04 5.484109447797e+06 1.486698053665e+06  2.599643370771e-04
6.398270000000e-03 -1.689217599774e-06 0.000000000000e+00 -4.973909872574e+06 -1.725874541018e+02 -5.003104887295e+06 -6.657929655847e+06 -5.301778627580e-05 -5.964175268268e-08 -5.622424666808e-05 -3.298717311327e-04 5.544981471905e+06 1.669613753638e+06  2.752647409929e-04
6.564940000000e-03 -1.575493221258e-06 0.000000000000e+00 -4.973970335517e+06 -2.954707003084e+02 -5.002832279959e+06 -6.840822720887e+06 -4.925467494094e-05 -7.993411713439e-08 -5.243392504034e-05 -3.411356588003e-04 5.605875112121e+06 1.852590109193e+06  2.903044486248e-04
6.731610000000e-03 -1.463708344287e-06 0.000000000000e+00 -4.974033951266e+06 -4.206000701914e+02 -5.002563200906e+06 -7.023774824236e+06 -4.555570409763e-05 -1.002392351593e-07 -4.870825141329e-05 -3.522076219543e-04 5.666790658803e+06 2.035626322796e+06  3.050879098604e-04
6.898280000000e-03 -1.353829449045e-06 0.000000000000e+00 -4.974100839597e+06 -5.480276218256e+02 -5.002297623923e+06 -7.206786700885e+06 -4.191977717372e-05 -1.205588542383e-07 -4.504610840363e-05 -3.630909102108e-04 5.727728388135e+06 2.218722054054e+06  3.196195033211e-04
7.064950000000e-03 -1.245823552164e-06 0.000000000000e+00 -4.974171139547e+06 -6.778098592956e+02 -5.002035507919e+06 -7.389859018237e+06 -3.834581737348e-05 -1.408952230211e-07 -4.144639650193e-05 -3.737887570255e-04 5.788688555234e+06 2.401877205776e+06  3.339035362649e-04
7.231620000000e-03 -1.139658186741e-06 0.000000000000e+00 -4.974245015235e+06 -8.100088057285e+02 -5.001776791647e+06 -7.572992348918e+06 -3.483276770279e-05 -1.612512225252e-07 -3.790803340348e-05 -3.843043406583e-04 5.849671385267e+06 2.585091785767e+06  3.479442449981e-04
7.398290000000e-03 -1.035301380819e-06 0.000000000000e+00 -4.974322664125e+06 -9.446934453152e+02 -5.001521386200e+06 -7.756187126978e+06 -3.137959122849e-05 -1.816305427901e-07 -3.442995328648e-05 -3.946407848729e-04 5.910677059101e+06 2.768365795759e+06  3.617457951703e-04
7.564960000000e-03 -9.327216289174e-07 0.000000000000e+00 -4.974404329080e+06 -1.081941710518e+03 -5.001269163992e+06 -7.939443585111e+06 -2.798527155389e-05 -2.020379273403e-07 -3.101110585598e-05 -4.048011596731e-04 5.971705692728e+06 2.951699126068e+06  3.753122822802e-04
7.731630000000e-03 -8.318878555783e-07 0.000000000000e+00 -4.974490316474e+06 -1.221843233615e+03 -5.001019941655e+06 -8.122761653412e+06 -2.464881377689e-05 -2.224795121758e-07 -2.765045511805e-05 -4.147884817176e-04 6.032757303847e+06 3.135091426444e+06  3.886477318689e-04
7.898300000000e-03 -7.327693620391e-07 0.000000000000e+00 -4.974581024434e+06 -1.364503231236e+03 -5.000773453036e+06 -8.306140798419e+06 -2.136924611458e-05 -2.429633058716e-07 -2.434697758426e-05 -4.246057145987e-04 6.093831758630e+06 3.318541926064e+06  4.017560996075e-04
8.064970000000e-03 -6.353357487103e-07 0.000000000000e+00 -4.974676988812e+06 -1.510048010771e+03 -5.000529304354e+06 -8.489579740700e+06 -1.814562290513e-05 -2.634998723770e-07 -2.109965965707e-05 -4.342557682838e-04 6.154928677955e+06 3.502049137739e+06  4.146412703222e-04
8.231640000000e-03 -5.395567870117e-07 0.000000000000e+00 -4.974778962019e+06 -1.658632686953e+03 -5.000286895164e+06 -8.673075940094e+06 -1.497703004150e-05 -2.841032930514e-07 -1.790749330173e-05 -4.437414974429e-04 6.216047265759e+06 3.685610333963e+06  4.273070555770e-04
8.398310000000e-03 -4.454021950196e-07 0.000000000000e+00 -4.974888057163e+06 -1.810451223723e+03 -5.000045269117e+06 -8.856624563603e+06 -1.186259551937e-05 -3.047924325650e-07 -1.476946845695e-05 -4.530656968599e-04 6.277185963294e+06 3.869220510116e+06  4.397571874146e-04
8.564980000000e-03 -3.528412016067e-07 0.000000000000e+00 -4.975006033471e+06 -1.965745428161e+03 -4.999802803756e+06 -9.040216172843e+06 -8.801511506236e-06 -3.255921255948e-07 -1.168455826334e-05 -4.622310897610e-04 6.338341670023e+06 4.052870077803e+06  4.519953027969e-04
8.731650000000e-03 -2.618415911653e-07 0.000000000000e+00 -4.975135920019e+06 -2.124789103497e+03 -4.999556475044e+06 -9.223830628083e+06 -5.793086059072e-06 -3.465314695356e-07 -8.651686609125e-06 -4.712402955882e-04 6.399507674382e+06 4.236538816902e+06  4.640249013345e-04
8.898320000000e-03 -1.723672276767e-07 0.000000000000e+00 -4.975283535026e+06 -2.287693022843e+03 -4.999299739965e+06 -9.407416348269e+06 -2.836884643731e-06 -3.676207687019e-07 -5.669643726012e-06 -4.800957261460e-04 6.460666541086e+06 4.420175419933e+06  4.758492118659e-04
9.064990000000e-03 -8.436978904077e-08 0.000000000000e+00 -4.975460913479e+06 -2.452707217602e+03 -4.999014097432e+06 -9.590773902411e+06 6.680635455998e-08 -3.886485063786e-07 -2.736803045305e-06 -4.887991596161e-04 6.521749637774e+06 4.603583546518e+06  4.874706727954e-04
9.231660000000e-03 2.250051137342e-09 0.000000000000e+00 -4.975647808995e+06 -2.596483485935e+03 -4.998619749407e+06 -9.772029960995e+06 2.917320100357e-06 -4.068151646170e-07 1.502129369143e-07 -4.973514658649e-04 6.582099173132e+06 4.784939652520e+06  4.988914854431e-04
9.398330000000e-03 8.787853772337e-08 0.000000000000e+00 -4.975835050418e+06 -2.724761943487e+03 -4.998375620599e+06 -9.949064552495e+06 5.744552066416e-06 -4.232026773380e-07 3.004853686314e-06 -5.058251738853e-04 6.641091741171e+06 4.961999859129e+06  5.102059202023e-04
9.565000000000e-03 1.739189260793e-07 0.000000000000e+00 -4.975839622587e+06 -2.582725531740e+03 -4.998124690632e+06 -1.012391761939e+07 8.597291972617e-06 -4.049103082259e-07 5.873923684357e-06 -5.143521053766e-04 6.699293977536e+06 5.136973664362e+06  5.215935169984e-04
9.731670000000e-03 2.613964291616e-07 0.000000000000e+00 -4.975806033365e+06 -2.447486931522e+03 -4.998229336271e+06 -1.029980436102e+07 1.152309709624e-05 -3.870845947466e-07 8.790375430833e-06 -5.230685681157e-04 6.757946576885e+06 5.312823857497e+06  5.332309776819e-04
9.898340000000e-03 3.504504046242e-07 0.000000000000e+00 -4.975761220908e+06 -2.316562916504e+03 -4.998346876121e+06 -1.047593188002e+07 1.450318278359e-05 -3.695560540033e-07 1.175934262031e-05 -5.319442143620e-04 6.816679992349e+06 5.488914148757e+06  5.450810324215e-04
1.006501000000e-02 4.410489869167e-07 0.000000000000e+00 -4.975708996110e+06 -2.182807039217e+03 -4.998473694743e+06 -1.065216169476e+07 1.753607926035e-05 -3.513535454719e-07 1.477979740776e-05 -5.409753083449e-04 6.875448128539e+06 5.665105915207e+06  5.571386925356e-04
1.023168000000e-02 5.332160901150e-07 0.000000000000e+00 -4.975652570327e+06 -2.048032365345e+03 -4.998610224670e+06 -1.082847937409e+07 2.062243394044e-05 -3.327049394430e-07 1.785253704133e-05 -5.501641216020e-04 6.934247389695e+06 5.841382889123e+06  5.694069515595e-04
1.039835000000e-02 6.269824015244e-07 0.000000000000e+00 -4.975594078437e+06 -1.913401573328e+03 -4.998754766672e+06 -1.100487906876e+07 2.376303715186e-05 -3.137620024453e-07 2.097858534157e-05 -5.595133722564e-04 6.993075971290e+06 6.017738986147e+06  5.818894338530e-04
1.056502000000e-02 7.223785261456e-07 0.000000000000e+00 -4.975534812164e+06 -1.779571352507e+03 -4.998906068196e+06 -1.118135694073e+07 2.695875558745e-05 -2.946129120511e-07 2.415896298579e-05 -5.690258741663e-04 7.051932607031e+06 6.194170335874e+06  5.945898962937e-04
1.073169000000e-02 8.194348325380e-07 0.000000000000e+00 -4.975475596574e+06 -1.646932548984e+03 -4.999063285922e+06 -1.135791005004e+07 3.021050307040e-05 -2.753122056044e-07 2.739468256331e-05 -5.787044972260e-04 7.110816310844e+06 6.370673997924e+06  6.075121714637e-04
1.089836000000e-02 9.181817023809e-07 0.000000000000e+00 -4.975416984179e+06 -1.515729073579e+03 -4.999225838284e+06 -1.153453598516e+07 3.351922769186e-05 -2.558957729197e-07 3.068675699153e-05 -5.885521623214e-04 7.169726269207e+06 6.547247567909e+06  6.206601603338e-04
1.106503000000e-02 1.018649715738e-06 0.000000000000e+00 -4.975359359111e+06 -1.386118276501e+03 -4.999393308980e+06 -1.171123268126e+07 3.688590540272e-05 -2.363884937290e-07 3.403620573852e-05 -5.985718413175e-04 7.228661783116e+06 6.723888991124e+06  6.340378321252e-04
1.123170000000e-02 1.120869770231e-06 0.000000000000e+00 -4.975302996222e+06 -1.258203647480e+03 -4.999565389063e+06 -1.188799831538e+07 4.031153661498e-05 -2.168083812719e-07 3.744405881959e-05 -6.087665579832e-04 7.287622233554e+06 6.900596456754e+06  6.476492255148e-04
1.139837000000e-02 1.224873159187e-06 0.000000000000e+00 -4.975248096484e+06 -1.132053601234e+03 -4.999741841671e+06 -1.206483124150e+07 4.379714434455e-05 -1.971689650855e-07 4.091135941542e-05 -6.191393891196e-04 7.346607059884e+06 7.077368332594e+06  6.614984501310e-04
1.156504000000e-02 1.330691624772e-06 0.000000000000e+00 -4.975194809204e+06 -1.007712838589e+03 -4.999922479732e+06 -1.224172994684e+07 4.734377316671e-05 -1.774807332098e-07 4.443916565104e-05 -6.296934656386e-04 7.405615745257e+06 7.254203121214e+06  6.755896879911e-04
1.173171000000e-02 1.438357396026e-06 0.000000000000e+00 -4.975143246524e+06 -8.852095284132e+02 -5.000107151914e+06 -1.241869302265e+07 5.095248868136e-05 -1.577520447738e-07 4.802855186862e-05 -6.404319736664e-04 7.464647807028e+06 7.431099430407e+06  6.899271949693e-04
1.189838000000e-02 1.547903218686e-06 0.000000000000e+00 -4.975093493206e+06 -7.645600078244e+02 -5.000295732804e+06 -1.259571914364e+07 5.462437726437e-05 -1.379897275264e-07 5.168060962483e-05 -6.513581556441e-04 7.523702789883e+06 7.608055952546e+06  7.045153022673e-04
1.206505000000e-02 1.659362378451e-06 0.000000000000e+00 -4.975045613418e+06 -6.457719654885e+02 -5.000488116249e+06 -1.277280705220e+07 5.836054598967e-05 -1.181994830512e-07 5.539644846831e-05 -6.624753113615e-04 7.582780260621e+06 7.785071448654e+06  7.193584177950e-04
1.223172000000e-02 1.772768720850e-06 0.000000000000e+00 -4.974999655569e+06 -5.288466506792e+02 -5.000684210865e+06 -1.294995554767e+07 6.216212270527e-05 -9.838616816197e-08 5.917719660364e-05 -6.737867990591e-04 7.641879804701e+06 7.962144737491e+06  7.344610276410e-04
1.239839000000e-02 1.888156668755e-06 0.000000000000e+00 -4.974955655837e+06 -4.137804567683e+02 -5.000883936716e+06 -1.312716347802e+07 6.603025618365e-05 -7.855399739243e-08 6.302400147614e-05 -6.852960365188e-04 7.701001023525e+06 8.139274687053e+06  7.498276975287e-04
1.256506000000e-02 2.005561238299e-06 0.000000000000e+00 -4.974913640759e+06 -3.005660563877e+02 -5.001087222665e+06 -1.330442973286e+07 6.996611631841e-05 -5.870668779315e-08 6.693803030311e-05 -6.970065021314e-04 7.760143532093e+06 8.316460207579e+06  7.654630742472e-04
1.273173000000e-02 2.125018053636e-06 0.000000000000e+00 -4.974873629204e+06 -1.891932543466e+02 -5.001294004756e+06 -1.348175323882e+07 7.397089439368e-05 -3.884756854827e-08 7.092047056657e-05 -7.089217360338e-04 7.819306957592e+06 8.493700246773e+06  7.813718871682e-04
1.289840000000e-02 2.246563361230e-06 0.000000000000e+00 -4.974835633869e+06 -7.964962283361e+01 -5.001504224716e+06 -1.365913295547e+07 7.804580336985e-05 -1.897966258148e-08 7.497253048992e-05 -7.210453412310e-04 7.878490938018e+06 8.670993785643e+06  7.975589497479e-04
1.306507000000e-02 2.370234043440e-06 0.000000000000e+00 -4.974799662454e+06 2.807901015350e+01 -5.001717828982e+06 -1.383656787214e+07 8.219207820438e-05 8.942502664465e-10 7.909543949124e-05 -7.333809847430e-04 7.937695121194e+06 8.848339835242e+06  8.140291610618e-04
1.323174000000e-02 2.496067632003e-06 0.000000000000e+00 -4.974765718565e+06 1.340081859503e+02 -5.001934767782e+06 -1.401405700510e+07 8.641097618463e-05 2.077158465987e-08 8.329044863273e-05 -7.459323987568e-04 7.996919163817e+06 9.025737433815e+06  8.307875073455e-04
1.339841000000e-02 2.624102321369e-06 0.000000000000e+00 -4.974733802450e+06 2.381545184898e+02 -5.002154994570e+06 -1.419159939567e+07 9.070377729414e-05 4.064991088035e-08 8.755883106563e-05 -7.587033818272e-04 8.056162730897e+06 9.203185644832e+06  8.478390636017e-04
1.356508000000e-02 2.754376981911e-06 0.000000000000e+00 -4.974703911571e+06 3.405354648331e+02 -5.002378465482e+06 -1.436919410829e+07 9.507178458407e-05 6.052692482988e-08 9.190188247059e-05 -7.716978000729e-04 8.115425495113e+06 9.380683555029e+06  8.651889952017e-04
1.373175000000e-02 2.886931173205e-06 0.000000000000e+00 -4.974676041082e+06 4.411691366983e+02 -5.002605138934e+06 -1.454684022904e+07 9.951632456191e-05 8.040042285870e-08 9.632092150061e-05 -7.849195884045e-04 8.174707136352e+06 9.558230272878e+06  8.828425595282e-04
1.389842000000e-02 3.021805157436e-06 0.000000000000e+00 -4.974650184206e+06 5.400741523092e+02 -5.002834975275e+06 -1.472453686442e+07 1.040387475949e-04 1.002682819695e-07 1.008172902277e-04 -7.983727517763e-04 8.234007341301e+06 9.735824927325e+06  9.008051076528e-04
1.406509000000e-02 3.159039912905e-06 0.000000000000e+00 -4.974626332560e+06 6.372695145139e+02 -5.003067936530e+06 -1.490228314033e+07 1.086404283256e-04 1.201284432210e-07 1.053923545936e-04 -8.120613664652e-04 8.293325803139e+06 9.913466666746e+06  9.190820860466e-04
1.423176000000e-02 3.298677147355e-06 0.000000000000e+00 -4.974604476401e+06 7.327745121177e+02 -5.003303986194e+06 -1.508007820079e+07 1.133227660912e-04 1.399788981437e-07 1.100475048538e-04 -8.259895813419e-04 8.352662221129e+06 1.009115465767e+07  9.376790382841e-04
1.439843000000e-02 3.440759312015e-06 0.000000000000e+00 -4.974584604857e+06 8.266086395866e+02 -5.003543089017e+06 -1.525792120744e+07 1.180871853648e-04 1.598176775483e-07 1.147841560456e-04 -8.401616192106e-04 8.412016300439e+06 1.026888808419e+07  9.566016068361e-04
1.456510000000e-02 3.585329615578e-06 0.000000000000e+00 -4.974566706100e+06 9.187915288114e+02 -5.003785210853e+06 -1.543581133878e+07 1.229351362033e-04 1.796428416967e-07 1.196037484544e-04 -8.545817781543e-04 8.471387751911e+06 1.044666614726e+07  9.758555348726e-04
1.473177000000e-02 3.732432038078e-06 0.000000000000e+00 -4.974550767504e+06 1.009342893068e+03 -5.004030318601e+06 -1.561374778939e+07 1.278680947022e-04 1.994524720659e-07 1.245077480761e-04 -8.692544328897e-04 8.530776291830e+06 1.062448806383e+07  9.954466680758e-04
1.489844000000e-02 3.882111345457e-06 0.000000000000e+00 -4.974536775769e+06 1.098282482654e+03 -5.004278379968e+06 -1.579172976918e+07 1.328875634554e-04 2.192446648192e-07 1.294976471026e-04 -8.841840361507e-04 8.590181641640e+06 1.080235306616e+07  1.015380956496e-03
1.506511000000e-02 4.034413104362e-06 0.000000000000e+00 -4.974524717038e+06 1.185630044866e+03 -5.004529363495e+06 -1.596975650349e+07 1.379950720512e-04 2.390175245334e-07 1.345749644154e-04 -8.993751201522e-04 8.649603528008e+06 1.098026040180e+07  1.035664456511e-03
1.523178000000e-02 4.189383696682e-06 0.000000000000e+00 -4.974514576989e+06 1.271405289094e+03 -5.004783238432e+06 -1.614782723199e+07 1.431921775437e-04 2.587691584342e-07 1.397412460699e-04 -9.148322979924e-04 8.709041682472e+06 1.115820933259e+07  1.056303332705e-03
1.539845000000e-02 4.347070334559e-06 0.000000000000e+00 -4.974506340910e+06 1.355627864491e+03 -5.005039974674e+06 -1.632594120823e+07 1.484804649475e-04 2.784976729718e-07 1.449980657957e-04 -9.305602651169e-04 8.768495841271e+06 1.133619913410e+07  1.077303859829e-03
1.556512000000e-02 4.507521076313e-06 0.000000000000e+00 -4.974499993776e+06 1.438317332781e+03 -5.005299542711e+06 -1.650409769983e+07 1.538615477647e-04 2.982011688524e-07 1.503470255278e-04 -9.465638008754e-04 8.827965745439e+06 1.151422909591e+07  1.098672424888e-03
1.573179000000e-02 4.670784841502e-06 0.000000000000e+00 -4.974495520307e+06 1.519493150186e+03 -5.005561913570e+06 -1.668229598745e+07 1.593370684820e-04 3.178777377781e-07 1.557897559081e-04 -9.628477699893e-04 8.887451140442e+06 1.169229852049e+07  1.120415529111e-03
1.589846000000e-02 4.836911427477e-06 0.000000000000e+00 -4.974492905015e+06 1.599174651966e+03 -5.005827058746e+06 -1.686053536504e+07 1.649086991167e-04 3.375254594883e-07 1.613279168380e-04 -9.794171241639e-04 8.946951776266e+06 1.187040672349e+07  1.142539790104e-03
1.606513000000e-02 5.005951524793e-06 0.000000000000e+00 -4.974492132255e+06 1.677381036094e+03 -5.006094950243e+06 -1.703881513886e+07 1.705781417380e-04 3.571423982852e-07 1.669631979911e-04 -9.962769036139e-04 9.006467407119e+06 1.204855303273e+07  1.165051943899e-03
1.623180000000e-02 5.177956734500e-06 0.000000000000e+00 -4.974493186262e+06 1.754131354280e+03 -5.006365560460e+06 -1.721713462779e+07 1.763471290327e-04 3.767266010975e-07 1.726973193905e-04 -1.013432238736e-03 9.065997791504e+06 1.222673678852e+07  1.187958847200e-03
1.639847000000e-02 5.352979584287e-06 0.000000000000e+00 -4.974496051187e+06 1.829444499083e+03 -5.006638862224e+06 -1.739549316249e+07 1.822174248504e-04 3.962760943337e-07 1.785320319461e-04 -1.030888351705e-03 9.125542691968e+06 1.240495734281e+07  1.211267479509e-03