 TITLE = "Time curves in points"
 VARIABLES = "TIME "  "DISPLACEMENT_X1"  "DISPLACEMENT_Y1"  "STRESS_XX"  "STRESS_XY"  "STRESS_YY"  "STRESS_ZZ"  "STRAIN_XX"  "STRAIN_XY"  "STRAIN_YY"  "STRAIN_ZZ"  p_(1st_Invariant)  q_(2nd_Invariant)   Effective_Strain
 ZONE T="POINT=POINT3"
0.000000000000e+00 0.000000000000e+00 0.000000000000e+00 0.000000000000e+00 0.000000000000e+00 0.000000000000e+00 0.000000000000e+00 0.000000000000e+00 0.000000000000e+00 0.000000000000e+00 0.000000000000e+00 -0.000000000000e+00 0.000000000000e+00  0.000000000000e+00
2.314800000000e-05 0.000000000000e+00 1.878504671322e-06 -4.837005495355e+05 -2.164843796279e-05 -4.837005495344e+05 -5.244621812988e-06 -1.553738318090e-05 -2.738213572984e-15 -1.553738318084e-05 1.565420561068e-05 3.224670330250e+05 4.837005495297e+05  3.119158879155e-05
4.629600000000e-05 0.000000000000e+00 3.805470194827e-06 -9.800479708048e+05 -1.699414227223e+03 -9.785750273753e+05 -2.416693704815e+03 -3.147655952072e-05 -2.179897478835e-07 -3.137953067655e-05 3.158851014991e-05 6.536798972950e+05 9.769000726720e+05  6.301774238205e-05
6.944400000000e-05 0.000000000000e+00 5.737861322875e-06 -1.476925606418e+06 -3.486104356454e+03 -1.473889446598e+06 -4.843259835574e+03 -4.744804239499e-05 -4.475279612361e-07 -4.724795642704e-05 4.755198208862e-05 9.852194376172e+05 1.470579013479e+06  9.490330530733e-05
9.259200000000e-05 0.000000000000e+00 7.671097827890e-06 -1.973961718221e+06 -5.267701569579e+03 -1.969361695394e+06 -7.287584920145e+03 -6.343742274043e-05 -6.767146825154e-07 -6.313429686613e-05 6.353283331753e-05 1.316870332845e+06 1.964399350167e+06  1.268243812014e-04
1.157400000000e-04 0.000000000000e+00 9.604925389478e-06 -2.471156741853e+06 -7.052056932477e+03 -2.464982100011e+06 -9.782690296632e+03 -7.944449561101e-05 -9.065623662882e-07 -7.903768699376e-05 7.952947550404e-05 1.648640510720e+06 2.458322891565e+06  1.587787220315e-04
1.388880000000e-04 0.000000000000e+00 1.153950887579e-05 -2.968527656545e+06 -8.848639779731e+03 -2.960761298101e+06 -1.233944723964e+04 -9.547016348978e-05 -1.138284990237e-06 -9.495860376442e-05 9.554227180355e-05 1.980542800629e+06 2.952352472720e+06  1.907673581598e-04
1.620360000000e-04 0.000000000000e+00 1.347503903771e-05 -3.466073960216e+06 -1.066602128024e+04 -3.456696229007e+06 -1.496411990125e+04 -1.115149128633e-04 -1.372983494815e-06 -1.108973558510e-04 1.115714366210e-04 2.312578103041e+06 3.446480057005e+06  2.227909051431e-04
1.851840000000e-04 0.000000000000e+00 1.541169471613e-05 -3.963776127270e+06 -1.251672175506e+04 -3.952767986224e+06 -1.766653728890e+04 -1.275784994836e-04 -1.612272030962e-06 -1.268537288359e-04 1.276164369228e-04 2.644736883594e+06 3.940676686729e+06  2.548486243321e-04
2.083320000000e-04 0.000000000000e+00 1.734963607496e-05 -4.461614103971e+06 -1.441725944187e+04 -4.448958238873e+06 -2.046084194906e+04 -1.436603399784e-04 -1.858280642114e-06 -1.428272418372e-04 1.436762961673e-04 2.977011061598e+06 4.434909176436e+06  2.869390467110e-04
2.314800000000e-04 0.000000000000e+00 1.928900223003e-05 -4.959595027125e+06 -1.637258737569e+04 -4.945276161123e+06 -2.334944885054e+04 -1.597606896666e-04 -2.111650800351e-06 -1.588182791965e-04 1.597512670783e-04 3.309406879033e+06 4.929183318240e+06  3.190627593976e-04
3.981500000000e-04 0.000000000000e+00 1.830137942850e-05 -4.973890246654e+06 -1.845081102174e+04 -4.957821051811e+06 -2.054971323516e+05 -1.573417910596e-04 -2.376015035540e-06 -1.562874475727e-04 1.515170116172e-04 3.379069476939e+06 4.760486127571e+06  3.083604460798e-04
5.648200000000e-04 0.000000000000e+00 1.727302369461e-05 -4.974613256210e+06 -1.853461444797e+04 -4.958626809170e+06 -3.862363469767e+05 -1.544844280289e-04 -2.386905322640e-06 -1.534353199894e-04 1.429425095206e-04 3.439825470786e+06 4.580517108255e+06  2.969325559238e-04
7.314900000000e-04 0.000000000000e+00 1.624481907747e-05 -4.975237573837e+06 -1.862785703123e+04 -4.959333609578e+06 -5.669286969396e+05 -1.516240755227e-04 -2.399008927654e-06 -1.505801879552e-04 1.343655436292e-04 3.500499960118e+06 4.400496732707e+06  2.854993462121e-04
8.981600000000e-04 0.000000000000e+00 1.521659830803e-05 -4.975884267897e+06 -1.871657980975e+04 -4.960061065921e+06 -7.476222879260e+05 -1.487637228934e-04 -2.410536158667e-06 -1.477249479406e-04 1.257873399607e-04 3.561189207248e+06 4.220497130997e+06  2.740649566326e-04
1.064830000000e-03 0.000000000000e+00 1.418834940145e-05 -4.976552399980e+06 -1.880019106482e+04 -4.960808607290e+06 -9.283197876202e+05 -1.459032979963e-04 -2.421411463941e-06 -1.448695513134e-04 1.172077553078e-04 3.621893598297e+06 4.040514937149e+06  2.626291958729e-04
1.231500000000e-03 0.000000000000e+00 1.316006652574e-05 -4.977241362988e+06 -1.887836487233e+04 -4.961575809675e+06 -1.109020937634e+06 -1.430427894790e-04 -2.431593296053e-06 -1.420139984022e-04 1.086267954836e-04 3.682612703432e+06 3.860549965143e+06  2.511920797335e-04
1.398170000000e-03 0.000000000000e+00 1.213174409244e-05 -4.977950595107e+06 -1.895078564626e+04 -4.962362291126e+06 -1.289725516370e+06 -1.401821873537e-04 -2.441041418381e-06 -1.391582906968e-04 1.000444676473e-04 3.743346134201e+06 3.680602049909e+06  2.397536296242e-04
1.564840000000e-03 0.000000000000e+00 1.110337674481e-05 -4.978679575139e+06 -1.901714193254e+04 -4.963167705510e+06 -1.470433308060e+06 -1.373214833497e-04 -2.449716110404e-06 -1.363024310988e-04 9.146078153818e-05 3.804093529570e+06 3.500671076367e+06  2.283138748298e-04
1.731510000000e-03 0.000000000000e+00 1.007495934466e-05 -4.979427815415e+06 -1.907712675349e+04 -4.963991734689e+06 -1.651144102413e+06 -1.344606707148e-04 -2.457578211124e-06 -1.334464236753e-04 8.287574927067e-05 3.864854550839e+06 3.320756977113e+06  2.168728530743e-04
1.898180000000e-03 0.000000000000e+00 9.046486902141e-06 -4.980194867195e+06 -1.913043704877e+04 -4.964834093761e+06 -1.831857691136e+06 -1.315997444470e-04 -2.464589047032e-06 -1.305902738817e-04 7.428938567090e-05 3.925628884031e+06 3.140859747636e+06  2.054306124035e-04
2.064850000000e-03 0.000000000000e+00 8.017954455616e-06 -4.980980332786e+06 -1.917677235836e+04 -4.965694543761e+06 -2.012573862892e+06 -1.287387017573e-04 -2.470710263254e-06 -1.277339890600e-04 6.570170892568e-05 3.986416246479e+06 2.960979472507e+06  1.939872140949e-04
2.231520000000e-03 0.000000000000e+00 6.989356981143e-06 -4.981783871343e+06 -1.921583310228e+04 -4.966572898242e+06 -2.193292397420e+06 -1.258775423481e-04 -2.475903603349e-06 -1.248775787686e-04 5.711274109478e-05 4.047216389002e+06 2.781116349556e+06  1.825427359244e-04
2.398190000000e-03 0.000000000000e+00 5.960689337773e-06 -4.982605192474e+06 -1.924731909677e+04 -4.967469017260e+06 -2.374013059854e+06 -1.230162683143e-04 -2.480130719478e-06 -1.220210547062e-04 4.852250823214e-05 4.108029089862e+06 2.601270706494e+06  1.710972756346e-04
2.564860000000e-03 0.000000000000e+00 4.931946274800e-06 -4.983444044510e+06 -1.927092889442e+04 -4.968382795122e+06 -2.554735596152e+06 -1.201548838692e-04 -2.483353087867e-06 -1.191644304045e-04 3.993104026266e-05 4.168854145261e+06 2.421443018291e+06  1.596509554393e-04
2.731530000000e-03 0.000000000000e+00 3.903122490703e-06 -4.984300207688e+06 -1.928636040909e+04 -4.969314152320e+06 -2.735459731123e+06 -1.172933951886e-04 -2.485532088189e-06 -1.163077209924e-04 3.133837085752e-05 4.229691363710e+06 2.241633938468e+06  1.482039289100e-04
2.898200000000e-03 0.000000000000e+00 2.874212590929e-06 -4.985173501484e+06 -1.929331103763e+04 -4.970263042536e+06 -2.916185166800e+06 -1.144318106787e-04 -2.486629018393e-06 -1.134509434418e-04 2.274453774473e-05 4.290540570273e+06 2.061844363858e+06  1.367563923665e-04
3.064870000000e-03 0.000000000000e+00 1.845211050611e-06 -4.986063781005e+06 -1.929147833689e+04 -4.971229449715e+06 -3.096911582730e+06 -1.115701408506e-04 -2.486605180059e-06 -1.105941164867e-04 1.414958259934e-05 4.351401604483e+06 1.882075519068e+06  1.253086014236e-04
3.231540000000e-03 0.000000000000e+00 8.161122089201e-07 -4.986970931553e+06 -1.928056169650e+04 -4.972213383621e+06 -3.277638638040e+06 -1.087083981138e-04 -2.485422090942e-06 -1.077372604794e-04 5.553550826396e-06 4.412274317738e+06 1.702329093270e+06  1.138608974760e-04
3.398210000000e-03 0.000000000000e+00 -2.130897256554e-07 -4.987894876106e+06 -1.926026528021e+04 -4.973214887675e+06 -3.458365975473e+06 -1.058465969731e-04 -2.483041859847e-06 -1.048803976116e-04 -3.043508301881e-06 4.473158579751e+06 1.522607489414e+06  1.024137529512e-04
3.564880000000e-03 0.000000000000e+00 -1.242400654995e-06 -4.988835582088e+06 -1.923030059042e+04 -4.974234046063e+06 -3.639093224865e+06 -1.029847542255e-04 -2.479427513845e-06 -1.020235521322e-04 -1.164154146765e-05 4.534054284338e+06 1.342914270333e+06  9.096785048279e-05
3.731550000000e-03 0.000000000000e+00 -2.271826569061e-06 -4.989793060847e+06 -1.919038795338e+04 -4.975270983723e+06 -3.819820004947e+06 -1.001228889570e-04 -2.474543187893e-06 -9.916675037780e-05 -2.024049125454e-05 4.594961349839e+06 1.163255009134e+06  7.952422972531e-05
3.898220000000e-03 0.000000000000e+00 -3.301373533296e-06 -4.990767361872e+06 -1.914025732664e+04 -4.976325860965e+06 -4.000545923755e+06 -9.726102240154e-05 -2.468354227587e-06 -9.631002065887e-05 -2.884029618319e-05 4.655879715531e+06 9.836390689727e+05  6.808458172355e-05
4.064890000000e-03 0.000000000000e+00 -4.331047691707e-06 -4.991758569750e+06 -1.907964883000e+04 -4.977398870520e+06 -4.181270578968e+06 -9.439917789360e-05 -2.460827255059e-06 -9.345339322068e-05 -3.744089065503e-05 4.716809339746e+06 8.040837763469e+05  5.665189962455e-05
4.231560000000e-03 0.000000000000e+00 -5.360855264390e-06 -4.992766803134e+06 -1.900831337021e+04 -4.978490236337e+06 -4.361993557361e+06 -9.153738090174e-05 -2.451930242430e-06 -9.059690027239e-05 -4.604220479408e-05 4.777750198944e+06 6.246257915722e+05  4.523211366678e-05
4.398230000000e-03 0.000000000000e+00 -6.390802547225e-06 -4.993792222186e+06 -1.892601366305e+04 -4.979600220142e+06 -4.542714436003e+06 -8.867565930880e-05 -2.441632623086e-06 -8.774057622695e-05 -5.464416411586e-05 4.838702292777e+06 4.453599299735e+05  3.383902303008e-05
4.564900000000e-03 0.000000000000e+00 -7.420895900544e-06 -4.994835031574e+06 -1.883252526798e+04 -4.980729123218e+06 -4.723432782899e+06 -8.581404354534e-05 -2.429905356850e-06 -8.488445781230e-05 -6.324668932119e-05 4.899665645897e+06 2.666341576264e+05  2.251409860340e-05
4.731570000000e-03 0.000000000000e+00 -8.451141715506e-06 -4.995895460274e+06 -1.872763616199e+04 -4.981877264051e+06 -4.904148157865e+06 -8.295256591791e-05 -2.416720533440e-06 -8.202858353682e-05 -7.184969680343e-05 4.960640294063e+06 9.154298829084e+04  1.146255665123e-05
4.898240000000e-03 0.000000000000e+00 -9.481546152499e-06 -4.996973788827e+06 -1.861118181970e+04 -4.983044944055e+06 -5.084860194289e+06 -8.009126138232e-05 -2.402050593151e-06 -7.917299463748e-05 -8.045309805931e-05 5.021626309057e+06 1.009025140775e+05  4.314619721275e-06
5.064910000000e-03 0.000000000000e+00 -1.051211314429e-05 -4.998070068093e+06 -1.848284029541e+04 -4.984232559566e+06 -5.265568182172e+06 -7.723016976270e-05 -2.385867238317e-06 -7.631773845041e-05 -8.905678471093e-05 5.082623603277e+06 2.765376489178e+05  1.298342840960e-05
5.231580000000e-03 0.000000000000e+00 -1.154285188792e-05 -4.999184489047e+06 -1.834252804088e+04 -4.985440206620e+06 -5.446271735368e+06 -7.436931881385e-05 -2.368157961772e-06 -7.346284588695e-05 -9.766067823872e-05 5.143632143678e+06 4.552253832007e+05  2.410905680799e-05
5.398250000000e-03 0.000000000000e+00 -1.257377273432e-05 -5.000317327621e+06 -1.819003846057e+04 -4.986668304819e+06 -5.626970345291e+06 -7.150872777736e-05 -2.348895016882e-06 -7.060834312181e-05 -1.062647168102e-04 5.204651992577e+06 6.343706599481e+05  3.544905004080e-05
5.564920000000e-03 0.000000000000e+00 -1.360488454653e-05 -5.001468751903e+06 -1.802522139228e+04 -4.987917104936e+06 -5.807663518129e+06 -6.864842444692e-05 -2.328058162358e-06 -6.775426350979e-05 -1.148688171870e-04 5.265683124989e+06 8.136544972546e+05  4.684775622098e-05
5.731590000000e-03 0.000000000000e+00 -1.463619621660e-05 -5.002638938534e+06 -1.784793644203e+04 -4.989186863110e+06 -5.988350748762e+06 -6.578843836729e-05 -2.305629105844e-06 -6.490064172494e-05 -1.234728916581e-04 5.326725516802e+06 9.929875363161e+05  5.827043997606e-05
5.898260000000e-03 0.000000000000e+00 -1.566771672950e-05 -5.003828058958e+06 -1.765805802124e+04 -4.990477826199e+06 -6.169031526761e+06 -6.292880037079e-05 -2.281591578248e-06 -6.204751340174e-05 -1.320768484742e-04 5.387779137306e+06 1.172334640212e+06  6.970498889857e-05
6.064930000000e-03 0.000000000000e+00 -1.669945518419e-05 -5.005036275579e+06 -1.745547706023e+04 -4.991790227456e+06 -6.349705338509e+06 -6.006954244838e-05 -2.255931478075e-06 -5.919491501024e-05 -1.406805919669e-04 5.448843947181e+06 1.351678948104e+06  8.114603252073e-05
6.231600000000e-03 0.000000000000e+00 -1.773142080958e-05 -5.006263740022e+06 -1.724010227114e+04 -4.993124284425e+06 -6.530371669117e+06 -5.721069769628e-05 -2.228637013343e-06 -5.634288378963e-05 -1.492840225996e-04 5.509919897855e+06 1.531011181103e+06  9.259078377636e-05
6.398270000000e-03 0.000000000000e+00 -1.876362298388e-05 -5.007510590793e+06 -1.701186137151e+04 -4.994480196242e+06 -6.711030004142e+06 -5.435230024683e-05 -2.199698851815e-06 -5.349145766134e-05 -1.578870370333e-04 5.571006930392e+06 1.710325677526e+06  1.040376177497e-04
6.564940000000e-03 0.000000000000e+00 -1.979607124784e-05 -5.008776950154e+06 -1.677070235765e+04 -4.995858140167e+06 -6.891679831611e+06 -5.149438516921e-05 -2.169110281941e-06 -5.064067510881e-05 -1.664895282392e-04 5.632104973977e+06 1.889618689200e+06  1.154854942377e-04
6.731610000000e-03 0.000000000000e+00 -2.082877532447e-05 -5.010062921056e+06 -1.651659480606e+04 -4.997258268152e+06 -7.072320643864e+06 -4.863698837078e-05 -2.136867378979e-06 -4.779057505673e-05 -1.750913856124e-04 5.693213944357e+06 2.068887566415e+06  1.269336924905e-04
6.898280000000e-03 0.000000000000e+00 -2.186174512814e-05 -5.011368580973e+06 -1.624953121988e+04 -4.998680700298e+06 -7.252951939356e+06 -4.578014639563e-05 -2.102969177327e-06 -4.494119664547e-05 -1.836924952019e-04 5.754333740209e+06 2.248130338496e+06  1.383816778284e-04
7.064950000000e-03 0.000000000000e+00 -2.289499078143e-05 -5.012693978565e+06 -1.596952846029e+04 -5.000125521082e+06 -7.433573224807e+06 -4.292389630115e-05 -2.067417853713e-06 -4.209257907956e-05 -1.922927398886e-04 5.815464241485e+06 2.427345481468e+06  1.498290294461e-04
7.231620000000e-03 0.000000000000e+00 -2.392852262279e-05 -5.014039128443e+06 -1.567662923470e+04 -5.001592773650e+06 -7.614184017145e+06 -4.006827546783e-05 -2.030218917291e-06 -3.924476140736e-05 -2.008919996462e-04 5.876605306413e+06 2.606531785707e+06  1.612753992358e-04
7.398290000000e-03 0.000000000000e+00 -2.496235121633e-05 -5.015404013290e+06 -1.537090363274e+04 -5.003082461445e+06 -7.794783845517e+06 -3.721332163160e-05 -1.991381405309e-06 -3.639778252145e-05 -2.094901516019e-04 5.937756773417e+06 2.785688270278e+06  1.727204867437e-04
7.564960000000e-03 0.000000000000e+00 -2.599648735893e-05 -5.016788593217e+06 -1.505245085582e+04 -5.004594556915e+06 -7.975372254191e+06 -3.435907312129e-05 -1.950918102843e-06 -3.355168135468e-05 -2.180870699511e-04 5.998918468108e+06 2.964814122150e+06  1.841640231338e-04
7.731630000000e-03 0.000000000000e+00 -2.703094208781e-05 -5.018192815165e+06 -1.472140087661e+04 -5.006129010318e+06 -8.155948804264e+06 -3.150556909993e-05 -1.908845752633e-06 -3.070649708256e-05 -2.266826258603e-04 6.060090209916e+06 3.143908652832e+06  1.956057606579e-04
7.898300000000e-03 0.000000000000e+00 -2.806572669480e-05 -5.019616616324e+06 -1.437791657854e+04 -5.007685752315e+06 -8.336513076951e+06 -2.865284957362e-05 -1.865185325404e-06 -2.786226907981e-05 -2.352766877015e-04 6.121271815197e+06 3.322971274342e+06  2.070454660819e-04
8.064970000000e-03 0.000000000000e+00 -2.910085274885e-05 -5.021059919076e+06 -1.402219577939e+04 -5.009264688072e+06 -8.517064676412e+06 -2.580095511374e-05 -1.819962274156e-06 -2.501903658832e-05 -2.438691216121e-04 6.182463094520e+06 3.502001490637e+06  2.184829168694e-04
8.231640000000e-03 0.000000000000e+00 -3.013633210589e-05 -5.022522631723e+06 -1.365447357040e+04 -5.010865697036e+06 -8.697603233069e+06 -2.294992672893e-05 -1.773206827625e-06 -2.217683852857e-05 -2.524597919788e-04 6.243663853943e+06 3.680998888753e+06  2.299178985387e-04
8.398310000000e-03 0.000000000000e+00 -3.117217693306e-05 -5.024004656429e+06 -1.327502463731e+04 -5.012488639865e+06 -8.878128407339e+06 -2.009980592892e-05 -1.724954280028e-06 -1.933571349862e-05 -2.610485618072e-04 6.304873901211e+06 3.859963126477e+06  2.413502026491e-04
8.564980000000e-03 0.000000000000e+00 -3.220839971652e-05 -5.025505899829e+06 -1.288416573362e+04 -5.014133367939e+06 -9.058639893319e+06 -1.725063483749e-05 -1.675245298816e-06 -1.649569981795e-05 -2.696352931178e-04 6.366093053696e+06 4.038893919635e+06  2.527796254042e-04
8.731650000000e-03 0.000000000000e+00 -3.324501327674e-05 -5.027026284677e+06 -1.248225803218e+04 -5.015799733840e+06 -9.239137422820e+06 -1.440245629058e-05 -1.624126215332e-06 -1.365683555085e-05 -2.782198474592e-04 6.427321147112e+06 4.217791030342e+06  2.642059668318e-04
8.898320000000e-03 0.000000000000e+00 -3.428203078225e-05 -5.028565759504e+06 -1.206970935410e+04 -5.017487599779e+06 -9.419620769288e+06 -1.155531382198e-05 -1.571649298228e-06 -1.081915841461e-05 -2.868020866352e-04 6.488558042857e+06 4.396654258295e+06  2.756290306075e-04
9.064990000000e-03 0.000000000000e+00 -3.531946576072e-05 -5.030124305426e+06 -1.164697583729e+04 -5.019196843143e+06 -9.600089751544e+06 -8.709251501584e-06 -1.517872953729e-06 -7.982705537972e-06 -2.953818736975e-04 6.549803633371e+06 4.575483435586e+06  2.870486245171e-04
9.231660000000e-03 0.000000000000e+00 -3.635733211003e-05 -5.031701943120e+06 -1.121456264451e+04 -5.020927362164e+06 -9.780544237088e+06 -5.864313716319e-06 -1.462861801753e-06 -5.147513160507e-06 -3.039590741241e-04 6.611057847457e+06 4.754278421544e+06  2.984645613293e-04
9.398330000000e-03 0.000000000000e+00 -3.739564411318e-05 -5.033298737838e+06 -1.077302320661e+04 -5.022679079761e+06 -9.960984143746e+06 -3.020544831723e-06 -1.406686563653e-06 -2.313616220903e-06 -3.125335572266e-04 6.672320653782e+06 4.933039098258e+06  3.098766601326e-04
9.565000000000e-03 0.000000000000e+00 -3.843441644963e-05 -5.034914806865e+06 -1.032295610809e+04 -5.024451949866e+06 -1.014140943976e+07 -1.779888629370e-07 -1.349423647964e-06 5.189520419264e-07 -3.211051976854e-04 6.733592065498e+06 5.111765362435e+06  3.212847478811e-04
9.731670000000e-03 0.000000000000e+00 -3.947366420192e-05 -5.036550323981e+06 -9.864998974780e+03 -5.026245960808e+06 -1.032182014565e+07 2.663310924112e-06 -1.291154350497e-06 3.350160551683e-06 -3.296738772639e-04 6.794872143480e+06 5.290457122224e+06  3.326886612551e-04
9.898340000000e-03 0.000000000000e+00 -4.051340274779e-05 -5.038205518082e+06 -9.399813921616e+03 -5.028061131040e+06 -1.050221631721e+07 5.503312270128e-06 -1.231962974229e-06 6.179980830275e-06 -3.382394859712e-04 6.856160988776e+06 5.469114282167e+06  3.440882479332e-04
1.006501000000e-02 0.000000000000e+00 -4.155364767741e-05 -5.039880682170e+06 -8.928084751737e+03 -5.029897511277e+06 -1.068259801832e+07 8.341974435325e-06 -1.171936478976e-06 9.008387954627e-06 -3.468019242522e-04 6.917458737257e+06 5.647736709780e+06  3.554833693476e-04
1.023168000000e-02 0.000000000000e+00 -4.259441540164e-05 -5.041576204571e+06 -8.450498992230e+03 -5.031755252901e+06 -1.086296533671e+07 1.117925967371e-05 -1.111162165060e-06 1.183535964189e-05 -3.553611064610e-04 6.978765598062e+06 5.826324200819e+06  3.668739042777e-04
1.039835000000e-02 0.000000000000e+00 -4.363572282222e-05 -5.043292494685e+06 -7.967715030510e+03 -5.033634483821e+06 -1.104331834403e+07 1.401513511769e-05 -1.049723461888e-06 1.466088131587e-05 -3.639169653758e-04 7.040081774180e+06 6.004876538142e+06  3.782597567104e-04
1.056502000000e-02 0.000000000000e+00 -4.467758724183e-05 -5.045030040917e+06 -7.480348564798e+03 -5.035535387922e+06 -1.122365705423e+07 1.684957185145e-05 -9.876982036408e-07 1.748494379533e-05 -3.724694518710e-04 7.101407494356e+06 6.183393381016e+06  3.896408538101e-04
1.073169000000e-02 0.000000000000e+00 -4.572002643229e-05 -5.046789433484e+06 -6.988949095723e+03 -5.037458229528e+06 -1.140398137815e+07 1.968254502010e-05 -9.251556324831e-07 2.030754328652e-05 -3.810185366154e-04 7.162743013720e+06 6.361874195828e+06  4.010171475971e-04
1.089836000000e-02 0.000000000000e+00 -4.676305865416e-05 -5.048571384052e+06 -6.493976925898e+03 -5.039403374828e+06 -1.158429107355e+07 2.251403407396e-05 -8.621534752680e-07 2.312868150063e-05 -3.895642119689e-04 7.224088610811e+06 6.540318185359e+06  4.123886169775e-04
1.106503000000e-02 0.000000000000e+00 -4.780670267175e-05 -5.050376729291e+06 -5.995783335638e+03 -5.041371298859e+06 -1.176458568503e+07 2.534402347883e-05 -7.987354342489e-07 2.594836613095e-05 -3.981064941652e-04 7.285444571061e+06 6.718724223323e+06  4.237552704885e-04
1.123170000000e-02 0.000000000000e+00 -4.885097776760e-05 -5.052206420658e+06 -5.494595161339e+03 -5.043362576671e+06 -1.194486448098e+07 2.817250387207e-05 -7.349292481396e-07 2.876661190627e-05 -4.066454261025e-04 7.346811159436e+06 6.897090800792e+06  4.351171501795e-04
1.139837000000e-02 0.000000000000e+00 -4.989590374793e-05 -5.054061519758e+06 -4.990503043991e+03 -5.045377878694e+06 -1.212512639018e+07 3.099947311615e-05 -6.707452280056e-07 3.158344162774e-05 -4.151810802760e-04 7.408188596212e+06 7.075415967419e+06  4.464743355846e-04
1.156504000000e-02 0.000000000000e+00 -5.094150095481e-05 -5.055943214082e+06 -4.483451120605e+03 -5.047417987491e+06 -1.230536993768e+07 3.382493681982e-05 -6.061749798761e-07 3.439888660739e-05 -4.237135613419e-04 7.469577046416e+06 7.253697251038e+06  4.578269467676e-04
1.173171000000e-02 0.000000000000e+00 -5.198779027243e-05 -5.057852846371e+06 -3.973227302279e+03 -5.049483830106e+06 -1.248559318207e+07 3.664890859871e-05 -5.411901995182e-07 3.721298671971e-05 -4.322430086415e-04 7.530976619517e+06 7.431931564159e+06  4.691751470074e-04
1.189838000000e-02 0.000000000000e+00 -5.303479313746e-05 -5.059791949862e+06 -3.459453686193e+03 -5.051576518243e+06 -1.266579365669e+07 3.947141037328e-05 -4.757414748469e-07 4.002579036586e-05 -4.407695990919e-04 7.592387374931e+06 7.610115107403e+06  4.805191458271e-04
1.206505000000e-02 0.000000000000e+00 -5.408253155066e-05 -5.061762278280e+06 -2.941576603391e+03 -5.053697385164e+06 -1.284596831567e+07 4.229247310032e-05 -4.097570234953e-07 4.283735474713e-05 -4.492935509280e-04 7.653809326373e+06 7.788243282244e+06  4.918592032491e-04
1.223172000000e-02 0.000000000000e+00 -5.513102808924e-05 -5.063765828066e+06 -2.418856194488e+03 -5.055848016718e+06 -1.302611348643e+07 4.511213804375e-05 -3.431413410312e-07 4.564774655842e-05 -4.578151284633e-04 7.715242443739e+06 7.966310616823e+06  5.031956355503e-04
1.239839000000e-02 0.000000000000e+00 -5.618030591859e-05 -5.065804858531e+06 -1.890355424149e+03 -5.058030282030e+06 -1.320622483000e+07 4.793045839704e-05 -2.757737365123e-07 4.845704292757e-05 -4.663346476758e-04 7.776686656855e+06 8.144310700983e+06  5.145288221453e-04
1.256506000000e-02 0.000000000000e+00 -5.723038880195e-05 -5.067881914712e+06 -1.354929008044e+03 -5.060246368357e+06 -1.338629731373e+07 5.074750105907e-05 -2.075068039579e-07 5.126533242069e-05 -4.748524823451e-04 7.838141865599e+06 8.322236130153e+06  5.258592131322e-04
1.273173000000e-02 0.000000000000e+00 -5.828130110549e-05 -5.069999852192e+06 -8.112130501612e+02 -5.062498819020e+06 -1.356632520378e+07 5.356334846767e-05 -1.381649218035e-07 5.407271604336e-05 -4.833690704270e-04 7.899607958329e+06 8.500078466577e+06  5.371873371074e-04
1.289840000000e-02 0.000000000000e+00 -5.933306780507e-05 -5.072161860391e+06 -2.576167739192e+02 -5.064790570405e+06 -1.374630208978e+07 5.637810039085e-05 -6.754295223328e-08 5.687930817288e-05 -4.918849201761e-04 7.961084840192e+06 8.677828233901e+06  5.485138086768e-04
1.306507000000e-02 0.000000000000e+00 -6.038571449144e-05 -5.074371474831e+06 3.076814382769e+02 -5.067124977845e+06 -1.392622095705e+07 5.919187563521e-05 4.594572922027e-09 5.968523742792e-05 -5.004006153326e-04 8.022572469910e+06 8.855474970450e+06  5.598393349625e-04
1.323174000000e-02 0.000000000000e+00 -6.143926737516e-05 -5.076632575114e+06 8.867307157682e+02 -5.069505826127e+06 -1.410607432168e+07 6.200481329826e-05 7.851338292482e-08 6.249064716836e-05 -5.089168181044e-04 8.084070907640e+06 9.033007360167e+06  5.711647194958e-04
1.339841000000e-02 0.000000000000e+00 -6.249375329341e-05 -5.078949362041e+06 1.481793350659e+03 -5.071937316814e+06 -1.428585443586e+07 6.481707319719e-05 1.545080092525e-07 6.529569533510e-05 -5.174342684889e-04 8.145580371572e+06 9.210413455921e+06  5.824908617090e-04
1.356508000000e-02 0.000000000000e+00 -6.354919970990e-05 -5.081326310744e+06 2.095316138320e+03 -5.074424028017e+06 -1.446555355550e+07 6.762883502270e-05 2.328984751742e-07 6.810055325589e-05 -5.259537784530e-04 8.207101298088e+06 9.387680990716e+06  5.938187501297e-04
1.373175000000e-02 0.000000000000e+00 -6.460563472230e-05 -5.083768094953e+06 2.729885397719e+03 -5.076970840706e+06 -1.464516424044e+07 7.044029603626e-05 3.140248311296e-07 7.090540329241e-05 -5.344762201706e-04 8.268634392033e+06 9.564797752750e+06  6.051494483187e-04
1.389842000000e-02 0.000000000000e+00 -6.566308705359e-05 -5.086279488327e+06 3.388166483113e+03 -5.079582837038e+06 -1.482467964313e+07 7.325166724817e-05 3.982396007270e-07 7.371043528665e-05 -5.430025085294e-04 8.330180656164e+06 9.741751974319e+06  6.164840737076e-04
1.406509000000e-02 0.000000000000e+00 -6.672158605223e-05 -5.088865249698e+06 4.072832598573e+03 -5.082265177956e+06 -1.500409373662e+07 7.606316849152e-05 4.858987316960e-07 7.651584218217e-05 -5.515335795562e-04 8.391741388092e+06 9.918532678382e+06  6.278237713741e-04
1.423176000000e-02 0.000000000000e+00 -6.778116168677e-05 -5.091530008241e+06 4.786490216820e+03 -5.085022977341e+06 -1.518340145176e+07 7.887502301392e-05 5.773519884813e-07 7.932181535554e-05 -5.600703675649e-04 8.453318145780e+06 1.009512993600e+07  6.391696861386e-04
1.439843000000e-02 0.000000000000e+00 -6.884184453691e-05 -5.094278165519e+06 5.531609820980e+03 -5.087861191272e+06 -1.536259871738e+07 8.168745228311e-05 6.729339257763e-07 8.212854024401e-05 -5.686137840859e-04 8.514912691391e+06 1.027153501080e+07  6.505229366811e-04
1.456510000000e-02 0.000000000000e+00 -6.990366579227e-05 -5.097113825405e+06 6.310469276155e+03 -5.090784535117e+06 -1.554168242183e+07 8.450067166694e-05 7.729564138773e-07 8.493619282421e-05 -5.771647011595e-04 8.576526927451e+06 1.044774039676e+07  6.618845948728e-04
1.473177000000e-02 0.000000000000e+00 -7.096665725014e-05 -5.100040759540e+06 7.125113776658e+03 -5.093797437256e+06 -1.572065032493e+07 8.731488726436e-05 8.777032577090e-07 8.774493714821e-05 -5.857239402440e-04 8.638162840576e+06 1.062373977042e+07  6.732556718181e-04
1.489844000000e-02 0.000000000000e+00 -7.203085131498e-05 -5.103062404316e+06 7.977333214984e+03 -5.096904026095e+06 -1.589950094849e+07 9.013029401746e-05 9.874270478533e-07 9.055492403351e-05 -5.942922668505e-04 8.699822459635e+06 1.079952788919e+07  6.846371108370e-04
1.506511000000e-02 0.000000000000e+00 -7.309628101190e-05 -5.106181884195e+06 8.868654996109e+03 -5.100108145264e+06 -1.607823346456e+07 9.294707489172e-05 1.102348010426e-06 9.336629069499e-05 -6.028703899454e-04 8.761507831339e+06 1.097510046006e+07  6.960297862197e-04
1.523178000000e-02 0.000000000000e+00 -7.416297999109e-05 -5.109402047656e+06 9.800349071894e+03 -5.103413383176e+06 -1.625684759171e+07 9.576540102362e-05 1.222654453223e-06 9.617916123118e-05 -6.114589649643e-04 8.823221007513e+06 1.115045400302e+07  7.074345065070e-04
1.539845000000e-02 0.000000000000e+00 -7.523098254623e-05 -5.112725511418e+06 1.077344159641e+04 -5.106823112253e+06 -1.643534350289e+07 9.858543243323e-05 1.348504350593e-06 9.899364758918e-05 -6.200585989872e-04 8.884964042188e+06 1.132558571692e+07  7.188520204556e-04
1.556512000000e-02 0.000000000000e+00 -7.630032363371e-05 -5.116154704503e+06 1.178873413032e+04 -5.110340529121e+06 -1.661372174449e+07 1.014073191275e-04 1.480027672856e-06 1.018098508532e-04 -6.286698570319e-04 8.946738992705e+06 1.150049335627e+07  7.302830244858e-04
1.573179000000e-02 0.000000000000e+00 -7.737103888171e-05 -5.119691909271e+06 1.284682581182e+04 -5.113968692641e+06 -1.679198316516e+07 1.042312023732e-04 1.617329126508e-06 1.046278626524e-04 -6.372932686367e-04 9.008547922356e+06 1.167517512039e+07  7.417281705652e-04
1.589846000000e-02 0.000000000000e+00 -7.844316462038e-05 -5.123339299716e+06 1.394813656543e+04 -5.117710559849e+06 -1.697012885290e+07 1.070572159304e-04 1.760491054237e-06 1.074477664959e-04 -6.459293341408e-04 9.070392904156e+06 1.184962955321e+07  7.531880737419e-04
1.606513000000e-02 0.000000000000e+00 -7.951673789713e-05 -5.127098970944e+06 1.509293024360e+04 -5.121569013599e+06 -1.714816007936e+07 1.098854873407e-04 1.909576349848e-06 1.102696391329e-04 -6.545785305498e-04 9.132276021301e+06 1.202385545894e+07  7.646633193046e-04
1.623180000000e-02 0.000000000000e+00 -8.059179651206e-05 -5.130972961216e+06 1.628133641951e+04 -5.125546883191e+06 -1.732607825070e+07 1.127161391834e-04 2.064631219380e-06 1.130935518618e-04 -6.632413168254e-04 9.194199365036e+06 1.219785183147e+07  7.761544693320e-04
1.639847000000e-02 0.000000000000e+00 -8.166837904828e-05 -5.134963267034e+06 1.751337056996e+04 -5.129646958339e+06 -1.750388486494e+07 1.155492902861e-04 2.225687752309e-06 1.159195717774e-04 -6.719181385804e-04 9.256165030104e+06 1.237161779712e+07  7.876620685966e-04