 TITLE = "Time curves in points"
 VARIABLES = "TIME "  "DISPLACEMENT_X1"  "DISPLACEMENT_Y1"  "STRESS_XX"  "STRESS_XY"  "STRESS_YY"  "STRESS_ZZ"  "STRAIN_XX"  "STRAIN_XY"  "STRAIN_YY"  "STRAIN_ZZ"  p_(1st_Invariant)  q_(2nd_Invariant)   Effective_Strain
 ZONE T="POINT=POINT2"
0.000000000000e+00 0.000000000000e+00 0.000000000000e+00 0.000000000000e+00 0.000000000000e+00 0.000000000000e+00 0.000000000000e+00 0.000000000000e+00 0.000000000000e+00 0.000000000000e+00 0.000000000000e+00 -0.000000000000e+00 0.000000000000e+00  0.000000000000e+00
2.314800000000e-05 -4.661214953710e-07 1.878504671235e-06 -4.879245910286e+05 -7.995517070205e-06 -4.879245910604e+05 -1.735098582382e-05 -1.553738317698e-05 -1.023921661073e-15 -1.553738317902e-05 1.565420560737e-05 3.252830607021e+05 4.879245910272e+05  3.119158878536e-05
4.629600000000e-05 -9.938828969609e-07 4.010612566302e-06 -9.828568338430e+05 -1.824837024582e+03 -9.903609908863e+05 -2.061175202055e+03 -3.260610884775e-05 -2.466601567462e-07 -3.311825445463e-05 3.303748958430e-05 6.584263333105e+05 9.845742588156e+05  6.590254860388e-05
6.944400000000e-05 -1.573328856298e-06 6.353507723292e-06 -1.477672472277e+06 -3.314293258422e+03 -1.493920303337e+06 -4.758269068644e+03 -5.125252661162e-05 -4.660606559989e-07 -5.242121320392e-05 5.205198354505e-05 9.921170148940e+05 1.481116084845e+06  1.038969194953e-04
9.259200000000e-05 -2.209474432610e-06 8.926589336698e-06 -1.972419145362e+06 -4.756592704257e+03 -1.998405075564e+06 -7.472259358014e+03 -7.164302015574e-05 -6.990184674664e-07 -7.361410594429e-05 7.288659255717e-05 1.326098826761e+06 1.978085028895e+06  1.455302039998e-04
1.157400000000e-04 -2.907963815903e-06 1.175287480769e-05 -2.467150664258e+06 -6.179306488092e+03 -2.503893523581e+06 -1.018585490231e+04 -9.394195806344e-05 -9.510712376266e-07 -9.688514402693e-05 9.571864642015e-05 1.660410014247e+06 2.475563890503e+06  1.911562901794e-04
1.388880000000e-04 -3.674927244918e-06 1.485742979104e-05 -2.961880357644e+06 -7.587986259525e+03 -3.010425544967e+06 -1.289856888157e+04 -1.183261897752e-04 -1.224801159447e-06 -1.224387672699e-04 1.207392120864e-04 1.995068157164e+06 2.973580641519e+06  2.411573243051e-04
1.620360000000e-04 -4.517071765444e-06 1.826769541277e-05 -3.456613675534e+06 -8.984738761915e+03 -3.518031365778e+06 -1.561045420465e+04 -1.449880601505e-04 -1.522473739402e-06 -1.504986773038e-04 1.481567465921e-04 2.330085165172e+06 3.472154367024e+06  2.959503458367e-04
1.851840000000e-04 -5.441750360160e-06 2.201377753767e-05 -3.951353752079e+06 -1.037049670946e+04 -4.026738960922e+06 -1.832167303640e+04 -1.741370627304e-04 -1.846356731799e-06 -1.813101408142e-04 1.781990966563e-04 2.665471462012e+06 3.971301971742e+06  3.559912697569e-04
2.083320000000e-04 -6.457028545644e-06 2.612872603375e-05 -4.446102811337e+06 -1.174567184069e+04 -4.536575945393e+06 -2.103242106272e+04 -2.060014310153e-04 -2.198819177168e-06 -2.151422116019e-04 2.111154119523e-04 3.001237059264e+06 4.471039836091e+06  4.217787245877e-04
2.314800000000e-04 -7.571754879984e-06 3.064883021584e-05 -4.940862633931e+06 -1.311041705002e+04 -5.047570184113e+06 -2.374289454189e+04 -2.408298090735e-04 -2.582380227970e-06 -2.522900849434e-04 2.471781629016e-04 3.337391904195e+06 4.971384362851e+06  4.938581078435e-04
3.981500000000e-04 -7.396854132556e-06 2.824843387463e-05 -4.946620358912e+06 -1.455325398525e+04 -5.060055090636e+06 -2.074499604416e+05 -2.339314885770e-04 -3.037491576134e-06 -2.464305047368e-04 2.267600186625e-04 3.404708469997e+06 4.796960018434e+06  4.670960927972e-04
5.648200000000e-04 -7.186602395865e-06 2.572323729380e-05 -4.946385146117e+06 -1.463891032373e+04 -5.058299617844e+06 -3.875995086003e+05 -2.271493443840e-04 -3.064055028743e-06 -2.394179050452e-04 2.063153102971e-04 3.464094757520e+06 4.615830187218e+06  4.397593400356e-04
7.314900000000e-04 -6.980240744362e-06 2.324430379562e-05 -4.946211762795e+06 -1.469978794605e+04 -5.056726746579e+06 -5.679569779069e+05 -2.204749193019e-04 -3.082805446743e-06 -2.325349244353e-04 1.862046930443e-04 3.523631829093e+06 4.434618307237e+06  4.128762769919e-04
8.981600000000e-04 -6.777390729556e-06 2.080763119366e-05 -4.946038392237e+06 -1.476174116311e+04 -5.055151656047e+06 -7.483121950152e+05 -2.139143852262e-04 -3.101560741140e-06 -2.257690606829e-04 1.664371055411e-04 3.583167414433e+06 4.253409487005e+06  3.864525745530e-04
1.064830000000e-03 -6.577995426604e-06 1.841254540545e-05 -4.945865735185e+06 -1.482426338182e+04 -5.053576341845e+06 -9.286678879951e+05 -2.074657057104e-04 -3.120169318739e-06 -2.191184137417e-04 1.470065032423e-04 3.642703321675e+06 4.072202624109e+06  3.604803740152e-04
1.231500000000e-03 -6.381996114463e-06 1.605833774170e-05 -4.945693805042e+06 -1.488735587532e+04 -5.052000810526e+06 -1.109024054878e+06 -2.011269783098e-04 -3.138631203141e-06 -2.125810253598e-04 1.279071506944e-04 3.702239556815e+06 3.890998036943e+06  3.349522035389e-04
1.398170000000e-03 -6.189335088842e-06 1.374431212407e-05 -4.945522625648e+06 -1.495101360826e+04 -5.050425087873e+06 -1.289380718203e+06 -1.948963323011e-04 -3.156944694733e-06 -2.061549711522e-04 1.091334080256e-04 3.761776143908e+06 3.709796094224e+06  3.098607750227e-04
1.564840000000e-03 -5.999955620915e-06 1.146978427340e-05 -4.945352221139e+06 -1.501523139041e+04 -5.048849200154e+06 -1.469737900879e+06 -1.887719286063e-04 -3.175108175617e-06 -1.998383592640e-04 9.067973092295e-05 3.821313107391e+06 3.528597239946e+06  2.851990046429e-04
1.731510000000e-03 -5.813801941262e-06 9.234081517577e-06 -4.945182616119e+06 -1.508000380454e+04 -5.047273174358e+06 -1.650095626312e+06 -1.827519592635e-04 -3.193120088932e-06 -1.936293298342e-04 7.254066901439e-05 3.880850472263e+06 3.347402013840e+06  2.609600425602e-04
1.898180000000e-03 -5.630819223689e-06 7.036542594292e-06 -4.945013835663e+06 -1.514532519945e+04 -5.045697038226e+06 -1.830453918400e+06 -1.768346468989e-04 -3.210978937042e-06 -1.875260544563e-04 5.471086427580e-05 3.940388264096e+06 3.166211078745e+06  2.371373199772e-04
2.064850000000e-03 -5.450953569229e-06 4.876517458774e-06 -4.944845905328e+06 -1.521118966813e+04 -5.044120820272e+06 -2.010812801550e+06 -1.710182442093e-04 -3.228683275946e-06 -1.815267356450e-04 3.718504946222e-05 3.999926509050e+06 2.985025257932e+06  2.137246256365e-04
2.231520000000e-03 -5.274151990523e-06 2.753367095776e-06 -4.944678851167e+06 -1.527759104301e+04 -5.042544549841e+06 -2.191172300710e+06 -1.653010334495e-04 -3.246231714472e-06 -1.756296063153e-04 1.995804656358e-05 4.059465233906e+06 2.803845586888e+06  1.907162345285e-04
2.398190000000e-03 -5.100362396456e-06 6.664633287440e-07 -4.944512699732e+06 -1.534452287252e+04 -5.040968257166e+06 -2.371532441346e+06 -1.596813259301e-04 -3.263622908799e-06 -1.698329292699e-04 3.024765289303e-06 4.119004466082e+06 2.622673386611e+06  1.681071342114e-04
2.564860000000e-03 -4.929533576983e-06 -1.384811358979e-06 -4.944347478094e+06 -1.541197840624e+04 -5.039391973426e+06 -2.551893249469e+06 -1.541574615225e-04 -3.280855559470e-06 -1.641349966941e-04 -1.361979842754e-05 4.178544233663e+06 2.441510369455e+06  1.458934456114e-04
2.731530000000e-03 -4.761615188268e-06 -3.401064007982e-06 -4.944183213847e+06 -1.547995057597e+04 -5.037815730828e+06 -2.732254751647e+06 -1.487278081703e-04 -3.297928407689e-06 -1.585341296594e-04 -2.998056390138e-05 4.238084565440e+06 2.260358795862e+06  1.240732630795e-04
2.898200000000e-03 -4.596557737911e-06 -5.382891359259e-06 -4.944019935123e+06 -1.554843196920e+04 -5.036239562642e+06 -2.912616975008e+06 -1.433907614098e-04 -3.314840229980e-06 -1.530286776318e-04 -4.606236714383e-05 4.297625490924e+06 2.079221712949e+06  1.026484932510e-04
3.064870000000e-03 -4.434312570609e-06 -7.330880028610e-06 -4.943857670609e+06 -1.561741480937e+04 -5.034663503336e+06 -3.092979947263e+06 -1.381447438962e-04 -3.331589834931e-06 -1.476170179931e-04 -6.186996229019e-05 4.357167040403e+06 1.898103329621e+06  8.162940889257e-05
3.231540000000e-03 -4.274831853935e-06 -9.245606680328e-06 -4.943696449554e+06 -1.568689092318e+04 -5.033087588660e+06 -3.273343696697e+06 -1.329882049367e-04 -3.348176057112e-06 -1.422975555672e-04 -7.740802300485e-05 4.416709244971e+06 1.717009628877e+06  6.104807026583e-05
3.398210000000e-03 -4.118068564198e-06 -1.112763819376e-05 -4.943536301795e+06 -1.575685171048e+04 -5.031511855723e+06 -3.453708252212e+06 -1.279196200321e-04 -3.364597752052e-06 -1.370687221487e-04 -9.268114387044e-05 4.476252136577e+06 1.535949412728e+06  4.100997735518e-05
3.564880000000e-03 -3.963976472970e-06 -1.297753183025e-05 -4.943377257749e+06 -1.582728811144e+04 -5.029936343224e+06 -3.634073643276e+06 -1.229374904198e-04 -3.380853790933e-06 -1.319289760536e-04 -1.076938417478e-04 4.535795748083e+06 1.354936184023e+06  2.201293264982e-05
3.731550000000e-03 -3.812510133152e-06 -1.479583540106e-05 -4.943219348449e+06 -1.589819055848e+04 -5.028361091501e+06 -3.814439899988e+06 -1.180403426300e-04 -3.396943052213e-06 -1.268768016549e-04 -1.224505571316e-04 4.595340113312e+06 1.173991766083e+06  9.652978121573e-06
3.898220000000e-03 -3.663624865925e-06 -1.658308742075e-05 -4.943062605555e+06 -1.596954893954e+04 -5.026786142851e+06 -3.994807053052e+06 -1.132267280405e-04 -3.412864416160e-06 -1.219107089481e-04 -1.369556554750e-04 4.654885267152e+06 9.931538713344e+05  2.161839261746e-05
4.064890000000e-03 -3.517276747422e-06 -1.833981727425e-05 -4.942907061352e+06 -1.604135253373e+04 -5.025211541725e+06 -4.175175133763e+06 -1.084952224437e-04 -3.428616753408e-06 -1.170292331063e-04 -1.512134285045e-04 4.714431245613e+06 8.124937491872e+05  3.960281656099e-05
4.231560000000e-03 -3.373422595797e-06 -2.006654536728e-05 -4.942752748766e+06 -1.611358995800e+04 -5.023637335132e+06 -4.355544174046e+06 -1.038444256165e-04 -3.444198915875e-06 -1.122309340503e-04 -1.652280955191e-04 4.773978085981e+06 6.321639760044e+05  5.795758196826e-05
4.398230000000e-03 -3.232019958426e-06 -2.176378328182e-05 -4.942599701329e+06 -1.618624909234e+04 -5.022063573193e+06 -4.535914206428e+06 -9.927296090718e-05 -3.459609722173e-06 -1.075143960220e-04 -1.790038046659e-04 4.833525826983e+06 4.525598156364e+05  7.618227367333e-05
4.564900000000e-03 -3.093027099907e-06 -2.343203392750e-05 -4.942447952992e+06 -1.625931698663e+04 -5.020490310438e+06 -4.716285264098e+06 -9.477947483949e-05 -3.474847938375e-06 -1.028782271859e-04 -1.925446341835e-04 4.893074509176e+06 2.751064102811e+05  9.417039907576e-05
4.731570000000e-03 -2.956402990966e-06 -2.507179167352e-05 -4.942297537162e+06 -1.633277964267e+04 -5.018917608985e+06 -4.896657381639e+06 -9.036263679356e-05 -3.489912250218e-06 -9.832105926318e-05 -2.058545935767e-04 4.952624175929e+06 1.106837398580e+05  1.118889326450e-04
4.898240000000e-03 -2.822107334019e-06 -2.668354214030e-05 -4.942148455185e+06 -1.640662384073e+04 -5.017345558919e+06 -5.077030610004e+06 -8.602113699188e-05 -3.504802215291e-06 -9.384154836613e-05 -2.189376252808e-04 5.012174874703e+06 1.204681892801e+05  1.293264899082e-04
5.064910000000e-03 -2.690100725780e-06 -2.826776113075e-05 -4.942000750481e+06 -1.648086068837e+04 -5.015774064175e+06 -5.257405045580e+06 -8.175371145052e-05 -3.519517302158e-06 -8.943838018147e-05 -2.317975723798e-04 5.071726620079e+06 2.871738279934e+05  1.464798210534e-04
5.231580000000e-03 -2.560343876845e-06 -2.982492087706e-05 -4.941854636261e+06 -1.655541170400e+04 -5.014203365575e+06 -5.437780463115e+06 -7.755906486731e-05 -3.534049567115e-06 -8.511024514268e-05 -2.444382880201e-04 5.131279488317e+06 4.648864441317e+05  1.633494072974e-04
5.398250000000e-03 -2.432797971127e-06 -3.135548686411e-05 -4.941710074547e+06 -1.663027052674e+04 -5.012633471441e+06 -5.618157028389e+06 -7.343594258221e-05 -3.548402049191e-06 -8.085584837399e-05 -2.568635463455e-04 5.190833524792e+06 6.445652732631e+05  1.799374856890e-04
5.564920000000e-03 -2.307425031442e-06 -3.285991525564e-05 -4.941567100734e+06 -1.670542120514e+04 -5.011064467301e+06 -5.798534769188e+06 -6.938311168735e-05 -3.562572575020e-06 -7.667392344919e-05 -2.690770510679e-04 5.250388779074e+06 8.249264729882e+05  1.962472170746e-04
5.731590000000e-03 -2.184187724644e-06 -3.433865444553e-05 -4.941425757641e+06 -1.678084098349e+04 -5.009496449125e+06 -5.978913716839e+06 -6.539935942820e-05 -3.576558937837e-06 -7.256322539316e-05 -2.810824446768e-04 5.309945307869e+06 1.005602879672e+06  2.122822763346e-04
5.898260000000e-03 -2.063049339871e-06 -3.579214526068e-05 -4.941286089551e+06 -1.685650391573e+04 -5.007929520044e+06 -6.159293902645e+06 -6.148349261002e-05 -3.590358775782e-06 -6.852252998578e-05 -2.928833098934e-04 5.369503170747e+06 1.186450414357e+06  2.280466258285e-04
6.064930000000e-03 -1.943973774707e-06 -3.722082111321e-05 -4.941148142138e+06 -1.693238087397e+04 -5.006363793541e+06 -6.339675356825e+06 -5.763433710960e-05 -3.603969453299e-06 -6.455063330818e-05 -3.044831711514e-04 5.429062430835e+06 1.367401076738e+06  2.435443864183e-04
6.231600000000e-03 -1.826925522512e-06 -3.862510814857e-05 -4.941011962609e+06 -1.700843905907e+04 -5.004799397008e+06 -6.520058107599e+06 -5.385073730750e-05 -3.617387966136e-06 -6.064635132512e-05 -3.158854961750e-04 5.488623155738e+06 1.548418587916e+06  2.587797608609e-04
6.398270000000e-03 -1.711869657690e-06 -4.000542539553e-05 -4.940877599883e+06 -1.708464124722e+04 -5.003236474945e+06 -6.700442180037e+06 -5.013155546207e-05 -3.630610834194e-06 -5.680851939811e-05 -3.270936977257e-04 5.548185418288e+06 1.729481809130e+06  2.737569868775e-04
6.564940000000e-03 -1.598771821783e-06 -4.136218492112e-05 -4.940745104823e+06 -1.716094481588e+04 -5.001675193999e+06 -6.880827594437e+06 -4.647567097018e-05 -3.643633975553e-06 -5.303599182784e-05 -3.381111355421e-04 5.607749297753e+06 1.910577566406e+06  2.884803078036e-04
6.731610000000e-03 -1.487598207441e-06 -4.269579199107e-05 -4.940614530494e+06 -1.723730044395e+04 -5.000115748949e+06 -7.061214363785e+06 -4.288197950943e-05 -3.656452542564e-06 -4.932764132710e-05 -3.489411185810e-04 5.667314881076e+06 2.091697193093e+06  3.029539542479e-04
6.898280000000e-03 -1.378315541007e-06 -4.400664524502e-05 -4.940485932580e+06 -1.731365033650e+04 -4.998558371206e+06 -7.241602490184e+06 -3.934939198613e-05 -3.669060698988e-06 -4.568235845055e-05 -3.595869076971e-04 5.726882264657e+06 2.272834718410e+06  3.171821330160e-04
7.064950000000e-03 -1.270891062405e-06 -4.529513688059e-05 -4.940359369831e+06 -1.738992585458e+04 -4.997003340500e+06 -7.421991959166e+06 -3.587683320638e-05 -3.681451325461e-06 -4.209905093871e-05 -3.700517189580e-04 5.786451556499e+06 2.453985850168e+06  3.311690212148e-04
7.231620000000e-03 -1.165292501791e-06 -4.656165287391e-05 -4.940234904771e+06 -1.746604419779e+04 -4.995451002012e+06 -7.602382730724e+06 -3.246324012551e-05 -3.693615606752e-06 -3.857664296081e-05 -3.803387279146e-04 5.846022879169e+06 2.635147365802e+06  3.449187644853e-04
7.398290000000e-03 -1.061488049564e-06 -4.780657322680e-05 -4.940112604614e+06 -1.754190368758e+04 -4.993901790990e+06 -7.782774724814e+06 -2.910755945115e-05 -3.705542444987e-06 -3.511407414575e-05 -3.904510753783e-04 5.905596373473e+06 2.816316722025e+06  3.584354791557e-04
7.564960000000e-03 -9.594463181695e-07 -4.903027228411e-05 -4.939992542605e+06 -1.761737691421e+04 -4.992356270792e+06 -7.963167796920e+06 -2.580874419436e-05 -3.717217607559e-06 -3.171029835667e-05 -4.003918755724e-04 5.965172203439e+06 2.997491779298e+06  3.717232588050e-04
7.731630000000e-03 -8.591362888405e-07 -5.023311914041e-05 -4.939874799998e+06 -1.769230041954e+04 -4.990815192471e+06 -8.143561695376e+06 -2.256574848202e-05 -3.728622442650e-06 -2.836428199089e-05 -4.101642282494e-04 6.024750562615e+06 3.178670576180e+06  3.847861868777e-04
7.898300000000e-03 -7.605272339919e-07 -5.141547822293e-05 -4.939759469077e+06 -1.776645865096e+04 -4.989279593019e+06 -8.323955983111e+06 -1.937751932791e-05 -3.739731879524e-06 -2.507500151805e-05 -4.197712376794e-04 6.084331681736e+06 3.359851097685e+06  3.976283587760e-04
8.064970000000e-03 -6.635885958204e-07 -5.257771014725e-05 -4.939646658053e+06 -1.783955789464e+04 -4.987750965477e+06 -8.504349885787e+06 -1.624298280197e-05 -3.750511174091e-06 -2.184143965156e-05 -4.292160442517e-04 6.143915836439e+06 3.541030965093e+06  4.102539205661e-04
8.231640000000e-03 -5.682897835122e-07 -5.372017311431e-05 -4.939536499384e+06 -1.791118183736e+04 -4.986231573718e+06 -8.684741975221e+06 -1.316101912816e-05 -3.760910348559e-06 -1.866257899500e-05 -4.385018808160e-04 6.203503349441e+06 3.722206908464e+06  4.226671396121e-04
8.398310000000e-03 -4.745998053117e-07 -5.484322535763e-05 -4.939429165403e+06 -1.798071102689e+04 -4.984725084496e+06 -8.865129448039e+06 -1.013041394357e-05 -3.770854079395e-06 -1.553739059823e-05 -4.476321819482e-04 6.263094565979e+06 3.903373687581e+06  4.348725429126e-04
8.564980000000e-03 -3.824865297067e-07 -5.594722988948e-05 -4.939324901059e+06 -1.804716623537e+04 -4.983237979745e+06 -9.045506281516e+06 -7.149752069983e-06 -3.780221930306e-06 -1.246481117309e-05 -4.566108198904e-04 6.322689720773e+06 4.084521504688e+06  4.468752168482e-04
8.731650000000e-03 -2.919149969657e-07 -5.703256491468e-05 -4.939224107806e+06 -1.810887868288e+04 -4.981783219390e+06 -9.225857755506e+06 -4.217149488967e-06 -3.788806362340e-06 -9.443691599484e-06 -4.654426940270e-04 6.382288360901e+06 4.265628650305e+06  4.586815563185e-04
8.898320000000e-03 -2.028427595778e-07 -5.809965096262e-05 -4.939127641969e+06 -1.816276497865e+04 -4.980392054870e+06 -9.406140785038e+06 -1.329415573778e-06 -3.796218568189e-06 -6.472656968680e-06 -4.741355548356e-04 6.441886827292e+06 4.446635824468e+06  4.703015798132e-04
9.064990000000e-03 -1.152025422336e-07 -5.914904334888e-05 -4.939038701948e+06 -1.820348943120e+04 -4.979168087115e+06 -9.586203006973e+06 1.521637745935e-06 -3.801764684633e-06 -3.549597041398e-06 -4.827079666059e-04 6.501469932012e+06 4.627337539039e+06  4.817590117294e-04
9.231660000000e-03 -2.880209032750e-08 -6.018192274148e-05 -4.938979488161e+06 -1.824544939925e+04 -4.978653058202e+06 -9.765716817122e+06 4.373773277007e-06 -3.807145017803e-06 -6.687628723793e-07 -4.912420486836e-04 6.561116454495e+06 4.807127210998e+06  4.931579792618e-04
9.398330000000e-03 5.714886198547e-08 -6.120278904496e-05 -4.938745546368e+06 -1.832146683886e+04 -4.979570768446e+06 -9.945346171938e+06 7.311359073808e-06 -3.816780273384e-06 2.195034747786e-06 -4.999175322592e-04 6.621220828917e+06 4.986414339860e+06  5.047334751103e-04
9.565000000000e-03 1.439676059949e-07 -6.222688376296e-05 -4.938846419428e+06 -1.807965772855e+04 -4.981204254718e+06 -1.012544944438e+07 1.030325021730e-05 -3.785952861345e-06 5.086880447965e-06 -5.087493800252e-04 6.681833372841e+06 5.165649278654e+06  5.165058308899e-04
9.731670000000e-03 2.320664965327e-07 -6.327116245060e-05 -4.938985403565e+06 -1.791551188756e+04 -4.982876804817e+06 -1.030523450803e+07 1.333951301245e-05 -3.764829708624e-06 8.021285857234e-06 -5.177140972458e-04 6.742365572137e+06 5.344528661191e+06  5.284548028030e-04
9.898340000000e-03 3.216322024574e-07 -6.433457582660e-05 -4.939110176937e+06 -1.778912818691e+04 -4.984538321126e+06 -1.048492044716e+07 1.642650551286e-05 -3.748410185058e-06 1.100448335990e-05 -5.268271908069e-04 6.802856315075e+06 5.523322257507e+06  5.406020671898e-04
1.006501000000e-02 4.127423797902e-07 -6.541639689047e-05 -4.939232700736e+06 -1.767369795231e+04 -4.986187825682e+06 -1.066457903387e+07 1.956604540855e-05 -3.733198434403e-06 1.403912328419e-05 -5.360956872609e-04 6.863333186761e+06 5.702095943108e+06  5.529567968739e-04
1.023168000000e-02 5.054252838841e-07 -6.651692688418e-05 -4.939355414844e+06 -1.756362768277e+04 -4.987834168705e+06 -1.084422350334e+07 2.275954718272e-05 -3.718463788494e-06 1.712614973360e-05 -5.455234911609e-04 6.923804362295e+06 5.880857261359e+06  5.655240609701e-04
1.039835000000e-02 5.997142812301e-07 -6.763653284140e-05 -4.939479274428e+06 -1.745703996152e+04 -4.989478853780e+06 -1.102385973806e+07 2.600819557426e-05 -3.703959966631e-06 2.026667779815e-05 -5.551141270580e-04 6.984272622089e+06 6.059610826207e+06  5.783085272592e-04
1.056502000000e-02 6.956417950679e-07 -6.877557855767e-05 -4.939604712342e+06 -1.735299826584e+04 -4.991122411657e+06 -1.120349088806e+07 2.931310934181e-05 -3.689563523910e-06 2.346178947421e-05 -5.648709212761e-04 7.044739337352e+06 6.238359277148e+06  5.913146184555e-04
1.073169000000e-02 7.932394451057e-07 -6.993442481992e-05 -4.939731947613e+06 -1.725094303171e+04 -4.992765193984e+06 -1.138311883473e+07 3.267538151403e-05 -3.675200014751e-06 2.671253905227e-05 -5.747971070798e-04 7.105205325443e+06 6.417104188275e+06  6.045466387507e-04
1.089836000000e-02 8.925385359141e-07 -7.111343267160e-05 -4.939861094983e+06 -1.715050856087e+04 -4.994407472383e+06 -1.156274477826e+07 3.609609611565e-05 -3.660820112526e-06 3.001996987050e-05 -5.848958817221e-04 7.165671115209e+06 6.595846548887e+06  6.180088470290e-04
1.106503000000e-02 9.935703759440e-07 -7.231296563875e-05 -4.939992212635e+06 -1.705144229380e+04 -4.996049460417e+06 -1.174236952027e+07 3.957633750494e-05 -3.646389127665e-06 3.338512517370e-05 -5.951704389325e-04 7.226137064442e+06 6.774587009945e+06  6.317054991841e-04
1.123170000000e-02 1.096366471240e-06 -7.353339112428e-05 -4.940125325648e+06 -1.695356298329e+04 -4.997691325207e+06 -1.192199361486e+07 4.311719620684e-05 -3.631881596465e-06 3.680905467726e-05 -6.056239885760e-04 7.286603421903e+06 6.953326016748e+06  6.456408738340e-04
1.139837000000e-02 1.200958646558e-06 -7.477508130785e-05 -4.940260438610e+06 -1.685673681448e+04 -4.999333196529e+06 -1.210161745505e+07 4.671977278436e-05 -3.617278200609e-06 4.029281865671e-05 -6.162597692378e-04 7.347070363397e+06 7.132063884107e+06  6.598192888056e-04
1.156504000000e-02 1.307379124615e-06 -7.603841375555e-05 -4.940397542876e+06 -1.676086279911e+04 -5.000975174449e+06 -1.228124132516e+07 5.038518053781e-05 -3.602563886596e-06 4.383749061609e-05 -6.270810567115e-04 7.407538014161e+06 7.310800840866e+06  6.742451122565e-04
1.173171000000e-02 1.415660581528e-06 -7.732377185869e-05 -4.940536620998e+06 -1.666586340918e+04 -5.002617335188e+06 -1.246086543375e+07 5.411454746121e-05 -3.587726662067e-06 4.744415914990e-05 -6.380911700212e-04 7.468006463312e+06 7.489537057545e+06  6.889227705748e-04
1.189838000000e-02 1.525836187049e-06 -7.863154517302e-05 -4.940677649527e+06 -1.657167832024e+04 -5.004259735982e+06 -1.264048993526e+07 5.790901773021e-05 -3.572756792711e-06 5.111392929141e-05 -6.492934758940e-04 7.528475773590e+06 7.668272663931e+06  7.038567542477e-04
1.206505000000e-02 1.637939635651e-06 -7.996212968701e-05 -4.940820600895e+06 -1.647826009625e+04 -5.005902418877e+06 -1.282011494457e+07 6.176975287299e-05 -3.557646249016e-06 5.484792355303e-05 -6.606913922350e-04 7.588945988115e+06 7.847007760682e+06  7.190516224276e-04
1.223172000000e-02 1.752005171952e-06 -8.131592805039e-05 -4.940965444646e+06 -1.638557114395e+04 -5.007545413578e+06 -1.299974054708e+07 6.569793272916e-05 -3.542388316490e-06 5.864728277568e-05 -6.722883909476e-04 7.649417135103e+06 8.025742427267e+06  7.345120066445e-04
1.239839000000e-02 1.868067611845e-06 -8.269334977889e-05 -4.941112148336e+06 -1.629358149670e+04 -5.009188739896e+06 -1.317936680589e+07 6.969475626523e-05 -3.526977312029e-06 6.251316683420e-05 -6.840880003027e-04 7.709889231374e+06 8.204476727368e+06  7.502426139290e-04
1.256506000000e-02 1.986162361343e-06 -8.409481143673e-05 -4.941260678159e+06 -1.620226718168e+04 -5.010832409547e+06 -1.335899376694e+07 7.376144228683e-05 -3.511408375358e-06 6.644675526577e-05 -6.960938070084e-04 7.770362284881e+06 8.383210712775e+06  7.662482295444e-04
1.273173000000e-02 2.106325433807e-06 -8.552073680920e-05 -4.941410999399e+06 -1.611160899428e+04 -5.012476427512e+06 -1.353862146287e+07 7.789923007744e-05 -3.495677312784e-06 7.044924784456e-05 -7.083094580680e-04 7.830836296593e+06 8.561944426236e+06  7.825337194475e-04
1.289840000000e-02 2.228593465312e-06 -8.697155706922e-05 -4.941563076772e+06 -1.602159156473e+04 -5.014120793438e+06 -1.371824991583e+07 8.210937999409e-05 -3.479780478550e-06 7.452186509344e-05 -7.207386624816e-04 7.891311262013e+06 8.740677903366e+06  7.991040325394e-04
1.306507000000e-02 2.353003730134e-06 -8.844771093756e-05 -4.941716874671e+06 -1.593220262690e+04 -5.015765502375e+06 -1.389787913968e+07 8.639317401873e-05 -3.463714681652e-06 7.866584880027e-05 -7.333851928583e-04 7.951787172241e+06 8.919411174310e+06  8.159642028084e-04
1.323174000000e-02 2.479594155112e-06 -8.994964483809e-05 -4.941872357362e+06 -1.584343244682e+04 -5.017410545611e+06 -1.407750914163e+07 9.075191628952e-05 -3.447477113158e-06 8.288246249641e-05 -7.462528869460e-04 8.012264014867e+06 9.098144264838e+06  8.331193513621e-04
1.339841000000e-02 2.608403333751e-06 -9.147781305609e-05 -4.942029489129e+06 -1.575527338636e+04 -5.019055911333e+06 -1.425713992356e+07 9.518693361514e-05 -3.431065291932e-06 8.717299192637e-05 -7.593456491160e-04 8.072741774674e+06 9.276877197210e+06  8.505746884011e-04
1.356508000000e-02 2.739470540343e-06 -9.303267789309e-05 -4.942188234386e+06 -1.566771953070e+04 -5.020701585089e+06 -1.443677148304e+07 9.969957597551e-05 -3.414477017022e-06 9.153874551837e-05 -7.726674518180e-04 8.133220434173e+06 9.455609990892e+06  8.683355151580e-04
1.373175000000e-02 2.872835743762e-06 -9.461470982248e-05 -4.942348557754e+06 -1.558076641186e+04 -5.022347550237e+06 -1.461640381412e+07 1.042912170173e-04 -3.397710333994e-06 9.598105484378e-05 -7.862223370107e-04 8.193699974036e+06 9.634342663051e+06  8.864072258042e-04
1.389842000000e-02 3.008539621471e-06 -9.622438764688e-05 -4.942510424146e+06 -1.549441074203e+04 -5.023993788266e+06 -1.479603690799e+07 1.089632545440e-04 -3.380763499614e-06 1.005012750838e-04 -8.000144175894e-04 8.254180373467e+06 9.813075229019e+06  9.047953093531e-04
1.406509000000e-02 3.146623573312e-06 -9.786219865542e-05 -4.942673798811e+06 -1.540865026522e+04 -5.025640279138e+06 -1.497567075354e+07 1.137171110066e-04 -3.363634966986e-06 1.051007854888e-04 -8.140478788049e-04 8.314661610497e+06 9.991807702589e+06  9.235053515545e-04
1.423176000000e-02 3.287129735591e-06 -9.952863878446e-05 -4.942838647369e+06 -1.532348356422e+04 -5.027287001490e+06 -1.515530533772e+07 1.185542339944e-04 -3.346323359479e-06 1.097809898477e-04 -8.283269796884e-04 8.375143662195e+06 1.017054009628e+07  9.425430367960e-04
1.439843000000e-02 3.430100995322e-06 -1.012242127790e-04 -4.943004935853e+06 -1.523890992863e+04 -5.028933932823e+06 -1.533494064597e+07 1.234760967268e-04 -3.328827454789e-06 1.145433169624e-04 -8.428560544873e-04 8.435626504884e+06 1.034927242161e+07  9.619141500233e-04
1.456510000000e-02 3.575581004322e-06 -1.029494343573e-04 -4.943172630725e+06 -1.515492925899e+04 -5.030581049741e+06 -1.551457666244e+07 1.284841985523e-04 -3.311146174962e-06 1.193892211173e-04 -8.576395141054e-04 8.496110114302e+06 1.052800468921e+07  9.816245786616e-04
1.473177000000e-02 3.723614193893e-06 -1.047048263767e-04 -4.943341698898e+06 -1.507154196366e+04 -5.032228328025e+06 -1.569421337026e+07 1.335800654481e-04 -3.293278573492e-06 1.243201825686e-04 -8.726818475644e-04 8.556594465729e+06 1.070673690898e+07  1.001680314572e-03
1.489844000000e-02 3.874245789375e-06 -1.064909210023e-04 -4.943512107755e+06 -1.498874887924e+04 -5.033875742809e+06 -1.587385075175e+07 1.387652505288e-04 -3.275223826167e-06 1.293377080292e-04 -8.879876234787e-04 8.617079534106e+06 1.088546909024e+07  1.022087456022e-03
1.506511000000e-02 4.027521825141e-06 -1.083082598811e-04 -4.943683825151e+06 -1.490655121222e+04 -5.035523268646e+06 -1.605348878857e+07 1.440413345592e-04 -3.256981225578e-06 1.344433311682e-04 -9.035614915505e-04 8.677565294121e+06 1.106420124180e+07  1.042852209685e-03
1.523178000000e-02 4.183489159589e-06 -1.101573943139e-04 -4.943856819426e+06 -1.482495046734e+04 -5.037170879657e+06 -1.623312746186e+07 1.494099264773e-04 -3.238550171744e-06 1.396386131101e-04 -9.194081840854e-04 8.738051720313e+06 1.124293337206e+07  1.063980892668e-03
1.539845000000e-02 4.342195490698e-06 -1.120388854333e-04 -4.944031059409e+06 -1.474394841601e+04 -5.038818549530e+06 -1.641276675237e+07 1.548726639197e-04 -3.219930171037e-06 1.449251429540e-04 -9.355325175300e-04 8.798538787102e+06 1.142166548906e+07  1.085479934570e-03
1.556512000000e-02 4.503689371695e-06 -1.139533043870e-04 -4.944206514420e+06 -1.466354703717e+04 -5.040466251585e+06 -1.659240664056e+07 1.604312137589e-04 -3.201120828115e-06 1.503045382948e-04 -9.519393940368e-04 8.859026468856e+06 1.160039760060e+07  1.107355879574e-03
1.573179000000e-02 4.668020226559e-06 -1.159012325180e-04 -4.944383154269e+06 -1.458374849652e+04 -5.042113958972e+06 -1.677204710668e+07 1.660872726519e-04 -3.182121846244e-06 1.557784457399e-04 -9.686338030444e-04 8.919514739974e+06 1.177912971415e+07  1.129615388563e-03
1.589846000000e-02 4.835238366600e-06 -1.178832615563e-04 -4.944560949263e+06 -1.450455510869e+04 -5.043761644578e+06 -1.695168813084e+07 1.718425675913e-04 -3.162933023156e-06 1.613485414620e-04 -9.856208228969e-04 8.980003574895e+06 1.195786183704e+07  1.152265241287e-03
1.606513000000e-02 5.005395006899e-06 -1.198999938038e-04 -4.944739870196e+06 -1.442596930582e+04 -5.045409281067e+06 -1.713132969308e+07 1.776988564677e-04 -3.143554247906e-06 1.670165317466e-04 -1.002905622482e-03 9.040492948116e+06 1.213659397646e+07  1.175312338558e-03
1.623180000000e-02 5.178542282905e-06 -1.219520423338e-04 -4.944919888354e+06 -1.434799362237e+04 -5.047056840988e+06 -1.731097177342e+07 1.836579286454e-04 -3.123985501399e-06 1.727841535453e-04 -1.020493462899e-03 9.100982834254e+06 1.231532613942e+07  1.198763704482e-03