 TITLE = "Time curves in points"
 VARIABLES = "TIME "  "DISPLACEMENT_X1"  "DISPLACEMENT_Y1"  "STRESS_XX"  "STRESS_XY"  "STRESS_YY"  "STRESS_ZZ"  "STRAIN_XX"  "STRAIN_XY"  "STRAIN_YY"  "STRAIN_ZZ"  p_(1st_Invariant)  q_(2nd_Invariant)   Effective_Strain
 ZONE T="POINT=POINT3"
0.000000000000e+00 0.000000000000e+00 0.000000000000e+00 0.000000000000e+00 0.000000000000e+00 0.000000000000e+00 0.000000000000e+00 0.000000000000e+00 0.000000000000e+00 0.000000000000e+00 0.000000000000e+00 -0.000000000000e+00 0.000000000000e+00  0.000000000000e+00
2.314800000000e-05 0.000000000000e+00 1.878504671322e-06 -4.876960427491e+05 -2.172390184516e-05 -4.876960427481e+05 -4.935684652689e-06 -1.553738318090e-05 -2.738213572984e-15 -1.553738318084e-05 1.565420561068e-05 3.251306951674e+05 4.876960427437e+05  3.119158879155e-05
4.629600000000e-05 0.000000000000e+00 4.012201793747e-06 -9.949677531764e+05 -1.743656313365e+03 -9.922924639619e+05 -5.193207487302e+03 -3.319516572575e-05 -2.453244774058e-07 -3.300603254120e-05 3.316945649181e-05 6.641511415418e+05 9.884442302485e+05  6.627162027141e-05
6.944400000000e-05 0.000000000000e+00 6.357298616475e-06 -1.503813913349e+06 -3.774389939664e+03 -1.498254042568e+06 -1.163077003239e+04 -5.262537678982e-05 -5.591548008925e-07 -5.221266577800e-05 5.238772168809e-05 1.004566241983e+06 1.489425338162e+06  1.048118270161e-04
9.259200000000e-05 0.000000000000e+00 8.933046567531e-06 -2.012337873601e+06 -5.747491220709e+03 -2.003895077134e+06 -1.803956831201e+04 -7.395498401084e-05 -8.943090992560e-07 -7.329671756122e-05 7.348553537813e-05 1.344757506349e+06 1.990115237259e+06  1.471206453611e-04
1.157400000000e-04 0.000000000000e+00 1.176255069306e-05 -2.520541421500e+06 -7.650818031421e+03 -2.509212834823e+06 -2.435819077423e+04 -9.737110552845e-05 -1.249701349336e-06 -9.644268138544e-05 9.665078272637e-05 1.684704149032e+06 2.490573515316e+06  1.935714486912e-04
1.388880000000e-04 0.000000000000e+00 1.487097920628e-05 -3.028464363395e+06 -9.486994111272e+03 -3.014242271761e+06 -3.058642949973e+04 -1.230792359153e-04 -1.626602061107e-06 -1.218530914332e-04 1.220872276165e-04 2.024431021552e+06 2.990837389247e+06  2.445719245280e-04
1.620360000000e-04 0.000000000000e+00 1.828588828014e-05 -3.536136924965e+06 -1.125845822343e+04 -3.519011544257e+06 -3.672680698912e+04 -1.513044657166e-04 -2.026339453684e-06 -1.497500084384e-04 1.500180582283e-04 2.363958425404e+06 3.490933396755e+06  3.005688023370e-04
1.851840000000e-04 0.000000000000e+00 2.203751525998e-05 -4.043584072072e+06 -1.296733403734e+04 -4.023544674938e+06 -4.278205063246e+04 -1.822937212944e-04 -2.450267793742e-06 -1.803771207456e-04 1.806881592491e-04 2.703303599214e+06 3.990883258990e+06  3.620522602137e-04
2.083320000000e-04 0.000000000000e+00 2.615906103361e-05 -4.550827333317e+06 -1.461556699737e+04 -4.527862764073e+06 -4.875486628485e+04 -2.163180181208e-04 -2.899788519703e-06 -2.140019261360e-04 2.143663379292e-04 3.042481654559e+06 4.490705574778e+06  4.295603572999e-04
2.314800000000e-04 0.000000000000e+00 3.068698853791e-05 -5.057885539275e+06 -1.620498296452e+04 -5.031984489244e+06 -5.464787009459e+04 -2.536748612509e-04 -3.376360212166e-06 -2.509180846755e-04 2.513477033163e-04 3.381505966204e+06 4.990416489025e+06  5.036837853137e-04
3.981500000000e-04 0.000000000000e+00 2.828801563087e-05 -5.080295465187e+06 -1.873399181120e+04 -5.051552330468e+06 -2.426141996302e+05 -2.480926215033e-04 -4.179944730581e-06 -2.448843018819e-04 2.307298322702e-04 3.458153998428e+06 4.823483073249e+06  4.772812963994e-04
5.648200000000e-04 0.000000000000e+00 2.575989516958e-05 -5.081341343673e+06 -1.925477128742e+04 -5.052577327201e+06 -4.236377121870e+05 -2.410873257651e-04 -4.343254106632e-06 -2.378756178587e-04 2.096491647511e-04 3.519185461020e+06 4.643508206311e+06  4.492022446170e-04
7.314900000000e-04 0.000000000000e+00 2.327825907590e-05 -5.082617605892e+06 -1.982181431382e+04 -5.053793156514e+06 -6.047398420804e+05 -2.342172258309e-04 -4.518074706757e-06 -2.309960946971e-04 1.889341768487e-04 3.580383534829e+06 4.463667378800e+06  4.216226963947e-04
8.981600000000e-04 0.000000000000e+00 2.083892657732e-05 -5.083905903688e+06 -2.039420550018e+04 -5.055022499823e+06 -7.858480106174e+05 -2.274642806346e-04 -4.691541322666e-06 -2.242341102448e-04 1.685710660044e-04 3.641592138043e+06 4.283834862842e+06  3.945138778524e-04
1.064830000000e-03 0.000000000000e+00 1.844122542521e-05 -5.085209404612e+06 -2.097248533119e+04 -5.056268087788e+06 -9.669633617798e+05 -2.208266943922e-04 -4.863811084111e-06 -2.175877933096e-04 1.485539273320e-04 3.702813618060e+06 4.104012687731e+06  3.678683417539e-04
1.231500000000e-03 0.000000000000e+00 1.608444608639e-05 -5.086528358585e+06 -2.155672102187e+04 -5.057530185382e+06 -1.148085986930e+06 -2.143025016921e-04 -5.034894385114e-06 -2.110551728142e-04 1.288768626101e-04 3.764048176966e+06 3.924201275612e+06  3.416785850067e-04
1.398170000000e-03 0.000000000000e+00 1.376789168652e-05 -5.087863057445e+06 -2.214698510050e+04 -5.058809095131e+06 -1.329215983778e+06 -2.078897731257e-04 -5.204802822977e-06 -2.046343131227e-04 1.095340757404e-04 3.825296045451e+06 3.744401131493e+06  3.159373468303e-04
1.564840000000e-03 0.000000000000e+00 1.149087716507e-05 -5.089213797947e+06 -2.274335094554e+04 -5.060105124552e+06 -1.510353451386e+06 -2.015866119180e-04 -5.373547840074e-06 -1.983233113421e-04 9.051986886911e-05 3.886557457961e+06 3.564612825839e+06  2.906376421778e-04
1.731510000000e-03 0.000000000000e+00 9.252729082700e-06 -5.090580882367e+06 -2.334589280959e+04 -5.061418586712e+06 -1.691498490026e+06 -1.953911534215e-04 -5.541140730544e-06 -1.921202968085e-04 7.182864077960e-05 3.947832653035e+06 3.384837011713e+06  2.657728202933e-04
1.898180000000e-03 0.000000000000e+00 7.052785424008e-06 -5.091964618640e+06 -2.395468582394e+04 -5.062749800357e+06 -1.872651201201e+06 -1.893015645764e-04 -5.707592641224e-06 -1.860234305455e-04 5.345488526026e-05 4.009121873399e+06 3.205074446833e+06  2.413366564819e-04
2.064850000000e-03 0.000000000000e+00 4.890395404982e-06 -5.093365320420e+06 -2.456980602244e+04 -5.064099089958e+06 -2.053811687616e+06 -1.833160433767e-04 -5.872914577811e-06 -1.800309047253e-04 3.539318949708e-05 4.070425365998e+06 3.025326023411e+06  2.173235005764e-04
2.231520000000e-03 0.000000000000e+00 2.764919284852e-06 -5.094783307196e+06 -2.519133027301e+04 -5.065466785827e+06 -2.234980053199e+06 -1.774328183451e-04 -6.037117386249e-06 -1.741409421447e-04 1.763823249215e-05 4.131743382074e+06 2.845592809267e+06  1.937285263791e-04
2.398190000000e-03 0.000000000000e+00 6.757281748558e-07 -5.096218904530e+06 -2.581933633351e+04 -5.066853224326e+06 -2.416156403084e+06 -1.716501480277e-04 -6.200211768111e-06 -1.683517957133e-04 1.847835194531e-07 4.193076177314e+06 2.665876105687e+06  1.705481707951e-04
2.564860000000e-03 0.000000000000e+00 -1.377796140819e-06 -5.097672444047e+06 -2.645390282478e+04 -5.068258747858e+06 -2.597340843576e+06 -1.659663204790e-04 -6.362208273685e-06 -1.626617479387e-04 -1.697229941035e-05 4.254424011827e+06 2.486177530003e+06  1.477809529186e-04
2.731530000000e-03 0.000000000000e+00 -3.396261389019e-06 -5.099144263750e+06 -2.709510919427e+04 -5.069683705152e+06 -2.778533482152e+06 -1.603796527759e-04 -6.523117293426e-06 -1.570691104363e-04 -3.383807104171e-05 4.315787150351e+06 2.306499137025e+06  1.254291174807e-04
2.898200000000e-03 0.000000000000e+00 -5.380264984226e-06 -5.100634707973e+06 -2.774303573210e+04 -5.071128451207e+06 -2.959734427422e+06 -1.548884905173e-04 -6.682949063155e-06 -1.515722234262e-04 -5.041750036351e-05 4.377165862201e+06 2.126843601480e+06  1.035022566375e-04
3.064870000000e-03 0.000000000000e+00 -7.330394203371e-06 -5.102144127705e+06 -2.839776352965e+04 -5.072593347586e+06 -3.140943789117e+06 -1.494912073531e-04 -6.841713655053e-06 -1.461694552592e-04 -6.671547205238e-05 4.438560421469e+06 1.947214501699e+06  8.202635586630e-05
3.231540000000e-03 0.000000000000e+00 -9.247226359609e-06 -5.103672880753e+06 -2.905937445760e+04 -5.074078762552e+06 -3.322161678031e+06 -1.441862045128e-04 -6.999420974076e-06 -1.408592019419e-04 -8.273678790139e-05 4.499971107112e+06 1.767616775740e+06  6.107072181384e-05
3.398210000000e-03 0.000000000000e+00 -1.113132896902e-05 -5.105221331684e+06 -2.972795115047e+04 -5.075585070991e+06 -3.503388205953e+06 -1.389719103267e-04 -7.156080756232e-06 -1.356398866556e-04 -9.848616823852e-05 4.561398202876e+06 1.588057486293e+06  4.085249953880e-05
3.564880000000e-03 0.000000000000e+00 -1.298325991804e-05 -5.106789852419e+06 -3.040357692329e+04 -5.077112654948e+06 -3.684623485680e+06 -1.338467797917e-04 -7.311702551244e-06 -1.305099593173e-04 -1.139682532921e-04 4.622841997683e+06 1.408547170350e+06  2.236832794474e-05
3.731550000000e-03 0.000000000000e+00 -1.480356763111e-05 -5.108378821987e+06 -3.108633577174e+04 -5.078661903351e+06 -3.865867630844e+06 -1.288092940982e-04 -7.466295725172e-06 -1.254678961041e-04 -1.291876045702e-04 4.684302785394e+06 1.229102368484e+06  1.340928263507e-05
3.898220000000e-03 0.000000000000e+00 -1.659279122474e-05 -5.109988627201e+06 -3.177631227768e+04 -5.080233212618e+06 -4.047120755899e+06 -1.238579602132e-04 -7.619869440880e-06 -1.205121990315e-04 -1.441487061800e-04 4.745780865239e+06 1.049750743964e+06  2.578727808180e-05
4.064890000000e-03 0.000000000000e+00 -1.835146067437e-05 -5.111619662650e+06 -3.247359155767e+04 -5.081826986568e+06 -4.228382976034e+06 -1.189913104298e-04 -7.772432647428e-06 -1.156413954997e-04 -1.588559661634e-04 4.807276541751e+06 8.705425125005e+05  4.376286142381e-05
4.231560000000e-03 0.000000000000e+00 -2.008009696512e-05 -5.113272331071e+06 -3.317825914985e+04 -5.083443636669e+06 -4.409654406943e+06 -1.142079019482e-04 -7.923994052225e-06 -1.108540378715e-04 -1.733137177800e-04 4.868790124894e+06 6.915795838297e+05  6.238066837611e-05
4.398230000000e-03 0.000000000000e+00 -2.177921224705e-05 -5.114947043668e+06 -3.389040095101e+04 -5.085083582131e+06 -4.590935164804e+06 -1.095063164497e-04 -8.074562093698e-06 -1.061487030440e-04 -1.875262207968e-04 4.930321930201e+06 5.131053934284e+05  8.096873086489e-05
4.564900000000e-03 0.000000000000e+00 -2.344930998704e-05 -5.116644221381e+06 -3.461010307072e+04 -5.086747250636e+06 -4.772225366310e+06 -1.048851597182e-04 -8.224144861887e-06 -1.015239920705e-04 -2.014976627163e-04 4.991872279442e+06 3.358789571525e+05  9.936253659743e-05
4.731570000000e-03 0.000000000000e+00 -2.509088509676e-05 -5.118364297529e+06 -3.533745200050e+04 -5.088435079115e+06 -4.953525129306e+06 -1.003430612998e-04 -8.372749946219e-06 -9.697852982145e-05 -2.152321599695e-04 5.053441501983e+06 1.639524582558e+05  1.175060929449e-04
4.898240000000e-03 0.000000000000e+00 -2.670442369337e-05 -5.120107779435e+06 -3.607254942916e+04 -5.090147561779e+06 -5.134834592036e+06 -9.587867667499e-05 -8.520386311700e-06 -9.251096688633e-05 -2.287337574530e-04 5.115029977750e+06 7.388774343057e+04  1.353773328976e-04
5.064910000000e-03 0.000000000000e+00 -2.829040226055e-05 -5.121875202345e+06 -3.681550467149e+04 -5.091885166146e+06 -5.316154011206e+06 -9.149069165267e-05 -8.667055746634e-06 -8.811998406966e-05 -2.420064190961e-04 5.176638126566e+06 2.203093972271e+05  1.529674604196e-04
5.231580000000e-03 0.000000000000e+00 -2.984929342725e-05 -5.123666387868e+06 -3.756627526945e+04 -5.093647959065e+06 -5.497483040649e+06 -8.717778125180e-05 -8.812766717479e-06 -8.380425500473e-05 -2.550540625998e-04 5.238265795861e+06 3.950886731538e+05  1.702737681841e-04
5.398250000000e-03 0.000000000000e+00 -3.138156318621e-05 -5.125482134337e+06 -3.832499098823e+04 -5.095436666027e+06 -5.678821972051e+06 -8.293865779674e-05 -8.957529524519e-06 -7.956248406851e-05 -2.678805701585e-04 5.299913590805e+06 5.728171396956e+05  1.872966030882e-04
5.564920000000e-03 0.000000000000e+00 -3.288766820507e-05 -5.127322903765e+06 -3.909173458202e+04 -5.097251731113e+06 -5.860170912785e+06 -7.877205303991e-05 -9.101347275419e-06 -7.539339904536e-05 -2.804897394975e-04 5.361581849221e+06 7.513937515667e+05  2.040379331556e-04
5.731590000000e-03 0.000000000000e+00 -3.436805736179e-05 -5.129189177057e+06 -3.986658288909e+04 -5.099093633930e+06 -6.041529961850e+06 -7.467672120712e-05 -9.244224641420e-06 -7.129574953778e-05 -2.928853033753e-04 5.423270924279e+06 9.303208446780e+05  2.205006585098e-04
5.898260000000e-03 0.000000000000e+00 -3.582317195607e-05 -5.131081448614e+06 -4.064960969596e+04 -5.100962867625e+06 -6.222899214466e+06 -7.065143781354e-05 -9.386166032872e-06 -6.726830625666e-05 -3.050709313412e-04 5.484981176902e+06 1.109420721306e+06  2.366882271035e-04
6.064930000000e-03 0.000000000000e+00 -3.725344586098e-05 -5.133000225489e+06 -4.144088472800e+04 -5.102859936213e+06 -6.404278759969e+06 -6.669499915325e-05 -9.527175186367e-06 -6.330986055936e-05 -3.170502309850e-04 5.546712973890e+06 1.288614097714e+06  2.526044133173e-04
6.231600000000e-03 0.000000000000e+00 -3.865930567235e-05 -5.134946029741e+06 -4.224047233438e+04 -5.104785356002e+06 -6.585668679915e+06 -6.280622197975e-05 -9.667254919725e-06 -5.941922411276e-05 -3.288267490503e-04 5.608466688553e+06 1.467860149679e+06  2.682531844885e-04
6.398270000000e-03 0.000000000000e+00 -4.004117085671e-05 -5.136919398388e+06 -4.304842980279e+04 -5.106739654724e+06 -6.767069045593e+06 -5.898394309101e-05 -9.806406888163e-06 -5.559522844003e-05 -3.404039726558e-04 5.670242699568e+06 1.647135601468e+06  2.836386177034e-04
6.564940000000e-03 0.000000000000e+00 -4.139945390656e-05 -5.138920885657e+06 -4.386480500858e+04 -5.108723372844e+06 -6.948479914711e+06 -5.522701901660e-05 -9.944631265668e-06 -5.183672455424e-05 -3.517853304271e-04 5.732041391071e+06 1.826426104372e+06  2.987648460531e-04
6.731610000000e-03 0.000000000000e+00 -4.273456049951e-05 -5.140951065060e+06 -4.468963356214e+04 -5.110737064387e+06 -7.129901327320e+06 -5.153432568515e-05 -1.008192638044e-05 -4.814258254670e-05 -3.629741936906e-04 5.793863152256e+06 2.005722230566e+06  3.136360232160e-04
6.898280000000e-03 0.000000000000e+00 -4.404688967187e-05 -5.143010531428e+06 -4.552293443395e+04 -5.112781297449e+06 -7.311333299802e+06 -4.790475808575e-05 -1.021828814182e-05 -4.451169115378e-05 -3.739738776895e-04 5.855708376226e+06 2.185017433207e+06  3.282562996308e-04
7.064950000000e-03 0.000000000000e+00 -4.533683400037e-05 -5.145099903689e+06 -4.636470411188e+04 -5.114856654835e+06 -7.492775816607e+06 -4.433722994879e-05 -1.035370929053e-05 -4.094295730057e-05 -3.847876428376e-04 5.917577458377e+06 2.364306928134e+06  3.426298062571e-04
7.231620000000e-03 0.000000000000e+00 -4.660477982000e-05 -5.147219829075e+06 -4.721490820047e+04 -5.116963735402e+06 -7.674228818748e+06 -4.083067346192e-05 -1.048817832173e-05 -3.743530563416e-05 -3.954186960165e-04 5.979470794408e+06 2.543587039687e+06  3.567606434001e-04
7.398290000000e-03 0.000000000000e+00 -4.785110746546e-05 -5.149370986807e+06 -4.807346892535e+04 -5.119103153692e+06 -7.855692186671e+06 -3.738403895010e-05 -1.062167788138e-05 -3.398767794584e-05 -4.058701920006e-04 6.041388775723e+06 2.722854794555e+06  3.706528731602e-04
7.564960000000e-03 0.000000000000e+00 -4.907619158147e-05 -5.151554093867e+06 -4.894024631928e+04 -5.121275539909e+06 -8.037165714666e+06 -3.399629461755e-05 -1.075418235860e-05 -3.059903254364e-05 -4.161452349627e-04 6.103331782814e+06 2.902107649143e+06  3.843105143146e-04
7.731630000000e-03 0.000000000000e+00 -5.028040151705e-05 -5.153769910990e+06 -4.981500858876e+04 -5.123481537355e+06 -8.218649071014e+06 -3.066642628909e-05 -1.088565409374e-05 -2.726834344924e-05 -4.262468801634e-04 6.165300173119e+06 3.081343288488e+06  3.977375390903e-04
7.898300000000e-03 0.000000000000e+00 -5.146410188853e-05 -5.156019249775e+06 -5.069738364818e+04 -5.125721796460e+06 -8.400141733760e+06 -2.739343721680e-05 -1.101603718181e-05 -2.399459937257e-05 -4.361781358229e-04 6.227294259998e+06 3.260559453592e+06  4.109378712682e-04
8.064970000000e-03 0.000000000000e+00 -5.262765339925e-05 -5.158302977095e+06 -5.158677592264e+04 -5.127996958473e+06 -8.581642881789e+06 -2.417634791435e-05 -1.114524684393e-05 -2.077680222918e-05 -4.459419652295e-04 6.289314272453e+06 3.439753762566e+06  4.239153853380e-04
8.231640000000e-03 0.000000000000e+00 -5.377141416992e-05 -5.160622012748e+06 -5.248221439512e+04 -5.130307618637e+06 -8.763151199877e+06 -2.101419615307e-05 -1.127315002440e-05 -1.761396494421e-05 -4.555412888665e-04 6.351360277087e+06 3.618923478697e+06  4.366739060104e-04
8.398310000000e-03 0.000000000000e+00 -5.489574205000e-05 -5.162977301085e+06 -5.338205379001e+04 -5.132654237112e+06 -8.944664503976e+06 -1.790603723935e-05 -1.139952725991e-05 -1.450510787136e-05 -4.649789858123e-04 6.413432014058e+06 3.798065147243e+06  4.492172067630e-04
8.564980000000e-03 0.000000000000e+00 -5.600099905189e-05 -5.165369695464e+06 -5.428332717576e+04 -5.135036908585e+06 -9.126178952547e+06 -1.485094491425e-05 -1.152399011891e-05 -1.144925238909e-05 -4.742578914460e-04 6.475528518865e+06 3.977173930173e+06  4.615490030912e-04
8.731650000000e-03 0.000000000000e+00 -5.708756093356e-05 -5.167799546954e+06 -5.518015263694e+04 -5.137454712525e+06 -9.307687176429e+06 -1.184801413614e-05 -1.164577816257e-05 -8.445408510056e-06 -4.833807793708e-04 6.537647145303e+06 4.156242190496e+06  4.736729239695e-04
8.898320000000e-03 0.000000000000e+00 -5.815584152669e-05 -5.170265108692e+06 -5.605906203003e+04 -5.139903557662e+06 -9.489173046006e+06 -8.896369356789e-06 -1.176316431704e-05 -5.492547495003e-06 -4.923502747038e-04 6.599780570787e+06 4.335255954821e+06  4.855923925217e-04
9.064990000000e-03 0.000000000000e+00 -5.920637130986e-05 -5.172754914178e+06 -5.688157472502e+04 -5.142367007203e+06 -9.670593187111e+06 -5.995182522053e-06 -1.187124101133e-05 -2.589520773334e-06 -5.011684298682e-04 6.661905036164e+06 4.514184199388e+06  4.973100794235e-04
9.231660000000e-03 0.000000000000e+00 -6.024017096721e-05 -5.175191486116e+06 -5.750381459288e+04 -5.144754726292e+06 -9.851793809915e+06 -3.143189454642e-06 -1.195177062739e-05 2.657591925275e-07 -5.098350168862e-04 6.723913340774e+06 4.692951776772e+06  5.088261488955e-04
9.398330000000e-03 0.000000000000e+00 -6.126096454900e-05 -5.176911127818e+06 -5.755321333011e+04 -5.146368692373e+06 -1.003229324877e+07 -3.237205129856e-07 -1.195833541346e-05 3.092126724392e-06 -5.183609492348e-04 6.785191022988e+06 4.871745138339e+06  5.201661078428e-04
9.565000000000e-03 0.000000000000e+00 -6.228351513182e-05 -5.176307636450e+06 -5.702923400744e+04 -5.145519306801e+06 -1.021126612772e+07 2.528404338607e-06 -1.189233339155e-05 5.959898046325e-06 -5.268477302415e-04 6.844364356991e+06 5.051388907269e+06  5.314994832240e-04
9.731670000000e-03 0.000000000000e+00 -6.332635438503e-05 -5.173980021070e+06 -5.623728794008e+04 -5.143056566812e+06 -1.038979160981e+07 5.471962140314e-06 -1.179115931358e-05 8.912159185172e-06 -5.354907114916e-04 6.902276065896e+06 5.232248617752e+06  5.430750976834e-04
9.898340000000e-03 0.000000000000e+00 -6.438850935274e-05 -5.171627247144e+06 -5.531022451442e+04 -5.140660152020e+06 -1.056839363529e+07 8.468865682157e-06 -1.167085645097e-05 1.191198541122e-05 -5.442828232421e-04 6.960227011485e+06 5.413164162495e+06  5.548496207067e-04
1.006501000000e-02 0.000000000000e+00 -6.546905747950e-05 -5.169265210402e+06 -5.434848014420e+04 -5.138268398441e+06 -1.074683635497e+07 1.151523471871e-05 -1.154398462820e-05 1.496040949381e-05 -5.532182511286e-04 7.018123321273e+06 5.593926069495e+06  5.668167036793e-04
1.023168000000e-02 0.000000000000e+00 -6.656829648902e-05 -5.166899379832e+06 -5.338428294638e+04 -5.135881713190e+06 -1.092524669600e+07 1.461435363031e-05 -1.141460821455e-05 1.806102792989e-05 -5.623073456581e-04 7.076009263007e+06 5.774658955447e+06  5.789903865432e-04
1.039835000000e-02 0.000000000000e+00 -6.768659231306e-05 -5.164545696931e+06 -5.242615626106e+04 -5.133513471900e+06 -1.110365446391e+07 1.776739491446e-05 -1.128381896154e-05 2.121516810539e-05 -5.715547506815e-04 7.133904544246e+06 5.955377839423e+06  5.913766153943e-04
1.056502000000e-02 0.000000000000e+00 -6.882430798231e-05 -5.162212189848e+06 -5.147675726982e+04 -5.131170302750e+06 -1.128206881262e+07 2.097534440048e-05 -1.115196480924e-05 2.442389819226e-05 -5.809640003148e-04 7.191817101738e+06 6.136084268485e+06  6.039799553019e-04
1.073169000000e-02 0.000000000000e+00 -6.998180368113e-05 -5.159903033716e+06 -5.053705836673e+04 -5.128855529290e+06 -1.146049331380e+07 2.423917462111e-05 -1.101917952781e-05 2.768823908269e-05 -5.905383181979e-04 7.249750625602e+06 6.316777771335e+06  6.168046172632e-04
1.089836000000e-02 0.000000000000e+00 -7.115943992757e-05 -5.157620502660e+06 -4.960741957612e+04 -5.126570865256e+06 -1.163892953536e+07 2.755986900069e-05 -1.088551872807e-05 3.100920453339e-05 -6.002808248135e-04 7.307706967758e+06 6.497457644412e+06  6.298547066528e-04
1.106503000000e-02 0.000000000000e+00 -7.235757976116e-05 -5.155365849023e+06 -4.868794268275e+04 -5.124317171966e+06 -1.181737818977e+07 3.093842696793e-05 -1.075100478846e-05 3.438781381592e-05 -6.101946140866e-04 7.365687070255e+06 6.678123289195e+06  6.431343116278e-04
1.123170000000e-02 0.000000000000e+00 -7.357659011862e-05 -5.153139735023e+06 -4.777860996410e+04 -5.122094826049e+06 -1.199583958149e+07 3.437586545003e-05 -1.061564447253e-05 3.782509715637e-05 -6.202827882138e-04 7.423691380855e+06 6.858774260451e+06  6.566475425402e-04
1.139837000000e-02 0.000000000000e+00 -7.481684272323e-05 -5.150942461608e+06 -4.687934533079e+04 -5.119903912062e+06 -1.217431380465e+07 3.787321952140e-05 -1.047943671166e-05 4.132209861923e-05 -6.305484758335e-04 7.481720059439e+06 7.039410251735e+06  6.703985523427e-04
1.156504000000e-02 0.000000000000e+00 -7.607871468946e-05 -5.148774099425e+06 -4.599004336412e+04 -5.117744331578e+06 -1.235280083896e+07 4.143154277717e-05 -1.034237631068e-05 4.487987782744e-05 -6.409948425053e-04 7.539773089989e+06 7.220031069187e+06  6.843915483195e-04
1.173171000000e-02 0.000000000000e+00 -7.736258895719e-05 -5.146634566056e+06 -4.511058407244e+04 -5.115615866608e+06 -1.253130059938e+07 4.505190769981e-05 -1.020445584116e-05 4.849951117933e-05 -6.516250973633e-04 7.597850344013e+06 7.400636608696e+06  6.986307996197e-04
1.189838000000e-02 0.000000000000e+00 -7.866885462909e-05 -5.144523675386e+06 -4.424084064358e+04 -5.113518219863e+06 -1.270981296342e+07 4.873540597325e-05 -1.006566664155e-05 5.218209272165e-05 -6.624424976295e-04 7.655951619557e+06 7.581226836498e+06  7.131206423974e-04
1.206505000000e-02 0.000000000000e+00 -7.999790723729e-05 -5.142441169486e+06 -4.338068366247e+04 -5.111451040446e+06 -1.288833778680e+07 5.248314881190e-05 -9.925999366315e-06 5.592873485857e-05 -6.734503519188e-04 7.714076665577e+06 7.761801774140e+06  7.278654836420e-04
1.223172000000e-02 0.000000000000e+00 -8.135014897017e-05 -5.140386739806e+06 -4.252998345629e+04 -5.109413940716e+06 -1.306687491260e+07 5.629626730920e-05 -9.785444295581e-06 5.974056896512e-05 -6.846520228265e-04 7.772225197706e+06 7.942361487103e+06  7.428698042401e-04
1.239839000000e-02 0.000000000000e+00 -8.272598887682e-05 -5.138360042230e+06 -4.168861137970e+04 -5.107406508248e+06 -1.324542417698e+07 6.017591277623e-05 -9.643991507647e-06 6.361874591531e-05 -6.960509290456e-04 7.830396909154e+06 8.122906075562e+06  7.581381615116e-04
1.256506000000e-02 0.000000000000e+00 -8.412584304838e-05 -5.136360707523e+06 -4.085644050564e+04 -5.105428313995e+06 -1.342398541262e+07 6.412325709814e-05 -9.501630974073e-06 6.756443657655e-05 -7.076505471962e-04 7.888591478045e+06 8.303435667267e+06  7.736751914479e-04
1.273173000000e-02 0.000000000000e+00 -8.555013479004e-05 -5.134388348406e+06 -4.003334604494e+04 -5.103478917679e+06 -1.360255845096e+07 6.813949312180e-05 -9.358352621957e-06 7.157883230079e-05 -7.194544134985e-04 7.946808572350e+06 8.483950412534e+06  7.894856108068e-04
1.289840000000e-02 0.000000000000e+00 -8.699929478760e-05 -5.132442566013e+06 -3.921920546882e+04 -5.101557872958e+06 -1.378114312367e+07 7.222583499066e-05 -9.214146353141e-06 7.566314533635e-05 -7.314661252538e-04 8.005047854212e+06 8.664450478853e+06  8.055742189474e-04
1.306507000000e-02 0.000000000000e+00 -8.847376126677e-05 -5.130522953147e+06 -3.841389860747e+04 -5.099664729700e+06 -1.395973926345e+07 7.638351856467e-05 -9.069002063640e-06 7.981860930695e-05 -7.436893423241e-04 8.063308982099e+06 8.844936048194e+06  8.219458997419e-04
1.323174000000e-02 0.000000000000e+00 -8.997398014808e-05 -5.128629097814e+06 -3.761730762703e+04 -5.097799036740e+06 -1.413834670472e+07 8.061380179362e-05 -8.922909644381e-06 8.404647963119e-05 -7.561277885059e-04 8.121591613090e+06 9.025407313711e+06  8.386056233275e-04
1.339841000000e-02 0.000000000000e+00 -9.150040520533e-05 -5.126760585618e+06 -3.682931702897e+04 -5.095960343673e+06 -1.431696528405e+07 8.491796511766e-05 -8.775858987584e-06 8.834803395885e-05 -7.687852528964e-04 8.179895404446e+06 9.205864477493e+06  8.555584478751e-04
1.356508000000e-02 0.000000000000e+00 -9.305349821960e-05 -5.124917001410e+06 -3.604981352332e+04 -5.094148202014e+06 -1.449559484015e+07 8.929731187647e-05 -8.627839970659e-06 9.272457260830e-05 -7.816655912248e-04 8.238220014523e+06 9.386307748533e+06  8.728095213270e-04
1.373175000000e-02 0.000000000000e+00 -9.463372913502e-05 -5.123097930808e+06 -3.527868602432e+04 -5.092362166333e+06 -1.467423521425e+07 9.375316872645e-05 -8.478842463008e-06 9.717741900544e-05 -7.947727272001e-04 8.296565103796e+06 9.566737341298e+06  8.903640831579e-04
1.389842000000e-02 0.000000000000e+00 -9.624157621552e-05 -5.121302961371e+06 -3.451582550952e+04 -5.090601795105e+06 -1.485288625016e+07 9.828688605961e-05 -8.328856307031e-06 1.017079201216e-04 -8.081106538404e-04 8.354930335544e+06 9.747153474291e+06  9.082274661177e-04
1.406509000000e-02 0.000000000000e+00 -9.787752620224e-05 -5.119531683329e+06 -3.376112505954e+04 -5.088866651174e+06 -1.503154779416e+07 1.028998384394e-04 -8.177871333930e-06 1.063174469236e-04 -8.216834348105e-04 8.413315376221e+06 9.927556368970e+06  9.264050979992e-04
1.423176000000e-02 0.000000000000e+00 -9.954207447376e-05 -5.117783690363e+06 -3.301447964281e+04 -5.087156302332e+06 -1.521021969507e+07 1.075934250367e-04 -8.025877329169e-06 1.110073948202e-04 -8.354952057691e-04 8.471719895920e+06 1.010794624873e+07  9.449025034121e-04
1.439843000000e-02 0.000000000000e+00 -1.012357252072e-04 -5.116058580039e+06 -3.227578617453e+04 -5.085470321566e+06 -1.538890180434e+07 1.123690700879e-04 -7.872864051837e-06 1.157791841305e-04 -8.495501757510e-04 8.530143568650e+06 1.028832333841e+07  9.637253056169e-04
1.456510000000e-02 0.000000000000e+00 -1.029589915430e-04 -5.114355954407e+06 -3.154494336365e+04 -5.083808287508e+06 -1.556759397587e+07 1.172282233370e-04 -7.718821211092e-06 1.206342605329e-04 -8.638526285181e-04 8.588586072595e+06 1.046868786318e+07  9.828792283095e-04
1.473177000000e-02 0.000000000000e+00 -1.047123957501e-04 -5.112675420145e+06 -3.082185170525e+04 -5.082169784442e+06 -1.574629606608e+07 1.221723605160e-04 -7.563738471774e-06 1.255740955523e-04 -8.784069239819e-04 8.647047090222e+06 1.064904004841e+07  1.002370097517e-03
1.489844000000e-02 0.000000000000e+00 -1.064964693947e-04 -5.111016588898e+06 -3.010641340282e+04 -5.080554402555e+06 -1.592500793377e+07 1.272029838116e-04 -7.407605445207e-06 1.306001870311e-04 -8.932174996059e-04 8.705526308409e+06 1.082938011890e+07  1.022203843455e-03
1.506511000000e-02 0.000000000000e+00 -1.083117535139e-04 -5.109379077481e+06 -2.939853231621e+04 -5.078961738025e+06 -1.610372944022e+07 1.323216223528e-04 -7.250411684878e-06 1.357140596205e-04 -9.082888718531e-04 8.764023418574e+06 1.100970829865e+07  1.042386502461e-03
1.523178000000e-02 0.000000000000e+00 -1.101587987881e-04 -5.107762508102e+06 -2.869811391156e+04 -5.077391393181e+06 -1.628246044901e+07 1.375298326974e-04 -7.092146682137e-06 1.409172652709e-04 -9.236256376398e-04 8.822538116763e+06 1.119002481032e+07  1.062924218919e-03
1.539845000000e-02 0.000000000000e+00 -1.120381657174e-04 -5.106166508220e+06 -2.800506523658e+04 -5.075842976294e+06 -1.646120082600e+07 1.428291993483e-04 -6.932799867373e-06 1.462113837486e-04 -9.392324758311e-04 8.881070103504e+06 1.137032987521e+07  1.083823247270e-03
1.556512000000e-02 0.000000000000e+00 -1.139504248058e-04 -5.104590710689e+06 -2.731929484880e+04 -5.074316101648e+06 -1.663995043932e+07 1.482213352642e-04 -6.772360600136e-06 1.515980231500e-04 -9.551141487553e-04 8.939619083887e+06 1.155062371297e+07  1.105089954024e-03
1.573179000000e-02 0.000000000000e+00 -1.158961567413e-04 -5.103034754239e+06 -2.664071278364e+04 -5.072810389982e+06 -1.681870915935e+07 1.537078823561e-04 -6.610818167897e-06 1.570788203988e-04 -9.712755037151e-04 8.998184767855e+06 1.173090654093e+07  1.126730819763e-03
1.589846000000e-02 0.000000000000e+00 -1.178759525867e-04 -5.101498283053e+06 -2.596923052101e+04 -5.071325468010e+06 -1.699747685859e+07 1.592905120453e-04 -6.448161784255e-06 1.626554418050e-04 -9.877214745765e-04 9.056766869886e+06 1.191117857446e+07  1.148752441280e-03
1.606513000000e-02 0.000000000000e+00 -1.198904139645e-04 -5.099980946713e+06 -2.530476095288e+04 -5.069860968345e+06 -1.717625341168e+07 1.649709258087e-04 -6.284380587200e-06 1.683295836092e-04 -1.004457083360e-03 9.115365108911e+06 1.209144002670e+07  1.171161533707e-03
1.623180000000e-02 0.000000000000e+00 -1.219401532561e-04 -5.098482400501e+06 -2.464721833997e+04 -5.068416529746e+06 -1.735503869531e+07 1.707508557151e-04 -6.119463634379e-06 1.741029725209e-04 -1.021487441851e-03 9.173979208519e+06 1.227169110832e+07  1.193964932655e-03
1.639847000000e-02 0.000000000000e+00 -1.240257937949e-04 -5.097002305274e+06 -2.399651828230e+04 -5.066991796975e+06 -1.753383258823e+07 1.766320649936e-04 -5.953399901461e-06 1.799773662855e-04 -1.038817753250e-03 9.232608896828e+06 1.245193202739e+07  1.217169596427e-03