 TITLE = "Time curves in points"
 VARIABLES = "TIME "  "DISPLACEMENT_X1"  "DISPLACEMENT_Y1"  "STRESS_XX"  "STRESS_XY"  "STRESS_YY"  "STRESS_ZZ"  "STRAIN_XX"  "STRAIN_XY"  "STRAIN_YY"  "STRAIN_ZZ"  p_(1st_Invariant)  q_(2nd_Invariant)   Effective_Strain
 ZONE T="POINT=POINT0"
0.000000000000e+00 0.000000000000e+00 0.000000000000e+00 0.000000000000e+00 0.000000000000e+00 0.000000000000e+00 0.000000000000e+00 0.000000000000e+00 0.000000000000e+00 0.000000000000e+00 0.000000000000e+00 -0.000000000000e+00 0.000000000000e+00  0.000000000000e+00
2.314800000000e-05 0.000000000000e+00 0.000000000000e+00 -4.879245909123e+05 9.840646763436e-08 -4.879245909115e+05 -8.507297655645e-04 -1.553738316002e-05 1.933331526285e-17 -1.553738315997e-05 1.565420556277e-05 3.252830608915e+05 4.879245900612e+05  3.119158872277e-05
4.629600000000e-05 0.000000000000e+00 0.000000000000e+00 -9.912225695470e+05 2.856977361932e+03 -9.902903174907e+05 5.210053335548e+03 -3.318835246915e-05 4.002164004040e-07 -3.312124550824e-05 3.358372065224e-05 6.587676112341e+05 9.959791170682e+05  6.674214486270e-05
6.944400000000e-05 0.000000000000e+00 0.000000000000e+00 -1.495721237875e+06 5.804487921799e+03 -1.493813279228e+06 9.601265810032e+03 -5.260358014268e-05 8.538939726638e-07 -5.245960975318e-05 5.327225982283e-05 9.933110837642e+05 1.504403025641e+06  1.058142647978e-04
9.259200000000e-05 0.000000000000e+00 0.000000000000e+00 -1.999951417936e+06 8.723174897902e+03 -1.997072240366e+06 1.380265568216e+04 -7.391636678530e-05 1.347387055279e-06 -7.368835888084e-05 7.487745781609e-05 1.327740334207e+06 2.012372749880e+06  1.486982663470e-04
1.157400000000e-04 0.000000000000e+00 0.000000000000e+00 -2.503921885499e+06 1.163004893776e+04 -2.500068505405e+06 1.789485193186e+04 -9.731443879630e-05 1.887284413714e-06 -9.699382344065e-05 9.859149401221e-05 1.662031846324e+06 2.519972769976e+06  1.957731145506e-04
1.388880000000e-04 0.000000000000e+00 0.000000000000e+00 -3.007667512399e+06 1.453400577103e+04 -3.002833343902e+06 2.189839550290e+04 -1.230033976675e-04 2.479742233385e-06 -1.225803560909e-04 1.246226210537e-04 1.996200820266e+06 3.027256388119e+06  2.474520466174e-04
1.620360000000e-04 0.000000000000e+00 0.000000000000e+00 -3.511216670387e+06 1.743898827580e+04 -3.505393630855e+06 2.582182580979e+04 -1.512084098584e-04 3.130745786751e-06 -1.506719192324e-04 1.531984886109e-04 2.330262825144e+06 3.534259649674e+06  3.041873450983e-04
1.851840000000e-04 0.000000000000e+00 0.000000000000e+00 -4.014594126042e+06 2.034702983570e+04 -4.007773449545e+06 2.966999524081e+04 -1.821765202403e-04 3.846565254313e-06 -1.815142985952e-04 1.845687247484e-04 2.664232526782e+06 4.041011778250e+06  3.664751489701e-04
2.083320000000e-04 0.000000000000e+00 0.000000000000e+00 -4.517822028628e+06 2.325930208057e+04 -4.509994638208e+06 3.344621734416e+04 -2.161789272247e-04 4.633953745551e-06 -2.153773360692e-04 2.190072898267e-04 2.998123483164e+06 4.547538053361e+06  4.348600524528e-04
2.314800000000e-04 0.000000000000e+00 0.000000000000e+00 -5.020920290568e+06 2.617652572272e+04 -5.012076994313e+06 3.715301849872e+04 -2.535134008751e-04 5.500262975332e-06 -2.525573231104e-04 2.568149339933e-04 3.331948088794e+06 5.053860840439e+06  5.099399656420e-04
3.981500000000e-04 0.000000000000e+00 0.000000000000e+00 -5.038195703244e+06 2.911538388557e+04 -5.028391649808e+06 -1.392386848628e+05 -2.479033088106e-04 6.431863679514e-06 -2.467952729817e-04 2.372152173459e-04 3.401942012638e+06 4.894322166323e+06  4.846935011598e-04
5.648200000000e-04 0.000000000000e+00 0.000000000000e+00 -5.038858585297e+06 2.922762254689e+04 -5.029063379381e+06 -3.190731899385e+05 -2.409051842592e-04 6.467163967173e-06 -2.397984991107e-04 2.162194040339e-04 3.462331718206e+06 4.715167188577e+06  4.567096381844e-04
7.314900000000e-04 0.000000000000e+00 0.000000000000e+00 -5.039639875644e+06 2.937711330280e+04 -5.029849188185e+06 -4.987495568216e+05 -2.340410522666e-04 6.513313269256e-06 -2.329350362918e-04 1.956070120070e-04 3.522746206883e+06 4.536288279155e+06  4.292443995348e-04
8.981600000000e-04 0.000000000000e+00 0.000000000000e+00 -5.040432475856e+06 2.952706099969e+04 -5.030646277280e+06 -6.784223994020e+05 -2.272940866329e-04 6.558816667351e-06 -2.261887238316e-04 1.753449660681e-04 3.583167050846e+06 4.357425354721e+06  4.022479590799e-04
1.064830000000e-03 0.000000000000e+00 0.000000000000e+00 -5.041237288237e+06 2.967781438322e+04 -5.031455594236e+06 -8.580898240861e+05 -2.206624111218e-04 6.603786417145e-06 -2.195576926444e-04 1.554275535518e-04 3.643594235520e+06 4.178581390605e+06  3.757129734027e-04
1.231500000000e-03 0.000000000000e+00 0.000000000000e+00 -5.042054531182e+06 2.982938586607e+04 -5.032277354111e+06 -1.037751731139e+06 -2.141440617074e-04 6.648231214681e-06 -2.130399783247e-04 1.358488966596e-04 3.704027872144e+06 3.999756880972e+06  3.496318999062e-04
1.398170000000e-03 0.000000000000e+00 0.000000000000e+00 -5.042884427203e+06 2.998178988024e+04 -5.033111777651e+06 -1.217408006673e+06 -2.077371080797e-04 6.692160133388e-06 -2.066336504329e-04 1.166032188349e-04 3.764468070509e+06 3.820952372309e+06  3.239974143256e-04
1.564840000000e-03 0.000000000000e+00 0.000000000000e+00 -5.043727202549e+06 3.013504107104e+04 -5.033959089278e+06 -1.397058533769e+06 -2.014396526814e-04 6.735582081661e-06 -2.003368112851e-04 9.768484169782e-05 3.824914941865e+06 3.642168459226e+06  2.988024376066e-04
1.731510000000e-03 0.000000000000e+00 0.000000000000e+00 -5.044583087316e+06 3.028915429042e+04 -5.034819517226e+06 -1.576703193113e+06 -1.952498301331e-04 6.778505803151e-06 -1.941475953819e-04 7.908818331454e-05 3.885368599218e+06 3.463405794605e+06  2.740401796720e-04
1.898180000000e-03 0.000000000000e+00 0.000000000000e+00 -5.045452315407e+06 3.044414459769e+04 -5.035693293506e+06 -1.756341862508e+06 -1.891658066986e-04 6.820939879230e-06 -1.880641688742e-04 6.080775660547e-05 3.945829157141e+06 3.284665104201e+06  2.497042075875e-04
2.064850000000e-03 0.000000000000e+00 0.000000000000e+00 -5.046335124651e+06 3.060002726501e+04 -5.036580654021e+06 -1.935974416975e+06 -1.831857797487e-04 6.862892732720e-06 -1.820847290265e-04 4.283816772689e-05 4.006296731882e+06 3.105947205667e+06  2.257885541929e-04
2.231520000000e-03 0.000000000000e+00 0.000000000000e+00 -5.047231756839e+06 3.075681777620e+04 -5.037481838602e+06 -2.115600728357e+06 -1.773079772459e-04 6.904372629719e-06 -1.762075037015e-04 2.517411452476e-05 4.066771441266e+06 2.927253034972e+06  2.022878973861e-04
2.398190000000e-03 0.000000000000e+00 0.000000000000e+00 -5.048142457794e+06 3.091453183262e+04 -5.038397091083e+06 -2.295220665683e+06 -1.715306572134e-04 6.945387683280e-06 -1.704307508295e-04 7.810384940446e-06 4.127253404854e+06 2.748583682207e+06  1.791978684804e-04
2.564860000000e-03 0.000000000000e+00 0.000000000000e+00 -5.049067477501e+06 3.107318535443e+04 -5.039326659425e+06 -2.474834094715e+06 -1.658521072442e-04 6.985945855748e-06 -1.647527579167e-04 -9.258144473639e-06 4.187742743880e+06 2.569940443292e+06  1.565156113491e-04
2.731530000000e-03 0.000000000000e+00 0.000000000000e+00 -5.050007069969e+06 3.123279448372e+04 -5.040270795583e+06 -2.654440878207e+06 -1.602706439775e-04 7.026054961522e-06 -1.591718415223e-04 -2.603651009997e-05 4.248239581253e+06 2.391324893600e+06  1.342408641725e-04
2.898200000000e-03 0.000000000000e+00 0.000000000000e+00 -5.050961493633e+06 3.139337558778e+04 -5.041229755907e+06 -2.834040874987e+06 -1.547846126551e-04 7.065722669735e-06 -1.536863468144e-04 -4.252966263074e-05 4.308744041509e+06 2.212738999107e+06  1.123782342196e-04
3.064870000000e-03 0.000000000000e+00 0.000000000000e+00 -5.051931011092e+06 3.155494526024e+04 -5.042203800882e+06 -3.013633940804e+06 -1.493923865877e-04 7.104956506278e-06 -1.482946470368e-04 -5.874246862970e-05 4.369256250926e+06 2.034185282859e+06  9.094253063639e-05
3.231540000000e-03 0.000000000000e+00 0.000000000000e+00 -5.052915889406e+06 3.171752032524e+04 -5.043193195420e+06 -3.193219927827e+06 -1.440923667068e-04 7.143763856426e-06 -1.429951430601e-04 -7.467971190549e-05 4.429776337551e+06 1.855667089981e+06  6.997327651452e-05
3.398210000000e-03 0.000000000000e+00 0.000000000000e+00 -5.053916400053e+06 3.188111784145e+04 -5.044198208826e+06 -3.372798683961e+06 -1.388829811074e-04 7.182151967177e-06 -1.377862629255e-04 -9.034609487137e-05 4.490304430946e+06 1.677189021006e+06  4.958377508084e-05
3.564880000000e-03 0.000000000000e+00 0.000000000000e+00 -5.054932819017e+06 3.204575510188e+04 -5.045219114879e+06 -3.552370053574e+06 -1.337626845639e-04 7.220127948255e-06 -1.326664613600e-04 -1.057462400002e-04 4.550840662490e+06 1.498757672625e+06  3.019604837474e-05
3.731550000000e-03 0.000000000000e+00 0.000000000000e+00 -5.055965426938e+06 3.221144964635e+04 -5.046256191982e+06 -3.731933876589e+06 -1.287299581056e-04 7.257698775520e-06 -1.276342193524e-04 -1.208846911088e-04 4.611385165170e+06 1.320382980282e+06  1.456623043675e-05
3.898220000000e-03 0.000000000000e+00 0.000000000000e+00 -5.057014509108e+06 3.237821925251e+04 -5.047309723156e+06 -3.911489988561e+06 -1.237833085598e-04 7.294871288479e-06 -1.226880436969e-04 -1.357659147182e-04 4.671938073608e+06 1.142080814574e+06  1.781998945862e-05
4.064890000000e-03 0.000000000000e+00 0.000000000000e+00 -5.058080355585e+06 3.254608196366e+04 -5.048379996143e+06 -4.091038220697e+06 -1.189212681124e-04 7.331652194296e-06 -1.178264665529e-04 -1.503943013793e-04 4.732499524142e+06 9.638784537856e+05  3.445963596831e-05
4.231560000000e-03 0.000000000000e+00 0.000000000000e+00 -5.059163261397e+06 3.271505609329e+04 -5.049467303586e+06 -4.270578399143e+06 -1.141423938979e-04 7.368048062644e-06 -1.130480450367e-04 -1.647741669133e-04 4.793069654709e+06 7.858274846964e+05  5.275459466259e-05
4.398230000000e-03 0.000000000000e+00 0.000000000000e+00 -5.060263526757e+06 3.288516027849e+04 -5.050571943179e+06 -4.450110345358e+06 -1.094452675670e-04 7.404065322073e-06 -1.083513607879e-04 -1.789097537232e-04 4.853648605098e+06 6.080392933932e+05  7.118257996992e-05
4.564900000000e-03 0.000000000000e+00 0.000000000000e+00 -5.061381457918e+06 3.305641361403e+04 -5.051694218320e+06 -4.629633876541e+06 -1.048284948927e-04 7.439710247780e-06 -1.037350195723e-04 -1.928052320515e-04 4.914236517593e+06 4.308080243126e+05  8.946144547208e-05
4.731570000000e-03 0.000000000000e+00 0.000000000000e+00 -5.062517372921e+06 3.322883630002e+04 -5.052834443038e+06 -4.809148809925e+06 -1.002907055365e-04 7.474988964714e-06 -9.919765102241e-05 -2.064647012610e-04 4.974833541961e+06 2.552420508086e+05  1.075071740939e-04
4.898240000000e-03 0.000000000000e+00 0.000000000000e+00 -5.063671685620e+06 3.340244827226e+04 -5.053993029953e+06 -4.988654927717e+06 -9.583055752518e-05 7.509906565317e-06 -9.473791381359e-05 -2.198921839776e-04 5.035439881097e+06 9.133619011397e+04  1.252885959461e-04
5.064910000000e-03 0.000000000000e+00 0.000000000000e+00 -5.064844544983e+06 3.357730958463e+04 -5.055170071263e+06 -5.168151907184e+06 -9.144672406998e-05 7.544469075641e-06 -9.035448000729e-05 -2.330916344009e-04 5.096055507810e+06 1.230762285914e+05  1.427933523416e-04
5.231580000000e-03 0.000000000000e+00 0.000000000000e+00 -5.066036039506e+06 3.375335014805e+04 -5.056365792879e+06 -5.347639819272e+06 -8.713789658077e-05 7.578678581430e-06 -8.604604284835e-05 -2.460669566379e-04 5.156680550552e+06 2.924640941866e+05  1.600171074284e-04
5.398250000000e-03 0.000000000000e+00 0.000000000000e+00 -5.067246733798e+06 3.393059810291e+04 -5.057580673411e+06 -5.527118413863e+06 -8.290278515859e-05 7.612549496068e-06 -8.181131039596e-05 -2.588220087163e-04 5.217315273691e+06 4.684809481097e+05  1.769593983279e-04
5.564920000000e-03 0.000000000000e+00 0.000000000000e+00 -5.068476919552e+06 3.410908756803e+04 -5.058815013440e+06 -5.706587424893e+06 -7.874012032060e-05 7.646083759737e-06 -7.764901398678e-05 -2.713605718974e-04 5.277959785961e+06 6.457042843381e+05  1.936217603061e-04
5.731590000000e-03 0.000000000000e+00 0.000000000000e+00 -5.069726924178e+06 3.428883904118e+04 -5.060069139235e+06 -5.886046610666e+06 -7.464865638243e-05 7.679286257217e-06 -7.355790812743e-05 -2.836863610632e-04 5.338614224693e+06 8.233359683527e+05  2.100068416358e-04
5.898260000000e-03 0.000000000000e+00 0.000000000000e+00 -5.070997084008e+06 3.446987230592e+04 -5.061343385699e+06 -6.065495720809e+06 -7.062716902373e-05 7.712162166153e-06 -6.953676862356e-05 -2.958030275915e-04 5.399278730172e+06 1.001142266908e+06  2.261179347970e-04
6.064930000000e-03 0.000000000000e+00 0.000000000000e+00 -5.072287740904e+06 3.465220699085e+04 -5.062638093449e+06 -6.244934491883e+06 -6.667445475572e-05 7.744716651376e-06 -6.558439210965e-05 -3.077141604991e-04 5.459953442079e+06 1.179029886119e+06  2.419587119095e-04
6.231600000000e-03 0.000000000000e+00 0.000000000000e+00 -5.073599241714e+06 3.483586264016e+04 -5.063953608343e+06 -6.424362645461e+06 -6.278933052044e-05 7.776954787637e-06 -6.169959566452e-05 -3.194232875511e-04 5.520638498506e+06 1.356954086064e+06  2.575330686898e-04
6.398270000000e-03 0.000000000000e+00 0.000000000000e+00 -5.074931937677e+06 3.502085867297e+04 -5.065290280970e+06 -6.603779884363e+06 -5.897063333630e-05 7.808881526094e-06 -5.788121646615e-05 -3.309338762487e-04 5.581334034337e+06 1.534890554508e+06  2.728450284713e-04
6.564940000000e-03 0.000000000000e+00 0.000000000000e+00 -5.076286184216e+06 3.520721429687e+04 -5.066648466510e+06 -6.783185889897e+06 -5.521721993439e-05 7.840501672581e-06 -5.412811143478e-05 -3.422493348854e-04 5.642040180208e+06 1.712824787358e+06  2.878986812857e-04
6.731610000000e-03 0.000000000000e+00 0.000000000000e+00 -5.077662340139e+06 3.539494835874e+04 -5.068028524057e+06 -6.962580317398e+06 -5.152796639710e-05 7.871819863723e-06 -5.043915688005e-05 -3.533730135504e-04 5.702757060531e+06 1.890747458450e+06  3.026981440330e-04
6.898280000000e-03 0.000000000000e+00 0.000000000000e+00 -5.079060766975e+06 3.558407913130e+04 -5.069430816104e+06 -7.141962789480e+06 -4.790176783531e-05 7.902840537797e-06 -4.681324818809e-05 -3.643082050326e-04 5.763484790853e+06 2.068652173663e+06  3.172475337398e-04
7.064950000000e-03 0.000000000000e+00 0.000000000000e+00 -5.080481827899e+06 3.577462399978e+04 -5.070855707676e+06 -7.321332888950e+06 -4.433753802983e-05 7.933567894046e-06 -4.324929947630e-05 -3.750581458007e-04 5.824223474842e+06 2.246534289275e+06  3.315509494510e-04
7.231620000000e-03 0.000000000000e+00 0.000000000000e+00 -5.081925885750e+06 3.596659898894e+04 -5.072303564634e+06 -7.500690147943e+06 -4.083420907854e-05 7.964005832023e-06 -3.974624325897e-05 -3.856260168991e-04 5.884973199442e+06 2.424390245049e+06  3.456124596687e-04
7.398290000000e-03 0.000000000000e+00 0.000000000000e+00 -5.083393300271e+06 3.616001804027e+04 -5.073774751328e+06 -7.680034032878e+06 -3.739073104298e-05 7.994157859227e-06 -3.630303011984e-05 -3.960149447934e-04 5.945734028159e+06 2.602217163768e+06  3.594360935540e-04
7.564960000000e-03 0.000000000000e+00 0.000000000000e+00 -5.084884423822e+06 3.635489188419e+04 -5.075269626907e+06 -7.859363923704e+06 -3.400607156852e-05 8.024026947188e-06 -3.291862836991e-05 -4.062280021883e-04 6.006505991478e+06 2.780012595477e+06  3.730258347611e-04
7.731630000000e-03 0.000000000000e+00 0.000000000000e+00 -5.086399593728e+06 3.655122618934e+04 -5.076788538564e+06 -8.038679082406e+06 -3.067921546235e-05 8.053615294695e-06 -2.959202368219e-05 -4.162682087348e-04 6.067289071566e+06 2.957774340460e+06  3.863856170470e-04
7.898300000000e-03 0.000000000000e+00 0.000000000000e+00 -5.087939119854e+06 3.674901844419e+04 -5.078331810500e+06 -8.217978607209e+06 -2.740916417748e-05 8.082923929108e-06 -2.632221866337e-05 -4.261385316941e-04 6.128083179188e+06 3.135500314385e+06  3.995193212423e-04
8.064970000000e-03 0.000000000000e+00 0.000000000000e+00 -5.089503261809e+06 3.694825240910e+04 -5.079899723396e+06 -8.397261360858e+06 -2.419493510136e-05 8.111951996926e-06 -2.310823228473e-05 -4.358418864765e-04 6.188888115354e+06 3.313188429868e+06  4.124307732173e-04
8.231640000000e-03 0.000000000000e+00 0.000000000000e+00 -5.091092185888e+06 3.714888765534e+04 -5.081492475178e+06 -8.576525853071e+06 -2.103556046247e-05 8.140695426665e-06 -1.994909903059e-05 -4.453811369555e-04 6.249703504712e+06 3.490836472430e+06  4.251237426401e-04
8.398310000000e-03 0.000000000000e+00 0.000000000000e+00 -5.092705877256e+06 3.735083834894e+04 -5.083110100171e+06 -8.755770044144e+06 -1.793008523405e-05 8.169144219144e-06 -1.684386723955e-05 -4.547590957862e-04 6.310528673857e+06 3.668441954325e+06  4.376019431094e-04
8.564980000000e-03 0.000000000000e+00 0.000000000000e+00 -5.094343943774e+06 3.755392598764e+04 -5.084752286495e+06 -8.934990991491e+06 -1.487756257306e-05 8.197276416698e-06 -1.379159539747e-05 -4.639785249077e-04 6.371362407253e+06 3.846001925027e+06  4.498690349648e-04
8.731650000000e-03 0.000000000000e+00 0.000000000000e+00 -5.096005120181e+06 3.775776024193e+04 -5.086417909457e+06 -9.114184187222e+06 -1.187704177232e-05 8.225042915381e-06 -1.079134192338e-05 -4.730421387534e-04 6.432202405620e+06 4.023512769240e+06  4.619286376560e-04
8.898320000000e-03 0.000000000000e+00 0.000000000000e+00 -5.097685785901e+06 3.796138259993e+04 -5.088103619986e+06 -9.293342292511e+06 -8.927529342442e-06 8.252322105321e-06 -7.842130676188e-06 -4.819526237463e-04 6.493043899466e+06 4.200970365979e+06  4.737843827027e-04
9.064990000000e-03 0.000000000000e+00 0.000000000000e+00 -5.099374256675e+06 3.816189916596e+04 -5.089798325352e+06 -9.472453445611e+06 -6.027819645394e-06 8.278746150170e-06 -4.942793362042e-06 -4.907127775108e-04 6.553875342546e+06 4.378373966302e+06  4.854402069204e-04
9.231660000000e-03 0.000000000000e+00 0.000000000000e+00 -5.101018506461e+06 3.834703751892e+04 -5.091451005492e+06 -9.651521591937e+06 -3.175247651171e-06 8.302758239311e-06 -2.090726882889e-06 -4.993272299344e-04 6.614663701297e+06 4.555778560964e+06  4.969032704874e-04
9.398330000000e-03 0.000000000000e+00 0.000000000000e+00 -5.102114932513e+06 3.845457497827e+04 -5.092537499776e+06 -9.831060415889e+06 -3.473776012767e-07 8.316517340708e-06 7.378108089597e-07 -5.078330969142e-04 6.675237616059e+06 4.734210021984e+06  5.082333557958e-04
9.565000000000e-03 0.000000000000e+00 0.000000000000e+00 -5.101059557473e+06 3.855649204755e+04 -5.091409322923e+06 -1.001077036696e+07 2.520759968278e-06 8.329496889140e-06 3.610557502434e-06 -5.163288662829e-04 6.734413082452e+06 4.914996747705e+06  5.195957129521e-04
9.731670000000e-03 0.000000000000e+00 0.000000000000e+00 -5.099079408470e+06 3.837433441850e+04 -5.089444595615e+06 -1.019101156596e+07 5.467406629900e-06 8.306408683210e-06 6.556261510224e-06 -5.249940084645e-04 6.793178523350e+06 5.097189765762e+06  5.312015467646e-04
9.898340000000e-03 0.000000000000e+00 0.000000000000e+00 -5.097355209280e+06 3.815466988647e+04 -5.087726499463e+06 -1.037170048433e+07 8.463020445509e-06 8.278061497697e-06 9.551518407741e-06 -5.338199055515e-04 6.852260731024e+06 5.279579838311e+06  5.430173196336e-04
1.006501000000e-02 0.000000000000e+00 0.000000000000e+00 -5.095658315678e+06 3.793475365852e+04 -5.086034373629e+06 -1.055238136039e+07 1.150998194638e-05 8.249190183816e-06 1.259820415141e-05 -5.427987081120e-04 6.911358016564e+06 5.461936591528e+06  5.550375361566e-04
1.023168000000e-02 0.000000000000e+00 0.000000000000e+00 -5.093983161090e+06 3.771543901251e+04 -5.084363362748e+06 -1.073306146574e+07 1.460993306628e-05 8.219896878457e-06 1.569791636748e-05 -5.519349062271e-04 6.970469329860e+06 5.644272391164e+06  5.672683051928e-04
1.039835000000e-02 0.000000000000e+00 0.000000000000e+00 -5.092331711062e+06 3.749721409245e+04 -5.082715613829e+06 -1.091374005065e+07 1.776390581337e-05 8.190240354339e-06 1.885167613716e-05 -5.612317003884e-04 7.029595791849e+06 5.826584323377e+06  5.797138514772e-04
1.056502000000e-02 0.000000000000e+00 0.000000000000e+00 -5.090704998695e+06 3.728035713210e+04 -5.081092240833e+06 -1.109441504824e+07 2.097286330485e-05 8.160254341831e-06 2.206044196247e-05 -5.706920381326e-04 7.088737429255e+06 6.008869149029e+06  5.923780801079e-04
1.073169000000e-02 0.000000000000e+00 0.000000000000e+00 -5.089103428357e+06 3.706501082468e+04 -5.079493698377e+06 -1.127508477502e+07 2.423776993963e-05 8.129955853120e-06 2.532517550903e-05 -5.803188343537e-04 7.147893967253e+06 6.191124665495e+06  6.052648651711e-04
1.089836000000e-02 0.000000000000e+00 0.000000000000e+00 -5.087527060428e+06 3.685124872984e+04 -5.077920081609e+06 -1.145574802968e+07 2.755960478612e-05 8.099353286838e-06 2.864685405877e-05 -5.901150269690e-04 7.207065057241e+06 6.373349513002e+06  6.183781187024e-04
1.106503000000e-02 0.000000000000e+00 0.000000000000e+00 -5.085975769283e+06 3.663910667878e+04 -5.076371290829e+06 -1.163640398038e+07 3.093936444792e-05 8.068450266021e-06 3.202647296377e-05 -6.000835945336e-04 7.266250346829e+06 6.555542899998e+06  6.317218111386e-04
1.123170000000e-02 0.000000000000e+00 0.000000000000e+00 -5.084449324710e+06 3.642859881958e+04 -5.074847116184e+06 -1.181705205998e+07 3.437806388513e-05 8.037247604940e-06 3.546504626515e-05 -6.102275634048e-04 7.325449500292e+06 6.737704414505e+06  6.452999792893e-04
1.139837000000e-02 0.000000000000e+00 0.000000000000e+00 -5.082947436019e+06 3.621972623661e+04 -5.073347283631e+06 -1.199769188733e+07 3.787673669390e-05 8.005744366937e-06 3.896360685914e-05 -6.205500111393e-04 7.384662202328e+06 6.919833899456e+06  6.591167299999e-04
1.156504000000e-02 0.000000000000e+00 0.000000000000e+00 -5.081469776771e+06 3.601248183839e+04 -5.071871480759e+06 -1.217832321381e+07 4.143643533375e-05 7.973938464717e-06 4.252320665591e-05 -6.310540686017e-04 7.443888157114e+06 7.101931373274e+06  6.731762424754e-04
1.173171000000e-02 0.000000000000e+00 0.000000000000e+00 -5.080015999320e+06 3.580685325866e+04 -5.070419372053e+06 -1.235894588712e+07 4.505823137061e-05 7.941827016514e-06 4.614491677906e-05 -6.417429215276e-04 7.503127086164e+06 7.283996978034e+06  6.874827700735e-04
1.189838000000e-02 0.000000000000e+00 0.000000000000e+00 -5.078585743897e+06 3.560282464529e+04 -5.068990608453e+06 -1.253955982550e+07 4.874321572544e-05 7.909406565271e-06 4.982982778489e-05 -6.526198117855e-04 7.562378725950e+06 7.466030943761e+06  7.020406418047e-04
1.206505000000e-02 0.000000000000e+00 0.000000000000e+00 -5.077178643936e+06 3.540037781038e+04 -5.067584833001e+06 -1.272016500024e+07 5.249249898332e-05 7.876673219338e-06 5.357904995136e-05 -6.636880385917e-04 7.621642825724e+06 7.648033564918e+06  7.168542638456e-04
1.223172000000e-02 0.000000000000e+00 0.000000000000e+00 -5.075794330650e+06 3.519949298967e+04 -5.066201685653e+06 -1.290076142152e+07 5.630721164141e-05 7.843622745008e-06 5.739371351191e-05 -6.749509595232e-04 7.680919145942e+06 7.830005181124e+06  7.319281207915e-04
1.239839000000e-02 0.000000000000e+00 0.000000000000e+00 -5.074432434479e+06 3.500014935537e+04 -5.064840804897e+06 -1.308134913009e+07 6.018850449650e-05 7.810250628533e-06 6.127496903253e-05 -6.864119917262e-04 7.740207456490e+06 8.011946166837e+06  7.472667772433e-04
1.256506000000e-02 0.000000000000e+00 0.000000000000e+00 -5.073092587458e+06 3.480232537220e+04 -5.063501830246e+06 -1.326192818973e+07 6.413754894861e-05 7.776552118761e-06 6.522398770769e-05 -6.980746129627e-04 7.799507535812e+06 8.193856921093e+06  7.628748791503e-04
1.273173000000e-02 0.000000000000e+00 0.000000000000e+00 -5.071774424249e+06 3.460599905360e+04 -5.062184403359e+06 -1.344249868162e+07 6.815553735111e-05 7.742522257653e-06 6.924196170477e-05 -7.099423627010e-04 7.858819169741e+06 8.375737860473e+06  7.787571552443e-04
1.289840000000e-02 0.000000000000e+00 0.000000000000e+00 -5.070477582798e+06 3.441114813923e+04 -5.060888168783e+06 -1.362306070115e+07 7.224368340037e-05 7.708155900641e-06 7.333010454907e-05 -7.220188433009e-04 7.918142150912e+06 8.557589414959e+06  7.949184186076e-04
1.306507000000e-02 0.000000000000e+00 0.000000000000e+00 -5.069201705086e+06 3.421775023159e+04 -5.059612774744e+06 -1.380361435404e+07 7.640322248555e-05 7.673447732297e-06 7.748965147025e-05 -7.343077210930e-04 7.977476277955e+06 8.739412022984e+06  8.113635680960e-04
1.323174000000e-02 0.000000000000e+00 0.000000000000e+00 -5.067946437336e+06 3.402578289227e+04 -5.058357873413e+06 -1.398415975415e+07 8.063541208920e-05 7.638392276675e-06 8.172185980017e-05 -7.468127275676e-04 8.036821354966e+06 8.921206128911e+06  8.280975899235e-04
1.339841000000e-02 0.000000000000e+00 0.000000000000e+00 -5.066711430466e+06 3.383522371402e+04 -5.057123121394e+06 -1.416469702171e+07 8.494153217483e-05 7.602983904598e-06 8.602800935798e-05 -7.595376605493e-04 8.096177191190e+06 9.102972180504e+06  8.451255592183e-04
1.356508000000e-02 0.000000000000e+00 0.000000000000e+00 -5.065496340260e+06 3.364605038243e+04 -5.055908179910e+06 -1.434522628147e+07 8.932288558456e-05 7.567216840127e-06 9.040940284659e-05 -7.724863853792e-04 8.155543600548e+06 9.284710626804e+06  8.624526415986e-04
1.373175000000e-02 0.000000000000e+00 0.000000000000e+00 -5.064300827433e+06 3.345824071122e+04 -5.054712714911e+06 -1.452574766170e+07 9.378079845750e-05 7.531085162875e-06 9.486736626890e-05 -7.856628361503e-04 8.214920401347e+06 9.466421916858e+06  8.800840948218e-04
1.389842000000e-02 0.000000000000e+00 0.000000000000e+00 -5.063124557667e+06 3.327177267813e+04 -5.053536397117e+06 -1.470626129322e+07 9.831662065462e-05 7.494582811019e-06 9.940324935182e-05 -7.990710169599e-04 8.274307416001e+06 9.648106498645e+06  8.980252704570e-04
1.406509000000e-02 0.000000000000e+00 0.000000000000e+00 -5.061967201784e+06 3.308662444988e+04 -5.052378902213e+06 -1.488676730842e+07 1.029317261748e-04 7.457703582705e-06 1.040184259613e-04 -8.127150031511e-04 8.333704470807e+06 9.829764817721e+06  9.162816155391e-04
1.423176000000e-02 0.000000000000e+00 0.000000000000e+00 -5.060828435634e+06 3.290277439747e+04 -5.051239910747e+06 -1.506726584093e+07 1.076275136085e-04 7.420441135883e-06 1.087142945546e-04 -8.265989426365e-04 8.393111395771e+06 1.001139731695e+07  9.348586743422e-04
1.439843000000e-02 0.000000000000e+00 0.000000000000e+00 -5.059707940156e+06 3.272020111515e+04 -5.050119108210e+06 -1.524775702459e+07 1.124054065675e-04 7.382788989184e-06 1.134922786104e-04 -8.407270571717e-04 8.452528024319e+06 1.019300443529e+07  9.537620900792e-04
1.456510000000e-02 0.000000000000e+00 0.000000000000e+00 -5.058605401407e+06 3.253888342786e+04 -5.049016185066e+06 -1.542824099354e+07 1.172668541516e-04 7.344740520662e-06 1.183538270935e-04 -8.551036437311e-04 8.511954193337e+06 1.037458660779e+07  9.729976067409e-04
1.473177000000e-02 0.000000000000e+00 0.000000000000e+00 -5.057520510363e+06 3.235880040137e+04 -5.047930836568e+06 -1.560871788150e+07 1.222133314121e-04 7.306288967266e-06 1.233004149187e-04 -8.697330758550e-04 8.571389742812e+06 1.055614426500e+07  9.925710709037e-04
1.489844000000e-02 0.000000000000e+00 0.000000000000e+00 -5.056452963048e+06 3.217993134597e+04 -5.046862762894e+06 -1.578918782148e+07 1.272463398149e-04 7.267427423065e-06 1.283335434128e-04 -8.846198050248e-04 8.630834515806e+06 1.073767783241e+07  1.012488433564e-03
1.506511000000e-02 0.000000000000e+00 0.000000000000e+00 -5.055402460381e+06 3.200225582366e+04 -5.045811669003e+06 -1.596965094601e+07 1.323674077437e-04 7.228148838326e-06 1.334547408178e-04 -8.997683621321e-04 8.690288358465e+06 1.091918773091e+07  1.032755752110e-03
1.523178000000e-02 0.000000000000e+00 0.000000000000e+00 -5.054368708228e+06 3.182575364822e+04 -5.044777264684e+06 -1.615010738599e+07 1.375780909571e-04 7.188446017118e-06 1.386655627472e-04 -9.151833588283e-04 8.749751119636e+06 1.110067437537e+07  1.053379192122e-03
1.539845000000e-02 0.000000000000e+00 0.000000000000e+00 -5.053351417191e+06 3.165040488950e+04 -5.043759264361e+06 -1.633055727158e+07 1.428799731292e-04 7.148311615872e-06 1.439675927265e-04 -9.308694890952e-04 8.809222651044e+06 1.128213817581e+07  1.074365029484e-03
1.556512000000e-02 0.000000000000e+00 0.000000000000e+00 -5.052350302662e+06 3.147618986926e+04 -5.042757387148e+06 -1.651100073132e+07 1.482746663327e-04 7.107738140062e-06 1.493624426757e-04 -9.468315306732e-04 8.868702807044e+06 1.146357953640e+07  1.095719652291e-03
1.573179000000e-02 0.000000000000e+00 0.000000000000e+00 -5.051365084757e+06 3.130308916914e+04 -5.041771356783e+06 -1.669143789228e+07 1.537638115666e-04 7.066717943683e-06 1.548517534366e-04 -9.630743466063e-04 8.928191444606e+06 1.164499885557e+07  1.117449562920e-03
1.589846000000e-02 0.000000000000e+00 0.000000000000e+00 -5.050395488099e+06 3.113108362297e+04 -5.040800901422e+06 -1.687186888010e+07 1.593490793000e-04 7.025243225093e-06 1.604371953170e-04 -9.796028868199e-04 8.987688423207e+06 1.182639652634e+07  1.139561380150e-03
1.606513000000e-02 0.000000000000e+00 0.000000000000e+00 -5.049441242062e+06 3.096015431909e+04 -5.039845753885e+06 -1.705229381867e+07 1.650321699864e-04 6.983306025173e-06 1.661204686036e-04 -9.964221896604e-04 9.047193604873e+06 1.200777293559e+07  1.162061841211e-03
1.623180000000e-02 0.000000000000e+00 0.000000000000e+00 -5.048502080350e+06 3.079028259817e+04 -5.038905651231e+06 -1.723271283013e+07 1.708148146385e-04 6.940898224395e-06 1.719033041375e-04 -1.013537383538e-03 9.106706853904e+06 1.218912846457e+07  1.184957804004e-03
1.639847000000e-02 0.000000000000e+00 0.000000000000e+00 -5.047577741164e+06 3.062145005174e+04 -5.037980334940e+06 -1.741312603481e+07 1.766987753745e-04 6.898011540030e-06 1.777874638594e-04 -1.030953688552e-03 9.166228036971e+06 1.237046348859e+07  1.208256249266e-03
1.656514000000e-02 0.000000000000e+00 0.000000000000e+00 -5.046667967040e+06 3.045363851997e+04 -5.037069550744e+06 -1.759353355130e+07 1.826858459999e-04 6.854637523137e-06 1.837747413919e-04 -1.048676418182e-03 9.225757023027e+06 1.255177837720e+07  1.231964282846e-03