 TITLE = "Time curves in points"
 VARIABLES = "TIME "  "DISPLACEMENT_X1"  "DISPLACEMENT_Y1"  "STRESS_XX"  "STRESS_XY"  "STRESS_YY"  "STRESS_ZZ"  "STRAIN_XX"  "STRAIN_XY"  "STRAIN_YY"  "STRAIN_ZZ"  p_(1st_Invariant)  q_(2nd_Invariant)   Effective_Strain
 ZONE T="POINT=POINT3"
0.000000000000e+00 0.000000000000e+00 0.000000000000e+00 0.000000000000e+00 0.000000000000e+00 0.000000000000e+00 0.000000000000e+00 0.000000000000e+00 0.000000000000e+00 0.000000000000e+00 0.000000000000e+00 -0.000000000000e+00 0.000000000000e+00  0.000000000000e+00
2.314800000000e-05 0.000000000000e+00 1.878504671322e-06 -4.876960427491e+05 -2.172390184516e-05 -4.876960427481e+05 -4.935684652689e-06 -1.553738318090e-05 -2.738213572984e-15 -1.553738318084e-05 1.565420561068e-05 3.251306951674e+05 4.876960427437e+05  3.119158879155e-05
4.629600000000e-05 0.000000000000e+00 4.012201798309e-06 -9.949677535926e+05 -1.743656344633e+03 -9.922924643589e+05 -5.193207551561e+03 -3.319516573980e-05 -2.453244817171e-07 -3.300603255389e-05 3.316945650306e-05 6.641511418343e+05 9.884442305911e+05  6.627162029607e-05
6.944400000000e-05 0.000000000000e+00 6.357298615300e-06 -1.503813913371e+06 -3.774389955317e+03 -1.498254042590e+06 -1.163076998884e+04 -5.262537679156e-05 -5.591548028913e-07 -5.221266577993e-05 5.238772169180e-05 1.004566241983e+06 1.489425338228e+06  1.048118270217e-04
9.259200000000e-05 0.000000000000e+00 8.933046567269e-06 -2.012337873565e+06 -5.747491209297e+03 -2.003895077108e+06 -1.803956831544e+04 -7.395498400903e-05 -8.943090966753e-07 -7.329671756043e-05 7.348553537671e-05 1.344757506330e+06 1.990115237225e+06  1.471206453584e-04
1.157400000000e-04 0.000000000000e+00 1.176255069158e-05 -2.520541421380e+06 -7.650818047132e+03 -2.509212834703e+06 -2.435819081718e+04 -9.737110552172e-05 -1.249701351804e-06 -9.644268137882e-05 9.665078271772e-05 1.684704148967e+06 2.490573515153e+06  1.935714486759e-04
1.388880000000e-04 0.000000000000e+00 1.487097920548e-05 -3.028464363211e+06 -9.486994107781e+03 -3.014242271583e+06 -3.058642949032e+04 -1.230792359059e-04 -1.626602059650e-06 -1.218530914243e-04 1.220872276081e-04 2.024431021428e+06 2.990837389075e+06  2.445719245104e-04
1.620360000000e-04 0.000000000000e+00 1.828588827887e-05 -3.536136925138e+06 -1.125845819857e+04 -3.519011544428e+06 -3.672680701299e+04 -1.513044657259e-04 -2.026339447482e-06 -1.497500084474e-04 1.500180582364e-04 2.363958425526e+06 3.490933396902e+06  3.005688023540e-04
1.851840000000e-04 0.000000000000e+00 2.203751525718e-05 -4.043584072003e+06 -1.296733402224e+04 -4.023544674868e+06 -4.278205066654e+04 -1.822937212890e-04 -2.450267789918e-06 -1.803771207401e-04 1.806881592419e-04 2.703303599179e+06 3.990883258887e+06  3.620522602010e-04
2.083320000000e-04 0.000000000000e+00 2.615906103510e-05 -4.550827333236e+06 -1.461556698992e+04 -4.527862763989e+06 -4.875486620957e+04 -2.163180181178e-04 -2.899788517929e-06 -2.140019261326e-04 2.143663379317e-04 3.042481654478e+06 4.490705574770e+06  4.295603572992e-04
2.314800000000e-04 0.000000000000e+00 3.068698853297e-05 -5.057885539574e+06 -1.620498293231e+04 -5.031984489540e+06 -5.464787010239e+04 -2.536748612733e-04 -3.376360203084e-06 -2.509180846976e-04 2.513477033382e-04 3.381505966405e+06 4.990416489314e+06  5.036837853577e-04
3.981500000000e-04 0.000000000000e+00 2.828801563092e-05 -5.080295465222e+06 -1.873399181772e+04 -5.051552330498e+06 -2.426141996221e+05 -2.480926215055e-04 -4.179944733814e-06 -2.448843018832e-04 2.307298322720e-04 3.458153998447e+06 4.823483073289e+06  4.772812964031e-04
5.648200000000e-04 0.000000000000e+00 2.575989516974e-05 -5.081341343691e+06 -1.925477128908e+04 -5.052577327215e+06 -4.236377122027e+05 -2.410873257649e-04 -4.343254108344e-06 -2.378756178580e-04 2.096491647488e-04 3.519185461036e+06 4.643508206311e+06  4.492022446143e-04
7.314900000000e-04 0.000000000000e+00 2.327825907594e-05 -5.082617605943e+06 -1.982181431988e+04 -5.053793156562e+06 -6.047398420895e+05 -2.342172258335e-04 -4.518074709825e-06 -2.309960946991e-04 1.889341768497e-04 3.580383534865e+06 4.463667378840e+06  4.216226963982e-04
8.981600000000e-04 0.000000000000e+00 2.083892657770e-05 -5.083905903700e+06 -2.039420550361e+04 -5.055022499830e+06 -7.858480106236e+05 -2.274642806343e-04 -4.691541324939e-06 -2.242341102439e-04 1.685710660026e-04 3.641592138051e+06 4.283834862845e+06  3.945138778501e-04
1.064830000000e-03 0.000000000000e+00 1.844122542546e-05 -5.085209404634e+06 -2.097248533493e+04 -5.056268087806e+06 -9.669633617904e+05 -2.208266943925e-04 -4.863811086475e-06 -2.175877933093e-04 1.485539273305e-04 3.702813618077e+06 4.104012687741e+06  3.678683417525e-04
1.231500000000e-03 0.000000000000e+00 1.608444608673e-05 -5.086528358608e+06 -2.155672102362e+04 -5.057530185402e+06 -1.148085986944e+06 -2.143025016923e-04 -5.034894386899e-06 -2.110551728140e-04 1.288768626084e-04 3.764048176984e+06 3.924201275620e+06  3.416785850050e-04
1.398170000000e-03 0.000000000000e+00 1.376789168665e-05 -5.087863057459e+06 -2.214698510359e+04 -5.058809095142e+06 -1.329215983790e+06 -2.078897731253e-04 -5.204802825150e-06 -2.046343131219e-04 1.095340757383e-04 3.825296045464e+06 3.744401131494e+06  3.159373468276e-04
1.564840000000e-03 0.000000000000e+00 1.149087716554e-05 -5.089213797952e+06 -2.274335094798e+04 -5.060105124553e+06 -1.510353451394e+06 -2.015866119172e-04 -5.373547842058e-06 -1.983233113407e-04 9.051986886670e-05 3.886557457967e+06 3.564612825834e+06  2.906376421744e-04
1.731510000000e-03 0.000000000000e+00 9.252729083263e-06 -5.090580882357e+06 -2.334589281526e+04 -5.061418586698e+06 -1.691498490041e+06 -1.953911534194e-04 -5.541140733427e-06 -1.921202968059e-04 7.182864077557e-05 3.947832653032e+06 3.384837011687e+06  2.657728202871e-04
1.898180000000e-03 0.000000000000e+00 7.052785424354e-06 -5.091964618622e+06 -2.395468582831e+04 -5.062749800335e+06 -1.872651201204e+06 -1.893015645742e-04 -5.707592643749e-06 -1.860234305428e-04 5.345488525700e-05 4.009121873387e+06 3.205074446811e+06  2.413366564764e-04
2.064850000000e-03 0.000000000000e+00 4.890395405268e-06 -5.093365320433e+06 -2.456980602732e+04 -5.064099089967e+06 -2.053811687627e+06 -1.833160433763e-04 -5.872914580473e-06 -1.800309047244e-04 3.539318949509e-05 4.070425366009e+06 3.025326023410e+06  2.173235005740e-04
2.231520000000e-03 0.000000000000e+00 2.764919284830e-06 -5.094783307189e+06 -2.519133027670e+04 -5.065466785815e+06 -2.234980053217e+06 -1.774328183433e-04 -6.037117388599e-06 -1.741409421421e-04 1.763823248820e-05 4.131743382074e+06 2.845592809239e+06  1.937285263732e-04
2.398190000000e-03 0.000000000000e+00 6.757281754204e-07 -5.096218904538e+06 -2.581933634097e+04 -5.066853224330e+06 -2.416156403098e+06 -1.716501480270e-04 -6.200211771437e-06 -1.683517957119e-04 1.847835169179e-07 4.193076177322e+06 2.665876105679e+06  1.705481707919e-04
2.564860000000e-03 0.000000000000e+00 -1.377796140230e-06 -5.097672444069e+06 -2.645390282835e+04 -5.068258747876e+06 -2.597340843593e+06 -1.659663204791e-04 -6.362208276019e-06 -1.626617479382e-04 -1.697229941210e-05 4.254424011846e+06 2.486177530007e+06  1.477809529170e-04
2.731530000000e-03 0.000000000000e+00 -3.396261388874e-06 -5.099144263766e+06 -2.709510919875e+04 -5.069683705164e+06 -2.778533482163e+06 -1.603796527757e-04 -6.523117295985e-06 -1.570691104356e-04 -3.383807104343e-05 4.315787150364e+06 2.306499137027e+06  1.254291174790e-04
2.898200000000e-03 0.000000000000e+00 -5.380264983927e-06 -5.100634707997e+06 -2.774303573717e+04 -5.071128451227e+06 -2.959734427437e+06 -1.548884905175e-04 -6.682949065862e-06 -1.515722234258e-04 -5.041750036502e-05 4.377165862221e+06 2.126843601488e+06  1.035022566364e-04
3.064870000000e-03 0.000000000000e+00 -7.330394202919e-06 -5.102144127698e+06 -2.839776353519e+04 -5.072593347575e+06 -3.140943789130e+06 -1.494912073516e-04 -6.841713657876e-06 -1.461694552570e-04 -6.671547205555e-05 4.438560421468e+06 1.947214501678e+06  8.202635586208e-05
3.231540000000e-03 0.000000000000e+00 -9.247226359595e-06 -5.103672880749e+06 -2.905937446701e+04 -5.074078762545e+06 -3.322161678034e+06 -1.441862045118e-04 -6.999420977819e-06 -1.408592019403e-04 -8.273678790345e-05 4.499971107109e+06 1.767616775732e+06  6.107072181182e-05
3.398210000000e-03 0.000000000000e+00 -1.113132896852e-05 -5.105221331728e+06 -2.972795115376e+04 -5.075585071031e+06 -3.503388205967e+06 -1.389719103282e-04 -7.156080758541e-06 -1.356398866565e-04 -9.848616823862e-05 4.561398202909e+06 1.588057486323e+06  4.085249954106e-05
3.564880000000e-03 0.000000000000e+00 -1.298325991836e-05 -5.106789852371e+06 -3.040357692962e+04 -5.077112654897e+06 -3.684623485691e+06 -1.338467797879e-04 -7.311702554253e-06 -1.305099593131e-04 -1.139682532973e-04 4.622841997653e+06 1.408547170289e+06  2.236832794023e-05
3.731550000000e-03 0.000000000000e+00 -1.480356763087e-05 -5.108378821992e+06 -3.108633577770e+04 -5.078661903352e+06 -3.865867630857e+06 -1.288092940974e-04 -7.466295728098e-06 -1.254678961028e-04 -1.291876045724e-04 4.684302785400e+06 1.229102368474e+06  1.340928264058e-05
3.898220000000e-03 0.000000000000e+00 -1.659279122473e-05 -5.109988627237e+06 -3.177631228400e+04 -5.080233212650e+06 -4.047120755923e+06 -1.238579602138e-04 -7.619869443887e-06 -1.205121990315e-04 -1.441487061814e-04 4.745780865270e+06 1.049750743974e+06  2.578727808543e-05
4.064890000000e-03 0.000000000000e+00 -1.835146067417e-05 -5.111619662713e+06 -3.247359155981e+04 -5.081826986628e+06 -4.228382976052e+06 -1.189913104320e-04 -7.772432649518e-06 -1.156413955014e-04 -1.588559661628e-04 4.807276541797e+06 8.705425125444e+05  4.376286142255e-05
4.231560000000e-03 0.000000000000e+00 -2.008009696484e-05 -5.113272331090e+06 -3.317825915661e+04 -5.083443636686e+06 -4.409654406948e+06 -1.142079019483e-04 -7.923994055307e-06 -1.108540378712e-04 -1.733137177808e-04 4.868790124908e+06 6.915795838434e+05  6.238066837817e-05
4.398230000000e-03 0.000000000000e+00 -2.177921224712e-05 -5.114947043717e+06 -3.389040095460e+04 -5.085083582177e+06 -4.590935164819e+06 -1.095063164513e-04 -8.074562096113e-06 -1.061487030450e-04 -1.875262207969e-04 4.930321930238e+06 5.131053934619e+05  8.096873086445e-05
4.564900000000e-03 0.000000000000e+00 -2.344930998688e-05 -5.116644221381e+06 -3.461010307877e+04 -5.086747250633e+06 -4.772225366317e+06 -1.048851597173e-04 -8.224144865227e-06 -1.015239920692e-04 -2.014976627183e-04 4.991872279444e+06 3.358789571467e+05  9.936253660140e-05
4.731570000000e-03 0.000000000000e+00 -2.509088509676e-05 -5.118364297555e+06 -3.533745200982e+04 -5.088435079137e+06 -4.953525129329e+06 -1.003430612999e-04 -8.372749949818e-06 -9.697852982098e-05 -2.152321599714e-04 5.053441502007e+06 1.639524582637e+05  1.175060929478e-04
4.898240000000e-03 0.000000000000e+00 -2.670442369309e-05 -5.120107779463e+06 -3.607254943416e+04 -5.090147561803e+06 -5.134834592050e+06 -9.587867667538e-05 -8.520386314434e-06 -9.251096688619e-05 -2.287337574542e-04 5.115029977772e+06 7.388774343421e+04  1.353773328992e-04
5.064910000000e-03 0.000000000000e+00 -2.829040226036e-05 -5.121875202351e+06 -3.681550469451e+04 -5.091885166149e+06 -5.316154011198e+06 -9.149069165247e-05 -8.667055752924e-06 -8.811998406905e-05 -2.420064190967e-04 5.176638126566e+06 2.203093972276e+05  1.529674604218e-04
5.231580000000e-03 0.000000000000e+00 -2.984929342732e-05 -5.123666387895e+06 -3.756627527960e+04 -5.093647959091e+06 -5.497483040644e+06 -8.717778125259e-05 -8.812766721272e-06 -8.380425500520e-05 -2.550540625996e-04 5.238265795877e+06 3.950886731253e+05  1.702737681839e-04
5.398250000000e-03 0.000000000000e+00 -3.138156318562e-05 -5.125482134328e+06 -3.832499099539e+04 -5.095436666012e+06 -5.678821972109e+06 -8.293865779442e-05 -8.957529527748e-06 -7.956248406541e-05 -2.678805701646e-04 5.299913590817e+06 5.728171397668e+05  1.872966030975e-04
5.564920000000e-03 0.000000000000e+00 -3.288766820459e-05 -5.127322903761e+06 -3.909173458698e+04 -5.097251731106e+06 -5.860170912799e+06 -7.877205303882e-05 -9.101347278228e-06 -7.539339904375e-05 -2.804897395001e-04 5.361581849222e+06 7.513937515870e+05  2.040379331599e-04
5.731590000000e-03 0.000000000000e+00 -3.436805736159e-05 -5.129189177152e+06 -3.986658289317e+04 -5.099093634021e+06 -6.041529961870e+06 -7.467672121044e-05 -9.244224644070e-06 -7.129574954054e-05 -2.928853033738e-04 5.423270924348e+06 9.303208446057e+05  2.205006585056e-04
5.898260000000e-03 0.000000000000e+00 -3.582317195602e-05 -5.131081448575e+06 -4.064960969974e+04 -5.100962867583e+06 -6.222899214479e+06 -7.065143781091e-05 -9.386166035467e-06 -6.726830625359e-05 -3.050709313453e-04 5.484981176879e+06 1.109420721359e+06  2.366882271107e-04
6.064930000000e-03 0.000000000000e+00 -3.725344586089e-05 -5.133000225509e+06 -4.144088473390e+04 -5.102859936230e+06 -6.404278759985e+06 -6.669499915317e-05 -9.527175189339e-06 -6.330986055879e-05 -3.170502309867e-04 5.546712973908e+06 1.288614097713e+06  2.526044133196e-04
6.231600000000e-03 0.000000000000e+00 -3.865930567240e-05 -5.134946029812e+06 -4.224047233328e+04 -5.104785356068e+06 -6.585668679951e+06 -6.280622198158e-05 -9.667254921474e-06 -5.941922411384e-05 -3.288267490510e-04 5.608466688610e+06 1.467860149646e+06  2.682531844880e-04
6.398270000000e-03 0.000000000000e+00 -4.004117085674e-05 -5.136919398375e+06 -4.304842978481e+04 -5.106739654712e+06 -6.767069045587e+06 -5.898394308994e-05 -9.806406887004e-06 -5.559522843886e-05 -3.404039726574e-04 5.670242699558e+06 1.647135601473e+06  2.836386177060e-04
6.564940000000e-03 0.000000000000e+00 -4.139945390580e-05 -5.138920885768e+06 -4.386480501685e+04 -5.108723372951e+06 -6.948479914743e+06 -5.522701902008e-05 -9.944631268953e-06 -5.183672455712e-05 -3.517853304259e-04 5.732041391154e+06 1.826426104296e+06  2.987648460491e-04
6.731610000000e-03 0.000000000000e+00 -4.273456049942e-05 -5.140951065115e+06 -4.468963357353e+04 -5.110737064439e+06 -7.129901327367e+06 -5.153432568591e-05 -1.008192638424e-05 -4.814258254696e-05 -3.629741936928e-04 5.793863152307e+06 2.005722230561e+06  3.136360232180e-04
6.898280000000e-03 0.000000000000e+00 -4.404688967146e-05 -5.143010531461e+06 -4.552293444042e+04 -5.112781297477e+06 -7.311333299830e+06 -4.790475808601e-05 -1.021828814482e-05 -4.451169115346e-05 -3.739738776915e-04 5.855708376256e+06 2.185017433205e+06  3.282562996331e-04
7.064950000000e-03 0.000000000000e+00 -4.533683400050e-05 -5.145099903787e+06 -4.636470412265e+04 -5.114856654929e+06 -7.492775816636e+06 -4.433722995161e-05 -1.035370929422e-05 -4.094295730285e-05 -3.847876428371e-04 5.917577458450e+06 2.364306928067e+06  3.426298062543e-04
7.231620000000e-03 0.000000000000e+00 -4.660477981991e-05 -5.147219829156e+06 -4.721490820345e+04 -5.116963735479e+06 -7.674228818767e+06 -4.083067346425e-05 -1.048817832419e-05 -3.743530563594e-05 -3.954186960162e-04 5.979470794467e+06 2.543587039627e+06  3.567606433980e-04
7.398290000000e-03 0.000000000000e+00 -4.785110746499e-05 -5.149370986740e+06 -4.807346893392e+04 -5.119103153623e+06 -7.855692186679e+06 -3.738403894690e-05 -1.062167788471e-05 -3.398767794222e-05 -4.058701920055e-04 6.041388775681e+06 2.722854794631e+06  3.706528731687e-04
7.564960000000e-03 0.000000000000e+00 -4.907619158055e-05 -5.151554093861e+06 -4.894024632892e+04 -5.121275539901e+06 -8.037165714673e+06 -3.399629461670e-05 -1.075418236209e-05 -3.059903254239e-05 -4.161452349650e-04 6.103331782812e+06 2.902107649157e+06  3.843105143183e-04
7.731630000000e-03 0.000000000000e+00 -5.028040151683e-05 -5.153769911012e+06 -4.981500859462e+04 -5.123481537374e+06 -8.218649071030e+06 -3.066642628915e-05 -1.088565409667e-05 -2.726834344882e-05 -4.262468801652e-04 6.165300173139e+06 3.081343288484e+06  3.977375390925e-04
7.898300000000e-03 0.000000000000e+00 -5.146410188813e-05 -5.156019249790e+06 -5.069738365564e+04 -5.125721796472e+06 -8.400141733775e+06 -2.739343721660e-05 -1.101603718497e-05 -2.399459937193e-05 -4.361781358248e-04 6.227294260012e+06 3.260559453593e+06  4.109378712708e-04
8.064970000000e-03 0.000000000000e+00 -5.262765339913e-05 -5.158302977077e+06 -5.158677592642e+04 -5.127996958452e+06 -8.581642881802e+06 -2.417634791303e-05 -1.114524684656e-05 -2.077680222737e-05 -4.459419652325e-04 6.289314272444e+06 3.439753762598e+06  4.239153853427e-04
8.231640000000e-03 0.000000000000e+00 -5.377141416977e-05 -5.160622012798e+06 -5.248221440209e+04 -5.130307618683e+06 -8.763151199896e+06 -2.101419615405e-05 -1.127315002748e-05 -1.761396494468e-05 -4.555412888674e-04 6.351360277126e+06 3.618923478669e+06  4.366739060108e-04
8.398310000000e-03 0.000000000000e+00 -5.489574204966e-05 -5.162977301058e+06 -5.338205379870e+04 -5.132654237085e+06 -8.944664503978e+06 -1.790603723787e-05 -1.139952726323e-05 -1.450510786963e-05 -4.649789858150e-04 6.413432014040e+06 3.798065147272e+06  4.492172067676e-04
8.564980000000e-03 0.000000000000e+00 -5.600099905159e-05 -5.165369695506e+06 -5.428332718431e+04 -5.135036908624e+06 -9.126178952564e+06 -1.485094491500e-05 -1.152399012222e-05 -1.144925238932e-05 -4.742578914470e-04 6.475528518898e+06 3.977173930149e+06  4.615490030920e-04
8.731650000000e-03 0.000000000000e+00 -5.708756093313e-05 -5.167799547051e+06 -5.518015263682e+04 -5.137454712618e+06 -9.307687176453e+06 -1.184801413855e-05 -1.164577816470e-05 -8.445408511969e-06 -4.833807793704e-04 6.537647145374e+06 4.156242190426e+06  4.736729239671e-04
8.898320000000e-03 0.000000000000e+00 -5.815584152676e-05 -5.170265108811e+06 -5.605906203304e+04 -5.139903557777e+06 -9.489173046022e+06 -8.896369360025e-06 -1.176316431959e-05 -5.492547497726e-06 -4.923502747024e-04 6.599780570870e+06 4.335255954721e+06  4.855923925176e-04
9.064990000000e-03 0.000000000000e+00 -5.920637130964e-05 -5.172754914151e+06 -5.688157473623e+04 -5.142367007173e+06 -9.670593187126e+06 -5.995182520536e-06 -1.187124101495e-05 -2.589520771330e-06 -5.011684298716e-04 6.661905036150e+06 4.514184199432e+06  4.973100794290e-04
9.231660000000e-03 0.000000000000e+00 -6.024017096715e-05 -5.175191486099e+06 -5.750381460096e+04 -5.144754726274e+06 -9.851793809927e+06 -3.143189453496e-06 -1.195177063061e-05 2.657591940736e-07 -5.098350168890e-04 6.723913340767e+06 4.692951776802e+06  5.088261488999e-04
9.398330000000e-03 0.000000000000e+00 -6.126096454876e-05 -5.176911127762e+06 -5.755321331566e+04 -5.146368692314e+06 -1.003229324873e+07 -3.237205114783e-07 -1.195833541382e-05 3.092126726365e-06 -5.183609492363e-04 6.785191022935e+06 4.871745138354e+06  5.201661078461e-04
9.565000000000e-03 0.000000000000e+00 -6.228351513149e-05 -5.176307636457e+06 -5.702923401488e+04 -5.145519306805e+06 -1.021126612774e+07 2.528404339029e-06 -1.189233339468e-05 5.959898047219e-06 -5.268477302437e-04 6.844364357000e+06 5.051388907279e+06  5.314994832271e-04
9.731670000000e-03 0.000000000000e+00 -6.332635438480e-05 -5.173980021035e+06 -5.623728794615e+04 -5.143056566774e+06 -1.038979160982e+07 5.471962141992e-06 -1.179115931653e-05 8.912159187313e-06 -5.354907114950e-04 6.902276065875e+06 5.232248617797e+06  5.430750976889e-04
9.898340000000e-03 0.000000000000e+00 -6.438850935206e-05 -5.171627247107e+06 -5.531022452429e+04 -5.140660151980e+06 -1.056839363532e+07 8.468865684173e-06 -1.167085645441e-05 1.191198541375e-05 -5.442828232464e-04 6.960227011467e+06 5.413164162558e+06  5.548496207135e-04
1.006501000000e-02 0.000000000000e+00 -6.546905747939e-05 -5.169265210432e+06 -5.434848015486e+04 -5.138268398468e+06 -1.074683635499e+07 1.151523471838e-05 -1.154398463174e-05 1.496040949393e-05 -5.532182511302e-04 7.018123321296e+06 5.593926069480e+06  5.668167036810e-04
1.023168000000e-02 0.000000000000e+00 -6.656829648934e-05 -5.166899379957e+06 -5.338428296024e+04 -5.135881713313e+06 -1.092524669601e+07 1.461435362673e-05 -1.141460821853e-05 1.806102792674e-05 -5.623073456563e-04 7.076009263093e+06 5.774658955334e+06  5.789903865382e-04
1.039835000000e-02 0.000000000000e+00 -6.768659231266e-05 -5.164545696918e+06 -5.242615626792e+04 -5.133513471883e+06 -1.110365446393e+07 1.776739491567e-05 -1.128381896456e-05 2.121516810715e-05 -5.715547506847e-04 7.133904544242e+06 5.955377839457e+06  5.913766153992e-04
1.056502000000e-02 0.000000000000e+00 -6.882430798204e-05 -5.162212189841e+06 -5.147675727847e+04 -5.131170302743e+06 -1.128206881262e+07 2.097534440133e-05 -1.115196481250e-05 2.442389819347e-05 -5.809640003172e-04 7.191817101736e+06 6.136084268500e+06  6.039799553055e-04
1.073169000000e-02 0.000000000000e+00 -6.998180368094e-05 -5.159903033744e+06 -5.053705837325e+04 -5.128855529315e+06 -1.146049331382e+07 2.423917462097e-05 -1.101917953077e-05 2.768823908302e-05 -5.905383181999e-04 7.249750625627e+06 6.316777771330e+06  6.168046172654e-04
1.089836000000e-02 0.000000000000e+00 -7.115943992804e-05 -5.157620502700e+06 -4.960741958260e+04 -5.126570865293e+06 -1.163892953538e+07 2.755986900006e-05 -1.088551873103e-05 3.100920453332e-05 -6.002808248150e-04 7.307706967791e+06 6.497457644394e+06  6.298547066541e-04
1.106503000000e-02 0.000000000000e+00 -7.235757976125e-05 -5.155365849027e+06 -4.868794268585e+04 -5.124317171966e+06 -1.181737818978e+07 3.093842696837e-05 -1.075100479092e-05 3.438781381689e-05 -6.101946140887e-04 7.365687070258e+06 6.678123289199e+06  6.431343116307e-04
1.123170000000e-02 0.000000000000e+00 -7.357659011847e-05 -5.153139734914e+06 -4.777860997057e+04 -5.122094825939e+06 -1.199583958149e+07 3.437586545451e-05 -1.061564447550e-05 3.782509716118e-05 -6.202827882194e-04 7.423691380780e+06 6.858774260554e+06  6.566475425506e-04
1.139837000000e-02 0.000000000000e+00 -7.481684272321e-05 -5.150942461643e+06 -4.687934533246e+04 -5.119903912093e+06 -1.217431380467e+07 3.787321952105e-05 -1.047943671389e-05 4.132209861948e-05 -6.305484758357e-04 7.481720059470e+06 7.039410251729e+06  6.703985523450e-04
1.156504000000e-02 0.000000000000e+00 -7.607871468913e-05 -5.148774099526e+06 -4.599004337355e+04 -5.117744331672e+06 -1.235280083898e+07 4.143154277407e-05 -1.034237631412e-05 4.487987782510e-05 -6.409948425045e-04 7.539773090060e+06 7.220031069107e+06  6.843915483161e-04
1.173171000000e-02 0.000000000000e+00 -7.736258895710e-05 -5.146634566074e+06 -4.511058407918e+04 -5.115615866623e+06 -1.253130059939e+07 4.505190769997e-05 -1.020445584417e-05 4.849951117999e-05 -6.516250973655e-04 7.597850344030e+06 7.400636608697e+06  6.986307996224e-04
1.189838000000e-02 0.000000000000e+00 -7.866885462881e-05 -5.144523675437e+06 -4.424084064834e+04 -5.113518219909e+06 -1.270981296344e+07 4.873540597213e-05 -1.006566664424e-05 5.218209272106e-05 -6.624424976305e-04 7.655951619596e+06 7.581226836468e+06  7.131206423976e-04
1.206505000000e-02 0.000000000000e+00 -7.999790723677e-05 -5.142441169462e+06 -4.338068367244e+04 -5.111451040420e+06 -1.288833778680e+07 5.248314881343e-05 -9.925999369862e-06 5.592873486044e-05 -6.734503519215e-04 7.714076665559e+06 7.761801774163e+06  7.278654836466e-04
1.223172000000e-02 0.000000000000e+00 -8.135014897001e-05 -5.140386739855e+06 -4.252998346296e+04 -5.109413940763e+06 -1.306687491261e+07 5.629626730807e-05 -9.785444298577e-06 5.974056896447e-05 -6.846520228275e-04 7.772225197744e+06 7.942361487073e+06  7.428698042404e-04
1.239839000000e-02 0.000000000000e+00 -8.272598887667e-05 -5.138360042390e+06 -4.168861137849e+04 -5.107406508403e+06 -1.324542417700e+07 6.017591277049e-05 -9.643991509318e-06 6.361874591016e-05 -6.960509290420e-04 7.830396909266e+06 8.122906075426e+06  7.581381615026e-04
1.256506000000e-02 0.000000000000e+00 -8.412584304830e-05 -5.136360707523e+06 -4.085644051154e+04 -5.105428313992e+06 -1.342398541263e+07 6.412325709904e-05 -9.501630976966e-06 6.756443657797e-05 -7.076505471989e-04 7.888591478049e+06 8.303435667284e+06  7.736751914519e-04
1.273173000000e-02 0.000000000000e+00 -8.555013478987e-05 -5.134388348452e+06 -4.003334604961e+04 -5.103478917723e+06 -1.360255845098e+07 6.813949312061e-05 -9.358352624637e-06 7.157883230010e-05 -7.194544134989e-04 7.946808572384e+06 8.483950412500e+06  7.894856108064e-04
1.289840000000e-02 0.000000000000e+00 -8.699929478758e-05 -5.132442566137e+06 -3.921920547548e+04 -5.101557873078e+06 -1.378114312369e+07 7.222583498633e-05 -9.214146356175e-06 7.566314533263e-05 -7.314661252518e-04 8.005047854303e+06 8.664450478760e+06  8.055742189415e-04
1.306507000000e-02 0.000000000000e+00 -8.847376126658e-05 -5.130522953165e+06 -3.841389861260e+04 -5.099664729714e+06 -1.395973926346e+07 7.638351856479e-05 -9.069002066399e-06 7.981860930760e-05 -7.436893423258e-04 8.063308982114e+06 8.844936048192e+06  8.219458997440e-04
1.323174000000e-02 0.000000000000e+00 -8.997398014778e-05 -5.128629097837e+06 -3.761730764803e+04 -5.097799036760e+06 -1.413834670475e+07 8.061380179388e-05 -8.922909650054e-06 8.404647963188e-05 -7.561277885084e-04 8.121591613114e+06 9.025407313719e+06  8.386056233306e-04
1.339841000000e-02 0.000000000000e+00 -9.150040520513e-05 -5.126760585632e+06 -3.682931703327e+04 -5.095960343683e+06 -1.431696528406e+07 8.491796511791e-05 -8.775858990138e-06 8.834803395962e-05 -7.687852528981e-04 8.179895404458e+06 9.205864477492e+06  8.555584478774e-04
1.356508000000e-02 0.000000000000e+00 -9.305349821957e-05 -5.124917001401e+06 -3.604981352707e+04 -5.094148202004e+06 -1.449559484015e+07 8.929731187767e-05 -8.627839973108e-06 9.272457260974e-05 -7.816655912269e-04 8.238220014518e+06 9.386307748545e+06  8.728095213305e-04
1.373175000000e-02 0.000000000000e+00 -9.463372913501e-05 -5.123097930838e+06 -3.527868601681e+04 -5.092362166362e+06 -1.467423521427e+07 9.375316872626e-05 -8.478842463278e-06 9.717741900556e-05 -7.947727272019e-04 8.296565103823e+06 9.566737341291e+06  8.903640831597e-04
1.389842000000e-02 0.000000000000e+00 -9.624157621544e-05 -5.121302961391e+06 -3.451582551397e+04 -5.090601795121e+06 -1.485288625017e+07 9.828688605965e-05 -8.328856309652e-06 1.017079201222e-04 -8.081106538421e-04 8.354930335561e+06 9.747153474288e+06  9.082274661199e-04
1.406509000000e-02 0.000000000000e+00 -9.787752620176e-05 -5.119531683302e+06 -3.376112506095e+04 -5.088866651144e+06 -1.503154779415e+07 1.028998384412e-04 -8.177871335947e-06 1.063174469258e-04 -8.216834348126e-04 8.413315376199e+06 9.927556368986e+06  9.264050980034e-04
1.423176000000e-02 0.000000000000e+00 -9.954207447347e-05 -5.117783690372e+06 -3.301447964703e+04 -5.087156302338e+06 -1.521021969508e+07 1.075934250372e-04 -8.025877331757e-06 1.110073948213e-04 -8.354952057712e-04 8.471719895929e+06 1.010794624873e+07  9.449025034150e-04
1.439843000000e-02 0.000000000000e+00 -1.012357252066e-04 -5.116058580014e+06 -3.227578617686e+04 -5.085470321540e+06 -1.538890180435e+07 1.123690700901e-04 -7.872864054031e-06 1.157791841331e-04 -8.495501757545e-04 8.530143568634e+06 1.028832333844e+07  9.637253056228e-04
1.456510000000e-02 0.000000000000e+00 -1.029589915427e-04 -5.114355954425e+06 -3.154494336789e+04 -5.083808287522e+06 -1.556759397588e+07 1.172282233372e-04 -7.718821213688e-06 1.206342605336e-04 -8.638526285200e-04 8.588586072610e+06 1.046868786318e+07  9.828792283120e-04
1.473177000000e-02 0.000000000000e+00 -1.047123957498e-04 -5.112675420140e+06 -3.082185170692e+04 -5.082169784434e+06 -1.574629606608e+07 1.221723605170e-04 -7.563738473816e-06 1.255740955539e-04 -8.784069239843e-04 8.647047090219e+06 1.064904004842e+07  1.002370097520e-03
1.489844000000e-02 0.000000000000e+00 -1.064964693945e-04 -5.111016588908e+06 -3.010641340401e+04 -5.080554402560e+06 -1.592500793380e+07 1.272029838124e-04 -7.407605447143e-06 1.306001870325e-04 -8.932174996091e-04 8.705526308422e+06 1.082938011892e+07  1.022203843460e-03
1.506511000000e-02 0.000000000000e+00 -1.083117535142e-04 -5.109379077548e+06 -2.939853231596e+04 -5.078961738086e+06 -1.610372944025e+07 1.323216223506e-04 -7.250411686491e-06 1.357140596192e-04 -9.082888718539e-04 8.764023418627e+06 1.100970829861e+07  1.042386502460e-03
1.523178000000e-02 0.000000000000e+00 -1.101587987877e-04 -5.107762508114e+06 -2.869811391665e+04 -5.077391393190e+06 -1.628246044902e+07 1.375298326980e-04 -7.092146684965e-06 1.409172652721e-04 -9.236256376425e-04 8.822538116776e+06 1.119002481033e+07  1.062924218923e-03
1.539845000000e-02 0.000000000000e+00 -1.120381657172e-04 -5.106166508150e+06 -2.800506524036e+04 -5.075842976222e+06 -1.646120082599e+07 1.428291993531e-04 -6.932799869898e-06 1.462113837538e-04 -9.392324758368e-04 8.881070103456e+06 1.137032987528e+07  1.083823247281e-03
1.556512000000e-02 0.000000000000e+00 -1.139504248056e-04 -5.104590710707e+06 -2.731929485235e+04 -5.074316101663e+06 -1.663995043934e+07 1.482213352643e-04 -6.772360602606e-06 1.515980231506e-04 -9.551141487573e-04 8.939619083902e+06 1.155062371296e+07  1.105089954026e-03
1.573179000000e-02 0.000000000000e+00 -1.158961567414e-04 -5.103034754298e+06 -2.664071278667e+04 -5.072810390036e+06 -1.681870915936e+07 1.537078823539e-04 -6.610818170240e-06 1.570788203973e-04 -9.712755037153e-04 8.998184767899e+06 1.173090654090e+07  1.126730819761e-03
1.589846000000e-02 0.000000000000e+00 -1.178759525863e-04 -5.101498283076e+06 -2.596923052512e+04 -5.071325468030e+06 -1.699747685861e+07 1.592905120450e-04 -6.448161786865e-06 1.626554418052e-04 -9.877214745780e-04 9.056766869904e+06 1.191117857445e+07  1.148752441281e-03
1.606513000000e-02 0.000000000000e+00 -1.198904139642e-04 -5.099980946719e+06 -2.530476095549e+04 -5.069860968347e+06 -1.717625341168e+07 1.649709258094e-04 -6.284380589439e-06 1.683295836103e-04 -1.004457083362e-03 9.115365108915e+06 1.209144002670e+07  1.171161533710e-03
1.623180000000e-02 0.000000000000e+00 -1.219401532556e-04 -5.098482400517e+06 -2.464721834323e+04 -5.068416529758e+06 -1.735503869532e+07 1.707508557154e-04 -6.119463636778e-06 1.741029725217e-04 -1.021487441853e-03 9.173979208532e+06 1.227169110832e+07  1.193964932658e-03
1.639847000000e-02 0.000000000000e+00 -1.240257937949e-04 -5.097002305293e+06 -2.399651828670e+04 -5.066991796990e+06 -1.753383258825e+07 1.766320649937e-04 -5.953399904155e-06 1.799773662861e-04 -1.038817753252e-03 9.232608896843e+06 1.245193202739e+07  1.217169596430e-03