 TITLE = "Time curves in points"
 VARIABLES = "TIME "  "DISPLACEMENT_X1"  "DISPLACEMENT_Y1"  "STRESS_XX"  "STRESS_XY"  "STRESS_YY"  "STRESS_ZZ"  "STRAIN_XX"  "STRAIN_XY"  "STRAIN_YY"  "STRAIN_ZZ"  p_(1st_Invariant)  q_(2nd_Invariant)   Effective_Strain
 ZONE T="POINT=POINT2"
0.000000000000e+00 0.000000000000e+00 0.000000000000e+00 0.000000000000e+00 0.000000000000e+00 0.000000000000e+00 0.000000000000e+00 0.000000000000e+00 0.000000000000e+00 0.000000000000e+00 0.000000000000e+00 -0.000000000000e+00 0.000000000000e+00  0.000000000000e+00
2.314800000000e-05 -4.661214953710e-07 1.878504671235e-06 -4.879245910286e+05 -7.995517070205e-06 -4.879245910604e+05 -1.735098582382e-05 -1.553738317698e-05 -1.023921661073e-15 -1.553738317902e-05 1.565420560737e-05 3.252830607021e+05 4.879245910272e+05  3.119158878536e-05
4.629600000000e-05 -9.938828968743e-07 4.010612570957e-06 -9.828568338505e+05 -1.824836968249e+03 -9.903609908425e+05 -2.061175231439e+03 -3.260610884839e-05 -2.466601488960e-07 -3.311825445170e-05 3.303748958212e-05 6.584263333081e+05 9.845742587674e+05  6.590254860044e-05
6.944400000000e-05 -1.573328856469e-06 6.353507722019e-06 -1.477672472282e+06 -3.314293265700e+03 -1.493920303431e+06 -4.758269061944e+03 -5.125252661021e-05 -4.660606578696e-07 -5.242121320965e-05 5.205198354759e-05 9.921170149250e+05 1.481116084902e+06  1.038969195001e-04
9.259200000000e-05 -2.209474432746e-06 8.926589336676e-06 -1.972419145365e+06 -4.756592708834e+03 -1.998405075646e+06 -7.472259363950e+03 -7.164302015406e-05 -6.990184688689e-07 -7.361410594892e-05 7.288659255847e-05 1.326098826792e+06 1.978085028932e+06  1.455302040027e-04
1.157400000000e-04 -2.907963815845e-06 1.175287480591e-05 -2.467150664262e+06 -6.179306488433e+03 -2.503893523568e+06 -1.018585490655e+04 -9.394195806392e-05 -9.510712382492e-07 -9.688514402492e-05 9.571864641928e-05 1.660410014246e+06 2.475563890494e+06  1.911562901777e-04
1.388880000000e-04 -3.674927244908e-06 1.485742979018e-05 -2.961880357647e+06 -7.587986259865e+03 -3.010425544972e+06 -1.289856887783e+04 -1.183261897754e-04 -1.224801160074e-06 -1.224387672696e-04 1.207392120866e-04 1.995068157165e+06 2.973580641527e+06  2.411573243053e-04
1.620360000000e-04 -4.517071765566e-06 1.826769541200e-05 -3.456613675531e+06 -8.984738769001e+03 -3.518031365834e+06 -1.561045419121e+04 -1.449880601490e-04 -1.522473741519e-06 -1.504986773081e-04 1.481567465943e-04 2.330085165185e+06 3.472154367064e+06  2.959503458404e-04
1.851840000000e-04 -5.441750359888e-06 2.201377753513e-05 -3.951353752068e+06 -1.037049670747e+04 -4.026738960836e+06 -1.832167304782e+04 -1.741370627318e-04 -1.846356731703e-06 -1.813101408051e-04 1.781990966517e-04 2.665471461984e+06 3.971301971681e+06  3.559912697483e-04
2.083320000000e-04 -6.457028545529e-06 2.612872603482e-05 -4.446102811335e+06 -1.174567184147e+04 -4.536575945359e+06 -2.103242106790e+04 -2.060014310161e-04 -2.198819177824e-06 -2.151422115979e-04 2.111154119504e-04 3.001237059254e+06 4.471039836068e+06  4.217787245842e-04
2.314800000000e-04 -7.571754880329e-06 3.064883021119e-05 -4.940862633941e+06 -1.311041705808e+04 -5.047570184224e+06 -2.374289453641e+04 -2.408298090708e-04 -2.582380230771e-06 -2.522900849549e-04 2.471781629066e-04 3.337391904234e+06 4.971384362919e+06  4.938581078531e-04
3.981500000000e-04 -7.396854132575e-06 2.824843387469e-05 -4.946620358913e+06 -1.455325398534e+04 -5.060055090648e+06 -2.074499604348e+05 -2.339314885771e-04 -3.037491576448e-06 -2.464305047374e-04 2.267600186635e-04 3.404708469999e+06 4.796960018447e+06  4.670960927987e-04
5.648200000000e-04 -7.186602395857e-06 2.572323729396e-05 -4.946385146115e+06 -1.463891032564e+04 -5.058299617848e+06 -3.875995085978e+05 -2.271493443839e-04 -3.064055029611e-06 -2.394179050450e-04 2.063153102973e-04 3.464094757520e+06 4.615830187222e+06  4.397593400357e-04
7.314900000000e-04 -6.980240744400e-06 2.324430379571e-05 -4.946211762796e+06 -1.469978794546e+04 -5.056726746600e+06 -5.679569779098e+05 -2.204749193013e-04 -3.082805446862e-06 -2.325349244366e-04 1.862046930446e-04 3.523631829102e+06 4.434618307246e+06  4.128762769926e-04
8.981600000000e-04 -6.777390729551e-06 2.080763119403e-05 -4.946038392236e+06 -1.476174116412e+04 -5.055151656052e+06 -7.483121950135e+05 -2.139143852261e-04 -3.101560741728e-06 -2.257690606827e-04 1.664371055413e-04 3.583167414434e+06 4.253409487009e+06  3.864525745531e-04
1.064830000000e-03 -6.577995426612e-06 1.841254540571e-05 -4.945865735185e+06 -1.482426338223e+04 -5.053576341855e+06 -9.286678879946e+05 -2.074657057103e-04 -3.120169319152e-06 -2.191184137419e-04 1.470065032426e-04 3.642703321678e+06 4.072202624115e+06  3.604803740156e-04
1.231500000000e-03 -6.381996114478e-06 1.605833774209e-05 -4.945693805042e+06 -1.488735587571e+04 -5.052000810539e+06 -1.109024054879e+06 -2.011269783096e-04 -3.138631203554e-06 -2.125810253603e-04 1.279071506947e-04 3.702239556820e+06 3.890998036950e+06  3.349522035393e-04
1.398170000000e-03 -6.189335088841e-06 1.374431212418e-05 -4.945522625648e+06 -1.495101360830e+04 -5.050425087882e+06 -1.289380718207e+06 -1.948963323008e-04 -3.156944695043e-06 -2.061549711522e-04 1.091334080254e-04 3.761776143913e+06 3.709796094224e+06  3.098607750223e-04
1.564840000000e-03 -5.999955620901e-06 1.146978427385e-05 -4.945352221139e+06 -1.501523139067e+04 -5.048849200157e+06 -1.469737900879e+06 -1.887719286064e-04 -3.175108175989e-06 -1.998383592635e-04 9.067973092298e-05 3.821313107392e+06 3.528597239947e+06  2.851990046427e-04
1.731510000000e-03 -5.813801941234e-06 9.234081518090e-06 -4.945182616119e+06 -1.508000380485e+04 -5.047273174355e+06 -1.650095626309e+06 -1.827519592638e-04 -3.193120089318e-06 -1.936293298332e-04 7.254066901445e-05 3.880850472261e+06 3.347402013840e+06  2.609600425599e-04
1.898180000000e-03 -5.630819223675e-06 7.036542594616e-06 -4.945013835663e+06 -1.514532519890e+04 -5.045697038228e+06 -1.830453918398e+06 -1.768346468991e-04 -3.210978937197e-06 -1.875260544558e-04 5.471086427597e-05 3.940388264096e+06 3.166211078749e+06  2.371373199772e-04
2.064850000000e-03 -5.450953569224e-06 4.876517459040e-06 -4.944845905328e+06 -1.521118966841e+04 -5.044120820278e+06 -2.010812801550e+06 -1.710182442093e-04 -3.228683276319e-06 -1.815267356449e-04 3.718504946237e-05 3.999926509052e+06 2.985025257936e+06  2.137246256365e-04
2.231520000000e-03 -5.274151990484e-06 2.753367095665e-06 -4.944678851167e+06 -1.527759104110e+04 -5.042544549836e+06 -2.191172300714e+06 -1.653010334497e-04 -3.246231714281e-06 -1.756296063139e-04 1.995804656302e-05 4.059465233906e+06 2.803845586883e+06  1.907162345273e-04
2.398190000000e-03 -5.100362396442e-06 6.664633292786e-07 -4.944512699732e+06 -1.534452287247e+04 -5.040968257170e+06 -2.371532441347e+06 -1.596813259302e-04 -3.263622909076e-06 -1.698329292694e-04 3.024765289277e-06 4.119004466083e+06 2.622673386613e+06  1.681071342112e-04
2.564860000000e-03 -4.929533576983e-06 -1.384811358386e-06 -4.944347478095e+06 -1.541197840682e+04 -5.039391973436e+06 -2.551893249471e+06 -1.541574615225e-04 -3.280855559909e-06 -1.641349966941e-04 -1.361979842745e-05 4.178544233667e+06 2.441510369459e+06  1.458934456115e-04
2.731530000000e-03 -4.761615188263e-06 -3.401064007850e-06 -4.944183213846e+06 -1.547995057628e+04 -5.037815730834e+06 -2.732254751646e+06 -1.487278081702e-04 -3.297928408058e-06 -1.585341296592e-04 -2.998056390124e-05 4.238084565442e+06 2.260358795866e+06  1.240732630796e-04
2.898200000000e-03 -4.596557737914e-06 -5.382891358955e-06 -4.944019935123e+06 -1.554843197005e+04 -5.036239562652e+06 -2.912616975008e+06 -1.433907614096e-04 -3.314840230480e-06 -1.530286776319e-04 -4.606236714364e-05 4.297625490927e+06 2.079221712954e+06  1.026484932512e-04
3.064870000000e-03 -4.434312570556e-06 -7.330880028277e-06 -4.943857670610e+06 -1.561741480820e+04 -5.034663503325e+06 -3.092979947265e+06 -1.381447438967e-04 -3.331589834953e-06 -1.476170179913e-04 -6.186996229082e-05 4.357167040400e+06 1.898103329613e+06  8.162940889106e-05
3.231540000000e-03 -4.274831853907e-06 -9.245606680358e-06 -4.943696449557e+06 -1.568689092307e+04 -5.033087588661e+06 -3.273343696704e+06 -1.329882049368e-04 -3.348176057382e-06 -1.422975555663e-04 -7.740802300546e-05 4.416709244974e+06 1.717009628871e+06  6.104807026473e-05
3.398210000000e-03 -4.118068564219e-06 -1.112763819322e-05 -4.943536301795e+06 -1.575685171114e+04 -5.031511855740e+06 -3.453708252211e+06 -1.279196200318e-04 -3.364597752498e-06 -1.370687221494e-04 -9.268114387000e-05 4.476252136582e+06 1.535949412739e+06  4.100997735607e-05
3.564880000000e-03 -3.963976472927e-06 -1.297753183065e-05 -4.943377257748e+06 -1.582728811042e+04 -5.029936343216e+06 -3.634073643278e+06 -1.229374904201e-04 -3.380853791001e-06 -1.319289760521e-04 -1.076938417483e-04 4.535795748081e+06 1.354936184017e+06  2.201293264836e-05
3.731550000000e-03 -3.812510133136e-06 -1.479583540084e-05 -4.943219348449e+06 -1.589819055854e+04 -5.028361091504e+06 -3.814439899988e+06 -1.180403426300e-04 -3.396943052520e-06 -1.268768016544e-04 -1.224505571317e-04 4.595340113314e+06 1.173991766084e+06  9.652978121472e-06
3.898220000000e-03 -3.663624865937e-06 -1.658308742073e-05 -4.943062605553e+06 -1.596954893896e+04 -5.026786142863e+06 -3.994807053047e+06 -1.132267280403e-04 -3.412864416327e-06 -1.219107089485e-04 -1.369556554744e-04 4.654885267154e+06 9.931538713449e+05  2.161839261719e-05
4.064890000000e-03 -3.517276747444e-06 -1.833981727401e-05 -4.942907061350e+06 -1.604135253386e+04 -5.025211541741e+06 -4.175175133760e+06 -1.084952224433e-04 -3.428616753729e-06 -1.170292331070e-04 -1.512134285040e-04 4.714431245617e+06 8.124937491990e+05  3.960281656058e-05
4.231560000000e-03 -3.373422595803e-06 -2.006654536699e-05 -4.942752748766e+06 -1.611358995907e+04 -5.023637335144e+06 -4.355544174045e+06 -1.038444256164e-04 -3.444198916389e-06 -1.122309340505e-04 -1.652280955188e-04 4.773978085985e+06 6.321639760123e+05  5.795758196804e-05
4.398230000000e-03 -3.232019958461e-06 -2.176378328180e-05 -4.942599701328e+06 -1.618624909394e+04 -5.022063573216e+06 -4.535914206425e+06 -9.927296090676e-05 -3.459609722799e-06 -1.075143960231e-04 -1.790038046652e-04 4.833525826990e+06 4.525598156537e+05  7.618227367245e-05
4.564900000000e-03 -3.093027099911e-06 -2.343203392738e-05 -4.942447952991e+06 -1.625931698750e+04 -5.020490310448e+06 -4.716285264098e+06 -9.477947483935e-05 -3.474847938853e-06 -1.028782271860e-04 -1.925446341833e-04 4.893074509179e+06 2.751064102879e+05  9.417039907564e-05
4.731570000000e-03 -2.956402990971e-06 -2.507179167350e-05 -4.942297537165e+06 -1.633277964345e+04 -5.018917608996e+06 -4.896657381638e+06 -9.036263679366e-05 -3.489912250678e-06 -9.832105926334e-05 -2.058545935763e-04 4.952624175933e+06 1.106837398690e+05  1.118889326445e-04
4.898240000000e-03 -2.822107334025e-06 -2.668354214001e-05 -4.942148455185e+06 -1.640662384131e+04 -5.017345558930e+06 -5.077030610004e+06 -8.602113699176e-05 -3.504802215710e-06 -9.384154836630e-05 -2.189376252805e-04 5.012174874706e+06 1.204681892807e+05  1.293264899080e-04
5.064910000000e-03 -2.690100725780e-06 -2.826776113054e-05 -4.942000750482e+06 -1.648086069027e+04 -5.015774064187e+06 -5.257405045591e+06 -8.175371145013e-05 -3.519517302830e-06 -8.943838018145e-05 -2.317975723803e-04 5.071726620086e+06 2.871738280004e+05  1.464798210541e-04
5.231580000000e-03 -2.560343876862e-06 -2.982492087710e-05 -4.941854636258e+06 -1.655541170310e+04 -5.014203365590e+06 -5.437780463114e+06 -7.755906486689e-05 -3.534049567264e-06 -8.511024514324e-05 -2.444382880197e-04 5.131279488321e+06 4.648864441267e+05  1.633494072970e-04
5.398250000000e-03 -2.432797971105e-06 -3.135548686357e-05 -4.941710074560e+06 -1.663027052354e+04 -5.012633471441e+06 -5.618157028384e+06 -7.343594258333e-05 -3.548402048907e-06 -8.085584837321e-05 -2.568635463448e-04 5.190833524795e+06 6.445652732509e+05  1.799374856881e-04
5.564920000000e-03 -2.307425031434e-06 -3.285991525518e-05 -4.941567100736e+06 -1.670542120529e+04 -5.011064467307e+06 -5.798534769189e+06 -6.938311168744e-05 -3.562572575351e-06 -7.667392344892e-05 -2.690770510678e-04 5.250388779077e+06 8.249264729857e+05  1.962472170746e-04
5.731590000000e-03 -2.184187724681e-06 -3.433865444525e-05 -4.941425757643e+06 -1.678084098494e+04 -5.009496449153e+06 -5.978913716839e+06 -6.539935942778e-05 -3.576558938400e-06 -7.256322539441e-05 -2.810824446762e-04 5.309945307878e+06 1.005602879658e+06  2.122822763336e-04
5.898260000000e-03 -2.063049339839e-06 -3.579214526068e-05 -4.941286089551e+06 -1.685650391597e+04 -5.007929520035e+06 -6.159293902645e+06 -6.148349261027e-05 -3.590358776131e-06 -6.852252998470e-05 -2.928833098936e-04 5.369503170744e+06 1.186450414361e+06  2.280466258291e-04
6.064930000000e-03 -1.943973774709e-06 -3.722082111311e-05 -4.941148142138e+06 -1.693238087430e+04 -5.006363793551e+06 -6.339675356825e+06 -5.763433710948e-05 -3.603969453665e-06 -6.455063330824e-05 -3.044831711513e-04 5.429062430838e+06 1.367401076734e+06  2.435443864182e-04
6.231600000000e-03 -1.826925522496e-06 -3.862510814860e-05 -4.941011962608e+06 -1.700843905889e+04 -5.004799397008e+06 -6.520058107599e+06 -5.385073730759e-05 -3.617387966414e-06 -6.064635132455e-05 -3.158854961750e-04 5.488623155738e+06 1.548418587917e+06  2.587797608612e-04
6.398270000000e-03 -1.711869657683e-06 -4.000542539557e-05 -4.940877599884e+06 -1.708464124563e+04 -5.003236474953e+06 -6.700442180046e+06 -5.013155546190e-05 -3.630610834234e-06 -5.680851939786e-05 -3.270936977261e-04 5.548185418294e+06 1.729481809135e+06  2.737569868780e-04
6.564940000000e-03 -1.598771821815e-06 -4.136218492033e-05 -4.940745104822e+06 -1.716094481704e+04 -5.001675194025e+06 -6.880827594435e+06 -4.647567096973e-05 -3.643633976046e-06 -5.303599182890e-05 -3.381111355415e-04 5.607749297760e+06 1.910577566393e+06  2.884803078027e-04
6.731610000000e-03 -1.487598207445e-06 -4.269579199097e-05 -4.940614530497e+06 -1.723730044373e+04 -5.000115748959e+06 -7.061214363781e+06 -4.288197950958e-05 -3.656452542835e-06 -4.932764132722e-05 -3.489411185805e-04 5.667314881079e+06 2.091697193083e+06  3.029539542472e-04
6.898280000000e-03 -1.378315541008e-06 -4.400664524460e-05 -4.940485932581e+06 -1.731365033679e+04 -4.998558371215e+06 -7.241602490185e+06 -3.934939198607e-05 -3.669060699340e-06 -4.568235845057e-05 -3.595869076969e-04 5.726882264660e+06 2.272834718406e+06  3.171821330158e-04
7.064950000000e-03 -1.270891062453e-06 -4.529513688063e-05 -4.940359369832e+06 -1.738992585633e+04 -4.997003340536e+06 -7.421991959164e+06 -3.587683320585e-05 -3.681451326044e-06 -4.209905094035e-05 -3.700517189571e-04 5.786451556511e+06 2.453985850148e+06  3.311690212134e-04
7.231620000000e-03 -1.165292501818e-06 -4.656165287376e-05 -4.940234904771e+06 -1.746604419926e+04 -4.995451002035e+06 -7.602382730723e+06 -3.246324012515e-05 -3.693615607291e-06 -3.857664296172e-05 -3.803387279140e-04 5.846022879176e+06 2.635147365790e+06  3.449187644845e-04
7.398290000000e-03 -1.061488049521e-06 -4.780657322640e-05 -4.940112604614e+06 -1.754190368662e+04 -4.993901790971e+06 -7.782774724815e+06 -2.910755945155e-05 -3.705542445157e-06 -3.511407414430e-05 -3.904510753786e-04 5.905596373467e+06 2.816316722035e+06  3.584354791565e-04
7.564960000000e-03 -9.594463181716e-07 -4.903027228320e-05 -4.939992542605e+06 -1.761737691437e+04 -4.992356270801e+06 -7.963167796920e+06 -2.580874419428e-05 -3.717217607897e-06 -3.171029835673e-05 -4.003918755721e-04 5.965172203442e+06 2.997491779294e+06  3.717232588048e-04
7.731630000000e-03 -8.591362888417e-07 -5.023311914017e-05 -4.939874799998e+06 -1.769230042005e+04 -4.990815192479e+06 -8.143561695376e+06 -2.256574848197e-05 -3.728622443039e-06 -2.836428199092e-05 -4.101642282491e-04 6.024750562618e+06 3.178670576176e+06  3.847861868775e-04
7.898300000000e-03 -7.605272339974e-07 -5.141547822251e-05 -4.939759469078e+06 -1.776645865121e+04 -4.989279593031e+06 -8.323955983113e+06 -1.937751932780e-05 -3.739731879875e-06 -2.507500151823e-05 -4.197712376792e-04 6.084331681741e+06 3.359851097681e+06  3.976283587758e-04
8.064970000000e-03 -6.635885958026e-07 -5.257771014715e-05 -4.939646658049e+06 -1.783955789708e+04 -4.987750965472e+06 -8.504349885787e+06 -1.624298280195e-05 -3.750511174750e-06 -2.184143965096e-05 -4.292160442517e-04 6.143915836436e+06 3.541030965097e+06  4.102539205665e-04
8.231640000000e-03 -5.682897835289e-07 -5.372017311413e-05 -4.939536499385e+06 -1.791118183842e+04 -4.986231573736e+06 -8.684741975218e+06 -1.316101912800e-05 -3.760910349027e-06 -1.866257899556e-05 -4.385018808155e-04 6.203503349446e+06 3.722206908453e+06  4.226671396114e-04
8.398310000000e-03 -4.745998053310e-07 -5.484322535727e-05 -4.939429165402e+06 -1.798071102943e+04 -4.984725084514e+06 -8.865129448031e+06 -1.013041394346e-05 -3.770854080064e-06 -1.553739059888e-05 -4.476321819474e-04 6.263094565983e+06 3.903373687564e+06  4.348725429115e-04
8.564980000000e-03 -3.824865297044e-07 -5.594722988918e-05 -4.939324901059e+06 -1.804716623529e+04 -4.983237979751e+06 -9.045506281517e+06 -7.149752069936e-06 -3.780221930626e-06 -1.246481117300e-05 -4.566108198902e-04 6.322689720776e+06 4.084521504686e+06  4.468752168480e-04
8.731650000000e-03 -2.919149969742e-07 -5.703256491419e-05 -4.939224107809e+06 -1.810887868242e+04 -4.981783219407e+06 -9.225857755514e+06 -4.217149488779e-06 -3.788806362608e-06 -9.443691599758e-06 -4.654426940269e-04 6.382288360910e+06 4.265628650303e+06  4.586815563185e-04
8.898320000000e-03 -2.028427596238e-07 -5.809965096262e-05 -4.939127641969e+06 -1.816276498113e+04 -4.980392054908e+06 -9.406140785035e+06 -1.329415573286e-06 -3.796218568838e-06 -6.472656970223e-06 -4.741355548347e-04 6.441886827304e+06 4.446635824447e+06  4.703015798118e-04
9.064990000000e-03 -1.152025422253e-07 -5.914904334868e-05 -4.939038701950e+06 -1.820348943288e+04 -4.979168087116e+06 -9.586203006972e+06 1.521637745771e-06 -3.801764685181e-06 -3.549597041116e-06 -4.827079666056e-04 6.501469932012e+06 4.627337539037e+06  4.817590117292e-04
9.231660000000e-03 -2.880209031604e-08 -6.018192274145e-05 -4.938979488161e+06 -1.824544940084e+04 -4.978653058200e+06 -9.765716817121e+06 4.373773276906e-06 -3.807145018338e-06 -6.687628719777e-07 -4.912420486834e-04 6.561116454494e+06 4.807127210999e+06  4.931579792618e-04
9.398330000000e-03 5.714886201146e-08 -6.120278904477e-05 -4.938745546372e+06 -1.832146683361e+04 -4.979570768436e+06 -9.945346171940e+06 7.311359073396e-06 -3.816780273045e-06 2.195034748677e-06 -4.999175322592e-04 6.621220828916e+06 4.986414339865e+06  5.047334751105e-04
9.565000000000e-03 1.439676059992e-07 -6.222688376263e-05 -4.938846419428e+06 -1.807965772894e+04 -4.981204254721e+06 -1.012544944438e+07 1.030325021726e-05 -3.785952861738e-06 5.086880448118e-06 -5.087493800249e-04 6.681833372842e+06 5.165649278652e+06  5.165058308897e-04
9.731670000000e-03 2.320664965559e-07 -6.327116245039e-05 -4.938985403566e+06 -1.791551188760e+04 -4.982876804808e+06 -1.030523450803e+07 1.333951301222e-05 -3.764829708973e-06 8.021285858023e-06 -5.177140972458e-04 6.742365572135e+06 5.344528661197e+06  5.284548028033e-04
9.898340000000e-03 3.216322024942e-07 -6.433457582596e-05 -4.939110176936e+06 -1.778912819122e+04 -4.984538321111e+06 -1.048492044718e+07 1.642650551279e-05 -3.748410185976e-06 1.100448336115e-05 -5.268271908075e-04 6.802856315074e+06 5.523322257528e+06  5.406020671911e-04
1.006501000000e-02 4.127423797843e-07 -6.541639689035e-05 -4.939232700737e+06 -1.767369795171e+04 -4.986187825692e+06 -1.066457903387e+07 1.956604540857e-05 -3.733198434654e-06 1.403912328401e-05 -5.360956872605e-04 6.863333186765e+06 5.702095943104e+06  5.529567968735e-04
1.023168000000e-02 5.054252838060e-07 -6.651692688436e-05 -4.939355414844e+06 -1.756362768578e+04 -4.987834168760e+06 -1.084422350333e+07 2.275954718354e-05 -3.718463789244e-06 1.712614973096e-05 -5.455234911595e-04 6.923804362313e+06 5.880857261330e+06  5.655240609679e-04
1.039835000000e-02 5.997142812617e-07 -6.763653284103e-05 -4.939479274429e+06 -1.745703996004e+04 -4.989478853767e+06 -1.102385973806e+07 2.600819557399e-05 -3.703959966751e-06 2.026667779923e-05 -5.551141270582e-04 6.984272622086e+06 6.059610826217e+06  5.783085272598e-04
1.056502000000e-02 6.956417950643e-07 -6.877557855737e-05 -4.939604712340e+06 -1.735299826716e+04 -4.991122411663e+06 -1.120349088806e+07 2.931310934189e-05 -3.689563524429e-06 2.346178947409e-05 -5.648709212757e-04 7.044739337353e+06 6.238359277143e+06  5.913146184551e-04
1.073169000000e-02 7.932394451009e-07 -6.993442481970e-05 -4.939731947614e+06 -1.725094303274e+04 -4.992765193994e+06 -1.138311883473e+07 3.267538151408e-05 -3.675200015228e-06 2.671253905211e-05 -5.747971070795e-04 7.105205325447e+06 6.417104188271e+06  6.045466387503e-04
1.089836000000e-02 8.925385359021e-07 -7.111343267209e-05 -4.939861094984e+06 -1.715050856299e+04 -4.994407472397e+06 -1.156274477826e+07 3.609609611578e-05 -3.660820113164e-06 3.001996987010e-05 -5.848958817217e-04 7.165671115214e+06 6.595846548882e+06  6.180088470285e-04
1.106503000000e-02 9.935703759503e-07 -7.231296563887e-05 -4.939992212635e+06 -1.705144229285e+04 -4.996049460420e+06 -1.174236952028e+07 3.957633750495e-05 -3.646389127839e-06 3.338512517393e-05 -5.951704389324e-04 7.226137064443e+06 6.774587009946e+06  6.317054991841e-04
1.123170000000e-02 1.096366471287e-06 -7.353339112423e-05 -4.940125325648e+06 -1.695356298259e+04 -4.997691325187e+06 -1.192199361486e+07 4.311719620640e-05 -3.631881596679e-06 3.680905467883e-05 -6.056239885763e-04 7.286603421898e+06 6.953326016761e+06  6.456408738349e-04
1.139837000000e-02 1.200958646558e-06 -7.477508130775e-05 -4.940260438610e+06 -1.685673681466e+04 -4.999333196534e+06 -1.210161745505e+07 4.671977278437e-05 -3.617278200960e-06 4.029281865671e-05 -6.162597692375e-04 7.347070363398e+06 7.132063884103e+06  6.598192888052e-04
1.156504000000e-02 1.307379124578e-06 -7.603841375513e-05 -4.940397542875e+06 -1.676086280057e+04 -5.000975174474e+06 -1.228124132516e+07 5.038518053820e-05 -3.602563887151e-06 4.383749061485e-05 -6.270810567106e-04 7.407538014168e+06 7.310800840852e+06  6.742451122552e-04
1.173171000000e-02 1.415660581532e-06 -7.732377185861e-05 -4.940536620996e+06 -1.666586341003e+04 -5.002617335192e+06 -1.246086543375e+07 5.411454746129e-05 -3.587726662520e-06 4.744415915003e-05 -6.380911700210e-04 7.468006463313e+06 7.489537057545e+06  6.889227705747e-04
1.189838000000e-02 1.525836187029e-06 -7.863154517267e-05 -4.940677649529e+06 -1.657167832102e+04 -5.004259735999e+06 -1.264048993526e+07 5.790901773039e-05 -3.572756793156e-06 5.111392929072e-05 -6.492934758934e-04 7.528475773597e+06 7.668272663922e+06  7.038567542469e-04
1.206505000000e-02 1.637939635651e-06 -7.996212968649e-05 -4.940820600896e+06 -1.647826009653e+04 -5.005902418883e+06 -1.282011494457e+07 6.176975287299e-05 -3.557646249380e-06 5.484792355302e-05 -6.606913922347e-04 7.588945988117e+06 7.847007760678e+06  7.190516224272e-04
1.223172000000e-02 1.752005171930e-06 -8.131592805016e-05 -4.940965444655e+06 -1.638557114322e+04 -5.007545413600e+06 -1.299974054709e+07 6.569793272906e-05 -3.542388316677e-06 5.864728277497e-05 -6.722883909471e-04 7.649417135115e+06 8.025742427257e+06  7.345120066436e-04
1.239839000000e-02 1.868067611783e-06 -8.269334977862e-05 -4.941112148334e+06 -1.629358149328e+04 -5.009188739929e+06 -1.317936680588e+07 6.969475626575e-05 -3.526977311750e-06 6.251316683211e-05 -6.840880003011e-04 7.709889231380e+06 8.204476727340e+06  7.502426139265e-04
1.256506000000e-02 1.986162361354e-06 -8.409481143666e-05 -4.941260678159e+06 -1.620226718180e+04 -5.010832409548e+06 -1.335899376694e+07 7.376144228673e-05 -3.511408375706e-06 6.644675526619e-05 -6.960938070083e-04 7.770362284882e+06 8.383210712775e+06  7.662482295444e-04
1.273173000000e-02 2.106325433788e-06 -8.552073680900e-05 -4.941410999400e+06 -1.611160899571e+04 -5.012476427527e+06 -1.353862146287e+07 7.789923007761e-05 -3.495677313366e-06 7.044924784392e-05 -7.083094580674e-04 7.830836296598e+06 8.561944426226e+06  7.825337194466e-04
1.289840000000e-02 2.228593465252e-06 -8.697155706908e-05 -4.941563076772e+06 -1.602159156723e+04 -5.014120793475e+06 -1.371824991583e+07 8.210937999482e-05 -3.479780479328e-06 7.452186509139e-05 -7.207386624807e-04 7.891311262025e+06 8.740677903348e+06  7.991040325379e-04
1.306507000000e-02 2.353003730132e-06 -8.844771093737e-05 -4.941716874671e+06 -1.593220262736e+04 -5.015765502384e+06 -1.389787913968e+07 8.639317401878e-05 -3.463714682049e-06 7.866584880022e-05 -7.333851928579e-04 7.951787172243e+06 8.919411174305e+06  8.159642028081e-04
1.323174000000e-02 2.479594155120e-06 -8.994964483781e-05 -4.941872357365e+06 -1.584343244516e+04 -5.017410545617e+06 -1.407750914163e+07 9.075191628948e-05 -3.447477113156e-06 8.288246249669e-05 -7.462528869461e-04 8.012264014872e+06 9.098144264839e+06  8.331193513623e-04
1.339841000000e-02 2.608403333764e-06 -9.147781305593e-05 -4.942029489129e+06 -1.575527338624e+04 -5.019055911335e+06 -1.425713992356e+07 9.518693361506e-05 -3.431065292230e-06 8.717299192683e-05 -7.593456491160e-04 8.072741774676e+06 9.276877197210e+06  8.505746884012e-04
1.356508000000e-02 2.739470540351e-06 -9.303267789310e-05 -4.942188234383e+06 -1.566771953184e+04 -5.020701585089e+06 -1.443677148304e+07 9.969957597551e-05 -3.414477017560e-06 9.153874551867e-05 -7.726674518176e-04 8.133220434170e+06 9.455609990888e+06  8.683355151578e-04
1.373175000000e-02 2.872835743768e-06 -9.461470982250e-05 -4.942348557752e+06 -1.558076640861e+04 -5.022347550239e+06 -1.461640381411e+07 1.042912170174e-04 -3.397710333662e-06 9.598105484398e-05 -7.862223370104e-04 8.193699974035e+06 9.634342663048e+06  8.864072258039e-04
1.389842000000e-02 3.008539621471e-06 -9.622438764679e-05 -4.942510424145e+06 -1.549441074242e+04 -5.023993788273e+06 -1.479603690799e+07 1.089632545440e-04 -3.380763500018e-06 1.005012750838e-04 -8.000144175891e-04 8.254180373469e+06 9.813075229015e+06  9.047953093529e-04
1.406509000000e-02 3.146623573334e-06 -9.786219865497e-05 -4.942673798813e+06 -1.540865026844e+04 -5.025640279135e+06 -1.497567075354e+07 1.137171110062e-04 -3.363634967975e-06 1.051007854895e-04 -8.140478788045e-04 8.314661610494e+06 9.991807702585e+06  9.235053515542e-04
1.423176000000e-02 3.287129735598e-06 -9.952863878418e-05 -4.942838647370e+06 -1.532348356467e+04 -5.027287001495e+06 -1.515530533773e+07 1.185542339944e-04 -3.346323359886e-06 1.097809898479e-04 -8.283269796882e-04 8.375143662197e+06 1.017054009628e+07  9.425430367960e-04
1.439843000000e-02 3.430100995350e-06 -1.012242127785e-04 -4.943004935853e+06 -1.523890992923e+04 -5.028933932818e+06 -1.533494064597e+07 1.234760967265e-04 -3.328827455230e-06 1.145433169633e-04 -8.428560544874e-04 8.435626504882e+06 1.034927242162e+07  9.619141500237e-04
1.456510000000e-02 3.575581004325e-06 -1.029494343570e-04 -4.943172630725e+06 -1.515492925948e+04 -5.030581049746e+06 -1.551457666244e+07 1.284841985523e-04 -3.311146175375e-06 1.193892211174e-04 -8.576395141051e-04 8.496110114304e+06 1.052800468920e+07  9.816245786614e-04
1.473177000000e-02 3.723614193907e-06 -1.047048263764e-04 -4.943341698898e+06 -1.507154196300e+04 -5.032228328026e+06 -1.569421337026e+07 1.335800654480e-04 -3.293278573654e-06 1.243201825691e-04 -8.726818475643e-04 8.556594465729e+06 1.070673690898e+07  1.001680314572e-03
1.489844000000e-02 3.874245789391e-06 -1.064909210021e-04 -4.943512107755e+06 -1.498874888005e+04 -5.033875742809e+06 -1.587385075175e+07 1.387652505285e-04 -3.275223826659e-06 1.293377080298e-04 -8.879876234785e-04 8.617079534105e+06 1.088546909024e+07  1.022087456022e-03
1.506511000000e-02 4.027521825123e-06 -1.083082598813e-04 -4.943683825151e+06 -1.490655121191e+04 -5.035523268661e+06 -1.605348878857e+07 1.440413345595e-04 -3.256981225815e-06 1.344433311676e-04 -9.035614915503e-04 8.677565294127e+06 1.106420124180e+07  1.042852209685e-03
1.523178000000e-02 4.183489159598e-06 -1.101573943136e-04 -4.943856819427e+06 -1.482495046800e+04 -5.037170879660e+06 -1.623312746186e+07 1.494099264773e-04 -3.238550172206e-06 1.396386131105e-04 -9.194081840853e-04 8.738051720315e+06 1.124293337206e+07  1.063980892668e-03
1.539845000000e-02 4.342195490760e-06 -1.120388854332e-04 -4.944031059410e+06 -1.474394841621e+04 -5.038818549514e+06 -1.641276675237e+07 1.548726639191e-04 -3.219930171395e-06 1.449251429561e-04 -9.355325175306e-04 8.798538787098e+06 1.142166548907e+07  1.085479934571e-03
1.556512000000e-02 4.503689371696e-06 -1.139533043869e-04 -4.944206514420e+06 -1.466354703738e+04 -5.040466251591e+06 -1.659240664056e+07 1.604312137589e-04 -3.201120828467e-06 1.503045382948e-04 -9.519393940365e-04 8.859026468858e+06 1.160039760059e+07  1.107355879573e-03
1.573179000000e-02 4.668020226537e-06 -1.159012325181e-04 -4.944383154269e+06 -1.458374849762e+04 -5.042113958987e+06 -1.677204710668e+07 1.660872726522e-04 -3.182121846816e-06 1.557784457392e-04 -9.686338030439e-04 8.919514739979e+06 1.177912971414e+07  1.129615388562e-03
1.589846000000e-02 4.835238366596e-06 -1.178832615559e-04 -4.944560949263e+06 -1.450455510910e+04 -5.043761644585e+06 -1.695168813084e+07 1.718425675914e-04 -3.162933023557e-06 1.613485414618e-04 -9.856208228965e-04 8.980003574897e+06 1.195786183704e+07  1.152265241286e-03
1.606513000000e-02 5.005395006900e-06 -1.198999938035e-04 -4.944739870197e+06 -1.442596930580e+04 -5.045409281072e+06 -1.713132969308e+07 1.776988564676e-04 -3.143554248197e-06 1.670165317467e-04 -1.002905622482e-03 9.040492948118e+06 1.213659397645e+07  1.175312338558e-03
1.623180000000e-02 5.178542282911e-06 -1.219520423333e-04 -4.944919888354e+06 -1.434799362261e+04 -5.047056840992e+06 -1.731097177342e+07 1.836579286453e-04 -3.123985501757e-06 1.727841535455e-04 -1.020493462899e-03 9.100982834256e+06 1.231532613942e+07  1.198763704481e-03