 TITLE = "Time curves in points"
 VARIABLES = "TIME "  "DISPLACEMENT_X1"  "DISPLACEMENT_Y1"  "STRESS_XX"  "STRESS_XY"  "STRESS_YY"  "STRESS_ZZ"  "STRAIN_XX"  "STRAIN_XY"  "STRAIN_YY"  "STRAIN_ZZ"  p_(1st_Invariant)  q_(2nd_Invariant)   Effective_Strain
 ZONE T="POINT=POINT1"
0.000000000000e+00 0.000000000000e+00 0.000000000000e+00 0.000000000000e+00 0.000000000000e+00 0.000000000000e+00 0.000000000000e+00 0.000000000000e+00 0.000000000000e+00 0.000000000000e+00 0.000000000000e+00 -0.000000000000e+00 0.000000000000e+00  0.000000000000e+00
2.314800000000e-05 -4.661214948866e-07 0.000000000000e+00 -4.879245910277e+05 1.349143094508e-06 -4.879245909134e+05 -5.749149180095e-04 -1.553738317018e-05 1.828190738263e-16 -1.553738316288e-05 1.565420557812e-05 3.252830608387e+05 4.879245903956e+05  3.119158874465e-05
4.629600000000e-05 -9.936850761317e-07 0.000000000000e+00 -9.864775867519e+05 -7.740229673577e+01 -9.887407688464e+05 5.618409845922e+03 -3.296726989963e-05 -1.536291852372e-08 -3.311821430192e-05 3.348660061664e-05 6.565333152508e+05 9.932295305353e+05  6.652947646441e-05
6.944400000000e-05 -1.573463193973e-06 0.000000000000e+00 -1.484086056664e+06 1.235565912214e+02 -1.489406648285e+06 1.255357121745e+04 -5.205883738867e-05 1.057076252873e-08 -5.243721827689e-05 5.310067372890e-05 9.869797112440e+05 1.499307019427e+06  1.053492127879e-04
9.259200000000e-05 -2.210226211548e-06 0.000000000000e+00 -1.981496250185e+06 3.942078078833e+02 -1.990326978828e+06 1.980528128081e+04 -7.298876573215e-05 5.095808427944e-08 -7.365484872029e-05 7.463615916142e-05 1.317339315911e+06 2.005731591857e+06  1.479591171833e-04
1.157400000000e-04 -2.909652607570e-06 0.000000000000e+00 -2.478801176546e+06 7.194041964455e+02 -2.491589789963e+06 2.732583471750e+04 -9.593742705343e-05 1.055250255321e-07 -9.696040310786e-05 9.828217347074e-05 1.647688377264e+06 2.512546036865e+06  1.947331895569e-04
1.388880000000e-04 -3.677939614329e-06 0.000000000000e+00 -2.976024338034e+06 1.093490505524e+03 -2.993222400929e+06 3.511650320774e+04 -1.211002830455e-04 1.754851588634e-07 -1.225603804720e-04 1.242465238958e-04 1.978043411918e+06 3.019777196400e+06  2.460802921554e-04
1.620360000000e-04 -4.521876183010e-06 0.000000000000e+00 -3.473176115181e+06 1.512213859158e+03 -3.495239244321e+06 4.318068840200e+04 -1.486909286499e-04 2.623628704129e-07 -1.506809871467e-04 1.527568351586e-04 2.308411557033e+06 3.527441090423e+06  3.024480448349e-04
1.851840000000e-04 -5.448912464848e-06 0.000000000000e+00 -3.970262714149e+06 1.971901428881e+03 -3.997650895432e+06 5.152185083212e+04 -1.789432094706e-04 3.678860244684e-07 -1.815704573899e-04 1.840627826020e-04 2.638797252916e+06 4.035549805110e+06  3.643272779658e-04
2.083320000000e-04 -6.467228392835e-06 0.000000000000e+00 -4.467288587080e+06 2.469240373103e+03 -4.500466414407e+06 6.014334508009e+04 -2.121132863729e-04 4.939689038436e-07 -2.155013392362e-04 2.184383648638e-04 2.969203885469e+06 4.544113699600e+06  4.322564829537e-04
2.314800000000e-04 -7.585806717646e-06 0.000000000000e+00 -4.964257292074e+06 3.001186013072e+03 -5.003694132232e+06 6.904837544096e+04 -2.484818196969e-04 6.427146154105e-07 -2.527729280435e-04 2.561843250910e-04 3.299634349622e+06 5.053142180805e+06  5.068265459289e-04
3.981500000000e-04 -7.410128942969e-06 0.000000000000e+00 -4.973373779627e+06 3.054071538129e+03 -5.015242026735e+06 -1.060235179548e+05 -2.422294535763e-04 6.634820144530e-07 -2.469023346767e-04 2.364962553811e-04 3.364879774772e+06 4.888421721322e+06  4.810805433369e-04
5.648200000000e-04 -7.198334561851e-06 0.000000000000e+00 -4.973309900540e+06 2.988578438530e+03 -5.014784781032e+06 -2.875137001558e+05 -2.352308451141e-04 6.431806229316e-07 -2.398433558034e-04 2.155493150797e-04 3.425202793909e+06 4.706673541841e+06  4.531053932923e-04
7.314900000000e-04 -6.990565076815e-06 0.000000000000e+00 -4.973293831148e+06 2.923688981351e+03 -5.014397515051e+06 -4.688413117596e+05 -2.283617093209e-04 6.234567109047e-07 -2.329182348779e-04 1.949862770387e-04 3.485510885986e+06 4.525147207400e+06  4.256459109330e-04
8.981600000000e-04 -6.786336603990e-06 0.000000000000e+00 -4.973279210727e+06 2.857442807232e+03 -5.014012792831e+06 -6.502044705963e+05 -2.216094833390e-04 6.036670402889e-07 -2.261111520361e-04 1.747733827441e-04 3.545832158051e+06 4.343587601082e+06  3.986541347175e-04
1.064830000000e-03 -6.585593406954e-06 0.000000000000e+00 -4.973266280661e+06 2.789938607212e+03 -5.013631045489e+06 -8.316008896859e+05 -2.149722991447e-04 5.838490828973e-07 -2.194202447294e-04 1.549050247905e-04 3.606166071945e+06 4.161997384167e+06  3.721226085990e-04
1.231500000000e-03 -6.388276107182e-06 0.000000000000e+00 -4.973255061437e+06 2.721154337434e+03 -5.013252289371e+06 -1.013031200028e+06 -2.084482005796e-04 5.640033843508e-07 -2.128435336659e-04 1.353753369365e-04 3.666512850279e+06 3.980375987418e+06  3.460435191891e-04
1.398170000000e-03 -6.194326381315e-06 0.000000000000e+00 -4.973245575821e+06 2.651070019206e+03 -5.012876543719e+06 -1.194496006965e+06 -2.020352660394e-04 5.441311804530e-07 -2.063790746575e-04 1.161785565545e-04 3.726872708835e+06 3.798722878168e+06  3.204091973466e-04
1.564840000000e-03 -6.003686894301e-06 0.000000000000e+00 -4.973237847030e+06 2.579665295647e+03 -5.012503827955e+06 -1.375995926146e+06 -1.957316064492e-04 5.242336678029e-07 -2.000249564627e-04 9.730901871482e-05 3.787245867044e+06 3.617037524175e+06  2.952121123628e-04
1.731510000000e-03 -5.816301282534e-06 0.000000000000e+00 -4.973231898783e+06 2.506919461618e+03 -5.012134161761e+06 -1.557531584110e+06 -1.895353647030e-04 5.043120149867e-07 -1.937793002235e-04 7.876115449806e-05 3.847632548218e+06 3.435319395857e+06  2.704448729848e-04
1.898180000000e-03 -5.632114137850e-06 0.000000000000e+00 -4.973227755312e+06 2.432811454514e+03 -5.011767565024e+06 -1.739103617903e+06 -1.834447151464e-04 4.843673623488e-07 -1.876402589319e-04 6.052948942886e-05 3.908032979413e+06 3.253567970346e+06  2.461002303510e-04
2.064850000000e-03 -5.451070991297e-06 0.000000000000e+00 -4.973225441402e+06 2.357319842826e+03 -5.011404057861e+06 -1.920712675398e+06 -1.774578630427e-04 4.644008212654e-07 -1.816060168888e-04 4.260864186583e-05 3.968447391554e+06 3.071782736192e+06  2.221710838208e-04
2.231520000000e-03 -5.273118297448e-06 0.000000000000e+00 -4.973224982407e+06 2.280422815595e+03 -5.011043660593e+06 -2.102359415191e+06 -1.715730440622e-04 4.444134737777e-07 -1.756747891811e-04 2.499332145771e-05 4.028876019397e+06 2.889963200359e+06  1.986504920886e-04
2.398190000000e-03 -5.098203418413e-06 0.000000000000e+00 -4.973226404284e+06 2.202098172701e+03 -5.010686393720e+06 -2.284044507050e+06 -1.657885237612e-04 4.244063725435e-07 -1.698448211487e-04 7.678327570582e-06 4.089319101685e+06 2.708108897440e+06  1.755316938836e-04
2.564860000000e-03 -4.926274608879e-06 0.000000000000e+00 -4.973229733635e+06 2.122323307125e+03 -5.010332277994e+06 -2.465768631890e+06 -1.601025970847e-04 4.043805388614e-07 -1.641143878858e-04 -9.341452208797e-06 4.149776881173e+06 2.526219403593e+06  1.528081477368e-04
2.731530000000e-03 -4.757281000492e-06 0.000000000000e+00 -4.973234997728e+06 2.041075198845e+03 -5.009981334233e+06 -2.647532481903e+06 -1.545135878765e-04 3.843369637960e-07 -1.584817937203e-04 -2.607104356976e-05 4.210249604622e+06 2.344294356642e+06  1.304736120647e-04
2.898200000000e-03 -4.591172587932e-06 0.000000000000e+00 -4.973242224556e+06 1.958330393568e+03 -5.009633583526e+06 -2.829336760294e+06 -1.490198484011e-04 3.642766056331e-07 -1.529453717494e-04 -4.251538690190e-05 4.270737522792e+06 2.162333487050e+06  1.085223198031e-04
3.064870000000e-03 -4.427900213255e-06 0.000000000000e+00 -4.973251442868e+06 1.874064991635e+03 -5.009289047025e+06 -3.011182181935e+06 -1.436197588542e-04 3.442003900477e-07 -1.475034833178e-04 -5.867933879403e-05 4.331240890610e+06 1.980336664641e+06  8.694940416572e-05
3.231540000000e-03 -4.267415551947e-06 0.000000000000e+00 -4.973262682242e+06 1.788254623470e+03 -5.008947746055e+06 -3.193069473325e+06 -1.383117268966e-04 3.241092072116e-07 -1.421545175531e-04 -7.456767343438e-05 4.391759967208e+06 1.798303975049e+06  6.575212228674e-05
3.398210000000e-03 -4.109671099146e-06 0.000000000000e+00 -4.973275973117e+06 1.700874442332e+03 -5.008609701990e+06 -3.374999371923e+06 -1.330941872167e-04 3.040039132340e-07 -1.368968909057e-04 -9.018508394425e-05 4.452295015677e+06 1.616235848301e+06  4.493439172210e-05
3.564880000000e-03 -3.954620154949e-06 0.000000000000e+00 -4.973291346880e+06 1.611899091623e+03 -5.008274936292e+06 -3.556972627204e+06 -1.279656010487e-04 2.838853258542e-07 -1.317290466596e-04 -1.055361838352e-04 4.512846303459e+06 1.434133283365e+06  2.453356769420e-05
3.731550000000e-03 -3.802216811423e-06 0.000000000000e+00 -4.973308835937e+06 1.521302686711e+03 -5.007943470466e+06 -3.738989999778e+06 -1.229244557543e-04 2.637542238908e-07 -1.266494544993e-04 -1.206255082804e-04 4.573414102060e+06 1.251998271594e+06  5.285172699661e-06
3.898220000000e-03 -3.652415938735e-06 0.000000000000e+00 -4.973328473801e+06 1.429058785862e+03 -5.007615326034e+06 -3.921052261760e+06 -1.179692643766e-04 2.436113446043e-07 -1.216566100475e-04 -1.354575154740e-04 4.633998687199e+06 1.069834650907e+06  1.597273480114e-05
4.064890000000e-03 -3.505173171776e-06 0.000000000000e+00 -4.973350295185e+06 1.335140363736e+03 -5.007290524476e+06 -4.103160196683e+06 -1.130985652142e-04 2.234573822687e-07 -1.167490344186e-04 -1.500365879330e-04 4.694600338781e+06 8.876500132168e+05  3.525694446471e-05
4.231560000000e-03 -3.360444897516e-06 0.000000000000e+00 -4.973374336128e+06 1.239519770252e+03 -5.006969087324e+06 -4.285314599096e+06 -1.083109214093e-04 2.032929847325e-07 -1.119252737984e-04 -1.643670337525e-04 4.755219340850e+06 7.054605686603e+05  5.434030469885e-05
4.398230000000e-03 -3.218188241864e-06 0.000000000000e+00 -4.973400634137e+06 1.142168680189e+03 -5.006651036173e+06 -4.467516274530e+06 -1.036049205386e-04 1.831187509747e-07 -1.071838990052e-04 -1.784530878758e-04 4.815855981613e+06 5.233061690057e+05  7.312508365032e-05
4.564900000000e-03 -3.078361057443e-06 0.000000000000e+00 -4.973429228373e+06 1.043057996031e+03 -5.006336393100e+06 -4.649766039248e+06 -9.897917422053e-05 1.629352288701e-07 -1.025235050837e-04 -1.922989133195e-04 4.876510553574e+06 3.413134091645e+05  9.159945195803e-05
4.731570000000e-03 -2.940921913670e-06 0.000000000000e+00 -4.973460160277e+06 9.421573642903e+02 -5.006025182479e+06 -4.832064719370e+06 -9.443231778660e-05 1.427428865564e-07 -9.794271097682e-05 -2.059086022791e-04 4.937183354042e+06 1.601885140517e+05  1.097634748049e-04
4.898240000000e-03 -2.805830133579e-06 0.000000000000e+00 -4.973493478960e+06 8.394304691271e+02 -5.005717446218e+06 -5.014413119084e+06 -8.996301102972e-05 1.225418282730e-07 -9.344016073190e-05 -2.192861743144e-04 4.997874681421e+06 3.736738953534e+04  1.276202969077e-04
5.064910000000e-03 -2.673045876714e-06 0.000000000000e+00 -4.973529142434e+06 7.348784695711e+02 -5.005413121454e+06 -5.196812176467e+06 -8.556994741385e-05 1.023405549152e-07 -8.901452630986e-05 -2.324355632266e-04 5.058584813452e+06 2.091754526028e+05  1.451740867091e-04
5.231580000000e-03 -2.542529534381e-06 0.000000000000e+00 -4.973567374910e+06 6.284389538341e+02 -5.005112301712e+06 -5.379262724563e+06 -8.125181762937e-05 8.212522329528e-08 -8.466448735572e-05 -2.453606832458e-04 5.119314133728e+06 3.908802295273e+05  1.624294830525e-04
5.398250000000e-03 -2.414241912951e-06 0.000000000000e+00 -4.973608163342e+06 5.200663153362e+02 -5.004814953834e+06 -5.561765591042e+06 -7.700733102665e-05 6.189973582320e-08 -8.038873739128e-05 -2.580653850803e-04 5.180062902739e+06 5.731922271950e+05  1.793912859787e-04
5.564920000000e-03 -2.288144680660e-06 0.000000000000e+00 -4.973651559364e+06 4.097348212450e+02 -5.004521107152e+06 -5.744321640129e+06 -7.283522662937e-05 4.166544289436e-08 -7.618599864840e-05 -2.705534431610e-04 5.240831435548e+06 7.557086536007e+05  1.960643194515e-04
5.731590000000e-03 -2.164200162195e-06 0.000000000000e+00 -4.973697620917e+06 2.974100233317e+02 -5.004230780353e+06 -5.926931732381e+06 -6.873426479091e-05 2.142246901299e-08 -7.205501524552e-05 -2.828285672435e-04 5.301620044551e+06 9.383403227704e+05  2.124533957149e-04
5.898260000000e-03 -2.042371315041e-06 0.000000000000e+00 -4.973746411015e+06 1.830550850769e+02 -5.003943987330e+06 -6.109596728040e+06 -6.470322706061e-05 1.170682439291e-09 -6.799455239294e-05 -2.948944039393e-04 5.362429042129e+06 1.121056648969e+06  2.285632881449e-04
6.064930000000e-03 -1.922621716684e-06 0.000000000000e+00 -4.973797998229e+06 6.663132112649e+01 -5.003660737960e+06 -6.292317483550e+06 -6.074091592024e-05 -1.909023398586e-08 -6.400339596629e-05 -3.067545377822e-04 5.423258739913e+06 1.303844632421e+06  2.443987161968e-04
6.231600000000e-03 -1.804915551772e-06 0.000000000000e+00 -4.973852457727e+06 -5.190191272373e+01 -5.003381037841e+06 -6.475094847886e+06 -5.684615448868e-05 -3.936079754790e-08 -6.008035207858e-05 -3.184124923271e-04 5.484109447818e+06 1.486698053724e+06  2.599643370785e-04
6.398270000000e-03 -1.689217599759e-06 0.000000000000e+00 -4.973909872580e+06 -1.725874561575e+02 -5.003104887294e+06 -6.657929655862e+06 -5.301778627686e-05 -5.964175340551e-08 -5.622424666760e-05 -3.298717311306e-04 5.544981471912e+06 1.669613753650e+06  2.752647409904e-04
6.564940000000e-03 -1.575493221325e-06 0.000000000000e+00 -4.973970335525e+06 -2.954707029983e+02 -5.002832279974e+06 -6.840822720812e+06 -4.925467494363e-05 -7.993411796124e-08 -5.243392504257e-05 -3.411356587924e-04 5.605875112104e+06 1.852590109107e+06  2.903044486144e-04
6.731610000000e-03 -1.463708344272e-06 0.000000000000e+00 -4.974033951273e+06 -4.206000724464e+02 -5.002563200919e+06 -7.023774824289e+06 -4.555570409770e-05 -1.002392359160e-07 -4.870825141280e-05 -3.522076219543e-04 5.666790658827e+06 2.035626322839e+06  3.050879098606e-04
6.898280000000e-03 -1.353829449089e-06 0.000000000000e+00 -4.974100839604e+06 -5.480276237453e+02 -5.002297623935e+06 -7.206786700835e+06 -4.191977717582e-05 -1.205588549416e-07 -4.504610840511e-05 -3.630909102046e-04 5.727728388124e+06 2.218722053995e+06  3.196195033132e-04
7.064950000000e-03 -1.245823552138e-06 0.000000000000e+00 -4.974171139554e+06 -6.778098615643e+02 -5.002035507928e+06 -7.389859018297e+06 -3.834581737346e-05 -1.408952237793e-07 -4.144639650106e-05 -3.737887570259e-04 5.788688555260e+06 2.401877205829e+06  3.339035362658e-04
7.231620000000e-03 -1.139658186731e-06 0.000000000000e+00 -4.974245015241e+06 -8.100088075357e+02 -5.001776791653e+06 -7.572992348942e+06 -3.483276770349e-05 -1.612512232126e-07 -3.790803340314e-05 -3.843043406567e-04 5.849671385279e+06 2.585091785785e+06  3.479442449964e-04
7.398290000000e-03 -1.035301380850e-06 0.000000000000e+00 -4.974322664132e+06 -9.446934473588e+02 -5.001521386212e+06 -7.756187126947e+06 -3.137959123013e-05 -1.816305435130e-07 -3.442995328748e-05 -3.946407848682e-04 5.910677059097e+06 2.768365795719e+06  3.617457951642e-04
7.564960000000e-03 -9.327216290487e-07 0.000000000000e+00 -4.974404329088e+06 -1.081941712852e+03 -5.001269164016e+06 -7.939443584932e+06 -2.798527155803e-05 -2.020379281061e-07 -3.101110586035e-05 -4.048011596601e-04 5.971705692679e+06 2.951699125874e+06  3.753122822630e-04
7.731630000000e-03 -8.318878555864e-07 0.000000000000e+00 -4.974490316481e+06 -1.221843235740e+03 -5.001019941667e+06 -8.122761653419e+06 -2.464881377780e-05 -2.224795129121e-07 -2.765045511832e-05 -4.147884817151e-04 6.032757303856e+06 3.135091426441e+06  3.886477318659e-04
7.898300000000e-03 -7.327693620881e-07 0.000000000000e+00 -4.974581024441e+06 -1.364503233152e+03 -5.000773453045e+06 -8.306140798341e+06 -2.136924611702e-05 -2.429633065777e-07 -2.434697758589e-05 -4.246057145918e-04 6.093831758609e+06 3.318541925978e+06  4.017560995985e-04
8.064970000000e-03 -6.353357486774e-07 0.000000000000e+00 -4.974676988818e+06 -1.510048012440e+03 -5.000529304352e+06 -8.489579740742e+06 -1.814562290560e-05 -2.634998730491e-07 -2.109965965598e-05 -4.342557682835e-04 6.154928677971e+06 3.502049137779e+06  4.146412703222e-04
8.231640000000e-03 -5.395567870015e-07 0.000000000000e+00 -4.974778962024e+06 -1.658632688208e+03 -5.000286895165e+06 -8.673075940103e+06 -1.497703004242e-05 -2.841032936662e-07 -1.790749330139e-05 -4.437414974408e-04 6.216047265764e+06 3.685610333969e+06  4.273070555747e-04
8.398310000000e-03 -4.454021950048e-07 0.000000000000e+00 -4.974888057173e+06 -1.810451228160e+03 -5.000045269145e+06 -8.856624563693e+06 -1.186259551871e-05 -3.047924336145e-07 -1.476946845647e-05 -4.530656968615e-04 6.277185963337e+06 3.869220510187e+06  4.397571874168e-04
8.564980000000e-03 -3.528412016473e-07 0.000000000000e+00 -4.975006033478e+06 -1.965745430586e+03 -4.999802803781e+06 -9.040216172820e+06 -8.801511507378e-06 -3.255921263728e-07 -1.168455826469e-05 -4.622310897570e-04 6.338341670026e+06 4.052870077764e+06  4.519953027917e-04
8.731650000000e-03 -2.618415912219e-07 0.000000000000e+00 -4.975135920024e+06 -2.124789104767e+03 -4.999556475047e+06 -9.223830627959e+06 -5.793086062081e-06 -3.465314701624e-07 -8.651686611009e-06 -4.712402955798e-04 6.399507674343e+06 4.236538816775e+06  4.640249013237e-04
8.898320000000e-03 -1.723672276342e-07 0.000000000000e+00 -4.975283535030e+06 -2.287693023831e+03 -4.999299739949e+06 -9.407416348293e+06 -2.836884644584e-06 -3.676207692931e-07 -5.669643724599e-06 -4.800957261452e-04 6.460666541091e+06 4.420175419964e+06  4.758492118653e-04
9.064990000000e-03 -8.436978902790e-08 0.000000000000e+00 -4.975460913483e+06 -2.452707218436e+03 -4.999014097423e+06 -9.590773902393e+06 6.680635315110e-08 -3.886485069504e-07 -2.736803044874e-06 -4.887991596131e-04 6.521749637766e+06 4.603583546502e+06  4.874706727919e-04
9.231660000000e-03 2.250051182959e-09 0.000000000000e+00 -4.975647809003e+06 -2.596483488674e+03 -4.998619749399e+06 -9.772029961044e+06 2.917320099884e-06 -4.068151654286e-07 1.502129384220e-07 -4.973514658651e-04 6.582099173148e+06 4.784939652570e+06  4.988914854438e-04
9.398330000000e-03 8.787853774786e-08 0.000000000000e+00 -4.975835050423e+06 -2.724761944794e+03 -4.998375620614e+06 -9.949064552572e+06 5.744552066836e-06 -4.232026779675e-07 3.004853687136e-06 -5.058251738864e-04 6.641091741203e+06 4.961999859197e+06  5.102059202041e-04
9.565000000000e-03 1.739189260553e-07 0.000000000000e+00 -4.975839622594e+06 -2.582725533842e+03 -4.998124690644e+06 -1.012391761936e+07 8.597291971144e-06 -4.049103089583e-07 5.873923683556e-06 -5.143521053724e-04 6.699293977531e+06 5.136973664321e+06  5.215935169931e-04
9.731670000000e-03 2.613964291470e-07 0.000000000000e+00 -4.975806033372e+06 -2.447486933849e+03 -4.998229336293e+06 -1.029980436104e+07 1.152309709569e-05 -3.870845955090e-07 8.790375430344e-06 -5.230685681137e-04 6.757946576901e+06 5.312823857500e+06  5.332309776794e-04
9.898340000000e-03 3.504504045610e-07 0.000000000000e+00 -4.975761220915e+06 -2.316562918335e+03 -4.998346876129e+06 -1.047593187990e+07 1.450318278055e-05 -3.695560546992e-07 1.175934261820e-05 -5.319442143534e-04 6.816679992314e+06 5.488914148631e+06  5.450810324103e-04
1.006501000000e-02 4.410489869454e-07 0.000000000000e+00 -4.975708996114e+06 -2.182807039840e+03 -4.998473694734e+06 -1.065216169478e+07 1.753607925939e-05 -3.513535460039e-07 1.477979740872e-05 -5.409753083434e-04 6.875448128543e+06 5.665105915225e+06  5.571386925340e-04
1.023168000000e-02 5.332160901325e-07 0.000000000000e+00 -4.975652570335e+06 -2.048032367898e+03 -4.998610224684e+06 -1.082847937415e+07 2.062243394049e-05 -3.327049402416e-07 1.785253704191e-05 -5.501641216023e-04 6.934247389723e+06 5.841382889173e+06  5.694069515601e-04
1.039835000000e-02 6.269824014835e-07 0.000000000000e+00 -4.975594078444e+06 -1.913401575523e+03 -4.998754766684e+06 -1.100487906871e+07 2.376303714990e-05 -3.137620031941e-07 2.097858534021e-05 -5.595133722507e-04 6.993075971278e+06 6.017738986084e+06  5.818894338457e-04
1.056502000000e-02 7.223785261232e-07 0.000000000000e+00 -4.975534812172e+06 -1.779571354800e+03 -4.998906068213e+06 -1.118135694073e+07 2.695875558638e-05 -2.946129128143e-07 2.415896298504e-05 -5.690258741631e-04 7.051932607038e+06 6.194170335857e+06  5.945898962896e-04
1.073169000000e-02 8.194348325379e-07 0.000000000000e+00 -4.975475596580e+06 -1.646932550989e+03 -4.999063285921e+06 -1.135791005002e+07 3.021050306880e-05 -2.753122063250e-07 2.739468256329e-05 -5.787044972223e-04 7.110816310840e+06 6.370673997904e+06  6.075121714593e-04
1.089836000000e-02 9.181817025033e-07 0.000000000000e+00 -4.975416984186e+06 -1.515729075052e+03 -4.999225838282e+06 -1.153453598536e+07 3.351922769431e-05 -2.558957735626e-07 3.068675699560e-05 -5.885521623299e-04 7.169726269276e+06 6.547247568108e+06  6.206601603455e-04
1.106503000000e-02 1.018649715729e-06 0.000000000000e+00 -4.975359359119e+06 -1.386118278970e+03 -4.999393309011e+06 -1.171123268132e+07 3.688590540320e-05 -2.363884945214e-07 3.403620573825e-05 -5.985718413178e-04 7.228661783151e+06 6.723888991172e+06  6.340378321256e-04
1.123170000000e-02 1.120869770177e-06 0.000000000000e+00 -4.975302996230e+06 -1.258203650325e+03 -4.999565389107e+06 -1.188799831540e+07 4.031153661494e-05 -2.168083821224e-07 3.744405881781e-05 -6.087665579810e-04 7.287622233580e+06 6.900596456756e+06  6.476492255118e-04
1.139837000000e-02 1.224873159194e-06 0.000000000000e+00 -4.975248096490e+06 -1.132053603246e+03 -4.999741841655e+06 -1.206483124145e+07 4.379714434198e-05 -1.971689658048e-07 4.091135941563e-05 -6.191393891143e-04 7.346607059865e+06 7.077368332552e+06  6.614984501245e-04
1.156504000000e-02 1.330691624743e-06 0.000000000000e+00 -4.975194809211e+06 -1.007712841056e+03 -4.999922479743e+06 -1.224172994681e+07 4.734377316497e-05 -1.774807340018e-07 4.443916565005e-05 -6.296934656338e-04 7.405615745255e+06 7.254203121179e+06  6.755896879849e-04
1.173171000000e-02 1.438357396011e-06 0.000000000000e+00 -4.975143246531e+06 -8.852095307520e+02 -5.000107151940e+06 -1.241869302269e+07 5.095248868133e-05 -1.577520455457e-07 4.802855186810e-05 -6.404319736654e-04 7.464647807054e+06 7.431099430434e+06  6.899271949681e-04
1.189838000000e-02 1.547903218595e-06 0.000000000000e+00 -4.975093493215e+06 -7.645600112125e+02 -5.000295732843e+06 -1.259571914360e+07 5.462437726277e-05 -1.379897284712e-07 5.168060962179e-05 -6.513581556376e-04 7.523702789886e+06 7.608055952481e+06  7.045153022585e-04
1.206505000000e-02 1.659362378448e-06 0.000000000000e+00 -4.975045613422e+06 -6.457719658107e+02 -5.000488116237e+06 -1.277280705215e+07 5.836054598721e-05 -1.181994834834e-07 5.539644846822e-05 -6.624753113558e-04 7.582780260604e+06 7.785071448613e+06  7.193584177881e-04
1.223172000000e-02 1.772768720812e-06 0.000000000000e+00 -4.974999655576e+06 -5.288466530871e+02 -5.000684210902e+06 -1.294995554771e+07 6.216212270540e-05 -9.838616894962e-08 5.917719660239e-05 -6.737867990578e-04 7.641879804730e+06 7.962144737511e+06  7.344610276391e-04
1.239839000000e-02 1.888156668735e-06 0.000000000000e+00 -4.974955655844e+06 -4.137804583008e+02 -5.000883936730e+06 -1.312716347802e+07 6.603025618250e-05 -7.855399802820e-08 6.302400147548e-05 -6.852960365154e-04 7.701001023533e+06 8.139274687045e+06  7.498276975244e-04
1.256506000000e-02 2.005561238327e-06 0.000000000000e+00 -4.974913640766e+06 -3.005660585929e+02 -5.001087222673e+06 -1.330442973291e+07 6.996611631831e-05 -5.870668854665e-08 6.693803030403e-05 -6.970065021317e-04 7.760143532117e+06 8.316460207629e+06  7.654630742479e-04
1.273173000000e-02 2.125018053636e-06 0.000000000000e+00 -4.974873629210e+06 -1.891932563864e+02 -5.001294004762e+06 -1.348175323883e+07 7.397089439253e-05 -3.884756927273e-08 7.092047056657e-05 -7.089217360311e-04 7.819306957600e+06 8.493700246778e+06  7.813718871649e-04
1.289840000000e-02 2.246563361246e-06 0.000000000000e+00 -4.974835633876e+06 -7.964962496268e+01 -5.001504224723e+06 -1.365913295551e+07 7.804580336931e-05 -1.897966332211e-08 7.497253049048e-05 -7.210453412300e-04 7.878490938035e+06 8.670993785674e+06  7.975589497470e-04
1.306507000000e-02 2.370234043422e-06 0.000000000000e+00 -4.974799662461e+06 2.807900781568e+01 -5.001717829005e+06 -1.383656787218e+07 8.219207820405e-05 8.942494869489e-10 7.909543949065e-05 -7.333809847414e-04 7.937695121215e+06 8.848339835262e+06  8.140291610597e-04
1.323174000000e-02 2.496067631993e-06 0.000000000000e+00 -4.974765718572e+06 1.340081830884e+02 -5.001934767796e+06 -1.401405700512e+07 8.641097618363e-05 2.077158378178e-08 8.329044863239e-05 -7.459323987542e-04 7.996919163830e+06 9.025737433822e+06  8.307875073422e-04
1.339841000000e-02 2.624102321362e-06 0.000000000000e+00 -4.974733802456e+06 2.381545166336e+02 -5.002154994586e+06 -1.419159939570e+07 9.070377729357e-05 4.064991019432e-08 8.755883106540e-05 -7.587033818253e-04 8.056162730914e+06 9.203185644851e+06  8.478390635995e-04
1.356508000000e-02 2.754376981921e-06 0.000000000000e+00 -4.974703911577e+06 3.405354631712e+02 -5.002378465490e+06 -1.436919410832e+07 9.507178458338e-05 6.052692418197e-08 9.190188247093e-05 -7.716978000714e-04 8.115425495128e+06 9.380683555053e+06  8.651889951999e-04
1.373175000000e-02 2.886931173212e-06 0.000000000000e+00 -4.974676041088e+06 4.411691348930e+02 -5.002605138942e+06 -1.454684022907e+07 9.951632456125e-05 8.040042218241e-08 9.632092150083e-05 -7.849195884028e-04 8.174707136367e+06 9.558230272901e+06  8.828425595263e-04
1.389842000000e-02 3.021805157485e-06 0.000000000000e+00 -4.974650184213e+06 5.400741503787e+02 -5.002834975277e+06 -1.472453686449e+07 1.040387475949e-04 1.002682812681e-07 1.008172902294e-04 -7.983727517775e-04 8.234007341327e+06 9.735824927387e+06  9.008051076547e-04
1.406509000000e-02 3.159039912871e-06 0.000000000000e+00 -4.974626332566e+06 6.372695124673e+02 -5.003067936536e+06 -1.490228314030e+07 1.086404283232e-04 1.201284424956e-07 1.053923545925e-04 -8.120613664589e-04 8.293325803133e+06 9.913466666711e+06  9.190820860386e-04
1.423176000000e-02 3.298677147338e-06 0.000000000000e+00 -4.974604476408e+06 7.327745098349e+02 -5.003303986203e+06 -1.508007820079e+07 1.133227660896e-04 1.399788973690e-07 1.100475048533e-04 -8.259895813377e-04 8.352662221134e+06 1.009115465766e+07  9.376790382788e-04
1.439843000000e-02 3.440759312002e-06 0.000000000000e+00 -4.974584604864e+06 8.266086374139e+02 -5.003543089015e+06 -1.525792120742e+07 1.180871853622e-04 1.598176767970e-07 1.147841560452e-04 -8.401616192045e-04 8.412016300432e+06 1.026888808416e+07  9.566016068285e-04
1.456510000000e-02 3.585329615529e-06 0.000000000000e+00 -4.974566706108e+06 9.187915261391e+02 -5.003785210876e+06 -1.543581133879e+07 1.229351362022e-04 1.796428408371e-07 1.196037484528e-04 -8.545817781501e-04 8.471387751924e+06 1.044666614725e+07  9.758555348669e-04
1.473177000000e-02 3.732432038049e-06 0.000000000000e+00 -4.974550767511e+06 1.009342890566e+03 -5.004030318612e+06 -1.561374778938e+07 1.278680947004e-04 1.994524712438e-07 1.245077480751e-04 -8.692544328848e-04 8.530776291835e+06 1.062448806381e+07  9.954466680694e-04
1.489844000000e-02 3.882111345444e-06 0.000000000000e+00 -4.974536775776e+06 1.098282480591e+03 -5.004278379981e+06 -1.579172976921e+07 1.328875634543e-04 2.192446640946e-07 1.294976471022e-04 -8.841840361479e-04 8.590181641654e+06 1.080235306617e+07  1.015380956493e-03
1.506511000000e-02 4.034413104443e-06 0.000000000000e+00 -4.974524717046e+06 1.185630042215e+03 -5.004529363500e+06 -1.596975650360e+07 1.379950720524e-04 2.390175236760e-07 1.345749644181e-04 -8.993751201569e-04 8.649603528048e+06 1.098026040190e+07  1.035664456518e-03
1.523178000000e-02 4.189383696654e-06 0.000000000000e+00 -4.974514576996e+06 1.271405286725e+03 -5.004783238441e+06 -1.614782723199e+07 1.431921775416e-04 2.587691576413e-07 1.397412460689e-04 -9.148322979869e-04 8.709041682474e+06 1.115820933257e+07  1.056303332698e-03
1.539845000000e-02 4.347070334560e-06 0.000000000000e+00 -4.974506340917e+06 1.355627862089e+03 -5.005039974685e+06 -1.632594120826e+07 1.484804649467e-04 2.784976721710e-07 1.449980657957e-04 -9.305602651149e-04 8.768495841288e+06 1.133619913413e+07  1.077303859826e-03
1.556512000000e-02 4.507521076322e-06 0.000000000000e+00 -4.974499993783e+06 1.438317330548e+03 -5.005299542717e+06 -1.650409769986e+07 1.538615477636e-04 2.982011680919e-07 1.503470255281e-04 -9.465638008731e-04 8.827965745452e+06 1.151422909593e+07  1.098672424886e-03
1.573179000000e-02 4.670784841529e-06 0.000000000000e+00 -4.974495520314e+06 1.519493147926e+03 -5.005561913573e+06 -1.668229598749e+07 1.593370684812e-04 3.178777370108e-07 1.557897559090e-04 -9.628477699881e-04 8.887451140459e+06 1.169229852053e+07  1.120415529110e-03
1.589846000000e-02 4.836911427457e-06 0.000000000000e+00 -4.974492905021e+06 1.599174650175e+03 -5.005827058739e+06 -1.686053536500e+07 1.649086991131e-04 3.375254588373e-07 1.613279168373e-04 -9.794171241556e-04 8.946951776252e+06 1.187040672345e+07  1.142539790093e-03
1.606513000000e-02 5.005951524785e-06 0.000000000000e+00 -4.974492132261e+06 1.677381034401e+03 -5.006094950242e+06 -1.703881513885e+07 1.705781417355e-04 3.571423976588e-07 1.669631979908e-04 -9.962769036083e-04 9.006467407118e+06 1.204855303272e+07  1.165051943892e-03
1.623180000000e-02 5.177956734453e-06 0.000000000000e+00 -4.974493186269e+06 1.754131351984e+03 -5.006365560464e+06 -1.721713462776e+07 1.763471290295e-04 3.767266003167e-07 1.726973193889e-04 -1.013432238728e-03 9.065997791497e+06 1.222673678848e+07  1.187958847189e-03
1.639847000000e-02 5.352979584301e-06 0.000000000000e+00 -4.974496051193e+06 1.829444497177e+03 -5.006638862220e+06 -1.739549316250e+07 1.822174248483e-04 3.962760936549e-07 1.785320319466e-04 -1.030888351701e-03 9.125542691972e+06 1.240495734282e+07  1.211267479504e-03