 TITLE = "Time curves in points"
 VARIABLES = "TIME "  "DISPLACEMENT_X1"  "DISPLACEMENT_Y1"  "STRESS_XX"  "STRESS_XY"  "STRESS_YY"  "STRESS_ZZ"  "STRAIN_XX"  "STRAIN_XY"  "STRAIN_YY"  "STRAIN_ZZ"  p_(1st_Invariant)  q_(2nd_Invariant)   Effective_Strain
 ZONE T="POINT=POINT0"
0.000000000000e+00 0.000000000000e+00 0.000000000000e+00 0.000000000000e+00 0.000000000000e+00 0.000000000000e+00 0.000000000000e+00 0.000000000000e+00 0.000000000000e+00 0.000000000000e+00 0.000000000000e+00 -0.000000000000e+00 0.000000000000e+00  0.000000000000e+00
2.314800000000e-05 0.000000000000e+00 0.000000000000e+00 -4.879245909123e+05 9.840646763436e-08 -4.879245909115e+05 -8.507297655645e-04 -1.553738316002e-05 1.933331526285e-17 -1.553738315997e-05 1.565420556277e-05 3.252830608915e+05 4.879245900612e+05  3.119158872277e-05
4.629600000000e-05 0.000000000000e+00 0.000000000000e+00 -9.912225694129e+05 2.856977303822e+03 -9.902903173634e+05 5.210052449346e+03 -3.318835244830e-05 4.002163923977e-07 -3.312124548788e-05 3.358372060060e-05 6.587676114423e+05 9.959791160507e+05  6.674214479031e-05
6.944400000000e-05 0.000000000000e+00 0.000000000000e+00 -1.495721237686e+06 5.804487913534e+03 -1.493813279041e+06 9.601265954644e+03 -5.260358013809e-05 8.538939721359e-07 -5.245960974868e-05 5.327225982678e-05 9.933110835907e+05 1.504403025598e+06  1.058142647972e-04
9.259200000000e-05 0.000000000000e+00 0.000000000000e+00 -1.999951418132e+06 8.723174897932e+03 -1.997072240563e+06 1.380265557741e+04 -7.391636679139e-05 1.347387056128e-06 -7.368835888704e-05 7.487745782037e-05 1.327740334373e+06 2.012372749971e+06  1.486982663574e-04
1.157400000000e-04 0.000000000000e+00 0.000000000000e+00 -2.503921885620e+06 1.163004893990e+04 -2.500068505524e+06 1.789485234013e+04 -9.731443881173e-05 1.887284414992e-06 -9.699382345590e-05 9.859149404935e-05 1.662031846268e+06 2.519972770505e+06  1.957731146031e-04
1.388880000000e-04 0.000000000000e+00 0.000000000000e+00 -3.007667512490e+06 1.453400578476e+04 -3.002833343991e+06 2.189839529771e+04 -1.230033976668e-04 2.479742237015e-06 -1.225803560899e-04 1.246226210436e-04 1.996200820394e+06 3.027256388003e+06  2.474520466066e-04
1.620360000000e-04 0.000000000000e+00 0.000000000000e+00 -3.511216669900e+06 1.743898827130e+04 -3.505393630369e+06 2.582182591306e+04 -1.512084098335e-04 3.130745786328e-06 -1.506719192077e-04 1.531984885937e-04 2.330262824785e+06 3.534259649290e+06  3.041873450562e-04
1.851840000000e-04 0.000000000000e+00 0.000000000000e+00 -4.014594126068e+06 2.034702982556e+04 -4.007773449575e+06 2.966999566960e+04 -1.821765202553e-04 3.846565252466e-06 -1.815142986107e-04 1.845687247914e-04 2.664232526658e+06 4.041011778706e+06  3.664751490283e-04
2.083320000000e-04 0.000000000000e+00 0.000000000000e+00 -4.517822028825e+06 2.325930208429e+04 -4.509994638403e+06 3.344621690468e+04 -2.161789272230e-04 4.633953747472e-06 -2.153773360672e-04 2.190072897944e-04 2.998123483441e+06 4.547538053118e+06  4.348600524187e-04
2.314800000000e-04 0.000000000000e+00 0.000000000000e+00 -5.020920290550e+06 2.617652572729e+04 -5.012076994293e+06 3.715301915658e+04 -2.535134008988e-04 5.500262977492e-06 -2.525573231337e-04 2.568149340673e-04 3.331948088562e+06 5.053860841078e+06  5.099399657395e-04
3.981500000000e-04 0.000000000000e+00 0.000000000000e+00 -5.038195703284e+06 2.911538389014e+04 -5.028391649847e+06 -1.392386847906e+05 -2.479033088153e-04 6.431863681710e-06 -2.467952729862e-04 2.372152173540e-04 3.401942012640e+06 4.894322166434e+06  4.846935011726e-04
5.648200000000e-04 0.000000000000e+00 0.000000000000e+00 -5.038858585308e+06 2.922762255218e+04 -5.029063379390e+06 -3.190731898950e+05 -2.409051842603e-04 6.467163969598e-06 -2.397984991117e-04 2.162194040362e-04 3.462331718198e+06 4.715167188630e+06  4.567096381879e-04
7.314900000000e-04 0.000000000000e+00 0.000000000000e+00 -5.039639875666e+06 2.937711330839e+04 -5.029849188205e+06 -4.987495568187e+05 -2.340410522670e-04 6.513313271775e-06 -2.329350362921e-04 1.956070120054e-04 3.522746206896e+06 4.536288279179e+06  4.292443995337e-04
8.981600000000e-04 0.000000000000e+00 0.000000000000e+00 -5.040432475868e+06 2.952706100517e+04 -5.030646277291e+06 -6.784223993897e+05 -2.272940866330e-04 6.558816669836e-06 -2.261887238316e-04 1.753449660668e-04 3.583167050849e+06 4.357425354744e+06  4.022479590787e-04
1.064830000000e-03 0.000000000000e+00 0.000000000000e+00 -5.041237288252e+06 2.967781438864e+04 -5.031455594250e+06 -8.580898240533e+05 -2.206624111229e-04 6.603786419611e-06 -2.195576926453e-04 1.554275535530e-04 3.643594235518e+06 4.178581390653e+06  3.757129734050e-04
1.231500000000e-03 0.000000000000e+00 0.000000000000e+00 -5.042054531208e+06 2.982938587201e+04 -5.032277354137e+06 -1.037751731146e+06 -2.141440617078e-04 6.648231217301e-06 -2.130399783250e-04 1.358488966573e-04 3.704027872164e+06 3.999756880992e+06  3.496318999044e-04
1.398170000000e-03 0.000000000000e+00 0.000000000000e+00 -5.042884427206e+06 2.998178988569e+04 -5.033111777654e+06 -1.217408006616e+06 -2.077371080807e-04 6.692160135865e-06 -2.066336504338e-04 1.166032188378e-04 3.764468070492e+06 3.820952372370e+06  3.239974143297e-04
1.564840000000e-03 0.000000000000e+00 0.000000000000e+00 -5.043727202558e+06 3.013504107644e+04 -5.033959089287e+06 -1.397058533776e+06 -2.014396526806e-04 6.735582084124e-06 -2.003368112842e-04 9.768484169432e-05 3.824914941874e+06 3.642168459228e+06  2.988024376025e-04
1.731510000000e-03 0.000000000000e+00 0.000000000000e+00 -5.044583087330e+06 3.028915429596e+04 -5.034819517240e+06 -1.576703193102e+06 -1.952498301334e-04 6.778505805652e-06 -1.941475953820e-04 7.908818331335e-05 3.885368599224e+06 3.463405794631e+06  2.740401796711e-04
1.898180000000e-03 0.000000000000e+00 0.000000000000e+00 -5.045452315432e+06 3.044414460354e+04 -5.035693293530e+06 -1.756341862495e+06 -1.891658066996e-04 6.820939881817e-06 -1.880641688750e-04 6.080775660515e-05 3.945829157152e+06 3.284665104239e+06  2.497042075883e-04
2.064850000000e-03 0.000000000000e+00 0.000000000000e+00 -5.046335124664e+06 3.060002727050e+04 -5.036580654033e+06 -1.935974416943e+06 -1.831857797496e-04 6.862892735212e-06 -1.820847290272e-04 4.283816772762e-05 4.006296731880e+06 3.105947205712e+06  2.257885541946e-04
2.231520000000e-03 0.000000000000e+00 0.000000000000e+00 -5.047231756861e+06 3.075681778175e+04 -5.037481838624e+06 -2.115600728288e+06 -1.773079772485e-04 6.904372632226e-06 -1.762075037040e-04 2.517411452974e-05 4.066771441257e+06 2.927253035064e+06  2.022878973938e-04
2.398190000000e-03 0.000000000000e+00 0.000000000000e+00 -5.048142457821e+06 3.091453183802e+04 -5.038397091110e+06 -2.295220665669e+06 -1.715306572146e-04 6.945387685748e-06 -1.704307508305e-04 7.810384940310e-06 4.127253404867e+06 2.748583682249e+06  1.791978684817e-04
2.564860000000e-03 0.000000000000e+00 0.000000000000e+00 -5.049067477496e+06 3.107318535990e+04 -5.039326659420e+06 -2.474834094771e+06 -1.658521072411e-04 6.985945858233e-06 -1.647527579134e-04 -9.258144482573e-06 4.187742743896e+06 2.569940443231e+06  1.565156113373e-04
2.731530000000e-03 0.000000000000e+00 0.000000000000e+00 -5.050007069990e+06 3.123279448943e+04 -5.040270795604e+06 -2.654440878149e+06 -1.602706439796e-04 7.026054964070e-06 -1.591718415242e-04 -2.603651009647e-05 4.248239581248e+06 2.391324893680e+06  1.342408641784e-04
2.898200000000e-03 0.000000000000e+00 0.000000000000e+00 -5.050961493642e+06 3.139337559322e+04 -5.041229755916e+06 -2.834040874961e+06 -1.547846126554e-04 7.065722672215e-06 -1.536863468146e-04 -4.252966263106e-05 4.308744041506e+06 2.212738999142e+06  1.123782342199e-04
3.064870000000e-03 0.000000000000e+00 0.000000000000e+00 -5.051931011105e+06 3.155494526539e+04 -5.042203800894e+06 -3.013633940759e+06 -1.493923865888e-04 7.104956508689e-06 -1.482946470377e-04 -5.874246862804e-05 4.369256250919e+06 2.034185282917e+06  9.094253063964e-05
3.231540000000e-03 0.000000000000e+00 0.000000000000e+00 -5.052915889420e+06 3.171752033040e+04 -5.043193195434e+06 -3.193219927732e+06 -1.440923667095e-04 7.143763858838e-06 -1.429951430627e-04 -7.467971189937e-05 4.429776337529e+06 1.855667090090e+06  6.997327652386e-05
3.398210000000e-03 0.000000000000e+00 0.000000000000e+00 -5.053916400065e+06 3.188111784688e+04 -5.044198208837e+06 -3.372798683968e+06 -1.388829811069e-04 7.182151969651e-06 -1.377862629248e-04 -9.034609487446e-05 4.490304430957e+06 1.677189021011e+06  4.958377507840e-05
3.564880000000e-03 0.000000000000e+00 0.000000000000e+00 -5.054932819000e+06 3.204575510869e+04 -5.045219114861e+06 -3.552370053495e+06 -1.337626845642e-04 7.220127951047e-06 -1.326664613602e-04 -1.057462399976e-04 4.550840662452e+06 1.498757672687e+06  3.019604837938e-05
3.731550000000e-03 0.000000000000e+00 0.000000000000e+00 -5.055965426949e+06 3.221144965116e+04 -5.046256191993e+06 -3.731933876534e+06 -1.287299581068e-04 7.257698777860e-06 -1.276342193535e-04 -1.208846911067e-04 4.611385165159e+06 1.320382980347e+06  1.456623044191e-05
3.898220000000e-03 0.000000000000e+00 0.000000000000e+00 -5.057014509107e+06 3.237821925833e+04 -5.047309723155e+06 -3.911489988533e+06 -1.237833085596e-04 7.294871291044e-06 -1.226880436965e-04 -1.357659147190e-04 4.671938073598e+06 1.142080814600e+06  1.781998946258e-05
4.064890000000e-03 0.000000000000e+00 0.000000000000e+00 -5.058080355602e+06 3.254608196868e+04 -5.048379996160e+06 -4.091038220624e+06 -1.189212681144e-04 7.331652196686e-06 -1.178264665547e-04 -1.503943013754e-04 4.732499524129e+06 9.638784538751e+05  3.445963596450e-05
4.231560000000e-03 0.000000000000e+00 0.000000000000e+00 -5.059163261419e+06 3.271505609758e+04 -5.049467303608e+06 -4.270578399099e+06 -1.141423938993e-04 7.368048064878e-06 -1.130480450381e-04 -1.647741669115e-04 4.793069654709e+06 7.858274847632e+05  5.275459466044e-05
4.398230000000e-03 0.000000000000e+00 0.000000000000e+00 -5.060263526783e+06 3.288516028421e+04 -5.050571943205e+06 -4.450110345263e+06 -1.094452675700e-04 7.404065324610e-06 -1.083513607908e-04 -1.789097537173e-04 4.853648605084e+06 6.080392935144e+05  7.118257996206e-05
4.564900000000e-03 0.000000000000e+00 0.000000000000e+00 -5.061381457944e+06 3.305641361942e+04 -5.051694218346e+06 -4.629633876473e+06 -1.048284948950e-04 7.439710250248e-06 -1.037350195744e-04 -1.928052320479e-04 4.914236517588e+06 4.308080244073e+05  8.946144546690e-05
4.731570000000e-03 0.000000000000e+00 0.000000000000e+00 -5.062517372946e+06 3.322883630544e+04 -5.052834443062e+06 -4.809148809866e+06 -1.002907055384e-04 7.474988967188e-06 -9.919765102417e-05 -2.064647012582e-04 4.974833541958e+06 2.552420508928e+05  1.075071740898e-04
4.898240000000e-03 0.000000000000e+00 0.000000000000e+00 -5.063671685637e+06 3.340244827775e+04 -5.053993029969e+06 -4.988654927679e+06 -9.583055752612e-05 7.509906567807e-06 -9.473791381437e-05 -2.198921839769e-04 5.035439881095e+06 9.133619016161e+04  1.252885959450e-04
5.064910000000e-03 0.000000000000e+00 0.000000000000e+00 -5.064844545003e+06 3.357730959007e+04 -5.055170071283e+06 -5.168151907161e+06 -9.144672407072e-05 7.544469078119e-06 -9.035448000787e-05 -2.330916344011e-04 5.096055507816e+06 1.230762285580e+05  1.427933523416e-04
5.231580000000e-03 0.000000000000e+00 0.000000000000e+00 -5.066036039526e+06 3.375335015388e+04 -5.056365792899e+06 -5.347639819185e+06 -8.713789658305e-05 7.578678583985e-06 -8.604604285047e-05 -2.460669566336e-04 5.156680550537e+06 2.924640940837e+05  1.600171074222e-04
5.398250000000e-03 0.000000000000e+00 0.000000000000e+00 -5.067246733804e+06 3.393059810851e+04 -5.057580673417e+06 -5.527118413875e+06 -8.290278515779e-05 7.612549498580e-06 -8.181131039501e-05 -2.588220087198e-04 5.217315273699e+06 4.684809481169e+05  1.769593983326e-04
5.564920000000e-03 0.000000000000e+00 0.000000000000e+00 -5.068476919542e+06 3.410908757360e+04 -5.058815013429e+06 -5.706587424882e+06 -7.874012031961e-05 7.646083762242e-06 -7.764901398564e-05 -2.713605719001e-04 5.277959785951e+06 6.457042843382e+05  1.936217603100e-04
5.731590000000e-03 0.000000000000e+00 0.000000000000e+00 -5.069726924227e+06 3.428883904741e+04 -5.060069139282e+06 -5.886046610631e+06 -7.464865638471e-05 7.679286259843e-06 -7.355790812948e-05 -2.836863610614e-04 5.338614224713e+06 8.233359682709e+05  2.100068416322e-04
5.898260000000e-03 0.000000000000e+00 0.000000000000e+00 -5.070997084029e+06 3.446987231156e+04 -5.061343385719e+06 -6.065495720717e+06 -7.062716902598e-05 7.712162168674e-06 -6.953676862567e-05 -2.958030275872e-04 5.399278730155e+06 1.001142266796e+06  2.261179347908e-04
6.064930000000e-03 0.000000000000e+00 0.000000000000e+00 -5.072287740911e+06 3.465220699627e+04 -5.062638093455e+06 -6.244934491850e+06 -6.667445475596e-05 7.744716653857e-06 -6.558439210975e-05 -3.077141604995e-04 5.459953442072e+06 1.179029886081e+06  2.419587119100e-04
6.231600000000e-03 0.000000000000e+00 0.000000000000e+00 -5.073599241727e+06 3.483586264502e+04 -5.063953608356e+06 -6.424362645301e+06 -6.278933052375e-05 7.776954790020e-06 -6.169959566773e-05 -3.194232875430e-04 5.520638498461e+06 1.356954085891e+06  2.575330686786e-04
6.398270000000e-03 0.000000000000e+00 0.000000000000e+00 -5.074931937707e+06 3.502085867830e+04 -5.065290281000e+06 -6.603779884283e+06 -5.897063333857e-05 7.808881528560e-06 -5.788121646828e-05 -3.309338762451e-04 5.581334034330e+06 1.534890554398e+06  2.728450284657e-04
6.564940000000e-03 0.000000000000e+00 0.000000000000e+00 -5.076286184227e+06 3.520721430238e+04 -5.066648466521e+06 -6.783185889941e+06 -5.521721993320e-05 7.840501675076e-06 -5.412811143346e-05 -3.422493348905e-04 5.642040180230e+06 1.712824787392e+06  2.878986812923e-04
6.731610000000e-03 0.000000000000e+00 0.000000000000e+00 -5.077662340148e+06 3.539494836434e+04 -5.068028524065e+06 -6.962580317290e+06 -5.152796639901e-05 7.871819866233e-06 -5.043915688181e-05 -3.533730135461e-04 5.702757060501e+06 1.890747458334e+06  3.026981440271e-04
6.898280000000e-03 0.000000000000e+00 0.000000000000e+00 -5.079060766984e+06 3.558407913713e+04 -5.069430816112e+06 -7.141962789495e+06 -4.790176783465e-05 7.902840540347e-06 -4.681324818729e-05 -3.643082050360e-04 5.763484790863e+06 2.068652173670e+06  3.172475337441e-04
7.064950000000e-03 0.000000000000e+00 0.000000000000e+00 -5.080481827914e+06 3.577462400496e+04 -5.070855707690e+06 -7.321332888833e+06 -4.433753803208e-05 7.933567896489e-06 -4.324929947843e-05 -3.750581457959e-04 5.824223474812e+06 2.246534289144e+06  3.315509494442e-04
7.231620000000e-03 0.000000000000e+00 0.000000000000e+00 -5.081925885770e+06 3.596659899408e+04 -5.072303564653e+06 -7.500690147843e+06 -4.083420908062e-05 7.964005834461e-06 -3.974624326091e-05 -3.856260168952e-04 5.884973199422e+06 2.424390244930e+06  3.456124596630e-04
7.398290000000e-03 0.000000000000e+00 0.000000000000e+00 -5.083393300291e+06 3.616001804612e+04 -5.073774751348e+06 -7.680034032876e+06 -3.739073104314e-05 7.994157861776e-06 -3.630303011985e-05 -3.960149447952e-04 5.945734028172e+06 2.602217163746e+06  3.594360935560e-04
7.564960000000e-03 0.000000000000e+00 0.000000000000e+00 -5.084884423836e+06 3.635489189077e+04 -5.075269626921e+06 -7.859363923922e+06 -3.400607156427e-05 8.024026949848e-06 -3.291862836549e-05 -4.062280022029e-04 6.006505991559e+06 2.780012595681e+06  3.730258347802e-04
7.731630000000e-03 0.000000000000e+00 0.000000000000e+00 -5.086399593743e+06 3.655122619559e+04 -5.076788538578e+06 -8.038679082349e+06 -3.067921546333e-05 8.053615297305e-06 -2.959202368301e-05 -4.162682087339e-04 6.067289071557e+06 2.957774340389e+06  3.863856170453e-04
7.898300000000e-03 0.000000000000e+00 0.000000000000e+00 -5.087939119881e+06 3.674901845008e+04 -5.078331810527e+06 -8.217978607229e+06 -2.740916417749e-05 8.082923931664e-06 -2.632221866322e-05 -4.261385316970e-04 6.128083179212e+06 3.135500314378e+06  3.995193212453e-04
8.064970000000e-03 0.000000000000e+00 0.000000000000e+00 -5.089503261854e+06 3.694825241501e+04 -5.079899723440e+06 -8.397261360745e+06 -2.419493510443e-05 8.111951999484e-06 -2.310823228765e-05 -4.358418864715e-04 6.188888115346e+06 3.313188429710e+06  4.124307732094e-04
8.231640000000e-03 0.000000000000e+00 0.000000000000e+00 -5.091092185931e+06 3.714888766095e+04 -5.081492475220e+06 -8.576525853020e+06 -2.103556046430e-05 8.140695429182e-06 -1.994909903227e-05 -4.453811369540e-04 6.249703504723e+06 3.490836472336e+06  4.251237426370e-04
8.398310000000e-03 0.000000000000e+00 0.000000000000e+00 -5.092705877289e+06 3.735083835549e+04 -5.083110100203e+06 -8.755770044073e+06 -1.793008523588e-05 8.169144221792e-06 -1.684386724121e-05 -4.547590957841e-04 6.310528673855e+06 3.668441954220e+06  4.376019431056e-04
8.564980000000e-03 0.000000000000e+00 0.000000000000e+00 -5.094343943757e+06 3.755392599327e+04 -5.084752286478e+06 -8.934990991435e+06 -1.487756257288e-05 8.197276419221e-06 -1.379159539715e-05 -4.639785249082e-04 6.371362407224e+06 3.846001924988e+06  4.498690349657e-04
8.731650000000e-03 0.000000000000e+00 0.000000000000e+00 -5.096005120219e+06 3.775776024803e+04 -5.086417909494e+06 -9.114184187250e+06 -1.187704177255e-05 8.225042917967e-06 -1.079134192344e-05 -4.730421387563e-04 6.432202405654e+06 4.023512769230e+06  4.619286376589e-04
8.898320000000e-03 0.000000000000e+00 0.000000000000e+00 -5.097685785970e+06 3.796138260580e+04 -5.088103620055e+06 -9.293342292375e+06 -8.927529346428e-06 8.252322107878e-06 -7.842130680023e-06 -4.819526237400e-04 6.493043899466e+06 4.200970365775e+06  4.737843826926e-04
9.064990000000e-03 0.000000000000e+00 0.000000000000e+00 -5.099374256739e+06 3.816189917134e+04 -5.089798325415e+06 -9.472453445570e+06 -6.027819647579e-06 8.278746152663e-06 -4.942793364085e-06 -4.907127775096e-04 6.553875342575e+06 4.378373966198e+06  4.854402069172e-04
9.231660000000e-03 0.000000000000e+00 0.000000000000e+00 -5.101018506553e+06 3.834703752475e+04 -5.091451005584e+06 -9.651521591770e+06 -3.175247656275e-06 8.302758241860e-06 -2.090726887836e-06 -4.993272299263e-04 6.614663701302e+06 4.555778560705e+06  4.969032704743e-04
9.398330000000e-03 0.000000000000e+00 0.000000000000e+00 -5.102114932541e+06 3.845457498415e+04 -5.092537499803e+06 -9.831060415825e+06 -3.473776026187e-07 8.316517343266e-06 7.378108077705e-07 -5.078330969133e-04 6.675237616057e+06 4.734210021893e+06  5.082333557937e-04
9.565000000000e-03 0.000000000000e+00 0.000000000000e+00 -5.101059557492e+06 3.855649205365e+04 -5.091409322941e+06 -1.001077036692e+07 2.520759967643e-06 8.329496891725e-06 3.610557501949e-06 -5.163288662835e-04 6.734413082453e+06 4.914996747650e+06  5.195957129523e-04
9.731670000000e-03 0.000000000000e+00 0.000000000000e+00 -5.099079408474e+06 3.837433442457e+04 -5.089444595617e+06 -1.019101156591e+07 5.467406629386e-06 8.306408685791e-06 6.556261509853e-06 -5.249940084645e-04 6.793178523332e+06 5.097189765700e+06  5.312015467643e-04
9.898340000000e-03 0.000000000000e+00 0.000000000000e+00 -5.097355209299e+06 3.815466989257e+04 -5.087726499480e+06 -1.037170048437e+07 8.463020446133e-06 8.278061500282e-06 9.551518408516e-06 -5.338199055558e-04 6.852260731049e+06 5.279579838334e+06  5.430173196388e-04
1.006501000000e-02 0.000000000000e+00 0.000000000000e+00 -5.095658315728e+06 3.793475366496e+04 -5.086034373678e+06 -1.055238136032e+07 1.150998194427e-05 8.249190186445e-06 1.259820414946e-05 -5.427987081102e-04 6.911358016577e+06 5.461936591417e+06  5.550375361529e-04
1.023168000000e-02 0.000000000000e+00 0.000000000000e+00 -5.093983161099e+06 3.771543901992e+04 -5.084363362755e+06 -1.073306146558e+07 1.460993306375e-05 8.219896881217e-06 1.569791636512e-05 -5.519349062214e-04 6.970469329810e+06 5.644272390990e+06  5.672683051847e-04
1.039835000000e-02 0.000000000000e+00 0.000000000000e+00 -5.092331711081e+06 3.749721409878e+04 -5.082715613848e+06 -1.091374005065e+07 1.776390581327e-05 8.190240356953e-06 1.885167613721e-05 -5.612317003906e-04 7.029595791860e+06 5.826584323357e+06  5.797138514794e-04
1.056502000000e-02 0.000000000000e+00 0.000000000000e+00 -5.090704998704e+06 3.728035713773e+04 -5.081092240842e+06 -1.109441504819e+07 2.097286330438e-05 8.160254344346e-06 2.206044196213e-05 -5.706920381330e-04 7.088737429247e+06 6.008869148977e+06  5.923780801080e-04
1.073169000000e-02 0.000000000000e+00 0.000000000000e+00 -5.089103428403e+06 3.706501083096e+04 -5.079493698423e+06 -1.127508477495e+07 2.423776993733e-05 8.129955855727e-06 2.532517550690e-05 -5.803188343513e-04 7.147893967260e+06 6.191124665379e+06  6.052648651666e-04
1.089836000000e-02 0.000000000000e+00 0.000000000000e+00 -5.087527060480e+06 3.685124873574e+04 -5.077920081662e+06 -1.145574802937e+07 2.755960477917e-05 8.099353289391e-06 2.864685405195e-05 -5.901150269531e-04 7.207065057171e+06 6.373349512636e+06  6.183781186798e-04
1.106503000000e-02 0.000000000000e+00 0.000000000000e+00 -5.085975769245e+06 3.663910668524e+04 -5.076371290790e+06 -1.163640398031e+07 3.093936444882e-05 8.068450268657e-06 3.202647296481e-05 -6.000835945346e-04 7.266250346783e+06 6.555542899976e+06  6.317218111407e-04
1.123170000000e-02 0.000000000000e+00 0.000000000000e+00 -5.084449324658e+06 3.642859882521e+04 -5.074847116132e+06 -1.181705205998e+07 3.437806388761e-05 8.037247607452e-06 3.546504626777e-05 -6.102275634096e-04 7.325449500257e+06 6.737704414554e+06  6.452999792967e-04
1.139837000000e-02 0.000000000000e+00 0.000000000000e+00 -5.082947436067e+06 3.621972624226e+04 -5.073347283678e+06 -1.199769188724e+07 3.787673669100e-05 8.005744369453e-06 3.896360685637e-05 -6.205500111353e-04 7.384662202329e+06 6.919833899317e+06  6.591167299932e-04
1.156504000000e-02 0.000000000000e+00 0.000000000000e+00 -5.081469776789e+06 3.601248184469e+04 -5.071871480776e+06 -1.217832321380e+07 4.143643533353e-05 7.973938467335e-06 4.252320665584e-05 -6.310540686035e-04 7.443888157122e+06 7.101931373247e+06  6.731762424771e-04
1.173171000000e-02 0.000000000000e+00 0.000000000000e+00 -5.080015999306e+06 3.580685326586e+04 -5.070419372039e+06 -1.235894588706e+07 4.505823137074e-05 7.941827019272e-06 4.614491677937e-05 -6.417429215280e-04 7.503127086136e+06 7.283996977994e+06  6.874827700742e-04
1.189838000000e-02 0.000000000000e+00 0.000000000000e+00 -5.078585743877e+06 3.560282465166e+04 -5.068990608433e+06 -1.253955982555e+07 4.874321572790e-05 7.909406567896e-06 4.982982778753e-05 -6.526198117925e-04 7.562378725954e+06 7.466030943832e+06  7.020406418143e-04
1.206505000000e-02 0.000000000000e+00 0.000000000000e+00 -5.077178644001e+06 3.540037781671e+04 -5.067584833065e+06 -1.272016500020e+07 5.249249898068e-05 7.876673221955e-06 5.357904994890e-05 -6.636880385902e-04 7.621642825757e+06 7.648033564821e+06  7.168542638417e-04
1.223172000000e-02 0.000000000000e+00 0.000000000000e+00 -5.075794330612e+06 3.519949299559e+04 -5.066201685614e+06 -1.290076142147e+07 5.630721164266e-05 7.843622747559e-06 5.739371351330e-05 -6.749509595249e-04 7.680919145900e+06 7.830005181113e+06  7.319281207946e-04
1.239839000000e-02 0.000000000000e+00 0.000000000000e+00 -5.074432434482e+06 3.500014936133e+04 -5.064840804899e+06 -1.308134913007e+07 6.018850449655e-05 7.810250631091e-06 6.127496903274e-05 -6.864119917278e-04 7.740207456483e+06 8.011946166809e+06  7.472667772450e-04
1.256506000000e-02 0.000000000000e+00 0.000000000000e+00 -5.073092587478e+06 3.480232537812e+04 -5.063501830265e+06 -1.326192818963e+07 6.413754894619e-05 7.776552121312e-06 6.522398770543e-05 -6.980746129583e-04 7.799507535790e+06 8.193856920967e+06  7.628748791436e-04
1.273173000000e-02 0.000000000000e+00 0.000000000000e+00 -5.071774424260e+06 3.460599905933e+04 -5.062184403370e+06 -1.344249868155e+07 6.815553734983e-05 7.742522260169e-06 6.924196170363e-05 -7.099423626993e-04 7.858819169726e+06 8.375737860393e+06  7.787571552415e-04
1.289840000000e-02 0.000000000000e+00 0.000000000000e+00 -5.070477582802e+06 3.441114814492e+04 -5.060888168786e+06 -1.362306070107e+07 7.224368339898e-05 7.708155903151e-06 7.333010454782e-05 -7.220188432982e-04 7.918142150885e+06 8.557589414868e+06  7.949184186036e-04
1.306507000000e-02 0.000000000000e+00 0.000000000000e+00 -5.069201705086e+06 3.421775023756e+04 -5.059612774743e+06 -1.380361435399e+07 7.640322248533e-05 7.673447734860e-06 7.748965147019e-05 -7.343077210934e-04 7.977476277940e+06 8.739412022941e+06  8.113635680964e-04
1.323174000000e-02 0.000000000000e+00 0.000000000000e+00 -5.067946437315e+06 3.402578289749e+04 -5.058357873393e+06 -1.398415975410e+07 8.063541208983e-05 7.638392279098e-06 8.172185980089e-05 -7.468127275686e-04 8.036821354936e+06 8.921206128884e+06  8.280975899252e-04
1.339841000000e-02 0.000000000000e+00 0.000000000000e+00 -5.066711430467e+06 3.383522371982e+04 -5.057123121394e+06 -1.416469702167e+07 8.494153217457e-05 7.602983907129e-06 8.602800935787e-05 -7.595376605497e-04 8.096177191176e+06 9.102972180460e+06  8.451255592185e-04
1.356508000000e-02 0.000000000000e+00 0.000000000000e+00 -5.065496340284e+06 3.364605038827e+04 -5.055908179933e+06 -1.434522628144e+07 8.932288558328e-05 7.567216842666e-06 9.040940284548e-05 -7.724863853788e-04 8.155543600551e+06 9.284710626742e+06  8.624526415971e-04
1.373175000000e-02 0.000000000000e+00 0.000000000000e+00 -5.064300827452e+06 3.345824071733e+04 -5.054712714930e+06 -1.452574766163e+07 9.378079845582e-05 7.531085165466e-06 9.486736626738e-05 -7.856628361482e-04 8.214920401338e+06 9.466421916775e+06  8.800840948181e-04
1.389842000000e-02 0.000000000000e+00 0.000000000000e+00 -5.063124557692e+06 3.327177268437e+04 -5.053536397142e+06 -1.470626129311e+07 9.831662065132e-05 7.494582813637e-06 9.940324934869e-05 -7.990710169536e-04 8.274307415980e+06 9.648106498505e+06  8.980252704476e-04
1.406509000000e-02 0.000000000000e+00 0.000000000000e+00 -5.061967201796e+06 3.308662445575e+04 -5.052378902224e+06 -1.488676730840e+07 1.029317261746e-04 7.457703585248e-06 1.040184259611e-04 -8.127150031525e-04 8.333704470808e+06 9.829764817689e+06  9.162816155404e-04
1.423176000000e-02 0.000000000000e+00 0.000000000000e+00 -5.060828435648e+06 3.290277440332e+04 -5.051239910761e+06 -1.506726584089e+07 1.076275136075e-04 7.420441138425e-06 1.087142945538e-04 -8.265989426360e-04 8.393111395766e+06 1.001139731689e+07  9.348586743408e-04
1.439843000000e-02 0.000000000000e+00 0.000000000000e+00 -5.059707940185e+06 3.272020112097e+04 -5.050119108238e+06 -1.524775702456e+07 1.124054065659e-04 7.382788991719e-06 1.134922786090e-04 -8.407270571709e-04 8.452528024326e+06 1.019300443522e+07  9.537620900769e-04
1.456510000000e-02 0.000000000000e+00 0.000000000000e+00 -5.058605401389e+06 3.253888343370e+04 -5.049016185047e+06 -1.542824099352e+07 1.172668541530e-04 7.344740523201e-06 1.183538270950e-04 -8.551036437344e-04 8.511954193319e+06 1.037458660779e+07  9.729976067457e-04
1.473177000000e-02 0.000000000000e+00 0.000000000000e+00 -5.057520510368e+06 3.235880040683e+04 -5.047930836572e+06 -1.560871788148e+07 1.222133314121e-04 7.306288969723e-06 1.233004149188e-04 -8.697330758564e-04 8.571389742807e+06 1.055614426497e+07  9.925710709051e-04
1.489844000000e-02 0.000000000000e+00 0.000000000000e+00 -5.056452963036e+06 3.217993135179e+04 -5.046862762882e+06 -1.578918782145e+07 1.272463398159e-04 7.267427425601e-06 1.283335434139e-04 -8.846198050273e-04 8.630834515791e+06 1.073767783240e+07  1.012488433568e-03
1.506511000000e-02 0.000000000000e+00 0.000000000000e+00 -5.055402460399e+06 3.200225582910e+04 -5.045811669020e+06 -1.596965094587e+07 1.323674077397e-04 7.228148840777e-06 1.334547408139e-04 -8.997683621231e-04 8.690288358430e+06 1.091918773075e+07  1.032755752097e-03
1.523178000000e-02 0.000000000000e+00 0.000000000000e+00 -5.054368708238e+06 3.182575365423e+04 -5.044777264694e+06 -1.615010738597e+07 1.375780909569e-04 7.188446019699e-06 1.386655627471e-04 -9.151833588296e-04 8.749751119635e+06 1.110067437534e+07  1.053379192123e-03
1.539845000000e-02 0.000000000000e+00 0.000000000000e+00 -5.053351417198e+06 3.165040489462e+04 -5.043759264367e+06 -1.633055727152e+07 1.428799731279e-04 7.148311618247e-06 1.439675927254e-04 -9.308694890930e-04 8.809222651027e+06 1.128213817574e+07  1.074365029481e-03
1.556512000000e-02 0.000000000000e+00 0.000000000000e+00 -5.052350302680e+06 3.147618987503e+04 -5.042757387164e+06 -1.651100073126e+07 1.482746663309e-04 7.107738142591e-06 1.493624426739e-04 -9.468315306705e-04 8.868702807035e+06 1.146357953632e+07  1.095719652287e-03
1.573179000000e-02 0.000000000000e+00 0.000000000000e+00 -5.051365084756e+06 3.130308917470e+04 -5.041771356781e+06 -1.669143789217e+07 1.537638115643e-04 7.066717946162e-06 1.548517534345e-04 -9.630743466001e-04 8.928191444568e+06 1.164499885546e+07  1.117449562912e-03
1.589846000000e-02 0.000000000000e+00 0.000000000000e+00 -5.050395488140e+06 3.113108362900e+04 -5.040800901462e+06 -1.687186888009e+07 1.593490792981e-04 7.025243227687e-06 1.604371953153e-04 -9.796028868200e-04 8.987688423230e+06 1.182639652628e+07  1.139561380148e-03
1.606513000000e-02 0.000000000000e+00 0.000000000000e+00 -5.049441242094e+06 3.096015432496e+04 -5.039845753916e+06 -1.705229381864e+07 1.650321699845e-04 6.983306027727e-06 1.661204686019e-04 -9.964221896595e-04 9.047193604884e+06 1.200777293553e+07  1.162061841209e-03
1.623180000000e-02 0.000000000000e+00 0.000000000000e+00 -5.048502080369e+06 3.079028260403e+04 -5.038905651250e+06 -1.723271283013e+07 1.708148146384e-04 6.940898226944e-06 1.719033041375e-04 -1.013537383541e-03 9.106706853918e+06 1.218912846456e+07  1.184957804007e-03
1.639847000000e-02 0.000000000000e+00 0.000000000000e+00 -5.047577741204e+06 3.062145005749e+04 -5.037980334979e+06 -1.741312603475e+07 1.766987753711e-04 6.898011542554e-06 1.777874638562e-04 -1.030953688547e-03 9.166228036977e+06 1.237046348849e+07  1.208256249258e-03
1.656514000000e-02 0.000000000000e+00 0.000000000000e+00 -5.046667967047e+06 3.045363852600e+04 -5.037069550751e+06 -1.759353355126e+07 1.826858459992e-04 6.854637525735e-06 1.837747413914e-04 -1.048676418182e-03 9.225757023018e+06 1.255177837715e+07  1.231964282844e-03