 TITLE = "Time curves in points"
 VARIABLES = "TIME "  "DISPLACEMENT_X1"  "DISPLACEMENT_Y1"  "STRESS_XX"  "STRESS_XY"  "STRESS_YY"  "STRESS_ZZ"  "STRAIN_XX"  "STRAIN_XY"  "STRAIN_YY"  "STRAIN_ZZ"  p_(1st_Invariant)  q_(2nd_Invariant)   Effective_Strain
 ZONE T="POINT=POINT0"
0.000000000000e+00 0.000000000000e+00 0.000000000000e+00 0.000000000000e+00 0.000000000000e+00 0.000000000000e+00 0.000000000000e+00 0.000000000000e+00 0.000000000000e+00 0.000000000000e+00 0.000000000000e+00 -0.000000000000e+00 0.000000000000e+00  0.000000000000e+00
2.314800000000e-05 0.000000000000e+00 0.000000000000e+00 -4.810462285448e+05 7.480893355784e-08 -4.810462285440e+05 -8.386894187424e-04 -1.553738316002e-05 1.933331526285e-17 -1.553738315997e-05 1.565420556277e-05 3.206974859758e+05 4.810462277057e+05  3.119158872277e-05
4.629600000000e-05 0.000000000000e+00 0.000000000000e+00 -9.717000876176e+05 2.533601379704e+03 -9.702122913752e+05 2.261962558019e+03 -3.145868233753e-05 3.281375223089e-07 -3.136051661376e-05 3.171711190832e-05 6.465501388116e+05 9.732288985893e+05  6.312932710110e-05
6.944400000000e-05 0.000000000000e+00 0.000000000000e+00 -1.462862230063e+06 5.248047649686e+03 -1.459801846749e+06 4.532310773483e+03 -4.740759669875e-05 6.797682706059e-07 -4.720556657844e-05 4.780545079527e-05 9.727105886795e+05 1.465894928249e+06  9.511948055226e-05
9.259200000000e-05 0.000000000000e+00 0.000000000000e+00 -1.954430296629e+06 7.934760978907e+03 -1.949815889971e+06 6.204029359856e+03 -6.336572270352e-05 1.027901547209e-06 -6.306117358203e-05 6.388477728939e-05 1.299347385747e+06 1.958379424474e+06  1.271109681161e-04
1.157400000000e-04 0.000000000000e+00 0.000000000000e+00 -2.446392161253e+06 1.058855280919e+04 -2.440248311400e+06 7.278193564231e+03 -7.933107516960e-05 1.371877728369e-06 -7.892572847260e-05 7.995326630785e-05 1.626454093030e+06 2.450672831510e+06  1.590998004702e-04
1.388880000000e-04 0.000000000000e+00 0.000000000000e+00 -2.938748863854e+06 1.321791903451e+04 -2.931096051667e+06 7.810147799444e+03 -9.530372681580e-05 1.712810675366e-06 -9.479900829415e-05 9.601258322221e-05 1.954011589240e+06 2.942829123841e+06  1.910874812838e-04
1.620360000000e-04 0.000000000000e+00 0.000000000000e+00 -3.431498142057e+06 1.582717117923e+04 -3.422351848447e+06 7.823432894387e+03 -1.112834133393e-04 2.051269994458e-06 -1.106804060229e-04 1.120630228196e-04 2.282008852536e+06 3.434866955751e+06  2.230738392403e-04
1.851840000000e-04 0.000000000000e+00 0.000000000000e+00 -3.924652074738e+06 1.841620714344e+04 -3.914027594858e+06 7.324947224707e+03 -1.272701833392e-04 2.387231212494e-06 -1.265699556505e-04 1.281048435112e-04 2.610451574124e+06 3.926805118683e+06  2.550591512011e-04
2.083320000000e-04 0.000000000000e+00 0.000000000000e+00 -4.418224656961e+06 2.098099968403e+04 -4.406139234103e+06 6.311428913236e+03 -1.432640772024e-04 2.720156124902e-06 -1.424678292698e-04 1.441380472644e-04 2.939350820717e+06 4.418655208335e+06  2.870434976783e-04
2.314800000000e-04 0.000000000000e+00 0.000000000000e+00 -4.912229097261e+06 2.351517796721e+04 -4.898702765306e+06 4.770469909633e+03 -1.592650310977e-04 3.049201737759e-06 -1.583741526601e-04 1.601622667895e-04 3.268720464219e+06 4.910419292446e+06  3.190265103428e-04
3.981500000000e-04 0.000000000000e+00 0.000000000000e+00 -4.921658246219e+06 2.625923521698e+04 -4.906442426861e+06 -1.748446336484e+05 -1.567225311140e-04 3.399440959104e-06 -1.557236088788e-04 1.518660332714e-04 3.334315102243e+06 4.739442264391e+06  3.081465763774e-04
5.648200000000e-04 0.000000000000e+00 0.000000000000e+00 -4.922195228083e+06 2.593167348836e+04 -4.907028040804e+06 -3.552257839920e+05 -1.538548270573e-04 3.357746675623e-06 -1.528589776860e-04 1.432701154958e-04 3.394816350960e+06 4.559625995742e+06  2.966852792171e-04
7.314900000000e-04 0.000000000000e+00 0.000000000000e+00 -4.922662656032e+06 2.557281035310e+04 -4.907563729573e+06 -5.355788254944e+05 -1.509845309503e-04 3.312052417572e-06 -1.499930118341e-04 1.346723906174e-04 3.455268403700e+06 4.379777866914e+06  2.852201513304e-04
8.981600000000e-04 0.000000000000e+00 0.000000000000e+00 -4.923150810491e+06 2.520927461053e+04 -4.908120644938e+06 -7.159125946627e+05 -1.481146239552e-04 3.265758536250e-06 -1.471274692597e-04 1.260748346389e-04 3.515728016697e+06 4.199970279214e+06  2.737556607697e-04
1.064830000000e-03 0.000000000000e+00 0.000000000000e+00 -4.923660686694e+06 2.484086636922e+04 -4.908699589998e+06 -8.962321231151e+05 -1.452450630936e-04 3.218839721822e-06 -1.442622946756e-04 1.174772340109e-04 3.576197466602e+06 4.020199140204e+06  2.622915531251e-04
1.231500000000e-03 0.000000000000e+00 0.000000000000e+00 -4.924192431505e+06 2.446757977324e+04 -4.909300725727e+06 -1.076538118249e+06 -1.423758426420e-04 3.171295257150e-06 -1.413974832436e-04 1.088795534728e-04 3.636677091827e+06 3.840463947056e+06  2.508277985522e-04
1.398170000000e-03 0.000000000000e+00 0.000000000000e+00 -4.924746180571e+06 2.408941162685e+04 -4.909924204350e+06 -1.256831227477e+06 -1.395069569067e-04 3.123124756425e-06 -1.385330303132e-04 1.002817590228e-04 3.697167204132e+06 3.660764256976e+06  2.393643706519e-04
1.564840000000e-03 0.000000000000e+00 0.000000000000e+00 -4.925322077288e+06 2.370636245318e+04 -4.910570186734e+06 -1.437112047754e+06 -1.366384007227e-04 3.074328302410e-06 -1.356689318190e-04 9.168381809992e-05 3.757668103925e+06 3.481099698470e+06  2.279012476280e-04
1.731510000000e-03 0.000000000000e+00 0.000000000000e+00 -4.925920269482e+06 2.331843724686e+04 -4.911238838780e+06 -1.617381136106e+06 -1.337701691939e-04 3.024906542338e-06 -1.328051840030e-04 8.308569899083e-05 3.818180081456e+06 3.301469960794e+06  2.164384121176e-04
1.898180000000e-03 0.000000000000e+00 0.000000000000e+00 -4.926540910173e+06 2.292564600955e+04 -4.911930332019e+06 -1.797639028659e+06 -1.309022574231e-04 2.974860755988e-06 -1.299417831333e-04 7.448736995412e-05 3.878703423617e+06 3.121874780224e+06  2.049758509632e-04
2.064850000000e-03 0.000000000000e+00 0.000000000000e+00 -4.927184161490e+06 2.252800405227e+04 -4.912644847454e+06 -1.977886260300e+06 -1.280346603302e-04 2.924192893957e-06 -1.270787253172e-04 6.588879841766e-05 3.939238423082e+06 2.942313930591e+06  1.935135554753e-04
2.231520000000e-03 0.000000000000e+00 0.000000000000e+00 -4.927850196139e+06 2.212553237404e+04 -4.913382576929e+06 -2.158123372740e+06 -1.251673725807e-04 2.872905625669e-06 -1.242160064244e-04 5.728995065848e-05 3.999785381936e+06 2.762787225396e+06  1.820515227595e-04
2.398190000000e-03 0.000000000000e+00 0.000000000000e+00 -4.928539196084e+06 2.171825824112e+04 -4.914143721620e+06 -2.338350915728e+06 -1.223003885385e-04 2.821002412916e-06 -1.213536220265e-04 4.869079172332e-05 4.060344611144e+06 2.583294527604e+06  1.705897580005e-04
2.564860000000e-03 0.000000000000e+00 0.000000000000e+00 -4.929251349015e+06 2.130621590385e+04 -4.914928488263e+06 -2.518569446715e+06 -1.194337021732e-04 2.768487600906e-06 -1.184915672898e-04 4.009128535005e-05 4.120916427998e+06 2.403835764299e+06  1.591282777438e-04
2.731530000000e-03 0.000000000000e+00 0.000000000000e+00 -4.929986844046e+06 2.088944738130e+04 -4.915737084571e+06 -2.698779529206e+06 -1.165673069639e-04 2.715366517880e-06 -1.156298368604e-04 3.149139392499e-05 4.181501152608e+06 2.224410950544e+06  1.476671148206e-04
2.898200000000e-03 0.000000000000e+00 0.000000000000e+00 -4.930745867898e+06 2.046800327303e+04 -4.916569715141e+06 -2.878981731666e+06 -1.137011958086e-04 2.661645578106e-06 -1.127684247565e-04 2.289107842740e-05 4.242099104902e+06 2.045020227208e+06  1.362063258259e-04
3.064870000000e-03 0.000000000000e+00 0.000000000000e+00 -4.931528602441e+06 2.004194352697e+04 -4.917426578757e+06 -3.059176624190e+06 -1.108353610123e-04 2.607332379208e-06 -1.099073243415e-04 1.429029852580e-05 4.302710601796e+06 1.865663925816e+06  1.247460030334e-04
3.231540000000e-03 0.000000000000e+00 0.000000000000e+00 -4.932335224179e+06 1.961133808660e+04 -4.918307867734e+06 -3.239364773045e+06 -1.079697943708e-04 2.552435784023e-06 -1.070465283985e-04 5.689012843554e-06 4.363335954986e+06 1.686342678377e+06  1.132862937587e-04
3.398210000000e-03 0.000000000000e+00 0.000000000000e+00 -4.933165906084e+06 1.917626742120e+04 -4.919213769693e+06 -3.419546730350e+06 -1.051044874091e-04 2.496965987501e-06 -1.041860293656e-04 -2.912820455273e-06 4.423975468709e+06 1.507057609307e+06  1.018274330370e-04
3.564880000000e-03 0.000000000000e+00 0.000000000000e+00 -4.934020819123e+06 1.873682313902e+04 -4.920144469018e+06 -3.599723025364e+06 -1.022394315869e-04 2.440934594044e-06 -1.013258195370e-04 -1.151524316013e-05 4.484629437835e+06 1.327810670923e+06  9.036980040911e-05
3.731550000000e-03 0.000000000000e+00 0.000000000000e+00 -4.934900132454e+06 1.829310883050e+04 -4.921100146861e+06 -3.779894161124e+06 -9.937461837912e-05 2.384354723890e-06 -9.846589113272e-05 -2.011829680387e-05 4.545298146813e+06 1.148605276472e+06  7.891402510537e-05
3.898220000000e-03 0.000000000000e+00 0.000000000000e+00 -4.935804011634e+06 1.784524118046e+04 -4.922080979028e+06 -3.960060615187e+06 -9.651003922984e-05 2.327241153048e-06 -9.560623623335e-05 -2.872202271306e-05 4.605981868616e+06 9.694476245715e+05  6.746119762378e-05
4.064890000000e-03 0.000000000000e+00 0.000000000000e+00 -4.936732616487e+06 1.739335129896e+04 -4.923087133412e+06 -4.140222845489e+06 -9.364568541387e-05 2.269610479466e-06 -9.274684661657e-05 -3.732646231777e-05 4.666680865130e+06 7.903498212267e+05  5.601334031965e-05
4.231560000000e-03 0.000000000000e+00 0.000000000000e+00 -4.937686098159e+06 1.693758617249e+04 -4.924118766567e+06 -4.320381292514e+06 -9.078154793162e-05 2.211481300359e-06 -8.988771362794e-05 -4.593165730810e-05 4.727395385747e+06 6.113385003766e+05  4.457460270798e-05
4.398230000000e-03 0.000000000000e+00 0.000000000000e+00 -4.938664597922e+06 1.647811029239e+04 -4.925176021903e+06 -4.500536381311e+06 -8.791761746102e-05 2.152874400037e-06 -8.702882811019e-05 -5.453764972504e-05 4.788125667045e+06 4.324848372769e+05  3.315492478136e-05
4.564900000000e-03 0.000000000000e+00 0.000000000000e+00 -4.939668246380e+06 1.601510745062e+04 -4.926259027916e+06 -4.680688519210e+06 -8.505388438482e-05 2.093812913705e-06 -8.417018042066e-05 -6.314448182431e-05 4.848871931169e+06 2.540610979376e+05  2.178516892090e-05
4.731570000000e-03 0.000000000000e+00 0.000000000000e+00 -4.940697167514e+06 1.554878361478e+04 -4.927367898789e+06 -4.860838093194e+06 -8.219033895204e-05 2.034322359463e-06 -8.131176063418e-05 -7.175219572513e-05 4.909634386499e+06 7.884143650355e+04  1.062880096506e-05
4.898240000000e-03 0.000000000000e+00 0.000000000000e+00 -4.941751516690e+06 1.507941329610e+04 -4.928502709358e+06 -5.040985508755e+06 -7.932697318365e-05 1.974430956034e-06 -7.845356056949e-05 -8.036083025535e-05 4.970413244934e+06 1.096349133928e+05  3.798661165118e-06
5.064910000000e-03 0.000000000000e+00 0.000000000000e+00 -4.942830901092e+06 1.460726929407e+04 -4.929663123359e+06 -5.221130497373e+06 -7.646377707194e-05 1.914187597531e-06 -7.559556634158e-05 -8.897040620264e-05 5.031208173941e+06 2.862320035149e+05  1.337984656761e-05
5.231580000000e-03 0.000000000000e+00 0.000000000000e+00 -4.943936261371e+06 1.413234679661e+04 -4.930850228737e+06 -5.401274300546e+06 -7.360074727903e-05 1.853588575933e-06 -7.273777939106e-05 -9.758098998743e-05 5.092020263552e+06 4.646646495162e+05  2.463327637889e-05
5.398250000000e-03 0.000000000000e+00 0.000000000000e+00 -4.945067288613e+06 1.365510959627e+04 -4.932063572279e+06 -5.581416723117e+06 -7.073784898622e-05 1.792690907950e-06 -6.988016039963e-05 -1.061926535106e-04 5.152849194670e+06 6.433847938998e+05  3.602539655339e-05
5.564920000000e-03 0.000000000000e+00 0.000000000000e+00 -4.946224014392e+06 1.317588852311e+04 -4.933303159244e+06 -5.761557936563e+06 -6.787506311111e-05 1.731536126730e-06 -6.702268885587e-05 -1.148054525591e-04 5.213695036733e+06 8.221873124545e+05  4.745719021855e-05
5.731590000000e-03 0.000000000000e+00 0.000000000000e+00 -4.947406437529e+06 1.269504745706e+04 -4.934568954671e+06 -5.941698067047e+06 -6.501237043518e-05 1.670170285887e-06 -6.416534344860e-05 -1.234194418728e-04 5.274557819749e+06 1.001013656218e+06  5.890623244365e-05
5.898260000000e-03 0.000000000000e+00 0.000000000000e+00 -4.948614531540e+06 1.221298197433e+04 -4.935860893171e+06 -6.121837182661e+06 -6.214975196163e-05 1.608643547587e-06 -6.130810270426e-05 -1.320346742114e-04 5.335437535790e+06 1.179840825112e+06  7.036471080334e-05
6.064930000000e-03 0.000000000000e+00 0.000000000000e+00 -4.949848243075e+06 1.173012042606e+04 -4.937178877037e+06 -6.301975293813e+06 -5.928718889905e-05 1.547010283784e-06 -5.845094498166e-05 -1.406512002732e-04 5.396334137975e+06 1.358657960594e+06  8.182922175386e-05
6.231600000000e-03 0.000000000000e+00 0.000000000000e+00 -4.951107491672e+06 1.124692441551e+04 -4.938522775915e+06 -6.482112351755e+06 -5.642466272672e-05 1.485329127765e-06 -5.559384854297e-05 -1.492690684677e-04 5.457247539780e+06 1.537459266966e+06  9.329806528877e-05
6.398270000000e-03 0.000000000000e+00 0.000000000000e+00 -4.952392170970e+06 1.076388876106e+04 -4.939892428059e+06 -6.662248249380e+06 -5.356215527456e-05 1.423662967864e-06 -5.273679164122e-05 -1.578883247381e-04 5.518177616136e+06 1.716241357662e+06  1.047703122792e-04
6.564940000000e-03 0.000000000000e+00 0.000000000000e+00 -4.953702150396e+06 1.028154079620e+04 -4.941287642212e+06 -6.842382821310e+06 -5.069964883182e-05 1.362078859591e-06 -4.987975264301e-05 -1.665090123216e-04 5.579124204639e+06 1.895002102528e+06  1.162454228513e-04
6.731610000000e-03 0.000000000000e+00 0.000000000000e+00 -4.955037277543e+06 9.800438944541e+03 -4.942708200300e+06 -7.022515848180e+06 -4.783712620846e-05 1.300647846650e-06 -4.702271011141e-05 -1.751311716868e-04 5.640087108675e+06 2.073740074116e+06  1.277230702026e-04
6.898280000000e-03 0.000000000000e+00 0.000000000000e+00 -4.956397381963e+06 9.321170446135e+03 -4.944153861696e+06 -7.202647059484e+06 -4.497457086383e-05 1.239444674399e-06 -4.416564296575e-05 -1.837548403490e-04 5.701066101048e+06 2.252454255619e+06  1.392030512012e-04
7.064950000000e-03 0.000000000000e+00 0.000000000000e+00 -4.957782278549e+06 8.844348251398e+03 -4.945624367235e+06 -7.382776142123e+06 -4.211196692509e-05 1.178547397440e-06 -4.130853054052e-05 -1.923800529794e-04 5.762060929302e+06 2.431143883237e+06  1.506852380498e-04
7.231620000000e-03 0.000000000000e+00 0.000000000000e+00 -4.959191772467e+06 8.370607070322e+03 -4.947119444917e+06 -7.562902748595e+06 -3.924929925691e-05 1.118036879547e-06 -3.845135270520e-05 -2.010068414474e-04 5.823071321993e+06 2.609808353355e+06  1.621695503681e-04
7.398290000000e-03 0.000000000000e+00 0.000000000000e+00 -4.960625663706e+06 7.900598709731e+03 -4.948638815363e+06 -7.743026508593e+06 -3.638655345782e-05 1.057996202689e-06 -3.559408991891e-05 -2.096352350494e-04 5.884096995887e+06 2.788447170290e+06  1.736559385766e-04
7.564960000000e-03 0.000000000000e+00 0.000000000000e+00 -4.962083753383e+06 7.434986817672e+03 -4.950182199122e+06 -7.923147041375e+06 -3.352371589617e-05 9.985100002288e-07 -3.273672333085e-05 -2.182652607237e-04 5.945137664627e+06 2.967059914287e+06  1.851443734805e-04
7.731630000000e-03 0.000000000000e+00 0.000000000000e+00 -4.963565849551e+06 6.974441250568e+03 -4.951749323555e+06 -8.103263968096e+06 -3.066077372610e-05 9.396637416547e-07 -2.987923486580e-05 -2.268969432866e-04 6.006193047067e+06 3.145646222767e+06  1.966348395960e-04
7.898300000000e-03 0.000000000000e+00 0.000000000000e+00 -4.965071774139e+06 6.519632272215e+03 -4.953339930870e+06 -8.283376924377e+06 -2.779771493376e-05 8.815429954988e-07 -2.702160734126e-05 -2.355303056498e-04 6.067262876462e+06 3.324205778678e+06  2.081273306984e-04
8.064970000000e-03 0.000000000000e+00 0.000000000000e+00 -4.966601369494e+06 6.071224829218e+03 -4.954953785757e+06 -8.463485573903e+06 -2.493452835300e-05 8.242327015591e-07 -2.416382455337e-05 -2.441653691031e-04 6.128346909718e+06 3.502738305406e+06  2.196218469118e-04
8.231640000000e-03 0.000000000000e+00 0.000000000000e+00 -4.968154504869e+06 5.629873124240e+03 -4.956590682899e+06 -8.643589617435e+06 -2.207120375517e-05 7.678164806588e-07 -2.130587143311e-05 -2.528021533768e-04 6.189444935068e+06 3.681243560589e+06  2.311183924459e-04
8.398310000000e-03 0.000000000000e+00 0.000000000000e+00 -4.969731081796e+06 5.196215704131e+03 -4.958250453274e+06 -8.823688804786e+06 -1.920773185724e-05 7.123760096043e-07 -1.844773411454e-05 -2.614406768839e-04 6.250556779952e+06 3.859721336361e+06  2.426169742269e-04
8.564980000000e-03 0.000000000000e+00 0.000000000000e+00 -4.971331038754e+06 4.770871214256e+03 -4.959932969609e+06 -9.003782943149e+06 -1.634410437131e-05 6.579904806563e-07 -1.558940003543e-05 -2.700809568038e-04 6.311682317171e+06 4.038171458285e+06  2.541176007641e-04
8.731650000000e-03 0.000000000000e+00 0.000000000000e+00 -4.972954354571e+06 4.354434919032e+03 -4.961638150417e+06 -9.183871904392e+06 -1.348031403485e-05 6.047361582766e-07 -1.273085800882e-05 -2.787230091529e-04 6.372821469793e+06 4.216593785728e+06  2.656202813256e-04
8.898320000000e-03 0.000000000000e+00 0.000000000000e+00 -4.974601050322e+06 3.947476046175e+03 -4.963365962357e+06 -9.363955631993e+06 -1.061635460405e-05 5.526860405031e-07 -9.872098246307e-06 -2.873668488830e-04 6.433974214891e+06 4.394988214247e+06  2.771250253976e-04
9.064990000000e-03 0.000000000000e+00 0.000000000000e+00 -4.976271190026e+06 3.550535921911e+03 -4.965116421213e+06 -9.544034145977e+06 -7.752220846077e-06 5.019096207979e-07 -7.013112369423e-06 -2.960124899175e-04 6.495140585739e+06 4.573354677838e+06  2.886318422396e-04
9.231660000000e-03 0.000000000000e+00 0.000000000000e+00 -4.977964879913e+06 3.164126861435e+03 -4.966889591289e+06 -9.724107546478e+06 -4.887908512231e-06 4.524727458430e-07 -4.153893391193e-06 -3.046599451648e-04 6.556320672560e+06 4.751693151750e+06  3.001407405528e-04
9.398330000000e-03 0.000000000000e+00 0.000000000000e+00 -4.979682266576e+06 2.788731717511e+03 -4.968685583542e+06 -9.904176018029e+06 -2.023414267270e-06 4.044375569063e-07 -1.294435644585e-06 -3.133092266033e-04 6.617514622715e+06 4.930003657513e+06  3.116517283499e-04
9.565000000000e-03 0.000000000000e+00 0.000000000000e+00 -4.981423533595e+06 2.424803983971e+03 -4.970504552059e+06 -1.008423983153e+07 8.412643875065e-07 3.578625016074e-07 1.565265303170e-06 -3.219603452971e-04 6.678722639062e+06 5.108286267489e+06  3.231648128277e-04
9.731670000000e-03 0.000000000000e+00 0.000000000000e+00 -4.983188895199e+06 2.072768507178e+03 -4.972346687398e+06 -1.026429935250e+07 3.706129175531e-06 3.128024205247e-07 4.425212729871e-06 -3.306133113936e-04 6.739944978367e+06 5.286541118902e+06  3.346800002559e-04
9.898340000000e-03 0.000000000000e+00 0.000000000000e+00 -4.984978582454e+06 1.733031262903e+03 -4.974212198743e+06 -1.044435501508e+07 6.571180823851e-06 2.693097991925e-07 7.285408796615e-06 -3.392681329575e-04 6.801181932091e+06 5.464768403122e+06  3.461972945788e-04
1.006501000000e-02 0.000000000000e+00 0.000000000000e+00 -4.986792844635e+06 1.405972610899e+03 -4.976101320354e+06 -1.062440732693e+07 9.436419246343e-06 2.274339103438e-07 1.014585441233e-05 -3.479248161449e-04 6.862433830639e+06 5.642968366211e+06  3.577166974919e-04
1.023168000000e-02 0.000000000000e+00 0.000000000000e+00 -4.988632036948e+06 1.091908149288e+03 -4.978014408724e+06 -1.080445698306e+07 1.230184349318e-05 1.872157814046e-07 1.300654856637e-05 -3.565833691779e-04 6.923701142909e+06 5.821141329815e+06  3.692382119535e-04
1.039835000000e-02 0.000000000000e+00 0.000000000000e+00 -4.990496443046e+06 7.911653897982e+02 -4.979951741591e+06 -1.098450472303e+07 1.516745419704e-05 1.486980194321e-07 1.586749229463e-05 -3.652438004263e-04 6.984984302557e+06 5.999287737470e+06  3.807618434162e-04
1.056502000000e-02 0.000000000000e+00 0.000000000000e+00 -4.992386374155e+06 5.040432583234e+02 -4.981913630457e+06 -1.116455138817e+07 1.803325138931e-05 1.119196192197e-07 1.872868562991e-05 -3.739061173656e-04 7.046283797595e+06 6.177408105593e+06  3.922875960875e-04
1.073169000000e-02 0.000000000000e+00 0.000000000000e+00 -4.994302151388e+06 2.308178574326e+02 -4.983900400876e+06 -1.134459792747e+07 2.089923508014e-05 7.691669624090e-08 2.159012831218e-05 -3.825703273065e-04 7.107600159912e+06 6.355503047937e+06  4.038154742509e-04
1.089836000000e-02 0.000000000000e+00 0.000000000000e+00 -4.996244097768e+06 -2.825457190420e+01 -4.985912383656e+06 -1.152464539762e+07 2.376540545282e-05 4.372286226047e-08 2.445182003650e-05 -3.912364375095e-04 7.168933959681e+06 6.533573283775e+06  4.153454825557e-04
1.106503000000e-02 0.000000000000e+00 0.000000000000e+00 -4.998212535158e+06 -2.729362023852e+02 -4.987949911406e+06 -1.170469496558e+07 2.663176295004e-05 1.236940636519e-08 2.731376056391e-05 -3.999044552574e-04 7.230285804048e+06 6.711619643603e+06  4.268776261478e-04
1.123170000000e-02 0.000000000000e+00 0.000000000000e+00 -5.000207780155e+06 -5.030062426468e+02 -4.990013314076e+06 -1.188474791093e+07 2.949830838882e-05 -1.711453313830e-08 3.017594985958e-05 -4.085743879450e-04 7.291656335054e+06 6.889643075607e+06  4.384119108511e-04
1.139837000000e-02 0.000000000000e+00 0.000000000000e+00 -5.002230141945e+06 -7.182596193737e+02 -4.992102916445e+06 -1.206480562713e+07 3.236504299401e-05 -4.470180457005e-08 3.303838814984e-05 -4.172462430499e-04 7.353046228506e+06 7.067644649163e+06  4.499483431551e-04
1.156504000000e-02 0.000000000000e+00 0.000000000000e+00 -5.004279918624e+06 -9.185057469872e+02 -4.994219034092e+06 -1.224486962455e+07 3.523196850795e-05 -7.036709000848e-08 3.590107605486e-05 -4.259200282329e-04 7.414456192421e+06 7.245625561597e+06  4.614869304096e-04
1.173171000000e-02 0.000000000000e+00 0.000000000000e+00 -5.006357394579e+06 -1.103567431773e+03 -4.996361970434e+06 -1.242494153116e+07 3.809908722554e-05 -9.408676967698e-08 3.876401464638e-05 -4.345957512818e-04 7.475886965391e+06 7.423587141578e+06  4.730276807934e-04
1.189838000000e-02 0.000000000000e+00 0.000000000000e+00 -5.008462837616e+06 -1.273279900716e+03 -4.998532013507e+06 -1.260502309426e+07 4.096640205180e-05 -1.158388023241e-07 4.162720552783e-05 -4.432734201060e-04 7.537339315128e+06 7.601530853820e+06  4.845706033575e-04
1.206505000000e-02 0.000000000000e+00 0.000000000000e+00 -5.010596495773e+06 -1.427489999927e+03 -5.000729432440e+06 -1.278511618219e+07 4.383391656590e-05 -1.356026273370e-07 4.449065092055e-05 -4.519530427291e-04 7.598814036802e+06 7.779458304071e+06  4.961157080762e-04
1.223172000000e-02 0.000000000000e+00 0.000000000000e+00 -5.012758594220e+06 -1.566055571792e+03 -5.002954474029e+06 -1.296522278482e+07 4.670163505845e-05 -1.533590897524e-07 4.735435372297e-05 -4.606346272081e-04 7.660311951023e+06 7.957371242808e+06  5.076630057989e-04
1.239839000000e-02 0.000000000000e+00 0.000000000000e+00 -5.014949332032e+06 -1.688845020855e+03 -5.005207359184e+06 -1.314534501512e+07 4.956956258699e-05 -1.690903894492e-07 5.021831758738e-05 -4.693181815965e-04 7.721833902114e+06 8.135271570161e+06  5.192125082663e-04
1.256506000000e-02 0.000000000000e+00 0.000000000000e+00 -5.017168878470e+06 -1.795737096851e+03 -5.007488278899e+06 -1.332548510972e+07 5.243770502474e-05 -1.827800581651e-07 5.308254698935e-05 -4.780037138562e-04 7.783380755696e+06 8.313161340249e+06  5.307642280692e-04
1.273173000000e-02 0.000000000000e+00 0.000000000000e+00 -5.019417369693e+06 -1.886620908604e+03 -5.009797390672e+06 -1.350564542907e+07 5.530606908513e-05 -1.944129660977e-07 5.594704727209e-05 -4.866912317238e-04 7.844953396477e+06 8.491042764798e+06  5.423181785388e-04
1.289840000000e-02 0.000000000000e+00 0.000000000000e+00 -5.021694905019e+06 -1.961396190732e+03 -5.012134814480e+06 -1.368582845820e+07 5.817466236321e-05 -2.039753609093e-07 5.881182470629e-05 -4.953807425973e-04 7.906552725898e+06 8.668918217694e+06  5.538743736747e-04
1.306507000000e-02 0.000000000000e+00 0.000000000000e+00 -5.024001543591e+06 -2.019973860795e+03 -5.014500629205e+06 -1.386603680600e+07 6.104349333338e-05 -2.114549439639e-07 6.167688650498e-05 -5.040722533167e-04 7.968179659597e+06 8.846790237702e+06  5.654328279234e-04
1.323174000000e-02 0.000000000000e+00 0.000000000000e+00 -5.026337300596e+06 -2.062276881979e+03 -5.016894868618e+06 -1.404627320461e+07 6.391257135565e-05 -2.168409857391e-07 6.454224084480e-05 -5.127657699411e-04 8.029835124608e+06 9.024661531728e+06  5.769935559614e-04
1.339841000000e-02 0.000000000000e+00 0.000000000000e+00 -5.028702143659e+06 -2.088241468382e+03 -5.019317517593e+06 -1.422654050911e+07 6.678190667192e-05 -2.201244851779e-07 6.740789687538e-05 -5.214612975049e-04 8.091520056789e+06 9.202534978156e+06  5.885565724477e-04
1.356508000000e-02 0.000000000000e+00 0.000000000000e+00 -5.031095989427e+06 -2.097818668473e+03 -5.021768508531e+06 -1.440684169425e+07 6.965151033826e-05 -2.212983775439e-07 7.027386466226e-05 -5.301588395935e-04 8.153235397402e+06 9.380413627066e+06  6.001218915303e-04
1.373175000000e-02 0.000000000000e+00 0.000000000000e+00 -5.033518699115e+06 -2.090976321993e+03 -5.024247716796e+06 -1.458717985495e+07 7.252139424296e-05 -2.203577901831e-07 7.314015521304e-05 -5.388583981076e-04 8.214982090288e+06 9.558300705245e+06  6.116895266275e-04
1.389842000000e-02 0.000000000000e+00 0.000000000000e+00 -5.035970073932e+06 -2.067701460342e+03 -5.026754956069e+06 -1.476755820049e+07 7.539157101218e-05 -2.173003551850e-07 7.600678038855e-05 -5.475599726818e-04 8.276761076831e+06 9.736199614897e+06  6.232594897491e-04
1.406509000000e-02 0.000000000000e+00 0.000000000000e+00 -5.038449850310e+06 -2.028003073033e+03 -5.029289973528e+06 -1.494798005183e+07 7.826205396581e-05 -2.121265690074e-07 7.887375286241e-05 -5.562635602406e-04 8.338573291890e+06 9.914113935809e+06  6.348317910051e-04
1.423176000000e-02 0.000000000000e+00 0.000000000000e+00 -5.040957694098e+06 -1.971915284850e+03 -5.031852444040e+06 -1.512844883622e+07 8.113285705166e-05 -2.048402047854e-07 8.174108605686e-05 -5.649691544220e-04 8.400419658119e+06 1.009204742570e+07  6.464064379592e-04
1.439843000000e-02 0.000000000000e+00 0.000000000000e+00 -5.043493194918e+06 -1.899500858406e+03 -5.034441964506e+06 -1.530896807950e+07 8.400399473271e-05 -1.954487663665e-07 8.460879403078e-05 -5.736767448713e-04 8.462301079643e+06 1.027000401819e+07  6.579834348056e-04
1.456510000000e-02 0.000000000000e+00 0.000000000000e+00 -5.046055859261e+06 -1.810854925440e+03 -5.037058046968e+06 -1.548954139982e+07 8.687548193727e-05 -1.839639716197e-07 8.747689143039e-05 -5.823863166433e-04 8.524218435348e+06 1.044798782334e+07  6.695627817165e-04
1.473177000000e-02 0.000000000000e+00 0.000000000000e+00 -5.048645103967e+06 -1.706108838168e+03 -5.039700112090e+06 -1.567017249879e+07 8.974733396578e-05 -1.704022510282e-07 9.034539339699e-05 -5.910978495006e-04 8.586172571614e+06 1.062600312537e+07  6.811444740423e-04
1.489844000000e-02 0.000000000000e+00 0.000000000000e+00 -5.051260249470e+06 -1.585433916482e+03 -5.042367482378e+06 -1.585086515238e+07 9.261956642030e-05 -1.547852326881e-07 9.321431549898e-05 -5.998113172661e-04 8.648164294743e+06 1.080405438029e+07  6.927285015897e-04
1.506511000000e-02 0.000000000000e+00 0.000000000000e+00 -5.053900513304e+06 -1.449044833713e+03 -5.045059375621e+06 -1.603162320511e+07 9.549219521941e-05 -1.371401805585e-07 9.608367375133e-05 -6.085266874485e-04 8.710194364677e+06 1.098214621651e+07  7.043148482584e-04
1.523178000000e-02 0.000000000000e+00 0.000000000000e+00 -5.056565004893e+06 -1.297202342482e+03 -5.047774899591e+06 -1.621245056074e+07 9.836523657399e-05 -1.175003474737e-07 9.895348459890e-05 -6.172439208358e-04 8.772263488407e+06 1.116028343090e+07  7.159034916082e-04
1.539845000000e-02 0.000000000000e+00 0.000000000000e+00 -5.059252722594e+06 -1.130214923679e+03 -5.050513048916e+06 -1.639335117544e+07 1.012387070149e-04 -9.590518913533e-08 1.018237649553e-04 -6.259629713882e-04 8.834372315648e+06 1.133847098487e+07  7.274944027789e-04
1.556512000000e-02 0.000000000000e+00 0.000000000000e+00 -5.061962554021e+06 -9.484389689122e+02 -5.053272705186e+06 -1.657432905179e+07 1.041126234441e-04 -7.240038873753e-08 1.046945322694e-04 -6.346837864118e-04 8.896521436999e+06 1.151671399817e+07  7.390875467158e-04
1.573179000000e-02 0.000000000000e+00 0.000000000000e+00 -5.064693280584e+06 -7.522771355735e+02 -5.056052641175e+06 -1.675538822913e+07 1.069870031338e-04 -4.703764552209e-08 1.075658045455e-04 -6.434063068473e-04 8.958711383629e+06 1.169501773482e+07  7.506828824612e-04
1.589846000000e-02 0.000000000000e+00 0.000000000000e+00 -5.067443585173e+06 -5.421745131646e+02 -5.058851528152e+06 -1.693653278141e+07 1.098618639251e-04 -1.987418037648e-08 1.104376005667e-04 -6.521304683554e-04 9.020942631579e+06 1.187338759347e+07  7.622803644448e-04
1.606513000000e-02 0.000000000000e+00 0.000000000000e+00 -5.070212064812e+06 -3.186125518825e+02 -5.061667948079e+06 -1.711776681081e+07 1.127372243985e-04 9.028048228654e-09 1.133099400954e-04 -6.608562026342e-04 9.083215607900e+06 1.205182908850e+07  7.738799439801e-04
1.623180000000e-02 0.000000000000e+00 0.000000000000e+00 -5.072997245743e+06 -8.210062023659e+01 -5.064500408183e+06 -1.729909444739e+07 1.156131042934e-04 3.960343565764e-08 1.161828443264e-04 -6.695834396368e-04 9.145530700438e+06 1.223034783489e+07  7.854815719123e-04
1.639847000000e-02 0.000000000000e+00 0.000000000000e+00 -5.075797603602e+06 1.668344910818e+02 -5.067347360560e+06 -1.748051984593e+07 1.184895249574e-04 7.178408951744e-08 1.190563363731e-04 -6.783121102009e-04 9.207888270030e+06 1.240894952513e+07  7.970852017117e-04
1.656514000000e-02 0.000000000000e+00 0.000000000000e+00 -5.078611587055e+06 4.276608399980e+02 -5.070207225219e+06 -1.766204718105e+07 1.213665099073e-04 1.055014196753e-07 1.219304418659e-04 -6.870421492345e-04 9.270288664443e+06 1.258763990096e+07  8.086907932361e-04