 TITLE = "Time curves in points"
 VARIABLES = "TIME "  "DISPLACEMENT_X1"  "DISPLACEMENT_Y1"  "STRESS_XX"  "STRESS_XY"  "STRESS_YY"  "STRESS_ZZ"  "STRAIN_XX"  "STRAIN_XY"  "STRAIN_YY"  "STRAIN_ZZ"  p_(1st_Invariant)  q_(2nd_Invariant)   Effective_Strain
 ZONE T="POINT=POINT2"
0.000000000000e+00 0.000000000000e+00 0.000000000000e+00 0.000000000000e+00 0.000000000000e+00 0.000000000000e+00 0.000000000000e+00 0.000000000000e+00 0.000000000000e+00 0.000000000000e+00 0.000000000000e+00 -0.000000000000e+00 0.000000000000e+00  0.000000000000e+00
2.314800000000e-05 -4.661214953710e-07 1.878504671235e-06 -4.810462286415e+05 -7.977280582973e-06 -4.810462286728e+05 -1.727448640547e-05 -1.553738317698e-05 -1.023921661073e-15 -1.553738317902e-05 1.565420560737e-05 3.206974857772e+05 4.810462286399e+05  3.119158878536e-05
4.629600000000e-05 -9.443396778000e-07 3.804907612718e-06 -9.747280129112e+05 -3.295216950093e+03 -9.744939716308e+05 -6.476627326245e+02 -3.149520565447e-05 -4.138129960785e-07 -3.146242698665e-05 3.169373451547e-05 6.499565490915e+05 9.739800735802e+05  6.317662311764e-05
6.944400000000e-05 -1.423908936963e-06 5.736719222361e-06 -1.469320533667e+06 -6.771486596818e+03 -1.468997947230e+06 -1.357513347662e+03 -4.748912936276e-05 -8.510190139307e-07 -4.743204826434e-05 4.777190363413e-05 9.798919980815e+05 1.467848611819e+06  9.524391193967e-05
9.259200000000e-05 -1.903745182152e-06 7.669454480166e-06 -1.964230298226e+06 -1.014251918829e+04 -1.963688506091e+06 -2.107162092858e+03 -6.350066592214e-05 -1.275318063368e-06 -6.341098864597e-05 6.386242851093e-05 1.310008655470e+06 1.961930947840e+06  1.273374398937e-04
1.157400000000e-04 -2.383786230912e-06 9.602862207210e-06 -2.459383901499e+06 -1.337362562335e+04 -2.458518308631e+06 -2.897781559610e+03 -7.952609515889e-05 -1.682204269206e-06 -7.939727309122e-05 7.996241608930e-05 1.640266663896e+06 2.456162667949e+06  1.594507623347e-04
1.388880000000e-04 -2.864074339544e-06 1.153710304344e-05 -2.954748085141e+06 -1.646790648543e+04 -2.953519872539e+06 -3.725221425371e+03 -9.556264165251e-05 -2.072003410534e-06 -9.539234738633e-05 9.607133601691e-05 1.970664393035e+06 2.950546821022e+06  1.915825039620e-04
1.620360000000e-04 -3.344658424622e-06 1.347236199200e-05 -3.450301720463e+06 -1.943436663824e+04 -3.448741568080e+06 -4.586950758299e+03 -1.116075056490e-04 -2.445807179931e-06 -1.113978761258e-04 1.121887041547e-04 2.301210079767e+06 3.445099411040e+06  2.237315782194e-04
1.851840000000e-04 -3.825585570637e-06 1.540880943271e-05 -3.946029451685e+06 -2.228171757301e+04 -3.944241969061e+06 -5.482488083672e+03 -1.276575312798e-04 -2.804677109040e-06 -1.274154709428e-04 1.283137649463e-04 2.631917969610e+06 3.939842551807e+06  2.558964658367e-04
2.083320000000e-04 -4.306901623859e-06 1.734660011482e-05 -4.441920224773e+06 -2.501736241562e+04 -4.440090501616e+06 -6.412803297797e+03 -1.437090908935e-04 -3.149513340097e-06 -1.434467132947e-04 1.444454636826e-04 2.962807843229e+06 4.434804537798e+06  2.880751102884e-04
2.314800000000e-04 -4.788652081872e-06 1.928587705057e-05 -4.937967136792e+06 -2.764746027027e+04 -4.936368115694e+06 -7.379718576233e+03 -1.597580623907e-04 -3.481062702223e-06 -1.594931840288e-04 1.605824691111e-04 3.293904990354e+06 4.930020677280e+06  3.202649347037e-04
3.981500000000e-04 -4.711723905377e-06 1.829839139267e-05 -4.950916172003e+06 -3.013394512512e+04 -4.946592317659e+06 -1.880009980805e+05 -1.573537398577e-04 -3.794949603381e-06 -1.569118674952e-04 1.524089585993e-04 3.361836495914e+06 4.761040817109e+06  3.096117794249e-04
5.648200000000e-04 -4.625698975677e-06 1.727051156892e-05 -4.950824769959e+06 -3.017547878744e+04 -4.946363569301e+06 -3.686327179200e+05 -1.544941151555e-04 -3.800104225570e-06 -1.540436064624e-04 1.438649295452e-04 3.421940352393e+06 4.580261292158e+06  2.982066926577e-04
7.314900000000e-04 -4.539690629195e-06 1.624280523755e-05 -4.950554740866e+06 -3.022151309168e+04 -4.946011305205e+06 -5.489816084248e+05 -1.516316206775e-04 -3.805866732086e-06 -1.511759729808e-04 1.353273127017e-04 3.481849218165e+06 4.399614578376e+06  2.868071455677e-04
8.981600000000e-04 -4.453678626567e-06 1.521508654688e-05 -4.950290709632e+06 -3.026683015435e+04 -4.945674316020e+06 -7.293217143602e+05 -1.487684386287e-04 -3.811544629025e-06 -1.483082379518e-04 1.267881344869e-04 3.541762246671e+06 4.218988404684e+06  2.754058987527e-04
1.064830000000e-03 -4.367662773158e-06 1.418734453394e-05 -4.950032346180e+06 -3.031145716537e+04 -4.945353383753e+06 -9.096555062335e+05 -1.459044941713e-04 -3.817140106662e-06 -1.454403977485e-04 1.182472530580e-04 3.601680412055e+06 4.038380675883e+06  2.640028044256e-04
1.231500000000e-03 -4.281642866582e-06 1.315957358007e-05 -4.949779440785e+06 -3.035548721124e+04 -4.945048237100e+06 -1.089982362549e+06 -1.430397852321e-04 -3.822664231872e-06 -1.425724469264e-04 1.097046621875e-04 3.661603346811e+06 3.857791952672e+06  2.525978923709e-04
1.398170000000e-03 -4.195618728219e-06 1.213176831308e-05 -4.949531772243e+06 -3.039901021798e+04 -4.944758631104e+06 -1.270301736014e+06 -1.401743082097e-04 -3.828127683542e-06 -1.397043808880e-04 1.011603544756e-04 3.721530713120e+06 3.677222764205e+06  2.411911983845e-04
1.564840000000e-03 -4.109590187978e-06 1.110392360088e-05 -4.949289123168e+06 -3.044211405094e+04 -4.944484320905e+06 -1.450613083555e+06 -1.373080600662e-04 -3.833540896599e-06 -1.368361953339e-04 9.261432398754e-05 3.781462175876e+06 3.496673681751e+06  2.297827695640e-04
1.731510000000e-03 -4.023557077279e-06 1.007603453439e-05 -4.949051279996e+06 -3.048488512910e+04 -4.944225060800e+06 -1.630915867979e+06 -1.344410381558e-04 -3.838914139999e-06 -1.339678860319e-04 8.406656567462e-05 3.841397402925e+06 3.316145328649e+06  2.183726659935e-04
1.898180000000e-03 -3.937519230934e-06 9.048096361859e-06 -4.948818033131e+06 -3.052740990772e+04 -4.943980608602e+06 -1.811209556714e+06 -1.315732400222e-04 -3.844257705199e-06 -1.310994488803e-04 7.551707501960e-05 3.901336066149e+06 3.135638400074e+06  2.069609636072e-04
2.064850000000e-03 -3.851476495972e-06 8.020104380017e-06 -4.948589177019e+06 -3.056977684909e+04 -4.943750734839e+06 -1.991493620090e+06 -1.287046631154e-04 -3.849582156270e-06 -1.282308802035e-04 6.696584775873e-05 3.961277843982e+06 2.955153691643e+06  1.955477583607e-04
2.231520000000e-03 -3.765428741362e-06 6.992053858108e-06 -4.948364510264e+06 -3.061207797332e+04 -4.943535232982e+06 -2.171767529769e+06 -1.258353044800e-04 -3.854898525929e-06 -1.253621770807e-04 5.841287957780e-05 4.021222424338e+06 2.774692137022e+06  1.841331720303e-04
2.398190000000e-03 -3.679375862945e-06 5.963939995293e-06 -4.948143835711e+06 -3.065440942900e+04 -4.943333926755e+06 -2.352030757708e+06 -1.229651604707e-04 -3.860218386314e-06 -1.224933375219e-04 4.985816571170e-05 4.081169506725e+06 2.594254856392e+06  1.727173602630e-04
2.564860000000e-03 -3.593317776866e-06 4.935757915970e-06 -4.947926960926e+06 -3.069687129460e+04 -4.943146669571e+06 -2.532282775714e+06 -1.200942266026e-04 -3.865553821826e-06 -1.196243602529e-04 4.130170039551e-05 4.141118802070e+06 2.413843220145e+06  1.613005239605e-04
2.731530000000e-03 -3.507254404144e-06 3.907502694302e-06 -4.947713698854e+06 -3.073956746030e+04 -4.942973337527e+06 -2.712523055035e+06 -1.172224975154e-04 -3.870917412331e-06 -1.167552441965e-04 3.274347622686e-05 4.201070030472e+06 2.233458940070e+06  1.498829260190e-04
2.898200000000e-03 -3.421185670268e-06 2.879169307187e-06 -4.947503867953e+06 -3.078260667661e+04 -4.942813832603e+06 -2.892751065210e+06 -1.143499667653e-04 -3.876322364727e-06 -1.138859884592e-04 2.418348372522e-05 4.261022921922e+06 2.053104215609e+06  1.384649171819e-04
3.064870000000e-03 -3.335111503880e-06 1.850752593517e-06 -4.947297292629e+06 -3.082610339426e+04 -4.942668085558e+06 -3.072966273182e+06 -1.114766266250e-04 -3.881782617908e-06 -1.110165922893e-04 1.562171086024e-05 4.320977217123e+06 1.872781962633e+06  1.270469760865e-04
3.231540000000e-03 -3.249031833129e-06 8.222472456535e-07 -4.947093804182e+06 -3.087017811503e+04 -4.942536057642e+06 -3.253168142833e+06 -1.086024679143e-04 -3.887312885616e-06 -1.081470549582e-04 7.058142531871e-06 4.380932668219e+06 1.692496185845e+06  1.156297733010e-04
3.398210000000e-03 -3.162946583083e-06 -2.063521794894e-07 -4.946893241894e+06 -3.091495767840e+04 -4.942417743276e+06 -3.433356134751e+06 -1.057274798154e-04 -3.892928691159e-06 -1.052773756771e-04 -1.507239953175e-06 4.440889039974e+06 1.512252616258e+06  1.042142778644e-04
3.564880000000e-03 -3.076855672685e-06 -1.235051235604e-06 -4.946695454292e+06 -3.096057550796e+04 -4.942313172665e+06 -3.613529706379e+06 -1.028516496863e-04 -3.898646396993e-06 -1.024075534996e-04 -1.007445943239e-05 4.500846111112e+06 1.332059863423e+06  9.280194280083e-05
3.731550000000e-03 -2.990759013000e-06 -2.263855561613e-06 -4.946500300535e+06 -3.100717196895e+04 -4.942222415550e+06 -3.793688312431e+06 -9.997496285478e-05 -3.904483248255e-06 -9.953758726726e-05 -1.864354344299e-05 4.560803676172e+06 1.151931646090e+06  8.139504697400e-05
3.898220000000e-03 -2.904656505660e-06 -3.292770867394e-06 -4.946307651985e+06 -3.105489476519e+04 -4.942145585448e+06 -3.973831405817e+06 -9.709740239931e-05 -3.910457420775e-06 -9.666747556356e-05 -2.721452480528e-05 4.620761547750e+06 9.718914964047e+05  6.999737084483e-05
4.064890000000e-03 -2.818548042123e-06 -4.321802933766e-06 -4.946117394037e+06 -3.110389929520e+04 -4.942082844817e+06 -4.153958439164e+06 -9.421894891188e-05 -3.916588062604e-06 -9.379721669435e-05 -3.578744222983e-05 4.680719559339e+06 7.919838639355e+05  5.861565804857e-05
4.231560000000e-03 -2.732433501856e-06 -5.350957609044e-06 -4.945929428255e+06 -3.115434888781e+04 -4.942034409926e+06 -4.334068867447e+06 -9.133958025582e-05 -3.922895317025e-06 -9.092680863188e-05 -4.436234098865e-05 4.740677568543e+06 6.123047356548e+05  4.726317637700e-05
4.398230000000e-03 -2.646312750621e-06 -6.380240807200e-06 -4.945743674845e+06 -3.120641492813e+04 -4.942000555968e+06 -4.514162151515e+06 -8.845927131296e-05 -3.929400323222e-06 -8.805624896074e-05 -5.293927362005e-05 4.800635460776e+06 4.331081646310e+05  3.596995789266e-05
4.564900000000e-03 -2.560185636833e-06 -7.409658502339e-06 -4.945560075532e+06 -3.126027681266e+04 -4.941981620366e+06 -4.694237763224e+06 -8.557799372690e-05 -3.936125170671e-06 -8.518553475829e-05 -6.151830070534e-05 4.860593153041e+06 2.553585304970e+05  2.482054902904e-05
4.731570000000e-03 -2.474051988286e-06 -8.439216716973e-06 -4.945378596959e+06 -3.131612160222e+04 -4.941978000183e+06 -4.874295192147e+06 -8.269571558762e-05 -3.943092728757e-06 -8.231466248952e-05 -7.009949162294e-05 4.920550596430e+06 8.811802833441e+04  1.416524515384e-05
4.898240000000e-03 -2.387911627275e-06 -9.468921316144e-06 -4.945199239893e+06 -3.137413698451e+04 -4.941990053943e+06 -5.054333966647e+06 -7.981240121783e-05 -3.950325278660e-06 -7.944362853154e-05 -7.868292335300e-05 4.980507753494e+06 1.233852929023e+05  6.914506661840e-06
5.064910000000e-03 -2.301764672235e-06 -1.049877583741e-05 -4.945021851332e+06 -3.143458959000e+04 -4.942018626724e+06 -5.234353646838e+06 -7.692802529263e-05 -3.957851401631e-06 -7.657243903473e-05 -8.726866188223e-05 5.040464708298e+06 2.958973401119e+05  1.255889955714e-05
5.231580000000e-03 -2.215610500321e-06 -1.152878938050e-05 -4.944846951849e+06 -3.149756812683e+04 -4.942064467847e+06 -5.414353751177e+06 -7.404253070447e-05 -3.965695774900e-06 -7.370107571792e-05 -9.585684159563e-05 5.100421723624e+06 4.740538602138e+05  2.303496440920e-05
5.398250000000e-03 -2.129448339334e-06 -1.255897210653e-05 -4.944674462447e+06 -3.156331891139e+04 -4.942128177723e+06 -5.594333981467e+06 -7.115585239520e-05 -3.973887449317e-06 -7.082951513534e-05 -1.044476048713e-04 5.160378873879e+06 6.532280778030e+05  3.415679965392e-05
5.564920000000e-03 -2.043277567480e-06 -1.358933278590e-05 -4.944504537454e+06 -3.163206711021e+04 -4.942210632338e+06 -5.774294126850e+06 -6.826792719382e-05 -3.982452694706e-06 -6.795773904367e-05 -1.130411000768e-04 5.220336432214e+06 8.327432054746e+05  4.545548506798e-05
5.731590000000e-03 -1.957097529077e-06 -1.461988028513e-05 -4.944337386439e+06 -3.170403491620e+04 -4.942312811387e+06 -5.954234097342e+06 -6.537868683791e-05 -3.991418938181e-06 -6.508572804453e-05 -1.216374899560e-04 5.280294765056e+06 1.012400866640e+06  5.682793802023e-05
5.898260000000e-03 -1.870907525981e-06 -1.565062363517e-05 -4.944173278914e+06 -3.177944302342e+04 -4.942435817009e+06 -6.134153970582e+06 -6.248805740519e-05 -4.000813796519e-06 -6.221346130167e-05 -1.302369534378e-04 5.340254355502e+06 1.192121810233e+06  6.823936864176e-05
6.064930000000e-03 -1.784706814365e-06 -1.668157205573e-05 -4.944012549978e+06 -3.185850753324e+04 -4.942580883466e+06 -6.314054037426e+06 -5.959595900516e-05 -4.010664497664e-06 -5.934091640117e-05 -1.388396867575e-04 5.400215823623e+06 1.371868092428e+06  7.967496627321e-05
6.231600000000e-03 -1.698494602136e-06 -1.771273497350e-05 -4.943855605277e+06 -3.194143551628e+04 -4.942749384274e+06 -6.493934855152e+06 -5.670230549871e-05 -4.020997277632e-06 -5.646806921837e-05 -1.474459044562e-04 5.460179948234e+06 1.551619283442e+06  9.112747290911e-05
6.398270000000e-03 -1.612270046150e-06 -1.874412204427e-05 -4.943702924659e+06 -3.202841916005e+04 -4.942942836612e+06 -6.673797306776e+06 -5.380700425670e-05 -4.031836634889e-06 -5.359489376458e-05 -1.560558402365e-04 5.520147689349e+06 1.731363518078e+06  1.025930047370e-04
6.564940000000e-03 -1.526032249143e-06 -1.977574316936e-05 -4.943555063606e+06 -3.211962795048e+04 -4.943162902213e+06 -6.853642662460e+06 -5.090995596276e-05 -4.043204346397e-06 -5.072136200985e-05 -1.646697476170e-04 5.580120209426e+06 1.911093630150e+06  1.140693765998e-04
6.731610000000e-03 -1.439780257258e-06 -2.080760851830e-05 -4.943412651403e+06 -3.221519818461e+04 -4.943411384300e+06 -7.033472635433e+06 -4.801105445583e-05 -4.055118146126e-06 -4.784744371322e-05 -1.732879002975e-04 5.640098890379e+06 2.090805309480e+06  1.255553402282e-04
6.898280000000e-03 -1.353513056753e-06 -2.183972854290e-05 -4.943276384406e+06 -3.231521880183e+04 -4.943690218043e+06 -7.213289420072e+06 -4.511018663249e-05 -4.067589930932e-06 -4.497310621473e-05 -1.819105921426e-04 5.700085340840e+06 2.270496149678e+06  1.370502034258e-04
7.064950000000e-03 -1.267229573044e-06 -2.287211399595e-05 -4.943147012414e+06 -3.241971274116e+04 -4.944001454280e+06 -7.393095694490e+06 -4.220723241377e-05 -4.080623387825e-06 -4.209831429831e-05 -1.905381365435e-04 5.760081387061e+06 2.450165106575e+06  1.485536245514e-04
7.231620000000e-03 -1.180928671051e-06 -2.390477593766e-05 -4.943025315903e+06 -3.252861332994e+04 -4.944347231728e+06 -7.572894566628e+06 -3.930206490998e-05 -4.094210976648e-06 -3.922303008734e-05 -1.991708647919e-04 5.820089038087e+06 2.629812139611e+06  1.600654938299e-04
7.398290000000e-03 -1.094609162766e-06 -2.493772572952e-05 -4.942912071774e+06 -3.264173571044e+04 -4.944729736131e+06 -7.752689445677e+06 -3.639455093267e-05 -4.108330270089e-06 -3.634721316365e-05 -2.078091228342e-04 5.880110417860e+06 2.809437917333e+06  1.715858596076e-04
7.564960000000e-03 -1.008269821676e-06 -2.597097501126e-05 -4.942808004562e+06 -3.275874184986e+04 -4.945151142423e+06 -7.932483840100e+06 -3.348455191043e-05 -4.122939467579e-06 -3.347082090313e-05 -2.164532661106e-04 5.940147662362e+06 2.989043538451e+06  1.831148786935e-04
7.731630000000e-03 -9.219093987653e-07 -2.700453568097e-05 -4.942713720112e+06 -3.287909545211e+04 -4.945613538819e+06 -8.112281113918e+06 -3.057192495962e-05 -4.137971609513e-06 -3.059380889040e-05 -2.251036529317e-04 6.000202790950e+06 3.168630272967e+06  1.946527805477e-04
7.898300000000e-03 -8.355266326910e-07 -2.803841990130e-05 -4.942629625768e+06 -3.300200792246e+04 -4.946118833535e+06 -8.292084241068e+06 -2.765652409039e-05 -4.153327631164e-06 -2.771613118368e-05 -2.337606369107e-04 6.060277566790e+06 3.348199344281e+06  2.061998399578e-04
8.064970000000e-03 -7.491202547577e-07 -2.907264012434e-05 -4.942555854105e+06 -3.312639059095e+04 -4.946668655724e+06 -8.471895587359e+06 -2.473820187723e-05 -4.168870192441e-06 -2.483774043476e-05 -2.424245588369e-04 6.120373365730e+06 3.527751758125e+06  2.177563550493e-04
8.231640000000e-03 -6.626889944292e-07 -3.010720909266e-05 -4.942492216900e+06 -3.325084560377e+04 -4.947264285451e+06 -8.651716760109e+06 -2.181681128620e-05 -4.184422412415e-06 -2.195858811050e-05 -2.510957399850e-04 6.180491087486e+06 3.707288182350e+06  2.293226307636e-04
8.398310000000e-03 -5.762315817173e-07 -3.114213984049e-05 -4.942438216366e+06 -3.337373753639e+04 -4.947906658207e+06 -8.831548576530e+06 -1.889220649687e-05 -4.199776873814e-06 -1.907862484938e-05 -2.597744807896e-04 6.240631150368e+06 3.886808889391e+06  2.408989711910e-04
8.564980000000e-03 -4.897467401006e-07 -3.217744567678e-05 -4.942393122744e+06 -3.349336343710e+04 -4.948596468581e+06 -9.011391174044e+06 -1.596424160871e-05 -4.214717183891e-06 -1.619780084358e-05 -2.684610677509e-04 6.300793588457e+06 4.066313765199e+06  2.524856833943e-04
8.731650000000e-03 -4.032331709912e-07 -3.321314018054e-05 -4.942356090863e+06 -3.360817190941e+04 -4.949334341513e+06 -9.191244218851e+06 -1.303276738922e-05 -4.229045839978e-06 -1.331606613496e-05 -2.771557866987e-04 6.360978217076e+06 4.245802367216e+06  2.640830898664e-04
8.898320000000e-03 -3.166895355223e-07 -3.424923720816e-05 -4.942326265277e+06 -3.371693618357e+04 -4.950120995067e+06 -9.371107121522e+06 -1.009762756345e-05 -4.242606304305e-06 -1.043337068036e-05 -2.858589364979e-04 6.421184793956e+06 4.425274000075e+06  2.756915421119e-04
9.064990000000e-03 -2.301144392339e-07 -3.528575091136e-05 -4.942302841135e+06 -3.381882253345e+04 -4.950957338851e+06 -9.550979190372e+06 -7.158656094397e-06 -4.255291792113e-06 -7.549664147125e-06 -2.945708383562e-04 6.481413123453e+06 4.604727782581e+06  2.873114293702e-04
9.231660000000e-03 -1.435064222286e-07 -3.632269576213e-05 -4.942285082674e+06 -3.391336714381e+04 -4.951844506230e+06 -9.730859711915e+06 -4.215675824400e-06 -4.267042407109e-06 -4.664895558798e-06 -3.032918399945e-04 6.541663100273e+06 4.784162695675e+06  2.989431815759e-04
9.398330000000e-03 -5.686395234159e-08 -3.736008658452e-05 -4.942272317106e+06 -3.400040837893e+04 -4.952783845974e+06 -9.910747981931e+06 -1.268498067737e-06 -4.277836584862e-06 -1.779012869206e-06 -3.120223165026e-04 6.601934715004e+06 4.963577614194e+06  3.105872687842e-04
9.565000000000e-03 2.981457871551e-08 -3.839793857887e-05 -4.942263915857e+06 -3.408001397766e+04 -4.953776898105e+06 -1.009064331178e+07 1.683077532730e-06 -4.287681875864e-06 1.108037402145e-06 -3.207626698314e-04 6.662228041914e+06 5.142971329358e+06  3.222441994316e-04
9.731670000000e-03 1.165308585932e-07 -3.943626733840e-05 -4.942259258027e+06 -3.415242579729e+04 -4.954825359938e+06 -1.027054502890e+07 4.639263616874e-06 -4.296607959707e-06 3.996310486964e-06 -3.295133282295e-04 6.722543215620e+06 5.322342580623e+06  3.339145191385e-04
9.898340000000e-03 2.032866410137e-07 -4.047508874296e-05 -4.942257660584e+06 -3.421803314901e+04 -4.955931050370e+06 -1.045045246839e+07 7.600287120309e-06 -4.304663307642e-06 6.885863077422e-06 -3.382747459584e-04 6.782880393114e+06 5.501690097512e+06  3.455988105420e-04
1.006501000000e-02 2.900837366802e-07 -4.151441887027e-05 -4.942258350004e+06 -3.427736765494e+04 -4.957095892229e+06 -1.063036489960e+07 1.056638989301e-05 -4.311914584119e-06 9.776753166600e-06 -3.470474018968e-04 6.843239713943e+06 5.681012547500e+06  3.572976916280e-04
1.023168000000e-02 3.769241029621e-07 -4.255427463367e-05 -4.942260458956e+06 -3.433105505271e+04 -4.958321887965e+06 -1.081028161466e+07 1.353783066839e-05 -4.318440567632e-06 1.266904311869e-05 -3.558318057871e-04 6.903621320529e+06 5.860308636254e+06  3.690118238925e-04
1.039835000000e-02 4.638098075076e-07 -4.359467346175e-05 -4.942262962035e+06 -3.437981354663e+04 -4.959611112462e+06 -1.099020191474e+07 1.651488766922e-05 -4.324332012926e-06 1.556279850705e-05 -3.646284987345e-04 6.964025329747e+06 6.039577128742e+06  3.807419132795e-04
1.056502000000e-02 5.507430268752e-07 -4.463563323422e-05 -4.942264818755e+06 -3.442438498481e+04 -4.960965766198e+06 -1.117012511111e+07 1.949785304828e-05 -4.329682823833e-06 1.845808813310e-05 -3.734380511968e-04 7.024451898687e+06 6.218816750262e+06  3.924887048679e-04
1.073169000000e-02 6.377260509312e-07 -4.567717236201e-05 -4.942264987141e+06 -3.446551132885e+04 -4.962388186896e+06 -1.135005054495e+07 2.248703311904e-05 -4.334587058030e-06 2.135498420551e-05 -3.822610644575e-04 7.084901239663e+06 6.398026192796e+06  4.042529843024e-04
1.089836000000e-02 7.247612677823e-07 -4.671930979687e-05 -4.942262429676e+06 -3.450392366156e+04 -4.963880866941e+06 -1.152997759264e+07 2.548274881332e-05 -4.339137532598e-06 2.425356185754e-05 -3.910981714080e-04 7.145373629751e+06 6.577204108161e+06  4.160355784106e-04
1.106503000000e-02 8.118511490762e-07 -4.776206503192e-05 -4.942256108463e+06 -3.454033887083e+04 -4.965446466330e+06 -1.170990566720e+07 2.848533657313e-05 -4.343425415688e-06 2.715389867049e-05 -3.999500375107e-04 7.205869413996e+06 6.756349105276e+06  4.278373562820e-04
1.123170000000e-02 8.989982524310e-07 -4.880545811296e-05 -4.942244979452e+06 -3.457545822145e+04 -4.967087814516e+06 -1.188983421970e+07 3.149514916877e-05 -4.347540060903e-06 3.005607476923e-05 -4.088173621256e-04 7.266389004555e+06 6.935459753396e+06  4.396592309828e-04
1.139837000000e-02 9.862052353136e-07 -4.984950965088e-05 -4.942227989155e+06 -3.460996583645e+04 -4.968807906335e+06 -1.206976274095e+07 3.451255636959e-05 -4.351568829200e-06 3.296017330071e-05 -4.177008800795e-04 7.326932878813e+06 7.114534587439e+06  4.515021616447e-04
1.156504000000e-02 1.073474866538e-06 -5.089424083843e-05 -4.942204073957e+06 -3.464452671385e+04 -4.970609901385e+06 -1.224969076366e+07 3.753794561009e-05 -4.355596849442e-06 3.586628083025e-05 -4.266013633057e-04 7.387501579668e+06 7.293572110777e+06  4.633671555905e-04
1.173171000000e-02 1.160810033756e-06 -5.193967346037e-05 -4.942172161454e+06 -3.467978430778e+04 -4.972497127475e+06 -1.242961786479e+07 4.057172267933e-05 -4.359706720993e-06 3.877448760211e-05 -4.355196225185e-04 7.448095717907e+06 7.472570795233e+06  4.752552704481e-04
1.189838000000e-02 1.248213749419e-06 -5.298582990673e-05 -4.942131173160e+06 -3.471635782545e+04 -4.974473086015e+06 -1.260954366800e+07 4.361431242355e-05 -4.363978177638e-06 4.168488774761e-05 -4.444565089463e-04 7.508715975725e+06 7.651529079546e+06  4.871676163114e-04
1.206505000000e-02 1.335689156456e-06 -5.403273318760e-05 -4.942080027897e+06 -3.475483955788e+04 -4.976541458129e+06 -1.278946784589e+07 4.666615946567e-05 -4.368487753558e-06 4.459757948016e-05 -4.534129161277e-04 7.569363110640e+06 7.830445366965e+06  4.991053579739e-04
1.223172000000e-02 1.423239531877e-06 -5.508040694531e-05 -4.942017645518e+06 -3.479579254062e+04 -4.978706112385e+06 -1.296939012170e+07 4.972772896771e-05 -4.373308489261e-06 4.751266521617e-05 -4.623897817363e-04 7.630037959869e+06 8.009318021370e+06  5.110697171855e-04
1.239839000000e-02 1.510868288087e-06 -5.612887546203e-05 -4.941942950523e+06 -3.483974867682e+04 -4.980971114060e+06 -1.314931027046e+07 5.279950745503e-05 -4.378509694762e-06 5.043025161470e-05 -4.713880894404e-04 7.690741445015e+06 8.188145362184e+06  5.230619749402e-04
1.256506000000e-02 1.598578972516e-06 -5.717816366191e-05 -4.941854875487e+06 -3.488720728981e+04 -4.983340735393e+06 -1.332922811960e+07 5.588200369927e-05 -4.384156765861e-06 5.335044955805e-05 -4.804088708056e-04 7.751474576828e+06 8.366925658388e+06  5.350834738160e-04
1.273173000000e-02 1.686375267457e-06 -5.822829710911e-05 -4.941752364177e+06 -3.493863403699e+04 -4.985819465481e+06 -1.350914354911e+07 5.897574964534e-05 -4.390311044992e-06 5.627337413773e-05 -4.894532072696e-04 7.812238459590e+06 8.545657122439e+06  5.471356204166e-04
1.289840000000e-02 1.774260991024e-06 -5.927930201130e-05 -4.941634374389e+06 -3.499446010521e+04 -4.988412019155e+06 -1.368905649123e+07 6.208130137305e-05 -4.397029716304e-06 5.919914467741e-05 -4.985222322037e-04 7.873034294924e+06 8.724337904421e+06  5.592198879413e-04
1.306507000000e-02 1.862240101515e-06 -6.033120523019e-05 -4.941499880534e+06 -3.505508157286e+04 -4.991123343367e+06 -1.386896692979e+07 6.519924007039e-05 -4.404365720125e-06 6.212788486910e-05 -5.076171330924e-04 7.933863384563e+06 8.902966087238e+06  5.713378189401e-04
1.323174000000e-02 1.950316704148e-06 -6.138403429920e-05 -4.941347875923e+06 -3.512085892038e+04 -4.993958621769e+06 -1.404887489922e+07 6.833017303368e-05 -4.412367684230e-06 6.505972298788e-05 -5.167391538253e-04 7.994727132305e+06 9.081539682532e+06  5.834910282375e-04
1.339841000000e-02 2.038495059629e-06 -6.243781745023e-05 -4.941177374828e+06 -3.519211667910e+04 -4.996923277860e+06 -1.422878048324e+07 7.147473470171e-05 -4.421079870470e-06 6.799479216703e-05 -5.258895971007e-04 8.055627045309e+06 9.260056627149e+06  5.956812060192e-04
1.356508000000e-02 2.126779593069e-06 -6.349258363778e-05 -4.940987414202e+06 -3.526914319631e+04 -5.000022977722e+06 -1.440868381328e+07 7.463358774932e-05 -4.430542133625e-06 7.093323068274e-05 -5.350698269339e-04 8.116564735069e+06 9.438514779784e+06  6.079101210627e-04
1.373175000000e-02 2.215174903557e-06 -6.454836257618e-05 -4.940777055182e+06 -3.535219047792e+04 -5.003263632157e+06 -1.458858506692e+07 7.780742423805e-05 -4.440789886967e-06 7.387518225927e-05 -5.442812712831e-04 8.177541918085e+06 9.616911917958e+06  6.201796241281e-04
1.389842000000e-02 2.303685772713e-06 -6.560518476252e-05 -4.940545384332e+06 -3.544147415005e+04 -5.006651399339e+06 -1.476848446609e+07 8.099696684779e-05 -4.451854079666e-06 7.682079633792e-05 -5.535254247822e-04 8.238560416587e+06 9.795245734835e+06  6.324916514820e-04
1.406509000000e-02 2.392317172712e-06 -6.666308151012e-05 -4.940291514736e+06 -3.553717346706e+04 -5.010192687716e+06 -1.494838227562e+07 8.420297018773e-05 -4.463761175811e-06 7.977022832601e-05 -5.628038515993e-04 8.299622159357e+06 9.973513836189e+06  6.448482285834e-04
1.423176000000e-02 2.481074273781e-06 -6.772208497596e-05 -4.940014586976e+06 -3.563943137171e+04 -5.013894159152e+06 -1.512827880187e+07 8.742622218976e-05 -4.476533135207e-06 8.272363982651e-05 -5.721181884305e-04 8.360729182665e+06 1.015171373756e+07  6.572514739389e-04
1.439843000000e-02 2.569962450819e-06 -6.878222818144e-05 -4.939713770101e+06 -3.574835459418e+04 -5.017762732552e+06 -1.530817439175e+07 9.066754558818e-05 -4.490187393435e-06 8.568119883671e-05 -5.814701476319e-04 8.421883631466e+06 1.032984286153e+07  6.697036031309e-04
1.456510000000e-02 2.658987290419e-06 -6.984354503777e-05 -4.939388262712e+06 -3.586401365759e+04 -5.021805587145e+06 -1.548806943213e+07 9.392779947246e-05 -4.504736822649e-06 8.864307995898e-05 -5.908615205145e-04 8.483087760661e+06 1.050789853555e+07  6.822069330548e-04
1.473177000000e-02 2.748154597564e-06 -7.090607036499e-05 -4.939037294185e+06 -3.598644276348e+04 -5.026030165826e+06 -1.566796434958e+07 9.720788091922e-05 -4.520189668714e-06 9.160946459984e-05 -6.002941807925e-04 8.544343936529e+06 1.068587799002e+07  6.947638863500e-04
1.489844000000e-02 2.837470403216e-06 -7.196983990919e-05 -4.938660126175e+06 -3.611563932350e+04 -5.030444177790e+06 -1.584785961049e+07 1.005087266889e-04 -4.536549432172e-06 9.458054119799e-05 -6.097700882068e-04 8.605654638151e+06 1.086377835701e+07  7.073769960566e-04
1.506511000000e-02 2.926940971714e-06 -7.303489036860e-05 -4.938256054361e+06 -3.625156309841e+04 -5.035055600940e+06 -1.602775572128e+07 1.038313149950e-04 -4.553814686782e-06 9.755650544533e-05 -6.192912923008e-04 8.667022458859e+06 1.104159666908e+07  7.200489104636e-04
1.523178000000e-02 3.016572810273e-06 -7.410125941066e-05 -4.937824410423e+06 -3.639413472033e+04 -5.039872682631e+06 -1.620765322884e+07 1.071766673263e-04 -4.571978803770e-06 1.005375605779e-04 -6.288599363863e-04 8.728450107298e+06 1.121932985906e+07  7.327823982131e-04
1.539845000000e-02 3.106372678611e-06 -7.516898570003e-05 -4.937364564129e+06 -3.654323368812e+04 -5.044903939750e+06 -1.638755272090e+07 1.105458503421e-04 -4.591029592298e-06 1.035239176705e-04 -6.384782616673e-04 8.789940408258e+06 1.139697476006e+07  7.455803536066e-04
1.556512000000e-02 3.196347599914e-06 -7.623810892671e-05 -4.936875925111e+06 -3.669869589516e+04 -5.050158157169e+06 -1.656745482620e+07 1.139399778482e-04 -4.610948862335e-06 1.065157959763e-04 -6.481486115466e-04 8.851496302827e+06 1.157452810629e+07  7.584458021640e-04
1.573179000000e-02 3.286504872257e-06 -7.730866982229e-05 -4.936357943806e+06 -3.686031088051e+04 -5.055644384827e+06 -1.674736021450e+07 1.173602128849e-04 -4.631711934103e-06 1.095134232811e-04 -6.578734361168e-04 8.913120847713e+06 1.175198653485e+07  7.713819064383e-04
1.589846000000e-02 3.376852079677e-06 -7.838071019560e-05 -4.935810110442e+06 -3.702781926789e+04 -5.061371933367e+06 -1.692726959590e+07 1.208077699839e-04 -4.653287156708e-06 1.125170362485e-04 -6.676552968431e-04 8.974817213236e+06 1.192934658849e+07  7.843919721115e-04
1.606513000000e-02 3.467397105913e-06 -7.945427295828e-05 -4.935231950906e+06 -3.720091043475e+04 -5.067350366091e+06 -1.710718371977e+07 1.242839176239e-04 -4.675635440404e-06 1.155268808560e-04 -6.774968715201e-04 9.036588678922e+06 1.210660472160e+07  7.974794545211e-04
1.623180000000e-02 3.558148150411e-06 -8.052940217630e-05 -4.934623017411e+06 -3.737922082253e+04 -5.073589486568e+06 -1.728710337267e+07 1.277899809772e-04 -4.698709858589e-06 1.185432129135e-04 -6.874009595327e-04 9.098438625551e+06 1.228375730975e+07  8.106479656901e-04