 TITLE = "Time curves in points"
 VARIABLES = "TIME "  "DISPLACEMENT_X1"  "DISPLACEMENT_Y1"  "TEMPERATURE1"  "STRESS_XX"  "STRESS_XY"  "STRESS_YY"  "STRESS_ZZ"  "STRAIN_XX"  "STRAIN_XY"  "STRAIN_YY"  "STRAIN_ZZ"  p_(1st_Invariant)  q_(2nd_Invariant)   Effective_Strain
 ZONE T="POINT=POINT1"
0.000000000000e+00 0.000000000000e+00 0.000000000000e+00 1.000000000000e+02 0.000000000000e+00 0.000000000000e+00 0.000000000000e+00 0.000000000000e+00 0.000000000000e+00 0.000000000000e+00 0.000000000000e+00 0.000000000000e+00 -0.000000000000e+00 0.000000000000e+00  0.000000000000e+00
1.000000000000e-01 0.000000000000e+00 5.006231456553e-05 1.000000000000e+02 -1.874282266014e+00 1.302620079663e-02 -1.872432714380e+00 -4.980217272944e+00 -9.626707774722e-07 1.323462000938e-06 -8.687135544690e-07 -1.587441691295e-04 2.908977417779e+00 3.106942117420e+00  1.578451437853e-04
2.000000000000e-01 0.000000000000e+00 5.043628704432e-05 1.000000000000e+02 -1.876401898261e+00 1.300948471685e-02 -1.874607564242e+00 -4.980066562663e+00 -9.808999357385e-07 1.319875174082e-06 -8.893150620657e-07 -1.587815838653e-04 2.910358675055e+00 3.104643992451e+00  1.578630501528e-04
3.000000000000e-01 0.000000000000e+00 5.081006075551e-05 1.000000000000e+02 -1.878509336893e+00 1.299307095358e-02 -1.876770361160e+00 -4.979915948159e+00 -9.991371474353e-07 1.316293409051e-06 -9.099372192086e-07 -1.588185255237e-04 2.911731882071e+00 3.102358090703e+00  1.578804695559e-04
4.000000000000e-01 0.000000000000e+00 5.118364580545e-05 1.000000000000e+02 -1.880604710302e+00 1.297694471290e-02 -1.878921236899e+00 -4.979765456085e+00 -1.017382866023e-06 1.312715157530e-06 -9.305806360610e-07 -1.588549983184e-04 2.913097134429e+00 3.100084308572e+00  1.578974056359e-04
5.000000000000e-01 0.000000000000e+00 5.155705008511e-05 1.000000000000e+02 -1.882688150820e+00 1.296109148758e-02 -1.881060327020e+00 -4.979615115511e+00 -1.035637644594e-06 1.309138906894e-06 -9.512460155730e-07 -1.588910064575e-04 2.914454531117e+00 3.097822541002e+00  1.579138619335e-04
6.000000000000e-01 0.000000000000e+00 5.193028081463e-05 1.000000000000e+02 -1.884759788367e+00 1.294549784415e-02 -1.883187764446e+00 -4.979464952514e+00 -1.053902017050e-06 1.305563259280e-06 -9.719340307239e-07 -1.589265540502e-04 2.915804168442e+00 3.095572682485e+00  1.579298419185e-04
7.000000000000e-01 0.000000000000e+00 5.230334474912e-05 1.000000000000e+02 -1.886819750877e+00 1.293015082230e-02 -1.885303679937e+00 -4.979314992509e+00 -1.072176486110e-06 1.301986870301e-06 -9.926453148359e-07 -1.589616451882e-04 2.917146141108e+00 3.093334628933e+00  1.579453490801e-04
8.000000000000e-01 0.000000000000e+00 5.267624814952e-05 1.000000000000e+02 -1.888868164303e+00 1.291503819629e-02 -1.887408202070e+00 -4.979165259318e+00 -1.090461533600e-06 1.298408475486e-06 -1.013380470763e-06 -1.589962839083e-04 2.918480541897e+00 3.091108276756e+00  1.579603868812e-04
9.000000000000e-01 0.000000000000e+00 5.304899684227e-05 1.000000000000e+02 -1.890905152639e+00 1.290014831700e-02 -1.889501457291e+00 -4.979015775577e+00 -1.108757617344e-06 1.294826874020e-06 -1.034140068881e-06 -1.590304742071e-04 2.919807461836e+00 3.088893523231e+00  1.579749587741e-04
1.000000000000e+00 0.000000000000e+00 5.342159627600e-05 1.000000000000e+02 -1.892930838006e+00 1.288547010670e-02 -1.891583569999e+00 -4.978866562738e+00 -1.127065173651e-06 1.291240928057e-06 -1.054924649834e-06 -1.590642200382e-04 2.921126990248e+00 3.086690266419e+00  1.579890681960e-04
1.100000000000e+00 0.000000000000e+00 5.379405155175e-05 1.000000000000e+02 -1.894945340672e+00 1.287099301158e-02 -1.893654662579e+00 -4.978717641168e+00 -1.145384617311e-06 1.287649557728e-06 -1.075734724992e-06 -1.590975253150e-04 2.922439214806e+00 3.084498405234e+00  1.580027185710e-04
1.200000000000e+00 0.000000000000e+00 5.416636745794e-05 1.000000000000e+02 -1.896948779006e+00 1.285670704778e-02 -1.895714855359e+00 -4.978569029845e+00 -1.163716343625e-06 1.284051745661e-06 -1.096570778690e-06 -1.591303938992e-04 2.923744221403e+00 3.082317839191e+00  1.580159132965e-04
1.300000000000e+00 0.000000000000e+00 5.453854848603e-05 1.000000000000e+02 -1.898941269671e+00 1.284260268381e-02 -1.897764266814e+00 -4.978420746954e+00 -1.182060728104e-06 1.280446524879e-06 -1.117433268191e-06 -1.591628296190e-04 2.925042094480e+00 3.080148468795e+00  1.580286557615e-04
1.400000000000e+00 0.000000000000e+00 5.491059891574e-05 1.000000000000e+02 -1.900922927640e+00 1.282867083350e-02 -1.899803013581e+00 -4.978272809711e+00 -1.200418128748e-06 1.276832977939e-06 -1.138322626377e-06 -1.591948362620e-04 2.926332916977e+00 3.077990195350e+00  1.580409493367e-04
1.500000000000e+00 0.000000000000e+00 5.528252271272e-05 1.000000000000e+02 -1.902893865941e+00 1.281490293539e-02 -1.901831210231e+00 -4.978125233771e+00 -1.218788885300e-06 1.273210244837e-06 -1.159239261857e-06 -1.592264175558e-04 2.927616769981e+00 3.075842920617e+00  1.580527973558e-04
1.600000000000e+00 0.000000000000e+00 5.565432370351e-05 1.000000000000e+02 -1.904854196376e+00 1.280129061299e-02 -1.903848969965e+00 -4.977978035246e+00 -1.237173318720e-06 1.269577488372e-06 -1.180183557657e-06 -1.592575772328e-04 2.928893733862e+00 3.073706548108e+00  1.580642031804e-04
1.700000000000e+00 0.000000000000e+00 5.602600545797e-05 1.000000000000e+02 -1.906804028624e+00 1.278782620967e-02 -1.905856403741e+00 -4.977831227640e+00 -1.255571737906e-06 1.265933948357e-06 -1.201155878796e-06 -1.592883189274e-04 2.930163886668e+00 3.071580980925e+00  1.580751700911e-04
1.800000000000e+00 0.000000000000e+00 5.639757139473e-05 1.000000000000e+02 -1.908743471046e+00 1.277450223143e-02 -1.907853621083e+00 -4.977684824673e+00 -1.273984433352e-06 1.262278884841e-06 -1.222156566328e-06 -1.593186462695e-04 2.931427305600e+00 3.069466123760e+00  1.580857013859e-04
1.900000000000e+00 0.000000000000e+00 5.676902475332e-05 1.000000000000e+02 -1.910672630377e+00 1.276131156839e-02 -1.909840729776e+00 -4.977538839031e+00 -1.292411681294e-06 1.258611600509e-06 -1.243185941667e-06 -1.593485628420e-04 2.932684066395e+00 3.067361881960e+00  1.580958003343e-04
2.000000000000e+00 0.000000000000e+00 5.714036860267e-05 1.000000000000e+02 -1.912591611862e+00 1.274824745564e-02 -1.911817835999e+00 -4.977393282874e+00 -1.310853742629e-06 1.254931436578e-06 -1.264244305101e-06 -1.593780721978e-04 2.933934243578e+00 3.065268161901e+00  1.581054701946e-04
2.100000000000e+00 0.000000000000e+00 5.751160593358e-05 1.000000000000e+02 -1.914500519230e+00 1.273530342369e-02 -1.913785044321e+00 -4.977248167332e+00 -1.329310867260e-06 1.251237767644e-06 -1.285331941589e-06 -1.594071778394e-04 2.935177910294e+00 3.063184870492e+00  1.581147141895e-04
2.200000000000e+00 0.000000000000e+00 5.788273948079e-05 1.000000000000e+02 -1.916399454539e+00 1.272247345281e-02 -1.915742457525e+00 -4.977103502569e+00 -1.347783289595e-06 1.247530017228e-06 -1.306449114842e-06 -1.594358832248e-04 2.936415138211e+00 3.061111915413e+00  1.581235355164e-04
2.300000000000e+00 0.000000000000e+00 5.825377197507e-05 1.000000000000e+02 -1.918288518776e+00 1.270975150109e-02 -1.917690177259e+00 -4.976959299058e+00 -1.366271231662e-06 1.243807609727e-06 -1.327596073051e-06 -1.594641918050e-04 2.937645998364e+00 3.059049205754e+00  1.581319373803e-04
2.400000000000e+00 0.000000000000e+00 5.862470592553e-05 1.000000000000e+02 -1.920167811016e+00 1.269713219840e-02 -1.919628303129e+00 -4.976815565223e+00 -1.384774904462e-06 1.240070040821e-06 -1.348773047265e-06 -1.594921069486e-04 2.938870559789e+00 3.056996650544e+00  1.581399229195e-04
2.500000000000e+00 0.000000000000e+00 5.899554382736e-05 1.000000000000e+02 -1.922037429420e+00 1.268461006573e-02 -1.921556933773e+00 -4.976672310286e+00 -1.403294506374e-06 1.236316798015e-06 -1.369980253028e-06 -1.595196320326e-04 2.940088891160e+00 3.054954160547e+00  1.581474952946e-04
2.600000000000e+00 0.000000000000e+00 5.936628801097e-05 1.000000000000e+02 -1.923897470515e+00 1.267218006829e-02 -1.923476166084e+00 -4.976529542235e+00 -1.421830223995e-06 1.232547416767e-06 -1.391217888921e-06 -1.595467703776e-04 2.941301059611e+00 3.052921646989e+00  1.581546576259e-04
2.700000000000e+00 0.000000000000e+00 5.973694071878e-05 1.000000000000e+02 -1.925748029442e+00 1.265983742446e-02 -1.925386095508e+00 -4.976387268184e+00 -1.440382235406e-06 1.228761460960e-06 -1.412486141845e-06 -1.595735252564e-04 2.942507131045e+00 3.050899021643e+00  1.581614129964e-04
2.800000000000e+00 0.000000000000e+00 6.010750409778e-05 1.000000000000e+02 -1.927589200157e+00 1.264757747631e-02 -1.927286816220e+00 -4.976245495387e+00 -1.458950705396e-06 1.224958509636e-06 -1.433785181301e-06 -1.595998999298e-04 2.943707170588e+00 3.048886197651e+00  1.581677644933e-04
2.900000000000e+00 0.000000000000e+00 6.047798026677e-05 1.000000000000e+02 -1.929421075240e+00 1.263539577092e-02 -1.929178420962e+00 -4.976104230043e+00 -1.477535792221e-06 1.221138165185e-06 -1.455115167567e-06 -1.596258976031e-04 2.944901242082e+00 3.046883088506e+00  1.581737151567e-04
3.000000000000e+00 0.000000000000e+00 6.084837117067e-05 1.000000000000e+02 -1.931243746048e+00 1.262328816883e-02 -1.931061001157e+00 -4.975963478426e+00 -1.496137640740e-06 1.217300064244e-06 -1.476476242508e-06 -1.596515214684e-04 2.946089408544e+00 3.044889609052e+00  1.581792680302e-04
3.100000000000e+00 0.000000000000e+00 6.121867877869e-05 1.000000000000e+02 -1.933057302623e+00 1.261125061442e-02 -1.932934646862e+00 -4.975823245890e+00 -1.514756389438e-06 1.213443854305e-06 -1.497868539438e-06 -1.596767746660e-04 2.947271731792e+00 3.042905674556e+00  1.581844261137e-04
3.200000000000e+00 0.000000000000e+00 6.158890490091e-05 1.000000000000e+02 -1.934861833819e+00 1.259927925677e-02 -1.934799446881e+00 -4.975683537645e+00 -1.533392166386e-06 1.209569205882e-06 -1.519292177864e-06 -1.597016603133e-04 2.948448272782e+00 3.040931201362e+00  1.581891923968e-04
3.300000000000e+00 0.000000000000e+00 6.195905130285e-05 1.000000000000e+02 -1.936657427059e+00 1.258737058150e-02 -1.936655488520e+00 -4.975544357602e+00 -1.552045094279e-06 1.205675825838e-06 -1.540747268702e-06 -1.597261814635e-04 2.949619091060e+00 3.038966105985e+00  1.581935698130e-04
3.400000000000e+00 0.000000000000e+00 6.232911975132e-05 1.000000000000e+02 -1.938444168956e+00 1.257552092762e-02 -1.938502858222e+00 -4.975405710783e+00 -1.570715282770e-06 1.201763408179e-06 -1.562233907245e-06 -1.597503411885e-04 2.950784245987e+00 3.037010306884e+00  1.581975613285e-04
3.500000000000e+00 0.000000000000e+00 6.269911184810e-05 1.000000000000e+02 -1.940222144687e+00 1.256372702315e-02 -1.940341640933e+00 -4.975267600919e+00 -1.589402835684e-06 1.197831688435e-06 -1.583752179853e-06 -1.597741424968e-04 2.951943795513e+00 3.035063722700e+00  1.582011698546e-04
3.600000000000e+00 0.000000000000e+00 6.306902924664e-05 1.000000000000e+02 -1.941991438285e+00 1.255198567316e-02 -1.942171920409e+00 -4.975130031231e+00 -1.608107851130e-06 1.193880411876e-06 -1.605302164915e-06 -1.597975883586e-04 2.953097796642e+00 3.033126272731e+00  1.582043982715e-04
3.700000000000e+00 0.000000000000e+00 6.343887342132e-05 1.000000000000e+02 -1.943752132763e+00 1.254029380046e-02 -1.943993779324e+00 -4.974993005173e+00 -1.626830417281e-06 1.189909337540e-06 -1.626883927908e-06 -1.598206817324e-04 2.954246305754e+00 3.031197877562e+00  1.582072494596e-04
3.800000000000e+00 0.000000000000e+00 6.380864592442e-05 1.000000000000e+02 -1.945504309876e+00 1.252864854621e-02 -1.945807299045e+00 -4.974856525319e+00 -1.645570617129e-06 1.185918248414e-06 -1.648497526620e-06 -1.598434255263e-04 2.955389378080e+00 3.029278458182e+00  1.582097262557e-04
3.900000000000e+00 0.000000000000e+00 6.417834815079e-05 1.000000000000e+02 -1.947248050372e+00 1.251704705790e-02 -1.947612559898e+00 -4.974720594395e+00 -1.664328524562e-06 1.181906929794e-06 -1.670143008063e-06 -1.598658226332e-04 2.956527068222e+00 3.027367936756e+00  1.582118314919e-04
4.000000000000e+00 0.000000000000e+00 6.454798154409e-05 1.000000000000e+02 -1.948983433828e+00 1.250548678075e-02 -1.949409640973e+00 -4.974585214179e+00 -1.683104211474e-06 1.177875198851e-06 -1.691820414042e-06 -1.598878758917e-04 2.957659429660e+00 3.025466235710e+00  1.582135679500e-04
4.100000000000e+00 0.000000000000e+00 6.491754741106e-05 1.000000000000e+02 -1.950710538856e+00 1.249396510564e-02 -1.951198620366e+00 -4.974450387035e+00 -1.701897737303e-06 1.173822868737e-06 -1.713529772310e-06 -1.599095881415e-04 2.958786515419e+00 3.023573279030e+00  1.582149384266e-04
4.200000000000e+00 0.000000000000e+00 6.528704709921e-05 1.000000000000e+02 -1.952429442934e+00 1.248247955293e-02 -1.952979575003e+00 -4.974316114253e+00 -1.720709161144e-06 1.169749767263e-06 -1.735271108741e-06 -1.599309621624e-04 2.959908377397e+00 3.021688990790e+00  1.582159456594e-04
4.300000000000e+00 0.000000000000e+00 6.565648183343e-05 1.000000000000e+02 -1.954140222546e+00 1.247102786364e-02 -1.954752580758e+00 -4.974182397398e+00 -1.739538532195e-06 1.165655746044e-06 -1.757044436288e-06 -1.599520007244e-04 2.961025066901e+00 3.019813296357e+00  1.582165923889e-04
4.400000000000e+00 0.000000000000e+00 6.602585285005e-05 1.000000000000e+02 -1.955842953142e+00 1.245960778702e-02 -1.956517712448e+00 -4.974049237534e+00 -1.758385896143e-06 1.161540658884e-06 -1.778849763075e-06 -1.599727065583e-04 2.962136634375e+00 3.017946121644e+00  1.582168813201e-04
4.500000000000e+00 0.000000000000e+00 6.639516136917e-05 1.000000000000e+02 -1.957537709182e+00 1.244821725118e-02 -1.958275043835e+00 -4.973916635703e+00 -1.777251291572e-06 1.157404379034e-06 -1.800687087120e-06 -1.599930823738e-04 2.963243129574e+00 3.016087393570e+00  1.582168151465e-04
4.600000000000e+00 0.000000000000e+00 6.676440854632e-05 1.000000000000e+02 -1.959224564128e+00 1.243685404088e-02 -1.960024647735e+00 -4.973784592215e+00 -1.796134756193e-06 1.153246766404e-06 -1.822556408044e-06 -1.600131308308e-04 2.964344601359e+00 3.014237039290e+00  1.582163965109e-04
4.700000000000e+00 0.000000000000e+00 6.713359542775e-05 1.000000000000e+02 -1.960903590366e+00 1.242551640557e-02 -1.961766595741e+00 -4.973653107407e+00 -1.815036318374e-06 1.149067729267e-06 -1.844457708765e-06 -1.600328545735e-04 2.965441097838e+00 3.012394987141e+00  1.582156280548e-04
4.800000000000e+00 0.000000000000e+00 6.750272319906e-05 1.000000000000e+02 -1.962574859590e+00 1.241420238189e-02 -1.963500958773e+00 -4.973522182168e+00 -1.833956000790e-06 1.144867155379e-06 -1.866390967430e-06 -1.600522562416e-04 2.966532666844e+00 3.010561166694e+00  1.582145124198e-04
4.900000000000e+00 0.000000000000e+00 6.787179287139e-05 1.000000000000e+02 -1.964238442235e+00 1.240291016928e-02 -1.965227806497e+00 -4.973391815884e+00 -1.852893825898e-06 1.140644950100e-06 -1.888356162304e-06 -1.600713384007e-04 2.967619354872e+00 3.008735507272e+00  1.582130521741e-04
5.000000000000e+00 0.000000000000e+00 6.824080545278e-05 1.000000000000e+02 -1.965894408041e+00 1.239163808353e-02 -1.966947207795e+00 -4.973262008819e+00 -1.871849807919e-06 1.136401031595e-06 -1.910353258683e-06 -1.600901036270e-04 2.968701208218e+00 3.006917939819e+00  1.582112499074e-04
5.100000000000e+00 0.000000000000e+00 6.860976196945e-05 1.000000000000e+02 -1.967542825765e+00 1.238038440326e-02 -1.968659230586e+00 -4.973132760635e+00 -1.890823958681e-06 1.132135315206e-06 -1.932382220778e-06 -1.601085544531e-04 2.969778272329e+00 3.005108395651e+00  1.582091081673e-04
5.200000000000e+00 0.000000000000e+00 6.897866341044e-05 1.000000000000e+02 -1.969183763108e+00 1.236914771205e-02 -1.970363941672e+00 -4.973004070384e+00 -1.909816286774e-06 1.127847748150e-06 -1.954443006148e-06 -1.601266933701e-04 2.970850591721e+00 3.003306806560e+00  1.582066294660e-04
5.300000000000e+00 0.000000000000e+00 6.934751068951e-05 1.000000000000e+02 -1.970817287137e+00 1.235792635060e-02 -1.972061407223e+00 -4.972875937895e+00 -1.928826793846e-06 1.123538253790e-06 -1.976535565849e-06 -1.601445228738e-04 2.971918210752e+00 3.001513105750e+00  1.582038163264e-04
5.400000000000e+00 0.000000000000e+00 6.971630471019e-05 1.000000000000e+02 -1.972443463753e+00 1.234671899686e-02 -1.973751692204e+00 -4.972748361785e+00 -1.947855480781e-06 1.119206790575e-06 -1.998659847937e-06 -1.601620453977e-04 2.972981172581e+00 2.999727226399e+00  1.582006712119e-04
5.500000000000e+00 0.000000000000e+00 7.008504642502e-05 1.000000000000e+02 -1.974062358484e+00 1.233552403413e-02 -1.975434861200e+00 -4.972621342267e+00 -1.966902340368e-06 1.114853287747e-06 -2.020815791982e-06 -1.601792634075e-04 2.974039520650e+00 2.997949103654e+00  1.581971966256e-04
5.600000000000e+00 0.000000000000e+00 7.045373666756e-05 1.000000000000e+02 -1.975674035428e+00 1.232434034586e-02 -1.977110977321e+00 -4.972494877313e+00 -1.985967367471e-06 1.110477726108e-06 -2.043003337476e-06 -1.601961792722e-04 2.975093296687e+00 2.996178671882e+00  1.581933949742e-04
5.700000000000e+00 0.000000000000e+00 7.082237629973e-05 1.000000000000e+02 -1.977278558104e+00 1.231316658315e-02 -1.978780103107e+00 -4.972368965801e+00 -2.005050550056e-06 1.106080063470e-06 -2.065222417352e-06 -1.602127953696e-04 2.976142542337e+00 2.994415866925e+00  1.581892686798e-04
5.800000000000e+00 0.000000000000e+00 7.119096610247e-05 1.000000000000e+02 -1.978875989215e+00 1.230200145132e-02 -1.980442300264e+00 -4.972243606257e+00 -2.024151875345e-06 1.101660263792e-06 -2.087472962922e-06 -1.602291140433e-04 2.977187298578e+00 2.992660625101e+00  1.581848201309e-04
5.900000000000e+00 0.000000000000e+00 7.155950695906e-05 1.000000000000e+02 -1.980466390746e+00 1.229084391502e-02 -1.982097629693e+00 -4.972118797955e+00 -2.043271321703e-06 1.097218317955e-06 -2.109754892168e-06 -1.602451376446e-04 2.978227606131e+00 2.990912884240e+00  1.581800517363e-04
6.000000000000e+00 0.000000000000e+00 7.192799957629e-05 1.000000000000e+02 -1.982049823661e+00 1.227969275033e-02 -1.983746151361e+00 -4.971994538709e+00 -2.062408871466e-06 1.092754198220e-06 -2.132068131488e-06 -1.602608684497e-04 2.979263504577e+00 2.989172581684e+00  1.581749658224e-04
6.100000000000e+00 0.000000000000e+00 7.229644477893e-05 1.000000000000e+02 -1.983626348312e+00 1.226854685212e-02 -1.985387924533e+00 -4.971870827251e+00 -2.081564499096e-06 1.088267889416e-06 -2.154412594586e-06 -1.602763087481e-04 2.980295033365e+00 2.987439656356e+00  1.581695647399e-04
6.200000000000e+00 0.000000000000e+00 7.266484328864e-05 1.000000000000e+02 -1.985196024089e+00 1.225740516736e-02 -1.987023007549e+00 -4.971747661293e+00 -2.100738180120e-06 1.083759382134e-06 -2.176788198441e-06 -1.602914607714e-04 2.981322230977e+00 2.985714047101e+00  1.581638507795e-04
6.300000000000e+00 0.000000000000e+00 7.303319582553e-05 1.000000000000e+02 -1.986758909767e+00 1.224626678030e-02 -1.988651458068e+00 -4.971625039151e+00 -2.119929885010e-06 1.079228681327e-06 -2.199194851318e-06 -1.603063267522e-04 2.982345135662e+00 2.983995694017e+00  1.581578262401e-04
6.400000000000e+00 0.000000000000e+00 7.340150317187e-05 1.000000000000e+02 -1.988315063579e+00 1.223513051174e-02 -1.990273333223e+00 -4.971502959796e+00 -2.139139579586e-06 1.074675765563e-06 -2.221632457757e-06 -1.603209089240e-04 2.983363785532e+00 2.982284538389e+00  1.581514934251e-04
6.500000000000e+00 0.000000000000e+00 7.376976589971e-05 1.000000000000e+02 -1.989864542337e+00 1.222399570251e-02 -1.991888688706e+00 -4.971381419953e+00 -2.158367230729e-06 1.070100666629e-06 -2.244100922182e-06 -1.603352094254e-04 2.984378216999e+00 2.980580520693e+00  1.581448545438e-04
6.600000000000e+00 0.000000000000e+00 7.413798476086e-05 1.000000000000e+02 -1.991407402749e+00 1.221286122057e-02 -1.993497580139e+00 -4.971260417708e+00 -2.177612805383e-06 1.065503368574e-06 -2.266600150925e-06 -1.603492304147e-04 2.985388466866e+00 2.978883582845e+00  1.581379118231e-04
6.700000000000e+00 0.000000000000e+00 7.450616044340e-05 1.000000000000e+02 -1.992943700678e+00 1.220172627435e-02 -1.995100062194e+00 -4.971139951718e+00 -2.196876258866e-06 1.060883890312e-06 -2.289130033123e-06 -1.603629740565e-04 2.986394571530e+00 2.977193668238e+00  1.581306675117e-04
6.800000000000e+00 0.000000000000e+00 7.487429355738e-05 1.000000000000e+02 -1.994473491057e+00 1.219059012209e-02 -1.996696188662e+00 -4.971020019041e+00 -2.216157553554e-06 1.056242256109e-06 -2.311690467707e-06 -1.603764424359e-04 2.987396566253e+00 2.975510719567e+00  1.581231237701e-04
6.900000000000e+00 0.000000000000e+00 7.524238471666e-05 1.000000000000e+02 -1.995996828223e+00 1.217945172962e-02 -1.998286012779e+00 -4.970900617276e+00 -2.235456646116e-06 1.051578460718e-06 -2.334281349601e-06 -1.603896376366e-04 2.988394486093e+00 2.973834680646e+00  1.581152827618e-04
7.000000000000e+00 0.000000000000e+00 7.561043456054e-05 1.000000000000e+02 -1.997513766033e+00 1.216831068026e-02 -1.999869587115e+00 -4.970781745160e+00 -2.254773485987e-06 1.046892561857e-06 -2.356902557363e-06 -1.604025617655e-04 2.989388366103e+00 2.972165497000e+00  1.581071466867e-04
7.100000000000e+00 0.000000000000e+00 7.597844369424e-05 1.000000000000e+02 -1.999024357355e+00 1.215716587985e-02 -2.001446963469e+00 -4.970663399374e+00 -2.274108031117e-06 1.042184548575e-06 -2.379553988818e-06 -1.604152168317e-04 2.990378240066e+00 2.970503112977e+00  1.580987176316e-04
7.200000000000e+00 0.000000000000e+00 7.634641271448e-05 1.000000000000e+02 -2.000528654363e+00 1.214601680350e-02 -2.003018192801e+00 -4.970545577095e+00 -2.293460232379e-06 1.037454467903e-06 -2.402235527517e-06 -1.604276048465e-04 2.991364141420e+00 2.968847474190e+00  1.580899976974e-04
7.300000000000e+00 0.000000000000e+00 7.671434219061e-05 1.000000000000e+02 -2.002026708920e+00 1.213486265381e-02 -2.004583325780e+00 -4.970428276576e+00 -2.312830037011e-06 1.032702339280e-06 -2.424947054163e-06 -1.604397278363e-04 2.992346103759e+00 2.967198527624e+00  1.580809890028e-04
7.400000000000e+00 0.000000000000e+00 7.708223269349e-05 1.000000000000e+02 -2.003518571906e+00 1.212370281099e-02 -2.006142412087e+00 -4.970311495026e+00 -2.332217391429e-06 1.027928200302e-06 -2.447688448487e-06 -1.604515877740e-04 2.993324159673e+00 2.965556220213e+00  1.580716936142e-04
7.500000000000e+00 0.000000000000e+00 7.745008478563e-05 1.000000000000e+02 -2.005004293859e+00 1.211253659415e-02 -2.007695501064e+00 -4.970195230220e+00 -2.351622242556e-06 1.023132082427e-06 -2.470459590789e-06 -1.604631866293e-04 2.994298341714e+00 2.963920499792e+00  1.580621135942e-04
7.600000000000e+00 0.000000000000e+00 7.781789895861e-05 1.000000000000e+02 -2.006483924022e+00 1.210136333561e-02 -2.009242640765e+00 -4.970079478135e+00 -2.371044535456e-06 1.018314018483e-06 -2.493260359839e-06 -1.604745262945e-04 2.995268680974e+00 2.962291313693e+00  1.580522509299e-04
7.700000000000e+00 0.000000000000e+00 7.818567579936e-05 1.000000000000e+02 -2.007957511921e+00 1.209018248960e-02 -2.010783879481e+00 -4.969964237532e+00 -2.390484210179e-06 1.013474053715e-06 -2.516090626947e-06 -1.604856087353e-04 2.996235209645e+00 2.960668611773e+00  1.580421076879e-04
7.800000000000e+00 0.000000000000e+00 7.855341580686e-05 1.000000000000e+02 -2.009425105976e+00 1.207899345276e-02 -2.012319264412e+00 -4.969849505498e+00 -2.409941208582e-06 1.008612227510e-06 -2.538950265989e-06 -1.604964358417e-04 2.997197958629e+00 2.959052343308e+00  1.580316858575e-04
7.900000000000e+00 0.000000000000e+00 7.892111946920e-05 1.000000000000e+02 -2.010886753848e+00 1.206779563725e-02 -2.013848842017e+00 -4.969735278624e+00 -2.429415471465e-06 1.003728580805e-06 -2.561839150785e-06 -1.605070094684e-04 2.998156958163e+00 2.957442457835e+00  1.580209873924e-04
8.000000000000e+00 0.000000000000e+00 7.928878732936e-05 1.000000000000e+02 -2.012342503063e+00 1.205658848285e-02 -2.015372658590e+00 -4.969621555140e+00 -2.448906934316e-06 9.988231572932e-07 -2.584757148067e-06 -1.605173315066e-04 2.999112238931e+00 2.955838906674e+00  1.580100142899e-04
8.100000000000e+00 0.000000000000e+00 7.965641982981e-05 1.000000000000e+02 -2.013792400121e+00 1.204537149201e-02 -2.016890759401e+00 -4.969508331545e+00 -2.468415536811e-06 9.938960069875e-07 -2.607704128922e-06 -1.605274037699e-04 3.000063830355e+00 2.954241640445e+00  1.579987684650e-04
8.200000000000e+00 0.000000000000e+00 8.002401747194e-05 1.000000000000e+02 -2.015236491061e+00 1.203414407396e-02 -2.018403189284e+00 -4.969395604946e+00 -2.487941214092e-06 9.889471703191e-07 -2.630679961093e-06 -1.605372280742e-04 3.001011761764e+00 2.952650610820e+00  1.579872518391e-04
8.300000000000e+00 0.000000000000e+00 8.039158072047e-05 1.000000000000e+02 -2.016674821616e+00 1.202290573856e-02 -2.019909992736e+00 -4.969283373071e+00 -2.507483901157e-06 9.839766978541e-07 -2.653684510673e-06 -1.605468062368e-04 3.001956062475e+00 2.951065770418e+00  1.579754663360e-04
8.400000000000e+00 0.000000000000e+00 8.075911002596e-05 1.000000000000e+02 -2.018107436564e+00 1.201165603785e-02 -2.021411213288e+00 -4.969171632718e+00 -2.527043530677e-06 9.789846443144e-07 -2.676717640658e-06 -1.605561400279e-04 3.002896760856e+00 2.949487071883e+00  1.579634138353e-04
8.500000000000e+00 0.000000000000e+00 8.112660581822e-05 1.000000000000e+02 -2.019534380242e+00 1.200039451644e-02 -2.022906894057e+00 -4.969060380768e+00 -2.546620036232e-06 9.739710635273e-07 -2.699779216416e-06 -1.605652312006e-04 3.003833885022e+00 2.947914468374e+00  1.579510961975e-04
8.600000000000e+00 0.000000000000e+00 8.149406860743e-05 1.000000000000e+02 -2.020955696771e+00 1.198912060295e-02 -2.024397077916e+00 -4.968949615333e+00 -2.566213347068e-06 9.689359973761e-07 -2.722869097437e-06 -1.605740815319e-04 3.004767463340e+00 2.946347914509e+00  1.579385153124e-04
8.700000000000e+00 0.000000000000e+00 8.186149876168e-05 1.000000000000e+02 -2.022371429210e+00 1.197783387024e-02 -2.025881806731e+00 -4.968839332481e+00 -2.585823397473e-06 9.638795022409e-07 -2.745987151049e-06 -1.605826927104e-04 3.005697522807e+00 2.944787363898e+00  1.579256729749e-04
8.800000000000e+00 0.000000000000e+00 8.222889672314e-05 1.000000000000e+02 -2.023781620330e+00 1.196653396526e-02 -2.027361122002e+00 -4.968729529662e+00 -2.605450114078e-06 9.588016418168e-07 -2.769133232864e-06 -1.605910664578e-04 3.006624090665e+00 2.943232771860e+00  1.579125710227e-04
8.900000000000e+00 0.000000000000e+00 8.259626291340e-05 1.000000000000e+02 -2.025186312525e+00 1.195522038534e-02 -2.028835064908e+00 -4.968620204198e+00 -2.625093427508e-06 9.537024644090e-07 -2.792307205380e-06 -1.605992044691e-04 3.007547193877e+00 2.941684093933e+00  1.578992112618e-04
9.000000000000e+00 0.000000000000e+00 8.296359773543e-05 1.000000000000e+02 -2.026585547407e+00 1.194389278122e-02 -2.030303675807e+00 -4.968511353102e+00 -2.644753263772e-06 9.485820336788e-07 -2.815508924371e-06 -1.606071084161e-04 3.008466858772e+00 2.940141286151e+00  1.578855954800e-04
9.100000000000e+00 0.000000000000e+00 8.333090157136e-05 1.000000000000e+02 -2.027979366192e+00 1.193255058596e-02 -2.031766994740e+00 -4.968402973181e+00 -2.664429552690e-06 9.434403909472e-07 -2.838738253432e-06 -1.606147799415e-04 3.009383111371e+00 2.938604304693e+00  1.578717254306e-04
9.200000000000e+00 0.000000000000e+00 8.369817485921e-05 1.000000000000e+02 -2.029367809554e+00 1.192119360649e-02 -2.033225061104e+00 -4.968295061447e+00 -2.684122221083e-06 9.382776152790e-07 -2.861995047953e-06 -1.606222206817e-04 3.010295977368e+00 2.937073106543e+00  1.578576028663e-04
9.300000000000e+00 0.000000000000e+00 8.406541794618e-05 1.000000000000e+02 -2.030750917820e+00 1.190982135970e-02 -2.034677913993e+00 -4.968187615665e+00 -2.703831191080e-06 9.330937559745e-07 -2.885279160809e-06 -1.606294322817e-04 3.011205482493e+00 2.935547649759e+00  1.578432295519e-04
9.400000000000e+00 0.000000000000e+00 8.443263121471e-05 1.000000000000e+02 -2.032128730615e+00 1.189843347545e-02 -2.036125591830e+00 -4.968080632351e+00 -2.723556390902e-06 9.278888735871e-07 -2.908590452451e-06 -1.606364163249e-04 3.012111651599e+00 2.934027891838e+00  1.578286071838e-04
9.500000000000e+00 0.000000000000e+00 8.479981505668e-05 1.000000000000e+02 -2.033501287201e+00 1.188702958623e-02 -2.037568132654e+00 -4.967974108640e+00 -2.743297745353e-06 9.226630286285e-07 -2.931928778885e-06 -1.606431744001e-04 3.013014509498e+00 2.932513791265e+00  1.578137374676e-04
9.600000000000e+00 0.000000000000e+00 8.516696983025e-05 1.000000000000e+02 -2.034868626303e+00 1.187560938354e-02 -2.039005573924e+00 -4.967868041892e+00 -2.763055174918e-06 9.174162873067e-07 -2.955293989618e-06 -1.606497080905e-04 3.013914080706e+00 2.931005307317e+00  1.577986221092e-04
9.700000000000e+00 0.000000000000e+00 8.553409588702e-05 1.000000000000e+02 -2.036230786303e+00 1.186417237272e-02 -2.040437952894e+00 -4.967762428797e+00 -2.782828609078e-06 9.121486966325e-07 -2.978685949872e-06 -1.606560189321e-04 3.014810389331e+00 2.929502398866e+00  1.577832627542e-04
9.800000000000e+00 0.000000000000e+00 8.590119358877e-05 1.000000000000e+02 -2.037587804923e+00 1.185271836529e-02 -2.041865305985e+00 -4.967657266632e+00 -2.802617966593e-06 9.068603343718e-07 -3.002104505674e-06 -1.606621084745e-04 3.015703459180e+00 2.928005026126e+00  1.577676610775e-04
9.900000000000e+00 0.000000000000e+00 8.626826325043e-05 1.000000000000e+02 -2.038939719649e+00 1.184124690241e-02 -2.043287669528e+00 -4.967552552617e+00 -2.822423171432e-06 9.015512505195e-07 -3.025549515294e-06 -1.606679782423e-04 3.016593313931e+00 2.926513149409e+00  1.577518187198e-04
1.000000000000e+01 0.000000000000e+00 8.663530524171e-05 1.000000000000e+02 -2.040286567265e+00 1.182975771724e-02 -2.044705079051e+00 -4.967448283680e+00 -2.842244143868e-06 8.962215142378e-07 -3.049020828464e-06 -1.606736297396e-04 3.017479976665e+00 2.925026729494e+00  1.577357373078e-04