 TITLE = "Time curves in points"
 VARIABLES = "TIME "  "DISPLACEMENT_X1"  "DISPLACEMENT_Y1"  "TEMPERATURE1"  "STRESS_XX"  "STRESS_XY"  "STRESS_YY"  "STRESS_ZZ"  "STRAIN_XX"  "STRAIN_XY"  "STRAIN_YY"  "STRAIN_ZZ"  p_(1st_Invariant)  q_(2nd_Invariant)   Effective_Strain
 ZONE T="POINT=POINT1"
0.000000000000e+00 0.000000000000e+00 0.000000000000e+00 1.000000000000e+02 0.000000000000e+00 0.000000000000e+00 0.000000000000e+00 0.000000000000e+00 0.000000000000e+00 0.000000000000e+00 0.000000000000e+00 0.000000000000e+00 -0.000000000000e+00 0.000000000000e+00  0.000000000000e+00
1.000000000000e-01 0.000000000000e+00 5.006231456553e-05 1.000000000000e+02 -1.874282266014e+00 1.302620079663e-02 -1.872432714380e+00 -4.980217272944e+00 -9.626707774722e-07 1.323462000938e-06 -8.687135544690e-07 -1.587441691295e-04 2.908977417779e+00 3.106942117420e+00  1.578451437853e-04
2.000000000000e-01 0.000000000000e+00 5.043628704418e-05 1.000000000000e+02 -1.876401898270e+00 1.300948475539e-02 -1.874607564237e+00 -4.980066562758e+00 -9.808999351023e-07 1.319875177998e-06 -8.893150607503e-07 -1.587815838690e-04 2.910358675088e+00 3.104643992544e+00  1.578630501576e-04
3.000000000000e-01 0.000000000000e+00 5.081006077522e-05 1.000000000000e+02 -1.878509336853e+00 1.299307101036e-02 -1.876770361112e+00 -4.979915948025e+00 -9.991371477608e-07 1.316293414821e-06 -9.099372191998e-07 -1.588185255193e-04 2.911731881997e+00 3.102358090615e+00  1.578804695515e-04
4.000000000000e-01 0.000000000000e+00 5.118364582214e-05 1.000000000000e+02 -1.880604710327e+00 1.297694466837e-02 -1.878921236933e+00 -4.979765456109e+00 -1.017382866454e-06 1.312715153000e-06 -9.305806369728e-07 -1.588549983186e-04 2.913097134456e+00 3.100084308566e+00  1.578974056353e-04
5.000000000000e-01 0.000000000000e+00 5.155705008647e-05 1.000000000000e+02 -1.882688150860e+00 1.296109147745e-02 -1.881060327061e+00 -4.979615115545e+00 -1.035637645471e-06 1.309138905860e-06 -9.512460164552e-07 -1.588910064578e-04 2.914454531155e+00 3.097822540995e+00  1.579138619330e-04
6.000000000000e-01 0.000000000000e+00 5.193028080611e-05 1.000000000000e+02 -1.884759788382e+00 1.294549781473e-02 -1.883187764467e+00 -4.979464952550e+00 -1.053902017157e-06 1.305563256279e-06 -9.719340311179e-07 -1.589265540511e-04 2.915804168466e+00 3.095572682502e+00  1.579298419190e-04
7.000000000000e-01 0.000000000000e+00 5.230334473125e-05 1.000000000000e+02 -1.886819750887e+00 1.293015082036e-02 -1.885303679946e+00 -4.979314992535e+00 -1.072176486213e-06 1.301986870095e-06 -9.926453148982e-07 -1.589616451889e-04 2.917146141123e+00 3.093334628949e+00  1.579453490807e-04
8.000000000000e-01 0.000000000000e+00 5.267624814777e-05 1.000000000000e+02 -1.888868164246e+00 1.291503822146e-02 -1.887408202014e+00 -4.979165259179e+00 -1.090461533530e-06 1.298408478035e-06 -1.013380470708e-06 -1.589962839038e-04 2.918480541813e+00 3.091108276674e+00  1.579603868768e-04
9.000000000000e-01 0.000000000000e+00 5.304899684225e-05 1.000000000000e+02 -1.890905152612e+00 1.290014831158e-02 -1.889501457270e+00 -4.979015775503e+00 -1.108757617414e-06 1.294826873461e-06 -1.034140069179e-06 -1.590304742045e-04 2.919807461795e+00 3.088893523181e+00  1.579749587713e-04
1.000000000000e+00 0.000000000000e+00 5.342159627831e-05 1.000000000000e+02 -1.892930838013e+00 1.288547009699e-02 -1.891583570008e+00 -4.978866562770e+00 -1.127065173590e-06 1.291240927062e-06 -1.054924649831e-06 -1.590642200391e-04 2.921126990264e+00 3.086690266442e+00  1.579890681970e-04
1.100000000000e+00 0.000000000000e+00 5.379405155208e-05 1.000000000000e+02 -1.894945340607e+00 1.287099302835e-02 -1.893654662522e+00 -4.978717640970e+00 -1.145384617548e-06 1.287649559424e-06 -1.075734725594e-06 -1.590975253083e-04 2.922439214700e+00 3.084498405097e+00  1.580027185639e-04
1.200000000000e+00 0.000000000000e+00 5.416636745692e-05 1.000000000000e+02 -1.896948779004e+00 1.285670705521e-02 -1.895714855356e+00 -4.978569029842e+00 -1.163716343699e-06 1.284051746407e-06 -1.096570778692e-06 -1.591303938989e-04 2.923744221401e+00 3.082317839191e+00  1.580159132963e-04
1.300000000000e+00 0.000000000000e+00 5.453854848502e-05 1.000000000000e+02 -1.898941269722e+00 1.284260266005e-02 -1.897764266872e+00 -4.978420747038e+00 -1.182060728689e-06 1.280446522456e-06 -1.117433269134e-06 -1.591628296210e-04 2.925042094544e+00 3.080148468824e+00  1.580286557627e-04
1.400000000000e+00 0.000000000000e+00 5.491059891466e-05 1.000000000000e+02 -1.900922927609e+00 1.282867083555e-02 -1.899803013553e+00 -4.978272809651e+00 -1.200418128551e-06 1.276832978135e-06 -1.138322626325e-06 -1.591948362601e-04 2.926332916938e+00 3.077990195320e+00  1.580409493349e-04
1.500000000000e+00 0.000000000000e+00 5.528252271995e-05 1.000000000000e+02 -1.902893866009e+00 1.281490293082e-02 -1.901831210295e+00 -4.978125234037e+00 -1.218788884542e-06 1.273210244364e-06 -1.159239260885e-06 -1.592264175648e-04 2.927616770114e+00 3.075842920816e+00  1.580527973657e-04
1.600000000000e+00 0.000000000000e+00 5.565432368313e-05 1.000000000000e+02 -1.904854196304e+00 1.280129066542e-02 -1.903848969891e+00 -4.977978035040e+00 -1.237173318874e-06 1.269577493694e-06 -1.180183557713e-06 -1.592575772261e-04 2.928893733745e+00 3.073706547976e+00  1.580642031738e-04
1.700000000000e+00 0.000000000000e+00 5.602600544929e-05 1.000000000000e+02 -1.906804028580e+00 1.278782621690e-02 -1.905856403703e+00 -4.977831227467e+00 -1.255571738485e-06 1.265933949085e-06 -1.201155879696e-06 -1.592883189212e-04 2.930163886583e+00 3.071580980792e+00  1.580751700842e-04
1.800000000000e+00 0.000000000000e+00 5.639757137214e-05 1.000000000000e+02 -1.908743470971e+00 1.277450224986e-02 -1.907853621014e+00 -4.977684824473e+00 -1.273984433336e-06 1.262278886704e-06 -1.222156566627e-06 -1.593186462629e-04 2.931427305486e+00 3.069466123632e+00  1.580857013792e-04
1.900000000000e+00 0.000000000000e+00 5.676902475439e-05 1.000000000000e+02 -1.910672630422e+00 1.276131159931e-02 -1.909840729802e+00 -4.977538839316e+00 -1.292411679822e-06 1.258611603643e-06 -1.243185939191e-06 -1.593485628525e-04 2.932684066514e+00 3.067361882210e+00  1.580958003469e-04
2.000000000000e+00 0.000000000000e+00 5.714036860955e-05 1.000000000000e+02 -1.912591611842e+00 1.274824746428e-02 -1.911817835981e+00 -4.977393282775e+00 -1.310853743108e-06 1.254931437455e-06 -1.264244305686e-06 -1.593780721942e-04 2.933934243533e+00 3.065268161821e+00  1.581054701905e-04
2.100000000000e+00 0.000000000000e+00 5.751160590894e-05 1.000000000000e+02 -1.914500519222e+00 1.273530344707e-02 -1.913785044310e+00 -4.977248167296e+00 -1.329310867488e-06 1.251237770013e-06 -1.285331941699e-06 -1.594071778380e-04 2.935177910276e+00 3.063184870467e+00  1.581147141880e-04
2.200000000000e+00 0.000000000000e+00 5.788273948878e-05 1.000000000000e+02 -1.916399454558e+00 1.272247342907e-02 -1.915742457550e+00 -4.977103502589e+00 -1.347783289980e-06 1.247530014809e-06 -1.306449115487e-06 -1.594358832250e-04 2.936415138232e+00 3.061111915411e+00  1.581235355160e-04
2.300000000000e+00 0.000000000000e+00 5.825377197317e-05 1.000000000000e+02 -1.918288518743e+00 1.270975153642e-02 -1.917690177224e+00 -4.976959298903e+00 -1.366271232453e-06 1.243807613307e-06 -1.327596073766e-06 -1.594641917994e-04 2.937645998290e+00 3.059049205634e+00  1.581319373740e-04
2.400000000000e+00 0.000000000000e+00 5.862470593938e-05 1.000000000000e+02 -1.920167811057e+00 1.269713215920e-02 -1.919628303174e+00 -4.976815565369e+00 -1.384774904215e-06 1.240070036820e-06 -1.348773047193e-06 -1.594921069532e-04 2.938870559866e+00 3.056996650646e+00  1.581399229241e-04
2.500000000000e+00 0.000000000000e+00 5.899554383037e-05 1.000000000000e+02 -1.922037429377e+00 1.268461007145e-02 -1.921556933732e+00 -4.976672310208e+00 -1.403294506071e-06 1.236316798582e-06 -1.369980252838e-06 -1.595196320301e-04 2.940088891106e+00 3.054954160510e+00  1.581474952924e-04
2.600000000000e+00 0.000000000000e+00 5.936628799645e-05 1.000000000000e+02 -1.923897470445e+00 1.267218010631e-02 -1.923476166013e+00 -4.976529542077e+00 -1.421830223778e-06 1.232547420617e-06 -1.391217888651e-06 -1.595467703726e-04 2.941301059512e+00 3.052921646901e+00  1.581546576212e-04
2.700000000000e+00 0.000000000000e+00 5.973694072617e-05 1.000000000000e+02 -1.925748029453e+00 1.265983738373e-02 -1.925386095522e+00 -4.976387268350e+00 -1.440382234000e-06 1.228761456811e-06 -1.412486140609e-06 -1.595735252626e-04 2.942507131108e+00 3.050899021796e+00  1.581614130038e-04
2.800000000000e+00 0.000000000000e+00 6.010750411714e-05 1.000000000000e+02 -1.927589200208e+00 1.264757740554e-02 -1.927286816278e+00 -4.976245495592e+00 -1.458950704578e-06 1.224958502448e-06 -1.433785180846e-06 -1.595998999368e-04 2.943707170693e+00 3.048886197800e+00  1.581677645008e-04
2.900000000000e+00 0.000000000000e+00 6.047798027417e-05 1.000000000000e+02 -1.929421075277e+00 1.263539578113e-02 -1.929178420996e+00 -4.976104230116e+00 -1.477535792436e-06 1.221138166234e-06 -1.455115167634e-06 -1.596258976055e-04 2.944901242130e+00 3.046883088543e+00  1.581737151589e-04
3.000000000000e+00 0.000000000000e+00 6.084837117216e-05 1.000000000000e+02 -1.931243746004e+00 1.262328814391e-02 -1.931061001127e+00 -4.975963478261e+00 -1.496137640972e-06 1.217300061721e-06 -1.476476243472e-06 -1.596515214628e-04 2.946089408464e+00 3.044889608924e+00  1.581792680239e-04
3.100000000000e+00 0.000000000000e+00 6.121867878295e-05 1.000000000000e+02 -1.933057302697e+00 1.261125057665e-02 -1.932934646939e+00 -4.975823246138e+00 -1.514756388755e-06 1.213443850478e-06 -1.497868538925e-06 -1.596767746746e-04 2.947271731925e+00 3.042905674728e+00  1.581844261228e-04
3.200000000000e+00 0.000000000000e+00 6.158890489163e-05 1.000000000000e+02 -1.934861833796e+00 1.259927929281e-02 -1.934799446856e+00 -4.975683537498e+00 -1.533392167118e-06 1.209569209562e-06 -1.519292178497e-06 -1.597016603083e-04 2.948448272716e+00 3.040931201240e+00  1.581891923913e-04
3.300000000000e+00 0.000000000000e+00 6.195905130160e-05 1.000000000000e+02 -1.936657427057e+00 1.258737058987e-02 -1.936655488517e+00 -4.975544357598e+00 -1.552045094172e-06 1.205675826700e-06 -1.540747268530e-06 -1.597261814637e-04 2.949619091058e+00 3.038966105983e+00  1.581935698133e-04
3.400000000000e+00 0.000000000000e+00 6.232911973788e-05 1.000000000000e+02 -1.938444168965e+00 1.257552093625e-02 -1.938502858230e+00 -4.975405710846e+00 -1.570715282272e-06 1.201763409066e-06 -1.562233906668e-06 -1.597503411910e-04 2.950784246014e+00 3.037010306938e+00  1.581975613316e-04
3.500000000000e+00 0.000000000000e+00 6.269911184794e-05 1.000000000000e+02 -1.940222144684e+00 1.256372702145e-02 -1.940341640933e+00 -4.975267600885e+00 -1.589402835778e-06 1.197831688278e-06 -1.583752180099e-06 -1.597741424958e-04 2.951943795501e+00 3.035063722667e+00  1.582011698534e-04
3.600000000000e+00 0.000000000000e+00 6.306902924320e-05 1.000000000000e+02 -1.941991438308e+00 1.255198567322e-02 -1.942171920430e+00 -4.975130031273e+00 -1.608107851226e-06 1.193880411897e-06 -1.605302164898e-06 -1.597975883601e-04 2.953097796670e+00 3.033126272751e+00  1.582043982730e-04
3.700000000000e+00 0.000000000000e+00 6.343887342514e-05 1.000000000000e+02 -1.943752132716e+00 1.254029378316e-02 -1.943993779283e+00 -4.974993004980e+00 -1.626830417796e-06 1.189909335794e-06 -1.626883928735e-06 -1.598206817259e-04 2.954246305659e+00 3.031197877413e+00  1.582072494523e-04
3.800000000000e+00 0.000000000000e+00 6.380864592999e-05 1.000000000000e+02 -1.945504309924e+00 1.252864851097e-02 -1.945807299093e+00 -4.974856525504e+00 -1.645570616406e-06 1.185918244845e-06 -1.648497525942e-06 -1.598434255328e-04 2.955389378174e+00 3.029278458318e+00  1.582097262629e-04
3.900000000000e+00 0.000000000000e+00 6.417834816631e-05 1.000000000000e+02 -1.947248050350e+00 1.251704706942e-02 -1.947612559882e+00 -4.974720594184e+00 -1.664328525949e-06 1.181906930983e-06 -1.670143009771e-06 -1.598658226255e-04 2.956527068139e+00 3.027367936565e+00  1.582118314827e-04
4.000000000000e+00 0.000000000000e+00 6.454798154449e-05 1.000000000000e+02 -1.948983433815e+00 1.250548676129e-02 -1.949409640970e+00 -4.974585214083e+00 -1.683104211980e-06 1.177875196879e-06 -1.691820415030e-06 -1.598878758882e-04 2.957659429623e+00 3.025466235620e+00  1.582135679457e-04
4.100000000000e+00 0.000000000000e+00 6.491754740003e-05 1.000000000000e+02 -1.950710538815e+00 1.249396506724e-02 -1.951198620334e+00 -4.974450386955e+00 -1.701897736787e-06 1.173822864841e-06 -1.713529772285e-06 -1.599095881392e-04 2.958786515368e+00 3.023573278986e+00  1.582149384245e-04
4.200000000000e+00 0.000000000000e+00 6.528704709691e-05 1.000000000000e+02 -1.952429442908e+00 1.248247955834e-02 -1.952979574982e+00 -4.974316114126e+00 -1.720709161538e-06 1.169749767827e-06 -1.735271109410e-06 -1.599309621581e-04 2.959908377338e+00 3.021688990687e+00  1.582159456546e-04
4.300000000000e+00 0.000000000000e+00 6.565648181916e-05 1.000000000000e+02 -1.954140222574e+00 1.247102784205e-02 -1.954752580789e+00 -4.974182397493e+00 -1.739538531862e-06 1.165655743862e-06 -1.757044436048e-06 -1.599520007278e-04 2.961025066952e+00 3.019813296421e+00  1.582165923925e-04
4.400000000000e+00 0.000000000000e+00 6.602585286203e-05 1.000000000000e+02 -1.955842953144e+00 1.245960778179e-02 -1.956517712453e+00 -4.974049237503e+00 -1.758385896320e-06 1.161540658370e-06 -1.778849763414e-06 -1.599727065573e-04 2.962136634367e+00 3.017946121609e+00  1.582168813188e-04
4.500000000000e+00 0.000000000000e+00 6.639516137010e-05 1.000000000000e+02 -1.957537709173e+00 1.244821720356e-02 -1.958275043847e+00 -4.973916635541e+00 -1.777251292668e-06 1.157404374213e-06 -1.800687089258e-06 -1.599930823676e-04 2.963243129520e+00 3.016087393406e+00  1.582168151386e-04
4.600000000000e+00 0.000000000000e+00 6.676440852224e-05 1.000000000000e+02 -1.959224564082e+00 1.243685406452e-02 -1.960024647692e+00 -4.973784591986e+00 -1.796134757103e-06 1.153246768819e-06 -1.822556409155e-06 -1.600131308229e-04 2.964344601253e+00 3.014237039106e+00  1.582163965021e-04
4.700000000000e+00 0.000000000000e+00 6.713359543406e-05 1.000000000000e+02 -1.960903590367e+00 1.242551640603e-02 -1.961766595742e+00 -4.973653107404e+00 -1.815036318309e-06 1.149067729322e-06 -1.844457708754e-06 -1.600328545736e-04 2.965441097838e+00 3.012394987137e+00  1.582156280549e-04
4.800000000000e+00 0.000000000000e+00 6.750272319380e-05 1.000000000000e+02 -1.962574859559e+00 1.241420237337e-02 -1.963500958752e+00 -4.973522182032e+00 -1.833956001120e-06 1.144867154522e-06 -1.866390968299e-06 -1.600522562369e-04 2.966532666781e+00 3.010561166584e+00  1.582145124145e-04
4.900000000000e+00 0.000000000000e+00 6.787179285520e-05 1.000000000000e+02 -1.964238442233e+00 1.240291016583e-02 -1.965227806499e+00 -4.973391815862e+00 -1.852893825938e-06 1.140644949758e-06 -1.888356162505e-06 -1.600713384001e-04 2.967619354865e+00 3.008735507250e+00  1.582130521734e-04
5.000000000000e+00 0.000000000000e+00 6.824080544274e-05 1.000000000000e+02 -1.965894407960e+00 1.239163807080e-02 -1.966947207725e+00 -4.973262008479e+00 -1.871849808970e-06 1.136401030312e-06 -1.910353260267e-06 -1.600901036154e-04 2.968701208055e+00 3.006917939555e+00  1.582112498944e-04
5.100000000000e+00 0.000000000000e+00 6.860976197268e-05 1.000000000000e+02 -1.967542825713e+00 1.238038445851e-02 -1.968659230533e+00 -4.973132760394e+00 -1.890823959701e-06 1.132135320825e-06 -1.932382221713e-06 -1.601085544448e-04 2.969778272213e+00 3.005108395463e+00  1.582091081581e-04
5.200000000000e+00 0.000000000000e+00 6.897866339918e-05 1.000000000000e+02 -1.969183763054e+00 1.236914769290e-02 -1.970363941627e+00 -4.973004070148e+00 -1.909816287654e-06 1.127847746198e-06 -1.954443007499e-06 -1.601266933617e-04 2.970850591610e+00 3.003306806374e+00  1.582066294565e-04
5.300000000000e+00 0.000000000000e+00 6.934751067894e-05 1.000000000000e+02 -1.970817287122e+00 1.235792635251e-02 -1.972061407209e+00 -4.972875937843e+00 -1.928826793959e-06 1.123538253977e-06 -1.976535566048e-06 -1.601445228720e-04 2.971918210725e+00 3.001513105713e+00  1.582038163245e-04
5.400000000000e+00 0.000000000000e+00 6.971630473398e-05 1.000000000000e+02 -1.972443463882e+00 1.234671892168e-02 -1.973751692333e+00 -4.972748362216e+00 -1.947855479925e-06 1.119206782930e-06 -1.998659847079e-06 -1.601620454121e-04 2.972981172811e+00 2.999727226700e+00  1.582006712270e-04
5.500000000000e+00 0.000000000000e+00 7.008504641753e-05 1.000000000000e+02 -1.974062358602e+00 1.233552401546e-02 -1.975434861323e+00 -4.972621342598e+00 -1.966902340123e-06 1.114853285855e-06 -2.020815792003e-06 -1.601792634183e-04 2.974039520841e+00 2.997949103864e+00  1.581971966364e-04
5.600000000000e+00 0.000000000000e+00 7.045373666257e-05 1.000000000000e+02 -1.975674035389e+00 1.232434032786e-02 -1.977110977290e+00 -4.972494877140e+00 -1.985967367999e-06 1.110477724286e-06 -2.043003338420e-06 -1.601961792663e-04 2.975093296606e+00 2.996178671744e+00  1.581933949675e-04
5.700000000000e+00 0.000000000000e+00 7.082237627282e-05 1.000000000000e+02 -1.977278558039e+00 1.231316651851e-02 -1.978780103068e+00 -4.972368965361e+00 -2.005050552501e-06 1.106080056909e-06 -2.065222421160e-06 -1.602127953533e-04 2.976142542156e+00 2.994415866537e+00  1.581892686602e-04
5.800000000000e+00 0.000000000000e+00 7.119096610357e-05 1.000000000000e+02 -1.978875989271e+00 1.230200149098e-02 -1.980442300307e+00 -4.972243606501e+00 -2.024151874431e-06 1.101660267821e-06 -2.087472961386e-06 -1.602291140521e-04 2.977187298693e+00 2.992660625296e+00  1.581848201410e-04
5.900000000000e+00 0.000000000000e+00 7.155950693933e-05 1.000000000000e+02 -1.980466390780e+00 1.229084399270e-02 -1.982097629704e+00 -4.972118798201e+00 -2.043271320199e-06 1.097218325849e-06 -2.109754889545e-06 -1.602451376540e-04 2.978227606228e+00 2.990912884464e+00  1.581800517480e-04
6.000000000000e+00 0.000000000000e+00 7.192799958100e-05 1.000000000000e+02 -1.982049823690e+00 1.227969275086e-02 -1.983746151385e+00 -4.971994538837e+00 -2.062408870900e-06 1.092754198282e-06 -2.132068130663e-06 -1.602608684544e-04 2.979263504637e+00 2.989172581785e+00  1.581749658278e-04
6.100000000000e+00 0.000000000000e+00 7.229644477798e-05 1.000000000000e+02 -1.983626348261e+00 1.226854684008e-02 -1.985387924489e+00 -4.971870827074e+00 -2.081564499319e-06 1.088267888206e-06 -2.154412595203e-06 -1.602763087422e-04 2.980295033275e+00 2.987439656226e+00  1.581695647336e-04
6.200000000000e+00 0.000000000000e+00 7.266484327848e-05 1.000000000000e+02 -1.985196024222e+00 1.225740524491e-02 -1.987023007655e+00 -4.971747661845e+00 -2.100738178211e-06 1.083759390028e-06 -2.176788195164e-06 -1.602914607911e-04 2.981322231241e+00 2.985714047534e+00  1.581638508020e-04
6.300000000000e+00 0.000000000000e+00 7.303319583174e-05 1.000000000000e+02 -1.986758909855e+00 1.224626673778e-02 -1.988651458154e+00 -4.971625039419e+00 -2.119929884542e-06 1.079228677028e-06 -2.199194850770e-06 -1.603063267614e-04 2.982345135810e+00 2.983995694198e+00  1.581578262497e-04
6.400000000000e+00 0.000000000000e+00 7.340150314760e-05 1.000000000000e+02 -1.988315063514e+00 1.223513052052e-02 -1.990273333166e+00 -4.971502959603e+00 -2.139139579506e-06 1.074675766481e-06 -2.221632458089e-06 -1.603209089180e-04 2.983363785428e+00 2.982284538257e+00  1.581514934190e-04
6.500000000000e+00 0.000000000000e+00 7.376976590150e-05 1.000000000000e+02 -1.989864542335e+00 1.222399565021e-02 -1.991888688723e+00 -4.971381419805e+00 -2.158367231842e-06 1.070100661345e-06 -2.244100924269e-06 -1.603352094198e-04 2.984378216954e+00 2.980580520536e+00  1.581448545364e-04
6.600000000000e+00 0.000000000000e+00 7.413798477664e-05 1.000000000000e+02 -1.991407402755e+00 1.221286124610e-02 -1.993497580124e+00 -4.971260417885e+00 -2.177612803685e-06 1.065503371194e-06 -2.266600148132e-06 -1.603492304223e-04 2.985388466922e+00 2.978883583026e+00  1.581379118330e-04
6.700000000000e+00 0.000000000000e+00 7.450616044265e-05 1.000000000000e+02 -1.992943700682e+00 1.220172628546e-02 -1.995100062195e+00 -4.971139951734e+00 -2.196876258584e-06 1.060883891476e-06 -2.289130032696e-06 -1.603629740575e-04 2.986394571537e+00 2.977193668251e+00  1.581306675131e-04
6.800000000000e+00 0.000000000000e+00 7.487429353956e-05 1.000000000000e+02 -1.994473491087e+00 1.219059009638e-02 -1.996696188696e+00 -4.971020019154e+00 -2.216157552908e-06 1.056242253533e-06 -2.311690467266e-06 -1.603764424403e-04 2.987396566312e+00 2.975510719648e+00  1.581231237749e-04
6.900000000000e+00 0.000000000000e+00 7.524238471322e-05 1.000000000000e+02 -1.995996828339e+00 1.217945185112e-02 -1.998286012844e+00 -4.970900617958e+00 -2.235456642337e-06 1.051578473108e-06 -2.334281343259e-06 -1.603896376626e-04 2.988394486380e+00 2.973834681239e+00  1.581152827930e-04
7.000000000000e+00 0.000000000000e+00 7.561043456303e-05 1.000000000000e+02 -1.997513766042e+00 1.216831063432e-02 -1.999869587137e+00 -4.970781745081e+00 -2.254773486548e-06 1.046892557248e-06 -2.356902558608e-06 -1.604025617628e-04 2.989388366087e+00 2.972165496906e+00  1.581071466830e-04
7.100000000000e+00 0.000000000000e+00 7.597844369725e-05 1.000000000000e+02 -1.999024357319e+00 1.215716590363e-02 -2.001446963433e+00 -4.970663399175e+00 -2.274108031804e-06 1.042184551050e-06 -2.379553989531e-06 -1.604152168253e-04 2.990378239975e+00 2.970503112814e+00  1.580987176246e-04
7.200000000000e+00 0.000000000000e+00 7.634641271455e-05 1.000000000000e+02 -2.000528654404e+00 1.214601678787e-02 -2.003018192841e+00 -4.970545577188e+00 -2.293460232284e-06 1.037454466365e-06 -2.402235527343e-06 -1.604276048499e-04 2.991364141478e+00 2.968847474241e+00  1.580899977010e-04
7.300000000000e+00 0.000000000000e+00 7.671434220511e-05 1.000000000000e+02 -2.002026708921e+00 1.213486263480e-02 -2.004583325781e+00 -4.970428276565e+00 -2.312830036840e-06 1.032702337399e-06 -2.424947054013e-06 -1.604397278364e-04 2.992346103755e+00 2.967198527611e+00  1.580809890031e-04
7.400000000000e+00 0.000000000000e+00 7.708223269967e-05 1.000000000000e+02 -2.003518571942e+00 1.212370279762e-02 -2.006142412126e+00 -4.970311495061e+00 -2.332217391732e-06 1.027928198994e-06 -2.447688448972e-06 -1.604515877753e-04 2.993324159710e+00 2.965556220210e+00  1.580716936150e-04
7.500000000000e+00 0.000000000000e+00 7.745008476927e-05 1.000000000000e+02 -2.005004293701e+00 1.211253653710e-02 -2.007695500929e+00 -4.970195229598e+00 -2.351622244071e-06 1.023132076678e-06 -2.470459593503e-06 -1.604631866082e-04 2.994298341409e+00 2.963920499317e+00  1.580621135709e-04
7.600000000000e+00 0.000000000000e+00 7.781789894500e-05 1.000000000000e+02 -2.006483924236e+00 1.210136336844e-02 -2.009242640954e+00 -4.970079478955e+00 -2.371044532817e-06 1.018314021864e-06 -2.493260355920e-06 -1.604745263235e-04 2.995268681381e+00 2.962291314312e+00  1.580522509622e-04
7.700000000000e+00 0.000000000000e+00 7.818567578321e-05 1.000000000000e+02 -2.007957511966e+00 1.209018249633e-02 -2.010783879516e+00 -4.969964237696e+00 -2.390484209419e-06 1.013474054459e-06 -2.516090625681e-06 -1.604856087418e-04 2.996235209726e+00 2.960668611897e+00  1.580421076955e-04
7.800000000000e+00 0.000000000000e+00 7.855341580459e-05 1.000000000000e+02 -2.009425105963e+00 1.207899345191e-02 -2.012319264397e+00 -4.969849505436e+00 -2.409941208433e-06 1.008612227490e-06 -2.538950265803e-06 -1.604964358404e-04 2.997197958599e+00 2.959052343260e+00  1.580316858563e-04
7.900000000000e+00 0.000000000000e+00 7.892111946247e-05 1.000000000000e+02 -2.010886753919e+00 1.206779563428e-02 -2.013848842085e+00 -4.969735278872e+00 -2.429415470477e-06 1.003728580570e-06 -2.561839149624e-06 -1.605070094776e-04 2.998156958292e+00 2.957442458013e+00  1.580209874027e-04
8.000000000000e+00 0.000000000000e+00 7.928878732037e-05 1.000000000000e+02 -2.012342503080e+00 1.205658847632e-02 -2.015372658610e+00 -4.969621555108e+00 -2.448906934669e-06 9.988231567023e-07 -2.584757148538e-06 -1.605173315059e-04 2.999112238933e+00 2.955838906623e+00  1.580100142887e-04
8.100000000000e+00 0.000000000000e+00 7.965641983250e-05 1.000000000000e+02 -2.013792400051e+00 1.204537135631e-02 -2.016890759388e+00 -4.969508331020e+00 -2.468415539365e-06 9.938959932696e-07 -2.607704134377e-06 -1.605274037507e-04 3.000063830153e+00 2.954241639960e+00  1.579987684415e-04
8.200000000000e+00 0.000000000000e+00 8.002401747813e-05 1.000000000000e+02 -2.015236491145e+00 1.203414405007e-02 -2.018403189374e+00 -4.969395605096e+00 -2.487941214372e-06 9.889471679568e-07 -2.630679961683e-06 -1.605372280793e-04 3.001011761872e+00 2.952650610884e+00  1.579872518437e-04
8.300000000000e+00 0.000000000000e+00 8.039158071603e-05 1.000000000000e+02 -2.016674821631e+00 1.202290577030e-02 -2.019909992737e+00 -4.969283373168e+00 -2.507483900253e-06 9.839767011414e-07 -2.653684509026e-06 -1.605468062414e-04 3.001956062512e+00 2.951065770507e+00  1.579754663420e-04
8.400000000000e+00 0.000000000000e+00 8.075911003710e-05 1.000000000000e+02 -2.018107436500e+00 1.201165602032e-02 -2.021411213226e+00 -4.969171632434e+00 -2.527043531398e-06 9.789846425985e-07 -2.676717641499e-06 -1.605561400189e-04 3.002896760720e+00 2.949487071661e+00  1.579634138254e-04
8.500000000000e+00 0.000000000000e+00 8.112660583393e-05 1.000000000000e+02 -2.019534380377e+00 1.200039446025e-02 -2.022906894185e+00 -4.969060381220e+00 -2.546620034951e-06 9.739710578803e-07 -2.699779214775e-06 -1.605652312166e-04 3.003833885260e+00 2.947914468694e+00  1.579510962150e-04
8.600000000000e+00 0.000000000000e+00 8.149406859818e-05 1.000000000000e+02 -2.020955696794e+00 1.198912055210e-02 -2.024397077951e+00 -4.968949615304e+00 -2.566213347395e-06 9.689359922839e-07 -2.722869098384e-06 -1.605740815311e-04 3.004767463349e+00 2.946347914451e+00  1.579385153109e-04
8.700000000000e+00 0.000000000000e+00 8.186149876728e-05 1.000000000000e+02 -2.022371429230e+00 1.197783389102e-02 -2.025881806741e+00 -4.968839332558e+00 -2.585823396826e-06 9.638795044293e-07 -2.745987149877e-06 -1.605826927142e-04 3.005697522843e+00 2.944787363961e+00  1.579256729796e-04
8.800000000000e+00 0.000000000000e+00 8.222889671591e-05 1.000000000000e+02 -2.023781620422e+00 1.196653393420e-02 -2.027361122095e+00 -4.968729529854e+00 -2.605450114144e-06 9.588016387396e-07 -2.769133232991e-06 -1.605910664645e-04 3.006624090790e+00 2.943232771959e+00  1.579125710293e-04
8.900000000000e+00 0.000000000000e+00 8.259626290934e-05 1.000000000000e+02 -2.025186312539e+00 1.195522037902e-02 -2.028835064923e+00 -4.968620204180e+00 -2.625093427567e-06 9.537024638463e-07 -2.792307205493e-06 -1.605992044691e-04 3.007547193880e+00 2.941684093901e+00  1.578992112617e-04
9.000000000000e+00 0.000000000000e+00 8.296359772760e-05 1.000000000000e+02 -2.026585547388e+00 1.194389273453e-02 -2.030303675809e+00 -4.968511352864e+00 -2.644753265050e-06 9.485820290142e-07 -2.815508926706e-06 -1.606071084078e-04 3.008466858687e+00 2.940141285921e+00  1.578855954698e-04
9.100000000000e+00 0.000000000000e+00 8.333090156249e-05 1.000000000000e+02 -2.027979366191e+00 1.193255059895e-02 -2.031766994738e+00 -4.968402973038e+00 -2.664429553694e-06 9.434403923426e-07 -2.838738254433e-06 -1.606147799369e-04 3.009383111322e+00 2.938604304552e+00  1.578717254250e-04
9.200000000000e+00 0.000000000000e+00 8.369817483766e-05 1.000000000000e+02 -2.029367809465e+00 1.192119369665e-02 -2.033225061003e+00 -4.968295061199e+00 -2.684122220847e-06 9.382776245032e-07 -2.861995047137e-06 -1.606222206747e-04 3.010295977222e+00 2.937073106392e+00  1.578576028600e-04
9.300000000000e+00 0.000000000000e+00 8.406541793828e-05 1.000000000000e+02 -2.030750917937e+00 1.190982138770e-02 -2.034677914101e+00 -4.968187616022e+00 -2.703831190368e-06 9.330937588745e-07 -2.885279159644e-06 -1.606294322943e-04 3.011205482687e+00 2.935547650005e+00  1.578432295655e-04
9.400000000000e+00 0.000000000000e+00 8.443263122200e-05 1.000000000000e+02 -2.032128730642e+00 1.189843351034e-02 -2.036125591849e+00 -4.968080632432e+00 -2.723556390538e-06 9.278888771876e-07 -2.908590451688e-06 -1.606364163284e-04 3.012111651641e+00 2.934027891896e+00  1.578286071879e-04
9.500000000000e+00 0.000000000000e+00 8.479981506657e-05 1.000000000000e+02 -2.033501287144e+00 1.188702954506e-02 -2.037568132612e+00 -4.967974108410e+00 -2.743297745677e-06 9.226630244977e-07 -2.931928779966e-06 -1.606431743926e-04 3.013014509389e+00 2.932513791085e+00  1.578137374594e-04
9.600000000000e+00 0.000000000000e+00 8.516696981797e-05 1.000000000000e+02 -2.034868626302e+00 1.187560934146e-02 -2.039005573948e+00 -4.967868041696e+00 -2.763055176417e-06 9.174162830856e-07 -2.955293992323e-06 -1.606497080831e-04 3.013914080649e+00 2.931005307109e+00  1.577986220996e-04
9.700000000000e+00 0.000000000000e+00 8.553409588643e-05 1.000000000000e+02 -2.036230786316e+00 1.186417237808e-02 -2.040437952904e+00 -4.967762428808e+00 -2.782828609069e-06 9.121486972231e-07 -2.978685949686e-06 -1.606560189330e-04 3.014810389343e+00 2.929502398866e+00  1.577832627552e-04
9.800000000000e+00 0.000000000000e+00 8.590119357543e-05 1.000000000000e+02 -2.037587804884e+00 1.185271826861e-02 -2.041865305986e+00 -4.967657266277e+00 -2.802617968552e-06 9.068603245956e-07 -3.002104509633e-06 -1.606621084613e-04 3.015703459049e+00 2.928005025789e+00  1.577676610612e-04
9.900000000000e+00 0.000000000000e+00 8.626826324919e-05 1.000000000000e+02 -2.038939719591e+00 1.184124693136e-02 -2.043287669457e+00 -4.967552552531e+00 -2.822423170507e-06 9.015512535037e-07 -3.025549513671e-06 -1.606679782409e-04 3.016593313860e+00 2.926513149388e+00  1.577518187197e-04
1.000000000000e+01 0.000000000000e+00 8.663530524417e-05 1.000000000000e+02 -2.040286567252e+00 1.182975775386e-02 -2.044705079036e+00 -4.967448283512e+00 -2.842244145002e-06 8.962215180065e-07 -3.049020829497e-06 -1.606736297338e-04 3.017479976600e+00 2.925026729340e+00  1.577357373010e-04