VARIABLES  = "X","Y","Z", "PRESSURE1"
ZONE T="0.000000000000e+00s", N=101, E=100, F=FEPOINT, ET=QUADRILATERAL
STRANDID=1, SOLUTIONTIME=0.000000000000e+00
0.000000000000e+00 0.000000000000e+00 0.000000000000e+00 0.000000000000e+00 
1.000000000000e+00 0.000000000000e+00 0.000000000000e+00 0.000000000000e+00 
2.000000000000e+00 0.000000000000e+00 0.000000000000e+00 0.000000000000e+00 
3.000000000000e+00 0.000000000000e+00 0.000000000000e+00 0.000000000000e+00 
4.000000000000e+00 0.000000000000e+00 0.000000000000e+00 0.000000000000e+00 
5.000000000000e+00 0.000000000000e+00 0.000000000000e+00 0.000000000000e+00 
6.000000000000e+00 0.000000000000e+00 0.000000000000e+00 0.000000000000e+00 
7.000000000000e+00 0.000000000000e+00 0.000000000000e+00 0.000000000000e+00 
8.000000000000e+00 0.000000000000e+00 0.000000000000e+00 0.000000000000e+00 
9.000000000000e+00 0.000000000000e+00 0.000000000000e+00 0.000000000000e+00 
1.000000000000e+01 0.000000000000e+00 0.000000000000e+00 0.000000000000e+00 
1.100000000000e+01 0.000000000000e+00 0.000000000000e+00 0.000000000000e+00 
1.200000000000e+01 0.000000000000e+00 0.000000000000e+00 0.000000000000e+00 
1.300000000000e+01 0.000000000000e+00 0.000000000000e+00 0.000000000000e+00 
1.400000000000e+01 0.000000000000e+00 0.000000000000e+00 0.000000000000e+00 
1.500000000000e+01 0.000000000000e+00 0.000000000000e+00 0.000000000000e+00 
1.600000000000e+01 0.000000000000e+00 0.000000000000e+00 0.000000000000e+00 
1.700000000000e+01 0.000000000000e+00 0.000000000000e+00 0.000000000000e+00 
1.800000000000e+01 0.000000000000e+00 0.000000000000e+00 0.000000000000e+00 
1.900000000000e+01 0.000000000000e+00 0.000000000000e+00 0.000000000000e+00 
2.000000000000e+01 0.000000000000e+00 0.000000000000e+00 0.000000000000e+00 
2.100000000000e+01 0.000000000000e+00 0.000000000000e+00 0.000000000000e+00 
2.200000000000e+01 0.000000000000e+00 0.000000000000e+00 0.000000000000e+00 
2.300000000000e+01 0.000000000000e+00 0.000000000000e+00 0.000000000000e+00 
2.400000000000e+01 0.000000000000e+00 0.000000000000e+00 0.000000000000e+00 
2.500000000000e+01 0.000000000000e+00 0.000000000000e+00 0.000000000000e+00 
2.600000000000e+01 0.000000000000e+00 0.000000000000e+00 0.000000000000e+00 
2.700000000000e+01 0.000000000000e+00 0.000000000000e+00 0.000000000000e+00 
2.800000000000e+01 0.000000000000e+00 0.000000000000e+00 0.000000000000e+00 
2.900000000000e+01 0.000000000000e+00 0.000000000000e+00 0.000000000000e+00 
3.000000000000e+01 0.000000000000e+00 0.000000000000e+00 0.000000000000e+00 
3.100000000000e+01 0.000000000000e+00 0.000000000000e+00 0.000000000000e+00 
3.200000000000e+01 0.000000000000e+00 0.000000000000e+00 0.000000000000e+00 
3.300000000000e+01 0.000000000000e+00 0.000000000000e+00 0.000000000000e+00 
3.400000000000e+01 0.000000000000e+00 0.000000000000e+00 0.000000000000e+00 
3.500000000000e+01 0.000000000000e+00 0.000000000000e+00 0.000000000000e+00 
3.600000000000e+01 0.000000000000e+00 0.000000000000e+00 0.000000000000e+00 
3.700000000000e+01 0.000000000000e+00 0.000000000000e+00 0.000000000000e+00 
3.800000000000e+01 0.000000000000e+00 0.000000000000e+00 0.000000000000e+00 
3.900000000000e+01 0.000000000000e+00 0.000000000000e+00 0.000000000000e+00 
4.000000000000e+01 0.000000000000e+00 0.000000000000e+00 0.000000000000e+00 
4.100000000000e+01 0.000000000000e+00 0.000000000000e+00 0.000000000000e+00 
4.200000000000e+01 0.000000000000e+00 0.000000000000e+00 0.000000000000e+00 
4.300000000000e+01 0.000000000000e+00 0.000000000000e+00 0.000000000000e+00 
4.400000000000e+01 0.000000000000e+00 0.000000000000e+00 0.000000000000e+00 
4.500000000000e+01 0.000000000000e+00 0.000000000000e+00 0.000000000000e+00 
4.600000000000e+01 0.000000000000e+00 0.000000000000e+00 0.000000000000e+00 
4.700000000000e+01 0.000000000000e+00 0.000000000000e+00 0.000000000000e+00 
4.800000000000e+01 0.000000000000e+00 0.000000000000e+00 0.000000000000e+00 
4.900000000000e+01 0.000000000000e+00 0.000000000000e+00 0.000000000000e+00 
5.000000000000e+01 0.000000000000e+00 0.000000000000e+00 0.000000000000e+00 
5.100000000000e+01 0.000000000000e+00 0.000000000000e+00 0.000000000000e+00 
5.200000000000e+01 0.000000000000e+00 0.000000000000e+00 0.000000000000e+00 
5.300000000000e+01 0.000000000000e+00 0.000000000000e+00 0.000000000000e+00 
5.400000000000e+01 0.000000000000e+00 0.000000000000e+00 0.000000000000e+00 
5.500000000000e+01 0.000000000000e+00 0.000000000000e+00 0.000000000000e+00 
5.600000000000e+01 0.000000000000e+00 0.000000000000e+00 0.000000000000e+00 
5.700000000000e+01 0.000000000000e+00 0.000000000000e+00 0.000000000000e+00 
5.800000000000e+01 0.000000000000e+00 0.000000000000e+00 0.000000000000e+00 
5.900000000000e+01 0.000000000000e+00 0.000000000000e+00 0.000000000000e+00 
6.000000000000e+01 0.000000000000e+00 0.000000000000e+00 0.000000000000e+00 
6.100000000000e+01 0.000000000000e+00 0.000000000000e+00 0.000000000000e+00 
6.200000000000e+01 0.000000000000e+00 0.000000000000e+00 0.000000000000e+00 
6.300000000000e+01 0.000000000000e+00 0.000000000000e+00 0.000000000000e+00 
6.400000000000e+01 0.000000000000e+00 0.000000000000e+00 0.000000000000e+00 
6.500000000000e+01 0.000000000000e+00 0.000000000000e+00 0.000000000000e+00 
6.600000000000e+01 0.000000000000e+00 0.000000000000e+00 0.000000000000e+00 
6.700000000000e+01 0.000000000000e+00 0.000000000000e+00 0.000000000000e+00 
6.800000000000e+01 0.000000000000e+00 0.000000000000e+00 0.000000000000e+00 
6.900000000000e+01 0.000000000000e+00 0.000000000000e+00 0.000000000000e+00 
7.000000000000e+01 0.000000000000e+00 0.000000000000e+00 0.000000000000e+00 
7.100000000000e+01 0.000000000000e+00 0.000000000000e+00 0.000000000000e+00 
7.200000000000e+01 0.000000000000e+00 0.000000000000e+00 0.000000000000e+00 
7.300000000000e+01 0.000000000000e+00 0.000000000000e+00 0.000000000000e+00 
7.400000000000e+01 0.000000000000e+00 0.000000000000e+00 0.000000000000e+00 
7.500000000000e+01 0.000000000000e+00 0.000000000000e+00 0.000000000000e+00 
7.600000000000e+01 0.000000000000e+00 0.000000000000e+00 0.000000000000e+00 
7.700000000000e+01 0.000000000000e+00 0.000000000000e+00 0.000000000000e+00 
7.800000000000e+01 0.000000000000e+00 0.000000000000e+00 0.000000000000e+00 
7.900000000000e+01 0.000000000000e+00 0.000000000000e+00 0.000000000000e+00 
8.000000000000e+01 0.000000000000e+00 0.000000000000e+00 0.000000000000e+00 
8.100000000000e+01 0.000000000000e+00 0.000000000000e+00 0.000000000000e+00 
8.200000000000e+01 0.000000000000e+00 0.000000000000e+00 0.000000000000e+00 
8.300000000000e+01 0.000000000000e+00 0.000000000000e+00 0.000000000000e+00 
8.400000000000e+01 0.000000000000e+00 0.000000000000e+00 0.000000000000e+00 
8.500000000000e+01 0.000000000000e+00 0.000000000000e+00 0.000000000000e+00 
8.600000000000e+01 0.000000000000e+00 0.000000000000e+00 0.000000000000e+00 
8.700000000000e+01 0.000000000000e+00 0.000000000000e+00 0.000000000000e+00 
8.800000000000e+01 0.000000000000e+00 0.000000000000e+00 0.000000000000e+00 
8.900000000000e+01 0.000000000000e+00 0.000000000000e+00 0.000000000000e+00 
9.000000000000e+01 0.000000000000e+00 0.000000000000e+00 0.000000000000e+00 
9.100000000000e+01 0.000000000000e+00 0.000000000000e+00 0.000000000000e+00 
9.200000000000e+01 0.000000000000e+00 0.000000000000e+00 0.000000000000e+00 
9.300000000000e+01 0.000000000000e+00 0.000000000000e+00 0.000000000000e+00 
9.400000000000e+01 0.000000000000e+00 0.000000000000e+00 0.000000000000e+00 
9.500000000000e+01 0.000000000000e+00 0.000000000000e+00 0.000000000000e+00 
9.600000000000e+01 0.000000000000e+00 0.000000000000e+00 0.000000000000e+00 
9.700000000000e+01 0.000000000000e+00 0.000000000000e+00 0.000000000000e+00 
9.800000000000e+01 0.000000000000e+00 0.000000000000e+00 0.000000000000e+00 
9.900000000000e+01 0.000000000000e+00 0.000000000000e+00 0.000000000000e+00 
1.000000000000e+02 0.000000000000e+00 0.000000000000e+00 0.000000000000e+00 
1  2  2  1
2  3  3  2
3  4  4  3
4  5  5  4
5  6  6  5
6  7  7  6
7  8  8  7
8  9  9  8
9  10  10  9
10  11  11  10
11  12  12  11
12  13  13  12
13  14  14  13
14  15  15  14
15  16  16  15
16  17  17  16
17  18  18  17
18  19  19  18
19  20  20  19
20  21  21  20
21  22  22  21
22  23  23  22
23  24  24  23
24  25  25  24
25  26  26  25
26  27  27  26
27  28  28  27
28  29  29  28
29  30  30  29
30  31  31  30
31  32  32  31
32  33  33  32
33  34  34  33
34  35  35  34
35  36  36  35
36  37  37  36
37  38  38  37
38  39  39  38
39  40  40  39
40  41  41  40
41  42  42  41
42  43  43  42
43  44  44  43
44  45  45  44
45  46  46  45
46  47  47  46
47  48  48  47
48  49  49  48
49  50  50  49
50  51  51  50
51  52  52  51
52  53  53  52
53  54  54  53
54  55  55  54
55  56  56  55
56  57  57  56
57  58  58  57
58  59  59  58
59  60  60  59
60  61  61  60
61  62  62  61
62  63  63  62
63  64  64  63
64  65  65  64
65  66  66  65
66  67  67  66
67  68  68  67
68  69  69  68
69  70  70  69
70  71  71  70
71  72  72  71
72  73  73  72
73  74  74  73
74  75  75  74
75  76  76  75
76  77  77  76
77  78  78  77
78  79  79  78
79  80  80  79
80  81  81  80
81  82  82  81
82  83  83  82
83  84  84  83
84  85  85  84
85  86  86  85
86  87  87  86
87  88  88  87
88  89  89  88
89  90  90  89
90  91  91  90
91  92  92  91
92  93  93  92
93  94  94  93
94  95  95  94
95  96  96  95
96  97  97  96
97  98  98  97
98  99  99  98
99  100  100  99
100  101  101  100
VARIABLES  = "X","Y","Z", "PRESSURE1"
ZONE T="1.000000000000e+00s", N=101, E=100, F=FEPOINT, ET=QUADRILATERAL
STRANDID=1, SOLUTIONTIME=1.000000000000e+00
0.000000000000e+00 0.000000000000e+00 0.000000000000e+00 1.357407000000e+05 
1.000000000000e+00 0.000000000000e+00 0.000000000000e+00 1.345832930000e+05 
2.000000000000e+00 0.000000000000e+00 0.000000000000e+00 1.334258860000e+05 
3.000000000000e+00 0.000000000000e+00 0.000000000000e+00 1.322684790000e+05 
4.000000000000e+00 0.000000000000e+00 0.000000000000e+00 1.311110720000e+05 
5.000000000000e+00 0.000000000000e+00 0.000000000000e+00 1.299536650000e+05 
6.000000000000e+00 0.000000000000e+00 0.000000000000e+00 1.287962580000e+05 
7.000000000000e+00 0.000000000000e+00 0.000000000000e+00 1.276388510000e+05 
8.000000000000e+00 0.000000000000e+00 0.000000000000e+00 1.264814440000e+05 
9.000000000000e+00 0.000000000000e+00 0.000000000000e+00 1.253240370000e+05 
1.000000000000e+01 0.000000000000e+00 0.000000000000e+00 1.241666300000e+05 
1.100000000000e+01 0.000000000000e+00 0.000000000000e+00 1.230092230000e+05 
1.200000000000e+01 0.000000000000e+00 0.000000000000e+00 1.218518160000e+05 
1.300000000000e+01 0.000000000000e+00 0.000000000000e+00 1.206944090000e+05 
1.400000000000e+01 0.000000000000e+00 0.000000000000e+00 1.195370020000e+05 
1.500000000000e+01 0.000000000000e+00 0.000000000000e+00 1.183795950000e+05 
1.600000000000e+01 0.000000000000e+00 0.000000000000e+00 1.172221880000e+05 
1.700000000000e+01 0.000000000000e+00 0.000000000000e+00 1.160647810000e+05 
1.800000000000e+01 0.000000000000e+00 0.000000000000e+00 1.149073740000e+05 
1.900000000000e+01 0.000000000000e+00 0.000000000000e+00 1.137499670000e+05 
2.000000000000e+01 0.000000000000e+00 0.000000000000e+00 1.125925600000e+05 
2.100000000000e+01 0.000000000000e+00 0.000000000000e+00 1.114351530000e+05 
2.200000000000e+01 0.000000000000e+00 0.000000000000e+00 1.102777460000e+05 
2.300000000000e+01 0.000000000000e+00 0.000000000000e+00 1.091203390000e+05 
2.400000000000e+01 0.000000000000e+00 0.000000000000e+00 1.079629320000e+05 
2.500000000000e+01 0.000000000000e+00 0.000000000000e+00 1.068055250000e+05 
2.600000000000e+01 0.000000000000e+00 0.000000000000e+00 1.056481180000e+05 
2.700000000000e+01 0.000000000000e+00 0.000000000000e+00 1.044907110000e+05 
2.800000000000e+01 0.000000000000e+00 0.000000000000e+00 1.033333040000e+05 
2.900000000000e+01 0.000000000000e+00 0.000000000000e+00 1.021758970000e+05 
3.000000000000e+01 0.000000000000e+00 0.000000000000e+00 1.010184900000e+05 
3.100000000000e+01 0.000000000000e+00 0.000000000000e+00 9.986108300000e+04 
3.200000000000e+01 0.000000000000e+00 0.000000000000e+00 9.870367600000e+04 
3.300000000000e+01 0.000000000000e+00 0.000000000000e+00 9.754626900000e+04 
3.400000000000e+01 0.000000000000e+00 0.000000000000e+00 9.638886200000e+04 
3.500000000000e+01 0.000000000000e+00 0.000000000000e+00 9.523145500000e+04 
3.600000000000e+01 0.000000000000e+00 0.000000000000e+00 9.407404800000e+04 
3.700000000000e+01 0.000000000000e+00 0.000000000000e+00 9.291664100000e+04 
3.800000000000e+01 0.000000000000e+00 0.000000000000e+00 9.175923400000e+04 
3.900000000000e+01 0.000000000000e+00 0.000000000000e+00 9.060182700000e+04 
4.000000000000e+01 0.000000000000e+00 0.000000000000e+00 8.944442000000e+04 
4.100000000000e+01 0.000000000000e+00 0.000000000000e+00 8.828701300000e+04 
4.200000000000e+01 0.000000000000e+00 0.000000000000e+00 8.712960600000e+04 
4.300000000000e+01 0.000000000000e+00 0.000000000000e+00 8.597219900000e+04 
4.400000000000e+01 0.000000000000e+00 0.000000000000e+00 8.481479200000e+04 
4.500000000000e+01 0.000000000000e+00 0.000000000000e+00 8.365738500000e+04 
4.600000000000e+01 0.000000000000e+00 0.000000000000e+00 8.249997800000e+04 
4.700000000000e+01 0.000000000000e+00 0.000000000000e+00 8.134257100000e+04 
4.800000000000e+01 0.000000000000e+00 0.000000000000e+00 8.018516400000e+04 
4.900000000000e+01 0.000000000000e+00 0.000000000000e+00 7.902775700000e+04 
5.000000000000e+01 0.000000000000e+00 0.000000000000e+00 7.787035000000e+04 
5.100000000000e+01 0.000000000000e+00 0.000000000000e+00 7.671294300000e+04 
5.200000000000e+01 0.000000000000e+00 0.000000000000e+00 7.555553600000e+04 
5.300000000000e+01 0.000000000000e+00 0.000000000000e+00 7.439812900000e+04 
5.400000000000e+01 0.000000000000e+00 0.000000000000e+00 7.324072200000e+04 
5.500000000000e+01 0.000000000000e+00 0.000000000000e+00 7.208331500000e+04 
5.600000000000e+01 0.000000000000e+00 0.000000000000e+00 7.092590800000e+04 
5.700000000000e+01 0.000000000000e+00 0.000000000000e+00 6.976850100000e+04 
5.800000000000e+01 0.000000000000e+00 0.000000000000e+00 6.861109400000e+04 
5.900000000000e+01 0.000000000000e+00 0.000000000000e+00 6.745368700000e+04 
6.000000000000e+01 0.000000000000e+00 0.000000000000e+00 6.629628000000e+04 
6.100000000000e+01 0.000000000000e+00 0.000000000000e+00 6.513887300000e+04 
6.200000000000e+01 0.000000000000e+00 0.000000000000e+00 6.398146600000e+04 
6.300000000000e+01 0.000000000000e+00 0.000000000000e+00 6.282405900000e+04 
6.400000000000e+01 0.000000000000e+00 0.000000000000e+00 6.166665200000e+04 
6.500000000000e+01 0.000000000000e+00 0.000000000000e+00 6.050924500000e+04 
6.600000000000e+01 0.000000000000e+00 0.000000000000e+00 5.935183800000e+04 
6.700000000000e+01 0.000000000000e+00 0.000000000000e+00 5.819443100000e+04 
6.800000000000e+01 0.000000000000e+00 0.000000000000e+00 5.703702400000e+04 
6.900000000000e+01 0.000000000000e+00 0.000000000000e+00 5.587961700000e+04 
7.000000000000e+01 0.000000000000e+00 0.000000000000e+00 5.472221000000e+04 
7.100000000000e+01 0.000000000000e+00 0.000000000000e+00 5.356480300000e+04 
7.200000000000e+01 0.000000000000e+00 0.000000000000e+00 5.240739600000e+04 
7.300000000000e+01 0.000000000000e+00 0.000000000000e+00 5.124998900000e+04 
7.400000000000e+01 0.000000000000e+00 0.000000000000e+00 5.009258200000e+04 
7.500000000000e+01 0.000000000000e+00 0.000000000000e+00 4.893517500000e+04 
7.600000000000e+01 0.000000000000e+00 0.000000000000e+00 4.777776800000e+04 
7.700000000000e+01 0.000000000000e+00 0.000000000000e+00 4.662036100000e+04 
7.800000000000e+01 0.000000000000e+00 0.000000000000e+00 4.546295400000e+04 
7.900000000000e+01 0.000000000000e+00 0.000000000000e+00 4.430554700000e+04 
8.000000000000e+01 0.000000000000e+00 0.000000000000e+00 4.314814000000e+04 
8.100000000000e+01 0.000000000000e+00 0.000000000000e+00 4.199073300000e+04 
8.200000000000e+01 0.000000000000e+00 0.000000000000e+00 4.083332600000e+04 
8.300000000000e+01 0.000000000000e+00 0.000000000000e+00 3.967591900000e+04 
8.400000000000e+01 0.000000000000e+00 0.000000000000e+00 3.851851200000e+04 
8.500000000000e+01 0.000000000000e+00 0.000000000000e+00 3.736110500000e+04 
8.600000000000e+01 0.000000000000e+00 0.000000000000e+00 3.620369800000e+04 
8.700000000000e+01 0.000000000000e+00 0.000000000000e+00 3.504629100000e+04 
8.800000000000e+01 0.000000000000e+00 0.000000000000e+00 3.388888400000e+04 
8.900000000000e+01 0.000000000000e+00 0.000000000000e+00 3.273147700000e+04 
9.000000000000e+01 0.000000000000e+00 0.000000000000e+00 3.157407000000e+04 
9.100000000000e+01 0.000000000000e+00 0.000000000000e+00 3.041666300000e+04 
9.200000000000e+01 0.000000000000e+00 0.000000000000e+00 2.925925600000e+04 
9.300000000000e+01 0.000000000000e+00 0.000000000000e+00 2.810184900000e+04 
9.400000000000e+01 0.000000000000e+00 0.000000000000e+00 2.694444200000e+04 
9.500000000000e+01 0.000000000000e+00 0.000000000000e+00 2.578703500000e+04 
9.600000000000e+01 0.000000000000e+00 0.000000000000e+00 2.462962800000e+04 
9.700000000000e+01 0.000000000000e+00 0.000000000000e+00 2.347222100000e+04 
9.800000000000e+01 0.000000000000e+00 0.000000000000e+00 2.231481400000e+04 
9.900000000000e+01 0.000000000000e+00 0.000000000000e+00 2.115740700000e+04 
1.000000000000e+02 0.000000000000e+00 0.000000000000e+00 2.000000000000e+04 
1  2  2  1
2  3  3  2
3  4  4  3
4  5  5  4
5  6  6  5
6  7  7  6
7  8  8  7
8  9  9  8
9  10  10  9
10  11  11  10
11  12  12  11
12  13  13  12
13  14  14  13
14  15  15  14
15  16  16  15
16  17  17  16
17  18  18  17
18  19  19  18
19  20  20  19
20  21  21  20
21  22  22  21
22  23  23  22
23  24  24  23
24  25  25  24
25  26  26  25
26  27  27  26
27  28  28  27
28  29  29  28
29  30  30  29
30  31  31  30
31  32  32  31
32  33  33  32
33  34  34  33
34  35  35  34
35  36  36  35
36  37  37  36
37  38  38  37
38  39  39  38
39  40  40  39
40  41  41  40
41  42  42  41
42  43  43  42
43  44  44  43
44  45  45  44
45  46  46  45
46  47  47  46
47  48  48  47
48  49  49  48
49  50  50  49
50  51  51  50
51  52  52  51
52  53  53  52
53  54  54  53
54  55  55  54
55  56  56  55
56  57  57  56
57  58  58  57
58  59  59  58
59  60  60  59
60  61  61  60
61  62  62  61
62  63  63  62
63  64  64  63
64  65  65  64
65  66  66  65
66  67  67  66
67  68  68  67
68  69  69  68
69  70  70  69
70  71  71  70
71  72  72  71
72  73  73  72
73  74  74  73
74  75  75  74
75  76  76  75
76  77  77  76
77  78  78  77
78  79  79  78
79  80  80  79
80  81  81  80
81  82  82  81
82  83  83  82
83  84  84  83
84  85  85  84
85  86  86  85
86  87  87  86
87  88  88  87
88  89  89  88
89  90  90  89
90  91  91  90
91  92  92  91
92  93  93  92
93  94  94  93
94  95  95  94
95  96  96  95
96  97  97  96
97  98  98  97
98  99  99  98
99  100  100  99
100  101  101  100
