 TITLE = "Time curves in points"
 VARIABLES = "TIME "  "PRESSURE1"  "PRESSURE2"  "SATURATION1" SATURATION2  "VELOCITY_X1"  "VELOCITY_Y1"  "VELOCITY_Z1"  "VELOCITY_X2"  "VELOCITY_Y2"  "VELOCITY_Z2"  "Wassertracer"  "CO2tracer" 
 ZONE T="POINT=POINT16"
0.000000000000e+00 5.000000000000e+03 2.461649000000e+07 9.750000000000e-01 2.500000000000e-02 0.000000000000e+00 0.000000000000e+00 0.000000000000e+00 0.000000000000e+00 0.000000000000e+00 0.000000000000e+00 1.000000000000e+00 1.000000000000e+00 
4.320000000000e+04 5.000003399998e+03 2.529414961821e+07 9.750000200000e-01 2.499998000000e-02 1.781785089455e-06 0.000000000000e+00 -6.173327648437e-08 0.000000000000e+00 0.000000000000e+00 0.000000000000e+00 9.203242451091e-01 1.000001947699e+00 
8.640000000000e+04 5.000003400002e+03 2.529311781066e+07 9.750000200000e-01 2.499998000000e-02 1.783460997163e-06 0.000000000000e+00 -6.133255962685e-08 0.000000000000e+00 0.000000000000e+00 0.000000000000e+00 8.365364753110e-01 9.998347647235e-01 
1.296000000000e+05 5.000003400005e+03 2.529527818653e+07 9.750000200000e-01 2.499998000000e-02 1.771319578533e-06 0.000000000000e+00 -6.286333352543e-08 0.000000000000e+00 0.000000000000e+00 0.000000000000e+00 7.518765780236e-01 1.000537393817e+00 
1.728000000000e+05 5.000010937054e+03 2.529413492489e+07 9.749977752687e-01 2.500222473126e-02 1.772296864747e-06 0.000000000000e+00 -6.378294990855e-08 6.517306292315e-11 0.000000000000e+00 2.931463586904e-14 6.678443152845e-01 1.001365412366e+00 
2.160000000000e+05 5.000195704103e+03 2.529505365458e+07 9.749437706393e-01 2.505622936068e-02 1.754165989480e-06 0.000000000000e+00 -6.773779312994e-08 3.710018596980e-09 0.000000000000e+00 1.529912913481e-13 5.877698105447e-01 9.678883391551e-01 
2.592000000000e+05 5.012876827311e+03 2.529480354335e+07 9.713618046092e-01 2.863819539083e-02 1.696229450196e-06 0.000000000000e+00 -6.883553027081e-08 9.039471090631e-08 0.000000000000e+00 5.835638665003e-13 5.174801538035e-01 7.106241210673e-01 
3.024000000000e+05 5.079443124108e+03 2.529689810926e+07 9.532322801807e-01 4.676771981932e-02 1.424306573911e-06 0.000000000000e+00 -7.510692499411e-08 3.716854681694e-07 0.000000000000e+00 5.257267865787e-12 4.717879981620e-01 4.080675446195e-01 
3.456000000000e+05 5.213929908879e+03 2.530099876310e+07 9.195160699197e-01 8.048393008034e-02 1.138329631852e-06 0.000000000000e+00 -7.912761706361e-08 6.684849718453e-07 0.000000000000e+00 2.640111559749e-12 4.414486277567e-01 2.741959193854e-01 
3.888000000000e+05 5.389427426159e+03 2.530543522658e+07 8.790751599572e-01 1.209248400428e-01 8.292754650509e-07 0.000000000000e+00 -7.260069091691e-08 9.809122806047e-07 0.000000000000e+00 -1.699450823213e-10 4.165341902535e-01 2.283175549001e-01 
4.320000000000e+05 5.575068013158e+03 2.531061854422e+07 8.379848472517e-01 1.620151527483e-01 5.821357926741e-07 0.000000000000e+00 -7.160134045601e-08 1.256067124081e-06 0.000000000000e+00 2.658861008798e-10 3.949805833300e-01 2.190592622815e-01 
4.752000000000e+05 5.750815395694e+03 2.531643810200e+07 8.011739043132e-01 1.988260956868e-01 4.325461030734e-07 0.000000000000e+00 -6.282357435745e-08 1.384632413279e-06 0.000000000000e+00 -7.262064800514e-10 3.768738946835e-01 2.273187286339e-01 
5.184000000000e+05 5.900672267798e+03 2.531993149189e+07 7.726720481783e-01 2.273279518217e-01 3.573570642924e-07 0.000000000000e+00 -4.701340036002e-08 1.461910390314e-06 0.000000000000e+00 2.290104578567e-10 3.615629050126e-01 2.462595948640e-01 
5.616000000000e+05 6.017654752713e+03 2.532293495651e+07 7.524091723621e-01 2.475908276379e-01 3.103292981287e-07 0.000000000000e+00 -3.799292761091e-08 1.509105128165e-06 0.000000000000e+00 2.792156970742e-09 3.483708351628e-01 2.731213354558e-01 
6.048000000000e+05 6.106400989212e+03 2.532655160589e+07 7.375030371863e-01 2.624969628137e-01 2.749239305305e-07 0.000000000000e+00 -3.351120065379e-08 1.546344352100e-06 0.000000000000e+00 2.948864439089e-09 3.366389970001e-01 3.056791978356e-01 
6.480000000000e+05 6.178872961298e+03 2.532810202246e+07 7.257315043362e-01 2.742684956638e-01 2.465473844980e-07 0.000000000000e+00 -3.016992431864e-08 1.574382281754e-06 0.000000000000e+00 2.918823472407e-09 3.259013830316e-01 3.417476551691e-01 
6.912000000000e+05 6.240035558082e+03 2.533032690192e+07 7.163414663146e-01 2.836585336854e-01 2.247227639062e-07 0.000000000000e+00 -2.700593855735e-08 1.604827167667e-06 0.000000000000e+00 5.385976085682e-09 3.159378823903e-01 3.796162750017e-01 
7.344000000000e+05 6.294500520710e+03 2.533450748300e+07 7.083955089898e-01 2.916044910102e-01 2.059697470532e-07 0.000000000000e+00 -2.475982328141e-08 1.630259889010e-06 0.000000000000e+00 7.520865158795e-09 3.066334068885e-01 4.177992576500e-01 
7.776000000000e+05 6.342693497621e+03 2.533155227466e+07 7.015705856104e-01 2.984294143896e-01 1.870113075112e-07 0.000000000000e+00 -2.376204642084e-08 1.623869947757e-06 0.000000000000e+00 6.704761621065e-09 2.981505360700e-01 4.547307283314e-01 
8.208000000000e+05 6.385503901683e+03 2.533347765872e+07 6.955188704133e-01 3.044811295867e-01 1.762405526467e-07 0.000000000000e+00 -2.230670772842e-08 1.665576209103e-06 0.000000000000e+00 8.129197891069e-09 2.901494138100e-01 4.909394948985e-01 
8.640000000000e+05 6.424299240060e+03 2.533762687424e+07 6.900434029193e-01 3.099565970807e-01 1.664779478033e-07 0.000000000000e+00 -2.092577771179e-08 1.702574808705e-06 0.000000000000e+00 9.916663938219e-09 2.825927741900e-01 5.260055669019e-01 
9.072000000000e+05 6.461344310552e+03 2.533809180770e+07 6.850814381639e-01 3.149185618361e-01 1.559701057528e-07 0.000000000000e+00 -1.928149853970e-08 1.717168831503e-06 0.000000000000e+00 1.444504604072e-08 2.755053500458e-01 5.593296800517e-01 
9.504000000000e+05 6.496263549358e+03 2.533811657634e+07 6.805461896645e-01 3.194538103355e-01 1.456795585941e-07 0.000000000000e+00 -1.883545234022e-08 1.718953035597e-06 0.000000000000e+00 1.328390111169e-08 2.689148656068e-01 5.906163692518e-01 
9.936000000000e+05 6.528309995972e+03 2.533723894818e+07 6.763840825754e-01 3.236159174246e-01 1.349670301731e-07 0.000000000000e+00 -1.859089448575e-08 1.700131918169e-06 0.000000000000e+00 1.081407070486e-08 2.628464180601e-01 6.196261244573e-01 
1.036800000000e+06 6.558160048861e+03 2.534221910393e+07 6.725072353625e-01 3.274927646375e-01 1.286442362319e-07 0.000000000000e+00 -1.774299846294e-08 1.719853227757e-06 0.000000000000e+00 1.250747876016e-08 2.570642010510e-01 6.470816920135e-01 
1.080000000000e+06 6.585946913086e+03 2.534292283376e+07 6.688983553465e-01 3.311016446535e-01 1.214552950741e-07 0.000000000000e+00 -1.723746984195e-08 1.718150339117e-06 0.000000000000e+00 1.206484371711e-08 2.516122687943e-01 6.726996358228e-01 
1.123200000000e+06 6.612194628652e+03 2.534180308147e+07 6.654893264956e-01 3.345106735044e-01 1.177138021761e-07 0.000000000000e+00 -1.625641757432e-08 1.757669219024e-06 0.000000000000e+00 1.585704823462e-08 2.463266268950e-01 6.970759772066e-01 
1.166400000000e+06 6.636716278765e+03 2.534173119114e+07 6.623045283296e-01 3.376954716704e-01 1.101259167644e-07 0.000000000000e+00 -1.602508450454e-08 1.731869316445e-06 0.000000000000e+00 1.367112589512e-08 2.413999168656e-01 7.193919424828e-01 
1.209600000000e+06 6.659897231091e+03 2.534251616938e+07 6.592938396464e-01 3.407061603536e-01 1.043919854939e-07 0.000000000000e+00 -1.567777419574e-08 1.725351156027e-06 0.000000000000e+00 1.255934566793e-08 2.367466570747e-01 7.400075685384e-01 
1.252800000000e+06 6.682294343103e+03 2.533899443025e+07 6.564897546231e-01 3.435102453769e-01 9.668174524801e-08 0.000000000000e+00 -1.553273158262e-08 1.673730721948e-06 0.000000000000e+00 9.722951039467e-09 2.324517404414e-01 7.585619441812e-01 
1.296000000000e+06 6.705200744096e+03 2.534441785163e+07 6.538009598864e-01 3.461990401136e-01 9.436364818195e-08 0.000000000000e+00 -1.495687934561e-08 1.705598957809e-06 0.000000000000e+00 1.193640741831e-08 2.282711971577e-01 7.760587374514e-01 
1.339200000000e+06 6.727249813050e+03 2.534453978622e+07 6.512150652600e-01 3.487849347400e-01 9.321468384129e-08 0.000000000000e+00 -1.440787922109e-08 1.756435233362e-06 0.000000000000e+00 1.425851844188e-08 2.241617182387e-01 7.926508729647e-01 
1.382400000000e+06 6.748531136457e+03 2.534396189602e+07 6.487212132759e-01 3.512787867241e-01 8.929899304948e-08 0.000000000000e+00 -1.401340929093e-08 1.753340550627e-06 0.000000000000e+00 1.497824983819e-08 2.202391819511e-01 8.079135492560e-01 
1.425600000000e+06 6.768777962077e+03 2.534336138617e+07 6.463504433471e-01 3.536495566529e-01 8.510961468099e-08 0.000000000000e+00 -1.375002741726e-08 1.738759931825e-06 0.000000000000e+00 1.435814442012e-08 2.165162626505e-01 8.218618471293e-01 
1.468800000000e+06 6.788455818277e+03 2.534760426551e+07 6.440478327368e-01 3.559521672632e-01 8.458419791924e-08 0.000000000000e+00 -1.322598868801e-08 1.795528414447e-06 0.000000000000e+00 1.718179428162e-08 2.128344529336e-01 8.350893795225e-01 
1.512000000000e+06 6.807164612755e+03 2.534695883027e+07 6.418601318349e-01 3.581398681651e-01 7.841003686139e-08 0.000000000000e+00 -1.323697474305e-08 1.728966429180e-06 0.000000000000e+00 1.314903620538e-08 2.094368531898e-01 8.468496889937e-01 
1.555200000000e+06 6.826886570238e+03 2.534631972908e+07 6.397336413186e-01 3.602663586814e-01 7.677646684822e-08 0.000000000000e+00 -1.291410811813e-08 1.755834844808e-06 0.000000000000e+00 1.436929755285e-08 2.061242450708e-01 8.578572130014e-01 
1.598400000000e+06 6.846113545820e+03 2.534575469344e+07 6.376652352791e-01 3.623347647209e-01 7.440704120844e-08 0.000000000000e+00 -1.266617682127e-08 1.763801603573e-06 0.000000000000e+00 1.466044710578e-08 2.029266362960e-01 8.680601581328e-01 
1.641600000000e+06 6.864823299516e+03 2.534776011841e+07 6.356524211927e-01 3.643475788073e-01 7.281341776801e-08 0.000000000000e+00 -1.233596033356e-08 1.787292185411e-06 0.000000000000e+00 1.630693627509e-08 1.998092968881e-01 8.775969721079e-01 
1.684800000000e+06 6.882885239691e+03 2.534510873062e+07 6.337093073813e-01 3.662906926187e-01 6.872838619749e-08 0.000000000000e+00 -1.223567771805e-08 1.745954932081e-06 0.000000000000e+00 1.455958389976e-08 1.968754885767e-01 8.862290356289e-01 
1.728000000000e+06 6.900513166845e+03 2.534625725965e+07 6.318129402542e-01 3.681870597458e-01 6.821887670452e-08 0.000000000000e+00 -1.186824119866e-08 1.790593879115e-06 0.000000000000e+00 1.713244010143e-08 1.939736143770e-01 8.944110225517e-01 
1.771200000000e+06 6.917673194006e+03 2.534399982551e+07 6.299668558970e-01 3.700331441030e-01 6.560370736048e-08 0.000000000000e+00 -1.170580479939e-08 1.778762929228e-06 0.000000000000e+00 1.651293795213e-08 1.911925749829e-01 9.019455901112e-01 
1.814400000000e+06 6.934404360309e+03 2.534741351646e+07 6.281669776252e-01 3.718330223748e-01 6.314286058551e-08 0.000000000000e+00 -1.155649132608e-08 1.767262347352e-06 0.000000000000e+00 1.566903705219e-08 1.885258653205e-01 9.088976386754e-01 
1.857600000000e+06 6.950675188784e+03 2.534895259360e+07 6.264165214461e-01 3.735834785539e-01 6.102887486473e-08 0.000000000000e+00 -1.138544075468e-08 1.761783062371e-06 0.000000000000e+00 1.524499860407e-08 1.859581315302e-01 9.153392322283e-01 
1.900800000000e+06 6.966451002441e+03 2.534562033823e+07 6.247193668263e-01 3.752806331737e-01 5.963074105590e-08 0.000000000000e+00 -1.114366815286e-08 1.773760212977e-06 0.000000000000e+00 1.620807554544e-08 1.834569507561e-01 9.213639380458e-01 
1.944000000000e+06 6.981892996609e+03 2.534883414174e+07 6.230581470034e-01 3.769418529966e-01 5.852389269721e-08 0.000000000000e+00 -1.087182807283e-08 1.792739041539e-06 0.000000000000e+00 1.783888158937e-08 1.810095536584e-01 9.270171516729e-01 
1.987200000000e+06 6.996938639037e+03 2.534767374790e+07 6.214395279724e-01 3.785604720276e-01 5.681765720775e-08 0.000000000000e+00 -1.069322197253e-08 1.791630305711e-06 0.000000000000e+00 1.785111541840e-08 1.786413885830e-01 9.322638788066e-01 
2.030400000000e+06 7.011698881209e+03 2.535169047819e+07 6.198516800454e-01 3.801483199546e-01 5.634892623849e-08 0.000000000000e+00 -1.038469511304e-08 1.826951614840e-06 0.000000000000e+00 2.052264186994e-08 1.762991941608e-01 9.372218059532e-01 
2.073600000000e+06 7.026043161422e+03 2.534798348968e+07 6.183084998615e-01 3.816915001385e-01 5.419161677893e-08 0.000000000000e+00 -1.031361834674e-08 1.803243329928e-06 0.000000000000e+00 1.858095359447e-08 1.740529310724e-01 9.417616782782e-01 
2.116800000000e+06 7.039947766010e+03 2.534860097040e+07 6.168126750943e-01 3.831873249057e-01 5.285100099098e-08 0.000000000000e+00 -1.014832498904e-08 1.803470283291e-06 0.000000000000e+00 1.862411717471e-08 1.718670132321e-01 9.459692941862e-01 
2.160000000000e+06 7.053373834487e+03 2.534619240181e+07 6.153682724813e-01 3.846317275187e-01 5.060683406324e-08 0.000000000000e+00 -1.009988769730e-08 1.770365556922e-06 0.000000000000e+00 1.626403092697e-08 1.697797738119e-01 9.498003937721e-01 
2.203200000000e+06 7.066536896110e+03 2.534872471177e+07 6.139521991750e-01 3.860478008250e-01 5.027677986529e-08 0.000000000000e+00 -9.847160498646e-09 1.801398485761e-06 0.000000000000e+00 1.837867444057e-08 1.677110352585e-01 9.534046988448e-01 
2.246400000000e+06 7.079348260362e+03 2.534903434628e+07 6.125739440715e-01 3.874260559285e-01 4.955937839004e-08 0.000000000000e+00 -9.649453096281e-09 1.818168063952e-06 0.000000000000e+00 1.944711996178e-08 1.656769730155e-01 9.567631832709e-01 
2.289600000000e+06 7.091772031263e+03 2.534559242167e+07 6.112374602276e-01 3.887625397724e-01 4.751130954593e-08 0.000000000000e+00 -9.604392107891e-09 1.784767284508e-06 0.000000000000e+00 1.706955446501e-08 1.637326592816e-01 9.598113199245e-01 
2.332800000000e+06 7.103960949507e+03 2.535298250390e+07 6.099261600359e-01 3.900738399641e-01 4.737750580352e-08 0.000000000000e+00 -9.332724033215e-09 1.820597073902e-06 0.000000000000e+00 2.008248418337e-08 1.617976556005e-01 9.626758581694e-01 
2.376000000000e+06 7.115767792337e+03 2.534305465419e+07 6.086559838491e-01 3.913440161509e-01 4.513794413329e-08 0.000000000000e+00 -9.342295965394e-09 1.775021884872e-06 0.000000000000e+00 1.641467975311e-08 1.599603550661e-01 9.652566916540e-01 
2.419200000000e+06 7.127399351042e+03 2.535136603463e+07 6.074046560743e-01 3.925953439257e-01 4.598327879293e-08 0.000000000000e+00 -8.992511920496e-09 1.847833202836e-06 0.000000000000e+00 2.174221335697e-08 1.580920623413e-01 9.677243596921e-01 
2.462400000000e+06 7.138737037450e+03 2.534786247777e+07 6.061849829158e-01 3.938150170842e-01 4.407127842906e-08 0.000000000000e+00 -8.956609647474e-09 1.811281738702e-06 0.000000000000e+00 1.922032829075e-08 1.563068550212e-01 9.699547833905e-01 
2.505600000000e+06 7.150705145869e+03 2.534945325343e+07 6.049917991500e-01 3.950082008500e-01 4.344998328951e-08 0.000000000000e+00 -8.799691544439e-09 1.822266964255e-06 0.000000000000e+00 2.025307565772e-08 1.545514692653e-01 9.720216513755e-01 
2.548800000000e+06 7.162985694665e+03 2.535218624920e+07 6.038179341078e-01 3.961820658922e-01 4.289485854245e-08 0.000000000000e+00 -8.666619410957e-09 1.834040766517e-06 0.000000000000e+00 2.096380966311e-08 1.528239130748e-01 9.739378593303e-01 
2.592000000000e+06 7.174946862515e+03 2.534728191000e+07 6.026754599477e-01 3.973245400523e-01 4.223950047279e-08 0.000000000000e+00 -8.559143772179e-09 1.840743631922e-06 0.000000000000e+00 2.110738579617e-08 1.511279703109e-01 9.757107699094e-01 
2.635200000000e+06 7.186713572413e+03 2.534694282115e+07 6.015524370062e-01 3.984475629938e-01 4.086766947697e-08 0.000000000000e+00 -8.524607656979e-09 1.815671308441e-06 0.000000000000e+00 1.920502015950e-08 1.494923780629e-01 9.773283766055e-01 
2.678400000000e+06 7.198325955067e+03 2.535667651149e+07 6.004449292225e-01 3.995550707775e-01 4.095891425965e-08 0.000000000000e+00 -8.303870578211e-09 1.853690566440e-06 0.000000000000e+00 2.263842321225e-08 1.478568106020e-01 9.788537106157e-01 
2.721600000000e+06 7.209687946383e+03 2.534952300233e+07 5.993619979878e-01 4.006380020122e-01 3.952425644373e-08 0.000000000000e+00 -8.309411828103e-09 1.823201344307e-06 0.000000000000e+00 1.960026373853e-08 1.462855691373e-01 9.802467022118e-01 
2.764800000000e+06 7.220874125559e+03 2.535255485819e+07 5.982965054727e-01 4.017034945273e-01 3.933088846797e-08 0.000000000000e+00 -8.150757593124e-09 1.847757549020e-06 0.000000000000e+00 2.144600938946e-08 1.447273846364e-01 9.815570302209e-01 
2.808000000000e+06 7.231823430818e+03 2.534645775168e+07 5.972542259940e-01 4.027457740060e-01 3.790462385476e-08 0.000000000000e+00 -8.149703949651e-09 1.814478627467e-06 0.000000000000e+00 1.858308644718e-08 1.432318562358e-01 9.827577896986e-01 
2.851200000000e+06 7.242599744510e+03 2.534793529780e+07 5.962289314106e-01 4.037710685894e-01 3.777900887475e-08 0.000000000000e+00 -7.988262180639e-09 1.841066662337e-06 0.000000000000e+00 2.070329406747e-08 1.417456529600e-01 9.838942110319e-01 
2.894400000000e+06 7.253215091180e+03 2.534797593530e+07 5.952195212670e-01 4.047804787330e-01 3.691451588196e-08 0.000000000000e+00 -7.916959506236e-09 1.831968367079e-06 0.000000000000e+00 2.003421039677e-08 1.402985484703e-01 9.849531405998e-01 
2.937600000000e+06 7.263695422344e+03 2.534857070041e+07 5.942234362649e-01 4.057765637351e-01 3.658667774892e-08 0.000000000000e+00 -7.790606452087e-09 1.848254907716e-06 0.000000000000e+00 2.118193407940e-08 1.388689979489e-01 9.859544481789e-01 
2.980800000000e+06 7.274119418129e+03 2.534930640795e+07 5.932455870280e-01 4.067544129720e-01 3.567708011703e-08 0.000000000000e+00 -7.735032854200e-09 1.835029276607e-06 0.000000000000e+00 2.014335145630e-08 1.374798956603e-01 9.868892983484e-01 
3.024000000000e+06 7.285280006193e+03 2.534782821482e+07 5.922777592478e-01 4.077222407522e-01 3.534162951705e-08 0.000000000000e+00 -7.634508998053e-09 1.850082000483e-06 0.000000000000e+00 2.117102532224e-08 1.361080237418e-01 9.877758270471e-01 
3.067200000000e+06 7.296287837174e+03 2.534758033714e+07 5.913231987881e-01 4.086768012119e-01 3.453080248720e-08 0.000000000000e+00 -7.586919622520e-09 1.839996350900e-06 0.000000000000e+00 2.042900324368e-08 1.347718279764e-01 9.886070232331e-01 
3.110400000000e+06 7.307177930322e+03 2.534851087352e+07 5.903788238023e-01 4.096211761977e-01 3.422238841997e-08 0.000000000000e+00 -7.486394933465e-09 1.855286776479e-06 0.000000000000e+00 2.154797273467e-08 1.334512904765e-01 9.893966221011e-01 
3.153600000000e+06 7.317944485642e+03 2.534683193141e+07 5.894451852138e-01 4.105548147862e-01 3.340294930177e-08 0.000000000000e+00 -7.447415247541e-09 1.842752688737e-06 0.000000000000e+00 2.052794607413e-08 1.321664961967e-01 9.901365299463e-01 
3.196800000000e+06 7.328574683879e+03 2.534536691533e+07 5.885233794074e-01 4.114766205926e-01 3.297702300191e-08 0.000000000000e+00 -7.369156128757e-09 1.850439736226e-06 0.000000000000e+00 2.094015351953e-08 1.309017709454e-01 9.908366093081e-01 
3.240000000000e+06 7.339039723478e+03 2.533918350141e+07 5.876158674623e-01 4.123841325377e-01 3.170999771656e-08 0.000000000000e+00 -7.394354266276e-09 1.810609733714e-06 0.000000000000e+00 1.760058683351e-08 1.296900069508e-01 9.914831651104e-01 
3.283200000000e+06 7.349475992989e+03 2.534637938496e+07 5.867108297560e-01 4.132891702440e-01 3.187473970346e-08 0.000000000000e+00 -7.233967185609e-09 1.849964159385e-06 0.000000000000e+00 2.105310909240e-08 1.284742817514e-01 9.921038038830e-01 
3.326400000000e+06 7.359746458482e+03 2.534334637721e+07 5.858202331412e-01 4.141797668588e-01 3.096288033365e-08 0.000000000000e+00 -7.216180902926e-09 1.827744468808e-06 0.000000000000e+00 1.926166364547e-08 1.272971653643e-01 9.926802204412e-01 
3.369600000000e+06 7.369903368447e+03 2.534377985788e+07 5.849394720004e-01 4.150605279996e-01 3.092903019090e-08 0.000000000000e+00 -7.092345875126e-09 1.855386139118e-06 0.000000000000e+00 2.152465923717e-08 1.261239372163e-01 9.932278063314e-01 
3.412800000000e+06 7.379950795200e+03 2.534446109652e+07 5.840681590254e-01 4.159318409746e-01 3.013304423510e-08 0.000000000000e+00 -7.065086934759e-09 1.837884998335e-06 0.000000000000e+00 2.010367718062e-08 1.249846022036e-01 9.937349524621e-01 
3.456000000000e+06 7.389887611821e+03 2.534393696440e+07 5.832064359848e-01 4.167935640152e-01 2.993270606760e-08 0.000000000000e+00 -6.964556170070e-09 1.855072445582e-06 0.000000000000e+00 2.158749140481e-08 1.238560857242e-01 9.942113811834e-01 
3.499200000000e+06 7.399704282153e+03 2.534352161078e+07 5.823551983401e-01 4.176448016599e-01 2.917162301289e-08 0.000000000000e+00 -6.935455329742e-09 1.837628868324e-06 0.000000000000e+00 2.026648567771e-08 1.227601217057e-01 9.946497865425e-01 
3.542400000000e+06 7.409429742347e+03 2.534380554428e+07 5.815118252461e-01 4.184881747539e-01 2.900974963844e-08 0.000000000000e+00 -6.831592966934e-09 1.856375361350e-06 0.000000000000e+00 2.197722831927e-08 1.216730284861e-01 9.950590644506e-01 
3.585600000000e+06 7.419083943911e+03 2.535019247547e+07 5.806746423983e-01 4.193253576017e-01 2.872823735076e-08 0.000000000000e+00 -6.736248510649e-09 1.867436938670e-06 0.000000000000e+00 2.337231682442e-08 1.205989659467e-01 9.954379700642e-01 
3.628800000000e+06 7.428637266029e+03 2.534866241246e+07 5.798462144911e-01 4.201537855089e-01 2.803985217174e-08 0.000000000000e+00 -6.710026799788e-09 1.851867916830e-06 0.000000000000e+00 2.194452632132e-08 1.195540996356e-01 9.957826241465e-01 
3.672000000000e+06 7.438047571771e+03 2.534336908415e+07 5.790301981432e-01 4.209698018568e-01 2.770064057295e-08 0.000000000000e+00 -6.645786414527e-09 1.857741669711e-06 0.000000000000e+00 2.215435702385e-08 1.185248792474e-01 9.960981109277e-01 
3.715200000000e+06 7.447353904970e+03 2.534182273640e+07 5.782231550451e-01 4.217768449549e-01 2.731985322811e-08 0.000000000000e+00 -6.581750444488e-09 1.860295750600e-06 0.000000000000e+00 2.237740041881e-08 1.175125401923e-01 9.963850801608e-01 
3.758400000000e+06 7.456597050272e+03 2.534534203289e+07 5.774216260423e-01 4.225783739577e-01 2.684394534471e-08 0.000000000000e+00 -6.525422644460e-09 1.855917260795e-06 0.000000000000e+00 2.225603389102e-08 1.165205074449e-01 9.966440835786e-01 
3.801600000000e+06 7.465737733033e+03 2.534758295896e+07 5.766289558290e-01 4.233710441710e-01 2.688709872918e-08 0.000000000000e+00 -6.406042531784e-09 1.886197550287e-06 0.000000000000e+00 2.497460381930e-08 1.155288419631e-01 9.968805356528e-01 
3.844800000000e+06 7.474727569267e+03 2.533980660042e+07 5.758493743396e-01 4.241506256604e-01 2.574468557226e-08 0.000000000000e+00 -6.460833756614e-09 1.834207183624e-06 0.000000000000e+00 1.997966315196e-08 1.145833361976e-01 9.970872061444e-01 
3.888000000000e+06 7.483632417724e+03 2.534284690576e+07 5.750771933959e-01 4.249228066041e-01 2.568320075033e-08 0.000000000000e+00 -6.354980902650e-09 1.856225690398e-06 0.000000000000e+00 2.218780566244e-08 1.136416418141e-01 9.972739095179e-01 
3.931200000000e+06 7.492472623672e+03 2.534834591626e+07 5.743106083940e-01 4.256893916060e-01 2.583556133537e-08 0.000000000000e+00 -6.223002584872e-09 1.893635159575e-06 0.000000000000e+00 2.568060738583e-08 1.126957447210e-01 9.974427974832e-01 
3.974400000000e+06 7.501158623017e+03 2.533734950747e+07 5.735573580454e-01 4.264426419546e-01 2.464112730774e-08 0.000000000000e+00 -6.291525592748e-09 1.833619734959e-06 0.000000000000e+00 1.992178354483e-08 1.117975539229e-01 9.975885436236e-01 
4.017600000000e+06 7.509791433148e+03 2.534857991131e+07 5.728087466955e-01 4.271912533045e-01 2.507489662812e-08 0.000000000000e+00 -6.112488675744e-09 1.891185455102e-06 0.000000000000e+00 2.576158953258e-08 1.108838479157e-01 9.977210722402e-01 
4.060800000000e+06 7.518351456165e+03 2.534663390178e+07 5.720664784396e-01 4.279335215604e-01 2.471638761415e-08 0.000000000000e+00 -6.062299420390e-09 1.890758704256e-06 0.000000000000e+00 2.558015827616e-08 1.099856540531e-01 9.978381697999e-01 
4.104000000000e+06 7.526785254363e+03 2.533922697283e+07 5.713350833557e-01 4.286649166443e-01 2.403281141082e-08 0.000000000000e+00 -6.067251876682e-09 1.865022621601e-06 0.000000000000e+00 2.274862039026e-08 1.091154595769e-01 9.979408433773e-01 
4.147200000000e+06 7.535162937738e+03 2.534755805138e+07 5.706086049808e-01 4.293913950192e-01 2.411685437704e-08 0.000000000000e+00 -5.943728374208e-09 1.896984554085e-06 0.000000000000e+00 2.618542007154e-08 1.082432106646e-01 9.980333794440e-01 
4.190400000000e+06 7.543403743230e+03 2.533821202177e+07 5.698939996220e-01 4.301060003780e-01 2.346271510358e-08 0.000000000000e+00 -5.948284075552e-09 1.871702332299e-06 0.000000000000e+00 2.336749988147e-08 1.073976387943e-01 9.981154809835e-01 
4.233600000000e+06 7.551547254726e+03 2.533825994944e+07 5.691877881245e-01 4.308122118755e-01 2.307835728458e-08 0.000000000000e+00 -5.902809311652e-09 1.866421137505e-06 0.000000000000e+00 2.303114503759e-08 1.065679108218e-01 9.981896750153e-01 
4.276800000000e+06 7.559626962192e+03 2.534417179895e+07 5.684871331801e-01 4.315128668199e-01 2.306184749831e-08 0.000000000000e+00 -5.803442853466e-09 1.889932232795e-06 0.000000000000e+00 2.549869841283e-08 1.057399778416e-01 9.982582517724e-01 
4.320000000000e+06 7.567559838716e+03 2.533731661488e+07 5.677992393273e-01 4.322007606727e-01 2.229818260447e-08 0.000000000000e+00 -5.824253134233e-09 1.852836562448e-06 0.000000000000e+00 2.182803374643e-08 1.049423644057e-01 9.983212767512e-01 
