 TITLE = "Time curves in points"
 VARIABLES = "TIME "  "PRESSURE1"  "PRESSURE2"  "SATURATION1" SATURATION2  "VELOCITY_X1"  "VELOCITY_Y1"  "VELOCITY_Z1"  "VELOCITY_X2"  "VELOCITY_Y2"  "VELOCITY_Z2"  "Wassertracer"  "CO2tracer" 
 ZONE T="POINT=POINT17"
0.000000000000e+00 5.000000000000e+03 2.461649000000e+07 9.750000000000e-01 2.500000000000e-02 0.000000000000e+00 0.000000000000e+00 0.000000000000e+00 0.000000000000e+00 0.000000000000e+00 0.000000000000e+00 1.000000000000e+00 1.000000000000e+00 
4.320000000000e+04 5.000006250776e+03 2.531197778130e+07 9.749991738818e-01 2.500082611818e-02 1.709824244643e-06 0.000000000000e+00 -7.019567985973e-08 0.000000000000e+00 0.000000000000e+00 0.000000000000e+00 9.250541303277e-01 9.999991294382e-01 
8.640000000000e+04 5.000011568915e+03 2.531096352133e+07 9.749976093250e-01 2.500239067503e-02 1.710622330013e-06 0.000000000000e+00 -6.936658459167e-08 0.000000000000e+00 0.000000000000e+00 0.000000000000e+00 8.460268958624e-01 9.999544080599e-01 
1.296000000000e+05 5.000127374556e+03 2.531305595905e+07 9.749636859806e-01 2.503631401937e-02 1.697071644561e-06 0.000000000000e+00 -7.091096100952e-08 8.522453774683e-14 0.000000000000e+00 0.000000000000e+00 7.657113951395e-01 9.999792682046e-01 
1.728000000000e+05 5.000184047624e+03 2.531187073484e+07 9.749473054143e-01 2.505269458572e-02 1.695556640586e-06 0.000000000000e+00 -7.042448260590e-08 3.459333871378e-11 0.000000000000e+00 1.301094637842e-14 6.857169361659e-01 1.001866350707e+00 
2.160000000000e+05 5.000368410796e+03 2.531261167936e+07 9.748941517475e-01 2.510584825251e-02 1.678485843541e-06 0.000000000000e+00 -7.418659366065e-08 1.931496789658e-09 0.000000000000e+00 7.355028598207e-14 6.083670554393e-01 9.858901161806e-01 
2.592000000000e+05 5.007049261793e+03 2.531222622665e+07 9.730071179983e-01 2.699288200171e-02 1.655545386576e-06 0.000000000000e+00 -7.455373625299e-08 4.837301150597e-08 0.000000000000e+00 2.633641288525e-13 5.364337393900e-01 8.313545317214e-01 
3.024000000000e+05 5.046190366328e+03 2.531350513141e+07 9.622877248208e-01 3.771227517920e-02 1.480634868574e-06 0.000000000000e+00 -7.814857212048e-08 2.258049979868e-07 0.000000000000e+00 2.679716207684e-12 4.799025123381e-01 5.398044706348e-01 
3.456000000000e+05 5.139148448665e+03 2.531614821858e+07 9.383422919124e-01 6.165770808759e-02 1.230037087246e-06 0.000000000000e+00 -8.118183063323e-08 4.826108822967e-07 0.000000000000e+00 3.631921571454e-12 4.407627144258e-01 3.448484757403e-01 
3.888000000000e+05 5.281225989636e+03 2.531993202553e+07 9.041554654842e-01 9.584453451578e-02 9.618247022772e-07 0.000000000000e+00 -7.749554837665e-08 7.527284468132e-07 0.000000000000e+00 -6.676385596370e-11 4.117869213210e-01 2.605228911982e-01 
4.320000000000e+05 5.448440907821e+03 2.532417763910e+07 8.661211262676e-01 1.338788737324e-01 7.167128499137e-07 0.000000000000e+00 -7.222894970695e-08 1.009880405391e-06 0.000000000000e+00 1.225763606095e-10 3.878954687327e-01 2.305998202140e-01 
4.752000000000e+05 5.616187562142e+03 2.532917399449e+07 8.297168771967e-01 1.702831228033e-01 5.287317187565e-07 0.000000000000e+00 -6.558154634363e-08 1.190107363708e-06 0.000000000000e+00 -1.326748698032e-10 3.677376064863e-01 2.265410371544e-01 
5.184000000000e+05 5.772689036008e+03 2.533303377949e+07 7.980105238187e-01 2.019894761813e-01 4.094005986988e-07 0.000000000000e+00 -5.516354551260e-08 1.308835560813e-06 0.000000000000e+00 4.571336532455e-10 3.506199335871e-01 2.368897383420e-01 
5.616000000000e+05 5.902457966015e+03 2.533638245320e+07 7.731777430255e-01 2.268222569745e-01 3.411736057518e-07 0.000000000000e+00 -4.428773496632e-08 1.367376544319e-06 0.000000000000e+00 1.499551009395e-09 3.360146478364e-01 2.566936648581e-01 
6.048000000000e+05 6.006649753164e+03 2.533998370489e+07 7.544024103393e-01 2.455975896607e-01 2.990154853613e-07 0.000000000000e+00 -3.657313602559e-08 1.414604355272e-06 0.000000000000e+00 2.435204917618e-09 3.231463085641e-01 2.834196814833e-01 
6.480000000000e+05 6.092216021050e+03 2.534152024837e+07 7.400252717258e-01 2.599747282742e-01 2.681478860680e-07 0.000000000000e+00 -3.227313214174e-08 1.447306601964e-06 0.000000000000e+00 2.873086975899e-09 3.116380344097e-01 3.149389402526e-01 
6.912000000000e+05 6.160282688860e+03 2.534394135319e+07 7.290308381891e-01 2.709691618109e-01 2.431022975731e-07 0.000000000000e+00 -2.886994795807e-08 1.476112233111e-06 0.000000000000e+00 4.297071117071e-09 3.011727949453e-01 3.495151706084e-01 
7.344000000000e+05 6.217191240139e+03 2.534824556970e+07 7.200851289220e-01 2.799148710780e-01 2.222594755546e-07 0.000000000000e+00 -2.640181235751e-08 1.497665802144e-06 0.000000000000e+00 5.431646535898e-09 2.914452483158e-01 3.855428737971e-01 
7.776000000000e+05 6.267964645751e+03 2.534518123497e+07 7.125485147652e-01 2.874514852348e-01 2.023720064380e-07 0.000000000000e+00 -2.476167114276e-08 1.497669071541e-06 0.000000000000e+00 5.742824082698e-09 2.825196641589e-01 4.214417717458e-01 
8.208000000000e+05 6.312196381029e+03 2.534716580237e+07 7.060181995291e-01 2.939818004709e-01 1.906478440301e-07 0.000000000000e+00 -2.309609495160e-08 1.537979106405e-06 0.000000000000e+00 7.192565463089e-09 2.740651674340e-01 4.573932440503e-01 
8.640000000000e+05 6.351678420946e+03 2.535139158559e+07 7.002624520836e-01 2.997375479164e-01 1.801375417899e-07 0.000000000000e+00 -2.191996810965e-08 1.572347987198e-06 0.000000000000e+00 7.860161537810e-09 2.660727274118e-01 4.926736954979e-01 
9.072000000000e+05 6.388890469361e+03 2.535208436883e+07 6.951357909623e-01 3.048642090377e-01 1.675114368062e-07 0.000000000000e+00 -2.104522201941e-08 1.575606395584e-06 0.000000000000e+00 8.514142060783e-09 2.586539381764e-01 5.263722955434e-01 
9.504000000000e+05 6.423283355780e+03 2.535200711892e+07 6.904750981419e-01 3.095249018581e-01 1.571272787569e-07 0.000000000000e+00 -2.017045149291e-08 1.582310367933e-06 0.000000000000e+00 8.882414787518e-09 2.517102476215e-01 5.583896471894e-01 
9.936000000000e+05 6.455016100988e+03 2.535096969655e+07 6.861779908450e-01 3.138220091550e-01 1.462914775228e-07 0.000000000000e+00 -1.942592229351e-08 1.572132710786e-06 0.000000000000e+00 8.742913485402e-09 2.452436150270e-01 5.883523506391e-01 
1.036800000000e+06 6.483804200593e+03 2.535601343212e+07 6.822850863886e-01 3.177149136114e-01 1.392227538823e-07 0.000000000000e+00 -1.855213509625e-08 1.587180618401e-06 0.000000000000e+00 1.015735107007e-08 2.391113539261e-01 6.167695024637e-01 
1.080000000000e+06 6.510796431642e+03 2.535667448631e+07 6.786586898262e-01 3.213413101738e-01 1.315127364165e-07 0.000000000000e+00 -1.804967122837e-08 1.585838552090e-06 0.000000000000e+00 9.619858068147e-09 2.333427796341e-01 6.433749016345e-01 
1.123200000000e+06 6.537009540111e+03 2.535571192572e+07 6.752541664023e-01 3.247458335977e-01 1.271272688216e-07 0.000000000000e+00 -1.743022563828e-08 1.617347360815e-06 0.000000000000e+00 1.078547414263e-08 2.278000574586e-01 6.687082141773e-01 
1.166400000000e+06 6.561422248840e+03 2.535551738028e+07 6.720835257044e-01 3.279164742956e-01 1.192296936446e-07 0.000000000000e+00 -1.702110924944e-08 1.595803153265e-06 0.000000000000e+00 1.014473064879e-08 2.226171833716e-01 6.920426004983e-01 
1.209600000000e+06 6.584715279732e+03 2.535623579375e+07 6.690582809889e-01 3.309417190111e-01 1.132963978958e-07 0.000000000000e+00 -1.657440782364e-08 1.592666775454e-06 0.000000000000e+00 1.000019646780e-08 2.177110585064e-01 7.137460367121e-01 
1.252800000000e+06 6.607311781544e+03 2.535257760382e+07 6.661759128445e-01 3.338240871555e-01 1.047626841543e-07 0.000000000000e+00 -1.618765412961e-08 1.545729388598e-06 0.000000000000e+00 9.402026107894e-09 2.131894329916e-01 7.334080644106e-01 
1.296000000000e+06 6.629142432284e+03 2.535808191498e+07 6.634837315976e-01 3.365162684024e-01 1.021754193035e-07 0.000000000000e+00 -1.572168149488e-08 1.574310402860e-06 0.000000000000e+00 1.038298673728e-08 2.088007855588e-01 7.520446594764e-01 
1.339200000000e+06 6.650362720747e+03 2.535828640959e+07 6.608665684834e-01 3.391334315166e-01 1.010415758317e-07 0.000000000000e+00 -1.526346068557e-08 1.623498864423e-06 0.000000000000e+00 1.146495065300e-08 2.044842732130e-01 7.698482219585e-01 
1.382400000000e+06 6.670493237752e+03 2.535772322619e+07 6.583871220658e-01 3.416128779342e-01 9.666454177310e-08 0.000000000000e+00 -1.491595614990e-08 1.618126093058e-06 0.000000000000e+00 1.157029808664e-08 2.003736096606e-01 7.862980737875e-01 
1.425600000000e+06 6.689704990070e+03 2.535708596215e+07 6.560213743758e-01 3.439786256242e-01 9.214222410374e-08 0.000000000000e+00 -1.460703393729e-08 1.604754871241e-06 0.000000000000e+00 1.130832434353e-08 1.964732207362e-01 8.014134030815e-01 
1.468800000000e+06 6.707952037878e+03 2.536142538401e+07 6.537780691498e-01 3.462219308502e-01 9.171303307460e-08 0.000000000000e+00 -1.414566670178e-08 1.657233092827e-06 0.000000000000e+00 1.307306062229e-08 1.926133776077e-01 8.158134930448e-01 
1.512000000000e+06 6.725432906386e+03 2.536061522864e+07 6.516287605094e-01 3.483712394906e-01 8.512873903641e-08 0.000000000000e+00 -1.401338953473e-08 1.596471526039e-06 0.000000000000e+00 1.094412692524e-08 1.890447387178e-01 8.286676201427e-01 
1.555200000000e+06 6.743114331942e+03 2.536001178327e+07 6.495498005416e-01 3.504501994584e-01 8.346636792617e-08 0.000000000000e+00 -1.366213637989e-08 1.621627069597e-06 0.000000000000e+00 1.193292943030e-08 1.855631653889e-01 8.407367811869e-01 
1.598400000000e+06 6.760154801834e+03 2.535944706891e+07 6.475509908896e-01 3.524490091104e-01 8.097399922142e-08 0.000000000000e+00 -1.338933957967e-08 1.628428112542e-06 0.000000000000e+00 1.213402130647e-08 1.822021202198e-01 8.519422901859e-01 
1.641600000000e+06 6.777524864905e+03 2.536150219647e+07 6.455978243746e-01 3.544021756254e-01 7.936263163916e-08 0.000000000000e+00 -1.309306053576e-08 1.649512593742e-06 0.000000000000e+00 1.308041520013e-08 1.789242185292e-01 8.624269128773e-01 
1.684800000000e+06 6.794525064155e+03 2.535877777360e+07 6.436927683169e-01 3.563072316831e-01 7.492372949956e-08 0.000000000000e+00 -1.290578187580e-08 1.609978781829e-06 0.000000000000e+00 1.248738997694e-08 1.758410284488e-01 8.719164478986e-01 
1.728000000000e+06 6.811111145727e+03 2.536000690318e+07 6.418346988142e-01 3.581653011858e-01 7.452631124757e-08 0.000000000000e+00 -1.263838338197e-08 1.652406047981e-06 0.000000000000e+00 1.340306176305e-08 1.727911365390e-01 8.809195620583e-01 
1.771200000000e+06 6.827282456197e+03 2.535771829566e+07 6.400235256389e-01 3.599764743611e-01 7.177405754762e-08 0.000000000000e+00 -1.244787738856e-08 1.642175102725e-06 0.000000000000e+00 1.309029718270e-08 1.698666183217e-01 8.892104817662e-01 
1.814400000000e+06 6.842555292185e+03 2.536109407055e+07 6.383156171619e-01 3.616843828381e-01 6.923028763106e-08 0.000000000000e+00 -1.226746530811e-08 1.631535609727e-06 0.000000000000e+00 1.275646222069e-08 1.670579603971e-01 8.968576159174e-01 
1.857600000000e+06 6.857376172762e+03 2.536261137850e+07 6.366587965962e-01 3.633412034038e-01 6.706535532662e-08 0.000000000000e+00 -1.209908649451e-08 1.626616069990e-06 0.000000000000e+00 1.237154747098e-08 1.643497284808e-01 9.039440419599e-01 
1.900800000000e+06 6.872244636782e+03 2.535930325804e+07 6.349950239397e-01 3.650049760603e-01 6.558689615900e-08 0.000000000000e+00 -1.185951535066e-08 1.637930690182e-06 0.000000000000e+00 1.307789231929e-08 1.617135977757e-01 9.105748667377e-01 
1.944000000000e+06 6.886582772676e+03 2.536256204222e+07 6.333918647957e-01 3.666081352043e-01 6.440863173044e-08 0.000000000000e+00 -1.160528833827e-08 1.654548097083e-06 0.000000000000e+00 1.419388590020e-08 1.591369569768e-01 9.167987831402e-01 
1.987200000000e+06 6.900610077072e+03 2.536139394540e+07 6.318235567677e-01 3.681764432323e-01 6.260902358718e-08 0.000000000000e+00 -1.142141285221e-08 1.653826755784e-06 0.000000000000e+00 1.421716037235e-08 1.566437156872e-01 9.225844771511e-01 
2.030400000000e+06 6.914496840350e+03 2.536548788674e+07 6.303085911506e-01 3.696914088494e-01 6.211327019923e-08 0.000000000000e+00 -1.116303045156e-08 1.684882853193e-06 0.000000000000e+00 1.592153018959e-08 1.541816413053e-01 9.280578626152e-01 
2.073600000000e+06 6.928152047258e+03 2.536171179758e+07 6.288395492286e-01 3.711604507714e-01 5.978929957033e-08 0.000000000000e+00 -1.105587239197e-08 1.663588210315e-06 0.000000000000e+00 1.504087427258e-08 1.518211064480e-01 9.330844945580e-01 
2.116800000000e+06 6.941632250976e+03 2.536232257692e+07 6.273893690095e-01 3.726106309905e-01 5.829971052460e-08 0.000000000000e+00 -1.090187480160e-08 1.663573711745e-06 0.000000000000e+00 1.510798195605e-08 1.495289849927e-01 9.377584117050e-01 
2.160000000000e+06 6.954923507892e+03 2.535983464660e+07 6.259594979718e-01 3.740405020282e-01 5.585789477266e-08 0.000000000000e+00 -1.082331361358e-08 1.634728984509e-06 0.000000000000e+00 1.371333472288e-08 1.473411327497e-01 9.420353111018e-01 
2.203200000000e+06 6.967728797119e+03 2.536242509489e+07 6.245819257113e-01 3.754180742887e-01 5.549028705651e-08 0.000000000000e+00 -1.061627891773e-08 1.662900380952e-06 0.000000000000e+00 1.498110222792e-08 1.451767301295e-01 9.460762535278e-01 
2.246400000000e+06 6.980397824705e+03 2.536276099473e+07 6.232189937689e-01 3.767810062311e-01 5.470058248219e-08 0.000000000000e+00 -1.044050727584e-08 1.678612740878e-06 0.000000000000e+00 1.568424759327e-08 1.430519246639e-01 9.498599960384e-01 
2.289600000000e+06 6.992826561589e+03 2.535924116352e+07 6.218819545122e-01 3.781180454878e-01 5.246267898804e-08 0.000000000000e+00 -1.036557409247e-08 1.649020222204e-06 0.000000000000e+00 1.430831414550e-08 1.410217311344e-01 9.533128242372e-01 
2.332800000000e+06 7.004786895148e+03 2.536671491704e+07 6.205952434029e-01 3.794047565971e-01 5.226257882492e-08 0.000000000000e+00 -1.014655502345e-08 1.680123058796e-06 0.000000000000e+00 1.614843657712e-08 1.390077713874e-01 9.565715139621e-01 
2.376000000000e+06 7.016755750973e+03 2.535667409476e+07 6.193076229090e-01 3.806923770910e-01 4.985028893132e-08 0.000000000000e+00 -1.009495880119e-08 1.640525885211e-06 0.000000000000e+00 1.423289097474e-08 1.370938460296e-01 9.595241325458e-01 
2.419200000000e+06 7.028279499117e+03 2.536513477115e+07 6.180679196516e-01 3.819320803484e-01 5.074635233968e-08 0.000000000000e+00 -9.836053267547e-09 1.706164482593e-06 0.000000000000e+00 1.725881913081e-08 1.351546362900e-01 9.623595388919e-01 
2.462400000000e+06 7.039754675269e+03 2.536155289405e+07 6.168334484766e-01 3.831665515234e-01 4.865332884434e-08 0.000000000000e+00 -9.764416666428e-09 1.673280858663e-06 0.000000000000e+00 1.589219836816e-08 1.333025507838e-01 9.649329677613e-01 
2.505600000000e+06 7.051229123384e+03 2.536316662599e+07 6.156461748294e-01 3.843538251706e-01 4.790677239016e-08 0.000000000000e+00 -9.605559243090e-09 1.682229849971e-06 0.000000000000e+00 1.680665881639e-08 1.314864980884e-01 9.673248165382e-01 
2.548800000000e+06 7.062676261492e+03 2.536591415376e+07 6.144883612231e-01 3.855116387769e-01 4.726002388846e-08 0.000000000000e+00 -9.476575277873e-09 1.692675848417e-06 0.000000000000e+00 1.725675706698e-08 1.297031195207e-01 9.695482847184e-01 
2.592000000000e+06 7.074199225590e+03 2.536100851874e+07 6.133208669048e-01 3.866791330952e-01 4.650736414941e-08 0.000000000000e+00 -9.359216625852e-09 1.699962415292e-06 0.000000000000e+00 1.740017280869e-08 1.279561892252e-01 9.716102524312e-01 
2.635200000000e+06 7.085484937269e+03 2.536061136046e+07 6.121781606968e-01 3.878218393032e-01 4.497267884879e-08 0.000000000000e+00 -9.290333534571e-09 1.677745165793e-06 0.000000000000e+00 1.633345775792e-08 1.262740991277e-01 9.734937628445e-01 
2.678400000000e+06 7.096142084666e+03 2.537043368010e+07 6.111025623346e-01 3.888974376654e-01 4.498047660028e-08 0.000000000000e+00 -9.104209002159e-09 1.709587152144e-06 0.000000000000e+00 1.848572387130e-08 1.245989946136e-01 9.752676658030e-01 
2.721600000000e+06 7.106766390804e+03 2.536319176030e+07 6.100292934962e-01 3.899707065038e-01 4.348109388156e-08 0.000000000000e+00 -9.066658901069e-09 1.683687452881e-06 0.000000000000e+00 1.673604265984e-08 1.229860325074e-01 9.768870133201e-01 
2.764800000000e+06 7.117124209899e+03 2.536626865320e+07 6.089839638126e-01 3.910160361874e-01 4.327519747708e-08 0.000000000000e+00 -8.924241809057e-09 1.705404018135e-06 0.000000000000e+00 1.787893145973e-08 1.213868791870e-01 9.784067852376e-01 
2.808000000000e+06 7.127615005855e+03 2.536009050366e+07 6.079232009160e-01 3.920767990840e-01 4.176219124985e-08 0.000000000000e+00 -8.882251914466e-09 1.676745879521e-06 0.000000000000e+00 1.619829866298e-08 1.198492305007e-01 9.797964678203e-01 
2.851200000000e+06 7.137812118217e+03 2.536161956290e+07 6.068932004054e-01 3.931067995946e-01 4.161366610796e-08 0.000000000000e+00 -8.738556803547e-09 1.700656332544e-06 0.000000000000e+00 1.746014383755e-08 1.183228880273e-01 9.811067724339e-01 
2.894400000000e+06 7.147699640073e+03 2.536163811107e+07 6.058957917025e-01 3.941042082975e-01 4.068498074828e-08 0.000000000000e+00 -8.652367366422e-09 1.692168820938e-06 0.000000000000e+00 1.714961812249e-08 1.168359637516e-01 9.823225093438e-01 
2.937600000000e+06 7.157332394116e+03 2.536225834784e+07 6.049252118485e-01 3.950747881515e-01 4.034607346394e-08 0.000000000000e+00 -8.536060304664e-09 1.706563719031e-06 0.000000000000e+00 1.783095165096e-08 1.153669518431e-01 9.834665853772e-01 
2.980800000000e+06 7.166898045171e+03 2.536296265477e+07 6.039679160999e-01 3.960320839001e-01 3.937944977063e-08 0.000000000000e+00 -8.463245323106e-09 1.694422843699e-06 0.000000000000e+00 1.726647648299e-08 1.139382659563e-01 9.845298196202e-01 
3.024000000000e+06 7.176756116811e+03 2.536150629762e+07 6.030237887120e-01 3.969762112880e-01 3.903690687854e-08 0.000000000000e+00 -8.360953577359e-09 1.707922127441e-06 0.000000000000e+00 1.786782922966e-08 1.125274696220e-01 9.855334762160e-01 
3.067200000000e+06 7.186500580061e+03 2.536123479506e+07 6.020903142376e-01 3.979096857624e-01 3.816981139720e-08 0.000000000000e+00 -8.287076179356e-09 1.698507615050e-06 0.000000000000e+00 1.757511581756e-08 1.111531541696e-01 9.864706537250e-01 
3.110400000000e+06 7.196132831354e+03 2.536218948517e+07 6.011676845354e-01 3.988323154646e-01 3.784867805776e-08 0.000000000000e+00 -8.182006927071e-09 1.712278601813e-06 0.000000000000e+00 1.832110343601e-08 1.097956582254e-01 9.873578577937e-01 
3.153600000000e+06 7.205600193698e+03 2.536047974777e+07 6.002614891110e-01 3.997385108890e-01 3.698172316397e-08 0.000000000000e+00 -8.120870968749e-09 1.701023462450e-06 0.000000000000e+00 1.772704812165e-08 1.084743084169e-01 9.881874962651e-01 
3.196800000000e+06 7.215044602733e+03 2.535902082287e+07 5.993563601700e-01 4.006436398300e-01 3.654264566915e-08 0.000000000000e+00 -8.035065693714e-09 1.708685076280e-06 0.000000000000e+00 1.794010981988e-08 1.071737498628e-01 9.889718006805e-01 
3.240000000000e+06 7.224398193084e+03 2.535275003223e+07 5.984592551313e-01 4.015407448687e-01 3.519948243447e-08 0.000000000000e+00 -8.013327538978e-09 1.673997419784e-06 0.000000000000e+00 1.600495493405e-08 1.059256853490e-01 9.896969982159e-01 
3.283200000000e+06 7.233464415524e+03 2.536002745339e+07 5.975927667340e-01 4.024072332660e-01 3.536188154236e-08 0.000000000000e+00 -7.875305553393e-09 1.708211044745e-06 0.000000000000e+00 1.807395316434e-08 1.046764941618e-01 9.903936698851e-01 
3.326400000000e+06 7.242468547445e+03 2.535694613705e+07 5.967312680002e-01 4.032687319998e-01 3.438970125386e-08 0.000000000000e+00 -7.826001307489e-09 1.688434815517e-06 0.000000000000e+00 1.712564018981e-08 1.034659722357e-01 9.910428324945e-01 
3.369600000000e+06 7.251434474092e+03 2.535743156523e+07 5.958726555611e-01 4.041273444389e-01 3.435104215698e-08 0.000000000000e+00 -7.711338798806e-09 1.713407476923e-06 0.000000000000e+00 1.847868798428e-08 1.022612482610e-01 9.916622471392e-01 
3.412800000000e+06 7.260241297502e+03 2.535807429408e+07 5.950373167555e-01 4.049626832445e-01 3.350913202869e-08 0.000000000000e+00 -7.660329789952e-09 1.697860781199e-06 0.000000000000e+00 1.770365818927e-08 1.010902068854e-01 9.922395168542e-01 
3.456000000000e+06 7.269429037716e+03 2.535758259364e+07 5.942033315034e-01 4.057966684966e-01 3.332143907606e-08 0.000000000000e+00 -7.569514641928e-09 1.713409377512e-06 0.000000000000e+00 1.861033284056e-08 9.992970202291e-02 9.927860528810e-01 
3.499200000000e+06 7.278460029021e+03 2.535713122742e+07 5.933841047002e-01 4.066158952998e-01 3.253171246935e-08 0.000000000000e+00 -7.523725627735e-09 1.697913182575e-06 0.000000000000e+00 1.791324148426e-08 9.880048412246e-02 9.932937013068e-01 
3.542400000000e+06 7.287422104638e+03 2.535745357830e+07 5.925713191546e-01 4.074286808454e-01 3.237771710027e-08 0.000000000000e+00 -7.431353190283e-09 1.714603151670e-06 0.000000000000e+00 1.896590537761e-08 9.768031151113e-02 9.937727778449e-01 
3.585600000000e+06 7.296113500044e+03 2.536386935812e+07 5.917840056956e-01 4.082159943044e-01 3.207513894170e-08 0.000000000000e+00 -7.345334502331e-09 1.722888674972e-06 0.000000000000e+00 1.986524279317e-08 9.657412929102e-02 9.942215987673e-01 
3.628800000000e+06 7.304710700318e+03 2.536230165823e+07 5.910054369719e-01 4.089945630281e-01 3.137023177797e-08 0.000000000000e+00 -7.306699804358e-09 1.709034109348e-06 0.000000000000e+00 1.902403816088e-08 9.549575729169e-02 9.946356288493e-01 
3.672000000000e+06 7.313368733682e+03 2.535700930847e+07 5.902210570049e-01 4.097789429951e-01 3.104459122767e-08 0.000000000000e+00 -7.243693540982e-09 1.715379374393e-06 0.000000000000e+00 1.910852879746e-08 9.443204817945e-02 9.950207869995e-01 
3.715200000000e+06 7.321930653777e+03 2.535546498939e+07 5.894455889315e-01 4.105544110685e-01 3.065489331176e-08 0.000000000000e+00 -7.178969220844e-09 1.718020350186e-06 0.000000000000e+00 1.926645522308e-08 9.338501295723e-02 9.953772065735e-01 
3.758400000000e+06 7.330221824501e+03 2.535897760309e+07 5.886954415906e-01 4.113045584094e-01 3.015112916141e-08 0.000000000000e+00 -7.120022815466e-09 1.713207628667e-06 0.000000000000e+00 1.925770979356e-08 9.235831824955e-02 9.957047247082e-01 
3.801600000000e+06 7.338509120807e+03 2.536127831037e+07 5.879455188167e-01 4.120544811833e-01 3.020938218948e-08 0.000000000000e+00 -7.021221196437e-09 1.739781598967e-06 0.000000000000e+00 2.088455723667e-08 9.133278473154e-02 9.960098298204e-01 
3.844800000000e+06 7.346743704163e+03 2.535338315820e+07 5.872003424955e-01 4.127996575045e-01 2.902610479728e-08 0.000000000000e+00 -7.036875484581e-09 1.695347254918e-06 0.000000000000e+00 1.789146088782e-08 9.035088620953e-02 9.962818888025e-01 
3.888000000000e+06 7.354888350248e+03 2.535647069944e+07 5.864634910449e-01 4.135365089551e-01 2.895654176029e-08 0.000000000000e+00 -6.946906648160e-09 1.714307497677e-06 0.000000000000e+00 1.922207910283e-08 8.937450912411e-02 9.965330746570e-01 
3.931200000000e+06 7.362887341678e+03 2.536204659175e+07 5.857401814204e-01 4.142598185796e-01 2.912382150189e-08 0.000000000000e+00 -6.842519664440e-09 1.746848781302e-06 0.000000000000e+00 2.125700817610e-08 8.839565457821e-02 9.967655645321e-01 
3.974400000000e+06 7.370888696406e+03 2.535091577919e+07 5.850163051340e-01 4.149836948660e-01 2.787829599490e-08 0.000000000000e+00 -6.868081569768e-09 1.695549579487e-06 0.000000000000e+00 1.779125080588e-08 8.746202077952e-02 9.969702221728e-01 
4.017600000000e+06 7.378685808178e+03 2.536227560872e+07 5.843115159136e-01 4.156884840864e-01 2.831554674549e-08 0.000000000000e+00 -6.729697762604e-09 1.744314247570e-06 0.000000000000e+00 2.135327555296e-08 8.651649760495e-02 9.971605943946e-01 
4.060800000000e+06 7.386362001847e+03 2.536032226152e+07 5.836178098324e-01 4.163821901676e-01 2.795139851589e-08 0.000000000000e+00 -6.678506047804e-09 1.744044538713e-06 0.000000000000e+00 2.124910480106e-08 8.558616961734e-02 9.973320536556e-01 
4.104000000000e+06 7.393990141392e+03 2.535284835006e+07 5.829284521283e-01 4.170715478717e-01 2.725467550495e-08 0.000000000000e+00 -6.664623988487e-09 1.722678512212e-06 0.000000000000e+00 1.951630354706e-08 8.468212020874e-02 9.974846721034e-01 
4.147200000000e+06 7.401469372310e+03 2.536125352236e+07 5.822529251053e-01 4.177470748947e-01 2.732835340397e-08 0.000000000000e+00 -6.564497897147e-09 1.749034689443e-06 0.000000000000e+00 2.162632088729e-08 8.377830104586e-02 9.976240546941e-01 
4.190400000000e+06 7.408977337193e+03 2.535184062922e+07 5.815745170913e-01 4.184254829087e-01 2.666042672367e-08 0.000000000000e+00 -6.550929031448e-09 1.728336381074e-06 0.000000000000e+00 1.988230117526e-08 8.289959073496e-02 9.977482439080e-01 
4.233600000000e+06 7.416425422225e+03 2.535187881530e+07 5.809051849678e-01 4.190948150322e-01 2.624683968208e-08 0.000000000000e+00 -6.502856070730e-09 1.723401951800e-06 0.000000000000e+00 1.971727334733e-08 8.203718600947e-02 9.978602350711e-01 
4.276800000000e+06 7.424033529181e+03 2.535784182390e+07 5.802454225037e-01 4.197545774963e-01 2.622073944820e-08 0.000000000000e+00 -6.423749272579e-09 1.743119772826e-06 0.000000000000e+00 2.126757866264e-08 8.117814221441e-02 9.979627435130e-01 
4.320000000000e+06 7.431671659052e+03 2.535090321439e+07 5.795830787941e-01 4.204169212059e-01 2.541710893185e-08 0.000000000000e+00 -6.424096208361e-09 1.711693755530e-06 0.000000000000e+00 1.910944123411e-08 8.034823320430e-02 9.980548441806e-01 
