VARIABLES  = "X","Y","Z", "TEMPERATURE1", "PRESSURE1", "VELOCITY_X1", "VISCOSITY", "DENSITY", "HEAT_CONDUCTIVITY"
ZONE T="0.000000000000e+00s", N=201, E=200, F=FEPOINT, ET=QUADRILATERAL
STRANDID=1, SOLUTIONTIME=0.000000000000e+00
0.000000000000e+00 0.000000000000e+00 0.000000000000e+00 4.000000000000e+02 5.000000000000e+06 0.000000000000e+00 2.277743841969e-05 4.144227267198e+01 3.422610254990e-02 
5.000000000000e-01 0.000000000000e+00 0.000000000000e+00 4.000000000000e+02 5.000000000000e+06 0.000000000000e+00 2.277743841969e-05 4.144227267198e+01 3.422610254990e-02 
1.000000000000e+00 0.000000000000e+00 0.000000000000e+00 4.000000000000e+02 5.000000000000e+06 0.000000000000e+00 2.277743841969e-05 4.144227267198e+01 3.422610254990e-02 
1.500000000000e+00 0.000000000000e+00 0.000000000000e+00 4.000000000000e+02 5.000000000000e+06 0.000000000000e+00 2.277743841969e-05 4.144227267198e+01 3.422610254990e-02 
2.000000000000e+00 0.000000000000e+00 0.000000000000e+00 4.000000000000e+02 5.000000000000e+06 0.000000000000e+00 2.277743841969e-05 4.144227267198e+01 3.422610254990e-02 
2.500000000000e+00 0.000000000000e+00 0.000000000000e+00 4.000000000000e+02 5.000000000000e+06 0.000000000000e+00 2.277743841969e-05 4.144227267198e+01 3.422610254990e-02 
3.000000000000e+00 0.000000000000e+00 0.000000000000e+00 4.000000000000e+02 5.000000000000e+06 0.000000000000e+00 2.277743841969e-05 4.144227267198e+01 3.422610254990e-02 
3.500000000000e+00 0.000000000000e+00 0.000000000000e+00 4.000000000000e+02 5.000000000000e+06 0.000000000000e+00 2.277743841969e-05 4.144227267198e+01 3.422610254990e-02 
4.000000000000e+00 0.000000000000e+00 0.000000000000e+00 4.000000000000e+02 5.000000000000e+06 0.000000000000e+00 2.277743841969e-05 4.144227267198e+01 3.422610254990e-02 
4.500000000000e+00 0.000000000000e+00 0.000000000000e+00 4.000000000000e+02 5.000000000000e+06 0.000000000000e+00 2.277743841969e-05 4.144227267198e+01 3.422610254990e-02 
5.000000000000e+00 0.000000000000e+00 0.000000000000e+00 4.000000000000e+02 5.000000000000e+06 0.000000000000e+00 2.277743841969e-05 4.144227267198e+01 3.422610254990e-02 
5.500000000000e+00 0.000000000000e+00 0.000000000000e+00 4.000000000000e+02 5.000000000000e+06 0.000000000000e+00 2.277743841969e-05 4.144227267198e+01 3.422610254990e-02 
6.000000000000e+00 0.000000000000e+00 0.000000000000e+00 4.000000000000e+02 5.000000000000e+06 0.000000000000e+00 2.277743841969e-05 4.144227267198e+01 3.422610254990e-02 
6.500000000000e+00 0.000000000000e+00 0.000000000000e+00 4.000000000000e+02 5.000000000000e+06 0.000000000000e+00 2.277743841969e-05 4.144227267198e+01 3.422610254990e-02 
7.000000000000e+00 0.000000000000e+00 0.000000000000e+00 4.000000000000e+02 5.000000000000e+06 0.000000000000e+00 2.277743841969e-05 4.144227267198e+01 3.422610254990e-02 
7.500000000000e+00 0.000000000000e+00 0.000000000000e+00 4.000000000000e+02 5.000000000000e+06 0.000000000000e+00 2.277743841969e-05 4.144227267198e+01 3.422610254990e-02 
8.000000000000e+00 0.000000000000e+00 0.000000000000e+00 4.000000000000e+02 5.000000000000e+06 0.000000000000e+00 2.277743841969e-05 4.144227267198e+01 3.422610254990e-02 
8.500000000000e+00 0.000000000000e+00 0.000000000000e+00 4.000000000000e+02 5.000000000000e+06 0.000000000000e+00 2.277743841969e-05 4.144227267198e+01 3.422610254990e-02 
9.000000000000e+00 0.000000000000e+00 0.000000000000e+00 4.000000000000e+02 5.000000000000e+06 0.000000000000e+00 2.277743841969e-05 4.144227267198e+01 3.422610254990e-02 
9.500000000000e+00 0.000000000000e+00 0.000000000000e+00 4.000000000000e+02 5.000000000000e+06 0.000000000000e+00 2.277743841969e-05 4.144227267198e+01 3.422610254990e-02 
1.000000000000e+01 0.000000000000e+00 0.000000000000e+00 4.000000000000e+02 5.000000000000e+06 0.000000000000e+00 2.277743841969e-05 4.144227267198e+01 3.422610254990e-02 
1.050000000000e+01 0.000000000000e+00 0.000000000000e+00 4.000000000000e+02 5.000000000000e+06 0.000000000000e+00 2.277743841969e-05 4.144227267198e+01 3.422610254990e-02 
1.100000000000e+01 0.000000000000e+00 0.000000000000e+00 4.000000000000e+02 5.000000000000e+06 0.000000000000e+00 2.277743841969e-05 4.144227267198e+01 3.422610254990e-02 
1.150000000000e+01 0.000000000000e+00 0.000000000000e+00 4.000000000000e+02 5.000000000000e+06 0.000000000000e+00 2.277743841969e-05 4.144227267198e+01 3.422610254990e-02 
1.200000000000e+01 0.000000000000e+00 0.000000000000e+00 4.000000000000e+02 5.000000000000e+06 0.000000000000e+00 2.277743841969e-05 4.144227267198e+01 3.422610254990e-02 
1.250000000000e+01 0.000000000000e+00 0.000000000000e+00 4.000000000000e+02 5.000000000000e+06 0.000000000000e+00 2.277743841969e-05 4.144227267198e+01 3.422610254990e-02 
1.300000000000e+01 0.000000000000e+00 0.000000000000e+00 4.000000000000e+02 5.000000000000e+06 0.000000000000e+00 2.277743841969e-05 4.144227267198e+01 3.422610254990e-02 
1.350000000000e+01 0.000000000000e+00 0.000000000000e+00 4.000000000000e+02 5.000000000000e+06 0.000000000000e+00 2.277743841969e-05 4.144227267198e+01 3.422610254990e-02 
1.400000000000e+01 0.000000000000e+00 0.000000000000e+00 4.000000000000e+02 5.000000000000e+06 0.000000000000e+00 2.277743841969e-05 4.144227267198e+01 3.422610254990e-02 
1.450000000000e+01 0.000000000000e+00 0.000000000000e+00 4.000000000000e+02 5.000000000000e+06 0.000000000000e+00 2.277743841969e-05 4.144227267198e+01 3.422610254990e-02 
1.500000000000e+01 0.000000000000e+00 0.000000000000e+00 4.000000000000e+02 5.000000000000e+06 0.000000000000e+00 2.277743841969e-05 4.144227267198e+01 3.422610254990e-02 
1.550000000000e+01 0.000000000000e+00 0.000000000000e+00 4.000000000000e+02 5.000000000000e+06 0.000000000000e+00 2.277743841969e-05 4.144227267198e+01 3.422610254990e-02 
1.600000000000e+01 0.000000000000e+00 0.000000000000e+00 4.000000000000e+02 5.000000000000e+06 0.000000000000e+00 2.277743841969e-05 4.144227267198e+01 3.422610254990e-02 
1.650000000000e+01 0.000000000000e+00 0.000000000000e+00 4.000000000000e+02 5.000000000000e+06 0.000000000000e+00 2.277743841969e-05 4.144227267198e+01 3.422610254990e-02 
1.700000000000e+01 0.000000000000e+00 0.000000000000e+00 4.000000000000e+02 5.000000000000e+06 0.000000000000e+00 2.277743841969e-05 4.144227267198e+01 3.422610254990e-02 
1.750000000000e+01 0.000000000000e+00 0.000000000000e+00 4.000000000000e+02 5.000000000000e+06 0.000000000000e+00 2.277743841969e-05 4.144227267198e+01 3.422610254990e-02 
1.800000000000e+01 0.000000000000e+00 0.000000000000e+00 4.000000000000e+02 5.000000000000e+06 0.000000000000e+00 2.277743841969e-05 4.144227267198e+01 3.422610254990e-02 
1.850000000000e+01 0.000000000000e+00 0.000000000000e+00 4.000000000000e+02 5.000000000000e+06 0.000000000000e+00 2.277743841969e-05 4.144227267198e+01 3.422610254990e-02 
1.900000000000e+01 0.000000000000e+00 0.000000000000e+00 4.000000000000e+02 5.000000000000e+06 0.000000000000e+00 2.277743841969e-05 4.144227267198e+01 3.422610254990e-02 
1.950000000000e+01 0.000000000000e+00 0.000000000000e+00 4.000000000000e+02 5.000000000000e+06 0.000000000000e+00 2.277743841969e-05 4.144227267198e+01 3.422610254990e-02 
2.000000000000e+01 0.000000000000e+00 0.000000000000e+00 4.000000000000e+02 5.000000000000e+06 0.000000000000e+00 2.277743841969e-05 4.144227267198e+01 3.422610254990e-02 
2.050000000000e+01 0.000000000000e+00 0.000000000000e+00 4.000000000000e+02 5.000000000000e+06 0.000000000000e+00 2.277743841969e-05 4.144227267198e+01 3.422610254990e-02 
2.100000000000e+01 0.000000000000e+00 0.000000000000e+00 4.000000000000e+02 5.000000000000e+06 0.000000000000e+00 2.277743841969e-05 4.144227267198e+01 3.422610254990e-02 
2.150000000000e+01 0.000000000000e+00 0.000000000000e+00 4.000000000000e+02 5.000000000000e+06 0.000000000000e+00 2.277743841969e-05 4.144227267198e+01 3.422610254990e-02 
2.200000000000e+01 0.000000000000e+00 0.000000000000e+00 4.000000000000e+02 5.000000000000e+06 0.000000000000e+00 2.277743841969e-05 4.144227267198e+01 3.422610254990e-02 
2.250000000000e+01 0.000000000000e+00 0.000000000000e+00 4.000000000000e+02 5.000000000000e+06 0.000000000000e+00 2.277743841969e-05 4.144227267198e+01 3.422610254990e-02 
2.300000000000e+01 0.000000000000e+00 0.000000000000e+00 4.000000000000e+02 5.000000000000e+06 0.000000000000e+00 2.277743841969e-05 4.144227267198e+01 3.422610254990e-02 
2.350000000000e+01 0.000000000000e+00 0.000000000000e+00 4.000000000000e+02 5.000000000000e+06 0.000000000000e+00 2.277743841969e-05 4.144227267198e+01 3.422610254990e-02 
2.400000000000e+01 0.000000000000e+00 0.000000000000e+00 4.000000000000e+02 5.000000000000e+06 0.000000000000e+00 2.277743841969e-05 4.144227267198e+01 3.422610254990e-02 
2.450000000000e+01 0.000000000000e+00 0.000000000000e+00 4.000000000000e+02 5.000000000000e+06 0.000000000000e+00 2.277743841969e-05 4.144227267198e+01 3.422610254990e-02 
2.500000000000e+01 0.000000000000e+00 0.000000000000e+00 4.000000000000e+02 5.000000000000e+06 0.000000000000e+00 2.277743841969e-05 4.144227267198e+01 3.422610254990e-02 
2.550000000000e+01 0.000000000000e+00 0.000000000000e+00 4.000000000000e+02 5.000000000000e+06 0.000000000000e+00 2.277743841969e-05 4.144227267198e+01 3.422610254990e-02 
2.600000000000e+01 0.000000000000e+00 0.000000000000e+00 4.000000000000e+02 5.000000000000e+06 0.000000000000e+00 2.277743841969e-05 4.144227267198e+01 3.422610254990e-02 
2.650000000000e+01 0.000000000000e+00 0.000000000000e+00 4.000000000000e+02 5.000000000000e+06 0.000000000000e+00 2.277743841969e-05 4.144227267198e+01 3.422610254990e-02 
2.700000000000e+01 0.000000000000e+00 0.000000000000e+00 4.000000000000e+02 5.000000000000e+06 0.000000000000e+00 2.277743841969e-05 4.144227267198e+01 3.422610254990e-02 
2.750000000000e+01 0.000000000000e+00 0.000000000000e+00 4.000000000000e+02 5.000000000000e+06 0.000000000000e+00 2.277743841969e-05 4.144227267198e+01 3.422610254990e-02 
2.800000000000e+01 0.000000000000e+00 0.000000000000e+00 4.000000000000e+02 5.000000000000e+06 0.000000000000e+00 2.277743841969e-05 4.144227267198e+01 3.422610254990e-02 
2.850000000000e+01 0.000000000000e+00 0.000000000000e+00 4.000000000000e+02 5.000000000000e+06 0.000000000000e+00 2.277743841969e-05 4.144227267198e+01 3.422610254990e-02 
2.900000000000e+01 0.000000000000e+00 0.000000000000e+00 4.000000000000e+02 5.000000000000e+06 0.000000000000e+00 2.277743841969e-05 4.144227267198e+01 3.422610254990e-02 
2.950000000000e+01 0.000000000000e+00 0.000000000000e+00 4.000000000000e+02 5.000000000000e+06 0.000000000000e+00 2.277743841969e-05 4.144227267198e+01 3.422610254990e-02 
3.000000000000e+01 0.000000000000e+00 0.000000000000e+00 4.000000000000e+02 5.000000000000e+06 0.000000000000e+00 2.277743841969e-05 4.144227267198e+01 3.422610254990e-02 
3.050000000000e+01 0.000000000000e+00 0.000000000000e+00 4.000000000000e+02 5.000000000000e+06 0.000000000000e+00 2.277743841969e-05 4.144227267198e+01 3.422610254990e-02 
3.100000000000e+01 0.000000000000e+00 0.000000000000e+00 4.000000000000e+02 5.000000000000e+06 0.000000000000e+00 2.277743841969e-05 4.144227267198e+01 3.422610254990e-02 
3.150000000000e+01 0.000000000000e+00 0.000000000000e+00 4.000000000000e+02 5.000000000000e+06 0.000000000000e+00 2.277743841969e-05 4.144227267198e+01 3.422610254990e-02 
3.200000000000e+01 0.000000000000e+00 0.000000000000e+00 4.000000000000e+02 5.000000000000e+06 0.000000000000e+00 2.277743841969e-05 4.144227267198e+01 3.422610254990e-02 
3.250000000000e+01 0.000000000000e+00 0.000000000000e+00 4.000000000000e+02 5.000000000000e+06 0.000000000000e+00 2.277743841969e-05 4.144227267198e+01 3.422610254990e-02 
3.300000000000e+01 0.000000000000e+00 0.000000000000e+00 4.000000000000e+02 5.000000000000e+06 0.000000000000e+00 2.277743841969e-05 4.144227267198e+01 3.422610254990e-02 
3.350000000000e+01 0.000000000000e+00 0.000000000000e+00 4.000000000000e+02 5.000000000000e+06 0.000000000000e+00 2.277743841969e-05 4.144227267198e+01 3.422610254990e-02 
3.400000000000e+01 0.000000000000e+00 0.000000000000e+00 4.000000000000e+02 5.000000000000e+06 0.000000000000e+00 2.277743841969e-05 4.144227267198e+01 3.422610254990e-02 
3.450000000000e+01 0.000000000000e+00 0.000000000000e+00 4.000000000000e+02 5.000000000000e+06 0.000000000000e+00 2.277743841969e-05 4.144227267198e+01 3.422610254990e-02 
3.500000000000e+01 0.000000000000e+00 0.000000000000e+00 4.000000000000e+02 5.000000000000e+06 0.000000000000e+00 2.277743841969e-05 4.144227267198e+01 3.422610254990e-02 
3.550000000000e+01 0.000000000000e+00 0.000000000000e+00 4.000000000000e+02 5.000000000000e+06 0.000000000000e+00 2.277743841969e-05 4.144227267198e+01 3.422610254990e-02 
3.600000000000e+01 0.000000000000e+00 0.000000000000e+00 4.000000000000e+02 5.000000000000e+06 0.000000000000e+00 2.277743841969e-05 4.144227267198e+01 3.422610254990e-02 
3.650000000000e+01 0.000000000000e+00 0.000000000000e+00 4.000000000000e+02 5.000000000000e+06 0.000000000000e+00 2.277743841969e-05 4.144227267198e+01 3.422610254990e-02 
3.700000000000e+01 0.000000000000e+00 0.000000000000e+00 4.000000000000e+02 5.000000000000e+06 0.000000000000e+00 2.277743841969e-05 4.144227267198e+01 3.422610254990e-02 
3.750000000000e+01 0.000000000000e+00 0.000000000000e+00 4.000000000000e+02 5.000000000000e+06 0.000000000000e+00 2.277743841969e-05 4.144227267198e+01 3.422610254990e-02 
3.800000000000e+01 0.000000000000e+00 0.000000000000e+00 4.000000000000e+02 5.000000000000e+06 0.000000000000e+00 2.277743841969e-05 4.144227267198e+01 3.422610254990e-02 
3.850000000000e+01 0.000000000000e+00 0.000000000000e+00 4.000000000000e+02 5.000000000000e+06 0.000000000000e+00 2.277743841969e-05 4.144227267198e+01 3.422610254990e-02 
3.900000000000e+01 0.000000000000e+00 0.000000000000e+00 4.000000000000e+02 5.000000000000e+06 0.000000000000e+00 2.277743841969e-05 4.144227267198e+01 3.422610254990e-02 
3.950000000000e+01 0.000000000000e+00 0.000000000000e+00 4.000000000000e+02 5.000000000000e+06 0.000000000000e+00 2.277743841969e-05 4.144227267198e+01 3.422610254990e-02 
4.000000000000e+01 0.000000000000e+00 0.000000000000e+00 4.000000000000e+02 5.000000000000e+06 0.000000000000e+00 2.277743841969e-05 4.144227267198e+01 3.422610254990e-02 
4.050000000000e+01 0.000000000000e+00 0.000000000000e+00 4.000000000000e+02 5.000000000000e+06 0.000000000000e+00 2.277743841969e-05 4.144227267198e+01 3.422610254990e-02 
4.100000000000e+01 0.000000000000e+00 0.000000000000e+00 4.000000000000e+02 5.000000000000e+06 0.000000000000e+00 2.277743841969e-05 4.144227267198e+01 3.422610254990e-02 
4.150000000000e+01 0.000000000000e+00 0.000000000000e+00 4.000000000000e+02 5.000000000000e+06 0.000000000000e+00 2.277743841969e-05 4.144227267198e+01 3.422610254990e-02 
4.200000000000e+01 0.000000000000e+00 0.000000000000e+00 4.000000000000e+02 5.000000000000e+06 0.000000000000e+00 2.277743841969e-05 4.144227267198e+01 3.422610254990e-02 
4.250000000000e+01 0.000000000000e+00 0.000000000000e+00 4.000000000000e+02 5.000000000000e+06 0.000000000000e+00 2.277743841969e-05 4.144227267198e+01 3.422610254990e-02 
4.300000000000e+01 0.000000000000e+00 0.000000000000e+00 4.000000000000e+02 5.000000000000e+06 0.000000000000e+00 2.277743841969e-05 4.144227267198e+01 3.422610254990e-02 
4.350000000000e+01 0.000000000000e+00 0.000000000000e+00 4.000000000000e+02 5.000000000000e+06 0.000000000000e+00 2.277743841969e-05 4.144227267198e+01 3.422610254990e-02 
4.400000000000e+01 0.000000000000e+00 0.000000000000e+00 4.000000000000e+02 5.000000000000e+06 0.000000000000e+00 2.277743841969e-05 4.144227267198e+01 3.422610254990e-02 
4.450000000000e+01 0.000000000000e+00 0.000000000000e+00 4.000000000000e+02 5.000000000000e+06 0.000000000000e+00 2.277743841969e-05 4.144227267198e+01 3.422610254990e-02 
4.500000000000e+01 0.000000000000e+00 0.000000000000e+00 4.000000000000e+02 5.000000000000e+06 0.000000000000e+00 2.277743841969e-05 4.144227267198e+01 3.422610254990e-02 
4.550000000000e+01 0.000000000000e+00 0.000000000000e+00 4.000000000000e+02 5.000000000000e+06 0.000000000000e+00 2.277743841969e-05 4.144227267198e+01 3.422610254990e-02 
4.600000000000e+01 0.000000000000e+00 0.000000000000e+00 4.000000000000e+02 5.000000000000e+06 0.000000000000e+00 2.277743841969e-05 4.144227267198e+01 3.422610254990e-02 
4.650000000000e+01 0.000000000000e+00 0.000000000000e+00 4.000000000000e+02 5.000000000000e+06 0.000000000000e+00 2.277743841969e-05 4.144227267198e+01 3.422610254990e-02 
4.700000000000e+01 0.000000000000e+00 0.000000000000e+00 4.000000000000e+02 5.000000000000e+06 0.000000000000e+00 2.277743841969e-05 4.144227267198e+01 3.422610254990e-02 
4.750000000000e+01 0.000000000000e+00 0.000000000000e+00 4.000000000000e+02 5.000000000000e+06 0.000000000000e+00 2.277743841969e-05 4.144227267198e+01 3.422610254990e-02 
4.800000000000e+01 0.000000000000e+00 0.000000000000e+00 4.000000000000e+02 5.000000000000e+06 0.000000000000e+00 2.277743841969e-05 4.144227267198e+01 3.422610254990e-02 
4.850000000000e+01 0.000000000000e+00 0.000000000000e+00 4.000000000000e+02 5.000000000000e+06 0.000000000000e+00 2.277743841969e-05 4.144227267198e+01 3.422610254990e-02 
4.900000000000e+01 0.000000000000e+00 0.000000000000e+00 4.000000000000e+02 5.000000000000e+06 0.000000000000e+00 2.277743841969e-05 4.144227267198e+01 3.422610254990e-02 
4.950000000000e+01 0.000000000000e+00 0.000000000000e+00 4.000000000000e+02 5.000000000000e+06 0.000000000000e+00 2.277743841969e-05 4.144227267198e+01 3.422610254990e-02 
5.000000000000e+01 0.000000000000e+00 0.000000000000e+00 4.000000000000e+02 5.000000000000e+06 0.000000000000e+00 2.277743841969e-05 4.144227267198e+01 3.422610254990e-02 
5.050000000000e+01 0.000000000000e+00 0.000000000000e+00 4.000000000000e+02 5.000000000000e+06 0.000000000000e+00 2.277743841969e-05 4.144227267198e+01 3.422610254990e-02 
5.100000000000e+01 0.000000000000e+00 0.000000000000e+00 4.000000000000e+02 5.000000000000e+06 0.000000000000e+00 2.277743841969e-05 4.144227267198e+01 3.422610254990e-02 
5.150000000000e+01 0.000000000000e+00 0.000000000000e+00 4.000000000000e+02 5.000000000000e+06 0.000000000000e+00 2.277743841969e-05 4.144227267198e+01 3.422610254990e-02 
5.200000000000e+01 0.000000000000e+00 0.000000000000e+00 4.000000000000e+02 5.000000000000e+06 0.000000000000e+00 2.277743841969e-05 4.144227267198e+01 3.422610254990e-02 
5.250000000000e+01 0.000000000000e+00 0.000000000000e+00 4.000000000000e+02 5.000000000000e+06 0.000000000000e+00 2.277743841969e-05 4.144227267198e+01 3.422610254990e-02 
5.300000000000e+01 0.000000000000e+00 0.000000000000e+00 4.000000000000e+02 5.000000000000e+06 0.000000000000e+00 2.277743841969e-05 4.144227267198e+01 3.422610254990e-02 
5.350000000000e+01 0.000000000000e+00 0.000000000000e+00 4.000000000000e+02 5.000000000000e+06 0.000000000000e+00 2.277743841969e-05 4.144227267198e+01 3.422610254990e-02 
5.400000000000e+01 0.000000000000e+00 0.000000000000e+00 4.000000000000e+02 5.000000000000e+06 0.000000000000e+00 2.277743841969e-05 4.144227267198e+01 3.422610254990e-02 
5.450000000000e+01 0.000000000000e+00 0.000000000000e+00 4.000000000000e+02 5.000000000000e+06 0.000000000000e+00 2.277743841969e-05 4.144227267198e+01 3.422610254990e-02 
5.500000000000e+01 0.000000000000e+00 0.000000000000e+00 4.000000000000e+02 5.000000000000e+06 0.000000000000e+00 2.277743841969e-05 4.144227267198e+01 3.422610254990e-02 
5.550000000000e+01 0.000000000000e+00 0.000000000000e+00 4.000000000000e+02 5.000000000000e+06 0.000000000000e+00 2.277743841969e-05 4.144227267198e+01 3.422610254990e-02 
5.600000000000e+01 0.000000000000e+00 0.000000000000e+00 4.000000000000e+02 5.000000000000e+06 0.000000000000e+00 2.277743841969e-05 4.144227267198e+01 3.422610254990e-02 
5.650000000000e+01 0.000000000000e+00 0.000000000000e+00 4.000000000000e+02 5.000000000000e+06 0.000000000000e+00 2.277743841969e-05 4.144227267198e+01 3.422610254990e-02 
5.700000000000e+01 0.000000000000e+00 0.000000000000e+00 4.000000000000e+02 5.000000000000e+06 0.000000000000e+00 2.277743841969e-05 4.144227267198e+01 3.422610254990e-02 
5.750000000000e+01 0.000000000000e+00 0.000000000000e+00 4.000000000000e+02 5.000000000000e+06 0.000000000000e+00 2.277743841969e-05 4.144227267198e+01 3.422610254990e-02 
5.800000000000e+01 0.000000000000e+00 0.000000000000e+00 4.000000000000e+02 5.000000000000e+06 0.000000000000e+00 2.277743841969e-05 4.144227267198e+01 3.422610254990e-02 
5.850000000000e+01 0.000000000000e+00 0.000000000000e+00 4.000000000000e+02 5.000000000000e+06 0.000000000000e+00 2.277743841969e-05 4.144227267198e+01 3.422610254990e-02 
5.900000000000e+01 0.000000000000e+00 0.000000000000e+00 4.000000000000e+02 5.000000000000e+06 0.000000000000e+00 2.277743841969e-05 4.144227267198e+01 3.422610254990e-02 
5.950000000000e+01 0.000000000000e+00 0.000000000000e+00 4.000000000000e+02 5.000000000000e+06 0.000000000000e+00 2.277743841969e-05 4.144227267198e+01 3.422610254990e-02 
6.000000000000e+01 0.000000000000e+00 0.000000000000e+00 4.000000000000e+02 5.000000000000e+06 0.000000000000e+00 2.277743841969e-05 4.144227267198e+01 3.422610254990e-02 
6.050000000000e+01 0.000000000000e+00 0.000000000000e+00 4.000000000000e+02 5.000000000000e+06 0.000000000000e+00 2.277743841969e-05 4.144227267198e+01 3.422610254990e-02 
6.100000000000e+01 0.000000000000e+00 0.000000000000e+00 4.000000000000e+02 5.000000000000e+06 0.000000000000e+00 2.277743841969e-05 4.144227267198e+01 3.422610254990e-02 
6.150000000000e+01 0.000000000000e+00 0.000000000000e+00 4.000000000000e+02 5.000000000000e+06 0.000000000000e+00 2.277743841969e-05 4.144227267198e+01 3.422610254990e-02 
6.200000000000e+01 0.000000000000e+00 0.000000000000e+00 4.000000000000e+02 5.000000000000e+06 0.000000000000e+00 2.277743841969e-05 4.144227267198e+01 3.422610254990e-02 
6.250000000000e+01 0.000000000000e+00 0.000000000000e+00 4.000000000000e+02 5.000000000000e+06 0.000000000000e+00 2.277743841969e-05 4.144227267198e+01 3.422610254990e-02 
6.300000000000e+01 0.000000000000e+00 0.000000000000e+00 4.000000000000e+02 5.000000000000e+06 0.000000000000e+00 2.277743841969e-05 4.144227267198e+01 3.422610254990e-02 
6.350000000000e+01 0.000000000000e+00 0.000000000000e+00 4.000000000000e+02 5.000000000000e+06 0.000000000000e+00 2.277743841969e-05 4.144227267198e+01 3.422610254990e-02 
6.400000000000e+01 0.000000000000e+00 0.000000000000e+00 4.000000000000e+02 5.000000000000e+06 0.000000000000e+00 2.277743841969e-05 4.144227267198e+01 3.422610254990e-02 
6.450000000000e+01 0.000000000000e+00 0.000000000000e+00 4.000000000000e+02 5.000000000000e+06 0.000000000000e+00 2.277743841969e-05 4.144227267198e+01 3.422610254990e-02 
6.500000000000e+01 0.000000000000e+00 0.000000000000e+00 4.000000000000e+02 5.000000000000e+06 0.000000000000e+00 2.277743841969e-05 4.144227267198e+01 3.422610254990e-02 
6.550000000000e+01 0.000000000000e+00 0.000000000000e+00 4.000000000000e+02 5.000000000000e+06 0.000000000000e+00 2.277743841969e-05 4.144227267198e+01 3.422610254990e-02 
6.600000000000e+01 0.000000000000e+00 0.000000000000e+00 4.000000000000e+02 5.000000000000e+06 0.000000000000e+00 2.277743841969e-05 4.144227267198e+01 3.422610254990e-02 
6.650000000000e+01 0.000000000000e+00 0.000000000000e+00 4.000000000000e+02 5.000000000000e+06 0.000000000000e+00 2.277743841969e-05 4.144227267198e+01 3.422610254990e-02 
6.700000000000e+01 0.000000000000e+00 0.000000000000e+00 4.000000000000e+02 5.000000000000e+06 0.000000000000e+00 2.277743841969e-05 4.144227267198e+01 3.422610254990e-02 
6.750000000000e+01 0.000000000000e+00 0.000000000000e+00 4.000000000000e+02 5.000000000000e+06 0.000000000000e+00 2.277743841969e-05 4.144227267198e+01 3.422610254990e-02 
6.800000000000e+01 0.000000000000e+00 0.000000000000e+00 4.000000000000e+02 5.000000000000e+06 0.000000000000e+00 2.277743841969e-05 4.144227267198e+01 3.422610254990e-02 
6.850000000000e+01 0.000000000000e+00 0.000000000000e+00 4.000000000000e+02 5.000000000000e+06 0.000000000000e+00 2.277743841969e-05 4.144227267198e+01 3.422610254990e-02 
6.900000000000e+01 0.000000000000e+00 0.000000000000e+00 4.000000000000e+02 5.000000000000e+06 0.000000000000e+00 2.277743841969e-05 4.144227267198e+01 3.422610254990e-02 
6.950000000000e+01 0.000000000000e+00 0.000000000000e+00 4.000000000000e+02 5.000000000000e+06 0.000000000000e+00 2.277743841969e-05 4.144227267198e+01 3.422610254990e-02 
7.000000000000e+01 0.000000000000e+00 0.000000000000e+00 4.000000000000e+02 5.000000000000e+06 0.000000000000e+00 2.277743841969e-05 4.144227267198e+01 3.422610254990e-02 
7.050000000000e+01 0.000000000000e+00 0.000000000000e+00 4.000000000000e+02 5.000000000000e+06 0.000000000000e+00 2.277743841969e-05 4.144227267198e+01 3.422610254990e-02 
7.100000000000e+01 0.000000000000e+00 0.000000000000e+00 4.000000000000e+02 5.000000000000e+06 0.000000000000e+00 2.277743841969e-05 4.144227267198e+01 3.422610254990e-02 
7.150000000000e+01 0.000000000000e+00 0.000000000000e+00 4.000000000000e+02 5.000000000000e+06 0.000000000000e+00 2.277743841969e-05 4.144227267198e+01 3.422610254990e-02 
7.200000000000e+01 0.000000000000e+00 0.000000000000e+00 4.000000000000e+02 5.000000000000e+06 0.000000000000e+00 2.277743841969e-05 4.144227267198e+01 3.422610254990e-02 
7.250000000000e+01 0.000000000000e+00 0.000000000000e+00 4.000000000000e+02 5.000000000000e+06 0.000000000000e+00 2.277743841969e-05 4.144227267198e+01 3.422610254990e-02 
7.300000000000e+01 0.000000000000e+00 0.000000000000e+00 4.000000000000e+02 5.000000000000e+06 0.000000000000e+00 2.277743841969e-05 4.144227267198e+01 3.422610254990e-02 
7.350000000000e+01 0.000000000000e+00 0.000000000000e+00 4.000000000000e+02 5.000000000000e+06 0.000000000000e+00 2.277743841969e-05 4.144227267198e+01 3.422610254990e-02 
7.400000000000e+01 0.000000000000e+00 0.000000000000e+00 4.000000000000e+02 5.000000000000e+06 0.000000000000e+00 2.277743841969e-05 4.144227267198e+01 3.422610254990e-02 
7.450000000000e+01 0.000000000000e+00 0.000000000000e+00 4.000000000000e+02 5.000000000000e+06 0.000000000000e+00 2.277743841969e-05 4.144227267198e+01 3.422610254990e-02 
7.500000000000e+01 0.000000000000e+00 0.000000000000e+00 4.000000000000e+02 5.000000000000e+06 0.000000000000e+00 2.277743841969e-05 4.144227267198e+01 3.422610254990e-02 
7.550000000000e+01 0.000000000000e+00 0.000000000000e+00 4.000000000000e+02 5.000000000000e+06 0.000000000000e+00 2.277743841969e-05 4.144227267198e+01 3.422610254990e-02 
7.600000000000e+01 0.000000000000e+00 0.000000000000e+00 4.000000000000e+02 5.000000000000e+06 0.000000000000e+00 2.277743841969e-05 4.144227267198e+01 3.422610254990e-02 
7.650000000000e+01 0.000000000000e+00 0.000000000000e+00 4.000000000000e+02 5.000000000000e+06 0.000000000000e+00 2.277743841969e-05 4.144227267198e+01 3.422610254990e-02 
7.700000000000e+01 0.000000000000e+00 0.000000000000e+00 4.000000000000e+02 5.000000000000e+06 0.000000000000e+00 2.277743841969e-05 4.144227267198e+01 3.422610254990e-02 
7.750000000000e+01 0.000000000000e+00 0.000000000000e+00 4.000000000000e+02 5.000000000000e+06 0.000000000000e+00 2.277743841969e-05 4.144227267198e+01 3.422610254990e-02 
7.800000000000e+01 0.000000000000e+00 0.000000000000e+00 4.000000000000e+02 5.000000000000e+06 0.000000000000e+00 2.277743841969e-05 4.144227267198e+01 3.422610254990e-02 
7.850000000000e+01 0.000000000000e+00 0.000000000000e+00 4.000000000000e+02 5.000000000000e+06 0.000000000000e+00 2.277743841969e-05 4.144227267198e+01 3.422610254990e-02 
7.900000000000e+01 0.000000000000e+00 0.000000000000e+00 4.000000000000e+02 5.000000000000e+06 0.000000000000e+00 2.277743841969e-05 4.144227267198e+01 3.422610254990e-02 
7.950000000000e+01 0.000000000000e+00 0.000000000000e+00 4.000000000000e+02 5.000000000000e+06 0.000000000000e+00 2.277743841969e-05 4.144227267198e+01 3.422610254990e-02 
8.000000000000e+01 0.000000000000e+00 0.000000000000e+00 4.000000000000e+02 5.000000000000e+06 0.000000000000e+00 2.277743841969e-05 4.144227267198e+01 3.422610254990e-02 
8.050000000000e+01 0.000000000000e+00 0.000000000000e+00 4.000000000000e+02 5.000000000000e+06 0.000000000000e+00 2.277743841969e-05 4.144227267198e+01 3.422610254990e-02 
8.100000000000e+01 0.000000000000e+00 0.000000000000e+00 4.000000000000e+02 5.000000000000e+06 0.000000000000e+00 2.277743841969e-05 4.144227267198e+01 3.422610254990e-02 
8.150000000000e+01 0.000000000000e+00 0.000000000000e+00 4.000000000000e+02 5.000000000000e+06 0.000000000000e+00 2.277743841969e-05 4.144227267198e+01 3.422610254990e-02 
8.200000000000e+01 0.000000000000e+00 0.000000000000e+00 4.000000000000e+02 5.000000000000e+06 0.000000000000e+00 2.277743841969e-05 4.144227267198e+01 3.422610254990e-02 
8.250000000000e+01 0.000000000000e+00 0.000000000000e+00 4.000000000000e+02 5.000000000000e+06 0.000000000000e+00 2.277743841969e-05 4.144227267198e+01 3.422610254990e-02 
8.300000000000e+01 0.000000000000e+00 0.000000000000e+00 4.000000000000e+02 5.000000000000e+06 0.000000000000e+00 2.277743841969e-05 4.144227267198e+01 3.422610254990e-02 
8.350000000000e+01 0.000000000000e+00 0.000000000000e+00 4.000000000000e+02 5.000000000000e+06 0.000000000000e+00 2.277743841969e-05 4.144227267198e+01 3.422610254990e-02 
8.400000000000e+01 0.000000000000e+00 0.000000000000e+00 4.000000000000e+02 5.000000000000e+06 0.000000000000e+00 2.277743841969e-05 4.144227267198e+01 3.422610254990e-02 
8.450000000000e+01 0.000000000000e+00 0.000000000000e+00 4.000000000000e+02 5.000000000000e+06 0.000000000000e+00 2.277743841969e-05 4.144227267198e+01 3.422610254990e-02 
8.500000000000e+01 0.000000000000e+00 0.000000000000e+00 4.000000000000e+02 5.000000000000e+06 0.000000000000e+00 2.277743841969e-05 4.144227267198e+01 3.422610254990e-02 
8.550000000000e+01 0.000000000000e+00 0.000000000000e+00 4.000000000000e+02 5.000000000000e+06 0.000000000000e+00 2.277743841969e-05 4.144227267198e+01 3.422610254990e-02 
8.600000000000e+01 0.000000000000e+00 0.000000000000e+00 4.000000000000e+02 5.000000000000e+06 0.000000000000e+00 2.277743841969e-05 4.144227267198e+01 3.422610254990e-02 