<?xml version="1.0"?>
<!-- Time step: 2 | Time: 2.000000000000e+00 -->
<VTKFile type="UnstructuredGrid" version="0.1" byte_order="LittleEndian">
  <UnstructuredGrid>
    <Piece NumberOfPoints="1111" NumberOfCells="1000">
      <Points>
        <DataArray type="Float64" NumberOfComponents="3" format="ascii">
          0.000000000000e+00 0.000000000000e+00 0.000000000000e+00
          1.000000000000e+00 0.000000000000e+00 0.000000000000e+00
          1.000000000000e+00 0.000000000000e+00 1.000000000000e+00
          0.000000000000e+00 0.000000000000e+00 1.000000000000e+00
          1.000000000000e+00 0.000000000000e+00 2.000000000000e+00
          0.000000000000e+00 0.000000000000e+00 2.000000000000e+00
          1.000000000000e+00 0.000000000000e+00 3.000000000000e+00
          0.000000000000e+00 0.000000000000e+00 3.000000000000e+00
          1.000000000000e+00 0.000000000000e+00 4.000000000000e+00
          0.000000000000e+00 0.000000000000e+00 4.000000000000e+00
          1.000000000000e+00 0.000000000000e+00 5.000000000000e+00
          0.000000000000e+00 0.000000000000e+00 5.000000000000e+00
          1.000000000000e+00 0.000000000000e+00 6.000000000000e+00
          0.000000000000e+00 0.000000000000e+00 6.000000000000e+00
          1.000000000000e+00 0.000000000000e+00 7.000000000000e+00
          0.000000000000e+00 0.000000000000e+00 7.000000000000e+00
          1.000000000000e+00 0.000000000000e+00 8.000000000000e+00
          0.000000000000e+00 0.000000000000e+00 8.000000000000e+00
          1.000000000000e+00 0.000000000000e+00 9.000000000000e+00
          0.000000000000e+00 0.000000000000e+00 9.000000000000e+00
          1.000000000000e+00 0.000000000000e+00 1.000000000000e+01
          0.000000000000e+00 0.000000000000e+00 1.000000000000e+01
          2.000000000000e+00 0.000000000000e+00 0.000000000000e+00
          2.000000000000e+00 0.000000000000e+00 1.000000000000e+00
          2.000000000000e+00 0.000000000000e+00 2.000000000000e+00
          2.000000000000e+00 0.000000000000e+00 3.000000000000e+00
          2.000000000000e+00 0.000000000000e+00 4.000000000000e+00
          2.000000000000e+00 0.000000000000e+00 5.000000000000e+00
          2.000000000000e+00 0.000000000000e+00 6.000000000000e+00
          2.000000000000e+00 0.000000000000e+00 7.000000000000e+00
          2.000000000000e+00 0.000000000000e+00 8.000000000000e+00
          2.000000000000e+00 0.000000000000e+00 9.000000000000e+00
          2.000000000000e+00 0.000000000000e+00 1.000000000000e+01
          3.000000000000e+00 0.000000000000e+00 0.000000000000e+00
          3.000000000000e+00 0.000000000000e+00 1.000000000000e+00
          3.000000000000e+00 0.000000000000e+00 2.000000000000e+00
          3.000000000000e+00 0.000000000000e+00 3.000000000000e+00
          3.000000000000e+00 0.000000000000e+00 4.000000000000e+00
          3.000000000000e+00 0.000000000000e+00 5.000000000000e+00
          3.000000000000e+00 0.000000000000e+00 6.000000000000e+00
          3.000000000000e+00 0.000000000000e+00 7.000000000000e+00
          3.000000000000e+00 0.000000000000e+00 8.000000000000e+00
          3.000000000000e+00 0.000000000000e+00 9.000000000000e+00
          3.000000000000e+00 0.000000000000e+00 1.000000000000e+01
          4.000000000000e+00 0.000000000000e+00 0.000000000000e+00
          4.000000000000e+00 0.000000000000e+00 1.000000000000e+00
          4.000000000000e+00 0.000000000000e+00 2.000000000000e+00
          4.000000000000e+00 0.000000000000e+00 3.000000000000e+00
          4.000000000000e+00 0.000000000000e+00 4.000000000000e+00
          4.000000000000e+00 0.000000000000e+00 5.000000000000e+00
          4.000000000000e+00 0.000000000000e+00 6.000000000000e+00
          4.000000000000e+00 0.000000000000e+00 7.000000000000e+00
          4.000000000000e+00 0.000000000000e+00 8.000000000000e+00
          4.000000000000e+00 0.000000000000e+00 9.000000000000e+00
          4.000000000000e+00 0.000000000000e+00 1.000000000000e+01
          5.000000000000e+00 0.000000000000e+00 0.000000000000e+00
          5.000000000000e+00 0.000000000000e+00 1.000000000000e+00
          5.000000000000e+00 0.000000000000e+00 2.000000000000e+00
          5.000000000000e+00 0.000000000000e+00 3.000000000000e+00
          5.000000000000e+00 0.000000000000e+00 4.000000000000e+00
          5.000000000000e+00 0.000000000000e+00 5.000000000000e+00
          5.000000000000e+00 0.000000000000e+00 6.000000000000e+00
          5.000000000000e+00 0.000000000000e+00 7.000000000000e+00
          5.000000000000e+00 0.000000000000e+00 8.000000000000e+00
          5.000000000000e+00 0.000000000000e+00 9.000000000000e+00
          5.000000000000e+00 0.000000000000e+00 1.000000000000e+01
          6.000000000000e+00 0.000000000000e+00 0.000000000000e+00
          6.000000000000e+00 0.000000000000e+00 1.000000000000e+00
          6.000000000000e+00 0.000000000000e+00 2.000000000000e+00
          6.000000000000e+00 0.000000000000e+00 3.000000000000e+00
          6.000000000000e+00 0.000000000000e+00 4.000000000000e+00
          6.000000000000e+00 0.000000000000e+00 5.000000000000e+00
          6.000000000000e+00 0.000000000000e+00 6.000000000000e+00
          6.000000000000e+00 0.000000000000e+00 7.000000000000e+00
          6.000000000000e+00 0.000000000000e+00 8.000000000000e+00
          6.000000000000e+00 0.000000000000e+00 9.000000000000e+00
          6.000000000000e+00 0.000000000000e+00 1.000000000000e+01
          7.000000000000e+00 0.000000000000e+00 0.000000000000e+00
          7.000000000000e+00 0.000000000000e+00 1.000000000000e+00
          7.000000000000e+00 0.000000000000e+00 2.000000000000e+00
          7.000000000000e+00 0.000000000000e+00 3.000000000000e+00
          7.000000000000e+00 0.000000000000e+00 4.000000000000e+00
          7.000000000000e+00 0.000000000000e+00 5.000000000000e+00
          7.000000000000e+00 0.000000000000e+00 6.000000000000e+00
          7.000000000000e+00 0.000000000000e+00 7.000000000000e+00
          7.000000000000e+00 0.000000000000e+00 8.000000000000e+00
          7.000000000000e+00 0.000000000000e+00 9.000000000000e+00
          7.000000000000e+00 0.000000000000e+00 1.000000000000e+01
          8.000000000000e+00 0.000000000000e+00 0.000000000000e+00
          8.000000000000e+00 0.000000000000e+00 1.000000000000e+00
          8.000000000000e+00 0.000000000000e+00 2.000000000000e+00
          8.000000000000e+00 0.000000000000e+00 3.000000000000e+00
          8.000000000000e+00 0.000000000000e+00 4.000000000000e+00
          8.000000000000e+00 0.000000000000e+00 5.000000000000e+00
          8.000000000000e+00 0.000000000000e+00 6.000000000000e+00
          8.000000000000e+00 0.000000000000e+00 7.000000000000e+00
          8.000000000000e+00 0.000000000000e+00 8.000000000000e+00
          8.000000000000e+00 0.000000000000e+00 9.000000000000e+00
          8.000000000000e+00 0.000000000000e+00 1.000000000000e+01
          9.000000000000e+00 0.000000000000e+00 0.000000000000e+00
          9.000000000000e+00 0.000000000000e+00 1.000000000000e+00
          9.000000000000e+00 0.000000000000e+00 2.000000000000e+00
          9.000000000000e+00 0.000000000000e+00 3.000000000000e+00
          9.000000000000e+00 0.000000000000e+00 4.000000000000e+00
          9.000000000000e+00 0.000000000000e+00 5.000000000000e+00
          9.000000000000e+00 0.000000000000e+00 6.000000000000e+00
          9.000000000000e+00 0.000000000000e+00 7.000000000000e+00
          9.000000000000e+00 0.000000000000e+00 8.000000000000e+00
          9.000000000000e+00 0.000000000000e+00 9.000000000000e+00
          9.000000000000e+00 0.000000000000e+00 1.000000000000e+01
          1.000000000000e+01 0.000000000000e+00 0.000000000000e+00
          1.000000000000e+01 0.000000000000e+00 1.000000000000e+00
          1.000000000000e+01 0.000000000000e+00 2.000000000000e+00
          1.000000000000e+01 0.000000000000e+00 3.000000000000e+00
          1.000000000000e+01 0.000000000000e+00 4.000000000000e+00
          1.000000000000e+01 0.000000000000e+00 5.000000000000e+00
          1.000000000000e+01 0.000000000000e+00 6.000000000000e+00
          1.000000000000e+01 0.000000000000e+00 7.000000000000e+00
          1.000000000000e+01 0.000000000000e+00 8.000000000000e+00
          1.000000000000e+01 0.000000000000e+00 9.000000000000e+00
          1.000000000000e+01 0.000000000000e+00 1.000000000000e+01
          1.100000000000e+01 0.000000000000e+00 0.000000000000e+00
          1.100000000000e+01 0.000000000000e+00 1.000000000000e+00
          1.100000000000e+01 0.000000000000e+00 2.000000000000e+00
          1.100000000000e+01 0.000000000000e+00 3.000000000000e+00
          1.100000000000e+01 0.000000000000e+00 4.000000000000e+00
          1.100000000000e+01 0.000000000000e+00 5.000000000000e+00
          1.100000000000e+01 0.000000000000e+00 6.000000000000e+00
          1.100000000000e+01 0.000000000000e+00 7.000000000000e+00
          1.100000000000e+01 0.000000000000e+00 8.000000000000e+00
          1.100000000000e+01 0.000000000000e+00 9.000000000000e+00
          1.100000000000e+01 0.000000000000e+00 1.000000000000e+01
          1.200000000000e+01 0.000000000000e+00 0.000000000000e+00
          1.200000000000e+01 0.000000000000e+00 1.000000000000e+00
          1.200000000000e+01 0.000000000000e+00 2.000000000000e+00
          1.200000000000e+01 0.000000000000e+00 3.000000000000e+00
          1.200000000000e+01 0.000000000000e+00 4.000000000000e+00
          1.200000000000e+01 0.000000000000e+00 5.000000000000e+00
          1.200000000000e+01 0.000000000000e+00 6.000000000000e+00
          1.200000000000e+01 0.000000000000e+00 7.000000000000e+00
          1.200000000000e+01 0.000000000000e+00 8.000000000000e+00
          1.200000000000e+01 0.000000000000e+00 9.000000000000e+00
          1.200000000000e+01 0.000000000000e+00 1.000000000000e+01
          1.300000000000e+01 0.000000000000e+00 0.000000000000e+00
[...]
      <PointData Scalars="PRESSURE1">
        <DataArray type="Float64" Name="PRESSURE1" format="ascii">
          7.848000000000e+04 7.823759465649e+04 6.842768224238e+04 6.867000000000e+04 5.861795211409e+04 5.886000000000e+04 4.880842811929e+04 4.905000000000e+04 3.899916005281e+04 3.924000000000e+04 2.919024652598e+04 2.943000000000e+04 1.938189401733e+04 1.962000000000e+04 9.574584581972e+03 9.810000000000e+03 -2.298618466315e+02 7.025328869135e-89 -1.003412889105e+04 -9.810000000000e+03 -1.984813393256e+04 -1.962000000000e+04 7.799501842216e+04 6.818518717251e+04 5.837570557375e+04 4.856661380482e+04 3.875799340887e+04 2.894999856348e+04 1.914292616537e+04 9.337396301794e+03 -4.656779820830e+02 -1.026849485174e+04 -2.007982397490e+04 7.775211208612e+04 6.794235090244e+04 5.813308138267e+04 4.832434885177e+04 3.851624093535e+04 2.870891041749e+04 1.890261698468e+04 9.097761930234e+03 -7.050734365094e+02 -1.050480787640e+04 -2.031559462830e+04 7.750873684006e+04 6.769903263842e+04 5.788993310384e+04 4.808147901380e+04 3.827374359106e+04 2.846683983148e+04 1.866092385965e+04 8.856178807925e+03 -9.471952589464e+02 -1.074291733921e+04 -2.055249291676e+04 7.726477837643e+04 6.745511858809e+04 5.764614982776e+04 4.783790362581e+04 3.803043079214e+04 2.822379526064e+04 1.841805681083e+04 8.613230833934e+03 -1.190896019703e+03 -1.098034218020e+04 -2.078821391416e+04 7.702014657729e+04 6.721052057054e+04 5.740165077036e+04 4.759356031120e+04 3.778628159630e+04 2.797984310688e+04 1.817424249678e+04 8.369400289355e+03 -1.435096260286e+03 -1.121432315187e+04 -2.101805305392e+04 7.677477254139e+04 6.696517169162e+04 5.715637619140e+04 4.734840535648e+04 3.754128432934e+04 2.773502998791e+04 1.792962358110e+04 8.124960103628e+03 -1.679670363288e+03 -1.142762393442e+04 -2.125163198424e+04 7.652860524632e+04 6.671902199160e+04 5.691027964405e+04 4.710239919538e+04 3.729541081384e+04 2.748934426675e+04 1.768420971230e+04 7.879958685229e+03 -1.924165628272e+03 -1.167542493307e+04 -2.150025878129e+04 7.628160964198e+04 6.647203621037e+04 5.666332476567e+04 4.685550174993e+04 3.704861071235e+04 2.724271091256e+04 1.743787408459e+04 7.634176076676e+03 -2.168695252620e+03 -1.196116139088e+04 -2.176201774936e+04 7.603376681388e+04 6.622419433587e+04 5.641548724358e+04 4.660767775460e+04 3.680082386999e+04 2.699501713574e+04 1.719039670496e+04 7.387179182528e+03 -2.414477960705e+03 -1.221845974395e+04 -2.202579107776e+04 7.578507559321e+04 6.597549409168e+04 5.616676032664e+04 4.635890871390e+04 3.655200465479e+04 2.674615932606e+04 1.694155682064e+04 7.138500100860e+03 -2.662327390527e+03 -1.247186147335e+04 -2.228134565638e+04 7.553555409444e+04 6.572595349112e+04 5.591716083469e+04 4.610920614766e+04 3.630214887930e+04 2.649609541110e+04 1.669123113194e+04 6.887875571978e+03 -2.912798526932e+03 -1.272464030809e+04 -2.253505112245e+04 7.528523939253e+04 6.547561130209e+04 5.566673229372e+04 4.585862031072e+04 3.605131316754e+04 2.624488330268e+04 1.643946600587e+04 6.635312516362e+03 -3.166153088569e+03 -1.297847455387e+04 -2.278911065260e+04 7.503418394875e+04 6.522452375533e+04 5.541554260612e+04 4.560723990204e+04 3.579961865469e+04 2.599269273217e+04 1.618650043880e+04 6.381136941966e+03 -3.422161151741e+03 -1.323372279390e+04 -2.304415878664e+04 7.478244828928e+04 6.497275689667e+04 5.516367531352e+04 4.535518107491e+04 3.554723579515e+04 2.573978295232e+04 1.593274154032e+04 6.125987518748e+03 -3.679880025376e+03 -1.348992085251e+04 -2.329992323990e+04 7.453009053072e+04 6.472037526539e+04 5.491121546430e+04 4.510256754344e+04 3.529435332002e+04 2.548645018166e+04 1.567867095576e+04 5.870710601166e+03 -3.937698114815e+03 -1.374611713211e+04 -2.355570557553e+04 7.427715429665e+04 6.446742866785e+04 5.465823266411e+04 4.484950628851e+04 3.504114042700e+04 2.523296229717e+04 1.542471416556e+04 5.616018389178e+03 -4.193591586902e+03 -1.400142773334e+04 -2.381078992845e+04 7.402365713933e+04 6.421393941836e+04 5.440476456396e+04 4.459606410107e+04 3.478771222423e+04 2.497950745996e+04 1.517114964318e+04 5.362243796444e+03 -4.447403919227e+03 -1.425540851153e+04 -2.406470709811e+04 7.376958168794e+04 6.395989247884e+04 5.415080384824e+04 4.434224904470e+04 3.453410374784e+04 2.472616442758e+04 1.491811274711e+04 5.109473862446e+03 -4.700113174060e+03 -1.450795971455e+04 -2.431727493756e+04 7.351487144181e+04 6.370523056399e+04 5.389629116707e+04 4.408799944795e+04 3.428025325725e+04 2.447288002001e+04 1.466559632112e+04 4.857886446200e+03 -4.951111969232e+03 -1.475909784350e+04 -2.456856026320e+04 7.325943250590e+04 6.344985562751e+04 5.364111575465e+04 4.383318257068e+04 3.402599619317e+04 2.421945060609e+04 1.441336285992e+04 4.607439599604e+03 -5.199770634771e+03 -1.500909999736e+04 -2.481889205722e+04 7.300314170245e+04 6.319363725999e+04 5.338512462425e+04 4.357760477581e+04 3.377107534534e+04 2.396552352223e+04 1.416091732971e+04 4.357209034447e+03 -5.447822746745e+03 -1.525863604867e+04 -2.506890841550e+04 7.274586045974e+04 6.293642743946e+04 5.312813996594e+04 4.332103359994e+04 3.351517015256e+04 2.371064134221e+04 1.390757434888e+04 4.106137324326e+03 -5.696401957019e+03 -1.550871059405e+04 -2.531948198666e+04 7.248745279528e+04 6.267807989066e+04 5.286998281741e+04 4.306322932008e+04 3.325794179821e+04 2.345431151665e+04 1.365261672408e+04 3.853237997397e+03 -5.946506015831e+03 -1.576032661042e+04 -2.557160097153e+04 7.222780475078e+04 6.241847124573e+04 5.261049965092e+04 4.280398142655e+04 3.299908514911e+04 2.319608187862e+04 1.339538073952e+04 3.597568645063e+03 -6.199153429866e+03 -1.601449344823e+04 -2.582626448018e+04 7.196684199628e+04 6.215752047096e+04 5.234958759358e+04 4.254314444241e+04 3.273838064076e+04 2.293561016959e+04 1.313532829106e+04 3.338290693695e+03 -6.455439985396e+03 -1.627221865999e+04 -2.608443743262e+04 7.170454218466e+04 6.189520280072e+04 5.208721354500e+04 4.228066716641e+04 3.247574036696e+04 2.267273452642e+04 1.287214976432e+04 3.074809911267e+03 -6.716586639013e+03 -1.653443689980e+04 -2.634693696475e+04 7.144093918016e+04 6.163155487875e+04 5.182342255637e+04 4.201660845079e+04 3.221123973545e+04 2.240753780387e+04 1.260588943936e+04 2.806997279289e+03 -6.983918172959e+03 -1.680178982212e+04 -2.661416752156e+04 7.117611760743e+04 6.136666914515e+04 5.155833201051e+04 4.175113245363e+04 3.194511977204e+04 2.214037734348e+04 1.233705148298e+04 2.535457403227e+03 -7.258446364557e+03 -1.707412374961e+04 -2.688570226467e+04 7.091019816065e+04 6.110067773543e+04 5.129211103187e+04 4.148447983214e+04 3.167774623989e+04 2.187183631709e+04 1.206659795720e+04 2.261718320314e+03 -7.539163796347e+03 -1.734982139773e+04 -2.715998065687e+04 7.064331631578e+04 6.083372880044e+04 5.102494881160e+04 4.121691946607e+04 3.140952887148e+04 2.160257586324e+04 1.179569300645e+04 1.988073920794e+03 -7.820627945268e+03 -1.762572629117e+04 -2.743480011330e+04 7.037559877341e+04 6.056596026024e+04 5.075701931455e+04 4.094869405205e+04 3.114082757503e+04 2.133315162638e+04 1.152522531245e+04 1.716364734128e+03 -8.093637395137e+03 -1.789954584704e+04 -2.770823317762e+04 7.010714247489e+04 6.029747663766e+04 5.048845095360e+04 4.067997553473e+04 3.087188188936e+04 2.106389329691e+04 1.125558719612e+04 1.446462855586e+03 -8.363345478415e+03 -1.817052465588e+04 -2.797947171948e+04 6.983800019676e+04 6.002833351657e+04 5.021930761127e+04 4.041084070172e+04 3.060278218031e+04 2.079489014775e+04 1.098680044790e+04 1.177909147896e+03 -8.631953699432e+03 -1.843938964249e+04 -2.824862028741e+04 6.956817493017e+04 5.975853193031e+04 4.994958339795e+04 4.014126821758e+04 3.033347582898e+04 2.052603182550e+04 1.071866851690e+04 9.109605965961e+02 -8.898253974037e+03 -1.870671465774e+04 -2.851623266752e+04 6.929762318046e+04 5.948802258520e+04 4.967921002411e+04 3.987115259686e+04 3.006379339943e+04 2.025704756274e+04 1.045079651999e+04 6.449118868601e+02 -9.163280273061e+03 -1.897304573435e+04 -2.878294098360e+04 6.902626555793e+04 5.921671796229e+04 4.940807369839e+04 3.960032980427e+04 2.979348640419e+04 1.998755495535e+04 1.018257305157e+04 3.786237644219e+02 -9.428345580504e+03 -1.923917667871e+04 -2.904942105962e+04 6.875400183389e+04 5.894450917707e+04 4.913603764132e+04 3.932860979600e+04 2.952227487391e+04 1.971712824500e+04 9.913339585962e+03 1.111818922313e+02 -9.694230880411e+03 -1.950583374910e+04 -2.931631516906e+04 6.848072704505e+04 5.867128389469e+04 4.886296578302e+04 3.905581101486e+04 2.924989914801e+04 1.944537962359e+04 9.642518317447e+03 -1.582431618955e+02 -9.961609942211e+03 -1.977350875501e+04 -2.958406192721e+04 6.820634526221e+04 5.839694156041e+04 4.858874285457e+04 3.878179032528e+04 2.897616769680e+04 1.917203160868e+04 9.369677512935e+03 -4.303487669214e+02 -1.023089498700e+04 -2.004237185528e+04 -2.985275152983e+04 6.793077837730e+04 5.812140288255e+04 4.831328638390e+04 3.850646099189e+04 2.870098872923e+04 1.889698013283e+04 9.094641708647e+03 -7.055393588858e+02 -1.050204301779e+04 -2.031208440757e+04 -3.012202027564e+04 6.765396873440e+04 5.784461206795e+04 4.803654781969e+04 3.822979256885e+04 2.842437155684e+04 1.862031495266e+04 8.817647296869e+03 -9.836297089775e+02 -1.077381372579e+04 -2.058171828034e+04 -3.039106158890e+04 6.737587639563e+04 5.756653260065e+04 4.775850334944e+04 3.795179171235e+04 2.814639000748e+04 1.834225335944e+04 8.539246829929e+03 -1.263116184972e+03 -1.104349646812e+04 -2.084964030077e+04 -3.065958645816e+04 6.709647369878e+04 5.728713969735e+04 4.747913904197e+04 3.767247128675e+04 2.786711806784e+04 1.806300655516e+04 8.259931608756e+03 -1.542934805596e+03 -1.130020330910e+04 -2.111567033840e+04 -3.093157223733e+04 6.681574073825e+04 5.700641393020e+04 4.719843782390e+04 3.739182193515e+04 2.758656835587e+04 1.778264133057e+04 7.979902881395e+03 -1.822796001511e+03 -1.153414346030e+04 -2.139564968867e+04 -3.121107078476e+04 6.653366488881e+04 5.672434003164e+04 4.691637552093e+04 3.710980114723e+04 2.730466423672e+04 1.750102228758e+04 7.698916651243e+03 -2.102279093207e+03 -1.188491590373e+04 -2.168673251083e+04 -3.150088896492e+04 6.625024548857e+04 5.644091247999e+04 4.663292938247e+04 3.682634743694e+04 2.702126448590e+04 1.721784691454e+04 7.416373444442e+03 -2.382989485817e+03 -1.218361154668e+04 -2.198769679799e+04 -3.179588293960e+04 6.596550201715e+04 5.615614598969e+04 4.634809652064e+04 3.654141593271e+04 2.673623226896e+04 1.693278566251e+04 7.131516278991e+03 -2.666574714652e+03 -1.247496522554e+04 -2.228273864164e+04 -3.209183865094e+04 6.567948173443e+04 5.587008598744e+04 4.606191430682e+04 3.625502064914e+04 2.644952241087e+04 1.664565465915e+04 6.843874837278e+03 -2.954069825424e+03 -1.276599968790e+04 -2.257604110416e+04 -3.238587318031e+04 6.539226190014e+04 5.558281300196e+04 4.577447242873e+04 3.596726394430e+04 2.616124738009e+04 1.635655879010e+04 6.553499644467e+03 -3.245952161029e+03 -1.305849098888e+04 -2.286916484181e+04 -3.267925761626e+04 6.510394288397e+04 5.529443630199e+04 4.548590847216e+04 3.567833676602e+04 2.587168914065e+04 1.606593268052e+04 6.261049567846e+03 -3.541626930264e+03 -1.335247682975e+04 -2.316259653064e+04 -3.297258279652e+04 6.481463131849e+04 5.500507562266e+04 4.519638478780e+04 3.538848492387e+04 2.558124305057e+04 1.577444558975e+04 5.967728280718e+03 -3.838958132727e+03 -1.364697110675e+04 -2.345605394583e+04 -3.326577411931e+04 6.452441585923e+04 5.471483397772e+04 4.490605137997e+04 3.509795085802e+04 2.529031493578e+04 1.548278951003e+04 5.674817551923e+03 -4.134451273204e+03 -1.394066309511e+04 -2.374894211639e+04 -3.355842497217e+04 6.423334086006e+04 5.442376774730e+04 4.461500424627e+04 3.480690887617e+04 2.499921466378e+04 1.519148201407e+04 5.383069993733e+03 -4.426417266208e+03 -1.423276353908e+04 -2.404074738066e+04 -3.385013877221e+04 6.394138453748e+04 5.413186151690e+04 4.432324960078e+04 3.451541001334e+04 2.470807531141e+04 1.490078579147e+04 5.092788354473e+03 -4.716599121262e+03 -1.452301419939e+04 -2.433127386040e+04 -3.414075849054e+04 6.364844780037e+04 5.383901455553e+04 4.403068278747e+04 3.422334706329e+04 2.441679755759e+04 1.461065651163e+04 4.804201925132e+03 -5.004021354259e+03 -1.481158645228e+04 -2.462070462088e+04 -3.443047742813e+04 6.335435809662e+04 5.354504381200e+04 4.373708829268e+04 3.393044744530e+04 2.412502549781e+04 1.432063282646e+04 4.516944828756e+03 -5.288412954285e+03 -1.509904403608e+04 -2.490962147164e+04 -3.471986102859e+04 6.305888972665e+04 5.324970525546e+04 4.344216398121e+04 3.363630144127e+04 2.383217294109e+04 1.402984819585e+04 4.229415153821e+03 -5.572514321022e+03 -1.538651535292e+04 -2.519897576130e+04 -3.500980709294e+04 6.276179850795e+04 5.295273153687e+04 4.314556808974e+04 3.334042597646e+04 2.353751930595e+04 1.373718283964e+04 3.939892173288e+03 -5.858044385381e+03 -1.567553287639e+04 -2.548997701720e+04 -3.530144721461e+04 6.246286499252e+04 5.265387987991e+04 4.284698186150e+04 3.304235478534e+04 2.324034540564e+04 1.344152286232e+04 3.646746679165e+03 -6.146696358268e+03 -1.596760629371e+04 -2.578393352124e+04 -3.559599802446e+04 6.216193738877e+04 5.235298060495e+04 4.254617605695e+04 3.274173796191e+04 2.294008362463e+04 1.314193588889e+04 3.348476981344e+03 -6.440330174336e+03 -1.626426342804e+04 -2.608207258870e+04 -3.589457072679e+04 6.185896381506e+04 5.204997466646e+04 4.224306617842e+04 3.243843251724e+04 2.263646326564e+04 1.283787631010e+04 3.043971982288e+03 -6.741171957131e+03 -1.656697483807e+04 -2.638532169272e+04 -3.619791218456e+04 6.155400448049e+04 5.174492905421e+04 4.193773975279e+04 3.213255881291e+04 2.232963448477e+04 1.252944652472e+04 2.732997728532e+03 -7.051936980681e+03 -1.687677173574e+04 -2.669393014708e+04 -3.650607789273e+04 6.124721850180e+04 5.143802304289e+04 4.163044199577e+04 3.182449175449e+04 2.202020055425e+04 1.221760613887e+04 2.416821733341e+03 -7.374670547436e+03 -1.719317163887e+04 -2.700699608380e+04 -3.681821511011e+04 6.093882688918e+04 5.112950622528e+04 4.132151744360e+04 3.151476988008e+04 2.170907111185e+04 1.190402572638e+04 2.098651247106e+03 -7.705958820547e+03 -1.751256020752e+04 -2.732254858799e+04 -3.713269335037e+04 6.062906066452e+04 5.081963870540e+04 4.101132255909e+04 3.120394538584e+04 2.139716823584e+04 1.159036121911e+04 1.782325570665e+03 -8.028054575153e+03 -1.783079568511e+04 -2.763828572112e+04 -3.744767090700e+04 6.031810797863e+04 5.050863029351e+04 4.070013758941e+04 3.089243494968e+04 2.108514131721e+04 1.127759629666e+04 1.468910247195e+03 -8.340693550257e+03 -1.814563788089e+04 -2.795262613725e+04 -3.776175301285e+04 6.000607415153e+04 5.019659550763e+04 4.038810519188e+04 3.058042812227e+04 2.077323119594e+04 1.096596513242e+04 1.157667454949e+03 -8.652127132478e+03 -1.845742832885e+04 -2.826509191677e+04 -3.807434564541e+04 5.969296388116e+04 4.988353487513e+04 4.007521009981e+04 3.026787009763e+04 2.046129453667e+04 1.065511911506e+04 8.487608957061e+02 -8.959879349474e+03 -1.876736947509e+04 -2.857600118851e+04 -3.838557366529e+04 5.937868775315e+04 4.956934418957e+04 3.976129822630e+04 2.995450458813e+04 2.014888882006e+04 1.034434922190e+04 5.407956628561e+02 -9.266204541760e+03 -1.907618317662e+04 -2.888604016621e+04 -3.869597713385e+04 5.906308844533e+04 4.925384578471e+04 3.944612445101e+04 2.963995172445e+04 1.983539874917e+04 1.003262252750e+04 2.319134682655e+02 -9.572988600427e+03 -1.938501904287e+04 -2.919596304856e+04 -3.900623459886e+04 5.874597739826e+04 4.893683123136e+04 3.912941458278e+04 2.932380528078e+04 1.952017909741e+04 9.718888733137e+03 -7.943353272639e+01 -9.881484209902e+03 -1.969482282104e+04 -2.950646577835e+04 -3.931696167070e+04 5.842717087694e+04 4.861810291585e+04 3.881092539600e+04 2.900572987817e+04 1.920271836727e+04 9.402317518843e+03 -3.946063306069e+02 -1.019254617469e+04 -2.000611982271e+04 -2.981799589076e+04 -3.962860933133e+04 5.810651555857e+04 4.829750288215e+04 3.849048540075e+04 2.868553099625e+04 1.888277990417e+04 9.082515529434e+03 -7.145016173213e+02 -1.050617982284e+04 -2.031873097214e+04 -3.013073291182e+04 -3.994152381802e+04 5.778389820512e+04 4.797492189527e+04 3.816800280876e+04 2.836316643359e+04 1.856043978133e+04 8.759820728508e+03 -1.038844116702e+03 -1.081994848547e+04 -2.063154226035e+04 -3.044478240837e+04 -4.025655879090e+04 5.745924080516e+04 4.765028986122e+04 3.784343964044e+04 2.803868536046e+04 1.823596757663e+04 8.435051721602e+03 -1.364962608733e+03 -1.112819906238e+04 -2.094150953226e+04 -3.076225488740e+04 -4.057540609406e+04 5.713248926418e+04 4.732355772950e+04 3.751676854131e+04 2.771212449350e+04 1.790957360822e+04 8.108878485891e+03 -1.691526660303e+03 -1.139744007937e+04 -2.126176685888e+04 -3.108614221572e+04 -4.090033093865e+04 5.680360669459e+04 4.699468571612e+04 3.718794131295e+04 2.738342421640e+04 1.758119569166e+04 7.781261319694e+03 -2.017624147896e+03 -1.176318865604e+04 -2.159641132167e+04 -3.141898911608e+04 -4.123246897678e+04 5.647257910840e+04 4.666364914646e+04 3.685689393157e+04 2.705242672878e+04 1.725046942328e+04 7.451407257563e+03 -2.344609989313e+03 -1.213995064447e+04 -2.194472370383e+04 -3.175908929885e+04 -4.157097961427e+04 5.613943267694e+04 4.633046188525e+04 3.652359184588e+04 2.671897060079e+04 1.691692680778e+04 7.118142763642e+03 -2.675791738096e+03 -1.248442005353e+04 -2.229283554529e+04 -3.210290499462e+04 -4.191340111827e+04 5.580425211571e+04 4.599520406398e+04 3.618809219303e+04 2.638303621723e+04 1.658032765888e+04 6.780633812125e+03 -3.013262290042e+03 -1.282680743576e+04 -2.263737908133e+04 -3.244740914989e+04 -4.225742244518e+04 5.546718492177e+04 4.565803371428e+04 3.585058315900e+04 2.604485605783e+04 1.624094141473e+04 6.439113596959e+03 -3.357910830205e+03 -1.317108456339e+04 -2.298177538417e+04 -3.279179552394e+04 -4.260175910629e+04 5.512841961448e+04 4.531916604373e+04 3.551136760254e+04 2.570490937938e+04 1.589959083795e+04 6.095063757506e+03 -3.707938608310e+03 -1.351710046835e+04 -2.332650240890e+04 -3.313612444173e+04 -4.294599217401e+04 5.478813665418e+04 4.497881791195e+04 3.517078477163e+04 2.536378978251e+04 1.555736140893e+04 5.750691305766e+03 -4.057643580134e+03 -1.386292527157e+04 -2.367102310006e+04 -3.348019051802e+04 -4.328995731842e+04 5.444644335437e+04 4.463713117665e+04 3.482909407806e+04 2.502200219825e+04 1.521520798335e+04 5.407636026737e+03 -4.401605473512e+03 -1.420694712737e+04 -2.401464140587e+04 -3.382375315869e+04 -4.363353013642e+04 5.410331316113e+04 4.429409942122e+04 3.448636006069e+04 2.467976730158e+04 1.487365219926e+04 5.066763643791e+03 -4.742250341579e+03 -1.454839724986e+04 -2.435709059632e+04 -3.416680422504e+04 -4.397678796939e+04 5.375855175417e+04 4.394952449240e+04 3.414237729229e+04 2.433688452509e+04 1.453256007566e+04 4.728395839665e+03 -5.078212261169e+03 -1.488770830004e+04 -2.469872249300e+04 -3.450975081066e+04 -4.432015722993e+04 5.341180702127e+04 4.360302301189e+04 3.379666421654e+04 2.399269530897e+04 1.419099974574e+04 4.391322041175e+03 -5.410416641324e+03 -1.522604069910e+04 -2.504053611795e+04 -3.485345194506e+04 -4.466445590854e+04 5.306262860432e+04 4.325409040154e+04 3.344854031261e+04 2.364617838756e+04 1.384735791626e+04 4.052603871532e+03 -5.743248941422e+03 -1.556543850653e+04 -2.538404233132e+04 -3.519913385785e+04 -4.501081681126e+04 5.271056781572e+04 4.290221358537e+04 3.309727864457e+04 2.329617894449e+04 1.349971201128e+04 3.709173019340e+03 -6.079686614429e+03 -1.590847511635e+04 -2.573106159031e+04 -3.554820081738e+04 -4.536050534095e+04 5.235529362296e+04 4.254700616235e+04 3.274230311894e+04 2.294171824368e+04 1.314634292104e+04 3.358142786375e+03 -6.423076355130e+03 -1.625780104881e+04 -2.608344554281e+04 -3.590195550141e+04 -4.571464556312e+04 5.199668976478e+04 4.218832595386e+04 3.238337679259e+04 2.258232662464e+04 1.278622689187e+04 2.997264846662e+03 -6.777817015730e+03 -1.661618341281e+04 -2.644266274284e+04 -3.626122411259e+04 -4.607389830127e+04 5.163489808896e+04 4.182633108696e+04 3.202070899332e+04 2.221829415704e+04 1.241964187866e+04 