 TITLE = "Profiles along polylines"
 VARIABLES = "DIST" "PRESSURE1" 
 ZONE T="TIME=0.000000000000e+00"
0.000000000000e+00 6.376500000000e+04 
1.000000000000e+00 6.376500000000e+04 
2.000000000000e+00 6.376500000000e+04 
3.000000000000e+00 6.376500000000e+04 
4.000000000000e+00 6.376500000000e+04 
5.000000000000e+00 6.376500000000e+04 
6.000000000000e+00 6.376500000000e+04 
7.000000000000e+00 6.376500000000e+04 
8.000000000000e+00 6.376500000000e+04 
9.000000000000e+00 6.376500000000e+04 
1.000000000000e+01 6.376500000000e+04 
1.100000000000e+01 6.376500000000e+04 
1.200000000000e+01 6.376500000000e+04 
1.300000000000e+01 6.376500000000e+04 
1.400000000000e+01 6.376500000000e+04 
1.500000000000e+01 6.376500000000e+04 
1.600000000000e+01 6.376500000000e+04 
1.700000000000e+01 6.376500000000e+04 
1.800000000000e+01 6.376500000000e+04 
1.900000000000e+01 6.376500000000e+04 
2.000000000000e+01 6.376500000000e+04 
2.100000000000e+01 6.376500000000e+04 
2.200000000000e+01 6.376500000000e+04 
2.300000000000e+01 6.376500000000e+04 
2.400000000000e+01 6.376500000000e+04 
2.500000000000e+01 6.376500000000e+04 
2.600000000000e+01 6.376500000000e+04 
2.700000000000e+01 6.376500000000e+04 
2.800000000000e+01 6.376500000000e+04 
2.900000000000e+01 6.376500000000e+04 
3.000000000000e+01 6.376500000000e+04 
3.100000000000e+01 6.376500000000e+04 
3.200000000000e+01 6.376500000000e+04 
3.300000000000e+01 6.376500000000e+04 
3.400000000000e+01 6.376500000000e+04 
3.500000000000e+01 6.376500000000e+04 
3.600000000000e+01 6.376500000000e+04 
3.700000000000e+01 6.376500000000e+04 
3.800000000000e+01 6.376500000000e+04 
3.900000000000e+01 6.376500000000e+04 
4.000000000000e+01 6.376500000000e+04 
4.100000000000e+01 6.376500000000e+04 
4.200000000000e+01 6.376500000000e+04 
4.300000000000e+01 6.376500000000e+04 
4.400000000000e+01 6.376500000000e+04 
4.500000000000e+01 6.376500000000e+04 
4.600000000000e+01 6.376500000000e+04 
4.700000000000e+01 6.376500000000e+04 
4.800000000000e+01 6.376500000000e+04 
4.900000000000e+01 6.376500000000e+04 
5.000000000000e+01 6.376500000000e+04 
5.100000000000e+01 6.376500000000e+04 
5.200000000000e+01 6.376500000000e+04 
5.300000000000e+01 6.376500000000e+04 
5.400000000000e+01 6.376500000000e+04 
5.500000000000e+01 6.376500000000e+04 
5.600000000000e+01 6.376500000000e+04 
5.700000000000e+01 6.376500000000e+04 
5.800000000000e+01 6.376500000000e+04 
5.900000000000e+01 6.376500000000e+04 
6.000000000000e+01 6.376500000000e+04 
6.100000000000e+01 6.376500000000e+04 
6.200000000000e+01 6.376500000000e+04 
6.300000000000e+01 6.376500000000e+04 
6.400000000000e+01 6.376500000000e+04 
6.500000000000e+01 6.376500000000e+04 
6.600000000000e+01 6.376500000000e+04 
6.700000000000e+01 6.376500000000e+04 
6.800000000000e+01 6.376500000000e+04 
6.900000000000e+01 6.376500000000e+04 
7.000000000000e+01 6.376500000000e+04 
7.100000000000e+01 6.376500000000e+04 
7.200000000000e+01 6.376500000000e+04 
7.300000000000e+01 6.376500000000e+04 
7.400000000000e+01 6.376500000000e+04 
7.500000000000e+01 6.376500000000e+04 
7.600000000000e+01 6.376500000000e+04 
7.700000000000e+01 6.376500000000e+04 
7.800000000000e+01 6.376500000000e+04 
7.900000000000e+01 6.376500000000e+04 
8.000000000000e+01 6.376500000000e+04 
8.100000000000e+01 6.376500000000e+04 
8.200000000000e+01 6.376500000000e+04 
8.300000000000e+01 6.376500000000e+04 
8.400000000000e+01 6.376500000000e+04 
8.500000000000e+01 6.376500000000e+04 
8.600000000000e+01 6.376500000000e+04 
8.700000000000e+01 6.376500000000e+04 
8.800000000000e+01 6.376500000000e+04 
8.900000000000e+01 6.376500000000e+04 
9.000000000000e+01 6.376500000000e+04 
9.100000000000e+01 6.376500000000e+04 
9.200000000000e+01 6.376500000000e+04 
9.300000000000e+01 6.376500000000e+04 
9.400000000000e+01 6.376500000000e+04 
9.500000000000e+01 6.376500000000e+04 
9.600000000000e+01 6.376500000000e+04 
9.700000000000e+01 6.376500000000e+04 
9.800000000000e+01 6.376500000000e+04 
9.900000000000e+01 6.376500000000e+04 
1.000000000000e+02 6.376500000000e+04 
 TITLE = "Profiles along polylines"
 VARIABLES = "DIST" "PRESSURE1" 
 ZONE T="TIME=1.000000000000e+00"
0.000000000000e+00 7.848000000000e+04 
1.000000000000e+00 7.823759465589e+04 
2.000000000000e+00 7.799501842096e+04 
3.000000000000e+00 7.775211208432e+04 
4.000000000000e+00 7.750873683765e+04 
5.000000000000e+00 7.726477837341e+04 
6.000000000000e+00 7.702014657366e+04 
7.000000000000e+00 7.677477253715e+04 
8.000000000000e+00 7.652860524147e+04 
9.000000000000e+00 7.628160963653e+04 
1.000000000000e+01 7.603376680782e+04 
1.100000000000e+01 7.578507558654e+04 
1.200000000000e+01 7.553555408717e+04 
1.300000000000e+01 7.528523938467e+04 
1.400000000000e+01 7.503418394029e+04 
1.500000000000e+01 7.478244828021e+04 
1.600000000000e+01 7.453009052104e+04 
1.700000000000e+01 7.427715428637e+04 
1.800000000000e+01 7.402365712843e+04 
1.900000000000e+01 7.376958167642e+04 
2.000000000000e+01 7.351487142970e+04 
2.100000000000e+01 7.325943249321e+04 
2.200000000000e+01 7.300314168923e+04 
2.300000000000e+01 7.274586044606e+04 
2.400000000000e+01 7.248745278121e+04 
2.500000000000e+01 7.222780473642e+04 
2.600000000000e+01 7.196684198171e+04 
2.700000000000e+01 7.170454216994e+04 
2.800000000000e+01 7.144093916531e+04 
2.900000000000e+01 7.117611759245e+04 
3.000000000000e+01 7.091019814550e+04 
3.100000000000e+01 7.064331630039e+04 
3.200000000000e+01 7.037559875773e+04 
3.300000000000e+01 7.010714245886e+04 
3.400000000000e+01 6.983800018037e+04 
3.500000000000e+01 6.956817491342e+04 
3.600000000000e+01 6.929762316339e+04 
3.700000000000e+01 6.902626554060e+04 
3.800000000000e+01 6.875400181639e+04 
3.900000000000e+01 6.848072702748e+04 
4.000000000000e+01 6.820634524466e+04 
4.100000000000e+01 6.793077835986e+04 
4.200000000000e+01 6.765396871715e+04 
4.300000000000e+01 6.737587637864e+04 
4.400000000000e+01 6.709647368212e+04 
4.500000000000e+01 6.681574072197e+04 
4.600000000000e+01 6.653366487298e+04 
4.700000000000e+01 6.625024547323e+04 
4.800000000000e+01 6.596550200230e+04 
4.900000000000e+01 6.567948172004e+04 
5.000000000000e+01 6.539226188615e+04 
5.100000000000e+01 6.510394287027e+04 
5.200000000000e+01 6.481463130497e+04 
5.300000000000e+01 6.452441584584e+04 
5.400000000000e+01 6.423334084679e+04 
5.500000000000e+01 6.394138452443e+04 
5.600000000000e+01 6.364844778773e+04 
5.700000000000e+01 6.335435808470e+04 
5.800000000000e+01 6.305888971582e+04 
5.900000000000e+01 6.276179849859e+04 
6.000000000000e+01 6.246286498493e+04 
6.100000000000e+01 6.216193738313e+04 
6.200000000000e+01 6.185896381135e+04 
6.300000000000e+01 6.155400447852e+04 
6.400000000000e+01 6.124721850121e+04 
6.500000000000e+01 6.093882688957e+04 
6.600000000000e+01 6.062906066552e+04 
6.700000000000e+01 6.031810797996e+04 
6.800000000000e+01 6.000607415303e+04 
6.900000000000e+01 5.969296388281e+04 
7.000000000000e+01 5.937868775505e+04 
7.100000000000e+01 5.906308844762e+04 
7.200000000000e+01 5.874597740110e+04 
7.300000000000e+01 5.842717088048e+04 
7.400000000000e+01 5.810651556290e+04 
7.500000000000e+01 5.778389821027e+04 
7.600000000000e+01 5.745924081112e+04 
7.700000000000e+01 5.713248927094e+04 
7.800000000000e+01 5.680360670209e+04 
7.900000000000e+01 5.647257911655e+04 
8.000000000000e+01 5.613943268561e+04 
8.100000000000e+01 5.580425212473e+04 
8.200000000000e+01 5.546718493090e+04 
8.300000000000e+01 5.512841962352e+04 
8.400000000000e+01 5.478813666296e+04 
8.500000000000e+01 5.444644336280e+04 
8.600000000000e+01 5.410331316926e+04 
8.700000000000e+01 5.375855176215e+04 
8.800000000000e+01 5.341180702929e+04 
8.900000000000e+01 5.306262861259e+04 
9.000000000000e+01 5.271056782431e+04 
9.100000000000e+01 5.235529363177e+04 
9.200000000000e+01 5.199668977357e+04 
9.300000000000e+01 5.163489809737e+04 
9.400000000000e+01 5.127028872743e+04 
9.500000000000e+01 5.090336691047e+04 
9.600000000000e+01 5.053465703077e+04 
9.700000000000e+01 5.016461679577e+04 
9.800000000000e+01 4.979361609995e+04 
9.900000000000e+01 4.942197254759e+04 
1.000000000000e+02 4.905000000000e+04 
 ZONE T="TIME=2.000000000000e+00"
0.000000000000e+00 7.848000000000e+04 
1.000000000000e+00 7.823759465649e+04 
2.000000000000e+00 7.799501842216e+04 
3.000000000000e+00 7.775211208612e+04 
4.000000000000e+00 7.750873684006e+04 
5.000000000000e+00 7.726477837643e+04 
6.000000000000e+00 7.702014657729e+04 
7.000000000000e+00 7.677477254139e+04 
8.000000000000e+00 7.652860524632e+04 
9.000000000000e+00 7.628160964198e+04 
1.000000000000e+01 7.603376681388e+04 
1.100000000000e+01 7.578507559321e+04 
1.200000000000e+01 7.553555409444e+04 
1.300000000000e+01 7.528523939253e+04 
1.400000000000e+01 7.503418394875e+04 
1.500000000000e+01 7.478244828928e+04 
1.600000000000e+01 7.453009053072e+04 
1.700000000000e+01 7.427715429665e+04 
1.800000000000e+01 7.402365713933e+04 
1.900000000000e+01 7.376958168794e+04 
2.000000000000e+01 7.351487144181e+04 
2.100000000000e+01 7.325943250590e+04 
2.200000000000e+01 7.300314170245e+04 
2.300000000000e+01 7.274586045974e+04 
2.400000000000e+01 7.248745279528e+04 
2.500000000000e+01 7.222780475078e+04 
2.600000000000e+01 7.196684199628e+04 
2.700000000000e+01 7.170454218466e+04 
2.800000000000e+01 7.144093918016e+04 
2.900000000000e+01 7.117611760743e+04 
3.000000000000e+01 7.091019816065e+04 
3.100000000000e+01 7.064331631578e+04 
3.200000000000e+01 7.037559877341e+04 
3.300000000000e+01 7.010714247489e+04 
3.400000000000e+01 6.983800019676e+04 
3.500000000000e+01 6.956817493017e+04 
3.600000000000e+01 6.929762318046e+04 
3.700000000000e+01 6.902626555793e+04 
3.800000000000e+01 6.875400183389e+04 
3.900000000000e+01 6.848072704505e+04 
4.000000000000e+01 6.820634526221e+04 
4.100000000000e+01 6.793077837730e+04 
4.200000000000e+01 6.765396873440e+04 
4.300000000000e+01 6.737587639563e+04 
4.400000000000e+01 6.709647369878e+04 
4.500000000000e+01 6.681574073825e+04 
4.600000000000e+01 6.653366488881e+04 
4.700000000000e+01 6.625024548857e+04 
4.800000000000e+01 6.596550201715e+04 
4.900000000000e+01 6.567948173443e+04 
5.000000000000e+01 6.539226190014e+04 
5.100000000000e+01 6.510394288397e+04 
5.200000000000e+01 6.481463131849e+04 
5.300000000000e+01 6.452441585923e+04 
5.400000000000e+01 6.423334086006e+04 
5.500000000000e+01 6.394138453748e+04 
5.600000000000e+01 6.364844780037e+04 
5.700000000000e+01 6.335435809662e+04 
5.800000000000e+01 6.305888972665e+04 
5.900000000000e+01 6.276179850795e+04 
6.000000000000e+01 6.246286499252e+04 
6.100000000000e+01 6.216193738877e+04 
6.200000000000e+01 6.185896381506e+04 
6.300000000000e+01 6.155400448049e+04 
6.400000000000e+01 6.124721850180e+04 
6.500000000000e+01 6.093882688918e+04 
6.600000000000e+01 6.062906066452e+04 
6.700000000000e+01 6.031810797863e+04 
6.800000000000e+01 6.000607415153e+04 
6.900000000000e+01 5.969296388116e+04 
7.000000000000e+01 5.937868775315e+04 
7.100000000000e+01 5.906308844533e+04 
7.200000000000e+01 5.874597739826e+04 
7.300000000000e+01 5.842717087694e+04 
7.400000000000e+01 5.810651555857e+04 
7.500000000000e+01 5.778389820512e+04 
7.600000000000e+01 5.745924080516e+04 
7.700000000000e+01 5.713248926418e+04 
7.800000000000e+01 5.680360669459e+04 
7.900000000000e+01 5.647257910840e+04 
8.000000000000e+01 5.613943267694e+04 
8.100000000000e+01 5.580425211571e+04 
8.200000000000e+01 5.546718492177e+04 
8.300000000000e+01 5.512841961448e+04 
8.400000000000e+01 5.478813665418e+04 
8.500000000000e+01 5.444644335437e+04 
8.600000000000e+01 5.410331316113e+04 
8.700000000000e+01 5.375855175417e+04 
8.800000000000e+01 5.341180702127e+04 
8.900000000000e+01 5.306262860432e+04 
9.000000000000e+01 5.271056781572e+04 
9.100000000000e+01 5.235529362296e+04 
9.200000000000e+01 5.199668976478e+04 
9.300000000000e+01 5.163489808896e+04 
9.400000000000e+01 5.127028871978e+04 
9.500000000000e+01 5.090336690384e+04 
9.600000000000e+01 5.053465702535e+04 
9.700000000000e+01 5.016461679167e+04 
9.800000000000e+01 4.979361609721e+04 
9.900000000000e+01 4.942197254622e+04 
1.000000000000e+02 4.905000000000e+04 
