# vtk DataFile Version 3.0
Unstructured Grid from OpenGeoSys
ASCII
DATASET UNSTRUCTURED_GRID
FIELD TimesAndCycles 2
TIME 1 1 double
4.000000000000e-01
CYLCE 1 1 long
80
POINTS 41 double
0.000000000000e+00 0.000000000000e+00 0.000000000000e+00
2.500000000000e-02 0.000000000000e+00 0.000000000000e+00
5.000000000000e-02 0.000000000000e+00 0.000000000000e+00
7.500000000000e-02 0.000000000000e+00 0.000000000000e+00
1.000000000000e-01 0.000000000000e+00 0.000000000000e+00
1.250000000000e-01 0.000000000000e+00 0.000000000000e+00
1.500000000000e-01 0.000000000000e+00 0.000000000000e+00
1.750000000000e-01 0.000000000000e+00 0.000000000000e+00
2.000000000000e-01 0.000000000000e+00 0.000000000000e+00
2.250000000000e-01 0.000000000000e+00 0.000000000000e+00
2.500000000000e-01 0.000000000000e+00 0.000000000000e+00
2.750000000000e-01 0.000000000000e+00 0.000000000000e+00
3.000000000000e-01 0.000000000000e+00 0.000000000000e+00
3.250000000000e-01 0.000000000000e+00 0.000000000000e+00
3.500000000000e-01 0.000000000000e+00 0.000000000000e+00
3.750000000000e-01 0.000000000000e+00 0.000000000000e+00
4.000000000000e-01 0.000000000000e+00 0.000000000000e+00
4.250000000000e-01 0.000000000000e+00 0.000000000000e+00
4.500000000000e-01 0.000000000000e+00 0.000000000000e+00
4.750000000000e-01 0.000000000000e+00 0.000000000000e+00
5.000000000000e-01 0.000000000000e+00 0.000000000000e+00
5.250000000000e-01 0.000000000000e+00 0.000000000000e+00
5.500000000000e-01 0.000000000000e+00 0.000000000000e+00
5.750000000000e-01 0.000000000000e+00 0.000000000000e+00
6.000000000000e-01 0.000000000000e+00 0.000000000000e+00
6.250000000000e-01 0.000000000000e+00 0.000000000000e+00
6.500000000000e-01 0.000000000000e+00 0.000000000000e+00
6.750000000000e-01 0.000000000000e+00 0.000000000000e+00
7.000000000000e-01 0.000000000000e+00 0.000000000000e+00
7.250000000000e-01 0.000000000000e+00 0.000000000000e+00
7.500000000000e-01 0.000000000000e+00 0.000000000000e+00
7.750000000000e-01 0.000000000000e+00 0.000000000000e+00
8.000000000000e-01 0.000000000000e+00 0.000000000000e+00
8.250000000000e-01 0.000000000000e+00 0.000000000000e+00
8.500000000000e-01 0.000000000000e+00 0.000000000000e+00
8.750000000000e-01 0.000000000000e+00 0.000000000000e+00
9.000000000000e-01 0.000000000000e+00 0.000000000000e+00
9.250000000000e-01 0.000000000000e+00 0.000000000000e+00
9.500000000000e-01 0.000000000000e+00 0.000000000000e+00
9.750000000000e-01 0.000000000000e+00 0.000000000000e+00
1.000000000000e+00 0.000000000000e+00 0.000000000000e+00
CELLS 40 120
2 0 1
2 1 2
2 2 3
2 3 4
2 4 5
2 5 6
2 6 7
2 7 8
2 8 9
2 9 10
2 10 11
2 11 12
2 12 13
2 13 14
2 14 15
2 15 16
2 16 17
2 17 18
2 18 19
2 19 20
2 20 21
2 21 22
2 22 23
2 23 24
2 24 25
2 25 26
2 26 27
2 27 28
2 28 29
2 29 30
2 30 31
2 31 32
2 32 33
2 33 34
2 34 35
2 35 36
2 36 37
2 37 38
2 38 39
2 39 40

CELL_TYPES 40
3
3
3
3
3
3
3
3
3
3
3
3
3
3
3
3
3
3
3
3
3
3
3
3
3
3
3
3
3
3
3
3
3
3
3
3
3
3
3
3

POINT_DATA 41
SCALARS PRESSURE1 double 1
LOOKUP_TABLE default
1.521081264436e+07
1.492663699694e+07
1.451698517455e+07
1.407006741404e+07
1.360472763581e+07
1.313103646489e+07
1.265428028608e+07
1.217720639885e+07
1.170023696677e+07
1.122275824503e+07
1.074512021074e+07
1.026800141396e+07
9.790922090073e+06
9.313311604383e+06
8.835788204144e+06
8.358780612521e+06
7.881570248046e+06
7.403888595597e+06
6.926520087421e+06
6.449507757762e+06
5.971305783239e+06
5.463116298255e+06
4.630622307097e+06
4.250338779347e+06
4.000000011395e+06
3.750000011684e+06
3.500000011970e+06
3.250000012255e+06
3.000000012544e+06
2.750000012832e+06
2.500000013119e+06
2.250000013407e+06
2.000000013695e+06
1.750000013984e+06
1.500000014272e+06
1.250000014560e+06
1.000000014848e+06
7.500000151359e+05
5.000000154236e+05
2.500000157114e+05
0.000000000000e+00
SCALARS PRESSURE2 double 1
LOOKUP_TABLE default
1.521081264436e+07
1.492663699694e+07
1.451698517455e+07
1.407006741404e+07
1.360472763581e+07
1.313103646489e+07
1.265428028608e+07
1.217720639885e+07
1.170023696677e+07
1.122275824503e+07
1.074512021074e+07
1.026800141396e+07
9.790922090073e+06
9.313311604383e+06
8.835788204144e+06
8.358780612521e+06
7.881570248046e+06
7.403888595597e+06
6.926520087421e+06
6.449507757762e+06
5.971305783239e+06
5.463116298255e+06
4.630622307097e+06
4.250338779347e+06
4.000000011395e+06
3.750000011684e+06
3.500000011970e+06
3.250000012255e+06
3.000000012544e+06
2.750000012832e+06
2.500000013119e+06
2.250000013407e+06
2.000000013695e+06
1.750000013984e+06
1.500000014272e+06
1.250000014560e+06
1.000000014848e+06
7.500000151359e+05
5.000000154236e+05
2.500000157114e+05
0.000000000000e+00
SCALARS SATURATION1 double 1
LOOKUP_TABLE default
-1.054184752983e-01
1.830404148867e-01
2.236722168634e-01
2.422704858955e-01
2.503897444148e-01
2.539037291081e-01
2.545887698324e-01
2.543369899830e-01
2.544463826630e-01
2.550310381785e-01
2.546632100591e-01
2.543238146129e-01
2.546094173554e-01
2.550473599899e-01
2.544908686360e-01
2.543445424607e-01
2.547673104576e-01
2.549862918380e-01
2.543402765072e-01
2.544494027625e-01
2.551261888676e-01
2.981740249001e-01
7.831886625220e-01
9.985181111633e-01
9.999999999997e-01
1.000000000000e+00
1.000000000000e+00
1.000000000000e+00
1.000000000000e+00
1.000000000000e+00
1.000000000000e+00
1.000000000000e+00
1.000000000000e+00
1.000000000000e+00
1.000000000000e+00
1.000000000000e+00
1.000000000000e+00
1.000000000000e+00
1.000000000000e+00
1.000000000000e+00
9.999999680018e-01
SCALARS SATURATION2 double 1
LOOKUP_TABLE default
1.105418475298e+00
8.169595851133e-01
7.763277831366e-01
7.577295141045e-01
7.496102555852e-01
7.460962708919e-01
7.454112301676e-01
7.456630100170e-01
7.455536173370e-01
7.449689618215e-01
7.453367899409e-01
7.456761853871e-01
7.453905826446e-01
7.449526400101e-01
7.455091313640e-01
7.456554575393e-01
7.452326895424e-01
7.450137081620e-01
7.456597234928e-01
7.455505972375e-01
7.448738111324e-01
7.018259750999e-01
2.168113374780e-01
1.481888836679e-03
2.828891706165e-13
-2.535241015102e-20
2.558595282341e-20
2.502100850152e-20
-3.091100324370e-20
-5.291145403961e-20
5.605277962996e-20
-1.979696403215e-20
-2.547726387265e-20
1.455552245890e-20
-2.079786329158e-20
1.161549139081e-20
2.242706616667e-21
1.040532113317e-20
-1.021013888806e-21
-5.189690514537e-16
3.199817968619e-08
SCALARS VELOCITY_X1 double 1
LOOKUP_TABLE default
1.991362563241e-04
1.715928139738e-03
4.398062433717e-03
6.285521361654e-03
7.369240606265e-03
7.856824203089e-03
7.989257505613e-03
7.994142466621e-03
8.023726219239e-03
8.053034939488e-03
8.024836325327e-03
8.003008587847e-03
8.036441563009e-03
8.050395431758e-03
8.013286726805e-03
8.007499472028e-03
8.045960513564e-03
8.042834913331e-03
8.005651768124e-03
8.034465289054e-03
1.068216227126e-02
2.976250104735e-01
8.615821807384e-01
1.070291079586e+00
9.996893694855e-01
9.999999988489e-01
9.999999988573e-01
9.999999988524e-01
9.999999988468e-01
9.999999988492e-01
9.999999988493e-01
9.999999988479e-01
9.999999988468e-01
9.999999988462e-01
9.999999988477e-01
9.999999988481e-01
9.999999988485e-01
9.999999988493e-01
9.999999988489e-01
9.999999881831e-01
9.999999775171e-01
SCALARS VELOCITY_X2 double 1
LOOKUP_TABLE default
9.208756496783e-01
9.491030487784e-01
9.812445941622e-01
9.870152153021e-01
9.896724038633e-01
9.910696960178e-01
9.918998424145e-01
9.920423933280e-01
9.917983668729e-01
9.918913933992e-01
9.921564612953e-01
9.920107800925e-01
9.917780759115e-01
9.919799905622e-01
9.921668844902e-01
9.919216382201e-01
9.917895320308e-01
9.920671982415e-01
9.921726876950e-01
9.924857212789e-01
9.759098384022e-01
6.573841095099e-01
1.795437828964e-01
1.599110875109e-03
1.232490369199e-09
9.999999988491e-10
9.999999988573e-10
9.999999988524e-10
9.999999988468e-10
9.999999988492e-10
9.999999988493e-10
9.999999988479e-10
9.999999988468e-10
9.999999988462e-10
9.999999988477e-10
9.999999988481e-10
9.999999988485e-10
9.999999988493e-10
9.999999988489e-10
1.000000030847e-09
1.000000062846e-09
