# vtk DataFile Version 3.0
Unstructured Grid from OpenGeoSys
ASCII
DATASET UNSTRUCTURED_GRID
FIELD TimesAndCycles 2
TIME 1 1 double
4.000000000000e-01
CYLCE 1 1 long
80
POINTS 41 double
0.000000000000e+00 0.000000000000e+00 0.000000000000e+00
2.500000000000e-02 0.000000000000e+00 0.000000000000e+00
5.000000000000e-02 0.000000000000e+00 0.000000000000e+00
7.500000000000e-02 0.000000000000e+00 0.000000000000e+00
1.000000000000e-01 0.000000000000e+00 0.000000000000e+00
1.250000000000e-01 0.000000000000e+00 0.000000000000e+00
1.500000000000e-01 0.000000000000e+00 0.000000000000e+00
1.750000000000e-01 0.000000000000e+00 0.000000000000e+00
2.000000000000e-01 0.000000000000e+00 0.000000000000e+00
2.250000000000e-01 0.000000000000e+00 0.000000000000e+00
2.500000000000e-01 0.000000000000e+00 0.000000000000e+00
2.750000000000e-01 0.000000000000e+00 0.000000000000e+00
3.000000000000e-01 0.000000000000e+00 0.000000000000e+00
3.250000000000e-01 0.000000000000e+00 0.000000000000e+00
3.500000000000e-01 0.000000000000e+00 0.000000000000e+00
3.750000000000e-01 0.000000000000e+00 0.000000000000e+00
4.000000000000e-01 0.000000000000e+00 0.000000000000e+00
4.250000000000e-01 0.000000000000e+00 0.000000000000e+00
4.500000000000e-01 0.000000000000e+00 0.000000000000e+00
4.750000000000e-01 0.000000000000e+00 0.000000000000e+00
5.000000000000e-01 0.000000000000e+00 0.000000000000e+00
5.250000000000e-01 0.000000000000e+00 0.000000000000e+00
5.500000000000e-01 0.000000000000e+00 0.000000000000e+00
5.750000000000e-01 0.000000000000e+00 0.000000000000e+00
6.000000000000e-01 0.000000000000e+00 0.000000000000e+00
6.250000000000e-01 0.000000000000e+00 0.000000000000e+00
6.500000000000e-01 0.000000000000e+00 0.000000000000e+00
6.750000000000e-01 0.000000000000e+00 0.000000000000e+00
7.000000000000e-01 0.000000000000e+00 0.000000000000e+00
7.250000000000e-01 0.000000000000e+00 0.000000000000e+00
7.500000000000e-01 0.000000000000e+00 0.000000000000e+00
7.750000000000e-01 0.000000000000e+00 0.000000000000e+00
8.000000000000e-01 0.000000000000e+00 0.000000000000e+00
8.250000000000e-01 0.000000000000e+00 0.000000000000e+00
8.500000000000e-01 0.000000000000e+00 0.000000000000e+00
8.750000000000e-01 0.000000000000e+00 0.000000000000e+00
9.000000000000e-01 0.000000000000e+00 0.000000000000e+00
9.250000000000e-01 0.000000000000e+00 0.000000000000e+00
9.500000000000e-01 0.000000000000e+00 0.000000000000e+00
9.750000000000e-01 0.000000000000e+00 0.000000000000e+00
1.000000000000e+00 0.000000000000e+00 0.000000000000e+00
CELLS 40 120
2 0 1
2 1 2
2 2 3
2 3 4
2 4 5
2 5 6
2 6 7
2 7 8
2 8 9
2 9 10
2 10 11
2 11 12
2 12 13
2 13 14
2 14 15
2 15 16
2 16 17
2 17 18
2 18 19
2 19 20
2 20 21
2 21 22
2 22 23
2 23 24
2 24 25
2 25 26
2 26 27
2 27 28
2 28 29
2 29 30
2 30 31
2 31 32
2 32 33
2 33 34
2 34 35
2 35 36
2 36 37
2 37 38
2 38 39
2 39 40

CELL_TYPES 40
3
3
3
3
3
3
3
3
3
3
3
3
3
3
3
3
3
3
3
3
3
3
3
3
3
3
3
3
3
3
3
3
3
3
3
3
3
3
3
3

POINT_DATA 41
SCALARS PRESSURE1 double 1
LOOKUP_TABLE default
1.521085344109e+07
1.492667779140e+07
1.451702597071e+07
1.407010821396e+07
1.360476844001e+07
1.313107727220e+07
1.265432109548e+07
1.217724721374e+07
1.170027778619e+07
1.122279906832e+07
1.074516103703e+07
1.026804224168e+07
9.790962915655e+06
9.313352439252e+06
8.835829038034e+06
8.358821430615e+06
7.881611089789e+06
7.403929423788e+06
6.926563581806e+06
6.449551389490e+06
5.971341159360e+06
5.463140203302e+06
4.630632444348e+06
4.250338892483e+06
3.999999969129e+06
3.749999972061e+06
3.499999974992e+06
3.249999977924e+06
2.999999980849e+06
2.749999983776e+06
2.499999986699e+06
2.249999989630e+06
1.999999992555e+06
1.749999995486e+06
1.499999998415e+06
1.250000001347e+06
1.000000004277e+06
7.500000072082e+05
5.000000101385e+05
2.500000130687e+05
0.000000000000e+00
SCALARS PRESSURE2 double 1
LOOKUP_TABLE default
1.521085344109e+07
1.492667779140e+07
1.451702597071e+07
1.407010821396e+07
1.360476844001e+07
1.313107727220e+07
1.265432109548e+07
1.217724721374e+07
1.170027778619e+07
1.122279906832e+07
1.074516103703e+07
1.026804224168e+07
9.790962915655e+06
9.313352439252e+06
8.835829038034e+06
8.358821430615e+06
7.881611089789e+06
7.403929423788e+06
6.926563581806e+06
6.449551389490e+06
5.971341159360e+06
5.463140203302e+06
4.630632444348e+06
4.250338892483e+06
3.999999969129e+06
3.749999972061e+06
3.499999974992e+06
3.249999977924e+06
2.999999980849e+06
2.749999983776e+06
2.499999986699e+06
2.249999989630e+06
1.999999992555e+06
1.749999995486e+06
1.499999998415e+06
1.250000001347e+06
1.000000004277e+06
7.500000072082e+05
5.000000101385e+05
2.500000130687e+05
0.000000000000e+00
SCALARS SATURATION1 double 1
LOOKUP_TABLE default
-1.054184752988e-01
1.830404148881e-01
2.236722168713e-01
2.422704858921e-01
2.503897444190e-01
2.539037291003e-01
2.545887698323e-01
2.543369899786e-01
2.544463826668e-01
2.550310381342e-01
2.546632101200e-01
2.543238145805e-01
2.546094174673e-01
2.550473451767e-01
2.544908823747e-01
2.543445573925e-01
2.547672949567e-01
2.549863332309e-01
2.543366215177e-01
2.544528660823e-01
2.551338488824e-01
2.981808580622e-01
7.831747810197e-01
9.985176506476e-01
9.999999999997e-01
1.000000000000e+00
1.000000000000e+00
1.000000000000e+00
1.000000000000e+00
1.000000000000e+00
1.000000000000e+00
1.000000000000e+00
1.000000000000e+00
1.000000000000e+00
1.000000000000e+00
1.000000000000e+00
1.000000000000e+00
1.000000000000e+00
1.000000000000e+00
1.000000000000e+00
9.999999680024e-01
SCALARS SATURATION2 double 1
LOOKUP_TABLE default
1.105418475299e+00
8.169595851119e-01
7.763277831287e-01
7.577295141079e-01
7.496102555810e-01
7.460962708997e-01
7.454112301677e-01
7.456630100214e-01
7.455536173332e-01
7.449689618658e-01
7.453367898800e-01
7.456761854195e-01
7.453905825327e-01
7.449526548233e-01
7.455091176253e-01
7.456554426075e-01
7.452327050433e-01
7.450136667691e-01
7.456633784823e-01
7.455471339177e-01
7.448661511176e-01
7.018191419378e-01
2.168252189803e-01
1.482349352405e-03
2.830177860609e-13
-8.387501532079e-22
-1.417406692022e-20
-1.319250180435e-20
2.380975006356e-20
-2.466605036323e-20
6.792675212280e-21
-2.474738573614e-21
-2.926836582486e-20
-1.046110204971e-20
9.538326186082e-21
-2.291278312184e-20
2.062445510649e-20
-3.301354613367e-21
2.091294090126e-21
-5.183243397846e-16
3.199762912414e-08
SCALARS VELOCITY_X1 double 1
LOOKUP_TABLE default
1.991362579182e-04
1.715928134001e-03
4.398062403819e-03
6.285521306131e-03
7.369240548553e-03
7.856824159784e-03
7.989257441621e-03
7.994142382568e-03
8.023726146954e-03
8.053034881397e-03
8.024836289639e-03
8.003008597745e-03
8.036440883704e-03
8.050395004457e-03
8.013288046185e-03
8.007499980487e-03
8.045961511295e-03
8.042661536591e-03
8.005544269749e-03
8.034999250064e-03
1.068344027299e-02
2.976151120552e-01
8.615756237790e-01
1.070295235944e+00
9.996893676454e-01
9.999999882730e-01
9.999999882739e-01
9.999999882865e-01
9.999999882956e-01
9.999999882995e-01
9.999999882933e-01
9.999999882886e-01
9.999999882881e-01
9.999999882795e-01
9.999999882778e-01
9.999999882767e-01
9.999999882767e-01
9.999999882769e-01
9.999999882790e-01
9.999999776135e-01
9.999999669480e-01
SCALARS VELOCITY_X2 double 1
LOOKUP_TABLE default
9.208756570181e-01
9.491030504093e-01
9.812445879836e-01
9.870152066083e-01
9.896723960720e-01
9.910696906010e-01
9.918998345253e-01
9.920423829150e-01
9.917983581907e-01
9.918913862678e-01
9.921564566578e-01
9.920107807289e-01
9.917780841432e-01
9.919799909279e-01
9.921668719108e-01
9.919216153837e-01
9.917894941797e-01
9.920682851975e-01
9.921719084801e-01
9.924823659069e-01
9.759075711244e-01
6.573911439294e-01
1.795519616796e-01
1.599455313355e-03
1.232805612859e-09
9.999999882732e-10
9.999999882739e-10
9.999999882865e-10
9.999999882956e-10
9.999999882995e-10
9.999999882933e-10
9.999999882886e-10
9.999999882881e-10
9.999999882795e-10
9.999999882778e-10
9.999999882767e-10
9.999999882767e-10
9.999999882769e-10
9.999999882790e-10
1.000000020277e-09
1.000000052275e-09
