# vtk DataFile Version 3.6.2
Unstructured Grid: OpenGeoSys->Paraview. Current time (s) = 4.000000000000e-01
ASCII

DATASET UNSTRUCTURED_GRID
POINTS 41 float
 0.000000000000e+00 0.000000000000e+00 0.000000000000e+00 
 2.500000000000e-02 0.000000000000e+00 0.000000000000e+00 
 5.000000000000e-02 0.000000000000e+00 0.000000000000e+00 
 7.500000000000e-02 0.000000000000e+00 0.000000000000e+00 
 1.000000000000e-01 0.000000000000e+00 0.000000000000e+00 
 1.250000000000e-01 0.000000000000e+00 0.000000000000e+00 
 1.500000000000e-01 0.000000000000e+00 0.000000000000e+00 
 1.750000000000e-01 0.000000000000e+00 0.000000000000e+00 
 2.000000000000e-01 0.000000000000e+00 0.000000000000e+00 
 2.250000000000e-01 0.000000000000e+00 0.000000000000e+00 
 2.500000000000e-01 0.000000000000e+00 0.000000000000e+00 
 2.750000000000e-01 0.000000000000e+00 0.000000000000e+00 
 3.000000000000e-01 0.000000000000e+00 0.000000000000e+00 
 3.250000000000e-01 0.000000000000e+00 0.000000000000e+00 
 3.500000000000e-01 0.000000000000e+00 0.000000000000e+00 
 3.750000000000e-01 0.000000000000e+00 0.000000000000e+00 
 4.000000000000e-01 0.000000000000e+00 0.000000000000e+00 
 4.250000000000e-01 0.000000000000e+00 0.000000000000e+00 
 4.500000000000e-01 0.000000000000e+00 0.000000000000e+00 
 4.750000000000e-01 0.000000000000e+00 0.000000000000e+00 
 5.000000000000e-01 0.000000000000e+00 0.000000000000e+00 
 5.250000000000e-01 0.000000000000e+00 0.000000000000e+00 
 5.500000000000e-01 0.000000000000e+00 0.000000000000e+00 
 5.750000000000e-01 0.000000000000e+00 0.000000000000e+00 
 6.000000000000e-01 0.000000000000e+00 0.000000000000e+00 
 6.250000000000e-01 0.000000000000e+00 0.000000000000e+00 
 6.500000000000e-01 0.000000000000e+00 0.000000000000e+00 
 6.750000000000e-01 0.000000000000e+00 0.000000000000e+00 
 7.000000000000e-01 0.000000000000e+00 0.000000000000e+00 
 7.250000000000e-01 0.000000000000e+00 0.000000000000e+00 
 7.500000000000e-01 0.000000000000e+00 0.000000000000e+00 
 7.750000000000e-01 0.000000000000e+00 0.000000000000e+00 
 8.000000000000e-01 0.000000000000e+00 0.000000000000e+00 
 8.250000000000e-01 0.000000000000e+00 0.000000000000e+00 
 8.500000000000e-01 0.000000000000e+00 0.000000000000e+00 
 8.750000000000e-01 0.000000000000e+00 0.000000000000e+00 
 9.000000000000e-01 0.000000000000e+00 0.000000000000e+00 
 9.250000000000e-01 0.000000000000e+00 0.000000000000e+00 
 9.500000000000e-01 0.000000000000e+00 0.000000000000e+00 
 9.750000000000e-01 0.000000000000e+00 0.000000000000e+00 
 1.000000000000e+00 0.000000000000e+00 0.000000000000e+00 

CELLS 40 120
2  0 1 
2  1 2 
2  2 3 
2  3 4 
2  4 5 
2  5 6 
2  6 7 
2  7 8 
2  8 9 
2  9 10 
2  10 11 
2  11 12 
2  12 13 
2  13 14 
2  14 15 
2  15 16 
2  16 17 
2  17 18 
2  18 19 
2  19 20 
2  20 21 
2  21 22 
2  22 23 
2  23 24 
2  24 25 
2  25 26 
2  26 27 
2  27 28 
2  28 29 
2  29 30 
2  30 31 
2  31 32 
2  32 33 
2  33 34 
2  34 35 
2  35 36 
2  36 37 
2  37 38 
2  38 39 
2  39 40 

CELL_TYPES 40
3  
3  
3  
3  
3  
3  
3  
3  
3  
3  
3  
3  
3  
3  
3  
3  
3  
3  
3  
3  
3  
3  
3  
3  
3  
3  
3  
3  
3  
3  
3  
3  
3  
3  
3  
3  
3  
3  
3  
3  

POINT_DATA 41
SCALARS PRESSURE1 float 1
LOOKUP_TABLE default
 1.518056992211e+07
 1.489638784634e+07
 1.448683852949e+07
 1.404026792836e+07
 1.357556343354e+07
 1.310329373278e+07
 1.262851614058e+07
 1.215307564691e+07
 1.167749099833e+07
 1.120188041642e+07
 1.072626654930e+07
 1.025065182942e+07
 9.775036205687e+06
 9.299420908026e+06
 8.823806420752e+06
 8.348191541873e+06
 7.872575876186e+06
 7.396960657786e+06
 6.921346193024e+06
 6.445730209388e+06
 5.969896730158e+06
 5.456154816092e+06
 4.622953018755e+06
 4.250612883620e+06
 4.000000012018e+06
 3.750000012228e+06
 3.500000012477e+06
 3.250000012727e+06
 3.000000012976e+06
 2.750000013226e+06
 2.500000013476e+06
 2.250000013725e+06
 2.000000013975e+06
 1.750000014225e+06
 1.500000014474e+06
 1.250000014724e+06
 1.000000014973e+06
 7.500000152230e+05
 5.000000154726e+05
 2.500000157222e+05
 0.000000000000e+00
SCALARS PRESSURE2 float 1
LOOKUP_TABLE default
 1.518056992211e+07
 1.489638784634e+07
 1.448683852949e+07
 1.404026792836e+07
 1.357556343354e+07
 1.310329373278e+07
 1.262851614058e+07
 1.215307564691e+07
 1.167749099833e+07
 1.120188041642e+07
 1.072626654930e+07
 1.025065182942e+07
 9.775036205687e+06
 9.299420908026e+06
 8.823806420752e+06
 8.348191541873e+06
 7.872575876186e+06
 7.396960657786e+06
 6.921346193024e+06
 6.445730209388e+06
 5.969896730158e+06
 5.456154816092e+06
 4.622953018755e+06
 4.250612883620e+06
 4.000000012018e+06
 3.750000012228e+06
 3.500000012477e+06
 3.250000012727e+06
 3.000000012976e+06
 2.750000013226e+06
 2.500000013476e+06
 2.250000013725e+06
 2.000000013975e+06
 1.750000014225e+06
 1.500000014474e+06
 1.250000014724e+06
 1.000000014973e+06
 7.500000152230e+05
 5.000000154726e+05
 2.500000157222e+05
 0.000000000000e+00
SCALARS SATURATION1 float 1
LOOKUP_TABLE default
 -1.054115074925e-01
 1.830650077735e-01
 2.234710407299e-01
 2.419515536959e-01
 2.498104312421e-01
 2.525211663808e-01
 2.532638525822e-01
 2.534299579966e-01
 2.534612598237e-01
 2.534654631776e-01
 2.534657574093e-01
 2.534666306339e-01
 2.534669948071e-01
 2.534661842337e-01
 2.534658853618e-01
 2.534667203553e-01
 2.534669625268e-01
 2.534661080032e-01
 2.534659307744e-01
 2.534681873865e-01
 2.537636073816e-01
 3.031266053393e-01
 7.979347063424e-01
 9.987757558671e-01
 9.999999999193e-01
 1.000000000000e+00
 1.000000000000e+00
 1.000000000000e+00
 1.000000000000e+00
 1.000000000000e+00
 1.000000000000e+00
 1.000000000000e+00
 1.000000000000e+00
 1.000000000000e+00
 1.000000000000e+00
 1.000000000000e+00
 1.000000000000e+00
 1.000000000000e+00
 1.000000000000e+00
 1.000000000000e+00
 9.999999680563e-01
SCALARS SATURATION2 float 1
LOOKUP_TABLE default
 1.105411507492e+00
 8.169349922265e-01
 7.765289592701e-01
 7.580484463041e-01
 7.501895687579e-01
 7.474788336192e-01
 7.467361474178e-01
 7.465700420034e-01
 7.465387401763e-01
 7.465345368224e-01
 7.465342425907e-01
 7.465333693661e-01
 7.465330051929e-01
 7.465338157663e-01
 7.465341146382e-01
 7.465332796447e-01
 7.465330374732e-01
 7.465338919968e-01
 7.465340692256e-01
 7.465318126135e-01
 7.462363926184e-01
 6.968733946607e-01
 2.020652936576e-01
 1.224244132884e-03
 8.065870107581e-11
 3.227578011542e-20
 3.623034810406e-25
 8.348090345185e-23
 7.969773261781e-23
 5.385187848367e-26
 3.898637414501e-26
 -1.359654319350e-26
 5.072014997504e-23
 4.714730263356e-23
 -8.536685170869e-26
 7.912234882419e-26
 -3.955829639235e-26
 1.814607328504e-23
 1.452603293669e-23
 -5.165745353545e-16
 3.194365580588e-08
SCALARS VELOCITY_X1 float 1
LOOKUP_TABLE default
 1.992767173509e-04
 1.711539681302e-03
 4.378237140238e-03
 6.237549830260e-03
 7.257390203696e-03
 7.677661477237e-03
 7.810514118517e-03
 7.843965634979e-03
 7.850907620291e-03
 7.852067716930e-03
 7.852242984089e-03
 7.852332708326e-03
 7.852344594861e-03
 7.852280166947e-03
 7.852275941601e-03
 7.852341235515e-03
 7.852340991081e-03
 7.852275812757e-03
 7.852346712887e-03
 7.866515428992e-03
 1.094564134210e-02
 3.204987394309e-01
 8.832364038483e-01
 1.070151345075e+00
 1.000408329870e+00
 9.999999990286e-01
 9.999999990017e-01
 9.999999990015e-01
 9.999999990016e-01
 9.999999990015e-01
 9.999999990015e-01
 9.999999990016e-01
 9.999999990015e-01
 9.999999990016e-01
 9.999999990015e-01
 9.999999990015e-01
 9.999999990016e-01
 9.999999990015e-01
 9.999999990015e-01
 9.999999883537e-01
 9.999999777058e-01
SCALARS VELOCITY_X2 float 1
LOOKUP_TABLE default
 9.208606007132e-01
 9.491552031659e-01
 9.813506801877e-01
 9.871614601298e-01
 9.900575623947e-01
 9.914404226974e-01
 9.919570031377e-01
 9.921055113157e-01
 9.921400045063e-01
 9.921467810671e-01
 9.921474581925e-01
 9.921473505611e-01
 9.921477696702e-01
 9.921480038149e-01
 9.921475868318e-01
 9.921473830484e-01
 9.921478157509e-01
 9.921479882809e-01
 9.921471210388e-01
 9.920572764498e-01
 9.760079824960e-01
 6.471961725982e-01
 1.684458424505e-01
 1.273574470167e-03
 1.085895467132e-09
 9.999999990824e-10
 9.999999990017e-10
 9.999999990015e-10
 9.999999990016e-10
 9.999999990015e-10
 9.999999990015e-10
 9.999999990016e-10
 9.999999990015e-10
 9.999999990016e-10
 9.999999990015e-10
 9.999999990015e-10
 9.999999990016e-10
 9.999999990015e-10
 9.999999990015e-10
 1.000000030945e-09
 1.000000062889e-09
