VARIABLES  = "X","Y","Z", "PRESSURE1", "SorbDecay"
ZONE T="0.000000000000e+00s", N=101, E=100, F=FEPOINT, ET=QUADRILATERAL
STRANDID=1, SOLUTIONTIME=0.000000000000e+00
0.000000000000e+00 0.000000000000e+00 0.000000000000e+00 0.000000000000e+00 0.000000000000e+00 
1.000000000000e+00 0.000000000000e+00 0.000000000000e+00 0.000000000000e+00 0.000000000000e+00 
2.000000000000e+00 0.000000000000e+00 0.000000000000e+00 0.000000000000e+00 0.000000000000e+00 
3.000000000000e+00 0.000000000000e+00 0.000000000000e+00 0.000000000000e+00 0.000000000000e+00 
4.000000000000e+00 0.000000000000e+00 0.000000000000e+00 0.000000000000e+00 0.000000000000e+00 
5.000000000000e+00 0.000000000000e+00 0.000000000000e+00 0.000000000000e+00 0.000000000000e+00 
6.000000000000e+00 0.000000000000e+00 0.000000000000e+00 0.000000000000e+00 0.000000000000e+00 
7.000000000000e+00 0.000000000000e+00 0.000000000000e+00 0.000000000000e+00 0.000000000000e+00 
8.000000000000e+00 0.000000000000e+00 0.000000000000e+00 0.000000000000e+00 0.000000000000e+00 
9.000000000000e+00 0.000000000000e+00 0.000000000000e+00 0.000000000000e+00 0.000000000000e+00 
1.000000000000e+01 0.000000000000e+00 0.000000000000e+00 0.000000000000e+00 0.000000000000e+00 
1.100000000000e+01 0.000000000000e+00 0.000000000000e+00 0.000000000000e+00 0.000000000000e+00 
1.200000000000e+01 0.000000000000e+00 0.000000000000e+00 0.000000000000e+00 0.000000000000e+00 
1.300000000000e+01 0.000000000000e+00 0.000000000000e+00 0.000000000000e+00 0.000000000000e+00 
1.400000000000e+01 0.000000000000e+00 0.000000000000e+00 0.000000000000e+00 0.000000000000e+00 
1.500000000000e+01 0.000000000000e+00 0.000000000000e+00 0.000000000000e+00 0.000000000000e+00 
1.600000000000e+01 0.000000000000e+00 0.000000000000e+00 0.000000000000e+00 0.000000000000e+00 
1.700000000000e+01 0.000000000000e+00 0.000000000000e+00 0.000000000000e+00 0.000000000000e+00 
1.800000000000e+01 0.000000000000e+00 0.000000000000e+00 0.000000000000e+00 0.000000000000e+00 
1.900000000000e+01 0.000000000000e+00 0.000000000000e+00 0.000000000000e+00 0.000000000000e+00 
2.000000000000e+01 0.000000000000e+00 0.000000000000e+00 0.000000000000e+00 0.000000000000e+00 
2.100000000000e+01 0.000000000000e+00 0.000000000000e+00 0.000000000000e+00 0.000000000000e+00 
2.200000000000e+01 0.000000000000e+00 0.000000000000e+00 0.000000000000e+00 0.000000000000e+00 
2.300000000000e+01 0.000000000000e+00 0.000000000000e+00 0.000000000000e+00 0.000000000000e+00 
2.400000000000e+01 0.000000000000e+00 0.000000000000e+00 0.000000000000e+00 0.000000000000e+00 
2.500000000000e+01 0.000000000000e+00 0.000000000000e+00 0.000000000000e+00 0.000000000000e+00 
2.600000000000e+01 0.000000000000e+00 0.000000000000e+00 0.000000000000e+00 0.000000000000e+00 
2.700000000000e+01 0.000000000000e+00 0.000000000000e+00 0.000000000000e+00 0.000000000000e+00 
2.800000000000e+01 0.000000000000e+00 0.000000000000e+00 0.000000000000e+00 0.000000000000e+00 
2.900000000000e+01 0.000000000000e+00 0.000000000000e+00 0.000000000000e+00 0.000000000000e+00 
3.000000000000e+01 0.000000000000e+00 0.000000000000e+00 0.000000000000e+00 0.000000000000e+00 
3.100000000000e+01 0.000000000000e+00 0.000000000000e+00 0.000000000000e+00 0.000000000000e+00 
3.200000000000e+01 0.000000000000e+00 0.000000000000e+00 0.000000000000e+00 0.000000000000e+00 
3.300000000000e+01 0.000000000000e+00 0.000000000000e+00 0.000000000000e+00 0.000000000000e+00 
3.400000000000e+01 0.000000000000e+00 0.000000000000e+00 0.000000000000e+00 0.000000000000e+00 
3.500000000000e+01 0.000000000000e+00 0.000000000000e+00 0.000000000000e+00 0.000000000000e+00 
3.600000000000e+01 0.000000000000e+00 0.000000000000e+00 0.000000000000e+00 0.000000000000e+00 
3.700000000000e+01 0.000000000000e+00 0.000000000000e+00 0.000000000000e+00 0.000000000000e+00 
3.800000000000e+01 0.000000000000e+00 0.000000000000e+00 0.000000000000e+00 0.000000000000e+00 
3.900000000000e+01 0.000000000000e+00 0.000000000000e+00 0.000000000000e+00 0.000000000000e+00 
4.000000000000e+01 0.000000000000e+00 0.000000000000e+00 0.000000000000e+00 0.000000000000e+00 
4.100000000000e+01 0.000000000000e+00 0.000000000000e+00 0.000000000000e+00 0.000000000000e+00 
4.200000000000e+01 0.000000000000e+00 0.000000000000e+00 0.000000000000e+00 0.000000000000e+00 
4.300000000000e+01 0.000000000000e+00 0.000000000000e+00 0.000000000000e+00 0.000000000000e+00 
4.400000000000e+01 0.000000000000e+00 0.000000000000e+00 0.000000000000e+00 0.000000000000e+00 
4.500000000000e+01 0.000000000000e+00 0.000000000000e+00 0.000000000000e+00 0.000000000000e+00 
4.600000000000e+01 0.000000000000e+00 0.000000000000e+00 0.000000000000e+00 0.000000000000e+00 
4.700000000000e+01 0.000000000000e+00 0.000000000000e+00 0.000000000000e+00 0.000000000000e+00 
4.800000000000e+01 0.000000000000e+00 0.000000000000e+00 0.000000000000e+00 0.000000000000e+00 
4.900000000000e+01 0.000000000000e+00 0.000000000000e+00 0.000000000000e+00 0.000000000000e+00 
5.000000000000e+01 0.000000000000e+00 0.000000000000e+00 0.000000000000e+00 0.000000000000e+00 
5.100000000000e+01 0.000000000000e+00 0.000000000000e+00 0.000000000000e+00 0.000000000000e+00 
5.200000000000e+01 0.000000000000e+00 0.000000000000e+00 0.000000000000e+00 0.000000000000e+00 
5.300000000000e+01 0.000000000000e+00 0.000000000000e+00 0.000000000000e+00 0.000000000000e+00 
5.400000000000e+01 0.000000000000e+00 0.000000000000e+00 0.000000000000e+00 0.000000000000e+00 
5.500000000000e+01 0.000000000000e+00 0.000000000000e+00 0.000000000000e+00 0.000000000000e+00 
5.600000000000e+01 0.000000000000e+00 0.000000000000e+00 0.000000000000e+00 0.000000000000e+00 
5.700000000000e+01 0.000000000000e+00 0.000000000000e+00 0.000000000000e+00 0.000000000000e+00 
5.800000000000e+01 0.000000000000e+00 0.000000000000e+00 0.000000000000e+00 0.000000000000e+00 
5.900000000000e+01 0.000000000000e+00 0.000000000000e+00 0.000000000000e+00 0.000000000000e+00 
6.000000000000e+01 0.000000000000e+00 0.000000000000e+00 0.000000000000e+00 0.000000000000e+00 
6.100000000000e+01 0.000000000000e+00 0.000000000000e+00 0.000000000000e+00 0.000000000000e+00 
6.200000000000e+01 0.000000000000e+00 0.000000000000e+00 0.000000000000e+00 0.000000000000e+00 
6.300000000000e+01 0.000000000000e+00 0.000000000000e+00 0.000000000000e+00 0.000000000000e+00 
6.400000000000e+01 0.000000000000e+00 0.000000000000e+00 0.000000000000e+00 0.000000000000e+00 
6.500000000000e+01 0.000000000000e+00 0.000000000000e+00 0.000000000000e+00 0.000000000000e+00 
6.600000000000e+01 0.000000000000e+00 0.000000000000e+00 0.000000000000e+00 0.000000000000e+00 
6.700000000000e+01 0.000000000000e+00 0.000000000000e+00 0.000000000000e+00 0.000000000000e+00 
6.800000000000e+01 0.000000000000e+00 0.000000000000e+00 0.000000000000e+00 0.000000000000e+00 
6.900000000000e+01 0.000000000000e+00 0.000000000000e+00 0.000000000000e+00 0.000000000000e+00 
7.000000000000e+01 0.000000000000e+00 0.000000000000e+00 0.000000000000e+00 0.000000000000e+00 
7.100000000000e+01 0.000000000000e+00 0.000000000000e+00 0.000000000000e+00 0.000000000000e+00 
7.200000000000e+01 0.000000000000e+00 0.000000000000e+00 0.000000000000e+00 0.000000000000e+00 
7.300000000000e+01 0.000000000000e+00 0.000000000000e+00 0.000000000000e+00 0.000000000000e+00 
7.400000000000e+01 0.000000000000e+00 0.000000000000e+00 0.000000000000e+00 0.000000000000e+00 
7.500000000000e+01 0.000000000000e+00 0.000000000000e+00 0.000000000000e+00 0.000000000000e+00 
7.600000000000e+01 0.000000000000e+00 0.000000000000e+00 0.000000000000e+00 0.000000000000e+00 
7.700000000000e+01 0.000000000000e+00 0.000000000000e+00 0.000000000000e+00 0.000000000000e+00 
7.800000000000e+01 0.000000000000e+00 0.000000000000e+00 0.000000000000e+00 0.000000000000e+00 
7.900000000000e+01 0.000000000000e+00 0.000000000000e+00 0.000000000000e+00 0.000000000000e+00 
8.000000000000e+01 0.000000000000e+00 0.000000000000e+00 0.000000000000e+00 0.000000000000e+00 
8.100000000000e+01 0.000000000000e+00 0.000000000000e+00 0.000000000000e+00 0.000000000000e+00 
8.200000000000e+01 0.000000000000e+00 0.000000000000e+00 0.000000000000e+00 0.000000000000e+00 
8.300000000000e+01 0.000000000000e+00 0.000000000000e+00 0.000000000000e+00 0.000000000000e+00 
8.400000000000e+01 0.000000000000e+00 0.000000000000e+00 0.000000000000e+00 0.000000000000e+00 
8.500000000000e+01 0.000000000000e+00 0.000000000000e+00 0.000000000000e+00 0.000000000000e+00 
8.600000000000e+01 0.000000000000e+00 0.000000000000e+00 0.000000000000e+00 0.000000000000e+00 
8.700000000000e+01 0.000000000000e+00 0.000000000000e+00 0.000000000000e+00 0.000000000000e+00 
8.800000000000e+01 0.000000000000e+00 0.000000000000e+00 0.000000000000e+00 0.000000000000e+00 
8.900000000000e+01 0.000000000000e+00 0.000000000000e+00 0.000000000000e+00 0.000000000000e+00 
9.000000000000e+01 0.000000000000e+00 0.000000000000e+00 0.000000000000e+00 0.000000000000e+00 
9.100000000000e+01 0.000000000000e+00 0.000000000000e+00 0.000000000000e+00 0.000000000000e+00 
9.200000000000e+01 0.000000000000e+00 0.000000000000e+00 0.000000000000e+00 0.000000000000e+00 
9.300000000000e+01 0.000000000000e+00 0.000000000000e+00 0.000000000000e+00 0.000000000000e+00 
9.400000000000e+01 0.000000000000e+00 0.000000000000e+00 0.000000000000e+00 0.000000000000e+00 
9.500000000000e+01 0.000000000000e+00 0.000000000000e+00 0.000000000000e+00 0.000000000000e+00 
9.600000000000e+01 0.000000000000e+00 0.000000000000e+00 0.000000000000e+00 0.000000000000e+00 
9.700000000000e+01 0.000000000000e+00 0.000000000000e+00 0.000000000000e+00 0.000000000000e+00 
9.800000000000e+01 0.000000000000e+00 0.000000000000e+00 0.000000000000e+00 0.000000000000e+00 
9.900000000000e+01 0.000000000000e+00 0.000000000000e+00 0.000000000000e+00 0.000000000000e+00 
1.000000000000e+02 0.000000000000e+00 0.000000000000e+00 0.000000000000e+00 0.000000000000e+00 
1  2  2  1
2  3  3  2
3  4  4  3
4  5  5  4
5  6  6  5
6  7  7  6
7  8  8  7
8  9  9  8
9  10  10  9
10  11  11  10
11  12  12  11
12  13  13  12
13  14  14  13
14  15  15  14
15  16  16  15
16  17  17  16
17  18  18  17
18  19  19  18
19  20  20  19
20  21  21  20
21  22  22  21
22  23  23  22
23  24  24  23
24  25  25  24
25  26  26  25
26  27  27  26
27  28  28  27
28  29  29  28
29  30  30  29
30  31  31  30
31  32  32  31
32  33  33  32
33  34  34  33
34  35  35  34
35  36  36  35
36  37  37  36
37  38  38  37
38  39  39  38
39  40  40  39
40  41  41  40
41  42  42  41
42  43  43  42
43  44  44  43
44  45  45  44
45  46  46  45
46  47  47  46
47  48  48  47
48  49  49  48
49  50  50  49
50  51  51  50
51  52  52  51
52  53  53  52
53  54  54  53
54  55  55  54
55  56  56  55
56  57  57  56
57  58  58  57
58  59  59  58
59  60  60  59
60  61  61  60
61  62  62  61
62  63  63  62
63  64  64  63
64  65  65  64
65  66  66  65
66  67  67  66
67  68  68  67
68  69  69  68
69  70  70  69
70  71  71  70
71  72  72  71
72  73  73  72
73  74  74  73
74  75  75  74
75  76  76  75
76  77  77  76
77  78  78  77
78  79  79  78
79  80  80  79
80  81  81  80
81  82  82  81
82  83  83  82
83  84  84  83
84  85  85  84
85  86  86  85
86  87  87  86
87  88  88  87
88  89  89  88
89  90  90  89
90  91  91  90
91  92  92  91
92  93  93  92
93  94  94  93
94  95  95  94
95  96  96  95
96  97  97  96
97  98  98  97
98  99  99  98
99  100  100  99
100  101  101  100
VARIABLES  = "X","Y","Z", "PRESSURE1", "SorbDecay"
ZONE T="8.640000000000e+04s", N=101, E=100, F=FEPOINT, ET=QUADRILATERAL
STRANDID=1, SOLUTIONTIME=8.640000000000e+04
0.000000000000e+00 0.000000000000e+00 0.000000000000e+00 1.357406999999e+05 1.000000000000e+00 
1.000000000000e+00 0.000000000000e+00 0.000000000000e+00 1.345832929999e+05 3.442399813774e-01 
2.000000000000e+00 0.000000000000e+00 0.000000000000e+00 1.334258859999e+05 1.185011647787e-01 
3.000000000000e+00 0.000000000000e+00 0.000000000000e+00 1.322684789999e+05 4.079283875663e-02 
4.000000000000e+00 0.000000000000e+00 0.000000000000e+00 1.311110719999e+05 1.404252605391e-02 
5.000000000000e+00 0.000000000000e+00 0.000000000000e+00 1.299536649999e+05 4.833998907291e-03 
6.000000000000e+00 0.000000000000e+00 0.000000000000e+00 1.287962579999e+05 1.664055693824e-03 
7.000000000000e+00 0.000000000000e+00 0.000000000000e+00 1.276388509999e+05 5.728345010531e-04 
8.000000000000e+00 0.000000000000e+00 0.000000000000e+00 1.264814439999e+05 1.971925379749e-04 
9.000000000000e+00 0.000000000000e+00 0.000000000000e+00 1.253240369999e+05 6.788155560022e-05 
1.000000000000e+01 0.000000000000e+00 0.000000000000e+00 1.241666299999e+05 2.336754543564e-05 
1.100000000000e+01 0.000000000000e+00 0.000000000000e+00 1.230092229999e+05 8.044043405546e-06 
1.200000000000e+01 0.000000000000e+00 0.000000000000e+00 1.218518159999e+05 2.769081351966e-06 
1.300000000000e+01 0.000000000000e+00 0.000000000000e+00 1.206944089999e+05 9.532285128797e-07 
1.400000000000e+01 0.000000000000e+00 0.000000000000e+00 1.195370019999e+05 3.281393651103e-07 
1.500000000000e+01 0.000000000000e+00 0.000000000000e+00 1.183795949999e+05 1.129586885937e-07 
1.600000000000e+01 0.000000000000e+00 0.000000000000e+00 1.172221879999e+05 3.888489599517e-08 
1.700000000000e+01 0.000000000000e+00 0.000000000000e+00 1.160647809999e+05 1.338573525945e-08 
1.800000000000e+01 0.000000000000e+00 0.000000000000e+00 1.149073739999e+05 4.607903787893e-09 
1.900000000000e+01 0.000000000000e+00 0.000000000000e+00 1.137499669999e+05 1.586223813912e-09 
2.000000000000e+01 0.000000000000e+00 0.000000000000e+00 1.125925599999e+05 5.460396146245e-10 
2.100000000000e+01 0.000000000000e+00 0.000000000000e+00 1.114351529999e+05 1.879675896260e-10 
2.200000000000e+01 0.000000000000e+00 0.000000000000e+00 1.102777459999e+05 6.470363950397e-11 
2.300000000000e+01 0.000000000000e+00 0.000000000000e+00 1.091203389999e+05 2.227253153011e-11 
2.400000000000e+01 0.000000000000e+00 0.000000000000e+00 1.079629319999e+05 7.664947687279e-12 
2.500000000000e+01 0.000000000000e+00 0.000000000000e+00 1.068055249999e+05 2.637758601102e-12 
2.600000000000e+01 0.000000000000e+00 0.000000000000e+00 1.056481179999e+05 9.064144743355e-13 
2.700000000000e+01 0.000000000000e+00 0.000000000000e+00 1.044907109999e+05 3.115101401551e-13 
2.800000000000e+01 0.000000000000e+00 0.000000000000e+00 1.033333039999e+05 1.062756446196e-13 
2.900000000000e+01 0.000000000000e+00 0.000000000000e+00 1.021758969999e+05 3.633456978648e-14 
3.000000000000e+01 0.000000000000e+00 0.000000000000e+00 1.010184899999e+05 1.206241855614e-14 
3.100000000000e+01 0.000000000000e+00 0.000000000000e+00 9.986108299994e+04 4.061263504124e-15 
3.200000000000e+01 0.000000000000e+00 0.000000000000e+00 9.870367599994e+04 1.242496301714e-15 
3.300000000000e+01 0.000000000000e+00 0.000000000000e+00 9.754626899994e+04 4.042269124830e-16 
3.400000000000e+01 0.000000000000e+00 0.000000000000e+00 9.638886199994e+04 1.007008635938e-16 
3.500000000000e+01 0.000000000000e+00 0.000000000000e+00 9.523145499994e+04 3.084471188503e-17 
3.600000000000e+01 0.000000000000e+00 0.000000000000e+00 9.407404799994e+04 4.615528081782e-18 
3.700000000000e+01 0.000000000000e+00 0.000000000000e+00 9.291664099994e+04 1.293821113197e-18 
3.800000000000e+01 0.000000000000e+00 0.000000000000e+00 9.175923399994e+04 0.000000000000e+00 
3.900000000000e+01 0.000000000000e+00 0.000000000000e+00 9.060182699994e+04 0.000000000000e+00 
4.000000000000e+01 0.000000000000e+00 0.000000000000e+00 8.944441999994e+04 0.000000000000e+00 
4.100000000000e+01 0.000000000000e+00 0.000000000000e+00 8.828701299994e+04 0.000000000000e+00 
4.200000000000e+01 0.000000000000e+00 0.000000000000e+00 8.712960599994e+04 0.000000000000e+00 
4.300000000000e+01 0.000000000000e+00 0.000000000000e+00 8.597219899994e+04 0.000000000000e+00 
4.400000000000e+01 0.000000000000e+00 0.000000000000e+00 8.481479199994e+04 0.000000000000e+00 
4.500000000000e+01 0.000000000000e+00 0.000000000000e+00 8.365738499995e+04 0.000000000000e+00 
4.600000000000e+01 0.000000000000e+00 0.000000000000e+00 8.249997799995e+04 0.000000000000e+00 
4.700000000000e+01 0.000000000000e+00 0.000000000000e+00 8.134257099995e+04 0.000000000000e+00 
4.800000000000e+01 0.000000000000e+00 0.000000000000e+00 8.018516399995e+04 0.000000000000e+00 
4.900000000000e+01 0.000000000000e+00 0.000000000000e+00 7.902775699995e+04 0.000000000000e+00 
5.000000000000e+01 0.000000000000e+00 0.000000000000e+00 7.787034999995e+04 0.000000000000e+00 
5.100000000000e+01 0.000000000000e+00 0.000000000000e+00 7.671294299995e+04 0.000000000000e+00 
5.200000000000e+01 0.000000000000e+00 0.000000000000e+00 7.555553599995e+04 0.000000000000e+00 
5.300000000000e+01 0.000000000000e+00 0.000000000000e+00 7.439812899995e+04 0.000000000000e+00 
5.400000000000e+01 0.000000000000e+00 0.000000000000e+00 7.324072199995e+04 0.000000000000e+00 
5.500000000000e+01 0.000000000000e+00 0.000000000000e+00 7.208331499995e+04 0.000000000000e+00 
5.600000000000e+01 0.000000000000e+00 0.000000000000e+00 7.092590799995e+04 0.000000000000e+00 
5.700000000000e+01 0.000000000000e+00 0.000000000000e+00 6.976850099995e+04 0.000000000000e+00 
5.800000000000e+01 0.000000000000e+00 0.000000000000e+00 6.861109399995e+04 0.000000000000e+00 
5.900000000000e+01 0.000000000000e+00 0.000000000000e+00 6.745368699995e+04 0.000000000000e+00 
6.000000000000e+01 0.000000000000e+00 0.000000000000e+00 6.629627999995e+04 0.000000000000e+00 
6.100000000000e+01 0.000000000000e+00 0.000000000000e+00 6.513887299995e+04 0.000000000000e+00 
6.200000000000e+01 0.000000000000e+00 0.000000000000e+00 6.398146599996e+04 0.000000000000e+00 
6.300000000000e+01 0.000000000000e+00 0.000000000000e+00 6.282405899996e+04 0.000000000000e+00 
6.400000000000e+01 0.000000000000e+00 0.000000000000e+00 6.166665199996e+04 0.000000000000e+00 
6.500000000000e+01 0.000000000000e+00 0.000000000000e+00 6.050924499996e+04 0.000000000000e+00 
6.600000000000e+01 0.000000000000e+00 0.000000000000e+00 5.935183799996e+04 0.000000000000e+00 
6.700000000000e+01 0.000000000000e+00 0.000000000000e+00 5.819443099996e+04 0.000000000000e+00 
6.800000000000e+01 0.000000000000e+00 0.000000000000e+00 5.703702399996e+04 0.000000000000e+00 
6.900000000000e+01 0.000000000000e+00 0.000000000000e+00 5.587961699996e+04 0.000000000000e+00 
7.000000000000e+01 0.000000000000e+00 0.000000000000e+00 5.472220999996e+04 0.000000000000e+00 
7.100000000000e+01 0.000000000000e+00 0.000000000000e+00 5.356480299996e+04 0.000000000000e+00 
7.200000000000e+01 0.000000000000e+00 0.000000000000e+00 5.240739599996e+04 0.000000000000e+00 
7.300000000000e+01 0.000000000000e+00 0.000000000000e+00 5.124998899997e+04 0.000000000000e+00 
7.400000000000e+01 0.000000000000e+00 0.000000000000e+00 5.009258199997e+04 0.000000000000e+00 
7.500000000000e+01 0.000000000000e+00 0.000000000000e+00 4.893517499997e+04 0.000000000000e+00 
7.600000000000e+01 0.000000000000e+00 0.000000000000e+00 4.777776799997e+04 0.000000000000e+00 
7.700000000000e+01 0.000000000000e+00 0.000000000000e+00 4.662036099997e+04 0.000000000000e+00 
7.800000000000e+01 0.000000000000e+00 0.000000000000e+00 4.546295399997e+04 0.000000000000e+00 
7.900000000000e+01 0.000000000000e+00 0.000000000000e+00 4.430554699997e+04 0.000000000000e+00 
8.000000000000e+01 0.000000000000e+00 0.000000000000e+00 4.314813999997e+04 0.000000000000e+00 
8.100000000000e+01 0.000000000000e+00 0.000000000000e+00 4.199073299998e+04 0.000000000000e+00 
8.200000000000e+01 0.000000000000e+00 0.000000000000e+00 4.083332599998e+04 0.000000000000e+00 
8.300000000000e+01 0.000000000000e+00 0.000000000000e+00 3.967591899998e+04 0.000000000000e+00 
8.400000000000e+01 0.000000000000e+00 0.000000000000e+00 3.851851199998e+04 0.000000000000e+00 
8.500000000000e+01 0.000000000000e+00 0.000000000000e+00 3.736110499998e+04 0.000000000000e+00 
8.600000000000e+01 0.000000000000e+00 0.000000000000e+00 3.620369799998e+04 0.000000000000e+00 
8.700000000000e+01 0.000000000000e+00 0.000000000000e+00 3.504629099998e+04 0.000000000000e+00 
8.800000000000e+01 0.000000000000e+00 0.000000000000e+00 3.388888399998e+04 0.000000000000e+00 
8.900000000000e+01 0.000000000000e+00 0.000000000000e+00 3.273147699999e+04 0.000000000000e+00 
9.000000000000e+01 0.000000000000e+00 0.000000000000e+00 3.157406999999e+04 0.000000000000e+00 
9.100000000000e+01 0.000000000000e+00 0.000000000000e+00 3.041666299999e+04 0.000000000000e+00 
9.200000000000e+01 0.000000000000e+00 0.000000000000e+00 2.925925599999e+04 0.000000000000e+00 
9.300000000000e+01 0.000000000000e+00 0.000000000000e+00 2.810184899999e+04 0.000000000000e+00 
9.400000000000e+01 0.000000000000e+00 0.000000000000e+00 2.694444199999e+04 0.000000000000e+00 
9.500000000000e+01 0.000000000000e+00 0.000000000000e+00 2.578703499999e+04 0.000000000000e+00 
9.600000000000e+01 0.000000000000e+00 0.000000000000e+00 2.462962799999e+04 0.000000000000e+00 
9.700000000000e+01 0.000000000000e+00 0.000000000000e+00 2.347222100000e+04 0.000000000000e+00 
9.800000000000e+01 0.000000000000e+00 0.000000000000e+00 2.231481400000e+04 0.000000000000e+00 
9.900000000000e+01 0.000000000000e+00 0.000000000000e+00 2.115740700000e+04 0.000000000000e+00 
1.000000000000e+02 0.000000000000e+00 0.000000000000e+00 2.000000000000e+04 0.000000000000e+00 
1  2  2  1
2  3  3  2
3  4  4  3
4  5  5  4
5  6  6  5
6  7  7  6
7  8  8  7
8  9  9  8
9  10  10  9
10  11  11  10
11  12  12  11
12  13  13  12
13  14  14  13
14  15  15  14
15  16  16  15
16  17  17  16
17  18  18  17
18  19  19  18
19  20  20  19
20  21  21  20
21  22  22  21
22  23  23  22
23  24  24  23
24  25  25  24
25  26  26  25
26  27  27  26
27  28  28  27
28  29  29  28
29  30  30  29
30  31  31  30
31  32  32  31
32  33  33  32
33  34  34  33
34  35  35  34
35  36  36  35
36  37  37  36
37  38  38  37
38  39  39  38
39  40  40  39
40  41  41  40
41  42  42  41
42  43  43  42
43  44  44  43
44  45  45  44
45  46  46  45
46  47  47  46
47  48  48  47
48  49  49  48
49  50  50  49
50  51  51  50
51  52  52  51
52  53  53  52
53  54  54  53
54  55  55  54
55  56  56  55
56  57  57  56
57  58  58  57
58  59  59  58
59  60  60  59
60  61  61  60
61  62  62  61
62  63  63  62
63  64  64  63
64  65  65  64
65  66  66  65
66  67  67  66
67  68  68  67
68  69  69  68
69  70  70  69
70  71  71  70
71  72  72  71
72  73  73  72
73  74  74  73
74  75  75  74
75  76  76  75
76  77  77  76
77  78  78  77
78  79  79  78
79  80  80  79
80  81  81  80
81  82  82  81
82  83  83  82
83  84  84  83
84  85  85  84
85  86  86  85
86  87  87  86
87  88  88  87
88  89  89  88
89  90  90  89
90  91  91  90
91  92  92  91
92  93  93  92
93  94  94  93
94  95  95  94
95  96  96  95
96  97  97  96
97  98  98  97
98  99  99  98
99  100  100  99
100  101  101  100
VARIABLES  = "X","Y","Z", "PRESSURE1", "SorbDecay"
ZONE T="1.728000000000e+05s", N=101, E=100, F=FEPOINT, ET=QUADRILATERAL
STRANDID=1, SOLUTIONTIME=1.728000000000e+05
0.000000000000e+00 0.000000000000e+00 0.000000000000e+00 1.357406999999e+05 1.000000000000e+00 
1.000000000000e+00 0.000000000000e+00 0.000000000000e+00 1.345832929999e+05 7.807329271060e-01 
2.000000000000e+00 0.000000000000e+00 0.000000000000e+00 1.334258859999e+05 4.190178117967e-01 
3.000000000000e+00 0.000000000000e+00 0.000000000000e+00 1.322684789999e+05 1.959676062162e-01 
4.000000000000e+00 0.000000000000e+00 0.000000000000e+00 1.311110719999e+05 8.526567146796e-02 
5.000000000000e+00 0.000000000000e+00 0.000000000000e+00 1.299536649999e+05 3.548131672101e-02 
6.000000000000e+00 0.000000000000e+00 0.000000000000e+00 1.287962579999e+05 1.432409422998e-02 
7.000000000000e+00 0.000000000000e+00 0.000000000000e+00 1.276388509999e+05 5.657274502630e-03 
8.000000000000e+00 0.000000000000e+00 0.000000000000e+00 1.264814439999e+05 2.197498288212e-03 
9.000000000000e+00 0.000000000000e+00 0.000000000000e+00 1.253240369999e+05 8.425399215873e-04 
1.000000000000e+01 0.000000000000e+00 0.000000000000e+00 1.241666299999e+05 3.196657470814e-04 
1.100000000000e+01 0.000000000000e+00 0.000000000000e+00 1.230092229999e+05 1.202414995639e-04 
1.200000000000e+01 0.000000000000e+00 0.000000000000e+00 1.218518159999e+05 4.490309977206e-05 
1.300000000000e+01 0.000000000000e+00 0.000000000000e+00 1.206944089999e+05 1.666612670534e-05 
1.400000000000e+01 0.000000000000e+00 0.000000000000e+00 1.195370019999e+05 6.153224667587e-06 
1.500000000000e+01 0.000000000000e+00 0.000000000000e+00 1.183795949999e+05 2.261416462463e-06 
1.600000000000e+01 0.000000000000e+00 0.000000000000e+00 1.172221879999e+05 8.277756303410e-07 
1.700000000000e+01 0.000000000000e+00 0.000000000000e+00 1.160647809999e+05 3.019264492341e-07 
1.800000000000e+01 0.000000000000e+00 0.000000000000e+00 1.149073739999e+05 1.097779320318e-07 
1.900000000000e+01 0.000000000000e+00 0.000000000000e+00 1.137499669999e+05 3.980126900724e-08 
2.000000000000e+01 0.000000000000e+00 0.000000000000e+00 1.125925599999e+05 1.439356045125e-08 
2.100000000000e+01 0.000000000000e+00 0.000000000000e+00 1.114351529999e+05 5.193179140109e-09 
2.200000000000e+01 0.000000000000e+00 0.000000000000e+00 1.102777459999e+05 1.869742764535e-09 
2.300000000000e+01 0.000000000000e+00 0.000000000000e+00 1.091203389999e+05 6.718804648467e-10 
2.400000000000e+01 0.000000000000e+00 0.000000000000e+00 1.079629319999e+05 2.410064519826e-10 
2.500000000000e+01 0.000000000000e+00 0.000000000000e+00 1.068055249999e+05 8.630762030798e-11 
2.600000000000e+01 0.000000000000e+00 0.000000000000e+00 1.056481179999e+05 3.085920986073e-11 
2.700000000000e+01 0.000000000000e+00 0.000000000000e+00 1.044907109999e+05 1.101709247018e-11 
2.800000000000e+01 0.000000000000e+00 0.000000000000e+00 1.033333039999e+05 3.926817209432e-12 
2.900000000000e+01 0.000000000000e+00 0.000000000000e+00 1.021758969999e+05 1.397276390815e-12 
3.000000000000e+01 0.000000000000e+00 0.000000000000e+00 1.010184899999e+05 4.960251822481e-13 
3.100000000000e+01 0.000000000000e+00 0.000000000000e+00 9.986108299994e+04 1.756142196771e-13 
3.200000000000e+01 0.000000000000e+00 0.000000000000e+00 9.870367599994e+04 6.190469782112e-14 
3.300000000000e+01 0.000000000000e+00 0.000000000000e+00 9.754626899994e+04 2.170934286742e-14 
3.400000000000e+01 0.000000000000e+00 0.000000000000e+00 9.638886199994e+04 7.555879619488e-15 
3.500000000000e+01 0.000000000000e+00 0.000000000000e+00 9.523145499994e+04 2.606592891350e-15 
3.600000000000e+01 0.000000000000e+00 0.000000000000e+00 9.407404799994e+04 8.907046136073e-16 
3.700000000000e+01 0.000000000000e+00 0.000000000000e+00 9.291664099994e+04 3.010570995738e-16 
3.800000000000e+01 0.000000000000e+00 0.000000000000e+00 9.175923399994e+04 1.010963724441e-16 
3.900000000000e+01 0.000000000000e+00 0.000000000000e+00 9.060182699994e+04 3.370314874699e-17 
4.000000000000e+01 0.000000000000e+00 0.000000000000e+00 8.944441999994e+04 1.122390470470e-17 
4.100000000000e+01 0.000000000000e+00 0.000000000000e+00 8.828701299994e+04 3.733571109639e-18 
4.200000000000e+01 0.000000000000e+00 0.000000000000e+00 8.712960599994e+04 1.240443117813e-18 
4.300000000000e+01 0.000000000000e+00 0.000000000000e+00 8.597219899994e+04 4.115877061012e-19 
4.400000000000e+01 0.000000000000e+00 0.000000000000e+00 8.481479199994e+04 1.363759344244e-19 
4.500000000000e+01 0.000000000000e+00 0.000000000000e+00 8.365738499995e+04 4.511847552404e-20 
4.600000000000e+01 0.000000000000e+00 0.000000000000e+00 8.249997799995e+04 1.490245940383e-20 
4.700000000000e+01 0.000000000000e+00 0.000000000000e+00 8.134257099995e+04 4.913452677836e-21 
4.800000000000e+01 0.000000000000e+00 0.000000000000e+00 8.018516399995e+04 1.616855020117e-21 
4.900000000000e+01 0.000000000000e+00 0.000000000000e+00 7.902775699995e+04 5.309223372236e-22 
5.000000000000e+01 0.000000000000e+00 0.000000000000e+00 7.787034999995e+04 1.739302579621e-22 
5.100000000000e+01 0.000000000000e+00 0.000000000000e+00 7.671294299995e+04 5.683252995373e-23 
5.200000000000e+01 0.000000000000e+00 0.000000000000e+00 7.555553599995e+04 1.851716424620e-23 
5.300000000000e+01 0.000000000000e+00 0.000000000000e+00 7.439812899995e+04 6.013945470697e-24 
5.400000000000e+01 0.000000000000e+00 0.000000000000e+00 7.324072199995e+04 1.946200647654e-24 
5.500000000000e+01 0.000000000000e+00 0.000000000000e+00 7.208331499995e+04 6.272451430961e-25 
5.600000000000e+01 0.000000000000e+00 0.000000000000e+00 7.092590799995e+04 2.012315302398e-25 
5.700000000000e+01 0.000000000000e+00 0.000000000000e+00 6.976850099995e+04 6.420756659606e-26 
5.800000000000e+01 0.000000000000e+00 0.000000000000e+00 6.861109399995e+04 2.036527377251e-26 
5.900000000000e+01 0.000000000000e+00 0.000000000000e+00 6.745368699995e+04 6.409613051867e-27 
6.000000000000e+01 0.000000000000e+00 0.000000000000e+00 6.629627999995e+04 2.001897376409e-27 
6.100000000000e+01 0.000000000000e+00 0.000000000000e+00 6.513887299995e+04 6.177559700452e-28 
6.200000000000e+01 0.000000000000e+00 0.000000000000e+00 6.398146599996e+04 1.888852265250e-28 
6.300000000000e+01 0.000000000000e+00 0.000000000000e+00 6.282405899996e+04 5.655624236564e-29 
6.400000000000e+01 0.000000000000e+00 0.000000000000e+00 6.166665199996e+04 1.679078645540e-29 
6.500000000000e+01 0.000000000000e+00 0.000000000000e+00 6.050924499996e+04 4.788936553942e-30 
6.600000000000e+01 0.000000000000e+00 0.000000000000e+00 5.935183799996e+04 1.365706922787e-30 
6.700000000000e+01 0.000000000000e+00 0.000000000000e+00 5.819443099996e+04 3.590107230406e-31 
6.800000000000e+01 0.000000000000e+00 0.000000000000e+00 5.703702399996e+04 9.707797363315e-32 
6.900000000000e+01 0.000000000000e+00 0.000000000000e+00 5.587961699996e+04 2.216054793617e-32 
7.000000000000e+01 0.000000000000e+00 0.000000000000e+00 5.472220999996e+04 5.601726076857e-33 
7.100000000000e+01 0.000000000000e+00 0.000000000000e+00 5.356480299996e+04 9.888255161952e-34 
7.200000000000e+01 0.000000000000e+00 0.000000000000e+00 5.240739599996e+04 2.303343920837e-34 
7.300000000000e+01 0.000000000000e+00 0.000000000000e+00 5.124998899997e+04 2.356817424146e-35 