 TITLE = "Time curves in points"
 VARIABLES = "TIME "  "WDEPTH"  "HEAD"  "FLUX" 
 ZONE T="POINT=POINT5"
0.000000000000e+00 0.000000000000e+00 2.980100019000e+00 0.000000000000e+00 
7.000000000000e-01 7.619879477883e-05 2.980076217795e+00 1.052027450565e-06 
