 TITLE = "Profiles along polylines"
 VARIABLES = "DIST" "PRESSURE1" "SATURATION1" 
 ZONE T="TIME=0.000000000000e+00"
0.000000000000e+00 -3.953430000000e+04 4.059435569777e-01 
1.007500000000e-01 -3.854594250000e+04 4.084195737328e-01 
2.015000000000e-01 -3.755758500000e+04 4.134612798090e-01 
3.022500000000e-01 -3.656922750000e+04 4.186877317211e-01 
4.030000000000e-01 -3.558087000000e+04 4.241101852056e-01 
5.037500000000e-01 -3.459251250000e+04 4.297408535302e-01 
6.045000000000e-01 -3.360415500000e+04 4.355930115927e-01 
7.052500000000e-01 -3.261579750000e+04 4.416811136719e-01 
8.060000000000e-01 -3.162744000000e+04 4.480209268896e-01 
9.067500000000e-01 -3.063908250000e+04 4.546296827845e-01 
1.007500000000e+00 -2.965072500000e+04 4.615262497931e-01 
1.108250000000e+00 -2.866236750000e+04 4.687313298960e-01 
1.209000000000e+00 -2.767401000000e+04 4.762676832133e-01 
1.309750000000e+00 -2.668565250000e+04 4.841603849416e-01 
1.410500000000e+00 -2.569729500000e+04 4.924371197008e-01 
1.511250000000e+00 -2.470893750000e+04 5.011285191043e-01 
1.612000000000e+00 -2.372058000000e+04 5.102685491477e-01 
1.712750000000e+00 -2.273222250000e+04 5.198949547775e-01 
1.813500000000e+00 -2.174386500000e+04 5.300497696506e-01 
1.914250000000e+00 -2.075550750000e+04 5.407798994365e-01 
2.015000000000e+00 -1.976715000000e+04 5.521377867237e-01 
2.115750000000e+00 -1.877879250000e+04 5.641821641000e-01 
2.216500000000e+00 -1.779043500000e+04 5.769788983242e-01 
2.317250000000e+00 -1.680207750000e+04 5.906019210501e-01 
2.418000000000e+00 -1.581372000000e+04 6.051342275164e-01 
2.518750000000e+00 -1.482536250000e+04 6.206688992313e-01 
2.619500000000e+00 -1.383700500000e+04 6.373100618585e-01 
2.720250000000e+00 -1.284864750000e+04 6.551736113347e-01 
2.821000000000e+00 -1.186029000000e+04 6.743874057311e-01 
2.921750000000e+00 -1.087193250000e+04 6.950903859697e-01 
3.022500000000e+00 -9.883575000000e+03 7.174296830072e-01 
3.123250000000e+00 -8.895217500000e+03 7.415540669900e-01 
3.224000000000e+00 -7.906860000000e+03 7.676008777788e-01 
3.324750000000e+00 -6.918502500000e+03 7.956714732152e-01 
3.425500000000e+00 -5.930145000000e+03 8.257866114195e-01 
3.526250000000e+00 -4.941787500000e+03 8.578069892595e-01 
3.627000000000e+00 -3.953430000000e+03 8.912934953391e-01 
3.727750000000e+00 -2.965072500000e+03 9.252618366681e-01 
3.828500000000e+00 -1.976715000000e+03 9.577335020581e-01 
3.929250000000e+00 -9.883575000000e+02 9.846376708222e-01 
4.030000000000e+00 0.000000000000e+00 9.960079179787e-01 
 TITLE = "Profiles along polylines"
 VARIABLES = "DIST" "PRESSURE1" "SATURATION1" 
 ZONE T="TIME=7.000000000000e-01"
0.000000000000e+00 -2.995175516766e+04 4.230692729185e-01 
1.007500000000e-01 -3.854396874563e+04 4.169840998721e-01 
2.015000000000e-01 -3.755758469930e+04 4.134629482413e-01 
3.022500000000e-01 -3.656922749995e+04 4.186877319846e-01 
4.030000000000e-01 -3.558087000000e+04 4.241101852057e-01 
5.037500000000e-01 -3.459251250000e+04 4.297408535302e-01 
6.045000000000e-01 -3.360415500000e+04 4.355930115927e-01 
7.052500000000e-01 -3.261579750000e+04 4.416811136719e-01 
8.060000000000e-01 -3.162744000000e+04 4.480209268896e-01 
9.067500000000e-01 -3.063908250000e+04 4.546296827845e-01 
1.007500000000e+00 -2.965072500000e+04 4.615262497931e-01 
1.108250000000e+00 -2.866236750000e+04 4.687313298960e-01 
1.209000000000e+00 -2.767401000000e+04 4.762676832133e-01 
1.309750000000e+00 -2.668565250000e+04 4.841603849416e-01 
1.410500000000e+00 -2.569729500000e+04 4.924371197008e-01 
1.511250000000e+00 -2.470893750000e+04 5.011285191043e-01 
1.612000000000e+00 -2.372058000000e+04 5.102685491477e-01 
1.712750000000e+00 -2.273222250000e+04 5.198949547775e-01 
1.813500000000e+00 -2.174386500000e+04 5.300497696506e-01 
1.914250000000e+00 -2.075550750000e+04 5.407798994365e-01 
2.015000000000e+00 -1.976715000000e+04 5.521377867237e-01 
2.115750000000e+00 -1.877879250000e+04 5.641821641000e-01 
2.216500000000e+00 -1.779043500000e+04 5.769788983242e-01 
2.317250000000e+00 -1.680207750000e+04 5.906019210501e-01 
2.418000000000e+00 -1.581372000000e+04 6.051342275164e-01 
2.518750000000e+00 -1.482536250000e+04 6.206688992313e-01 
2.619500000000e+00 -1.383700500000e+04 6.373100618585e-01 
2.720250000000e+00 -1.284864750000e+04 6.551736113347e-01 
2.821000000000e+00 -1.186029000000e+04 6.743874057311e-01 
2.921750000000e+00 -1.087193250000e+04 6.950903859697e-01 
3.022500000000e+00 -9.883575000000e+03 7.174296830072e-01 
3.123250000000e+00 -8.895217500000e+03 7.415540669900e-01 
3.224000000000e+00 -7.906860000000e+03 7.676008777788e-01 
3.324750000000e+00 -6.918502500000e+03 7.956714732152e-01 
3.425500000000e+00 -5.930145000000e+03 8.257866114195e-01 
3.526250000000e+00 -4.941787500000e+03 8.578069892595e-01 
3.627000000000e+00 -3.953430000000e+03 8.912934953391e-01 
3.727750000000e+00 -2.965072500000e+03 9.252618366681e-01 
3.828500000000e+00 -1.976715000000e+03 9.577335020581e-01 
3.929250000000e+00 -9.883575000000e+02 9.846376708222e-01 
4.030000000000e+00 -2.605531610200e-14 9.960079179787e-01 
