VARIABLES  = "X","Y","Z", "HEAD", "WDEPTH", "COUPLING"
ZONE T="0.000000000000e+00s", N=1372, E=2651, F=FEPOINT, ET=QUADRILATERAL
1.614036800000e+00 7.891622300000e+00 4.153804302000e+00 4.153904302000e+00 0.000000000000e+00 0.000000000000e+00 
7.254950100000e-01 8.754786400000e+00 4.189959049000e+00 4.190059049000e+00 0.000000000000e+00 0.000000000000e+00 
1.302383300000e-01 6.692290700000e+00 4.381868839000e+00 4.381968839000e+00 0.000000000000e+00 0.000000000000e+00 
2.075995000000e+00 6.893146000000e+00 4.095368862000e+00 4.095468862000e+00 0.000000000000e+00 0.000000000000e+00 
1.325209300000e+00 5.886703400000e+00 4.321687222000e+00 4.321787222000e+00 0.000000000000e+00 0.000000000000e+00 
2.139716400000e-01 5.014271800000e+00 4.641565323000e+00 4.641665323000e+00 0.000000000000e+00 0.000000000000e+00 
1.798110600000e+00 4.862762600000e+00 4.307667732000e+00 4.307767732000e+00 0.000000000000e+00 0.000000000000e+00 
1.428839600000e+00 3.543642100000e+00 4.595534325000e+00 4.595634325000e+00 0.000000000000e+00 0.000000000000e+00 
2.787773100000e+00 5.808416500000e+00 3.859967470000e+00 3.860067470000e+00 0.000000000000e+00 0.000000000000e+00 
2.574212300000e+00 9.146348100000e+00 4.045077801000e+00 4.045177801000e+00 0.000000000000e+00 0.000000000000e+00 
3.114715400000e+00 8.050745800000e+00 3.940364599000e+00 3.940464599000e+00 0.000000000000e+00 0.000000000000e+00 
1.972084600000e+00 9.851021700000e+00 4.081258774000e+00 4.081358774000e+00 0.000000000000e+00 0.000000000000e+00 
3.654302000000e+00 6.946039800000e+00 3.725395679000e+00 3.725495679000e+00 0.000000000000e+00 0.000000000000e+00 
3.101269000000e+00 4.268601200000e+00 4.060107231000e+00 4.060207231000e+00 0.000000000000e+00 0.000000000000e+00 
3.251141700000e+00 2.392714500000e+00 4.563344479000e+00 4.563444479000e+00 0.000000000000e+00 0.000000000000e+00 
4.015276400000e+00 5.715779600000e+00 3.464257002000e+00 3.464357002000e+00 0.000000000000e+00 0.000000000000e+00 
3.709161400000e+00 1.082547900000e+01 4.025500774000e+00 4.025600774000e+00 0.000000000000e+00 0.000000000000e+00 
4.019968000000e+00 9.295006500000e+00 3.961309910000e+00 3.961409910000e+00 0.000000000000e+00 0.000000000000e+00 
4.614291800000e+00 8.142953500000e+00 3.819777012000e+00 3.819877012000e+00 0.000000000000e+00 0.000000000000e+00 
5.131593500000e+00 7.057456600000e+00 3.649895191000e+00 3.649995191000e+00 0.000000000000e+00 0.000000000000e+00 
4.213311300000e+00 4.177200400000e+00 3.741386890000e+00 3.741486890000e+00 0.000000000000e+00 0.000000000000e+00 
4.198077900000e+00 3.232726100000e+00 4.167820454000e+00 4.167920454000e+00 0.000000000000e+00 0.000000000000e+00 
5.073443700000e+00 1.337697500000e+00 4.600028038000e+00 4.600128038000e+00 0.000000000000e+00 0.000000000000e+00 
5.371054000000e+00 5.974748300000e+00 3.296992064000e+00 3.297092064000e+00 0.000000000000e+00 0.000000000000e+00 
4.990217600000e+00 5.106441300000e+00 3.236115932000e+00 3.236215932000e+00 0.000000000000e+00 0.000000000000e+00 
4.906589600000e+00 1.031610900000e+01 4.021232128000e+00 4.021332128000e+00 0.000000000000e+00 0.000000000000e+00 
5.519888000000e+00 1.163574100000e+01 4.030000000000e+00 4.030100000000e+00 0.000000000000e+00 0.000000000000e+00 
5.535137900000e+00 9.273522500000e+00 3.936890841000e+00 3.936990841000e+00 0.000000000000e+00 0.000000000000e+00 
6.172957400000e+00 8.253044100000e+00 3.765372515000e+00 3.765472515000e+00 0.000000000000e+00 0.000000000000e+00 
6.345995300000e+00 7.162958000000e+00 3.470868587000e+00 3.470968587000e+00 0.000000000000e+00 0.000000000000e+00 
5.264419900000e+00 4.024865900000e+00 3.608903408000e+00 3.609003408000e+00 0.000000000000e+00 0.000000000000e+00 
5.553855500000e+00 2.958523900000e+00 4.026261330000e+00 4.026361330000e+00 0.000000000000e+00 0.000000000000e+00 
6.790614300000e+00 2.050712100000e+00 4.247096539000e+00 4.247196539000e+00 0.000000000000e+00 0.000000000000e+00 
6.801763300000e+00 5.968140300000e-01 4.642417431000e+00 4.642517431000e+00 0.000000000000e+00 0.000000000000e+00 
6.568638400000e+00 6.376748800000e+00 3.220424891000e+00 3.220524891000e+00 0.000000000000e+00 0.000000000000e+00 
6.102260000000e+00 5.837647200000e+00 3.202789307000e+00 3.202889307000e+00 0.000000000000e+00 0.000000000000e+00 
5.848345700000e+00 5.150219900000e+00 3.210276127000e+00 3.210376127000e+00 0.000000000000e+00 0.000000000000e+00 
5.890356700000e+00 4.503129100000e+00 3.339882851000e+00 3.339982851000e+00 0.000000000000e+00 0.000000000000e+00 
6.071747200000e+00 1.037566600000e+01 4.033586025000e+00 4.033686025000e+00 0.000000000000e+00 0.000000000000e+00 
7.008560900000e+00 1.104637600000e+01 4.015353203000e+00 4.015453203000e+00 0.000000000000e+00 0.000000000000e+00 
7.402819300000e+00 1.228502700000e+01 4.020000000000e+00 4.020100000000e+00 0.000000000000e+00 0.000000000000e+00 
7.207933400000e+00 9.648137900000e+00 3.965872288000e+00 3.965972288000e+00 0.000000000000e+00 0.000000000000e+00 
7.599532900000e+00 8.403333200000e+00 3.740258694000e+00 3.740358694000e+00 0.000000000000e+00 0.000000000000e+00 
7.739143800000e+00 7.426057100000e+00 3.465341091000e+00 3.465441091000e+00 0.000000000000e+00 0.000000000000e+00 
7.222382000000e+00 6.915133200000e+00 3.325203180000e+00 3.325303180000e+00 0.000000000000e+00 0.000000000000e+00 
6.102260000000e+00 3.811597500000e+00 3.598059177000e+00 3.598159177000e+00 0.000000000000e+00 0.000000000000e+00 
7.183835400000e+00 3.156558800000e+00 3.784723282000e+00 3.784823282000e+00 0.000000000000e+00 0.000000000000e+00 
8.509146200000e+00 2.410119400000e+00 3.939306021000e+00 3.939406021000e+00 0.000000000000e+00 0.000000000000e+00 
7.915485000000e+00 1.293918800000e+00 4.355715275000e+00 4.355815275000e+00 0.000000000000e+00 0.000000000000e+00 
8.494256200000e+00 0.000000000000e+00 4.646865845000e+00 4.646965845000e+00 0.000000000000e+00 0.000000000000e+00 
7.230717400000e+00 6.248823800000e+00 3.155766726000e+00 3.155866726000e+00 0.000000000000e+00 0.000000000000e+00 
6.635431000000e+00 5.700546100000e+00 3.126394033000e+00 3.126494033000e+00 0.000000000000e+00 0.000000000000e+00 
6.528796800000e+00 4.984573600000e+00 3.175434589000e+00 3.175534589000e+00 0.000000000000e+00 0.000000000000e+00 
6.650664400000e+00 4.360001900000e+00 3.324895382000e+00 3.324995382000e+00 0.000000000000e+00 0.000000000000e+00 
8.495774400000e+00 1.114017300000e+01 3.972860813000e+00 3.972960813000e+00 0.000000000000e+00 0.000000000000e+00 
9.285750600000e+00 1.293431400000e+01 3.930000000000e+00 3.930100000000e+00 0.000000000000e+00 0.000000000000e+00 
8.710861500000e+00 9.553357100000e+00 3.913522720000e+00 3.913622720000e+00 0.000000000000e+00 0.000000000000e+00 
9.046409300000e+00 8.390641300000e+00 3.736453295000e+00 3.736553295000e+00 0.000000000000e+00 0.000000000000e+00 
8.462011400000e+00 7.474062000000e+00 3.507911682000e+00 3.508011682000e+00 0.000000000000e+00 0.000000000000e+00 
7.884461100000e+00 6.787208200000e+00 3.271908045000e+00 3.272008045000e+00 0.000000000000e+00 0.000000000000e+00 
6.970567000000e+00 3.811597500000e+00 3.521550894000e+00 3.521650894000e+00 0.000000000000e+00 0.000000000000e+00 
7.721728000000e+00 3.928492300000e+00 3.397859335000e+00 3.397959335000e+00 0.000000000000e+00 0.000000000000e+00 
8.493912700000e+00 3.217492600000e+00 3.686594248000e+00 3.686694248000e+00 0.000000000000e+00 0.000000000000e+00 
9.925857700000e+00 3.293659900000e+00 3.554086447000e+00 3.554186447000e+00 0.000000000000e+00 0.000000000000e+00 
1.020006400000e+01 2.349509000000e+00 3.822770596000e+00 3.822870596000e+00 0.000000000000e+00 0.000000000000e+00 
9.122760000000e+00 1.400647700000e+00 4.191228390000e+00 4.191328390000e+00 0.000000000000e+00 0.000000000000e+00 
1.033604200000e+01 1.042089800000e+00 4.169722080000e+00 4.169822080000e+00 0.000000000000e+00 0.000000000000e+00 
1.058558300000e+01 0.000000000000e+00 4.322191238000e+00 4.322291238000e+00 0.000000000000e+00 0.000000000000e+00 
7.703723300000e+00 6.093652900000e+00 3.089508772000e+00 3.089608772000e+00 0.000000000000e+00 0.000000000000e+00 
7.049979700000e+00 5.555268500000e+00 3.063115358000e+00 3.063215358000e+00 0.000000000000e+00 0.000000000000e+00 
7.091990700000e+00 4.908177600000e+00 3.133614540000e+00 3.133714540000e+00 0.000000000000e+00 0.000000000000e+00 
7.381081400000e+00 4.463141400000e+00 3.224336386000e+00 3.224436386000e+00 0.000000000000e+00 0.000000000000e+00 
9.985378800000e+00 1.201626800000e+01 3.921887636000e+00 3.921987636000e+00 0.000000000000e+00 0.000000000000e+00 
9.921262600000e+00 1.064834400000e+01 3.913060188000e+00 3.913160188000e+00 0.000000000000e+00 0.000000000000e+00 
1.121105800000e+01 1.342375100000e+01 3.920000000000e+00 3.920100000000e+00 0.000000000000e+00 0.000000000000e+00 
1.020006700000e+01 9.339313000000e+00 3.779811859000e+00 3.779911859000e+00 0.000000000000e+00 0.000000000000e+00 
1.056943700000e+01 8.479484600000e+00 3.589284897000e+00 3.589384897000e+00 0.000000000000e+00 0.000000000000e+00 
9.936121400000e+00 7.549006600000e+00 3.474926710000e+00 3.475026710000e+00 0.000000000000e+00 0.000000000000e+00 
9.150906300000e+00 7.571235000000e+00 3.546496391000e+00 3.546596391000e+00 0.000000000000e+00 0.000000000000e+00 
8.573356000000e+00 6.884381200000e+00 3.319609880000e+00 3.319709880000e+00 0.000000000000e+00 0.000000000000e+00 
8.186027300000e+00 6.216593100000e+00 3.103165150000e+00 3.103265150000e+00 0.000000000000e+00 0.000000000000e+00 
7.899807900000e+00 4.497103000000e+00 3.190345287000e+00 3.190445287000e+00 0.000000000000e+00 0.000000000000e+00 
8.570080000000e+00 3.963932000000e+00 3.365903139000e+00 3.366003139000e+00 0.000000000000e+00 0.000000000000e+00 
9.545021200000e+00 4.040099300000e+00 3.333420992000e+00 3.333520992000e+00 0.000000000000e+00 0.000000000000e+00 
1.033716100000e+01 4.116266600000e+00 3.297513247000e+00 3.297613247000e+00 0.000000000000e+00 0.000000000000e+00 
1.128163500000e+01 3.293659900000e+00 3.471640825000e+00 3.471740825000e+00 0.000000000000e+00 0.000000000000e+00 
1.165559100000e+01 2.178092500000e+00 3.775705338000e+00 3.775805338000e+00 0.000000000000e+00 0.000000000000e+00 
1.197486400000e+01 9.639518500000e-01 4.058483124000e+00 4.058583124000e+00 0.000000000000e+00 0.000000000000e+00 
1.257729100000e+01 0.000000000000e+00 4.207010746000e+00 4.207110746000e+00 0.000000000000e+00 0.000000000000e+00 
8.005289500000e+00 5.523037800000e+00 3.005081654000e+00 3.005181654000e+00 0.000000000000e+00 0.000000000000e+00 
7.522985600000e+00 5.400097600000e+00 3.027018785000e+00 3.027118785000e+00 0.000000000000e+00 0.000000000000e+00 
7.812076400000e+00 4.955061400000e+00 3.069467783000e+00 3.069567783000e+00 0.000000000000e+00 0.000000000000e+00 
1.113746500000e+01 1.176771300000e+01 3.913417339000e+00 3.913517339000e+00 0.000000000000e+00 0.000000000000e+00 
1.134951900000e+01 1.046127500000e+01 3.853829384000e+00 3.853929384000e+00 0.000000000000e+00 0.000000000000e+00 
1.219209100000e+01 1.264571500000e+01 3.893016577000e+00 3.893116577000e+00 0.000000000000e+00 0.000000000000e+00 
1.316835600000e+01 1.379251800000e+01 3.900000000000e+00 3.900100000000e+00 0.000000000000e+00 0.000000000000e+00 
1.174129300000e+01 9.329732600000e+00 3.683767319000e+00 3.683867319000e+00 0.000000000000e+00 0.000000000000e+00 
1.154060400000e+01 8.549202600000e+00 3.502798319000e+00 3.502898319000e+00 0.000000000000e+00 0.000000000000e+00 
1.108826100000e+01 7.749395500000e+00 3.307507038000e+00 3.307607038000e+00 0.000000000000e+00 0.000000000000e+00 
1.058394300000e+01 7.671167600000e+00 3.395370007000e+00 3.395470007000e+00 0.000000000000e+00 0.000000000000e+00 
1.055789400000e+01 7.225876300000e+00 3.291154861000e+00 3.291254861000e+00 0.000000000000e+00 0.000000000000e+00 
9.910072600000e+00 7.103715300000e+00 3.333101749000e+00 3.333201749000e+00 0.000000000000e+00 0.000000000000e+00 
9.262250900000e+00 6.981554300000e+00 3.345443964000e+00 3.345543964000e+00 0.000000000000e+00 0.000000000000e+00 
8.874922200000e+00 6.313766200000e+00 3.090593815000e+00 3.090693815000e+00 0.000000000000e+00 0.000000000000e+00 
8.487593500000e+00 5.645978100000e+00 2.980000019000e+00 2.980100019000e+00 0.000000000000e+00 0.000000000000e+00 
8.463445800000e+00 4.573270300000e+00 3.166312218000e+00 3.166412218000e+00 0.000000000000e+00 0.000000000000e+00 
8.294380300000e+00 5.078001600000e+00 3.084439754000e+00 3.084539754000e+00 0.000000000000e+00 0.000000000000e+00 
9.027083700000e+00 4.573270300000e+00 3.202203989000e+00 3.202303989000e+00 0.000000000000e+00 0.000000000000e+00 
9.402769600000e+00 4.669289300000e+00 3.190958023000e+00 3.191058023000e+00 0.000000000000e+00 0.000000000000e+00 
9.883180500000e+00 4.787423100000e+00 3.176948309000e+00 3.177048309000e+00 0.000000000000e+00 0.000000000000e+00 
1.065507800000e+01 4.875073900000e+00 3.160237312000e+00 3.160337312000e+00 0.000000000000e+00 0.000000000000e+00 
1.120546800000e+01 4.192433900000e+00 3.264654398000e+00 3.264754398000e+00 0.000000000000e+00 0.000000000000e+00 
1.216517600000e+01 4.238134200000e+00 3.232451677000e+00 3.232551677000e+00 0.000000000000e+00 0.000000000000e+00 
1.285463500000e+01 3.315934400000e+00 3.425906181000e+00 3.426006181000e+00 0.000000000000e+00 0.000000000000e+00 
1.318131500000e+01 2.144242000000e+00 3.752614975000e+00 3.752714975000e+00 0.000000000000e+00 0.000000000000e+00 
1.363778500000e+01 9.773009500000e-01 4.021594524000e+00 4.021694524000e+00 0.000000000000e+00 0.000000000000e+00 
1.456900000000e+01 0.000000000000e+00 4.128216267000e+00 4.128316267000e+00 0.000000000000e+00 0.000000000000e+00 
1.243476800000e+01 1.148189000000e+01 3.885788918000e+00 3.885888918000e+00 0.000000000000e+00 0.000000000000e+00 
1.287387000000e+01 1.039894100000e+01 3.806472063000e+00 3.806572063000e+00 0.000000000000e+00 0.000000000000e+00 
1.329393000000e+01 1.249272600000e+01 3.882225990000e+00 3.882325990000e+00 0.000000000000e+00 0.000000000000e+00 
1.455854500000e+01 1.287613700000e+01 3.872153282000e+00 3.872253282000e+00 0.000000000000e+00 0.000000000000e+00 
1.512565400000e+01 1.416128400000e+01 3.880000000000e+00 3.880100000000e+00 0.000000000000e+00 0.000000000000e+00 
1.336661000000e+01 9.336634800000e+00 3.641113997000e+00 3.641213997000e+00 0.000000000000e+00 0.000000000000e+00 
1.235899500000e+01 8.568327900000e+00 3.462426424000e+00 3.462526424000e+00 0.000000000000e+00 0.000000000000e+00 
1.192872500000e+01 7.875198700000e+00 3.278804064000e+00 3.278904064000e+00 0.000000000000e+00 0.000000000000e+00 
1.156652900000e+01 7.382331900000e+00 3.149300814000e+00 3.149400814000e+00 0.000000000000e+00 0.000000000000e+00 
1.106221200000e+01 7.304104100000e+00 3.206467628000e+00 3.206567628000e+00 0.000000000000e+00 0.000000000000e+00 
1.096965600000e+01 6.804747800000e+00 3.091229916000e+00 3.091329916000e+00 0.000000000000e+00 0.000000000000e+00 
1.048735200000e+01 6.681807600000e+00 3.103756905000e+00 3.103856905000e+00 0.000000000000e+00 0.000000000000e+00 
9.839530100000e+00 6.559646600000e+00 3.122510433000e+00 3.122610433000e+00 0.000000000000e+00 0.000000000000e+00 
9.357226100000e+00 6.436706400000e+00 3.107890606000e+00 3.107990606000e+00 0.000000000000e+00 0.000000000000e+00 
9.452201300000e+00 5.891858500000e+00 2.980000019000e+00 2.980100019000e+00 0.000000000000e+00 0.000000000000e+00 
8.969897400000e+00 5.768918300000e+00 2.980000019000e+00 2.980100019000e+00 0.000000000000e+00 0.000000000000e+00 
8.845443300000e+00 5.309718000000e+00 3.090759754000e+00 3.090859754000e+00 0.000000000000e+00 0.000000000000e+00 
8.737648000000e+00 4.954106700000e+00 3.125765085000e+00 3.125865085000e+00 0.000000000000e+00 0.000000000000e+00 
9.203293100000e+00 4.973458000000e+00 3.148438454000e+00 3.148538454000e+00 0.000000000000e+00 0.000000000000e+00 
9.683704000000e+00 5.091591800000e+00 3.148796320000e+00 3.148896320000e+00 0.000000000000e+00 0.000000000000e+00 
1.016411500000e+01 5.209725600000e+00 3.138882637000e+00 3.138982637000e+00 0.000000000000e+00 0.000000000000e+00 
1.068390400000e+01 5.288481500000e+00 3.127420902000e+00 3.127520902000e+00 0.000000000000e+00 0.000000000000e+00 
1.117486700000e+01 4.953829800000e+00 3.144247293000e+00 3.144347293000e+00 0.000000000000e+00 0.000000000000e+00 
1.180141100000e+01 5.062087800000e+00 3.109231710000e+00 3.109331710000e+00 0.000000000000e+00 0.000000000000e+00 
1.248507800000e+01 5.136908200000e+00 3.089539289000e+00 3.089639289000e+00 0.000000000000e+00 0.000000000000e+00 
1.314011700000e+01 4.268601200000e+00 3.210625410000e+00 3.210725410000e+00 0.000000000000e+00 0.000000000000e+00 
1.432915600000e+01 3.285518700000e+00 3.460054636000e+00 3.460154636000e+00 0.000000000000e+00 0.000000000000e+00 
1.470798700000e+01 2.207028200000e+00 3.761569262000e+00 3.761669262000e+00 0.000000000000e+00 0.000000000000e+00 
1.509113500000e+01 1.198010400000e+00 3.961020470000e+00 3.961120470000e+00 0.000000000000e+00 0.000000000000e+00 
1.656070800000e+01 0.000000000000e+00 4.111886501000e+00 4.111986501000e+00 0.000000000000e+00 0.000000000000e+00 
1.388822100000e+01 1.156471600000e+01 3.854814291000e+00 3.854914291000e+00 0.000000000000e+00 0.000000000000e+00 
1.442842800000e+01 1.051864000000e+01 3.752629995000e+00 3.752729995000e+00 0.000000000000e+00 0.000000000000e+00 
1.613257000000e+01 1.314389700000e+01 3.872714281000e+00 3.872814281000e+00 0.000000000000e+00 0.000000000000e+00 
1.541410900000e+01 1.181999200000e+01 3.839896202000e+00 3.839996202000e+00 0.000000000000e+00 0.000000000000e+00 
1.708560000000e+01 1.451436900000e+01 3.850000000000e+00 3.850100000000e+00 0.000000000000e+00 0.000000000000e+00 
1.467869600000e+01 9.432743000000e+00 3.568227768000e+00 3.568327768000e+00 0.000000000000e+00 0.000000000000e+00 
1.414552500000e+01 8.808171300000e+00 3.461630106000e+00 3.461730106000e+00 0.000000000000e+00 0.000000000000e+00 
1.324675100000e+01 8.640603300000e+00 3.466863871000e+00 3.466963871000e+00 0.000000000000e+00 0.000000000000e+00 
1.306253000000e+01 8.033238500000e+00 3.328230858000e+00 3.328330858000e+00 0.000000000000e+00 0.000000000000e+00 
1.250304200000e+01 7.938646700000e+00 3.296148539000e+00 3.296248539000e+00 0.000000000000e+00 0.000000000000e+00 
1.214084600000e+01 7.445779900000e+00 3.168900728000e+00 3.169000728000e+00 0.000000000000e+00 0.000000000000e+00 
1.195627700000e+01 7.005915900000e+00 3.065669537000e+00 3.065769537000e+00 0.000000000000e+00 0.000000000000e+00 
1.147397300000e+01 6.882975600000e+00 3.046249151000e+00 3.046349151000e+00 0.000000000000e+00 0.000000000000e+00 
1.138141700000e+01 6.383619400000e+00 2.980000019000e+00 2.980100019000e+00 0.000000000000e+00 0.000000000000e+00 
1.089911300000e+01 6.260679100000e+00 2.980000019000e+00 2.980100019000e+00 0.000000000000e+00 0.000000000000e+00 
1.041680900000e+01 6.137738900000e+00 2.980000019000e+00 2.980100019000e+00 0.000000000000e+00 0.000000000000e+00 
9.934505300000e+00 6.014798700000e+00 2.980000019000e+00 2.980100019000e+00 0.000000000000e+00 0.000000000000e+00 
9.808158100000e+00 5.550792100000e+00 3.100575209000e+00 3.100675209000e+00 0.000000000000e+00 0.000000000000e+00 
9.327747200000e+00 5.432658200000e+00 3.102870226000e+00 3.102970226000e+00 0.000000000000e+00 0.000000000000e+00 
1.029046200000e+01 5.673732300000e+00 3.086367607000e+00 3.086467607000e+00 0.000000000000e+00 0.000000000000e+00 
1.081025100000e+01 5.752488200000e+00 3.075887442000e+00 3.075987442000e+00 0.000000000000e+00 0.000000000000e+00 
1.120369300000e+01 5.367237400000e+00 3.101126432000e+00 3.101226432000e+00 0.000000000000e+00 0.000000000000e+00 
1.183023700000e+01 5.475495400000e+00 3.065884113000e+00 3.065984113000e+00 0.000000000000e+00 0.000000000000e+00 
1.314383200000e+01 5.211277400000e+00 3.082191467000e+00 3.082291467000e+00 0.000000000000e+00 0.000000000000e+00 
1.245678100000e+01 5.583753400000e+00 3.048386097000e+00 3.048486097000e+00 0.000000000000e+00 0.000000000000e+00 
1.397795700000e+01 4.817005600000e+00 3.140088320000e+00 3.140188320000e+00 0.000000000000e+00 0.000000000000e+00 
1.426739300000e+01 4.222900800000e+00 3.244940758000e+00 3.245040758000e+00 0.000000000000e+00 0.000000000000e+00 
1.545667600000e+01 4.321716900000e+00 3.266068220000e+00 3.266168220000e+00 0.000000000000e+00 0.000000000000e+00 
1.586453800000e+01 3.314587500000e+00 3.518735170000e+00 3.518835170000e+00 0.000000000000e+00 0.000000000000e+00 
1.624358600000e+01 2.242409700000e+00 3.770559788000e+00 3.770659788000e+00 0.000000000000e+00 0.000000000000e+00 
1.637821300000e+01 1.001958800000e+00 3.995491266000e+00 3.995591266000e+00 0.000000000000e+00 0.000000000000e+00 
1.801610600000e+01 1.000165900000e+00 4.029230595000e+00 4.029330595000e+00 0.000000000000e+00 0.000000000000e+00 
1.855241700000e+01 0.000000000000e+00 4.166259289000e+00 4.166359289000e+00 0.000000000000e+00 0.000000000000e+00 
1.598423500000e+01 1.069060900000e+01 3.705482960000e+00 3.705582960000e+00 0.000000000000e+00 0.000000000000e+00 
1.583643900000e+01 9.478443400000e+00 3.469321489000e+00 3.469421489000e+00 0.000000000000e+00 0.000000000000e+00 
1.760007600000e+01 1.355700600000e+01 3.844870329000e+00 3.844970329000e+00 0.000000000000e+00 0.000000000000e+00 
1.711609600000e+01 1.210196800000e+01 3.818820953000e+00 3.818920953000e+00 0.000000000000e+00 0.000000000000e+00 
1.905546300000e+01 1.480871600000e+01 3.820000000000e+00 3.820100000000e+00 0.000000000000e+00 0.000000000000e+00 
1.502906600000e+01 8.884338600000e+00 3.403855562000e+00 3.403955562000e+00 0.000000000000e+00 0.000000000000e+00 
1.466346300000e+01 8.396868000000e+00 3.332757235000e+00 3.332857235000e+00 0.000000000000e+00 0.000000000000e+00 
1.397795700000e+01 8.183599600000e+00 3.337578297000e+00 3.337678297000e+00 0.000000000000e+00 0.000000000000e+00 
1.383413900000e+01 7.698411600000e+00 3.218529940000e+00 3.218629940000e+00 0.000000000000e+00 0.000000000000e+00 
1.327465100000e+01 7.603819800000e+00 3.215194702000e+00 3.215294702000e+00 0.000000000000e+00 0.000000000000e+00 
1.271516300000e+01 7.509227900000e+00 3.183566332000e+00 3.183666332000e+00 0.000000000000e+00 0.000000000000e+00 
1.253059400000e+01 7.069363900000e+00 3.067712307000e+00 3.067812307000e+00 0.000000000000e+00 0.000000000000e+00 
1.234602500000e+01 6.629499800000e+00 2.980000019000e+00 2.980100019000e+00 0.000000000000e+00 0.000000000000e+00 
1.186372100000e+01 6.506559600000e+00 2.980000019000e+00 2.980100019000e+00 0.000000000000e+00 0.000000000000e+00 
1.191909900000e+01 5.983686400000e+00 3.024810076000e+00 3.024910076000e+00 0.000000000000e+00 0.000000000000e+00 
1.129255500000e+01 5.875428400000e+00 3.041882753000e+00 3.041982753000e+00 0.000000000000e+00 0.000000000000e+00 
1.307458000000e+01 5.766892200000e+00 3.048194170000e+00 3.048294170000e+00 0.000000000000e+00 0.000000000000e+00 
1.379515600000e+01 5.411110400000e+00 3.079855919000e+00 3.079955919000e+00 0.000000000000e+00 0.000000000000e+00 
1.240140300000e+01 6.106626600000e+00 3.008229256000e+00 3.008329256000e+00 0.000000000000e+00 0.000000000000e+00 
1.289373100000e+01 6.179009000000e+00 3.014853239000e+00 3.014953239000e+00 0.000000000000e+00 0.000000000000e+00 
1.437409900000e+01 5.623428000000e+00 3.076548338000e+00 3.076648338000e+00 0.000000000000e+00 0.000000000000e+00 
1.498621800000e+01 5.027288400000e+00 3.134714127000e+00 3.134814127000e+00 0.000000000000e+00 0.000000000000e+00 
1.601924000000e+01 5.121674800000e+00 3.138818502000e+00 3.138918502000e+00 0.000000000000e+00 0.000000000000e+00 
1.658287800000e+01 4.420935700000e+00 3.264365673000e+00 3.264465673000e+00 0.000000000000e+00 0.000000000000e+00 
1.740635200000e+01 3.363864900000e+00 3.505896091000e+00 3.505996091000e+00 0.000000000000e+00 0.000000000000e+00 
1.771681400000e+01 2.195526600000e+00 3.782129049000e+00 3.782229049000e+00 0.000000000000e+00 0.000000000000e+00 
1.925129800000e+01 2.241909500000e+00 3.787467003000e+00 3.787567003000e+00 0.000000000000e+00 0.000000000000e+00 
1.966589500000e+01 1.043261300000e+00 3.997057676000e+00 3.997157676000e+00 0.000000000000e+00 0.000000000000e+00 
2.054412500000e+01 0.000000000000e+00 4.103055000000e+00 4.103155000000e+00 0.000000000000e+00 0.000000000000e+00 
1.766445400000e+01 1.068188600000e+01 3.650138617000e+00 3.650238617000e+00 0.000000000000e+00 0.000000000000e+00 
1.694848100000e+01 9.539377200000e+00 3.437199593000e+00 3.437299593000e+00 0.000000000000e+00 0.000000000000e+00 
1.653717800000e+01 8.732004000000e+00 3.265614271000e+00 3.265714271000e+00 0.000000000000e+00 0.000000000000e+00 
1.579073900000e+01 8.732004000000e+00 3.308085442000e+00 3.308185442000e+00 0.000000000000e+00 0.000000000000e+00 
1.860562600000e+01 1.320064600000e+01 3.807823658000e+00 3.807923658000e+00 0.000000000000e+00 0.000000000000e+00 
1.879393700000e+01 1.202953400000e+01 3.743937016000e+00 3.744037016000e+00 0.000000000000e+00 0.000000000000e+00 
2.014335800000e+01 1.349763300000e+01 3.781786442000e+00 3.781886442000e+00 0.000000000000e+00 0.000000000000e+00 
2.102532700000e+01 1.510306400000e+01 3.820000000000e+00 3.820100000000e+00 0.000000000000e+00 0.000000000000e+00 
1.525174500000e+01 8.013435100000e+00 3.194186926000e+00 3.194286926000e+00 0.000000000000e+00 0.000000000000e+00 
1.454294200000e+01 7.855923400000e+00 3.220527887000e+00 3.220627887000e+00 0.000000000000e+00 0.000000000000e+00 
1.407513400000e+01 7.306727200000e+00 3.077866316000e+00 3.077966316000e+00 0.000000000000e+00 0.000000000000e+00 
1.358241100000e+01 7.236338100000e+00 3.085541964000e+00 3.085641964000e+00 0.000000000000e+00 0.000000000000e+00 
1.302292300000e+01 7.141746300000e+00 3.077480078000e+00 3.077580078000e+00 0.000000000000e+00 0.000000000000e+00 
1.283835400000e+01 6.701882200000e+00 2.980000019000e+00 2.980100019000e+00 0.000000000000e+00 0.000000000000e+00 
1.351153000000e+01 6.362147800000e+00 3.023535013000e+00 3.023635013000e+00 0.000000000000e+00 0.000000000000e+00 
1.369237900000e+01 5.950031000000e+00 3.059720993000e+00 3.059820993000e+00 0.000000000000e+00 0.000000000000e+00 
1.333068200000e+01 6.774264700000e+00 2.980000019000e+00 2.980100019000e+00 0.000000000000e+00 0.000000000000e+00 
1.483982400000e+01 6.182896800000e+00 3.057713509000e+00 3.057813509000e+00 0.000000000000e+00 0.000000000000e+00 
1.494782100000e+01 5.739860900000e+00 3.069496632000e+00 3.069596632000e+00 0.000000000000e+00 0.000000000000e+00 
1.426610100000e+01 6.066463900000e+00 3.062542677000e+00 3.062642677000e+00 0.000000000000e+00 0.000000000000e+00 
1.550761700000e+01 5.765608300000e+00 3.063685417000e+00 3.063785417000e+00 0.000000000000e+00 0.000000000000e+00 
1.713128300000e+01 5.213075500000e+00 3.127568960000e+00 3.127668960000e+00 0.000000000000e+00 0.000000000000e+00 
1.622896400000e+01 5.798180400000e+00 3.059857130000e+00 3.059957130000e+00 0.000000000000e+00 0.000000000000e+00 
1.778632100000e+01 4.481869600000e+00 3.230340481000e+00 3.230440481000e+00 0.000000000000e+00 0.000000000000e+00 
1.891471000000e+01 3.423967700000e+00 3.506155014000e+00 3.506255014000e+00 0.000000000000e+00 0.000000000000e+00 
2.042692400000e+01 3.475006900000e+00 3.531856060000e+00 3.531956060000e+00 0.000000000000e+00 0.000000000000e+00 
2.077045300000e+01 2.335246000000e+00 3.784193039000e+00 3.784293039000e+00 0.000000000000e+00 0.000000000000e+00 
2.111246400000e+01 1.275979300000e+00 3.966376781000e+00 3.966476781000e+00 0.000000000000e+00 0.000000000000e+00 
2.253583300000e+01 0.000000000000e+00 4.162546158000e+00 4.162646158000e+00 0.000000000000e+00 0.000000000000e+00 
1.908731500000e+01 1.074242400000e+01 3.566650152000e+00 3.566750152000e+00 0.000000000000e+00 0.000000000000e+00 
1.866986200000e+01 9.691711800000e+00 3.382387877000e+00 3.382487877000e+00 0.000000000000e+00 0.000000000000e+00 
1.784950300000e+01 9.596146000000e+00 3.413465977000e+00 3.413565977000e+00 0.000000000000e+00 0.000000000000e+00 
1.729092900000e+01 8.891422000000e+00 3.287059546000e+00 3.287159546000e+00 0.000000000000e+00 0.000000000000e+00 
1.673235600000e+01 8.186698100000e+00 3.136887074000e+00 3.136987074000e+00 0.000000000000e+00 0.000000000000e+00 
1.599205000000e+01 8.100066600000e+00 3.153158188000e+00 3.153258188000e+00 0.000000000000e+00 0.000000000000e+00 
2.027546700000e+01 1.194107500000e+01 3.693436623000e+00 3.693536623000e+00 0.000000000000e+00 0.000000000000e+00 
2.195146200000e+01 1.408034200000e+01 3.782034159000e+00 3.782134159000e+00 0.000000000000e+00 0.000000000000e+00 
2.144013700000e+01 1.287071800000e+01 3.759658813000e+00 3.759758813000e+00 0.000000000000e+00 0.000000000000e+00 
2.299519100000e+01 1.539741100000e+01 3.840000000000e+00 3.840100000000e+00 0.000000000000e+00 0.000000000000e+00 
1.576938500000e+01 7.605017200000e+00 3.055827141000e+00 3.055927141000e+00 0.000000000000e+00 0.000000000000e+00 
1.527666100000e+01 7.534628100000e+00 3.063309669000e+00 3.063409669000e+00 0.000000000000e+00 0.000000000000e+00 
1.478393700000e+01 7.464239000000e+00 3.084179640000e+00 3.084279640000e+00 0.000000000000e+00 0.000000000000e+00 
1.431613000000e+01 6.915042900000e+00 2.980000019000e+00 2.980100019000e+00 0.000000000000e+00 0.000000000000e+00 
1.382340600000e+01 6.844653800000e+00 2.980000019000e+00 2.980100019000e+00 0.000000000000e+00 0.000000000000e+00 
1.400425400000e+01 6.432536900000e+00 3.027334690000e+00 3.027434690000e+00 0.000000000000e+00 0.000000000000e+00 
1.507070100000e+01 6.619359000000e+00 3.022147417000e+00 3.022247417000e+00 0.000000000000e+00 0.000000000000e+00 
1.457797700000e+01 6.548969900000e+00 3.027988195000e+00 3.028088195000e+00 0.000000000000e+00 0.000000000000e+00 
1.539962000000e+01 6.208644200000e+00 3.048561096000e+00 3.048661096000e+00 0.000000000000e+00 0.000000000000e+00 
1.595941500000e+01 6.234391600000e+00 3.040691137000e+00 3.040791137000e+00 0.000000000000e+00 0.000000000000e+00 
1.818239100000e+01 5.350176600000e+00 3.099389076000e+00 3.099489076000e+00 0.000000000000e+00 0.000000000000e+00 