0.000000000000e+00 0.000000000000e+00
VARIABLES = "Time","Value"
ZONE T=OUTPUT
7.000000000000e-01 0.000000000000e+00
0.000000000000e+00 0.000000000000e+00
VARIABLES = "Time","Value"
ZONE T=OUTPUT
7.000000000000e-01 0.000000000000e+00
0.000000000000e+00 0.000000000000e+00
0.000000000000e+00 0.000000000000e+00
VARIABLES = "Time","Value"
ZONE T=OUTPUT
7.000000000000e-01 0.000000000000e+00
0.000000000000e+00 0.000000000000e+00
0.000000000000e+00 0.000000000000e+00
VARIABLES = "Time","Value"
ZONE T=OUTPUT
7.000000000000e-01 0.000000000000e+00
