 TITLE = "Time curves in points"
 VARIABLES = "TIME "  "WDEPTH"  "HEAD"  "FLUX" 
 ZONE T="POINT=POINT4"
0.000000000000e+00 0.000000000000e+00 3.012905939000e+00 0.000000000000e+00 
7.000000000000e-01 7.625617291529e-05 3.012882195173e+00 1.044247924060e-06 
