VARIABLES  = "X","Y","Z", "PRESSURE1", "Tracer"
ZONE T="0.000000000000e+00s", N=409, E=736, F=FEPOINT, ET=QUADRILATERAL
STRANDID=1, SOLUTIONTIME=0.000000000000e+00
0.000000000000e+00 1.000000000000e+00 0.000000000000e+00 0.000000000000e+00 0.000000000000e+00 
3.500000000000e-01 1.000000000000e+00 0.000000000000e+00 0.000000000000e+00 0.000000000000e+00 
0.000000000000e+00 6.500000000000e-01 0.000000000000e+00 0.000000000000e+00 0.000000000000e+00 
6.500000000000e-01 1.000000000000e+00 0.000000000000e+00 0.000000000000e+00 0.000000000000e+00 
0.000000000000e+00 3.500000000000e-01 0.000000000000e+00 0.000000000000e+00 0.000000000000e+00 
1.000000000000e+00 1.000000000000e+00 0.000000000000e+00 0.000000000000e+00 0.000000000000e+00 
0.000000000000e+00 0.000000000000e+00 0.000000000000e+00 0.000000000000e+00 1.000000000000e+00 
1.000000000000e+00 7.000000000000e-01 0.000000000000e+00 0.000000000000e+00 0.000000000000e+00 
3.000000000000e-01 0.000000000000e+00 0.000000000000e+00 0.000000000000e+00 1.000000000000e+00 
1.000000000000e+00 4.500000000000e-01 0.000000000000e+00 0.000000000000e+00 0.000000000000e+00 
5.500000000000e-01 0.000000000000e+00 0.000000000000e+00 0.000000000000e+00 0.000000000000e+00 
1.000000000000e+00 1.500000000000e-01 0.000000000000e+00 0.000000000000e+00 0.000000000000e+00 
8.500000000000e-01 0.000000000000e+00 0.000000000000e+00 0.000000000000e+00 0.000000000000e+00 
1.000000000000e+00 0.000000000000e+00 0.000000000000e+00 0.000000000000e+00 0.000000000000e+00 
5.000000000000e-02 1.000000000000e+00 0.000000000000e+00 0.000000000000e+00 0.000000000000e+00 
1.000000000000e-01 1.000000000000e+00 0.000000000000e+00 0.000000000000e+00 0.000000000000e+00 
1.500000000000e-01 1.000000000000e+00 0.000000000000e+00 0.000000000000e+00 0.000000000000e+00 
2.000000000000e-01 1.000000000000e+00 0.000000000000e+00 0.000000000000e+00 0.000000000000e+00 
2.500000000000e-01 1.000000000000e+00 0.000000000000e+00 0.000000000000e+00 0.000000000000e+00 
3.000000000000e-01 1.000000000000e+00 0.000000000000e+00 0.000000000000e+00 0.000000000000e+00 
3.146447000000e-01 9.646447000000e-01 0.000000000000e+00 0.000000000000e+00 0.000000000000e+00 
2.792893000000e-01 9.292893000000e-01 0.000000000000e+00 0.000000000000e+00 0.000000000000e+00 
2.439340000000e-01 8.939340000000e-01 0.000000000000e+00 0.000000000000e+00 0.000000000000e+00 
2.085786000000e-01 8.585786000000e-01 0.000000000000e+00 0.000000000000e+00 0.000000000000e+00 
1.732233000000e-01 8.232233000000e-01 0.000000000000e+00 0.000000000000e+00 0.000000000000e+00 
1.378680000000e-01 7.878680000000e-01 0.000000000000e+00 0.000000000000e+00 0.000000000000e+00 
1.025126000000e-01 7.525126000000e-01 0.000000000000e+00 0.000000000000e+00 0.000000000000e+00 
6.715730000000e-02 7.171573000000e-01 0.000000000000e+00 0.000000000000e+00 0.000000000000e+00 
0.000000000000e+00 7.000000000000e-01 0.000000000000e+00 0.000000000000e+00 0.000000000000e+00 
0.000000000000e+00 7.500000000000e-01 0.000000000000e+00 0.000000000000e+00 0.000000000000e+00 
0.000000000000e+00 8.000000000000e-01 0.000000000000e+00 0.000000000000e+00 0.000000000000e+00 
0.000000000000e+00 8.500000000000e-01 0.000000000000e+00 0.000000000000e+00 0.000000000000e+00 
0.000000000000e+00 9.000000000000e-01 0.000000000000e+00 0.000000000000e+00 0.000000000000e+00 
0.000000000000e+00 9.500000000000e-01 0.000000000000e+00 0.000000000000e+00 0.000000000000e+00 
4.000000000000e-01 1.000000000000e+00 0.000000000000e+00 0.000000000000e+00 0.000000000000e+00 
4.500000000000e-01 1.000000000000e+00 0.000000000000e+00 0.000000000000e+00 0.000000000000e+00 
5.000000000000e-01 1.000000000000e+00 0.000000000000e+00 0.000000000000e+00 0.000000000000e+00 
5.500000000000e-01 1.000000000000e+00 0.000000000000e+00 0.000000000000e+00 0.000000000000e+00 
6.000000000000e-01 1.000000000000e+00 0.000000000000e+00 0.000000000000e+00 0.000000000000e+00 
6.146447000000e-01 9.646447000000e-01 0.000000000000e+00 0.000000000000e+00 0.000000000000e+00 
5.792893000000e-01 9.292893000000e-01 0.000000000000e+00 0.000000000000e+00 0.000000000000e+00 
5.439340000000e-01 8.939340000000e-01 0.000000000000e+00 0.000000000000e+00 0.000000000000e+00 
5.085786000000e-01 8.585786000000e-01 0.000000000000e+00 0.000000000000e+00 0.000000000000e+00 
4.732233000000e-01 8.232233000000e-01 0.000000000000e+00 0.000000000000e+00 0.000000000000e+00 
4.378680000000e-01 7.878680000000e-01 0.000000000000e+00 0.000000000000e+00 0.000000000000e+00 
4.025126000000e-01 7.525126000000e-01 0.000000000000e+00 0.000000000000e+00 0.000000000000e+00 
3.671573000000e-01 7.171573000000e-01 0.000000000000e+00 0.000000000000e+00 0.000000000000e+00 
3.318019000000e-01 6.818019000000e-01 0.000000000000e+00 0.000000000000e+00 0.000000000000e+00 
2.964466000000e-01 6.464466000000e-01 0.000000000000e+00 0.000000000000e+00 0.000000000000e+00 
2.610913000000e-01 6.110913000000e-01 0.000000000000e+00 0.000000000000e+00 0.000000000000e+00 
2.257359000000e-01 5.757359000000e-01 0.000000000000e+00 0.000000000000e+00 0.000000000000e+00 
1.903806000000e-01 5.403806000000e-01 0.000000000000e+00 0.000000000000e+00 0.000000000000e+00 
1.550253000000e-01 5.050253000000e-01 0.000000000000e+00 0.000000000000e+00 0.000000000000e+00 
1.196699000000e-01 4.696699000000e-01 0.000000000000e+00 0.000000000000e+00 0.000000000000e+00 
8.431460000000e-02 4.343146000000e-01 0.000000000000e+00 0.000000000000e+00 0.000000000000e+00 
4.895920000000e-02 3.989592000000e-01 0.000000000000e+00 0.000000000000e+00 0.000000000000e+00 
0.000000000000e+00 4.000000000000e-01 0.000000000000e+00 0.000000000000e+00 0.000000000000e+00 
0.000000000000e+00 4.500000000000e-01 0.000000000000e+00 0.000000000000e+00 0.000000000000e+00 
0.000000000000e+00 5.000000000000e-01 0.000000000000e+00 0.000000000000e+00 0.000000000000e+00 
0.000000000000e+00 5.500000000000e-01 0.000000000000e+00 0.000000000000e+00 0.000000000000e+00 
0.000000000000e+00 6.000000000000e-01 0.000000000000e+00 0.000000000000e+00 0.000000000000e+00 
7.000000000000e-01 1.000000000000e+00 0.000000000000e+00 0.000000000000e+00 0.000000000000e+00 
7.500000000000e-01 1.000000000000e+00 0.000000000000e+00 0.000000000000e+00 0.000000000000e+00 
8.000000000000e-01 1.000000000000e+00 0.000000000000e+00 0.000000000000e+00 0.000000000000e+00 
8.500000000000e-01 1.000000000000e+00 0.000000000000e+00 0.000000000000e+00 0.000000000000e+00 
9.000000000000e-01 1.000000000000e+00 0.000000000000e+00 0.000000000000e+00 0.000000000000e+00 
9.500000000000e-01 1.000000000000e+00 0.000000000000e+00 0.000000000000e+00 0.000000000000e+00 
9.646447000000e-01 9.646447000000e-01 0.000000000000e+00 0.000000000000e+00 0.000000000000e+00 
9.292893000000e-01 9.292893000000e-01 0.000000000000e+00 0.000000000000e+00 0.000000000000e+00 
8.939340000000e-01 8.939340000000e-01 0.000000000000e+00 0.000000000000e+00 0.000000000000e+00 
8.585786000000e-01 8.585786000000e-01 0.000000000000e+00 0.000000000000e+00 0.000000000000e+00 
8.232233000000e-01 8.232233000000e-01 0.000000000000e+00 0.000000000000e+00 0.000000000000e+00 
7.878680000000e-01 7.878680000000e-01 0.000000000000e+00 0.000000000000e+00 0.000000000000e+00 
7.525126000000e-01 7.525126000000e-01 0.000000000000e+00 0.000000000000e+00 0.000000000000e+00 
7.171573000000e-01 7.171573000000e-01 0.000000000000e+00 0.000000000000e+00 0.000000000000e+00 
6.818019000000e-01 6.818019000000e-01 0.000000000000e+00 0.000000000000e+00 0.000000000000e+00 
6.464466000000e-01 6.464466000000e-01 0.000000000000e+00 0.000000000000e+00 0.000000000000e+00 
6.110913000000e-01 6.110913000000e-01 0.000000000000e+00 0.000000000000e+00 0.000000000000e+00 
5.757359000000e-01 5.757359000000e-01 0.000000000000e+00 0.000000000000e+00 0.000000000000e+00 
5.403806000000e-01 5.403806000000e-01 0.000000000000e+00 0.000000000000e+00 0.000000000000e+00 
5.050253000000e-01 5.050253000000e-01 0.000000000000e+00 0.000000000000e+00 0.000000000000e+00 
4.696699000000e-01 4.696699000000e-01 0.000000000000e+00 0.000000000000e+00 0.000000000000e+00 
4.343146000000e-01 4.343146000000e-01 0.000000000000e+00 0.000000000000e+00 0.000000000000e+00 
3.989592000000e-01 3.989592000000e-01 0.000000000000e+00 0.000000000000e+00 0.000000000000e+00 
3.636039000000e-01 3.636039000000e-01 0.000000000000e+00 0.000000000000e+00 0.000000000000e+00 
3.282486000000e-01 3.282486000000e-01 0.000000000000e+00 0.000000000000e+00 0.000000000000e+00 
2.928932000000e-01 2.928932000000e-01 0.000000000000e+00 0.000000000000e+00 0.000000000000e+00 
2.575379000000e-01 2.575379000000e-01 0.000000000000e+00 0.000000000000e+00 0.000000000000e+00 
2.221825000000e-01 2.221825000000e-01 0.000000000000e+00 0.000000000000e+00 0.000000000000e+00 
1.868272000000e-01 1.868272000000e-01 0.000000000000e+00 0.000000000000e+00 0.000000000000e+00 
1.514719000000e-01 1.514719000000e-01 0.000000000000e+00 0.000000000000e+00 0.000000000000e+00 
1.161165000000e-01 1.161165000000e-01 0.000000000000e+00 0.000000000000e+00 0.000000000000e+00 
8.076120000000e-02 8.076120000000e-02 0.000000000000e+00 0.000000000000e+00 0.000000000000e+00 
4.540580000000e-02 4.540580000000e-02 0.000000000000e+00 0.000000000000e+00 0.000000000000e+00 
0.000000000000e+00 5.000000000000e-02 0.000000000000e+00 0.000000000000e+00 1.000000000000e+00 
0.000000000000e+00 1.000000000000e-01 0.000000000000e+00 0.000000000000e+00 1.000000000000e+00 
0.000000000000e+00 1.500000000000e-01 0.000000000000e+00 0.000000000000e+00 1.000000000000e+00 
0.000000000000e+00 2.000000000000e-01 0.000000000000e+00 0.000000000000e+00 1.000000000000e+00 
0.000000000000e+00 2.500000000000e-01 0.000000000000e+00 0.000000000000e+00 1.000000000000e+00 
0.000000000000e+00 3.000000000000e-01 0.000000000000e+00 0.000000000000e+00 1.000000000000e+00 
1.000000000000e+00 9.500000000000e-01 0.000000000000e+00 0.000000000000e+00 0.000000000000e+00 
1.000000000000e+00 9.000000000000e-01 0.000000000000e+00 0.000000000000e+00 0.000000000000e+00 
1.000000000000e+00 8.500000000000e-01 0.000000000000e+00 0.000000000000e+00 0.000000000000e+00 
1.000000000000e+00 8.000000000000e-01 0.000000000000e+00 0.000000000000e+00 0.000000000000e+00 
1.000000000000e+00 7.500000000000e-01 0.000000000000e+00 0.000000000000e+00 0.000000000000e+00 
9.646447000000e-01 6.646447000000e-01 0.000000000000e+00 0.000000000000e+00 0.000000000000e+00 
9.292893000000e-01 6.292893000000e-01 0.000000000000e+00 0.000000000000e+00 0.000000000000e+00 
8.939340000000e-01 5.939340000000e-01 0.000000000000e+00 0.000000000000e+00 0.000000000000e+00 
8.585786000000e-01 5.585786000000e-01 0.000000000000e+00 0.000000000000e+00 0.000000000000e+00 
8.232233000000e-01 5.232233000000e-01 0.000000000000e+00 0.000000000000e+00 0.000000000000e+00 
7.878680000000e-01 4.878680000000e-01 0.000000000000e+00 0.000000000000e+00 0.000000000000e+00 
7.525126000000e-01 4.525126000000e-01 0.000000000000e+00 0.000000000000e+00 0.000000000000e+00 
7.171573000000e-01 4.171573000000e-01 0.000000000000e+00 0.000000000000e+00 0.000000000000e+00 
6.818019000000e-01 3.818019000000e-01 0.000000000000e+00 0.000000000000e+00 0.000000000000e+00 
6.464466000000e-01 3.464466000000e-01 0.000000000000e+00 0.000000000000e+00 0.000000000000e+00 
6.110913000000e-01 3.110913000000e-01 0.000000000000e+00 0.000000000000e+00 0.000000000000e+00 
5.757359000000e-01 2.757359000000e-01 0.000000000000e+00 0.000000000000e+00 0.000000000000e+00 
5.403806000000e-01 2.403806000000e-01 0.000000000000e+00 0.000000000000e+00 0.000000000000e+00 
5.050253000000e-01 2.050253000000e-01 0.000000000000e+00 0.000000000000e+00 0.000000000000e+00 
4.696699000000e-01 1.696699000000e-01 0.000000000000e+00 0.000000000000e+00 0.000000000000e+00 
4.343146000000e-01 1.343146000000e-01 0.000000000000e+00 0.000000000000e+00 0.000000000000e+00 
3.989592000000e-01 9.895920000000e-02 0.000000000000e+00 0.000000000000e+00 0.000000000000e+00 
3.636039000000e-01 6.360390000000e-02 0.000000000000e+00 0.000000000000e+00 0.000000000000e+00 
2.500000000000e-01 0.000000000000e+00 0.000000000000e+00 0.000000000000e+00 1.000000000000e+00 
2.000000000000e-01 0.000000000000e+00 0.000000000000e+00 0.000000000000e+00 1.000000000000e+00 
1.500000000000e-01 0.000000000000e+00 0.000000000000e+00 0.000000000000e+00 1.000000000000e+00 
1.000000000000e-01 0.000000000000e+00 0.000000000000e+00 0.000000000000e+00 1.000000000000e+00 
5.000000000000e-02 0.000000000000e+00 0.000000000000e+00 0.000000000000e+00 1.000000000000e+00 
1.000000000000e+00 6.500000000000e-01 0.000000000000e+00 0.000000000000e+00 0.000000000000e+00 
1.000000000000e+00 6.000000000000e-01 0.000000000000e+00 0.000000000000e+00 0.000000000000e+00 
1.000000000000e+00 5.500000000000e-01 0.000000000000e+00 0.000000000000e+00 0.000000000000e+00 
1.000000000000e+00 5.000000000000e-01 0.000000000000e+00 0.000000000000e+00 0.000000000000e+00 
9.646447000000e-01 4.146447000000e-01 0.000000000000e+00 0.000000000000e+00 0.000000000000e+00 
9.292893000000e-01 3.792893000000e-01 0.000000000000e+00 0.000000000000e+00 0.000000000000e+00 
8.939340000000e-01 3.439340000000e-01 0.000000000000e+00 0.000000000000e+00 0.000000000000e+00 
8.585786000000e-01 3.085786000000e-01 0.000000000000e+00 0.000000000000e+00 0.000000000000e+00 
8.232233000000e-01 2.732233000000e-01 0.000000000000e+00 0.000000000000e+00 0.000000000000e+00 
7.878680000000e-01 2.378680000000e-01 0.000000000000e+00 0.000000000000e+00 0.000000000000e+00 
7.525126000000e-01 2.025126000000e-01 0.000000000000e+00 0.000000000000e+00 0.000000000000e+00 
7.171573000000e-01 1.671573000000e-01 0.000000000000e+00 0.000000000000e+00 0.000000000000e+00 
6.818019000000e-01 1.318019000000e-01 0.000000000000e+00 0.000000000000e+00 0.000000000000e+00 
6.464466000000e-01 9.644660000000e-02 0.000000000000e+00 0.000000000000e+00 0.000000000000e+00 
6.110913000000e-01 6.109130000000e-02 0.000000000000e+00 0.000000000000e+00 0.000000000000e+00 
5.000000000000e-01 0.000000000000e+00 0.000000000000e+00 0.000000000000e+00 0.000000000000e+00 
4.500000000000e-01 0.000000000000e+00 0.000000000000e+00 0.000000000000e+00 0.000000000000e+00 
4.000000000000e-01 0.000000000000e+00 0.000000000000e+00 0.000000000000e+00 0.000000000000e+00 
3.500000000000e-01 0.000000000000e+00 0.000000000000e+00 0.000000000000e+00 0.000000000000e+00 
1.000000000000e+00 4.000000000000e-01 0.000000000000e+00 0.000000000000e+00 0.000000000000e+00 
1.000000000000e+00 3.500000000000e-01 0.000000000000e+00 0.000000000000e+00 0.000000000000e+00 
1.000000000000e+00 3.000000000000e-01 0.000000000000e+00 0.000000000000e+00 0.000000000000e+00 
1.000000000000e+00 2.500000000000e-01 0.000000000000e+00 0.000000000000e+00 0.000000000000e+00 
1.000000000000e+00 2.000000000000e-01 0.000000000000e+00 0.000000000000e+00 0.000000000000e+00 
9.646447000000e-01 1.146447000000e-01 0.000000000000e+00 0.000000000000e+00 0.000000000000e+00 
9.292893000000e-01 7.928930000000e-02 0.000000000000e+00 0.000000000000e+00 0.000000000000e+00 
8.939340000000e-01 4.393400000000e-02 0.000000000000e+00 0.000000000000e+00 0.000000000000e+00 
8.000000000000e-01 0.000000000000e+00 0.000000000000e+00 0.000000000000e+00 0.000000000000e+00 
7.500000000000e-01 0.000000000000e+00 0.000000000000e+00 0.000000000000e+00 0.000000000000e+00 
7.000000000000e-01 0.000000000000e+00 0.000000000000e+00 0.000000000000e+00 0.000000000000e+00 
6.500000000000e-01 0.000000000000e+00 0.000000000000e+00 0.000000000000e+00 0.000000000000e+00 
6.000000000000e-01 0.000000000000e+00 0.000000000000e+00 0.000000000000e+00 0.000000000000e+00 
1.000000000000e+00 1.000000000000e-01 0.000000000000e+00 0.000000000000e+00 0.000000000000e+00 
1.000000000000e+00 5.000000000000e-02 0.000000000000e+00 0.000000000000e+00 0.000000000000e+00 
9.500000000000e-01 0.000000000000e+00 0.000000000000e+00 0.000000000000e+00 0.000000000000e+00 
9.000000000000e-01 0.000000000000e+00 0.000000000000e+00 0.000000000000e+00 0.000000000000e+00 
1.386669000000e-01 9.092954000000e-01 0.000000000000e+00 0.000000000000e+00 0.000000000000e+00 
2.205733000000e-01 7.200281000000e-01 0.000000000000e+00 0.000000000000e+00 0.000000000000e+00 
3.892349000000e-01 8.893531000000e-01 0.000000000000e+00 0.000000000000e+00 0.000000000000e+00 
2.592583000000e-01 4.408492000000e-01 0.000000000000e+00 0.000000000000e+00 0.000000000000e+00 
6.333525000000e-01 8.281123000000e-01 0.000000000000e+00 0.000000000000e+00 0.000000000000e+00 
2.913113000000e-01 4.325030000000e-02 0.000000000000e+00 0.000000000000e+00 0.000000000000e+00 
5.339067000000e-01 5.192310000000e-02 0.000000000000e+00 0.000000000000e+00 0.000000000000e+00 
1.572066000000e-01 8.739524000000e-01 0.000000000000e+00 0.000000000000e+00 0.000000000000e+00 
2.303477000000e-01 9.505107000000e-01 0.000000000000e+00 0.000000000000e+00 0.000000000000e+00 
3.680229000000e-01 9.468328000000e-01 0.000000000000e+00 0.000000000000e+00 0.000000000000e+00 
1.832200000000e-01 9.315350000000e-01 0.000000000000e+00 0.000000000000e+00 0.000000000000e+00 
1.191167000000e-01 9.465011000000e-01 0.000000000000e+00 0.000000000000e+00 0.000000000000e+00 
4.762052000000e-01 9.562708000000e-01 0.000000000000e+00 0.000000000000e+00 0.000000000000e+00 
5.896190000000e-02 9.346560000000e-01 0.000000000000e+00 0.000000000000e+00 0.000000000000e+00 
4.921480000000e-02 7.684091000000e-01 0.000000000000e+00 0.000000000000e+00 0.000000000000e+00 
5.267881000000e-01 9.487694000000e-01 0.000000000000e+00 0.000000000000e+00 0.000000000000e+00 
9.603460000000e-02 8.828756000000e-01 0.000000000000e+00 0.000000000000e+00 0.000000000000e+00 
4.467515000000e-01 8.756618000000e-01 0.000000000000e+00 0.000000000000e+00 0.000000000000e+00 
4.080503000000e-01 8.257591000000e-01 0.000000000000e+00 0.000000000000e+00 0.000000000000e+00 
7.520940000000e-02 8.146083000000e-01 0.000000000000e+00 0.000000000000e+00 0.000000000000e+00 
4.300410000000e-02 8.640069000000e-01 0.000000000000e+00 0.000000000000e+00 0.000000000000e+00 
3.282179000000e-01 9.011560000000e-01 0.000000000000e+00 0.000000000000e+00 0.000000000000e+00 
2.700338000000e-01 8.715813000000e-01 0.000000000000e+00 0.000000000000e+00 0.000000000000e+00 
2.496534000000e-01 8.122625000000e-01 0.000000000000e+00 0.000000000000e+00 0.000000000000e+00 
1.982172000000e-01 7.730340000000e-01 0.000000000000e+00 0.000000000000e+00 0.000000000000e+00 
6.812425000000e-01 9.027168000000e-01 0.000000000000e+00 0.000000000000e+00 0.000000000000e+00 
4.221482000000e-01 9.416942000000e-01 0.000000000000e+00 0.000000000000e+00 0.000000000000e+00 
7.270401000000e-01 8.629713000000e-01 0.000000000000e+00 0.000000000000e+00 0.000000000000e+00 
7.849903000000e-01 9.381740000000e-01 0.000000000000e+00 0.000000000000e+00 0.000000000000e+00 
1.593176000000e-01 7.287129000000e-01 0.000000000000e+00 0.000000000000e+00 0.000000000000e+00 
8.901208000000e-01 9.556836000000e-01 0.000000000000e+00 0.000000000000e+00 0.000000000000e+00 
1.225396000000e-01 6.237926000000e-01 0.000000000000e+00 0.000000000000e+00 0.000000000000e+00 
3.130230000000e-01 8.081114000000e-01 0.000000000000e+00 0.000000000000e+00 0.000000000000e+00 
4.673902000000e-01 6.328637000000e-01 0.000000000000e+00 0.000000000000e+00 0.000000000000e+00 
3.795328000000e-01 6.603266000000e-01 0.000000000000e+00 0.000000000000e+00 0.000000000000e+00 
3.601709000000e-01 7.840020000000e-01 0.000000000000e+00 0.000000000000e+00 0.000000000000e+00 
5.992590000000e-02 6.116388000000e-01 0.000000000000e+00 0.000000000000e+00 0.000000000000e+00 
2.417766000000e-01 6.637427000000e-01 0.000000000000e+00 0.000000000000e+00 0.000000000000e+00 
1.936535000000e-01 6.251426000000e-01 0.000000000000e+00 0.000000000000e+00 0.000000000000e+00 
8.409994000000e-01 9.144466000000e-01 0.000000000000e+00 0.000000000000e+00 0.000000000000e+00 
7.366589000000e-01 9.252781000000e-01 0.000000000000e+00 0.000000000000e+00 0.000000000000e+00 
1.033596000000e-01 5.584904000000e-01 0.000000000000e+00 0.000000000000e+00 0.000000000000e+00 
5.812202000000e-01 8.401551000000e-01 0.000000000000e+00 0.000000000000e+00 0.000000000000e+00 
6.354938000000e-01 7.337457000000e-01 0.000000000000e+00 0.000000000000e+00 0.000000000000e+00 
4.976400000000e-02 5.228539000000e-01 0.000000000000e+00 0.000000000000e+00 0.000000000000e+00 
4.605480000000e-02 4.663829000000e-01 0.000000000000e+00 0.000000000000e+00 0.000000000000e+00 
6.092419000000e-01 6.897809000000e-01 0.000000000000e+00 0.000000000000e+00 0.000000000000e+00 
4.817512000000e-01 5.653562000000e-01 0.000000000000e+00 0.000000000000e+00 0.000000000000e+00 
4.234946000000e-01 5.557596000000e-01 0.000000000000e+00 0.000000000000e+00 0.000000000000e+00 
9.307170000000e-02 4.981020000000e-01 0.000000000000e+00 0.000000000000e+00 0.000000000000e+00 
4.503810000000e-02 5.689396000000e-01 0.000000000000e+00 0.000000000000e+00 0.000000000000e+00 
1.607562000000e-01 5.747672000000e-01 0.000000000000e+00 0.000000000000e+00 0.000000000000e+00 
6.964860000000e-02 6.594735000000e-01 0.000000000000e+00 0.000000000000e+00 0.000000000000e+00 
6.146411000000e-01 8.824994000000e-01 0.000000000000e+00 0.000000000000e+00 0.000000000000e+00 
5.312030000000e-01 8.315392000000e-01 0.000000000000e+00 0.000000000000e+00 0.000000000000e+00 
6.041790000000e-01 7.840844000000e-01 0.000000000000e+00 0.000000000000e+00 0.000000000000e+00 
8.215747000000e-01 9.640157000000e-01 0.000000000000e+00 0.000000000000e+00 0.000000000000e+00 
5.015985000000e-01 7.358056000000e-01 0.000000000000e+00 0.000000000000e+00 0.000000000000e+00 
4.256778000000e-01 6.886582000000e-01 0.000000000000e+00 0.000000000000e+00 0.000000000000e+00 
3.322755000000e-01 5.814894000000e-01 0.000000000000e+00 0.000000000000e+00 0.000000000000e+00 
9.582188000000e-01 9.008483000000e-01 0.000000000000e+00 0.000000000000e+00 0.000000000000e+00 
3.446878000000e-01 6.314028000000e-01 0.000000000000e+00 0.000000000000e+00 0.000000000000e+00 
9.450639000000e-01 8.108261000000e-01 0.000000000000e+00 0.000000000000e+00 0.000000000000e+00 
7.915834000000e-01 8.808860000000e-01 0.000000000000e+00 0.000000000000e+00 0.000000000000e+00 
3.481599000000e-01 4.840222000000e-01 0.000000000000e+00 0.000000000000e+00 0.000000000000e+00 
8.735979000000e-01 7.136598000000e-01 0.000000000000e+00 0.000000000000e+00 0.000000000000e+00 
8.115653000000e-01 7.323571000000e-01 0.000000000000e+00 0.000000000000e+00 0.000000000000e+00 
2.542368000000e-01 5.132128000000e-01 0.000000000000e+00 0.000000000000e+00 0.000000000000e+00 
8.264893000000e-01 6.754898000000e-01 0.000000000000e+00 0.000000000000e+00 0.000000000000e+00 
7.621381000000e-01 5.996797000000e-01 0.000000000000e+00 0.000000000000e+00 0.000000000000e+00 
6.925395000000e-01 7.532306000000e-01 0.000000000000e+00 0.000000000000e+00 0.000000000000e+00 
3.526508000000e-01 4.279887000000e-01 0.000000000000e+00 0.000000000000e+00 0.000000000000e+00 
7.059359000000e-01 6.142585000000e-01 0.000000000000e+00 0.000000000000e+00 0.000000000000e+00 
7.333391000000e-01 5.372258000000e-01 0.000000000000e+00 0.000000000000e+00 0.000000000000e+00 
5.667870000000e-01 7.401699000000e-01 0.000000000000e+00 0.000000000000e+00 0.000000000000e+00 
1.652197000000e-01 4.429488000000e-01 0.000000000000e+00 0.000000000000e+00 0.000000000000e+00 
6.418205000000e-01 4.929314000000e-01 0.000000000000e+00 0.000000000000e+00 0.000000000000e+00 
5.877922000000e-01 5.218918000000e-01 0.000000000000e+00 0.000000000000e+00 0.000000000000e+00 
1.167204000000e-01 4.130687000000e-01 0.000000000000e+00 0.000000000000e+00 0.000000000000e+00 
6.087802000000e-01 4.464968000000e-01 0.000000000000e+00 0.000000000000e+00 0.000000000000e+00 
4.368640000000e-01 5.961808000000e-01 0.000000000000e+00 0.000000000000e+00 0.000000000000e+00 
5.048390000000e-02 3.375414000000e-01 0.000000000000e+00 0.000000000000e+00 0.000000000000e+00 
9.430370000000e-01 7.193347000000e-01 0.000000000000e+00 0.000000000000e+00 0.000000000000e+00 
8.742414000000e-01 6.488816000000e-01 0.000000000000e+00 0.000000000000e+00 0.000000000000e+00 
3.033058000000e-01 4.653218000000e-01 0.000000000000e+00 0.000000000000e+00 0.000000000000e+00 
3.937728000000e-01 4.665112000000e-01 0.000000000000e+00 0.000000000000e+00 0.000000000000e+00 
7.944572000000e-01 5.549874000000e-01 0.000000000000e+00 0.000000000000e+00 0.000000000000e+00 
7.003595000000e-01 4.787014000000e-01 0.000000000000e+00 0.000000000000e+00 0.000000000000e+00 
1.121696000000e-01 2.667937000000e-01 0.000000000000e+00 0.000000000000e+00 0.000000000000e+00 
2.660756000000e-01 3.737620000000e-01 0.000000000000e+00 0.000000000000e+00 0.000000000000e+00 
6.637159000000e-01 4.373237000000e-01 0.000000000000e+00 0.000000000000e+00 0.000000000000e+00 
5.415754000000e-01 3.757087000000e-01 0.000000000000e+00 0.000000000000e+00 0.000000000000e+00 
2.138762000000e-01 4.109264000000e-01 0.000000000000e+00 0.000000000000e+00 0.000000000000e+00 
1.527787000000e-01 3.251819000000e-01 0.000000000000e+00 0.000000000000e+00 0.000000000000e+00 
5.171731000000e-01 2.949740000000e-01 0.000000000000e+00 0.000000000000e+00 0.000000000000e+00 
3.972637000000e-01 2.345998000000e-01 0.000000000000e+00 0.000000000000e+00 0.000000000000e+00 
5.295650000000e-02 2.814895000000e-01 0.000000000000e+00 0.000000000000e+00 0.000000000000e+00 
6.456040000000e-02 1.696842000000e-01 0.000000000000e+00 0.000000000000e+00 0.000000000000e+00 
3.730866000000e-01 1.525049000000e-01 0.000000000000e+00 0.000000000000e+00 0.000000000000e+00 
2.235964000000e-01 9.541600000000e-02 0.000000000000e+00 0.000000000000e+00 0.000000000000e+00 
5.042220000000e-02 1.138183000000e-01 0.000000000000e+00 0.000000000000e+00 0.000000000000e+00 
1.842476000000e-01 5.030050000000e-02 0.000000000000e+00 0.000000000000e+00 0.000000000000e+00 
1.314582000000e-01 5.688880000000e-02 0.000000000000e+00 0.000000000000e+00 0.000000000000e+00 
1.229656000000e-01 1.693975000000e-01 0.000000000000e+00 0.000000000000e+00 0.000000000000e+00 
1.687315000000e-01 2.394751000000e-01 0.000000000000e+00 0.000000000000e+00 0.000000000000e+00 
9.267413000000e-01 8.547158000000e-01 0.000000000000e+00 0.000000000000e+00 0.000000000000e+00 
8.845918000000e-01 8.132780000000e-01 0.000000000000e+00 0.000000000000e+00 0.000000000000e+00 
9.574454000000e-01 7.678492000000e-01 0.000000000000e+00 0.000000000000e+00 0.000000000000e+00 
5.510476000000e-01 4.717340000000e-01 0.000000000000e+00 0.000000000000e+00 0.000000000000e+00 
9.569937000000e-01 5.960970000000e-01 0.000000000000e+00 0.000000000000e+00 0.000000000000e+00 
9.151694000000e-01 6.769516000000e-01 0.000000000000e+00 0.000000000000e+00 0.000000000000e+00 
5.923029000000e-01 3.625767000000e-01 0.000000000000e+00 0.000000000000e+00 0.000000000000e+00 
9.102653000000e-01 4.786257000000e-01 0.000000000000e+00 0.000000000000e+00 0.000000000000e+00 
8.282002000000e-01 6.094746000000e-01 0.000000000000e+00 0.000000000000e+00 0.000000000000e+00 
4.591375000000e-01 3.153240000000e-01 0.000000000000e+00 0.000000000000e+00 0.000000000000e+00 
8.338368000000e-01 4.087703000000e-01 0.000000000000e+00 0.000000000000e+00 0.000000000000e+00 
7.961499000000e-01 4.256845000000e-01 0.000000000000e+00 0.000000000000e+00 0.000000000000e+00 
4.484913000000e-01 3.744072000000e-01 0.000000000000e+00 0.000000000000e+00 0.000000000000e+00 
8.043209000000e-01 3.493000000000e-01 0.000000000000e+00 0.000000000000e+00 0.000000000000e+00 
7.458368000000e-01 3.135426000000e-01 0.000000000000e+00 0.000000000000e+00 0.000000000000e+00 
3.977794000000e-01 3.299760000000e-01 0.000000000000e+00 0.000000000000e+00 0.000000000000e+00 
6.955662000000e-01 3.293236000000e-01 0.000000000000e+00 0.000000000000e+00 0.000000000000e+00 
9.538934000000e-01 4.711173000000e-01 0.000000000000e+00 0.000000000000e+00 0.000000000000e+00 
6.266994000000e-01 3.983006000000e-01 0.000000000000e+00 0.000000000000e+00 0.000000000000e+00 
4.486782000000e-01 2.219617000000e-01 0.000000000000e+00 0.000000000000e+00 0.000000000000e+00 
9.150266000000e-01 4.254579000000e-01 0.000000000000e+00 0.000000000000e+00 0.000000000000e+00 
5.557335000000e-01 3.271058000000e-01 0.000000000000e+00 0.000000000000e+00 0.000000000000e+00 
3.143804000000e-01 1.735315000000e-01 0.000000000000e+00 0.000000000000e+00 0.000000000000e+00 
7.452548000000e-01 2.566936000000e-01 0.000000000000e+00 0.000000000000e+00 0.000000000000e+00 
6.221587000000e-01 2.050630000000e-01 0.000000000000e+00 0.000000000000e+00 0.000000000000e+00 
4.809540000000e-01 2.594889000000e-01 0.000000000000e+00 0.000000000000e+00 0.000000000000e+00 
3.057777000000e-01 2.331142000000e-01 0.000000000000e+00 0.000000000000e+00 0.000000000000e+00 
6.274905000000e-01 1.532120000000e-01 0.000000000000e+00 0.000000000000e+00 0.000000000000e+00 
4.929287000000e-01 1.063247000000e-01 0.000000000000e+00 0.000000000000e+00 0.000000000000e+00 
4.125561000000e-01 1.854378000000e-01 0.000000000000e+00 0.000000000000e+00 0.000000000000e+00 
2.558143000000e-01 1.919075000000e-01 0.000000000000e+00 0.000000000000e+00 0.000000000000e+00 
4.206352000000e-01 4.785900000000e-02 0.000000000000e+00 0.000000000000e+00 0.000000000000e+00 
3.319399000000e-01 1.172677000000e-01 0.000000000000e+00 0.000000000000e+00 0.000000000000e+00 
2.368525000000e-01 4.642120000000e-02 0.000000000000e+00 0.000000000000e+00 0.000000000000e+00 
9.322219000000e-01 5.355532000000e-01 0.000000000000e+00 0.000000000000e+00 0.000000000000e+00 
9.582292000000e-01 3.508596000000e-01 0.000000000000e+00 0.000000000000e+00 0.000000000000e+00 
8.682464000000e-01 3.779095000000e-01 0.000000000000e+00 0.000000000000e+00 0.000000000000e+00 
9.453839000000e-01 2.608895000000e-01 0.000000000000e+00 0.000000000000e+00 0.000000000000e+00 
6.203011000000e-01 2.594440000000e-01 0.000000000000e+00 0.000000000000e+00 0.000000000000e+00 
7.825541000000e-01 2.899229000000e-01 0.000000000000e+00 0.000000000000e+00 0.000000000000e+00 
8.746892000000e-01 1.703792000000e-01 0.000000000000e+00 0.000000000000e+00 0.000000000000e+00 