 TITLE = "Time curves in points"
 VARIABLES = "TIME "  "PRESSURE1"  "CARBON1"  "WATER1"  "VELOCITY_X1"  "VELOCITY_Y1"  "VELOCITY_Z1"  "DENSITY1"  "VISCOSITY1" 
 ZONE T="POINT=POINTOB"
0.000000000000e+00 2.991870150000e+07 0.000000000000e+00 1.000000000000e+00 0.000000000000e+00 0.000000000000e+00 0.000000000000e+00 1.045000000000e+03 2.535000000000e-04 
5.790000000000e+05 3.031048130729e+07 0.000000000000e+00 1.000000000000e+00 -2.443833379811e-21 0.000000000000e+00 3.086690180817e-05 1.045000000000e+03 2.535000000000e-04 
1.158000000000e+06 3.054038613469e+07 1.139107177242e-04 9.998860892823e-01 -2.444958314259e-21 0.000000000000e+00 4.898625550609e-05 1.044859361785e+03 2.533436523733e-04 
1.737000000000e+06 3.073371981248e+07 6.730202109212e-03 9.932697978908e-01 -2.510483491194e-21 0.000000000000e+00 6.491686451294e-05 1.036755103541e+03 2.445819641784e-04 
2.316000000000e+06 3.089461693777e+07 5.373436999852e-02 9.462656300015e-01 -2.951960078454e-21 0.000000000000e+00 8.587631254484e-05 9.826100981791e+02 1.963414877113e-04 
2.895000000000e+06 3.090690228873e+07 1.957734474264e-01 8.042265525736e-01 -4.054512862782e-21 0.000000000000e+00 1.220714558209e-04 8.486748130578e+02 1.230196732804e-04 
3.474000000000e+06 3.076262222902e+07 4.513395530579e-01 5.486604469421e-01 -5.449015892534e-21 0.000000000000e+00 1.890629875799e-04 6.815296075922e+02 7.357995030228e-05 
4.053000000000e+06 3.056915556151e+07 7.238908827712e-01 2.761091172288e-01 -6.455660288427e-21 0.000000000000e+00 2.643184177546e-04 5.632299695774e+02 5.150513639922e-05 
4.632000000000e+06 3.042307943849e+07 8.849955027558e-01 1.150044972442e-01 -6.910860854079e-21 0.000000000000e+00 2.974389619416e-04 5.108186468740e+02 4.374718031690e-05 
5.211000000000e+06 3.032778249243e+07 9.505496340214e-01 4.945036597865e-02 -7.074369763842e-21 0.000000000000e+00 2.955889831652e-04 4.921824388309e+02 4.122076418633e-05 
5.790000000000e+06 3.026641369482e+07 9.762506089111e-01 2.374939108893e-02 -7.135098499781e-21 0.000000000000e+00 2.813365450188e-04 4.852418142125e+02 4.030812944970e-05 
6.369000000000e+06 3.022429014203e+07 9.877186991021e-01 1.228130089793e-02 -7.161414050953e-21 0.000000000000e+00 2.665880019634e-04 4.822075877974e+02 3.991381229706e-05 
6.948000000000e+06 3.019488043110e+07 9.935136110141e-01 6.486388985939e-03 -7.174495624494e-21 0.000000000000e+00 2.542215601625e-04 4.806887567365e+02 3.971748058431e-05 
7.527000000000e+06 3.017261795562e+07 9.966082291099e-01 3.391770890058e-03 -7.181429521934e-21 0.000000000000e+00 2.450775948002e-04 4.798815779671e+02 3.961342393232e-05 
8.106000000000e+06 3.015585638287e+07 9.982676527817e-01 1.732347218271e-03 -7.185140275036e-21 0.000000000000e+00 2.381195080995e-04 4.794498609342e+02 3.955785000917e-05 
8.685000000000e+06 3.014285366265e+07 9.991363102521e-01 8.636897479455e-04 -7.187084638227e-21 0.000000000000e+00 2.328077859652e-04 4.792241798778e+02 3.952882089307e-05 
9.264000000000e+06 3.013228800164e+07 9.995759211815e-01 4.240788184825e-04 -7.188071096570e-21 0.000000000000e+00 2.289777677197e-04 4.791100479612e+02 3.951414604358e-05 
9.843000000000e+06 3.012392905924e+07 9.997907544122e-01 2.092455877829e-04 -7.188554749796e-21 0.000000000000e+00 2.261520802327e-04 4.790542926683e+02 3.950697856191e-05 
1.042200000000e+07 3.011721144227e+07 9.998922121371e-01 1.077878629278e-04 -7.188784002115e-21 0.000000000000e+00 2.241277719677e-04 4.790279660333e+02 3.950359453144e-05 
1.100100000000e+07 3.011193331097e+07 9.999386743110e-01 6.132568898596e-05 -7.188889420888e-21 0.000000000000e+00 2.226480837873e-04 4.790159108183e+02 3.950204502125e-05 
1.158000000000e+07 3.010803620089e+07 9.999593892038e-01 4.061079618011e-05 -7.188936651695e-21 0.000000000000e+00 2.215735639062e-04 4.790105362656e+02 3.950135422023e-05 
1.215900000000e+07 3.010522109649e+07 9.999684384444e-01 3.156155559623e-05 -7.188957427345e-21 0.000000000000e+00 2.208164073025e-04 4.790081884458e+02 3.950105245340e-05 
1.273800000000e+07 3.010309283658e+07 9.999723518459e-01 2.764815414514e-05 -7.188966516399e-21 0.000000000000e+00 2.203343538865e-04 4.790071731234e+02 3.950092195385e-05 
