 TITLE = "Profiles along polylines"
 VARIABLES = "DIST" "TEMPERATURE1" 
 ZONE T="TIME=0.000000000000e+00"
0.000000000000e+00 1.000000000000e+00 
1.000000000000e+00 0.000000000000e+00 
2.000000000000e+00 0.000000000000e+00 
3.000000000000e+00 0.000000000000e+00 
4.000000000000e+00 0.000000000000e+00 
5.000000000000e+00 0.000000000000e+00 
6.000000000000e+00 0.000000000000e+00 
7.000000000000e+00 0.000000000000e+00 
8.000000000000e+00 0.000000000000e+00 
9.000000000000e+00 0.000000000000e+00 
1.000000000000e+01 0.000000000000e+00 
1.100000000000e+01 0.000000000000e+00 
1.200000000000e+01 0.000000000000e+00 
1.300000000000e+01 0.000000000000e+00 
1.400000000000e+01 0.000000000000e+00 
1.500000000000e+01 0.000000000000e+00 
1.600000000000e+01 0.000000000000e+00 
1.700000000000e+01 0.000000000000e+00 
1.800000000000e+01 0.000000000000e+00 
1.900000000000e+01 0.000000000000e+00 
2.000000000000e+01 0.000000000000e+00 
2.100000000000e+01 0.000000000000e+00 
2.200000000000e+01 0.000000000000e+00 
2.300000000000e+01 0.000000000000e+00 
2.400000000000e+01 0.000000000000e+00 
2.500000000000e+01 0.000000000000e+00 
2.600000000000e+01 0.000000000000e+00 
2.700000000000e+01 0.000000000000e+00 
2.800000000000e+01 0.000000000000e+00 
2.900000000000e+01 0.000000000000e+00 
3.000000000000e+01 0.000000000000e+00 
3.100000000000e+01 0.000000000000e+00 
3.200000000000e+01 0.000000000000e+00 
3.300000000000e+01 0.000000000000e+00 
3.400000000000e+01 0.000000000000e+00 
3.500000000000e+01 0.000000000000e+00 
3.600000000000e+01 0.000000000000e+00 
3.700000000000e+01 0.000000000000e+00 
3.800000000000e+01 0.000000000000e+00 
3.900000000000e+01 0.000000000000e+00 
4.000000000000e+01 0.000000000000e+00 
4.100000000000e+01 0.000000000000e+00 
4.200000000000e+01 0.000000000000e+00 
4.300000000000e+01 0.000000000000e+00 
4.400000000000e+01 0.000000000000e+00 
4.500000000000e+01 0.000000000000e+00 
4.600000000000e+01 0.000000000000e+00 
4.700000000000e+01 0.000000000000e+00 
4.800000000000e+01 0.000000000000e+00 
4.900000000000e+01 0.000000000000e+00 
5.000000000000e+01 0.000000000000e+00 
5.100000000000e+01 0.000000000000e+00 
5.200000000000e+01 0.000000000000e+00 
5.300000000000e+01 0.000000000000e+00 
5.400000000000e+01 0.000000000000e+00 
5.500000000000e+01 0.000000000000e+00 
5.600000000000e+01 0.000000000000e+00 
5.700000000000e+01 0.000000000000e+00 
5.800000000000e+01 0.000000000000e+00 
5.900000000000e+01 0.000000000000e+00 
6.000000000000e+01 0.000000000000e+00 
 TITLE = "Profiles along polylines"
 VARIABLES = "DIST" "TEMPERATURE1" 
 ZONE T="TIME=3.906250000000e+05"
0.000000000000e+00 1.000000000000e+00 
1.000000000000e+00 3.130682287831e-01 
2.000000000000e+00 6.534114391560e-02 
3.000000000000e+00 1.363749079488e-02 
4.000000000000e+00 2.846310058799e-03 
5.000000000000e+00 5.940594991173e-04 
6.000000000000e+00 1.239874367870e-04 
7.000000000000e+00 2.587768481750e-05 
8.000000000000e+00 5.400987300549e-06 
9.000000000000e+00 1.127251685242e-06 
1.000000000000e+01 2.352711256610e-07 
1.100000000000e+01 4.910394306300e-08 
1.200000000000e+01 1.024858965400e-08 
1.300000000000e+01 2.139005207002e-09 
1.400000000000e+01 4.464363810093e-10 
1.500000000000e+01 9.317669804461e-11 
1.600000000000e+01 1.944710921379e-11 
1.700000000000e+01 4.058848024342e-12 
1.800000000000e+01 8.471309079205e-13 
1.900000000000e+01 1.768065152601e-13 
2.000000000000e+01 3.690166837986e-14 
2.100000000000e+01 7.701826639216e-15 
2.200000000000e+01 1.607464816223e-15 
2.300000000000e+01 3.354974418973e-16 
2.400000000000e+01 7.002239326404e-17 
2.500000000000e+01 1.461452442289e-17 
2.600000000000e+01 3.050228850387e-18 
2.700000000000e+01 6.366198290492e-19 
2.800000000000e+01 1.328702948591e-19 
2.900000000000e+01 2.773164524629e-20 
3.000000000000e+01 5.787931372331e-21 
3.100000000000e+01 1.208011615369e-21 
3.200000000000e+01 2.521267045154e-22 
3.300000000000e+01 5.262190720771e-23 
3.400000000000e+01 1.098283152314e-23 
3.500000000000e+01 2.292250407982e-24 
3.600000000000e+01 4.784205167695e-25 
3.700000000000e+01 9.985217586568e-26 
3.800000000000e+01 2.084036255894e-26 
3.900000000000e+01 4.349636929017e-27 
4.000000000000e+01 9.078220861446e-28 
4.100000000000e+01 1.894735017063e-28 
4.200000000000e+01 3.954542238702e-29 
4.300000000000e+01 8.253610228790e-30 
4.400000000000e+01 1.722628756929e-30 
4.500000000000e+01 3.595335558551e-31 
4.600000000000e+01 7.503902234644e-32 
4.700000000000e+01 1.566155587708e-32 
4.800000000000e+01 3.268757038950e-33 
4.900000000000e+01 6.822293176709e-34 
5.000000000000e+01 1.423895494048e-34 
5.100000000000e+01 2.971842935293e-35 
5.200000000000e+01 6.202597359903e-36 
5.300000000000e+01 1.294557446582e-36 
5.400000000000e+01 2.701898730052e-37 
5.500000000000e+01 5.639191844421e-38 
5.600000000000e+01 1.176971921588e-38 
5.700000000000e+01 2.456677635193e-39 
5.800000000000e+01 5.136689600859e-40 
5.900000000000e+01 1.116671652361e-40 
6.000000000000e+01 4.466686609442e-41 
 ZONE T="TIME=7.812500000000e+05"
0.000000000000e+00 1.000000000000e+00 
1.000000000000e+00 4.639610121239e-01 
2.000000000000e+00 1.609980310956e-01 
3.000000000000e+00 4.699399573395e-02 
4.000000000000e+00 1.260323899720e-02 
5.000000000000e+00 3.213803987429e-03 
6.000000000000e+00 7.925131939218e-04 
7.000000000000e+00 1.908185166384e-04 
8.000000000000e+00 4.512980759129e-05 
9.000000000000e+00 1.052607846562e-05 
1.000000000000e+01 2.427952153214e-06 
1.100000000000e+01 5.549622349765e-07 
1.200000000000e+01 1.258912778853e-07 
1.300000000000e+01 2.837550100683e-08 
1.400000000000e+01 6.360703717376e-09 
1.500000000000e+01 1.419053865508e-09 
1.600000000000e+01 3.152704689621e-10 
1.700000000000e+01 6.978648784070e-11 
1.800000000000e+01 1.539715413185e-11 
1.900000000000e+01 3.387193732903e-12 
2.000000000000e+01 7.431852139936e-13 
2.100000000000e+01 1.626748293560e-13 
2.200000000000e+01 3.553071290976e-14 
2.300000000000e+01 7.745143519816e-15 
2.400000000000e+01 1.685266200786e-15 
2.500000000000e+01 3.660867144275e-16 
2.600000000000e+01 7.940201144800e-17 
2.700000000000e+01 1.719731298579e-17 
2.800000000000e+01 3.719764250247e-18 
2.900000000000e+01 8.035919385767e-19 
3.000000000000e+01 1.734030390278e-19 
3.100000000000e+01 3.737756538675e-20 
3.200000000000e+01 8.048735636795e-21 
3.300000000000e+01 1.731542626906e-21 
3.400000000000e+01 3.721789153025e-22 
3.500000000000e+01 7.992920775176e-23 
3.600000000000e+01 1.715199662042e-23 
3.700000000000e+01 3.677883024888e-24 
3.800000000000e+01 7.880837126209e-25 
3.900000000000e+01 1.687539067014e-25 
4.000000000000e+01 3.611245470573e-26 
4.100000000000e+01 7.723167439581e-27 
4.200000000000e+01 1.650751734491e-27 
4.300000000000e+01 3.526368321345e-28 
4.400000000000e+01 7.529118015186e-29 
4.500000000000e+01 1.606723921855e-29 
4.600000000000e+01 3.427114939528e-30 
4.700000000000e+01 7.306598785354e-31 
4.800000000000e+01 1.557074517019e-31 
4.900000000000e+01 3.316797329906e-32 
5.000000000000e+01 7.062382863824e-33 
5.100000000000e+01 1.503188047740e-33 
5.200000000000e+01 3.198244427888e-34 
5.300000000000e+01 6.802247808418e-35 
5.400000000000e+01 1.446243912248e-35 
5.500000000000e+01 3.073863099718e-36 
5.600000000000e+01 6.531127431093e-37 
5.700000000000e+01 1.387368793566e-37 
5.800000000000e+01 2.951660431533e-38 
5.900000000000e+01 6.534631899646e-39 
6.000000000000e+01 2.654052939343e-39 
 ZONE T="TIME=1.171875000000e+06"
0.000000000000e+00 1.000000000000e+00 
1.000000000000e+00 5.504377628215e-01 
2.000000000000e+00 2.437677743120e-01 
3.000000000000e+00 9.092754261850e-02 
4.000000000000e+00 3.008131226616e-02 
5.000000000000e+00 9.168640857200e-03 
6.000000000000e+00 2.636407949425e-03 
7.000000000000e+00 7.260612500496e-04 
8.000000000000e+00 1.934397667893e-04 
9.000000000000e+00 5.020567116240e-05 
1.000000000000e+01 1.275755221918e-05 
1.100000000000e+01 3.185665276764e-06 
1.200000000000e+01 7.839279791423e-07 
1.300000000000e+01 1.905231951847e-07 
1.400000000000e+01 4.581100396624e-08 
1.500000000000e+01 1.091313977560e-08 
1.600000000000e+01 2.578600087560e-09 
1.700000000000e+01 6.048995476040e-10 
1.800000000000e+01 1.409908632314e-10 
1.900000000000e+01 3.267361950248e-11 
2.000000000000e+01 7.532677142295e-12 
2.100000000000e+01 1.728461499876e-12 
2.200000000000e+01 3.949227349237e-13 
2.300000000000e+01 8.988076248474e-14 
2.400000000000e+01 2.038280090507e-14 
2.500000000000e+01 4.607094521937e-15 
2.600000000000e+01 1.038164169637e-15 
2.700000000000e+01 2.332802896453e-16 
2.800000000000e+01 5.228176476868e-17 
2.900000000000e+01 1.168855323547e-17 
3.000000000000e+01 2.607233886885e-18 
3.100000000000e+01 5.803253689144e-19 
3.200000000000e+01 1.289119395816e-19 
3.300000000000e+01 2.858230371304e-20 
3.400000000000e+01 6.326036453757e-21 
3.500000000000e+01 1.397784807814e-21 
3.600000000000e+01 3.083637138458e-22 
3.700000000000e+01 6.792622278604e-23 
3.800000000000e+01 1.494159386814e-23 
3.900000000000e+01 3.282260663608e-24 
4.000000000000e+01 7.201035528383e-25 
4.100000000000e+01 1.577936541014e-25 
4.200000000000e+01 3.453677956943e-26 
4.300000000000e+01 7.550838140931e-27 
4.400000000000e+01 1.649116013628e-27 
4.500000000000e+01 3.598075312311e-28 
4.600000000000e+01 7.842801654439e-29 
4.700000000000e+01 1.707937206324e-29 
4.800000000000e+01 3.716112819109e-30 
4.900000000000e+01 8.078632029857e-31 
5.000000000000e+01 1.754823319388e-31 
5.100000000000e+01 3.808811030704e-32 
5.200000000000e+01 8.260739847649e-33 
5.300000000000e+01 1.790334782717e-33 
5.400000000000e+01 3.877456688118e-34 
5.500000000000e+01 8.392051250529e-35 
5.600000000000e+01 1.815139158236e-35 
5.700000000000e+01 3.923919930748e-36 
5.800000000000e+01 8.494196389551e-37 
5.900000000000e+01 1.915092997690e-37 
6.000000000000e+01 7.897226746327e-38 
 ZONE T="TIME=1.562500000000e+06"
0.000000000000e+00 1.000000000000e+00 
1.000000000000e+00 6.066015827083e-01 
2.000000000000e+00 3.102485007423e-01 
3.000000000000e+00 1.364227196589e-01 
4.000000000000e+00 5.308546902614e-02 
5.000000000000e+00 1.879390920163e-02 
6.000000000000e+00 6.187935159819e-03 
7.000000000000e+00 1.925599644990e-03 
8.000000000000e+00 5.730167069222e-04 
9.000000000000e+00 1.644708954368e-04 
1.000000000000e+01 4.582776843256e-05 
1.100000000000e+01 1.245717406813e-05 
1.200000000000e+01 3.316031255414e-06 
1.300000000000e+01 8.670320146779e-07 
1.400000000000e+01 2.232129360518e-07 
1.500000000000e+01 5.669249016830e-08 
1.600000000000e+01 1.422843321163e-08 
1.700000000000e+01 3.533456053142e-09 
1.800000000000e+01 8.692524834730e-10 
1.900000000000e+01 2.120380542070e-10 
2.000000000000e+01 5.132877837022e-11 
2.100000000000e+01 1.233944285833e-11 
2.200000000000e+01 2.947712983076e-12 
2.300000000000e+01 7.001054560204e-13 
2.400000000000e+01 1.654000041422e-13 
2.500000000000e+01 3.888503437694e-14 
2.600000000000e+01 9.100496161326e-15 
2.700000000000e+01 2.120930684620e-15 
2.800000000000e+01 4.923737152806e-16 
2.900000000000e+01 1.138899408056e-16 
3.000000000000e+01 2.625438294844e-17 
3.100000000000e+01 6.033066860687e-18 
3.200000000000e+01 1.382227703929e-18 
3.300000000000e+01 3.157939434831e-19 
3.400000000000e+01 7.195841804241e-20 
3.500000000000e+01 1.635602956103e-20 
3.600000000000e+01 3.708960063312e-21 
3.700000000000e+01 8.391878125398e-22 
3.800000000000e+01 1.894738999574e-22 
3.900000000000e+01 4.269425778623e-23 
4.000000000000e+01 9.602018936017e-24 
4.100000000000e+01 2.155602629326e-24 
4.200000000000e+01 4.830867362056e-25 
4.300000000000e+01 1.080852464421e-25 
4.400000000000e+01 2.414487193140e-26 
4.500000000000e+01 5.385558351595e-27 
4.600000000000e+01 1.199532749025e-27 
4.700000000000e+01 2.668059087933e-28 
4.800000000000e+01 5.926598613331e-29 
4.900000000000e+01 1.314817860196e-29 
5.000000000000e+01 2.913382894987e-30 
5.100000000000e+01 6.447955524509e-31 
5.200000000000e+01 1.425471107603e-31 
5.300000000000e+01 3.147929911042e-32 
5.400000000000e+01 6.944472468146e-33 
5.500000000000e+01 1.530444245074e-33 
5.600000000000e+01 3.369592020186e-34 
5.700000000000e+01 7.412676563591e-35 
5.800000000000e+01 1.632638068879e-35 
5.900000000000e+01 3.748583914887e-36 
6.000000000000e+01 1.569324332894e-36 
 ZONE T="TIME=1.953125000000e+06"
0.000000000000e+00 1.000000000000e+00 
1.000000000000e+00 6.463771014742e-01 
2.000000000000e+00 3.635580915831e-01 
3.000000000000e+00 1.794042037735e-01 
4.000000000000e+00 7.895050308225e-02 
5.000000000000e+00 3.156905915524e-02 
6.000000000000e+00 1.167027219771e-02 
7.000000000000e+00 4.046677090348e-03 
8.000000000000e+00 1.331438030683e-03 
9.000000000000e+00 4.194443790077e-04 
1.000000000000e+01 1.274198358048e-04 
1.100000000000e+01 3.753522839888e-05 
1.200000000000e+01 1.077005820932e-05 
1.300000000000e+01 3.020897095477e-06 
1.400000000000e+01 8.307411429778e-07 
1.500000000000e+01 2.245204948856e-07 
1.600000000000e+01 5.975566648173e-08 
1.700000000000e+01 1.568799798911e-08 
1.800000000000e+01 4.068568509959e-09 
1.900000000000e+01 1.043592540068e-09 
2.000000000000e+01 2.650274510447e-10 
2.100000000000e+01 6.669840988240e-11 
2.200000000000e+01 1.664746697403e-11 
2.300000000000e+01 4.123724864399e-12 
2.400000000000e+01 1.014389942319e-12 
2.500000000000e+01 2.479295937118e-13 
2.600000000000e+01 6.023770733486e-14 
2.700000000000e+01 1.455496810904e-14 
2.800000000000e+01 3.498836902779e-15 
2.900000000000e+01 8.370586615843e-16 
3.000000000000e+01 1.993624744167e-16 
3.100000000000e+01 4.728344076927e-17 
3.200000000000e+01 1.117029038210e-17 
3.300000000000e+01 2.629125331268e-18 
3.400000000000e+01 6.166553262903e-19 
3.500000000000e+01 1.441594775768e-19 
3.600000000000e+01 3.359631341853e-20 
3.700000000000e+01 7.806560702466e-21 
3.800000000000e+01 1.808897487089e-21 
3.900000000000e+01 4.180378979027e-22 
4.000000000000e+01 9.636552740500e-23 
4.100000000000e+01 2.216077104250e-23 
4.200000000000e+01 5.084569712748e-24 
4.300000000000e+01 1.164060110942e-24 
4.400000000000e+01 2.659445450116e-25 
4.500000000000e+01 6.063746785610e-26 
4.600000000000e+01 1.379947522544e-26 
4.700000000000e+01 3.134660642880e-27 
4.800000000000e+01 7.108168037883e-28 
4.900000000000e+01 1.609143600975e-28 
5.000000000000e+01 3.636895498137e-29 
5.100000000000e+01 8.207161942142e-30 
5.200000000000e+01 1.849298621559e-30 
5.300000000000e+01 4.160995183527e-31 
5.400000000000e+01 9.349458036913e-32 
5.500000000000e+01 2.097956687894e-32 
5.600000000000e+01 4.701649700318e-33 
5.700000000000e+01 1.052477713263e-33 
5.800000000000e+01 2.358425433714e-34 
5.900000000000e+01 5.514456744090e-35 
6.000000000000e+01 2.343527349249e-35 
 ZONE T="TIME=2.343750000000e+06"
0.000000000000e+00 1.000000000000e+00 
1.000000000000e+00 6.763009478600e-01 
2.000000000000e+00 4.069714905598e-01 
3.000000000000e+00 2.185496691492e-01 
4.000000000000e+00 1.057141503064e-01 
5.000000000000e+00 4.663344475375e-02 
6.000000000000e+00 1.900456751194e-02 
7.000000000000e+00 7.240980287748e-03 
8.000000000000e+00 2.606124631908e-03 
9.000000000000e+00 8.937060757504e-04 
1.000000000000e+01 2.940880555848e-04 
1.100000000000e+01 9.340472686045e-05 
1.200000000000e+01 2.877017491267e-05 
1.300000000000e+01 8.627968537066e-06 
1.400000000000e+01 2.527473905562e-06 
1.500000000000e+01 7.252099096060e-07 
1.600000000000e+01 2.042862479674e-07 
1.700000000000e+01 5.660575083024e-08 
1.800000000000e+01 1.545439270975e-08 
1.900000000000e+01 4.163280433984e-09 
2.000000000000e+01 1.108026399534e-09 
2.100000000000e+01 2.916511866242e-10 
2.200000000000e+01 7.599525481261e-11 
2.300000000000e+01 1.961908611738e-11 
2.400000000000e+01 5.021797587330e-12 
2.500000000000e+01 1.275294705575e-12 
2.600000000000e+01 3.215029282963e-13 
2.700000000000e+01 8.050224032595e-14 
2.800000000000e+01 2.003006499658e-14 
2.900000000000e+01 4.954397466059e-15 
3.000000000000e+01 1.218705321952e-15 
3.100000000000e+01 2.982331436911e-16 
3.200000000000e+01 7.262713256526e-17 
3.300000000000e+01 1.760565532077e-17 
3.400000000000e+01 4.249420521864e-18 
3.500000000000e+01 1.021494231549e-18 
3.600000000000e+01 2.446058608706e-19 
3.700000000000e+01 5.835942682799e-20 
3.800000000000e+01 1.387554641156e-20 
3.900000000000e+01 3.288210955448e-21 
4.000000000000e+01 7.768010626265e-22 
4.100000000000e+01 1.829639684022e-22 
4.200000000000e+01 4.297218874072e-23 
4.300000000000e+01 1.006542029916e-23 
4.400000000000e+01 2.351535404324e-24 
4.500000000000e+01 5.480188430362e-25 
4.600000000000e+01 1.274118650261e-25 
4.700000000000e+01 2.955546739379e-26 
4.800000000000e+01 6.841004642516e-27 
4.900000000000e+01 1.580134709724e-27 
5.000000000000e+01 3.642473065235e-28 
5.100000000000e+01 8.380315191094e-29 
5.200000000000e+01 1.924500234547e-29 
5.300000000000e+01 4.411631843058e-30 
5.400000000000e+01 1.009561232148e-30 
5.500000000000e+01 2.306456143287e-31 
5.600000000000e+01 5.260959070268e-32 
5.700000000000e+01 1.198301748799e-32 
5.800000000000e+01 2.731795188890e-33 
5.900000000000e+01 6.504622293672e-34 
6.000000000000e+01 2.805879146321e-34 
 ZONE T="TIME=2.734375000000e+06"
0.000000000000e+00 1.000000000000e+00 
1.000000000000e+00 6.998136014365e-01 
2.000000000000e+00 4.429803661827e-01 
3.000000000000e+00 2.537199398526e-01 
4.000000000000e+00 1.321771743488e-01 
5.000000000000e+00 6.314607432716e-02 
6.000000000000e+00 2.792694887035e-02 
7.000000000000e+00 1.154232247994e-02 
8.000000000000e+00 4.497356881951e-03 
9.000000000000e+00 1.664869484247e-03 
1.000000000000e+01 5.894720440340e-04 
1.100000000000e+01 2.007592234484e-04 
1.200000000000e+01 6.608550423845e-05 
1.300000000000e+01 2.111160021973e-05 
1.400000000000e+01 6.567735376963e-06 
1.500000000000e+01 1.995539630623e-06 
1.600000000000e+01 5.936628801765e-07 
1.700000000000e+01 1.732944441063e-07 
1.800000000000e+01 4.972751835571e-08 
1.900000000000e+01 1.404984662071e-08 
2.000000000000e+01 3.913944325235e-09 
2.100000000000e+01 1.076356396089e-09 
2.200000000000e+01 2.925244547908e-10 
2.300000000000e+01 7.864023186839e-11 
2.400000000000e+01 2.093000611644e-11 
2.500000000000e+01 5.519013127676e-12 
2.600000000000e+01 1.442819852976e-12 
2.700000000000e+01 3.741818076588e-13 
2.800000000000e+01 9.631820801991e-14 
2.900000000000e+01 2.462078355162e-14 
3.000000000000e+01 6.252529646785e-15 
3.100000000000e+01 1.578138733532e-15 
3.200000000000e+01 3.960315062331e-16 
3.300000000000e+01 9.884513299736e-17 
3.400000000000e+01 2.454457156855e-17 
3.500000000000e+01 6.065309025514e-18 
3.600000000000e+01 1.491971904553e-18 
3.700000000000e+01 3.654119463231e-19 
3.800000000000e+01 8.912826976492e-20 
3.900000000000e+01 2.165449078671e-20 
4.000000000000e+01 5.241588520631e-21 
4.100000000000e+01 1.264262229266e-21 
4.200000000000e+01 3.039080632129e-22 
4.300000000000e+01 7.281901496599e-23 
4.400000000000e+01 1.739430894623e-23 
4.500000000000e+01 4.142739385388e-24 
4.600000000000e+01 9.838766599680e-25 
4.700000000000e+01 2.330330291849e-25 
4.800000000000e+01 5.505111633436e-26 
4.900000000000e+01 1.297274215017e-26 
5.000000000000e+01 3.049699022533e-27 
5.100000000000e+01 7.152894186257e-28 
5.200000000000e+01 1.673956123397e-28 
5.300000000000e+01 3.909124650481e-29 
5.400000000000e+01 9.110074709431e-30 
5.500000000000e+01 2.118865849355e-30 
5.600000000000e+01 4.918778972591e-31 
5.700000000000e+01 1.139901396270e-31 
5.800000000000e+01 2.643607295428e-32 
5.900000000000e+01 6.409894907936e-33 
6.000000000000e+01 2.806285574901e-33 
 ZONE T="TIME=3.125000000000e+06"
0.000000000000e+00 1.000000000000e+00 
1.000000000000e+00 7.188970357385e-01 
2.000000000000e+00 4.733677927281e-01 
3.000000000000e+00 2.852144248921e-01 
4.000000000000e+00 1.576856817616e-01 
5.000000000000e+00 8.042662812828e-02 
6.000000000000e+00 3.810324861594e-02 
7.000000000000e+00 1.689151880719e-02 
8.000000000000e+00 7.057547583956e-03 
9.000000000000e+00 2.797909366596e-03 
1.000000000000e+01 1.058845817538e-03 
1.100000000000e+01 3.845612791765e-04 
1.200000000000e+01 1.346633573121e-04 
1.300000000000e+01 4.564908707307e-05 
1.400000000000e+01 1.503225780607e-05 
1.500000000000e+01 4.823161278194e-06 
1.600000000000e+01 1.511770195081e-06 
1.700000000000e+01 4.639468994916e-07 
1.800000000000e+01 1.396802148987e-07 
1.900000000000e+01 4.132699292717e-08 
2.000000000000e+01 1.203432515522e-08 
2.100000000000e+01 3.453642690038e-09 
2.200000000000e+01 9.779411127822e-10 
2.300000000000e+01 2.735156503126e-10 
2.400000000000e+01 7.562944459042e-11 
2.500000000000e+01 2.069193790857e-11 
2.600000000000e+01 5.605805712350e-12 
2.700000000000e+01 1.504853479567e-12 
2.800000000000e+01 4.005290396711e-13 
2.900000000000e+01 1.057540071431e-13 
3.000000000000e+01 2.771406010802e-14 
3.100000000000e+01 7.211772960790e-15 
3.200000000000e+01 1.864246652360e-15 
3.300000000000e+01 4.789053552815e-16 
3.400000000000e+01 1.223018191515e-16 
3.500000000000e+01 3.105937632724e-17 
3.600000000000e+01 7.846172697165e-18 
3.700000000000e+01 1.972182863562e-18 
3.800000000000e+01 4.933676408399e-19 
3.900000000000e+01 1.228655825529e-19 
4.000000000000e+01 3.046636120819e-20 
4.100000000000e+01 7.523669938843e-21 
4.200000000000e+01 1.850715735570e-21 
4.300000000000e+01 4.535519904665e-22 
4.400000000000e+01 1.107550007508e-22 
4.500000000000e+01 2.695351821938e-23 
4.600000000000e+01 6.538018772227e-24 
4.700000000000e+01 1.580936114528e-24 
4.800000000000e+01 3.811318538923e-25 
4.900000000000e+01 9.161803659748e-26 
5.000000000000e+01 2.196243711627e-26 
5.100000000000e+01 5.250735154384e-27 
5.200000000000e+01 1.252112500965e-27 
5.300000000000e+01 2.978457931980e-28 
5.400000000000e+01 7.068112849060e-29 
5.500000000000e+01 1.673464365903e-29 
5.600000000000e+01 3.953381802479e-30 
5.700000000000e+01 9.320815643583e-31 
5.800000000000e+01 2.198887549523e-31 
5.900000000000e+01 5.429004722702e-32 
6.000000000000e+01 2.412051210236e-32 
 ZONE T="TIME=3.515625000000e+06"
0.000000000000e+00 1.000000000000e+00 
1.000000000000e+00 7.347765929429e-01 
2.000000000000e+00 4.994049968735e-01 
3.000000000000e+00 3.134570756530e-01 
4.000000000000e+00 1.819247943623e-01 
5.000000000000e+00 9.797500612506e-02 
6.000000000000e+00 4.920251481771e-02 
7.000000000000e+00 2.317199726389e-02 
8.000000000000e+00 1.029403578743e-02 
9.000000000000e+00 4.338372418435e-03 
1.000000000000e+01 1.743810870810e-03 
1.100000000000e+01 6.717549776551e-04 
1.200000000000e+01 2.490868716874e-04 
1.300000000000e+01 8.924748303265e-05 
1.400000000000e+01 3.100456177066e-05 
1.500000000000e+01 1.047468603285e-05 
1.600000000000e+01 3.450531836631e-06 
1.700000000000e+01 1.110878671299e-06 
1.800000000000e+01 3.502425158925e-07 
1.900000000000e+01 1.083365321565e-07 
2.000000000000e+01 3.292888900867e-08 
2.100000000000e+01 9.848944767830e-09 
2.200000000000e+01 2.902416316402e-09 
2.300000000000e+01 8.436754184385e-10 
2.400000000000e+01 2.421441964793e-10 
2.500000000000e+01 6.868288066653e-11 
2.600000000000e+01 1.926870588486e-11 
2.700000000000e+01 5.350641639022e-12 
2.800000000000e+01 1.471627975099e-12 
2.900000000000e+01 4.011364137768e-13 
3.000000000000e+01 1.084245296092e-13 
3.100000000000e+01 2.907522400093e-14 
3.200000000000e+01 7.738891093724e-15 
3.300000000000e+01 2.045399004937e-15 
3.400000000000e+01 5.370189846402e-16 
3.500000000000e+01 1.401099141571e-16 
3.600000000000e+01 3.633783756654e-17 
3.700000000000e+01 9.371148685842e-18 
3.800000000000e+01 2.403769966545e-18 
3.900000000000e+01 6.134416421452e-19 
4.000000000000e+01 1.557900780516e-19 
4.100000000000e+01 3.938139945034e-20 
4.200000000000e+01 9.911040850558e-21 
4.300000000000e+01 2.483762366659e-21 
4.400000000000e+01 6.199316336432e-22 
4.500000000000e+01 1.541330457122e-22 
4.600000000000e+01 3.818004871774e-23 
4.700000000000e+01 9.423933165059e-24 
4.800000000000e+01 2.318169565436e-24 
4.900000000000e+01 5.683738787743e-25 
5.000000000000e+01 1.389166097360e-25 
5.100000000000e+01 3.384990979744e-26 
5.200000000000e+01 8.224194133802e-27 
5.300000000000e+01 1.992545395846e-27 
5.400000000000e+01 4.814444443048e-28 
5.500000000000e+01 1.160243502682e-28 
5.600000000000e+01 2.789076457161e-29 
5.700000000000e+01 6.689346373182e-30 
5.800000000000e+01 1.605168886869e-30 
5.900000000000e+01 4.035347454644e-31 
6.000000000000e+01 1.819201124721e-31 
 ZONE T="TIME=3.906250000000e+06"
0.000000000000e+00 1.000000000000e+00 
1.000000000000e+00 7.482532723564e-01 
2.000000000000e+00 5.220106774593e-01 
3.000000000000e+00 3.388732868951e-01 
4.000000000000e+00 2.047767100923e-01 
5.000000000000e+00 1.154446339530e-01 
6.000000000000e+00 6.093279283257e-02 
7.000000000000e+00 3.024079887996e-02 
8.000000000000e+00 1.417893173688e-02 
9.000000000000e+00 6.310603388416e-03 
1.000000000000e+01 2.678417039214e-03 
1.100000000000e+01 1.088796367989e-03 
1.200000000000e+01 4.256059741733e-04 
1.300000000000e+01 1.605585291584e-04 
1.400000000000e+01 5.864598882448e-05 
1.500000000000e+01 2.080120688992e-05 
1.600000000000e+01 7.183126755755e-06 
1.700000000000e+01 2.420580863525e-06 
1.800000000000e+01 7.976330430083e-07 
1.900000000000e+01 2.574917180037e-07 
2.000000000000e+01 8.156678024646e-08 
2.100000000000e+01 2.539166674914e-08 
2.200000000000e+01 7.778011301041e-09 
2.300000000000e+01 2.347247030128e-09 
2.400000000000e+01 6.985927562820e-10 
2.500000000000e+01 2.052492087708e-10 
2.600000000000e+01 5.958107505664e-11 
2.700000000000e+01 1.710199358994e-11 
2.800000000000e+01 4.857442685024e-12 
2.900000000000e+01 1.366074858583e-12 
3.000000000000e+01 3.806325279836e-13 
3.100000000000e+01 1.051329032276e-13 
3.200000000000e+01 2.879982980090e-14 
3.300000000000e+01 7.828152086585e-15 
3.400000000000e+01 2.112177582965e-15 
3.500000000000e+01 5.659433994110e-16 
3.600000000000e+01 1.506411746730e-16 
3.700000000000e+01 3.984626739946e-17 
3.800000000000e+01 1.047706118606e-17 
3.900000000000e+01 2.739203433776e-18 
4.000000000000e+01 7.122926762269e-19 
4.100000000000e+01 1.842682704577e-19 
4.200000000000e+01 4.743531770981e-20 
4.300000000000e+01 1.215365548175e-20 
4.400000000000e+01 3.099948723499e-21 
4.500000000000e+01 7.872771622757e-22 
4.600000000000e+01 1.991151552749e-22 
4.700000000000e+01 5.016002722478e-23 
4.800000000000e+01 1.258800537729e-23 
4.900000000000e+01 3.147507008887e-24 
5.000000000000e+01 7.842388220095e-25 
5.100000000000e+01 1.947419874021e-25 
5.200000000000e+01 4.820089347138e-26 
5.300000000000e+01 1.189286409053e-26 
5.400000000000e+01 2.925516900540e-27 
5.500000000000e+01 7.175466504990e-28 
5.600000000000e+01 1.755000469803e-28 
5.700000000000e+01 4.281520693878e-29 
5.800000000000e+01 1.044932823796e-29 
5.900000000000e+01 2.674655917966e-30 
6.000000000000e+01 1.223337361268e-30 
 ZONE T="TIME=4.296875000000e+06"
0.000000000000e+00 1.000000000000e+00 
1.000000000000e+00 7.598746234824e-01 
2.000000000000e+00 5.418612339699e-01 
3.000000000000e+00 3.618469118226e-01 
4.000000000000e+00 2.262330575774e-01 
5.000000000000e+00 1.326059954558e-01 
6.000000000000e+00 7.305290033335e-02 
7.000000000000e+00 3.795020412926e-02 
8.000000000000e+00 1.866066026832e-02 
9.000000000000e+00 8.719532604408e-03 
1.000000000000e+01 3.887121588835e-03 
1.100000000000e+01 1.659541383138e-03 
1.200000000000e+01 6.809810841820e-04 
1.300000000000e+01 2.694746408518e-04 
1.400000000000e+01 1.031490802613e-04 
1.500000000000e+01 3.829891478158e-05 
1.600000000000e+01 1.382852207664e-05 
1.700000000000e+01 4.866548213378e-06 
1.800000000000e+01 1.672677363822e-06 
1.900000000000e+01 5.625362289510e-07 
2.000000000000e+01 1.854204332982e-07 
2.100000000000e+01 5.999068467086e-08 
2.200000000000e+01 1.907726078401e-08 
2.300000000000e+01 5.970139757492e-09 
2.400000000000e+01 1.840641914530e-09 
2.500000000000e+01 5.596361831464e-10 
2.600000000000e+01 1.679536679909e-10 
2.700000000000e+01 4.979440551447e-11 
2.800000000000e+01 1.459511353072e-11 
2.900000000000e+01 4.232242544805e-12 
3.000000000000e+01 1.214911869640e-12 
3.100000000000e+01 3.454478665242e-13 
3.200000000000e+01 9.734547763333e-14 
3.300000000000e+01 2.719933438356e-14 
3.400000000000e+01 7.538886419379e-15 
3.500000000000e+01 2.073694804406e-15 
3.600000000000e+01 5.662914250086e-16 
3.700000000000e+01 1.535851378862e-16 
3.800000000000e+01 4.138261169389e-17 
3.900000000000e+01 1.108106279449e-17 
4.000000000000e+01 2.949618479844e-18 
4.100000000000e+01 7.807084001626e-19 
4.200000000000e+01 2.055229830855e-19 
4.300000000000e+01 5.382491687551e-20 
4.400000000000e+01 1.402665711190e-20 
4.500000000000e+01 3.638004914981e-21 
4.600000000000e+01 9.392811990701e-22 
4.700000000000e+01 2.414521750687e-22 
4.800000000000e+01 6.180804149793e-23 
4.900000000000e+01 1.575825454949e-23 
5.000000000000e+01 4.002095132095e-24 
5.100000000000e+01 1.012618968821e-24 
5.200000000000e+01 2.552958794657e-25 
5.300000000000e+01 6.414121581857e-26 
5.400000000000e+01 1.606126626006e-26 
5.500000000000e+01 4.008876310143e-27 
5.600000000000e+01 9.975135158957e-28 
5.700000000000e+01 2.475102466559e-28 
5.800000000000e+01 6.143261589731e-29 
5.900000000000e+01 1.600924492629e-29 
6.000000000000e+01 7.427964098618e-30 
 ZONE T="TIME=4.687500000000e+06"
0.000000000000e+00 1.000000000000e+00 
1.000000000000e+00 7.700288446633e-01 
2.000000000000e+00 5.594643593666e-01 
3.000000000000e+00 3.827097165774e-01 
4.000000000000e+00 2.463432541015e-01 
5.000000000000e+00 1.493139851359e-01 
6.000000000000e+00 8.537170171088e-02 
7.000000000000e+00 4.616062295927e-02 
8.000000000000e+00 2.367422452610e-02 
9.000000000000e+00 1.155431076774e-02 
1.000000000000e+01 5.384373175200e-03 
1.100000000000e+01 2.403774936817e-03 
1.200000000000e+01 1.031367406102e-03 
1.300000000000e+01 4.265919133320e-04 
1.400000000000e+01 1.705777966329e-04 
1.500000000000e+01 6.611213149328e-05 
1.600000000000e+01 2.489623010136e-05 
1.700000000000e+01 9.129243362789e-06 
1.800000000000e+01 3.266290565594e-06 
1.900000000000e+01 1.142312516373e-06 
2.000000000000e+01 3.911506598104e-07 
2.100000000000e+01 1.313364592712e-07 