VARIABLES  = "X","Y","Z", "STRESS_XX", "STRESS_YY", "STRESS_ZZ", "DISPLACEMENT_X1", "DISPLACEMENT_Y1"
ZONE T="0.000000000000e+00s", N=75, E=116, F=FEPOINT, ET=QUADRILATERAL
STRANDID=1, SOLUTIONTIME=0.000000000000e+00
1.000000000000e-01 -1.891202423411e-01 0.000000000000e+00 0.000000000000e+00 0.000000000000e+00 0.000000000000e+00 0.000000000000e+00 0.000000000000e+00 
1.000000000000e-01 -2.071452132758e-01 0.000000000000e+00 0.000000000000e+00 0.000000000000e+00 0.000000000000e+00 0.000000000000e+00 0.000000000000e+00 
1.000000000000e-01 -2.259159003327e-01 0.000000000000e+00 0.000000000000e+00 0.000000000000e+00 0.000000000000e+00 0.000000000000e+00 0.000000000000e+00 
1.000000000000e-01 -2.454553372135e-01 0.000000000000e+00 0.000000000000e+00 0.000000000000e+00 0.000000000000e+00 0.000000000000e+00 0.000000000000e+00 
1.000000000000e-01 -2.657958002743e-01 0.000000000000e+00 0.000000000000e+00 0.000000000000e+00 0.000000000000e+00 0.000000000000e+00 0.000000000000e+00 
1.000000000000e-01 -2.869820737070e-01 0.000000000000e+00 0.000000000000e+00 0.000000000000e+00 0.000000000000e+00 0.000000000000e+00 0.000000000000e+00 
1.000000000000e-01 -3.090302591577e-01 0.000000000000e+00 0.000000000000e+00 0.000000000000e+00 0.000000000000e+00 0.000000000000e+00 0.000000000000e+00 
1.000000000000e-01 -3.319808966566e-01 0.000000000000e+00 0.000000000000e+00 0.000000000000e+00 0.000000000000e+00 0.000000000000e+00 0.000000000000e+00 
1.000000000000e-01 -3.558736196309e-01 0.000000000000e+00 0.000000000000e+00 0.000000000000e+00 0.000000000000e+00 0.000000000000e+00 0.000000000000e+00 
1.000000000000e-01 -3.807449903129e-01 0.000000000000e+00 0.000000000000e+00 0.000000000000e+00 0.000000000000e+00 0.000000000000e+00 0.000000000000e+00 
0.000000000000e+00 -3.807449903129e-01 0.000000000000e+00 0.000000000000e+00 0.000000000000e+00 0.000000000000e+00 0.000000000000e+00 0.000000000000e+00 
0.000000000000e+00 -3.558736196309e-01 0.000000000000e+00 0.000000000000e+00 0.000000000000e+00 0.000000000000e+00 0.000000000000e+00 0.000000000000e+00 
0.000000000000e+00 -3.319808966566e-01 0.000000000000e+00 0.000000000000e+00 0.000000000000e+00 0.000000000000e+00 0.000000000000e+00 0.000000000000e+00 
0.000000000000e+00 -3.090302591577e-01 0.000000000000e+00 0.000000000000e+00 0.000000000000e+00 0.000000000000e+00 0.000000000000e+00 0.000000000000e+00 
0.000000000000e+00 -2.869820737070e-01 0.000000000000e+00 0.000000000000e+00 0.000000000000e+00 0.000000000000e+00 0.000000000000e+00 0.000000000000e+00 
0.000000000000e+00 -2.657958002743e-01 0.000000000000e+00 0.000000000000e+00 0.000000000000e+00 0.000000000000e+00 0.000000000000e+00 0.000000000000e+00 
0.000000000000e+00 -2.454553372135e-01 0.000000000000e+00 0.000000000000e+00 0.000000000000e+00 0.000000000000e+00 0.000000000000e+00 0.000000000000e+00 
0.000000000000e+00 -2.259159003327e-01 0.000000000000e+00 0.000000000000e+00 0.000000000000e+00 0.000000000000e+00 0.000000000000e+00 0.000000000000e+00 
0.000000000000e+00 -2.071452132758e-01 0.000000000000e+00 0.000000000000e+00 0.000000000000e+00 0.000000000000e+00 0.000000000000e+00 0.000000000000e+00 
0.000000000000e+00 -1.891202423411e-01 0.000000000000e+00 0.000000000000e+00 0.000000000000e+00 0.000000000000e+00 0.000000000000e+00 0.000000000000e+00 
0.000000000000e+00 -1.717986916992e-01 0.000000000000e+00 0.000000000000e+00 0.000000000000e+00 0.000000000000e+00 0.000000000000e+00 0.000000000000e+00 
5.004842734123e-02 -2.021418171447e-01 0.000000000000e+00 0.000000000000e+00 0.000000000000e+00 0.000000000000e+00 0.000000000000e+00 0.000000000000e+00 
5.005908986205e-02 -2.553771826632e-01 0.000000000000e+00 0.000000000000e+00 0.000000000000e+00 0.000000000000e+00 0.000000000000e+00 0.000000000000e+00 
5.008292036290e-02 -3.203087963123e-01 0.000000000000e+00 0.000000000000e+00 0.000000000000e+00 0.000000000000e+00 0.000000000000e+00 0.000000000000e+00 
5.009415947708e-02 -3.711929596105e-01 0.000000000000e+00 0.000000000000e+00 0.000000000000e+00 0.000000000000e+00 0.000000000000e+00 0.000000000000e+00 
6.904394191688e-02 -1.770178073307e-01 0.000000000000e+00 0.000000000000e+00 0.000000000000e+00 0.000000000000e+00 0.000000000000e+00 0.000000000000e+00 
3.104608478085e-02 -1.770328565743e-01 0.000000000000e+00 0.000000000000e+00 0.000000000000e+00 0.000000000000e+00 0.000000000000e+00 0.000000000000e+00 
6.807698165746e-02 -2.287558900294e-01 0.000000000000e+00 0.000000000000e+00 0.000000000000e+00 0.000000000000e+00 0.000000000000e+00 0.000000000000e+00 
3.206062782805e-02 -2.287631037513e-01 0.000000000000e+00 0.000000000000e+00 0.000000000000e+00 0.000000000000e+00 0.000000000000e+00 0.000000000000e+00 
3.557354364095e-02 -2.878483101898e-01 0.000000000000e+00 0.000000000000e+00 0.000000000000e+00 0.000000000000e+00 0.000000000000e+00 0.000000000000e+00 
6.776223739581e-02 -2.827412570156e-01 0.000000000000e+00 0.000000000000e+00 0.000000000000e+00 0.000000000000e+00 0.000000000000e+00 0.000000000000e+00 
7.535103115493e-02 -2.015293853660e-01 0.000000000000e+00 0.000000000000e+00 0.000000000000e+00 0.000000000000e+00 0.000000000000e+00 0.000000000000e+00 
2.474920969922e-02 -2.015432236000e-01 0.000000000000e+00 0.000000000000e+00 0.000000000000e+00 0.000000000000e+00 0.000000000000e+00 0.000000000000e+00 
3.050691695726e-02 -3.457552030811e-01 0.000000000000e+00 0.000000000000e+00 0.000000000000e+00 0.000000000000e+00 0.000000000000e+00 0.000000000000e+00 
6.961191317484e-02 -3.457465657077e-01 0.000000000000e+00 0.000000000000e+00 0.000000000000e+00 0.000000000000e+00 0.000000000000e+00 0.000000000000e+00 
2.403213634881e-02 -2.555147969150e-01 0.000000000000e+00 0.000000000000e+00 0.000000000000e+00 0.000000000000e+00 0.000000000000e+00 0.000000000000e+00 
7.607779023971e-02 -2.554704032576e-01 0.000000000000e+00 0.000000000000e+00 0.000000000000e+00 0.000000000000e+00 0.000000000000e+00 0.000000000000e+00 
7.369529764403e-02 -3.084770811070e-01 0.000000000000e+00 0.000000000000e+00 0.000000000000e+00 0.000000000000e+00 0.000000000000e+00 0.000000000000e+00 
2.378951418650e-02 -3.203343384072e-01 0.000000000000e+00 0.000000000000e+00 0.000000000000e+00 0.000000000000e+00 0.000000000000e+00 0.000000000000e+00 
7.605350107748e-02 -3.708957544133e-01 0.000000000000e+00 0.000000000000e+00 0.000000000000e+00 0.000000000000e+00 0.000000000000e+00 0.000000000000e+00 
2.414696816088e-02 -3.709124382382e-01 0.000000000000e+00 0.000000000000e+00 0.000000000000e+00 0.000000000000e+00 0.000000000000e+00 0.000000000000e+00 
5.006735922148e-02 -2.215423617712e-01 0.000000000000e+00 0.000000000000e+00 0.000000000000e+00 0.000000000000e+00 0.000000000000e+00 0.000000000000e+00 
1.850317579946e-02 -2.757149546133e-01 0.000000000000e+00 0.000000000000e+00 0.000000000000e+00 0.000000000000e+00 0.000000000000e+00 0.000000000000e+00 
8.327052267209e-02 -2.182301684835e-01 0.000000000000e+00 0.000000000000e+00 0.000000000000e+00 0.000000000000e+00 0.000000000000e+00 0.000000000000e+00 
1.689528006222e-02 -2.182447195749e-01 0.000000000000e+00 0.000000000000e+00 0.000000000000e+00 0.000000000000e+00 0.000000000000e+00 0.000000000000e+00 
5.386538030076e-02 -2.991451045652e-01 0.000000000000e+00 0.000000000000e+00 0.000000000000e+00 0.000000000000e+00 0.000000000000e+00 0.000000000000e+00 
8.325780581963e-02 -1.864276587827e-01 0.000000000000e+00 0.000000000000e+00 0.000000000000e+00 0.000000000000e+00 0.000000000000e+00 0.000000000000e+00 
1.687036367023e-02 -1.864550581470e-01 0.000000000000e+00 0.000000000000e+00 0.000000000000e+00 0.000000000000e+00 0.000000000000e+00 0.000000000000e+00 
1.887456660158e-02 -3.001711909616e-01 0.000000000000e+00 0.000000000000e+00 0.000000000000e+00 0.000000000000e+00 0.000000000000e+00 0.000000000000e+00 
5.599679480673e-02 -1.868962244425e-01 0.000000000000e+00 0.000000000000e+00 0.000000000000e+00 0.000000000000e+00 0.000000000000e+00 0.000000000000e+00 
1.562509704916e-02 -2.362679114654e-01 0.000000000000e+00 0.000000000000e+00 0.000000000000e+00 0.000000000000e+00 0.000000000000e+00 0.000000000000e+00 
8.450980591300e-02 -2.362475890693e-01 0.000000000000e+00 0.000000000000e+00 0.000000000000e+00 0.000000000000e+00 0.000000000000e+00 0.000000000000e+00 
5.000597776251e-02 -2.748200932242e-01 0.000000000000e+00 0.000000000000e+00 0.000000000000e+00 0.000000000000e+00 0.000000000000e+00 0.000000000000e+00 
3.763666536168e-02 -1.917900581297e-01 0.000000000000e+00 0.000000000000e+00 0.000000000000e+00 0.000000000000e+00 0.000000000000e+00 0.000000000000e+00 
7.990076033980e-02 -3.280154126230e-01 0.000000000000e+00 0.000000000000e+00 0.000000000000e+00 0.000000000000e+00 0.000000000000e+00 0.000000000000e+00 
5.374039812767e-02 -2.384606709325e-01 0.000000000000e+00 0.000000000000e+00 0.000000000000e+00 0.000000000000e+00 0.000000000000e+00 0.000000000000e+00 
8.295584548888e-02 -2.724709261564e-01 0.000000000000e+00 0.000000000000e+00 0.000000000000e+00 0.000000000000e+00 0.000000000000e+00 0.000000000000e+00 
3.621311007526e-02 -2.130558380742e-01 0.000000000000e+00 0.000000000000e+00 0.000000000000e+00 0.000000000000e+00 0.000000000000e+00 0.000000000000e+00 
6.391474833037e-02 -2.130589258886e-01 0.000000000000e+00 0.000000000000e+00 0.000000000000e+00 0.000000000000e+00 0.000000000000e+00 0.000000000000e+00 
5.005826476111e-02 -3.405429735745e-01 0.000000000000e+00 0.000000000000e+00 0.000000000000e+00 0.000000000000e+00 0.000000000000e+00 0.000000000000e+00 
3.698944467363e-02 -2.448228664997e-01 0.000000000000e+00 0.000000000000e+00 0.000000000000e+00 0.000000000000e+00 0.000000000000e+00 0.000000000000e+00 
3.662161907618e-02 -3.066087827684e-01 0.000000000000e+00 0.000000000000e+00 0.000000000000e+00 0.000000000000e+00 0.000000000000e+00 0.000000000000e+00 
8.289028355298e-02 -2.928054893704e-01 0.000000000000e+00 0.000000000000e+00 0.000000000000e+00 0.000000000000e+00 0.000000000000e+00 0.000000000000e+00 
3.408000067884e-02 -2.691217269938e-01 0.000000000000e+00 0.000000000000e+00 0.000000000000e+00 0.000000000000e+00 0.000000000000e+00 0.000000000000e+00 
1.000000000000e-01 -1.717986916992e-01 0.000000000000e+00 0.000000000000e+00 0.000000000000e+00 0.000000000000e+00 0.000000000000e+00 0.000000000000e+00 
1.000000000000e-01 -4.066333808964e-01 0.000000000000e+00 0.000000000000e+00 0.000000000000e+00 0.000000000000e+00 0.000000000000e+00 0.000000000000e+00 
6.944556402011e-02 -3.968201233631e-01 0.000000000000e+00 0.000000000000e+00 0.000000000000e+00 0.000000000000e+00 0.000000000000e+00 0.000000000000e+00 
0.000000000000e+00 -4.066333808964e-01 0.000000000000e+00 0.000000000000e+00 0.000000000000e+00 0.000000000000e+00 0.000000000000e+00 0.000000000000e+00 
3.066487977987e-02 -3.967816778596e-01 0.000000000000e+00 0.000000000000e+00 0.000000000000e+00 0.000000000000e+00 0.000000000000e+00 0.000000000000e+00 
1.683000258849e-02 -1.667776624401e-01 0.000000000000e+00 0.000000000000e+00 0.000000000000e+00 0.000000000000e+00 0.000000000000e+00 0.000000000000e+00 
0.000000000000e+00 -1.551674274464e-01 0.000000000000e+00 0.000000000000e+00 0.000000000000e+00 0.000000000000e+00 0.000000000000e+00 0.000000000000e+00 
8.326930466579e-02 -1.667726886397e-01 0.000000000000e+00 0.000000000000e+00 0.000000000000e+00 0.000000000000e+00 0.000000000000e+00 0.000000000000e+00 
6.303932844440e-02 -1.619539551222e-01 0.000000000000e+00 0.000000000000e+00 0.000000000000e+00 0.000000000000e+00 0.000000000000e+00 0.000000000000e+00 
5.004288552848e-02 -1.716527951481e-01 0.000000000000e+00 0.000000000000e+00 0.000000000000e+00 0.000000000000e+00 0.000000000000e+00 0.000000000000e+00 
3.703325374415e-02 -1.619447957644e-01 0.000000000000e+00 0.000000000000e+00 0.000000000000e+00 0.000000000000e+00 0.000000000000e+00 0.000000000000e+00 
1  2  47  1
2  32  47  2
32  2  44  32
2  3  44  2
3  4  52  3
44  3  52  44
4  5  37  4
4  37  52  4
37  5  57  37
5  6  57  5
6  7  63  6
57  6  63  57
38  7  55  38
7  8  55  7
7  38  63  7
8  9  55  8
9  35  55  9
35  9  40  35
9  10  40  9
11  12  41  11
12  13  34  12
12  34  41  12
34  13  39  34
13  14  39  13
39  14  49  39
14  15  49  14
15  43  49  15
15  16  43  15
16  17  36  16
16  36  43  16
36  17  51  36
17  18  51  17
18  19  45  18
18  45  51  18
33  19  48  33
19  20  48  19
19  33  45  19
20  21  48  20
32  22  50  32
22  32  59  22
54  22  58  54
50  22  54  50
42  22  59  42
22  42  58  22
23  37  53  23
37  23  56  37
61  23  64  61
23  53  64  23
56  23  61  56
35  24  55  35
24  35  60  24
39  24  60  39
24  38  55  24
38  24  46  38
24  39  62  24
46  24  62  46
25  34  60  25
35  25  60  35
34  25  41  34
25  35  40  25
26  32  50  26
32  26  47  32
48  27  54  48
28  37  56  28
37  28  52  37
44  28  59  44
28  44  52  28
42  28  56  42
28  42  59  28
29  42  56  29
29  56  61  29
51  29  61  51
29  45  58  29
45  29  51  45
42  29  58  42
43  30  49  43
46  30  53  46
30  46  62  30
30  43  64  30
49  30  62  49
53  30  64  53
37  31  53  37
31  37  57  31
31  38  46  31
38  31  63  38
31  46  53  31
31  57  63  31
32  44  59  32
33  48  54  33
33  54  58  33
45  33  58  45
34  39  60  34
36  51  61  36
36  61  64  36
43  36  64  43
39  49  62  39
65  1  47  65
10  66  67  10
10  67  40  10
68  11  69  68
69  11  41  69
21  70  48  21
21  71  70  21
69  25  67  69
67  25  40  67
25  69  41  25
72  26  73  72
26  72  47  26
26  74  73  26
74  26  50  74
27  74  54  27
27  70  75  27
70  27  48  70
74  27  75  74
72  65  47  72
74  50  54  74
VARIABLES  = "X","Y","Z", "STRESS_XX", "STRESS_YY", "STRESS_ZZ", "DISPLACEMENT_X1", "DISPLACEMENT_Y1"
ZONE T="1.000000000000e+01s", N=75, E=116, F=FEPOINT, ET=QUADRILATERAL
STRANDID=1, SOLUTIONTIME=1.000000000000e+01
1.000000000000e-01 -1.891202423411e-01 0.000000000000e+00 -2.381138808658e+02 -9.524441590538e+02 -2.381116079839e+02 0.000000000000e+00 -2.316789127877e-02 
1.000000000000e-01 -2.071452132758e-01 0.000000000000e+00 -2.381015679878e+02 -9.524022129878e+02 -2.381007561951e+02 0.000000000000e+00 -2.265286817853e-02 
1.000000000000e-01 -2.259159003327e-01 0.000000000000e+00 -2.380962541937e+02 -9.523842689534e+02 -2.380961046294e+02 0.000000000000e+00 -2.211655600669e-02 
1.000000000000e-01 -2.454553372135e-01 0.000000000000e+00 -2.380946149831e+02 -9.523782736201e+02 -2.380945777206e+02 0.000000000000e+00 -2.155828596793e-02 
1.000000000000e-01 -2.657958002743e-01 0.000000000000e+00 -2.380940364363e+02 -9.523759365024e+02 -2.380939945877e+02 0.000000000000e+00 -2.097713216855e-02 
1.000000000000e-01 -2.869820737070e-01 0.000000000000e+00 -2.380938238733e+02 -9.523752689725e+02 -2.380938185692e+02 0.000000000000e+00 -2.037181344282e-02 
1.000000000000e-01 -3.090302591577e-01 0.000000000000e+00 -2.380937715999e+02 -9.523750648417e+02 -2.380937672883e+02 0.000000000000e+00 -1.974186910723e-02 
1.000000000000e-01 -3.319808966566e-01 0.000000000000e+00 -2.380937555512e+02 -9.523750103787e+02 -2.380937531860e+02 0.000000000000e+00 -1.908614067937e-02 
1.000000000000e-01 -3.558736196309e-01 0.000000000000e+00 -2.380937504655e+02 -9.523749980244e+02 -2.380937496980e+02 0.000000000000e+00 -1.840349571453e-02 
1.000000000000e-01 -3.807449903129e-01 0.000000000000e+00 -2.380937491330e+02 -9.523749956846e+02 -2.380937489635e+02 0.000000000000e+00 -1.769288956741e-02 
0.000000000000e+00 -3.807449903129e-01 0.000000000000e+00 -2.380937488264e+02 -9.523749964225e+02 -2.380937490498e+02 0.000000000000e+00 -1.769288956788e-02 
0.000000000000e+00 -3.558736196309e-01 0.000000000000e+00 -2.380937494140e+02 -9.523750008363e+02 -2.380937500501e+02 0.000000000000e+00 -1.840349571610e-02 
0.000000000000e+00 -3.319808966566e-01 0.000000000000e+00 -2.380937528574e+02 -9.523750197931e+02 -2.380937545301e+02 0.000000000000e+00 -1.908614068331e-02 
0.000000000000e+00 -3.090302591577e-01 0.000000000000e+00 -2.380937691361e+02 -9.523750909586e+02 -2.380937720189e+02 0.000000000000e+00 -1.974186911697e-02 
0.000000000000e+00 -2.869820737070e-01 0.000000000000e+00 -2.380938250901e+02 -9.523753611427e+02 -2.380938372466e+02 0.000000000000e+00 -2.037181346630e-02 
0.000000000000e+00 -2.657958002743e-01 0.000000000000e+00 -2.380940232878e+02 -9.523762525887e+02 -2.380940551753e+02 0.000000000000e+00 -2.097713223215e-02 
0.000000000000e+00 -2.454553372135e-01 0.000000000000e+00 -2.380946834840e+02 -9.523789888882e+02 -2.380947344745e+02 0.000000000000e+00 -2.155828612413e-02 
0.000000000000e+00 -2.259159003327e-01 0.000000000000e+00 -2.380964373785e+02 -9.523861433704e+02 -2.380965161498e+02 0.000000000000e+00 -2.211655628004e-02 
0.000000000000e+00 -2.071452132758e-01 0.000000000000e+00 -2.381017334549e+02 -9.524052887632e+02 -2.381014044436e+02 0.000000000000e+00 -2.265286879642e-02 
0.000000000000e+00 -1.891202423411e-01 0.000000000000e+00 -2.381163759917e+02 -9.524548772086e+02 -2.381142506401e+02 0.000000000000e+00 -2.316789174875e-02 
0.000000000000e+00 -1.717986916992e-01 0.000000000000e+00 -2.381394733075e+02 -9.525504980066e+02 -2.381379942628e+02 0.000000000000e+00 -2.366285249608e-02 
5.004842734123e-02 -2.021418171447e-01 0.000000000000e+00 -2.381029572437e+02 -9.524122555478e+02 -2.381030425583e+02 3.929278521191e-10 -2.279582760113e-02 
5.005908986205e-02 -2.553771826632e-01 0.000000000000e+00 -2.380942814194e+02 -9.523770442695e+02 -2.380942651378e+02 4.047205206509e-11 -2.127480564572e-02 
5.008292036290e-02 -3.203087963123e-01 0.000000000000e+00 -2.380937593379e+02 -9.523750332484e+02 -2.380937585173e+02 2.302954768108e-12 -1.941962718720e-02 
5.009415947708e-02 -3.711929596105e-01 0.000000000000e+00 -2.380937492188e+02 -9.523749965251e+02 -2.380937491488e+02 3.304435071291e-13 -1.796580302371e-02 
6.904394191688e-02 -1.770178073307e-01 0.000000000000e+00 -2.381257694482e+02 -9.525060856061e+02 -2.381263710109e+02 1.022575637129e-09 -2.351371168544e-02 
3.104608478085e-02 -1.770328565743e-01 0.000000000000e+00 -2.381257094234e+02 -9.525108939077e+02 -2.381273206662e+02 -2.150163629357e-11 -2.351328150847e-02 
6.807698165746e-02 -2.287558900294e-01 0.000000000000e+00 -2.380960216695e+02 -9.523839251335e+02 -2.380959893606e+02 9.591765576986e-11 -2.203541320743e-02 
3.206062782805e-02 -2.287631037513e-01 0.000000000000e+00 -2.380958896873e+02 -9.523841860243e+02 -2.380960151423e+02 8.780922994993e-11 -2.203520721444e-02 
3.557354364095e-02 -2.878483101898e-01 0.000000000000e+00 -2.380938201802e+02 -9.523753183902e+02 -2.380938277141e+02 1.043601172837e-11 -2.034706398782e-02 
6.776223739581e-02 -2.827412570156e-01 0.000000000000e+00 -2.380938442685e+02 -9.523753665204e+02 -2.380938421578e+02 7.024377479574e-12 -2.049297892492e-02 
7.535103115493e-02 -2.015293853660e-01 0.000000000000e+00 -2.381037614629e+02 -9.524133747711e+02 -2.381034272468e+02 3.485312202548e-10 -2.281332561986e-02 
2.474920969922e-02 -2.015432236000e-01 0.000000000000e+00 -2.381033014334e+02 -9.524163416369e+02 -2.381039286141e+02 -9.698211668760e-11 -2.281293105666e-02 
3.050691695726e-02 -3.457552030811e-01 0.000000000000e+00 -2.380937509032e+02 -9.523750048710e+02 -2.380937511548e+02 8.740166515122e-13 -1.869259152533e-02 
6.961191317484e-02 -3.457465657077e-01 0.000000000000e+00 -2.380937507275e+02 -9.523750026730e+02 -2.380937506801e+02 6.661549405852e-13 -1.869283830487e-02 
2.403213634881e-02 -2.555147969150e-01 0.000000000000e+00 -2.380942720811e+02 -9.523772867313e+02 -2.380943117625e+02 3.497415070585e-11 -2.127087386462e-02 
7.607779023971e-02 -2.554704032576e-01 0.000000000000e+00 -2.380942335893e+02 -9.523768059563e+02 -2.380942079091e+02 5.160225424540e-12 -2.127214214684e-02 
7.369529764403e-02 -3.084770811070e-01 0.000000000000e+00 -2.380937719938e+02 -9.523750732340e+02 -2.380937690456e+02 2.692128097019e-12 -1.975767409829e-02 
2.378951418650e-02 -3.203343384072e-01 0.000000000000e+00 -2.380937584026e+02 -9.523750410271e+02 -2.380937598859e+02 2.077977426117e-12 -1.941889742015e-02 
7.605350107748e-02 -3.708957544133e-01 0.000000000000e+00 -2.380937493702e+02 -9.523749963996e+02 -2.380937491540e+02 2.210599655453e-13 -1.797429454749e-02 
2.414696816088e-02 -3.709124382382e-01 0.000000000000e+00 -2.380937490284e+02 -9.523749970229e+02 -2.380937492103e+02 2.863099521306e-13 -1.797381787029e-02 
5.006735922148e-02 -2.215423617712e-01 0.000000000000e+00 -2.380973239764e+02 -9.523883075002e+02 -2.380971262953e+02 1.497132758964e-10 -2.224151526605e-02 
1.850317579946e-02 -2.757149546133e-01 0.000000000000e+00 -2.380939027026e+02 -9.523756577098e+02 -2.380939120825e+02 1.329120762296e-11 -2.069372930953e-02 
8.327052267209e-02 -2.182301684835e-01 0.000000000000e+00 -2.380974829375e+02 -9.523895290714e+02 -2.380974024018e+02 1.211801839195e-10 -2.233615008810e-02 
1.689528006222e-02 -2.182447195749e-01 0.000000000000e+00 -2.380978196946e+02 -9.523914660569e+02 -2.380978571503e+02 5.275657209247e-11 -2.233573462664e-02 
5.386538030076e-02 -2.991451045652e-01 0.000000000000e+00 -2.380937895985e+02 -9.523751348679e+02 -2.380937848933e+02 4.082691585315e-12 -2.002430036689e-02 
8.325780581963e-02 -1.864276587827e-01 0.000000000000e+00 -2.381145375316e+02 -9.524584126304e+02 -2.381145900324e+02 7.964275608470e-10 -2.324482855669e-02 
1.687036367023e-02 -1.864550581470e-01 0.000000000000e+00 -2.381139168963e+02 -9.524579078952e+02 -2.381143649583e+02 -5.573692902303e-10 -2.324404599692e-02 
1.887456660158e-02 -3.001711909616e-01 0.000000000000e+00 -2.380937812922e+02 -9.523751410193e+02 -2.380937844623e+02 4.308191485475e-12 -1.999498379887e-02 
5.599679480673e-02 -1.868962244425e-01 0.000000000000e+00 -2.381119970630e+02 -9.524537781421e+02 -2.381131550410e+02 5.511106922976e-10 -2.323144076087e-02 
1.562509704916e-02 -2.362679114654e-01 0.000000000000e+00 -2.380952240726e+02 -9.523810877223e+02 -2.380952623590e+02 3.981788571887e-11 -2.182078373125e-02 
8.450980591300e-02 -2.362475890693e-01 0.000000000000e+00 -2.380952753011e+02 -9.523809861456e+02 -2.380952522893e+02 2.481932135471e-11 -2.182136420273e-02 
5.000597776251e-02 -2.748200932242e-01 0.000000000000e+00 -2.380939183731e+02 -9.523755788590e+02 -2.380938994464e+02 1.361396443649e-11 -2.071929660692e-02 
3.763666536168e-02 -1.917900581297e-01 0.000000000000e+00 -2.381082158422e+02 -9.524357480842e+02 -2.381087927853e+02 2.776954170735e-10 -2.309160652711e-02 
7.990076033980e-02 -3.280154126230e-01 0.000000000000e+00 -2.380937546657e+02 -9.523750179458e+02 -2.380937545223e+02 1.309632999126e-12 -1.919943951764e-02 
5.374039812767e-02 -2.384606709325e-01 0.000000000000e+00 -2.380950194870e+02 -9.523801045366e+02 -2.380950248047e+02 7.689476473820e-11 -2.175813338713e-02 
8.295584548888e-02 -2.724709261564e-01 0.000000000000e+00 -2.380939250251e+02 -9.523757470018e+02 -2.380939344054e+02 3.581360834064e-12 -2.078641530368e-02 
3.621311007526e-02 -2.130558380742e-01 0.000000000000e+00 -2.380987753830e+02 -9.523961762116e+02 -2.380989903189e+02 1.630222625233e-10 -2.248399051755e-02 
6.391474833037e-02 -2.130589258886e-01 0.000000000000e+00 -2.380987997514e+02 -9.523965276551e+02 -2.380990654813e+02 1.661890412752e-10 -2.248390213970e-02 
5.005826476111e-02 -3.405429735745e-01 0.000000000000e+00 -2.380937518023e+02 -9.523750064117e+02 -2.380937516428e+02 1.062241665735e-12 -1.884151143806e-02 
3.698944467363e-02 -2.448228664997e-01 0.000000000000e+00 -2.380946539062e+02 -9.523786520868e+02 -2.380946611986e+02 5.916910026438e-11 -2.157635664089e-02 
3.662161907618e-02 -3.066087827684e-01 0.000000000000e+00 -2.380937746128e+02 -9.523750892988e+02 -2.380937727823e+02 4.327263637609e-12 -1.981105372629e-02 
8.289028355298e-02 -2.928054893704e-01 0.000000000000e+00 -2.380938108728e+02 -9.523752073492e+02 -2.380938036444e+02 3.767073591144e-12 -2.020543112960e-02 
3.408000067884e-02 -2.691217269938e-01 0.000000000000e+00 -2.380939786527e+02 -9.523758787315e+02 -2.380939714769e+02 2.659674472054e-11 -2.088210621209e-02 
1.000000000000e-01 -1.717986916992e-01 0.000000000000e+00 -2.381358157831e+02 -9.525345137427e+02 -2.381340659052e+02 0.000000000000e+00 -2.366285263853e-02 
1.000000000000e-01 -4.066333808964e-01 0.000000000000e+00 -2.380937488977e+02 -9.523749951009e+02 -2.380937487997e+02 0.000000000000e+00 -1.695322589153e-02 
6.944556402011e-02 -3.968201233631e-01 0.000000000000e+00 -2.380937489478e+02 -9.523749953401e+02 -2.380937488576e+02 1.311815317947e-13 -1.723360292446e-02 
0.000000000000e+00 -4.066333808964e-01 0.000000000000e+00 -2.380937487008e+02 -9.523749953368e+02 -2.380937488075e+02 0.000000000000e+00 -1.695322589171e-02 
3.066487977987e-02 -3.967816778596e-01 0.000000000000e+00 -2.380937487834e+02 -9.523749954913e+02 -2.380937488549e+02 1.299643141744e-13 -1.723470136068e-02 
1.683000258849e-02 -1.667776624401e-01 0.000000000000e+00 -2.381477148003e+02 -9.525901438886e+02 -2.381475717378e+02 -7.020425472590e-10 -2.380633950586e-02 
0.000000000000e+00 -1.551674274464e-01 0.000000000000e+00 -2.381877325264e+02 -9.527510770947e+02 -2.381877619242e+02 0.000000000000e+00 -2.413816268438e-02 
8.326930466579e-02 -1.667726886397e-01 0.000000000000e+00 -2.381470594637e+02 -9.525810148491e+02 -2.381456148626e+02 8.690750789819e-10 -2.380648164616e-02 
6.303932844440e-02 -1.619539551222e-01 0.000000000000e+00 -2.381567758970e+02 -9.526397281584e+02 -2.381593008111e+02 8.666130248569e-10 -2.394419426308e-02 
5.004288552848e-02 -1.716527951481e-01 0.000000000000e+00 -2.381341901250e+02 -9.525389124595e+02 -2.381346205169e+02 4.081280865438e-10 -2.366702152985e-02 
3.703325374415e-02 -1.619447957644e-01 0.000000000000e+00 -2.381572825349e+02 -9.526453796026e+02 -2.381605324275e+02 4.023299930536e-10 -2.394445689829e-02 
1  2  47  1
2  32  47  2
32  2  44  32
2  3  44  2
3  4  52  3
44  3  52  44
4  5  37  4
4  37  52  4
37  5  57  37
5  6  57  5
6  7  63  6
57  6  63  57
38  7  55  38
7  8  55  7
7  38  63  7
8  9  55  8
9  35  55  9
35  9  40  35
9  10  40  9
11  12  41  11
12  13  34  12
12  34  41  12
34  13  39  34
13  14  39  13
39  14  49  39
14  15  49  14
15  43  49  15
15  16  43  15
16  17  36  16
16  36  43  16
36  17  51  36
17  18  51  17
18  19  45  18
18  45  51  18
33  19  48  33
19  20  48  19
19  33  45  19
20  21  48  20
32  22  50  32
22  32  59  22
54  22  58  54
50  22  54  50
42  22  59  42
22  42  58  22
23  37  53  23
37  23  56  37
61  23  64  61
23  53  64  23
56  23  61  56
35  24  55  35
24  35  60  24
39  24  60  39
24  38  55  24
38  24  46  38
24  39  62  24
46  24  62  46
25  34  60  25
35  25  60  35
34  25  41  34
25  35  40  25
26  32  50  26
32  26  47  32
48  27  54  48
28  37  56  28
37  28  52  37
44  28  59  44
28  44  52  28
42  28  56  42
28  42  59  28
29  42  56  29
29  56  61  29
51  29  61  51
29  45  58  29
45  29  51  45
42  29  58  42
43  30  49  43
46  30  53  46
30  46  62  30
30  43  64  30
49  30  62  49
53  30  64  53
37  31  53  37
31  37  57  31
31  38  46  31
38  31  63  38
31  46  53  31
31  57  63  31
32  44  59  32
33  48  54  33
33  54  58  33
45  33  58  45
34  39  60  34
36  51  61  36
36  61  64  36
43  36  64  43
39  49  62  39
65  1  47  65
10  66  67  10
10  67  40  10
68  11  69  68
69  11  41  69
21  70  48  21
21  71  70  21
69  25  67  69
67  25  40  67
25  69  41  25
72  26  73  72
26  72  47  26
26  74  73  26
74  26  50  74
27  74  54  27
27  70  75  27
70  27  48  70
74  27  75  74
72  65  47  72
74  50  54  74
