VARIABLES  = "X","Y","Z", "STRESS_XX", "STRESS_YY", "STRESS_ZZ", "DISPLACEMENT_X1", "DISPLACEMENT_Y1"
ZONE T="0.000000000000e+00s", N=71, E=101, F=FEPOINT, ET=QUADRILATERAL
STRANDID=1, SOLUTIONTIME=0.000000000000e+00
1.000000000000e-01 -1.000000000000e+00 0.000000000000e+00 0.000000000000e+00 0.000000000000e+00 0.000000000000e+00 0.000000000000e+00 0.000000000000e+00 
0.000000000000e+00 -1.000000000000e+00 0.000000000000e+00 0.000000000000e+00 0.000000000000e+00 0.000000000000e+00 0.000000000000e+00 0.000000000000e+00 
1.000000000000e-01 -4.066333808964e-01 0.000000000000e+00 0.000000000000e+00 0.000000000000e+00 0.000000000000e+00 0.000000000000e+00 0.000000000000e+00 
1.000000000000e-01 -4.336013132129e-01 0.000000000000e+00 0.000000000000e+00 0.000000000000e+00 0.000000000000e+00 0.000000000000e+00 0.000000000000e+00 
1.000000000000e-01 -4.616595392039e-01 0.000000000000e+00 0.000000000000e+00 0.000000000000e+00 0.000000000000e+00 0.000000000000e+00 0.000000000000e+00 
1.000000000000e-01 -4.908798744802e-01 0.000000000000e+00 0.000000000000e+00 0.000000000000e+00 0.000000000000e+00 0.000000000000e+00 0.000000000000e+00 
1.000000000000e-01 -5.212997813718e-01 0.000000000000e+00 0.000000000000e+00 0.000000000000e+00 0.000000000000e+00 0.000000000000e+00 0.000000000000e+00 
1.000000000000e-01 -5.529651305953e-01 0.000000000000e+00 0.000000000000e+00 0.000000000000e+00 0.000000000000e+00 0.000000000000e+00 0.000000000000e+00 
1.000000000000e-01 -5.859254847404e-01 0.000000000000e+00 0.000000000000e+00 0.000000000000e+00 0.000000000000e+00 0.000000000000e+00 0.000000000000e+00 
1.000000000000e-01 -6.202541854239e-01 0.000000000000e+00 0.000000000000e+00 0.000000000000e+00 0.000000000000e+00 0.000000000000e+00 0.000000000000e+00 
1.000000000000e-01 -6.559765085227e-01 0.000000000000e+00 0.000000000000e+00 0.000000000000e+00 0.000000000000e+00 0.000000000000e+00 0.000000000000e+00 
1.000000000000e-01 -6.931783144525e-01 0.000000000000e+00 0.000000000000e+00 0.000000000000e+00 0.000000000000e+00 0.000000000000e+00 0.000000000000e+00 
1.000000000000e-01 -7.319023284412e-01 0.000000000000e+00 0.000000000000e+00 0.000000000000e+00 0.000000000000e+00 0.000000000000e+00 0.000000000000e+00 
1.000000000000e-01 -7.722376567817e-01 0.000000000000e+00 0.000000000000e+00 0.000000000000e+00 0.000000000000e+00 0.000000000000e+00 0.000000000000e+00 
1.000000000000e-01 -8.141871026671e-01 0.000000000000e+00 0.000000000000e+00 0.000000000000e+00 0.000000000000e+00 0.000000000000e+00 0.000000000000e+00 
1.000000000000e-01 -8.578764946731e-01 0.000000000000e+00 0.000000000000e+00 0.000000000000e+00 0.000000000000e+00 0.000000000000e+00 0.000000000000e+00 
1.000000000000e-01 -9.033674988086e-01 0.000000000000e+00 0.000000000000e+00 0.000000000000e+00 0.000000000000e+00 0.000000000000e+00 0.000000000000e+00 
1.000000000000e-01 -9.507169705327e-01 0.000000000000e+00 0.000000000000e+00 0.000000000000e+00 0.000000000000e+00 0.000000000000e+00 0.000000000000e+00 
0.000000000000e+00 -9.507169705327e-01 0.000000000000e+00 0.000000000000e+00 0.000000000000e+00 0.000000000000e+00 0.000000000000e+00 0.000000000000e+00 
0.000000000000e+00 -9.033674988086e-01 0.000000000000e+00 0.000000000000e+00 0.000000000000e+00 0.000000000000e+00 0.000000000000e+00 0.000000000000e+00 
0.000000000000e+00 -8.578764946731e-01 0.000000000000e+00 0.000000000000e+00 0.000000000000e+00 0.000000000000e+00 0.000000000000e+00 0.000000000000e+00 
0.000000000000e+00 -8.141871026671e-01 0.000000000000e+00 0.000000000000e+00 0.000000000000e+00 0.000000000000e+00 0.000000000000e+00 0.000000000000e+00 
0.000000000000e+00 -7.722376567817e-01 0.000000000000e+00 0.000000000000e+00 0.000000000000e+00 0.000000000000e+00 0.000000000000e+00 0.000000000000e+00 
0.000000000000e+00 -7.319023284412e-01 0.000000000000e+00 0.000000000000e+00 0.000000000000e+00 0.000000000000e+00 0.000000000000e+00 0.000000000000e+00 
0.000000000000e+00 -6.931783144525e-01 0.000000000000e+00 0.000000000000e+00 0.000000000000e+00 0.000000000000e+00 0.000000000000e+00 0.000000000000e+00 
0.000000000000e+00 -6.559765085227e-01 0.000000000000e+00 0.000000000000e+00 0.000000000000e+00 0.000000000000e+00 0.000000000000e+00 0.000000000000e+00 
0.000000000000e+00 -6.202541854239e-01 0.000000000000e+00 0.000000000000e+00 0.000000000000e+00 0.000000000000e+00 0.000000000000e+00 0.000000000000e+00 
0.000000000000e+00 -5.859254847404e-01 0.000000000000e+00 0.000000000000e+00 0.000000000000e+00 0.000000000000e+00 0.000000000000e+00 0.000000000000e+00 
0.000000000000e+00 -5.529651305953e-01 0.000000000000e+00 0.000000000000e+00 0.000000000000e+00 0.000000000000e+00 0.000000000000e+00 0.000000000000e+00 
0.000000000000e+00 -5.212997813718e-01 0.000000000000e+00 0.000000000000e+00 0.000000000000e+00 0.000000000000e+00 0.000000000000e+00 0.000000000000e+00 
0.000000000000e+00 -4.908798744802e-01 0.000000000000e+00 0.000000000000e+00 0.000000000000e+00 0.000000000000e+00 0.000000000000e+00 0.000000000000e+00 
0.000000000000e+00 -4.616595392039e-01 0.000000000000e+00 0.000000000000e+00 0.000000000000e+00 0.000000000000e+00 0.000000000000e+00 0.000000000000e+00 
0.000000000000e+00 -4.336013132129e-01 0.000000000000e+00 0.000000000000e+00 0.000000000000e+00 0.000000000000e+00 0.000000000000e+00 0.000000000000e+00 
0.000000000000e+00 -4.066333808964e-01 0.000000000000e+00 0.000000000000e+00 0.000000000000e+00 0.000000000000e+00 0.000000000000e+00 0.000000000000e+00 
5.004338622634e-02 -4.224088684799e-01 0.000000000000e+00 0.000000000000e+00 0.000000000000e+00 0.000000000000e+00 0.000000000000e+00 0.000000000000e+00 
5.008792076171e-02 -4.761562843354e-01 0.000000000000e+00 0.000000000000e+00 0.000000000000e+00 0.000000000000e+00 0.000000000000e+00 0.000000000000e+00 
5.006173506594e-02 -5.371347226804e-01 0.000000000000e+00 0.000000000000e+00 0.000000000000e+00 0.000000000000e+00 0.000000000000e+00 0.000000000000e+00 
5.005598078520e-02 -6.030075791828e-01 0.000000000000e+00 0.000000000000e+00 0.000000000000e+00 0.000000000000e+00 0.000000000000e+00 0.000000000000e+00 
5.008345235811e-02 -6.744505768430e-01 0.000000000000e+00 0.000000000000e+00 0.000000000000e+00 0.000000000000e+00 0.000000000000e+00 0.000000000000e+00 
5.006913214781e-02 -7.520111988761e-01 0.000000000000e+00 0.000000000000e+00 0.000000000000e+00 0.000000000000e+00 0.000000000000e+00 0.000000000000e+00 
5.005245558618e-02 -8.359504089462e-01 0.000000000000e+00 0.000000000000e+00 0.000000000000e+00 0.000000000000e+00 0.000000000000e+00 0.000000000000e+00 
3.066487977987e-02 -3.967816778596e-01 0.000000000000e+00 0.000000000000e+00 0.000000000000e+00 0.000000000000e+00 0.000000000000e+00 0.000000000000e+00 
6.944556402011e-02 -3.968201233631e-01 0.000000000000e+00 0.000000000000e+00 0.000000000000e+00 0.000000000000e+00 0.000000000000e+00 0.000000000000e+00 
6.938741587335e-02 -4.492665666015e-01 0.000000000000e+00 0.000000000000e+00 0.000000000000e+00 0.000000000000e+00 0.000000000000e+00 0.000000000000e+00 
5.007750042915e-02 -9.269884316941e-01 0.000000000000e+00 0.000000000000e+00 0.000000000000e+00 0.000000000000e+00 0.000000000000e+00 0.000000000000e+00 
3.079310721189e-02 -4.492985454339e-01 0.000000000000e+00 0.000000000000e+00 0.000000000000e+00 0.000000000000e+00 0.000000000000e+00 0.000000000000e+00 
3.221669410502e-02 -5.066378347700e-01 0.000000000000e+00 0.000000000000e+00 0.000000000000e+00 0.000000000000e+00 0.000000000000e+00 0.000000000000e+00 
6.786784203733e-02 -5.066531442817e-01 0.000000000000e+00 0.000000000000e+00 0.000000000000e+00 0.000000000000e+00 0.000000000000e+00 0.000000000000e+00 
3.339642373282e-02 -5.700696953954e-01 0.000000000000e+00 0.000000000000e+00 0.000000000000e+00 0.000000000000e+00 0.000000000000e+00 0.000000000000e+00 
6.525807751313e-02 -6.387232377182e-01 0.000000000000e+00 0.000000000000e+00 0.000000000000e+00 0.000000000000e+00 0.000000000000e+00 0.000000000000e+00 
5.008827505125e-02 -9.806018183701e-01 0.000000000000e+00 0.000000000000e+00 0.000000000000e+00 0.000000000000e+00 0.000000000000e+00 0.000000000000e+00 
6.875407163887e-02 -5.693536686703e-01 0.000000000000e+00 0.000000000000e+00 0.000000000000e+00 0.000000000000e+00 0.000000000000e+00 0.000000000000e+00 
3.664624163484e-02 -7.132284082360e-01 0.000000000000e+00 0.000000000000e+00 0.000000000000e+00 0.000000000000e+00 0.000000000000e+00 0.000000000000e+00 
6.148490449038e-02 -7.939830735880e-01 0.000000000000e+00 0.000000000000e+00 0.000000000000e+00 0.000000000000e+00 0.000000000000e+00 0.000000000000e+00 
4.100384574845e-02 -8.814719130658e-01 0.000000000000e+00 0.000000000000e+00 0.000000000000e+00 0.000000000000e+00 0.000000000000e+00 0.000000000000e+00 
3.022970257450e-02 -6.380821728272e-01 0.000000000000e+00 0.000000000000e+00 0.000000000000e+00 0.000000000000e+00 0.000000000000e+00 0.000000000000e+00 
2.375340220851e-02 -4.221482437035e-01 0.000000000000e+00 0.000000000000e+00 0.000000000000e+00 0.000000000000e+00 0.000000000000e+00 0.000000000000e+00 
7.632731958147e-02 -4.221881213587e-01 0.000000000000e+00 0.000000000000e+00 0.000000000000e+00 0.000000000000e+00 0.000000000000e+00 0.000000000000e+00 
2.293783770176e-02 -4.762423539471e-01 0.000000000000e+00 0.000000000000e+00 0.000000000000e+00 0.000000000000e+00 0.000000000000e+00 0.000000000000e+00 
7.721888027343e-02 -4.761946882435e-01 0.000000000000e+00 0.000000000000e+00 0.000000000000e+00 0.000000000000e+00 0.000000000000e+00 0.000000000000e+00 
7.129547302367e-02 -7.125259253720e-01 0.000000000000e+00 0.000000000000e+00 0.000000000000e+00 0.000000000000e+00 0.000000000000e+00 0.000000000000e+00 
7.757437444143e-02 -5.370973525672e-01 0.000000000000e+00 0.000000000000e+00 0.000000000000e+00 0.000000000000e+00 0.000000000000e+00 0.000000000000e+00 
2.255445764899e-02 -5.371289046437e-01 0.000000000000e+00 0.000000000000e+00 0.000000000000e+00 0.000000000000e+00 0.000000000000e+00 0.000000000000e+00 
2.720299568724e-02 -7.931304852765e-01 0.000000000000e+00 0.000000000000e+00 0.000000000000e+00 0.000000000000e+00 0.000000000000e+00 0.000000000000e+00 
7.798696120885e-02 -6.030216482613e-01 0.000000000000e+00 0.000000000000e+00 0.000000000000e+00 0.000000000000e+00 0.000000000000e+00 0.000000000000e+00 
2.212749701135e-02 -6.030477024067e-01 0.000000000000e+00 0.000000000000e+00 0.000000000000e+00 0.000000000000e+00 0.000000000000e+00 0.000000000000e+00 
1.000000000000e-01 -3.807449903129e-01 0.000000000000e+00 0.000000000000e+00 0.000000000000e+00 0.000000000000e+00 0.000000000000e+00 0.000000000000e+00 
0.000000000000e+00 -3.807449903129e-01 0.000000000000e+00 0.000000000000e+00 0.000000000000e+00 0.000000000000e+00 0.000000000000e+00 0.000000000000e+00 
5.009415947708e-02 -3.711929596105e-01 0.000000000000e+00 0.000000000000e+00 0.000000000000e+00 0.000000000000e+00 0.000000000000e+00 0.000000000000e+00 
2.414696816088e-02 -3.709124382382e-01 0.000000000000e+00 0.000000000000e+00 0.000000000000e+00 0.000000000000e+00 0.000000000000e+00 0.000000000000e+00 
7.605350107748e-02 -3.708957544133e-01 0.000000000000e+00 0.000000000000e+00 0.000000000000e+00 0.000000000000e+00 0.000000000000e+00 0.000000000000e+00 
18  1  51  18
1  2  51  1
2  19  51  2
43  3  58  43
3  4  58  3
4  5  44  4
4  44  58  4
44  5  60  44
5  6  60  5
6  7  48  6
6  48  60  6
48  7  62  48
7  8  62  7
8  9  52  8
8  52  62  8
52  9  65  52
9  10  65  9
10  11  50  10
10  50  65  10
11  12  39  11
11  39  50  11
39  12  61  39
12  13  61  12
13  14  40  13
13  40  61  13
40  14  54  40
14  15  54  14
15  16  41  15
15  41  54  15
16  17  55  16
41  16  55  41
17  45  55  17
17  18  45  17
45  18  51  45
19  45  51  19
19  20  45  19
45  20  55  45
20  21  55  20
21  22  41  21
21  41  55  21
41  22  64  41
22  23  64  22
23  24  40  23
23  40  64  23
40  24  53  40
24  25  53  24
25  26  39  25
25  39  53  25
39  26  56  39
26  27  56  26
56  27  66  56
27  28  66  27
28  29  49  28
28  49  66  28
49  29  63  49
29  30  63  29
30  31  47  30
30  47  63  30
47  31  59  47
31  32  59  31
32  33  46  32
32  46  59  32
46  33  57  46
33  34  57  33
34  42  57  34
35  42  43  35
35  44  46  35
42  35  57  42
35  43  58  35
35  46  57  35
44  35  58  44
44  36  46  44
47  36  48  47
48  36  60  48
36  47  59  36
36  44  60  36
46  36  59  46
37  47  48  37
49  37  52  49
37  49  63  37
52  37  62  52
47  37  63  47
37  48  62  37
38  49  52  38
38  50  56  38
38  56  66  38
38  52  65  38
50  38  65  50
49  38  66  49
50  39  56  50
53  39  61  53
40  53  61  40
40  54  64  40
54  41  64  54
67  3  43  67
34  68  42  34
42  69  43  42
42  68  70  42
69  42  70  69
67  43  71  67
43  69  71  43
VARIABLES  = "X","Y","Z", "STRESS_XX", "STRESS_YY", "STRESS_ZZ", "DISPLACEMENT_X1", "DISPLACEMENT_Y1"
ZONE T="1.000000000000e+01s", N=71, E=101, F=FEPOINT, ET=QUADRILATERAL
STRANDID=1, SOLUTIONTIME=1.000000000000e+01
1.000000000000e-01 -1.000000000000e+00 0.000000000000e+00 -2.380937479012e+02 -9.523749915999e+02 -2.380937479002e+02 0.000000000000e+00 0.000000000000e+00 
0.000000000000e+00 -1.000000000000e+00 0.000000000000e+00 -2.380937479061e+02 -9.523749916121e+02 -2.380937479036e+02 0.000000000000e+00 0.000000000000e+00 
1.000000000000e-01 -4.066333808964e-01 0.000000000000e+00 -2.380937489024e+02 -9.523749951153e+02 -2.380937488035e+02 0.000000000000e+00 -1.695322589153e-02 
1.000000000000e-01 -4.336013132129e-01 0.000000000000e+00 -2.380937488280e+02 -9.523749949826e+02 -2.380937487621e+02 0.000000000000e+00 -1.618271835935e-02 
1.000000000000e-01 -4.616595392039e-01 0.000000000000e+00 -2.380937487611e+02 -9.523749948568e+02 -2.380937487236e+02 0.000000000000e+00 -1.538105977429e-02 
1.000000000000e-01 -4.908798744802e-01 0.000000000000e+00 -2.380937486828e+02 -9.523749946472e+02 -2.380937486660e+02 0.000000000000e+00 -1.454619827462e-02 
1.000000000000e-01 -5.212997813718e-01 0.000000000000e+00 -2.380937485673e+02 -9.523749942407e+02 -2.380937485616e+02 0.000000000000e+00 -1.367706351488e-02 
1.000000000000e-01 -5.529651305953e-01 0.000000000000e+00 -2.380937484312e+02 -9.523749937126e+02 -2.380937484288e+02 0.000000000000e+00 -1.277234491157e-02 
1.000000000000e-01 -5.859254847404e-01 0.000000000000e+00 -2.380937482826e+02 -9.523749931216e+02 -2.380937482808e+02 0.000000000000e+00 -1.183062639967e-02 
1.000000000000e-01 -6.202541854239e-01 0.000000000000e+00 -2.380937481724e+02 -9.523749926903e+02 -2.380937481725e+02 0.000000000000e+00 -1.084981251755e-02 
1.000000000000e-01 -6.559765085227e-01 0.000000000000e+00 -2.380937481182e+02 -9.523749924719e+02 -2.380937481180e+02 0.000000000000e+00 -9.829181101659e-03 
1.000000000000e-01 -6.931783144525e-01 0.000000000000e+00 -2.380937481314e+02 -9.523749925046e+02 -2.380937481272e+02 0.000000000000e+00 -8.766279012380e-03 
1.000000000000e-01 -7.319023284412e-01 0.000000000000e+00 -2.380937481750e+02 -9.523749926714e+02 -2.380937481693e+02 0.000000000000e+00 -7.659885536335e-03 
1.000000000000e-01 -7.722376567817e-01 0.000000000000e+00 -2.380937482070e+02 -9.523749927969e+02 -2.380937482008e+02 0.000000000000e+00 -6.507454795281e-03 
1.000000000000e-01 -8.141871026671e-01 0.000000000000e+00 -2.380937481869e+02 -9.523749927071e+02 -2.380937481788e+02 0.000000000000e+00 -5.308906698632e-03 
1.000000000000e-01 -8.578764946731e-01 0.000000000000e+00 -2.380937481115e+02 -9.523749923958e+02 -2.380937481014e+02 0.000000000000e+00 -4.060646167015e-03 
1.000000000000e-01 -9.033674988086e-01 0.000000000000e+00 -2.380937480073e+02 -9.523749919984e+02 -2.380937480012e+02 0.000000000000e+00 -2.760911325729e-03 
1.000000000000e-01 -9.507169705327e-01 0.000000000000e+00 -2.380937479185e+02 -9.523749916751e+02 -2.380937479187e+02 0.000000000000e+00 -1.408077743313e-03 
0.000000000000e+00 -9.507169705327e-01 0.000000000000e+00 -2.380937479239e+02 -9.523749917087e+02 -2.380937479265e+02 0.000000000000e+00 -1.408077743318e-03 
0.000000000000e+00 -9.033674988086e-01 0.000000000000e+00 -2.380937480042e+02 -9.523749920448e+02 -2.380937480098e+02 0.000000000000e+00 -2.760911325737e-03 
0.000000000000e+00 -8.578764946731e-01 0.000000000000e+00 -2.380937480967e+02 -9.523749924333e+02 -2.380937481060e+02 0.000000000000e+00 -4.060646167020e-03 
0.000000000000e+00 -8.141871026671e-01 0.000000000000e+00 -2.380937481689e+02 -9.523749927259e+02 -2.380937481790e+02 0.000000000000e+00 -5.308906698634e-03 
0.000000000000e+00 -7.722376567817e-01 0.000000000000e+00 -2.380937481855e+02 -9.523749927803e+02 -2.380937481932e+02 0.000000000000e+00 -6.507454795277e-03 
0.000000000000e+00 -7.319023284412e-01 0.000000000000e+00 -2.380937481575e+02 -9.523749926534e+02 -2.380937481622e+02 0.000000000000e+00 -7.659885536325e-03 
0.000000000000e+00 -6.931783144525e-01 0.000000000000e+00 -2.380937481216e+02 -9.523749924956e+02 -2.380937481234e+02 0.000000000000e+00 -8.766279012382e-03 
0.000000000000e+00 -6.559765085227e-01 0.000000000000e+00 -2.380937481217e+02 -9.523749924869e+02 -2.380937481217e+02 0.000000000000e+00 -9.829181101664e-03 
0.000000000000e+00 -6.202541854239e-01 0.000000000000e+00 -2.380937481824e+02 -9.523749927370e+02 -2.380937481839e+02 0.000000000000e+00 -1.084981251755e-02 
0.000000000000e+00 -5.859254847404e-01 0.000000000000e+00 -2.380937482955e+02 -9.523749931965e+02 -2.380937482984e+02 0.000000000000e+00 -1.183062639968e-02 
0.000000000000e+00 -5.529651305953e-01 0.000000000000e+00 -2.380937484371e+02 -9.523749937907e+02 -2.380937484456e+02 0.000000000000e+00 -1.277234491158e-02 
0.000000000000e+00 -5.212997813718e-01 0.000000000000e+00 -2.380937485622e+02 -9.523749943140e+02 -2.380937485752e+02 0.000000000000e+00 -1.367706351490e-02 
0.000000000000e+00 -4.908798744802e-01 0.000000000000e+00 -2.380937486496e+02 -9.523749946863e+02 -2.380937486672e+02 0.000000000000e+00 -1.454619827465e-02 
0.000000000000e+00 -4.616595392039e-01 0.000000000000e+00 -2.380937486814e+02 -9.523749948834e+02 -2.380937487130e+02 0.000000000000e+00 -1.538105977433e-02 
0.000000000000e+00 -4.336013132129e-01 0.000000000000e+00 -2.380937486758e+02 -9.523749950237e+02 -2.380937487399e+02 0.000000000000e+00 -1.618271835943e-02 
0.000000000000e+00 -4.066333808964e-01 0.000000000000e+00 -2.380937487012e+02 -9.523749952968e+02 -2.380937487996e+02 0.000000000000e+00 -1.695322589171e-02 
5.004338622634e-02 -4.224088684799e-01 0.000000000000e+00 -2.380937487576e+02 -9.523749950476e+02 -2.380937487610e+02 9.934585605967e-14 -1.650250049430e-02 
5.008792076171e-02 -4.761562843354e-01 0.000000000000e+00 -2.380937486996e+02 -9.523749947925e+02 -2.380937486984e+02 2.733036956508e-14 -1.496686964722e-02 
5.006173506594e-02 -5.371347226804e-01 0.000000000000e+00 -2.380937485164e+02 -9.523749940382e+02 -2.380937485109e+02 1.065070887252e-14 -1.322463945081e-02 
5.005598078520e-02 -6.030075791828e-01 0.000000000000e+00 -2.380937482280e+02 -9.523749929123e+02 -2.380937482281e+02 5.582874099174e-15 -1.134256961240e-02 
5.008345235811e-02 -6.744505768430e-01 0.000000000000e+00 -2.380937481140e+02 -9.523749924586e+02 -2.380937481145e+02 3.085505192262e-16 -9.301353881332e-03 
5.006913214781e-02 -7.520111988761e-01 0.000000000000e+00 -2.380937481868e+02 -9.523749927428e+02 -2.380937481859e+02 4.970490016452e-15 -7.085349976314e-03 
5.005245558618e-02 -8.359504089462e-01 0.000000000000e+00 -2.380937481463e+02 -9.523749925878e+02 -2.380937481468e+02 1.192027556483e-14 -4.687101838913e-03 
3.066487977987e-02 -3.967816778596e-01 0.000000000000e+00 -2.380937487683e+02 -9.523749954375e+02 -2.380937488412e+02 1.299643141744e-13 -1.723470136068e-02 
6.944556402011e-02 -3.968201233631e-01 0.000000000000e+00 -2.380937489373e+02 -9.523749953168e+02 -2.380937488508e+02 1.311815317947e-13 -1.723360292446e-02 
6.938741587335e-02 -4.492665666015e-01 0.000000000000e+00 -2.380937487601e+02 -9.523749949269e+02 -2.380937487374e+02 4.930569058519e-14 -1.573514249087e-02 
5.007750042915e-02 -9.269884316941e-01 0.000000000000e+00 -2.380937479584e+02 -9.523749918350e+02 -2.380937479587e+02 3.877327474852e-15 -2.086031752752e-03 
3.079310721189e-02 -4.492985454339e-01 0.000000000000e+00 -2.380937486973e+02 -9.523749949332e+02 -2.380937487261e+02 4.450281585916e-14 -1.573422881569e-02 
3.221669410502e-02 -5.066378347700e-01 0.000000000000e+00 -2.380937486183e+02 -9.523749945017e+02 -2.380937486240e+02 1.559253770539e-14 -1.409597365427e-02 
6.786784203733e-02 -5.066531442817e-01 0.000000000000e+00 -2.380937486351e+02 -9.523749944987e+02 -2.380937486268e+02 1.197974974119e-14 -1.409553624237e-02 
3.339642373282e-02 -5.700696953954e-01 0.000000000000e+00 -2.380937483619e+02 -9.523749934549e+02 -2.380937483634e+02 4.470468253693e-15 -1.228364611782e-02 
6.525807751313e-02 -6.387232377182e-01 0.000000000000e+00 -2.380937481395e+02 -9.523749925543e+02 -2.380937481388e+02 -2.258108421878e-15 -1.032212861127e-02 
5.008827505125e-02 -9.806018183701e-01 0.000000000000e+00 -2.380937479018e+02 -9.523749916111e+02 -2.380937479026e+02 -6.774388517312e-16 -5.542302920124e-04 
6.875407163887e-02 -5.693536686703e-01 0.000000000000e+00 -2.380937483695e+02 -9.523749934647e+02 -2.380937483668e+02 3.495953692872e-15 -1.230410389624e-02 
3.664624163484e-02 -7.132284082360e-01 0.000000000000e+00 -2.380937481406e+02 -9.523749925698e+02 -2.380937481421e+02 2.833846258977e-15 -8.193422774855e-03 
6.148490449038e-02 -7.939830735880e-01 0.000000000000e+00 -2.380937481979e+02 -9.523749927741e+02 -2.380937481944e+02 7.513943617146e-15 -5.886161060059e-03 
4.100384574845e-02 -8.814719130658e-01 0.000000000000e+00 -2.380937480485e+02 -9.523749922096e+02 -2.380937480516e+02 8.424990372690e-15 -3.386495574713e-03 
3.022970257450e-02 -6.380821728272e-01 0.000000000000e+00 -2.380937481398e+02 -9.523749925606e+02 -2.380937481401e+02 1.028060456069e-15 -1.034044463639e-02 
2.375340220851e-02 -4.221482437035e-01 0.000000000000e+00 -2.380937486939e+02 -9.523749950764e+02 -2.380937487541e+02 6.753893511120e-14 -1.650994686995e-02 
7.632731958147e-02 -4.221881213587e-01 0.000000000000e+00 -2.380937488332e+02 -9.523749950368e+02 -2.380937487740e+02 6.983979771059e-14 -1.650880751542e-02 
2.293783770176e-02 -4.762423539471e-01 0.000000000000e+00 -2.380937486705e+02 -9.523749947829e+02 -2.380937486907e+02 1.619174248689e-14 -1.496441053086e-02 
7.721888027343e-02 -4.761946882435e-01 0.000000000000e+00 -2.380937487153e+02 -9.523749947862e+02 -2.380937487003e+02 2.034061803167e-14 -1.496577239956e-02 
7.129547302367e-02 -7.125259253720e-01 0.000000000000e+00 -2.380937481433e+02 -9.523749925750e+02 -2.380937481437e+02 3.692517982802e-15 -8.213493588231e-03 
7.757437444143e-02 -5.370973525672e-01 0.000000000000e+00 -2.380937485111e+02 -9.523749940206e+02 -2.380937485063e+02 4.445539941204e-15 -1.322570716164e-02 
2.255445764899e-02 -5.371289046437e-01 0.000000000000e+00 -2.380937484974e+02 -9.523749940243e+02 -2.380937485044e+02 9.648525447234e-15 -1.322480567939e-02 
2.720299568724e-02 -7.931304852765e-01 0.000000000000e+00 -2.380937481920e+02 -9.523749927756e+02 -2.380937481935e+02 5.897483601421e-15 -5.910520573671e-03 
7.798696120885e-02 -6.030216482613e-01 0.000000000000e+00 -2.380937482291e+02 -9.523749929085e+02 -2.380937482275e+02 3.007367011533e-15 -1.134216764124e-02 
2.212749701135e-02 -6.030477024067e-01 0.000000000000e+00 -2.380937482229e+02 -9.523749929105e+02 -2.380937482267e+02 3.391320414714e-15 -1.134142324175e-02 
1.000000000000e-01 -3.807449903129e-01 0.000000000000e+00 -2.380937491421e+02 -9.523749957362e+02 -2.380937489757e+02 0.000000000000e+00 -1.769288956741e-02 
0.000000000000e+00 -3.807449903129e-01 0.000000000000e+00 -2.380937488206e+02 -9.523749963859e+02 -2.380937490413e+02 0.000000000000e+00 -1.769288956788e-02 
5.009415947708e-02 -3.711929596105e-01 0.000000000000e+00 -2.380937490784e+02 -9.523749963915e+02 -2.380937490940e+02 3.304435071291e-13 -1.796580302371e-02 
2.414696816088e-02 -3.709124382382e-01 0.000000000000e+00 -2.380937489953e+02 -9.523749969359e+02 -2.380937491862e+02 2.863099521306e-13 -1.797381787029e-02 
7.605350107748e-02 -3.708957544133e-01 0.000000000000e+00 -2.380937493709e+02 -9.523749963999e+02 -2.380937491542e+02 2.210599655453e-13 -1.797429454749e-02 
18  1  51  18
1  2  51  1
2  19  51  2
43  3  58  43
3  4  58  3
4  5  44  4
4  44  58  4
44  5  60  44
5  6  60  5
6  7  48  6
6  48  60  6
48  7  62  48
7  8  62  7
8  9  52  8
8  52  62  8
52  9  65  52
9  10  65  9
10  11  50  10
10  50  65  10
11  12  39  11
11  39  50  11
39  12  61  39
12  13  61  12
13  14  40  13
13  40  61  13
40  14  54  40
14  15  54  14
15  16  41  15
15  41  54  15
16  17  55  16
41  16  55  41
17  45  55  17
17  18  45  17
45  18  51  45
19  45  51  19
19  20  45  19
45  20  55  45
20  21  55  20
21  22  41  21
21  41  55  21
41  22  64  41
22  23  64  22
23  24  40  23
23  40  64  23
40  24  53  40
24  25  53  24
25  26  39  25
25  39  53  25
39  26  56  39
26  27  56  26
56  27  66  56
27  28  66  27
28  29  49  28
28  49  66  28
49  29  63  49
29  30  63  29
30  31  47  30
30  47  63  30
47  31  59  47
31  32  59  31
32  33  46  32
32  46  59  32
46  33  57  46
33  34  57  33
34  42  57  34
35  42  43  35
35  44  46  35
42  35  57  42
35  43  58  35
35  46  57  35
44  35  58  44
44  36  46  44
47  36  48  47
48  36  60  48
36  47  59  36
36  44  60  36
46  36  59  46
37  47  48  37
49  37  52  49
37  49  63  37
52  37  62  52
47  37  63  47
37  48  62  37
38  49  52  38
38  50  56  38
38  56  66  38
38  52  65  38
50  38  65  50
49  38  66  49
50  39  56  50
53  39  61  53
40  53  61  40
40  54  64  40
54  41  64  54
67  3  43  67
34  68  42  34
42  69  43  42
42  68  70  42
69  42  70  69
67  43  71  67
43  69  71  43
