VARIABLES  = "X","Y","Z", "PRESSURE1"
ZONE T="0.000000000000e+00s", N=74, E=113, F=FEPOINT, ET=QUADRILATERAL
STRANDID=1, SOLUTIONTIME=0.000000000000e+00
0.000000000000e+00 0.000000000000e+00 0.000000000000e+00 0.000000000000e+00 
1.000000000000e-01 0.000000000000e+00 0.000000000000e+00 0.000000000000e+00 
1.111111111111e-02 0.000000000000e+00 0.000000000000e+00 0.000000000000e+00 
2.222222222222e-02 0.000000000000e+00 0.000000000000e+00 0.000000000000e+00 
3.333333333333e-02 0.000000000000e+00 0.000000000000e+00 0.000000000000e+00 
4.444444444444e-02 0.000000000000e+00 0.000000000000e+00 0.000000000000e+00 
5.555555555555e-02 0.000000000000e+00 0.000000000000e+00 0.000000000000e+00 
6.666666666666e-02 0.000000000000e+00 0.000000000000e+00 0.000000000000e+00 
7.777777777778e-02 0.000000000000e+00 0.000000000000e+00 0.000000000000e+00 
8.888888888889e-02 0.000000000000e+00 0.000000000000e+00 0.000000000000e+00 
1.000000000000e-01 -1.027078831439e-02 0.000000000000e+00 0.000000000000e+00 
1.000000000000e-01 -2.095579726046e-02 0.000000000000e+00 0.000000000000e+00 
1.000000000000e-01 -3.207786985738e-02 0.000000000000e+00 0.000000000000e+00 
1.000000000000e-01 -4.365795665274e-02 0.000000000000e+00 0.000000000000e+00 
1.000000000000e-01 -5.571534163644e-02 0.000000000000e+00 0.000000000000e+00 
1.000000000000e-01 -6.826783355915e-02 0.000000000000e+00 0.000000000000e+00 
0.000000000000e+00 -6.826783355915e-02 0.000000000000e+00 0.000000000000e+00 
0.000000000000e+00 -5.571534163644e-02 0.000000000000e+00 0.000000000000e+00 
0.000000000000e+00 -4.365795665274e-02 0.000000000000e+00 0.000000000000e+00 
0.000000000000e+00 -3.207786985738e-02 0.000000000000e+00 0.000000000000e+00 
0.000000000000e+00 -2.095579726046e-02 0.000000000000e+00 0.000000000000e+00 
0.000000000000e+00 -1.027078831439e-02 0.000000000000e+00 0.000000000000e+00 
5.004498772813e-02 -4.996206278841e-02 0.000000000000e+00 0.000000000000e+00 
7.225358222233e-02 -2.762721782684e-02 0.000000000000e+00 0.000000000000e+00 
2.775548582498e-02 -2.745540160687e-02 0.000000000000e+00 0.000000000000e+00 
5.002530677431e-02 -2.216144592127e-02 0.000000000000e+00 0.000000000000e+00 
2.456481525732e-02 -5.204499879856e-02 0.000000000000e+00 0.000000000000e+00 
7.556622015059e-02 -5.213930935979e-02 0.000000000000e+00 0.000000000000e+00 
8.415554875855e-02 -1.593261949054e-02 0.000000000000e+00 0.000000000000e+00 
1.584570179876e-02 -1.589435702197e-02 0.000000000000e+00 0.000000000000e+00 
6.357480821475e-02 -1.499016162324e-02 0.000000000000e+00 0.000000000000e+00 
3.653928432153e-02 -1.491811755562e-02 0.000000000000e+00 0.000000000000e+00 
4.156694993639e-02 -3.606774926499e-02 0.000000000000e+00 0.000000000000e+00 
8.454242557621e-02 -3.844635220127e-02 0.000000000000e+00 0.000000000000e+00 
1.557815204777e-02 -3.837711259674e-02 0.000000000000e+00 0.000000000000e+00 
5.839491143928e-02 -3.605583620800e-02 0.000000000000e+00 0.000000000000e+00 
6.206074805899e-02 -5.978173210899e-02 0.000000000000e+00 0.000000000000e+00 
3.802067276118e-02 -5.975942885331e-02 0.000000000000e+00 0.000000000000e+00 
5.005728778040e-02 -1.036531727070e-02 0.000000000000e+00 0.000000000000e+00 
7.049571814535e-02 -4.034466657971e-02 0.000000000000e+00 0.000000000000e+00 
2.941632652166e-02 -4.017271159170e-02 0.000000000000e+00 0.000000000000e+00 
8.897479783189e-02 -2.710999574393e-02 0.000000000000e+00 0.000000000000e+00 
1.113464613131e-02 -2.708126415819e-02 0.000000000000e+00 0.000000000000e+00 
2.597015323725e-02 -1.069324664278e-02 0.000000000000e+00 0.000000000000e+00 
7.408283873696e-02 -1.070827713528e-02 0.000000000000e+00 0.000000000000e+00 
1.181905148011e-02 -5.063704677617e-02 0.000000000000e+00 0.000000000000e+00 
8.827644021441e-02 -5.068271212769e-02 0.000000000000e+00 0.000000000000e+00 
3.837716410809e-02 -4.791954238685e-02 0.000000000000e+00 0.000000000000e+00 
3.962016499175e-02 -2.535813545822e-02 0.000000000000e+00 0.000000000000e+00 
6.040098105514e-02 -2.537942735538e-02 0.000000000000e+00 0.000000000000e+00 
6.163087269112e-02 -4.804641620450e-02 0.000000000000e+00 0.000000000000e+00 
9.069229804381e-02 -9.171850869289e-03 0.000000000000e+00 0.000000000000e+00 
9.354468020660e-03 -9.152635551513e-03 0.000000000000e+00 0.000000000000e+00 
6.112116579903e-02 -6.644401917176e-03 0.000000000000e+00 0.000000000000e+00 
3.895159902251e-02 -6.578247738084e-03 0.000000000000e+00 0.000000000000e+00 
1.789231550313e-02 -7.427897760453e-03 0.000000000000e+00 0.000000000000e+00 
4.997781314446e-02 -3.165806160767e-02 0.000000000000e+00 0.000000000000e+00 
8.218065868343e-02 -7.482707021761e-03 0.000000000000e+00 0.000000000000e+00 
7.593146034688e-02 -1.946650689593e-02 0.000000000000e+00 0.000000000000e+00 
9.100272279741e-02 -6.058966642700e-02 0.000000000000e+00 0.000000000000e+00 
9.097483185567e-03 -6.052866285240e-02 0.000000000000e+00 0.000000000000e+00 
2.403235587872e-02 -1.937579604224e-02 0.000000000000e+00 0.000000000000e+00 
5.204798323580e-02 -5.977244273485e-02 0.000000000000e+00 0.000000000000e+00 
8.958901145892e-02 -7.668408325171e-02 0.000000000000e+00 0.000000000000e+00 
1.000000000000e-01 -8.133192903590e-02 0.000000000000e+00 0.000000000000e+00 
1.044096559141e-02 -7.656376756274e-02 0.000000000000e+00 0.000000000000e+00 
0.000000000000e+00 -8.133192903590e-02 0.000000000000e+00 0.000000000000e+00 
1.693000682173e-02 -6.715456475858e-02 0.000000000000e+00 0.000000000000e+00 
2.804557775330e-02 -6.508329529637e-02 0.000000000000e+00 0.000000000000e+00 
8.318938762240e-02 -6.726290804214e-02 0.000000000000e+00 0.000000000000e+00 
7.207066164269e-02 -6.508809647676e-02 0.000000000000e+00 0.000000000000e+00 
6.027993180190e-02 -6.988363285687e-02 0.000000000000e+00 0.000000000000e+00 
5.002678796997e-02 -6.957908922559e-02 0.000000000000e+00 0.000000000000e+00 
3.977027004405e-02 -6.986979884634e-02 0.000000000000e+00 0.000000000000e+00 
1  3  53  1
22  1  53  22
10  2  52  10
2  11  52  2
3  4  56  3
53  3  56  53
4  5  44  4
4  44  56  4
44  5  55  44
5  6  55  5
6  7  39  6
6  39  55  6
39  7  54  39
7  8  54  7
8  45  54  8
8  9  45  8
9  10  58  9
45  9  58  45
10  52  58  10
11  12  52  11
12  29  52  12
29  12  42  29
12  13  42  12
13  14  34  13
13  34  42  13
34  14  47  34
14  15  47  14
15  16  60  15
47  15  60  47
17  18  61  17
18  19  46  18
18  46  61  18
19  20  35  19
19  35  46  19
35  20  43  35
20  21  43  20
30  21  53  30
21  30  43  21
21  22  53  21
23  33  57  23
36  23  57  36
33  23  48  33
23  36  51  23
38  23  63  38
23  38  48  23
23  51  63  23
34  24  42  34
42  24  59  42
24  34  40  24
36  24  40  36
24  36  50  24
31  24  50  31
24  31  59  24
25  35  43  25
25  43  62  25
35  25  41  35
25  33  41  25
33  25  49  33
32  25  62  32
25  32  49  25
31  26  39  31
26  32  39  26
26  31  50  26
32  26  49  32
26  50  57  26
49  26  57  49
46  27  61  46
27  35  41  27
35  27  46  35
38  27  48  38
27  41  48  27
28  47  60  28
34  28  40  34
28  34  47  28
28  37  51  28
40  28  51  40
29  42  59  29
45  29  59  45
29  45  58  29
52  29  58  52
43  30  62  43
44  30  56  44
30  44  62  30
30  53  56  30
31  39  54  31
45  31  54  45
31  45  59  31
39  32  55  39
32  44  55  32
44  32  62  44
41  33  48  41
33  49  57  33
36  40  51  36
50  36  57  50
51  37  63  51
16  64  60  16
16  65  64  16
66  17  61  66
67  17  66  67
27  68  61  27
68  27  69  68
27  38  69  27
70  28  60  70
28  70  71  28
37  28  71  37
37  71  72  37
63  37  72  63
73  38  63  73
38  73  74  38
69  38  74  69
64  70  60  64
68  66  61  68
73  63  72  73
VARIABLES  = "X","Y","Z", "PRESSURE1"
ZONE T="1.000000000000e+01s", N=74, E=113, F=FEPOINT, ET=QUADRILATERAL
STRANDID=1, SOLUTIONTIME=1.000000000000e+01
0.000000000000e+00 0.000000000000e+00 0.000000000000e+00 0.000000000000e+00 
1.000000000000e-01 0.000000000000e+00 0.000000000000e+00 0.000000000000e+00 
1.111111111111e-02 0.000000000000e+00 0.000000000000e+00 0.000000000000e+00 
2.222222222222e-02 0.000000000000e+00 0.000000000000e+00 0.000000000000e+00 
3.333333333333e-02 0.000000000000e+00 0.000000000000e+00 0.000000000000e+00 
4.444444444444e-02 0.000000000000e+00 0.000000000000e+00 0.000000000000e+00 
5.555555555555e-02 0.000000000000e+00 0.000000000000e+00 0.000000000000e+00 
6.666666666666e-02 0.000000000000e+00 0.000000000000e+00 0.000000000000e+00 
7.777777777778e-02 0.000000000000e+00 0.000000000000e+00 0.000000000000e+00 
8.888888888889e-02 0.000000000000e+00 0.000000000000e+00 0.000000000000e+00 
1.000000000000e-01 -1.027078831439e-02 0.000000000000e+00 7.127191175045e+00 
1.000000000000e-01 -2.095579726046e-02 0.000000000000e+00 1.430495799813e+01 
1.000000000000e-01 -3.207786985738e-02 0.000000000000e+00 2.114735037406e+01 
1.000000000000e-01 -4.365795665274e-02 0.000000000000e+00 2.739308456378e+01 
1.000000000000e-01 -5.571534163644e-02 0.000000000000e+00 3.283195412993e+01 
1.000000000000e-01 -6.826783355915e-02 0.000000000000e+00 3.723267535772e+01 
0.000000000000e+00 -6.826783355915e-02 0.000000000000e+00 3.723392970327e+01 
0.000000000000e+00 -5.571534163644e-02 0.000000000000e+00 3.283304349741e+01 
0.000000000000e+00 -4.365795665274e-02 0.000000000000e+00 2.739339165407e+01 
0.000000000000e+00 -3.207786985738e-02 0.000000000000e+00 2.114646869702e+01 
0.000000000000e+00 -2.095579726046e-02 0.000000000000e+00 1.430432052897e+01 
0.000000000000e+00 -1.027078831439e-02 0.000000000000e+00 7.126549109438e+00 
5.004498772813e-02 -4.996206278841e-02 0.000000000000e+00 3.040726829956e+01 
7.225358222233e-02 -2.762721782684e-02 0.000000000000e+00 1.850884639831e+01 
2.775548582498e-02 -2.745540160687e-02 0.000000000000e+00 1.840202819458e+01 
5.002530677431e-02 -2.216144592127e-02 0.000000000000e+00 1.507062067745e+01 
2.456481525732e-02 -5.204499879856e-02 0.000000000000e+00 3.134848482255e+01 
7.556622015059e-02 -5.213930935979e-02 0.000000000000e+00 3.138574228454e+01 
8.415554875855e-02 -1.593261949054e-02 0.000000000000e+00 1.098020667917e+01 
1.584570179876e-02 -1.589435702197e-02 0.000000000000e+00 1.095383377899e+01 
6.357480821475e-02 -1.499016162324e-02 0.000000000000e+00 1.037181620605e+01 
3.653928432153e-02 -1.491811755562e-02 0.000000000000e+00 1.032206995932e+01 
4.156694993639e-02 -3.606774926499e-02 0.000000000000e+00 2.336787962816e+01 
8.454242557621e-02 -3.844635220127e-02 0.000000000000e+00 2.473721058011e+01 
1.557815204777e-02 -3.837711259674e-02 0.000000000000e+00 2.469919738446e+01 
5.839491143928e-02 -3.605583620800e-02 0.000000000000e+00 2.336586968410e+01 
6.206074805899e-02 -5.978173210899e-02 0.000000000000e+00 3.435867942390e+01 
3.802067276118e-02 -5.975942885331e-02 0.000000000000e+00 3.440809605589e+01 
5.005728778040e-02 -1.036531727070e-02 0.000000000000e+00 7.217018237293e+00 
7.049571814535e-02 -4.034466657971e-02 0.000000000000e+00 2.567880051841e+01 
2.941632652166e-02 -4.017271159170e-02 0.000000000000e+00 2.558392661945e+01 
8.897479783189e-02 -2.710999574393e-02 0.000000000000e+00 1.817613360099e+01 
1.113464613131e-02 -2.708126415819e-02 0.000000000000e+00 1.815732832548e+01 
2.597015323725e-02 -1.069324664278e-02 0.000000000000e+00 7.440787679533e+00 
7.408283873696e-02 -1.070827713528e-02 0.000000000000e+00 7.451813189044e+00 
1.181905148011e-02 -5.063704677617e-02 0.000000000000e+00 3.066079236875e+01 
8.827644021441e-02 -5.068271212769e-02 0.000000000000e+00 3.067956743043e+01 
3.837716410809e-02 -4.791954238685e-02 0.000000000000e+00 2.940009346983e+01 
3.962016499175e-02 -2.535813545822e-02 0.000000000000e+00 1.706506374892e+01 
6.040098105514e-02 -2.537942735538e-02 0.000000000000e+00 1.708029707870e+01 
6.163087269112e-02 -4.804641620450e-02 0.000000000000e+00 2.948020054262e+01 
9.069229804381e-02 -9.171850869289e-03 0.000000000000e+00 6.397509380685e+00 
9.354468020660e-03 -9.152635551513e-03 0.000000000000e+00 6.383808365273e+00 
6.112116579903e-02 -6.644401917176e-03 0.000000000000e+00 4.641403227762e+00 
3.895159902251e-02 -6.578247738084e-03 0.000000000000e+00 4.595099625382e+00 
1.789231550313e-02 -7.427897760453e-03 0.000000000000e+00 5.180656503789e+00 
4.997781314446e-02 -3.165806160767e-02 0.000000000000e+00 2.092293129264e+01 
8.218065868343e-02 -7.482707021761e-03 0.000000000000e+00 5.219005109965e+00 
7.593146034688e-02 -1.946650689593e-02 0.000000000000e+00 1.331728859769e+01 
9.100272279741e-02 -6.058966642700e-02 0.000000000000e+00 3.470990014346e+01 
9.097483185567e-03 -6.052866285240e-02 0.000000000000e+00 3.468953056722e+01 
2.403235587872e-02 -1.937579604224e-02 0.000000000000e+00 1.325725397723e+01 
5.204798323580e-02 -5.977244273485e-02 0.000000000000e+00 3.440491302037e+01 
8.958901145892e-02 -7.668408325171e-02 0.000000000000e+00 3.961687317541e+01 
1.000000000000e-01 -8.133192903590e-02 0.000000000000e+00 4.074052265342e+01 
1.044096559141e-02 -7.656376756274e-02 0.000000000000e+00 3.958421443253e+01 
0.000000000000e+00 -8.133192903590e-02 0.000000000000e+00 4.073922981580e+01 
1.693000682173e-02 -6.715456475858e-02 0.000000000000e+00 3.697753635939e+01 
2.804557775330e-02 -6.508329529637e-02 0.000000000000e+00 3.624692320626e+01 
8.318938762240e-02 -6.726290804214e-02 0.000000000000e+00 3.700722138050e+01 
7.207066164269e-02 -6.508809647676e-02 0.000000000000e+00 3.623511773040e+01 
6.027993180190e-02 -6.988363285687e-02 0.000000000000e+00 3.776915389100e+01 
5.002678796997e-02 -6.957908922559e-02 0.000000000000e+00 3.771308465839e+01 
3.977027004405e-02 -6.986979884634e-02 0.000000000000e+00 3.776750279754e+01 
1  3  53  1
22  1  53  22
10  2  52  10
2  11  52  2
3  4  56  3
53  3  56  53
4  5  44  4
4  44  56  4
44  5  55  44
5  6  55  5
6  7  39  6
6  39  55  6
39  7  54  39
7  8  54  7
8  45  54  8
8  9  45  8
9  10  58  9
45  9  58  45
10  52  58  10
11  12  52  11
12  29  52  12
29  12  42  29
12  13  42  12
13  14  34  13
13  34  42  13
34  14  47  34
14  15  47  14
15  16  60  15
47  15  60  47
17  18  61  17
18  19  46  18
18  46  61  18
19  20  35  19
19  35  46  19
35  20  43  35
20  21  43  20
30  21  53  30
21  30  43  21
21  22  53  21
23  33  57  23
36  23  57  36
33  23  48  33
23  36  51  23
38  23  63  38
23  38  48  23
23  51  63  23
34  24  42  34
42  24  59  42
24  34  40  24
36  24  40  36
24  36  50  24
31  24  50  31
24  31  59  24
25  35  43  25
25  43  62  25
35  25  41  35
25  33  41  25
33  25  49  33
32  25  62  32
25  32  49  25
31  26  39  31
26  32  39  26
26  31  50  26
32  26  49  32
26  50  57  26
49  26  57  49
46  27  61  46
27  35  41  27
35  27  46  35
38  27  48  38
27  41  48  27
28  47  60  28
34  28  40  34
28  34  47  28
28  37  51  28
40  28  51  40
29  42  59  29
45  29  59  45
29  45  58  29
52  29  58  52
43  30  62  43
44  30  56  44
30  44  62  30
30  53  56  30
31  39  54  31
45  31  54  45
31  45  59  31
39  32  55  39
32  44  55  32
44  32  62  44
41  33  48  41
33  49  57  33
36  40  51  36
50  36  57  50
51  37  63  51
16  64  60  16
16  65  64  16
66  17  61  66
67  17  66  67
27  68  61  27
68  27  69  68
27  38  69  27
70  28  60  70
28  70  71  28
37  28  71  37
37  71  72  37
63  37  72  63
73  38  63  73
38  73  74  38
69  38  74  69
64  70  60  64
68  66  61  68
73  63  72  73
