VARIABLES  = "X","Y","Z", "STRESS_XX", "STRESS_YY", "STRESS_ZZ", "DISPLACEMENT_X1", "DISPLACEMENT_Y1"
ZONE T="0.000000000000e+00s", N=74, E=113, F=FEPOINT, ET=QUADRILATERAL
STRANDID=1, SOLUTIONTIME=0.000000000000e+00
0.000000000000e+00 0.000000000000e+00 0.000000000000e+00 0.000000000000e+00 0.000000000000e+00 0.000000000000e+00 0.000000000000e+00 0.000000000000e+00 
1.000000000000e-01 0.000000000000e+00 0.000000000000e+00 0.000000000000e+00 0.000000000000e+00 0.000000000000e+00 0.000000000000e+00 0.000000000000e+00 
1.111111111111e-02 0.000000000000e+00 0.000000000000e+00 0.000000000000e+00 0.000000000000e+00 0.000000000000e+00 0.000000000000e+00 0.000000000000e+00 
2.222222222222e-02 0.000000000000e+00 0.000000000000e+00 0.000000000000e+00 0.000000000000e+00 0.000000000000e+00 0.000000000000e+00 0.000000000000e+00 
3.333333333333e-02 0.000000000000e+00 0.000000000000e+00 0.000000000000e+00 0.000000000000e+00 0.000000000000e+00 0.000000000000e+00 0.000000000000e+00 
4.444444444444e-02 0.000000000000e+00 0.000000000000e+00 0.000000000000e+00 0.000000000000e+00 0.000000000000e+00 0.000000000000e+00 0.000000000000e+00 
5.555555555555e-02 0.000000000000e+00 0.000000000000e+00 0.000000000000e+00 0.000000000000e+00 0.000000000000e+00 0.000000000000e+00 0.000000000000e+00 
6.666666666666e-02 0.000000000000e+00 0.000000000000e+00 0.000000000000e+00 0.000000000000e+00 0.000000000000e+00 0.000000000000e+00 0.000000000000e+00 
7.777777777778e-02 0.000000000000e+00 0.000000000000e+00 0.000000000000e+00 0.000000000000e+00 0.000000000000e+00 0.000000000000e+00 0.000000000000e+00 
8.888888888889e-02 0.000000000000e+00 0.000000000000e+00 0.000000000000e+00 0.000000000000e+00 0.000000000000e+00 0.000000000000e+00 0.000000000000e+00 
1.000000000000e-01 -1.027078831439e-02 0.000000000000e+00 0.000000000000e+00 0.000000000000e+00 0.000000000000e+00 0.000000000000e+00 0.000000000000e+00 
1.000000000000e-01 -2.095579726046e-02 0.000000000000e+00 0.000000000000e+00 0.000000000000e+00 0.000000000000e+00 0.000000000000e+00 0.000000000000e+00 
1.000000000000e-01 -3.207786985738e-02 0.000000000000e+00 0.000000000000e+00 0.000000000000e+00 0.000000000000e+00 0.000000000000e+00 0.000000000000e+00 
1.000000000000e-01 -4.365795665274e-02 0.000000000000e+00 0.000000000000e+00 0.000000000000e+00 0.000000000000e+00 0.000000000000e+00 0.000000000000e+00 
1.000000000000e-01 -5.571534163644e-02 0.000000000000e+00 0.000000000000e+00 0.000000000000e+00 0.000000000000e+00 0.000000000000e+00 0.000000000000e+00 
1.000000000000e-01 -6.826783355915e-02 0.000000000000e+00 0.000000000000e+00 0.000000000000e+00 0.000000000000e+00 0.000000000000e+00 0.000000000000e+00 
0.000000000000e+00 -6.826783355915e-02 0.000000000000e+00 0.000000000000e+00 0.000000000000e+00 0.000000000000e+00 0.000000000000e+00 0.000000000000e+00 
0.000000000000e+00 -5.571534163644e-02 0.000000000000e+00 0.000000000000e+00 0.000000000000e+00 0.000000000000e+00 0.000000000000e+00 0.000000000000e+00 
0.000000000000e+00 -4.365795665274e-02 0.000000000000e+00 0.000000000000e+00 0.000000000000e+00 0.000000000000e+00 0.000000000000e+00 0.000000000000e+00 
0.000000000000e+00 -3.207786985738e-02 0.000000000000e+00 0.000000000000e+00 0.000000000000e+00 0.000000000000e+00 0.000000000000e+00 0.000000000000e+00 
0.000000000000e+00 -2.095579726046e-02 0.000000000000e+00 0.000000000000e+00 0.000000000000e+00 0.000000000000e+00 0.000000000000e+00 0.000000000000e+00 
0.000000000000e+00 -1.027078831439e-02 0.000000000000e+00 0.000000000000e+00 0.000000000000e+00 0.000000000000e+00 0.000000000000e+00 0.000000000000e+00 
5.004498772813e-02 -4.996206278841e-02 0.000000000000e+00 0.000000000000e+00 0.000000000000e+00 0.000000000000e+00 0.000000000000e+00 0.000000000000e+00 
7.225358222233e-02 -2.762721782684e-02 0.000000000000e+00 0.000000000000e+00 0.000000000000e+00 0.000000000000e+00 0.000000000000e+00 0.000000000000e+00 
2.775548582498e-02 -2.745540160687e-02 0.000000000000e+00 0.000000000000e+00 0.000000000000e+00 0.000000000000e+00 0.000000000000e+00 0.000000000000e+00 
5.002530677431e-02 -2.216144592127e-02 0.000000000000e+00 0.000000000000e+00 0.000000000000e+00 0.000000000000e+00 0.000000000000e+00 0.000000000000e+00 
2.456481525732e-02 -5.204499879856e-02 0.000000000000e+00 0.000000000000e+00 0.000000000000e+00 0.000000000000e+00 0.000000000000e+00 0.000000000000e+00 
7.556622015059e-02 -5.213930935979e-02 0.000000000000e+00 0.000000000000e+00 0.000000000000e+00 0.000000000000e+00 0.000000000000e+00 0.000000000000e+00 
8.415554875855e-02 -1.593261949054e-02 0.000000000000e+00 0.000000000000e+00 0.000000000000e+00 0.000000000000e+00 0.000000000000e+00 0.000000000000e+00 
1.584570179876e-02 -1.589435702197e-02 0.000000000000e+00 0.000000000000e+00 0.000000000000e+00 0.000000000000e+00 0.000000000000e+00 0.000000000000e+00 
6.357480821475e-02 -1.499016162324e-02 0.000000000000e+00 0.000000000000e+00 0.000000000000e+00 0.000000000000e+00 0.000000000000e+00 0.000000000000e+00 
3.653928432153e-02 -1.491811755562e-02 0.000000000000e+00 0.000000000000e+00 0.000000000000e+00 0.000000000000e+00 0.000000000000e+00 0.000000000000e+00 
4.156694993639e-02 -3.606774926499e-02 0.000000000000e+00 0.000000000000e+00 0.000000000000e+00 0.000000000000e+00 0.000000000000e+00 0.000000000000e+00 
8.454242557621e-02 -3.844635220127e-02 0.000000000000e+00 0.000000000000e+00 0.000000000000e+00 0.000000000000e+00 0.000000000000e+00 0.000000000000e+00 
1.557815204777e-02 -3.837711259674e-02 0.000000000000e+00 0.000000000000e+00 0.000000000000e+00 0.000000000000e+00 0.000000000000e+00 0.000000000000e+00 
5.839491143928e-02 -3.605583620800e-02 0.000000000000e+00 0.000000000000e+00 0.000000000000e+00 0.000000000000e+00 0.000000000000e+00 0.000000000000e+00 
6.206074805899e-02 -5.978173210899e-02 0.000000000000e+00 0.000000000000e+00 0.000000000000e+00 0.000000000000e+00 0.000000000000e+00 0.000000000000e+00 
3.802067276118e-02 -5.975942885331e-02 0.000000000000e+00 0.000000000000e+00 0.000000000000e+00 0.000000000000e+00 0.000000000000e+00 0.000000000000e+00 
5.005728778040e-02 -1.036531727070e-02 0.000000000000e+00 0.000000000000e+00 0.000000000000e+00 0.000000000000e+00 0.000000000000e+00 0.000000000000e+00 
7.049571814535e-02 -4.034466657971e-02 0.000000000000e+00 0.000000000000e+00 0.000000000000e+00 0.000000000000e+00 0.000000000000e+00 0.000000000000e+00 
2.941632652166e-02 -4.017271159170e-02 0.000000000000e+00 0.000000000000e+00 0.000000000000e+00 0.000000000000e+00 0.000000000000e+00 0.000000000000e+00 
8.897479783189e-02 -2.710999574393e-02 0.000000000000e+00 0.000000000000e+00 0.000000000000e+00 0.000000000000e+00 0.000000000000e+00 0.000000000000e+00 
1.113464613131e-02 -2.708126415819e-02 0.000000000000e+00 0.000000000000e+00 0.000000000000e+00 0.000000000000e+00 0.000000000000e+00 0.000000000000e+00 
2.597015323725e-02 -1.069324664278e-02 0.000000000000e+00 0.000000000000e+00 0.000000000000e+00 0.000000000000e+00 0.000000000000e+00 0.000000000000e+00 
7.408283873696e-02 -1.070827713528e-02 0.000000000000e+00 0.000000000000e+00 0.000000000000e+00 0.000000000000e+00 0.000000000000e+00 0.000000000000e+00 
1.181905148011e-02 -5.063704677617e-02 0.000000000000e+00 0.000000000000e+00 0.000000000000e+00 0.000000000000e+00 0.000000000000e+00 0.000000000000e+00 
8.827644021441e-02 -5.068271212769e-02 0.000000000000e+00 0.000000000000e+00 0.000000000000e+00 0.000000000000e+00 0.000000000000e+00 0.000000000000e+00 
3.837716410809e-02 -4.791954238685e-02 0.000000000000e+00 0.000000000000e+00 0.000000000000e+00 0.000000000000e+00 0.000000000000e+00 0.000000000000e+00 
3.962016499175e-02 -2.535813545822e-02 0.000000000000e+00 0.000000000000e+00 0.000000000000e+00 0.000000000000e+00 0.000000000000e+00 0.000000000000e+00 
6.040098105514e-02 -2.537942735538e-02 0.000000000000e+00 0.000000000000e+00 0.000000000000e+00 0.000000000000e+00 0.000000000000e+00 0.000000000000e+00 
6.163087269112e-02 -4.804641620450e-02 0.000000000000e+00 0.000000000000e+00 0.000000000000e+00 0.000000000000e+00 0.000000000000e+00 0.000000000000e+00 
9.069229804381e-02 -9.171850869289e-03 0.000000000000e+00 0.000000000000e+00 0.000000000000e+00 0.000000000000e+00 0.000000000000e+00 0.000000000000e+00 
9.354468020660e-03 -9.152635551513e-03 0.000000000000e+00 0.000000000000e+00 0.000000000000e+00 0.000000000000e+00 0.000000000000e+00 0.000000000000e+00 
6.112116579903e-02 -6.644401917176e-03 0.000000000000e+00 0.000000000000e+00 0.000000000000e+00 0.000000000000e+00 0.000000000000e+00 0.000000000000e+00 
3.895159902251e-02 -6.578247738084e-03 0.000000000000e+00 0.000000000000e+00 0.000000000000e+00 0.000000000000e+00 0.000000000000e+00 0.000000000000e+00 
1.789231550313e-02 -7.427897760453e-03 0.000000000000e+00 0.000000000000e+00 0.000000000000e+00 0.000000000000e+00 0.000000000000e+00 0.000000000000e+00 
4.997781314446e-02 -3.165806160767e-02 0.000000000000e+00 0.000000000000e+00 0.000000000000e+00 0.000000000000e+00 0.000000000000e+00 0.000000000000e+00 
8.218065868343e-02 -7.482707021761e-03 0.000000000000e+00 0.000000000000e+00 0.000000000000e+00 0.000000000000e+00 0.000000000000e+00 0.000000000000e+00 
7.593146034688e-02 -1.946650689593e-02 0.000000000000e+00 0.000000000000e+00 0.000000000000e+00 0.000000000000e+00 0.000000000000e+00 0.000000000000e+00 
9.100272279741e-02 -6.058966642700e-02 0.000000000000e+00 0.000000000000e+00 0.000000000000e+00 0.000000000000e+00 0.000000000000e+00 0.000000000000e+00 
9.097483185567e-03 -6.052866285240e-02 0.000000000000e+00 0.000000000000e+00 0.000000000000e+00 0.000000000000e+00 0.000000000000e+00 0.000000000000e+00 
2.403235587872e-02 -1.937579604224e-02 0.000000000000e+00 0.000000000000e+00 0.000000000000e+00 0.000000000000e+00 0.000000000000e+00 0.000000000000e+00 
5.204798323580e-02 -5.977244273485e-02 0.000000000000e+00 0.000000000000e+00 0.000000000000e+00 0.000000000000e+00 0.000000000000e+00 0.000000000000e+00 
8.958901145892e-02 -7.668408325171e-02 0.000000000000e+00 0.000000000000e+00 0.000000000000e+00 0.000000000000e+00 0.000000000000e+00 0.000000000000e+00 
1.000000000000e-01 -8.133192903590e-02 0.000000000000e+00 0.000000000000e+00 0.000000000000e+00 0.000000000000e+00 0.000000000000e+00 0.000000000000e+00 
1.044096559141e-02 -7.656376756274e-02 0.000000000000e+00 0.000000000000e+00 0.000000000000e+00 0.000000000000e+00 0.000000000000e+00 0.000000000000e+00 
0.000000000000e+00 -8.133192903590e-02 0.000000000000e+00 0.000000000000e+00 0.000000000000e+00 0.000000000000e+00 0.000000000000e+00 0.000000000000e+00 
1.693000682173e-02 -6.715456475858e-02 0.000000000000e+00 0.000000000000e+00 0.000000000000e+00 0.000000000000e+00 0.000000000000e+00 0.000000000000e+00 
2.804557775330e-02 -6.508329529637e-02 0.000000000000e+00 0.000000000000e+00 0.000000000000e+00 0.000000000000e+00 0.000000000000e+00 0.000000000000e+00 
8.318938762240e-02 -6.726290804214e-02 0.000000000000e+00 0.000000000000e+00 0.000000000000e+00 0.000000000000e+00 0.000000000000e+00 0.000000000000e+00 
7.207066164269e-02 -6.508809647676e-02 0.000000000000e+00 0.000000000000e+00 0.000000000000e+00 0.000000000000e+00 0.000000000000e+00 0.000000000000e+00 
6.027993180190e-02 -6.988363285687e-02 0.000000000000e+00 0.000000000000e+00 0.000000000000e+00 0.000000000000e+00 0.000000000000e+00 0.000000000000e+00 
5.002678796997e-02 -6.957908922559e-02 0.000000000000e+00 0.000000000000e+00 0.000000000000e+00 0.000000000000e+00 0.000000000000e+00 0.000000000000e+00 
3.977027004405e-02 -6.986979884634e-02 0.000000000000e+00 0.000000000000e+00 0.000000000000e+00 0.000000000000e+00 0.000000000000e+00 0.000000000000e+00 
1  3  53  1
22  1  53  22
10  2  52  10
2  11  52  2
3  4  56  3
53  3  56  53
4  5  44  4
4  44  56  4
44  5  55  44
5  6  55  5
6  7  39  6
6  39  55  6
39  7  54  39
7  8  54  7
8  45  54  8
8  9  45  8
9  10  58  9
45  9  58  45
10  52  58  10
11  12  52  11
12  29  52  12
29  12  42  29
12  13  42  12
13  14  34  13
13  34  42  13
34  14  47  34
14  15  47  14
15  16  60  15
47  15  60  47
17  18  61  17
18  19  46  18
18  46  61  18
19  20  35  19
19  35  46  19
35  20  43  35
20  21  43  20
30  21  53  30
21  30  43  21
21  22  53  21
23  33  57  23
36  23  57  36
33  23  48  33
23  36  51  23
38  23  63  38
23  38  48  23
23  51  63  23
34  24  42  34
42  24  59  42
24  34  40  24
36  24  40  36
24  36  50  24
31  24  50  31
24  31  59  24
25  35  43  25
25  43  62  25
35  25  41  35
25  33  41  25
33  25  49  33
32  25  62  32
25  32  49  25
31  26  39  31
26  32  39  26
26  31  50  26
32  26  49  32
26  50  57  26
49  26  57  49
46  27  61  46
27  35  41  27
35  27  46  35
38  27  48  38
27  41  48  27
28  47  60  28
34  28  40  34
28  34  47  28
28  37  51  28
40  28  51  40
29  42  59  29
45  29  59  45
29  45  58  29
52  29  58  52
43  30  62  43
44  30  56  44
30  44  62  30
30  53  56  30
31  39  54  31
45  31  54  45
31  45  59  31
39  32  55  39
32  44  55  32
44  32  62  44
41  33  48  41
33  49  57  33
36  40  51  36
50  36  57  50
51  37  63  51
16  64  60  16
16  65  64  16
66  17  61  66
67  17  66  67
27  68  61  27
68  27  69  68
27  38  69  27
70  28  60  70
28  70  71  28
37  28  71  37
37  71  72  37
63  37  72  63
73  38  63  73
38  73  74  38
69  38  74  69
64  70  60  64
68  66  61  68
73  63  72  73
VARIABLES  = "X","Y","Z", "STRESS_XX", "STRESS_YY", "STRESS_ZZ", "DISPLACEMENT_X1", "DISPLACEMENT_Y1"
ZONE T="1.000000000000e+01s", N=74, E=113, F=FEPOINT, ET=QUADRILATERAL
STRANDID=1, SOLUTIONTIME=1.000000000000e+01
0.000000000000e+00 0.000000000000e+00 0.000000000000e+00 -2.499454790526e+02 -9.997637402179e+02 -2.499418438541e+02 0.000000000000e+00 -2.863478439016e-02 
1.000000000000e-01 0.000000000000e+00 0.000000000000e+00 -2.497971841309e+02 -9.991680459869e+02 -2.497930460235e+02 0.000000000000e+00 -2.863478383719e-02 
1.111111111111e-02 0.000000000000e+00 0.000000000000e+00 -2.499233741059e+02 -9.997122059671e+02 -2.499271160146e+02 -5.720085139016e-11 -2.863478279745e-02 
2.222222222222e-02 0.000000000000e+00 0.000000000000e+00 -2.498248413775e+02 -9.992987295112e+02 -2.498247141778e+02 1.342697842639e-09 -2.863478372685e-02 
3.333333333333e-02 0.000000000000e+00 0.000000000000e+00 -2.499367112278e+02 -9.997449843672e+02 -2.499363391190e+02 4.153487717571e-10 -2.863478433692e-02 
4.444444444444e-02 0.000000000000e+00 0.000000000000e+00 -2.498390170885e+02 -9.993440879756e+02 -2.498366210128e+02 6.460910168552e-10 -2.863478508538e-02 
5.555555555555e-02 0.000000000000e+00 0.000000000000e+00 -2.499377940757e+02 -9.997427231936e+02 -2.499361034539e+02 -1.482822140491e-09 -2.863478487099e-02 
6.666666666666e-02 0.000000000000e+00 0.000000000000e+00 -2.498314071435e+02 -9.993283489839e+02 -2.498319512255e+02 -9.897563935428e-10 -2.863478380771e-02 
7.777777777778e-02 0.000000000000e+00 0.000000000000e+00 -2.499269638739e+02 -9.997100654996e+02 -2.499274058747e+02 -1.626286205323e-09 -2.863478314558e-02 
8.888888888889e-02 0.000000000000e+00 0.000000000000e+00 -2.498337551731e+02 -9.993548882513e+02 -2.498377286849e+02 -6.398599578978e-11 -2.863478224253e-02 
1.000000000000e-01 -1.027078831439e-02 0.000000000000e+00 -2.480886709539e+02 -9.923303239935e+02 -2.480837989895e+02 0.000000000000e+00 -2.832776087149e-02 
1.000000000000e-01 -2.095579726046e-02 0.000000000000e+00 -2.463893972209e+02 -9.855762472205e+02 -2.463931288883e+02 0.000000000000e+00 -2.801064656518e-02 
1.000000000000e-01 -3.207786985738e-02 0.000000000000e+00 -2.446097530973e+02 -9.784568565315e+02 -2.446133219258e+02 0.000000000000e+00 -2.768290345250e-02 
1.000000000000e-01 -4.365795665274e-02 0.000000000000e+00 -2.430213011560e+02 -9.721058007202e+02 -2.430254203752e+02 0.000000000000e+00 -2.734393657119e-02 
1.000000000000e-01 -5.571534163644e-02 0.000000000000e+00 -2.417092612296e+02 -9.667853219466e+02 -2.416989166352e+02 0.000000000000e+00 -2.699311445404e-02 
1.000000000000e-01 -6.826783355915e-02 0.000000000000e+00 -2.406326916730e+02 -9.625634999780e+02 -2.406392383302e+02 0.000000000000e+00 -2.662974521904e-02 
0.000000000000e+00 -6.826783355915e-02 0.000000000000e+00 -2.407744842616e+02 -9.631412689604e+02 -2.407831506444e+02 0.000000000000e+00 -2.662974586381e-02 
0.000000000000e+00 -5.571534163644e-02 0.000000000000e+00 -2.418755129283e+02 -9.674473465959e+02 -2.418645719048e+02 0.000000000000e+00 -2.699311455134e-02 
0.000000000000e+00 -4.365795665274e-02 0.000000000000e+00 -2.432196148828e+02 -9.729032181176e+02 -2.432245666001e+02 0.000000000000e+00 -2.734393614436e-02 
0.000000000000e+00 -3.207786985738e-02 0.000000000000e+00 -2.448435360819e+02 -9.793877387021e+02 -2.448462549568e+02 0.000000000000e+00 -2.768290324035e-02 
0.000000000000e+00 -2.095579726046e-02 0.000000000000e+00 -2.465353696055e+02 -9.861601061409e+02 -2.465390951493e+02 0.000000000000e+00 -2.801064678030e-02 
0.000000000000e+00 -1.027078831439e-02 0.000000000000e+00 -2.483876646067e+02 -9.935241492931e+02 -2.483823627800e+02 0.000000000000e+00 -2.832776134228e-02 
5.004498772813e-02 -4.996206278841e-02 0.000000000000e+00 -2.424521894538e+02 -9.697592015875e+02 -2.424422782083e+02 1.290559007834e-09 -2.716025181505e-02 
7.225358222233e-02 -2.762721782684e-02 0.000000000000e+00 -2.453682456948e+02 -9.814778497850e+02 -2.453692190960e+02 -5.434524993840e-09 -2.781378733941e-02 
2.775548582498e-02 -2.745540160687e-02 0.000000000000e+00 -2.453970669447e+02 -9.815879272365e+02 -2.453969988362e+02 5.405336367196e-09 -2.781884731712e-02 
5.002530677431e-02 -2.216144592127e-02 0.000000000000e+00 -2.462319812523e+02 -9.849291689829e+02 -2.462322300470e+02 -3.920962907243e-10 -2.797501456691e-02 
2.456481525732e-02 -5.204499879856e-02 0.000000000000e+00 -2.421590852145e+02 -9.686451180374e+02 -2.421608406504e+02 1.664178638621e-09 -2.709969739786e-02 
7.556622015059e-02 -5.213930935979e-02 0.000000000000e+00 -2.421224409910e+02 -9.684991256973e+02 -2.421243133377e+02 -2.314297777714e-09 -2.709695790419e-02 
8.415554875855e-02 -1.593261949054e-02 0.000000000000e+00 -2.472289993247e+02 -9.889148550020e+02 -2.472287708653e+02 -6.499449701963e-10 -2.815944407948e-02 
1.584570179876e-02 -1.589435702197e-02 0.000000000000e+00 -2.473169970651e+02 -9.892674698517e+02 -2.473168933834e+02 5.694248353393e-10 -2.816057983504e-02 
6.357480821475e-02 -1.499016162324e-02 0.000000000000e+00 -2.474041396226e+02 -9.896073838917e+02 -2.474023047029e+02 -1.435779126550e-09 -2.818742099751e-02 
3.653928432153e-02 -1.491811755562e-02 0.000000000000e+00 -2.473989029928e+02 -9.895826161796e+02 -2.473963038345e+02 9.914721636412e-10 -2.818956048295e-02 
4.156694993639e-02 -3.606774926499e-02 0.000000000000e+00 -2.441795138736e+02 -9.767080465397e+02 -2.441775120827e+02 4.739010929267e-09 -2.756587144419e-02 
8.454242557621e-02 -3.844635220127e-02 0.000000000000e+00 -2.437665534261e+02 -9.751175920969e+02 -2.437768291046e+02 -4.950629488423e-09 -2.749622132434e-02 
1.557815204777e-02 -3.837711259674e-02 0.000000000000e+00 -2.438495731168e+02 -9.754530250032e+02 -2.438605196240e+02 5.170764229633e-09 -2.749824681353e-02 
5.839491143928e-02 -3.605583620800e-02 0.000000000000e+00 -2.441187996437e+02 -9.764682801912e+02 -2.441174159670e+02 -5.411458450286e-09 -2.756622077000e-02 
6.206074805899e-02 -5.978173210899e-02 0.000000000000e+00 -2.413759071814e+02 -9.654508310067e+02 -2.413653476376e+02 3.816620813645e-11 -2.687520380984e-02 
3.802067276118e-02 -5.975942885331e-02 0.000000000000e+00 -2.414060075066e+02 -9.656316392402e+02 -2.414075293494e+02 2.849705115433e-10 -2.687585109434e-02 
5.005728778040e-02 -1.036531727070e-02 0.000000000000e+00 -2.482338535509e+02 -9.929024633828e+02 -2.482272633867e+02 -3.592694801155e-10 -2.832494999004e-02 
7.049571814535e-02 -4.034466657971e-02 0.000000000000e+00 -2.434818158489e+02 -9.739280284183e+02 -2.434819688534e+02 -5.659423796463e-09 -2.744069961894e-02 
2.941632652166e-02 -4.017271159170e-02 0.000000000000e+00 -2.436397523750e+02 -9.745532336246e+02 -2.436385971999e+02 6.080219598684e-09 -2.744572552999e-02 
8.897479783189e-02 -2.710999574393e-02 0.000000000000e+00 -2.454343601525e+02 -9.817524840189e+02 -2.454373688343e+02 -2.857206552136e-09 -2.782901415186e-02 
1.113464613131e-02 -2.708126415819e-02 0.000000000000e+00 -2.455440573094e+02 -9.821887784165e+02 -2.455465671452e+02 2.956504191956e-09 -2.782986047792e-02 
2.597015323725e-02 -1.069324664278e-02 0.000000000000e+00 -2.481346557434e+02 -9.925420449803e+02 -2.481353401447e+02 7.706125383238e-10 -2.831518096708e-02 
7.408283873696e-02 -1.070827713528e-02 0.000000000000e+00 -2.481308883052e+02 -9.925288351865e+02 -2.481319446983e+02 -1.040655008629e-09 -2.831473285755e-02 
1.181905148011e-02 -5.063704677617e-02 0.000000000000e+00 -2.423057319251e+02 -9.692546104013e+02 -2.423120684653e+02 2.199053583098e-09 -2.714063175628e-02 
8.827644021441e-02 -5.068271212769e-02 0.000000000000e+00 -2.422788765016e+02 -9.691413503609e+02 -2.422840453725e+02 -2.424890472103e-09 -2.713930416813e-02 
3.837716410809e-02 -4.791954238685e-02 0.000000000000e+00 -2.426608375633e+02 -9.705841707591e+02 -2.426490016645e+02 5.465427076013e-09 -2.721970468974e-02 
3.962016499175e-02 -2.535813545822e-02 0.000000000000e+00 -2.457861441693e+02 -9.830662251988e+02 -2.457704738736e+02 1.206506585794e-09 -2.788065405522e-02 
6.040098105514e-02 -2.537942735538e-02 0.000000000000e+00 -2.456417382866e+02 -9.824990057862e+02 -2.456281488145e+02 -1.749386014745e-09 -2.788002592192e-02 
6.163087269112e-02 -4.804641620450e-02 0.000000000000e+00 -2.425830399002e+02 -9.702555810211e+02 -2.425677241843e+02 -5.416712773854e-09 -2.721601324369e-02 
9.069229804381e-02 -9.171850869289e-03 0.000000000000e+00 -2.483277199870e+02 -9.933352922069e+02 -2.483326024388e+02 3.267540147555e-10 -2.836050588234e-02 
9.354468020660e-03 -9.152635551513e-03 0.000000000000e+00 -2.484833283282e+02 -9.939590686962e+02 -2.484884794049e+02 -4.050018760499e-10 -2.836107917901e-02 
6.112116579903e-02 -6.644401917176e-03 0.000000000000e+00 -2.488387137079e+02 -9.953594195550e+02 -2.488396266526e+02 -1.209785811723e-09 -2.843591440794e-02 
3.895159902251e-02 -6.578247738084e-03 0.000000000000e+00 -2.488506876360e+02 -9.954054515711e+02 -2.488512278414e+02 6.127138037243e-10 -2.843789031491e-02 
1.789231550313e-02 -7.427897760453e-03 0.000000000000e+00 -2.487054239104e+02 -9.948174274602e+02 -2.487045702741e+02 5.605436332946e-10 -2.841252328300e-02 
4.997781314446e-02 -3.165806160767e-02 0.000000000000e+00 -2.447803124875e+02 -9.790662208087e+02 -2.447693066592e+02 -3.601290720193e-10 -2.769524398047e-02 
8.218065868343e-02 -7.482707021761e-03 0.000000000000e+00 -2.486954889137e+02 -9.947791607841e+02 -2.486949299395e+02 -7.461269077155e-10 -2.841088696578e-02 
7.593146034688e-02 -1.946650689593e-02 0.000000000000e+00 -2.466614380359e+02 -9.866926525873e+02 -2.466708181246e+02 -2.581674311572e-09 -2.805471400137e-02 
9.100272279741e-02 -6.058966642700e-02 0.000000000000e+00 -2.413223712202e+02 -9.652893966289e+02 -2.413223535698e+02 1.139372543206e-09 -2.685181388863e-02 
9.097483185567e-03 -6.052866285240e-02 0.000000000000e+00 -2.413269041735e+02 -9.653082955040e+02 -2.413270399355e+02 -1.482842666267e-09 -2.685358109226e-02 
2.403235587872e-02 -1.937579604224e-02 0.000000000000e+00 -2.466771727581e+02 -9.867530800074e+02 -2.466860505531e+02 2.422179323159e-09 -2.805739962305e-02 
5.204798323580e-02 -5.977244273485e-02 0.000000000000e+00 -2.413917199625e+02 -9.656014362818e+02 -2.413986312489e+02 3.313166196409e-09 -2.687547312241e-02 
8.958901145892e-02 -7.668408325171e-02 0.000000000000e+00 -2.401462892093e+02 -9.605581082150e+02 -2.401408794849e+02 8.291926112380e-10 -2.638694867133e-02 
1.000000000000e-01 -8.133192903590e-02 0.000000000000e+00 -2.397873274444e+02 -9.590151049055e+02 -2.397604864700e+02 0.000000000000e+00 -2.625311385551e-02 
1.044096559141e-02 -7.656376756274e-02 0.000000000000e+00 -2.401948178309e+02 -9.607742646775e+02 -2.401938165017e+02 -2.715908137411e-10 -2.639041621302e-02 
0.000000000000e+00 -8.133192903590e-02 0.000000000000e+00 -2.399279809341e+02 -9.596129706385e+02 -2.399081903145e+02 0.000000000000e+00 -2.625311398021e-02 
1.693000682173e-02 -6.715456475858e-02 0.000000000000e+00 -2.407629399618e+02 -9.631197242015e+02 -2.407765328327e+02 -9.990403861746e-10 -2.666190849624e-02 
2.804557775330e-02 -6.508329529637e-02 0.000000000000e+00 -2.409667990328e+02 -9.638368088049e+02 -2.409607215675e+02 -2.740100437148e-09 -2.672177339094e-02 
8.318938762240e-02 -6.726290804214e-02 0.000000000000e+00 -2.407916332964e+02 -9.632383930578e+02 -2.408060052708e+02 9.614020542777e-10 -2.665877646605e-02 
7.207066164269e-02 -6.508809647676e-02 0.000000000000e+00 -2.409047720082e+02 -9.636011578573e+02 -2.409011859731e+02 1.951304312204e-09 -2.672163131210e-02 
6.027993180190e-02 -6.988363285687e-02 0.000000000000e+00 -2.405672234156e+02 -9.622678618138e+02 -2.405670170459e+02 1.075085849663e-09 -2.658308071813e-02 
5.002678796997e-02 -6.957908922559e-02 0.000000000000e+00 -2.406081658621e+02 -9.624782993738e+02 -2.406172930472e+02 -1.509844621324e-09 -2.659187831185e-02 
3.977027004405e-02 -6.986979884634e-02 0.000000000000e+00 -2.405397399165e+02 -9.621624402108e+02 -2.405404360255e+02 -2.519668866145e-10 -2.658348748436e-02 
1  3  53  1
22  1  53  22
10  2  52  10
2  11  52  2
3  4  56  3
53  3  56  53
4  5  44  4
4  44  56  4
44  5  55  44
5  6  55  5
6  7  39  6
6  39  55  6
39  7  54  39
7  8  54  7
8  45  54  8
8  9  45  8
9  10  58  9
45  9  58  45
10  52  58  10
11  12  52  11
12  29  52  12
29  12  42  29
12  13  42  12
13  14  34  13
13  34  42  13
34  14  47  34
14  15  47  14
15  16  60  15
47  15  60  47
17  18  61  17
18  19  46  18
18  46  61  18
19  20  35  19
19  35  46  19
35  20  43  35
20  21  43  20
30  21  53  30
21  30  43  21
21  22  53  21
23  33  57  23
36  23  57  36
33  23  48  33
23  36  51  23
38  23  63  38
23  38  48  23
23  51  63  23
34  24  42  34
42  24  59  42
24  34  40  24
36  24  40  36
24  36  50  24
31  24  50  31
24  31  59  24
25  35  43  25
25  43  62  25
35  25  41  35
25  33  41  25
33  25  49  33
32  25  62  32
25  32  49  25
31  26  39  31
26  32  39  26
26  31  50  26
32  26  49  32
26  50  57  26
49  26  57  49
46  27  61  46
27  35  41  27
35  27  46  35
38  27  48  38
27  41  48  27
28  47  60  28
34  28  40  34
28  34  47  28
28  37  51  28
40  28  51  40
29  42  59  29
45  29  59  45
29  45  58  29
52  29  58  52
43  30  62  43
44  30  56  44
30  44  62  30
30  53  56  30
31  39  54  31
45  31  54  45
31  45  59  31
39  32  55  39
32  44  55  32
44  32  62  44
41  33  48  41
33  49  57  33
36  40  51  36
50  36  57  50
51  37  63  51
16  64  60  16
16  65  64  16
66  17  61  66
67  17  66  67
27  68  61  27
68  27  69  68
27  38  69  27
70  28  60  70
28  70  71  28
37  28  71  37
37  71  72  37
63  37  72  63
73  38  63  73
38  73  74  38
69  38  74  69
64  70  60  64
68  66  61  68
73  63  72  73
