VARIABLES  = "X","Y","Z", "PRESSURE1"
ZONE T="0.000000000000e+00s", N=71, E=101, F=FEPOINT, ET=QUADRILATERAL
STRANDID=1, SOLUTIONTIME=0.000000000000e+00
1.000000000000e-01 -1.000000000000e+00 0.000000000000e+00 0.000000000000e+00 
0.000000000000e+00 -1.000000000000e+00 0.000000000000e+00 0.000000000000e+00 
1.000000000000e-01 -4.066333808964e-01 0.000000000000e+00 0.000000000000e+00 
1.000000000000e-01 -4.336013132129e-01 0.000000000000e+00 0.000000000000e+00 
1.000000000000e-01 -4.616595392039e-01 0.000000000000e+00 0.000000000000e+00 
1.000000000000e-01 -4.908798744802e-01 0.000000000000e+00 0.000000000000e+00 
1.000000000000e-01 -5.212997813718e-01 0.000000000000e+00 0.000000000000e+00 
1.000000000000e-01 -5.529651305953e-01 0.000000000000e+00 0.000000000000e+00 
1.000000000000e-01 -5.859254847404e-01 0.000000000000e+00 0.000000000000e+00 
1.000000000000e-01 -6.202541854239e-01 0.000000000000e+00 0.000000000000e+00 
1.000000000000e-01 -6.559765085227e-01 0.000000000000e+00 0.000000000000e+00 
1.000000000000e-01 -6.931783144525e-01 0.000000000000e+00 0.000000000000e+00 
1.000000000000e-01 -7.319023284412e-01 0.000000000000e+00 0.000000000000e+00 
1.000000000000e-01 -7.722376567817e-01 0.000000000000e+00 0.000000000000e+00 
1.000000000000e-01 -8.141871026671e-01 0.000000000000e+00 0.000000000000e+00 
1.000000000000e-01 -8.578764946731e-01 0.000000000000e+00 0.000000000000e+00 
1.000000000000e-01 -9.033674988086e-01 0.000000000000e+00 0.000000000000e+00 
1.000000000000e-01 -9.507169705327e-01 0.000000000000e+00 0.000000000000e+00 
0.000000000000e+00 -9.507169705327e-01 0.000000000000e+00 0.000000000000e+00 
0.000000000000e+00 -9.033674988086e-01 0.000000000000e+00 0.000000000000e+00 
0.000000000000e+00 -8.578764946731e-01 0.000000000000e+00 0.000000000000e+00 
0.000000000000e+00 -8.141871026671e-01 0.000000000000e+00 0.000000000000e+00 
0.000000000000e+00 -7.722376567817e-01 0.000000000000e+00 0.000000000000e+00 
0.000000000000e+00 -7.319023284412e-01 0.000000000000e+00 0.000000000000e+00 
0.000000000000e+00 -6.931783144525e-01 0.000000000000e+00 0.000000000000e+00 
0.000000000000e+00 -6.559765085227e-01 0.000000000000e+00 0.000000000000e+00 
0.000000000000e+00 -6.202541854239e-01 0.000000000000e+00 0.000000000000e+00 
0.000000000000e+00 -5.859254847404e-01 0.000000000000e+00 0.000000000000e+00 
0.000000000000e+00 -5.529651305953e-01 0.000000000000e+00 0.000000000000e+00 
0.000000000000e+00 -5.212997813718e-01 0.000000000000e+00 0.000000000000e+00 
0.000000000000e+00 -4.908798744802e-01 0.000000000000e+00 0.000000000000e+00 
0.000000000000e+00 -4.616595392039e-01 0.000000000000e+00 0.000000000000e+00 
0.000000000000e+00 -4.336013132129e-01 0.000000000000e+00 0.000000000000e+00 
0.000000000000e+00 -4.066333808964e-01 0.000000000000e+00 0.000000000000e+00 
5.004338622634e-02 -4.224088684799e-01 0.000000000000e+00 0.000000000000e+00 
5.008792076171e-02 -4.761562843354e-01 0.000000000000e+00 0.000000000000e+00 
5.006173506594e-02 -5.371347226804e-01 0.000000000000e+00 0.000000000000e+00 
5.005598078520e-02 -6.030075791828e-01 0.000000000000e+00 0.000000000000e+00 
5.008345235811e-02 -6.744505768430e-01 0.000000000000e+00 0.000000000000e+00 
5.006913214781e-02 -7.520111988761e-01 0.000000000000e+00 0.000000000000e+00 
5.005245558618e-02 -8.359504089462e-01 0.000000000000e+00 0.000000000000e+00 
3.066487977987e-02 -3.967816778596e-01 0.000000000000e+00 0.000000000000e+00 
6.944556402011e-02 -3.968201233631e-01 0.000000000000e+00 0.000000000000e+00 
6.938741587335e-02 -4.492665666015e-01 0.000000000000e+00 0.000000000000e+00 
5.007750042915e-02 -9.269884316941e-01 0.000000000000e+00 0.000000000000e+00 
3.079310721189e-02 -4.492985454339e-01 0.000000000000e+00 0.000000000000e+00 
3.221669410502e-02 -5.066378347700e-01 0.000000000000e+00 0.000000000000e+00 
6.786784203733e-02 -5.066531442817e-01 0.000000000000e+00 0.000000000000e+00 
3.339642373282e-02 -5.700696953954e-01 0.000000000000e+00 0.000000000000e+00 
6.525807751313e-02 -6.387232377182e-01 0.000000000000e+00 0.000000000000e+00 
5.008827505125e-02 -9.806018183701e-01 0.000000000000e+00 0.000000000000e+00 
6.875407163887e-02 -5.693536686703e-01 0.000000000000e+00 0.000000000000e+00 
3.664624163484e-02 -7.132284082360e-01 0.000000000000e+00 0.000000000000e+00 
6.148490449038e-02 -7.939830735880e-01 0.000000000000e+00 0.000000000000e+00 
4.100384574845e-02 -8.814719130658e-01 0.000000000000e+00 0.000000000000e+00 
3.022970257450e-02 -6.380821728272e-01 0.000000000000e+00 0.000000000000e+00 
2.375340220851e-02 -4.221482437035e-01 0.000000000000e+00 0.000000000000e+00 
7.632731958147e-02 -4.221881213587e-01 0.000000000000e+00 0.000000000000e+00 
2.293783770176e-02 -4.762423539471e-01 0.000000000000e+00 0.000000000000e+00 
7.721888027343e-02 -4.761946882435e-01 0.000000000000e+00 0.000000000000e+00 
7.129547302367e-02 -7.125259253720e-01 0.000000000000e+00 0.000000000000e+00 
7.757437444143e-02 -5.370973525672e-01 0.000000000000e+00 0.000000000000e+00 
2.255445764899e-02 -5.371289046437e-01 0.000000000000e+00 0.000000000000e+00 
2.720299568724e-02 -7.931304852765e-01 0.000000000000e+00 0.000000000000e+00 
7.798696120885e-02 -6.030216482613e-01 0.000000000000e+00 0.000000000000e+00 
2.212749701135e-02 -6.030477024067e-01 0.000000000000e+00 0.000000000000e+00 
1.000000000000e-01 -3.807449903129e-01 0.000000000000e+00 0.000000000000e+00 
0.000000000000e+00 -3.807449903129e-01 0.000000000000e+00 0.000000000000e+00 
5.009415947708e-02 -3.711929596105e-01 0.000000000000e+00 0.000000000000e+00 
2.414696816088e-02 -3.709124382382e-01 0.000000000000e+00 0.000000000000e+00 
7.605350107748e-02 -3.708957544133e-01 0.000000000000e+00 0.000000000000e+00 
18  1  51  18
1  2  51  1
2  19  51  2
43  3  58  43
3  4  58  3
4  5  44  4
4  44  58  4
44  5  60  44
5  6  60  5
6  7  48  6
6  48  60  6
48  7  62  48
7  8  62  7
8  9  52  8
8  52  62  8
52  9  65  52
9  10  65  9
10  11  50  10
10  50  65  10
11  12  39  11
11  39  50  11
39  12  61  39
12  13  61  12
13  14  40  13
13  40  61  13
40  14  54  40
14  15  54  14
15  16  41  15
15  41  54  15
16  17  55  16
41  16  55  41
17  45  55  17
17  18  45  17
45  18  51  45
19  45  51  19
19  20  45  19
45  20  55  45
20  21  55  20
21  22  41  21
21  41  55  21
41  22  64  41
22  23  64  22
23  24  40  23
23  40  64  23
40  24  53  40
24  25  53  24
25  26  39  25
25  39  53  25
39  26  56  39
26  27  56  26
56  27  66  56
27  28  66  27
28  29  49  28
28  49  66  28
49  29  63  49
29  30  63  29
30  31  47  30
30  47  63  30
47  31  59  47
31  32  59  31
32  33  46  32
32  46  59  32
46  33  57  46
33  34  57  33
34  42  57  34
35  42  43  35
35  44  46  35
42  35  57  42
35  43  58  35
35  46  57  35
44  35  58  44
44  36  46  44
47  36  48  47
48  36  60  48
36  47  59  36
36  44  60  36
46  36  59  46
37  47  48  37
49  37  52  49
37  49  63  37
52  37  62  52
47  37  63  47
37  48  62  37
38  49  52  38
38  50  56  38
38  56  66  38
38  52  65  38
50  38  65  50
49  38  66  49
50  39  56  50
53  39  61  53
40  53  61  40
40  54  64  40
54  41  64  54
67  3  43  67
34  68  42  34
42  69  43  42
42  68  70  42
69  42  70  69
67  43  71  67
43  69  71  43
VARIABLES  = "X","Y","Z", "PRESSURE1"
ZONE T="1.000000000000e+01s", N=71, E=101, F=FEPOINT, ET=QUADRILATERAL
STRANDID=1, SOLUTIONTIME=1.000000000000e+01
1.000000000000e-01 -1.000000000000e+00 0.000000000000e+00 4.762500831546e+01 
0.000000000000e+00 -1.000000000000e+00 0.000000000000e+00 4.762500830930e+01 
1.000000000000e-01 -4.066333808964e-01 0.000000000000e+00 4.762500469708e+01 
1.000000000000e-01 -4.336013132129e-01 0.000000000000e+00 4.762500486993e+01 
1.000000000000e-01 -4.616595392039e-01 0.000000000000e+00 4.762500501660e+01 
1.000000000000e-01 -4.908798744802e-01 0.000000000000e+00 4.762500524815e+01 
1.000000000000e-01 -5.212997813718e-01 0.000000000000e+00 4.762500564614e+01 
1.000000000000e-01 -5.529651305953e-01 0.000000000000e+00 4.762500617967e+01 
1.000000000000e-01 -5.859254847404e-01 0.000000000000e+00 4.762500675745e+01 
1.000000000000e-01 -6.202541854239e-01 0.000000000000e+00 4.762500721457e+01 
1.000000000000e-01 -6.559765085227e-01 0.000000000000e+00 4.762500744310e+01 
1.000000000000e-01 -6.931783144525e-01 0.000000000000e+00 4.762500741615e+01 
1.000000000000e-01 -7.319023284412e-01 0.000000000000e+00 4.762500725084e+01 
1.000000000000e-01 -7.722376567817e-01 0.000000000000e+00 4.762500712143e+01 
1.000000000000e-01 -8.141871026671e-01 0.000000000000e+00 4.762500719086e+01 
1.000000000000e-01 -8.578764946731e-01 0.000000000000e+00 4.762500747570e+01 
1.000000000000e-01 -9.033674988086e-01 0.000000000000e+00 4.762500788613e+01 
1.000000000000e-01 -9.507169705327e-01 0.000000000000e+00 4.762500822683e+01 
0.000000000000e+00 -9.507169705327e-01 0.000000000000e+00 4.762500822608e+01 
0.000000000000e+00 -9.033674988086e-01 0.000000000000e+00 4.762500790523e+01 
0.000000000000e+00 -8.578764946731e-01 0.000000000000e+00 4.762500750933e+01 
0.000000000000e+00 -8.141871026671e-01 0.000000000000e+00 4.762500721926e+01 
0.000000000000e+00 -7.722376567817e-01 0.000000000000e+00 4.762500715135e+01 
0.000000000000e+00 -7.319023284412e-01 0.000000000000e+00 4.762500726240e+01 
0.000000000000e+00 -6.931783144525e-01 0.000000000000e+00 4.762500742309e+01 
0.000000000000e+00 -6.559765085227e-01 0.000000000000e+00 4.762500744460e+01 
0.000000000000e+00 -6.202541854239e-01 0.000000000000e+00 4.762500721876e+01 
0.000000000000e+00 -5.859254847404e-01 0.000000000000e+00 4.762500675855e+01 
0.000000000000e+00 -5.529651305953e-01 0.000000000000e+00 4.762500618883e+01 
0.000000000000e+00 -5.212997813718e-01 0.000000000000e+00 4.762500565404e+01 
0.000000000000e+00 -4.908798744802e-01 0.000000000000e+00 4.762500528668e+01 
0.000000000000e+00 -4.616595392039e-01 0.000000000000e+00 4.762500508360e+01 
0.000000000000e+00 -4.336013132129e-01 0.000000000000e+00 4.762500498479e+01 
0.000000000000e+00 -4.066333808964e-01 0.000000000000e+00 4.762500476751e+01 
5.004338622634e-02 -4.224088684799e-01 0.000000000000e+00 4.762500489147e+01 
5.008792076171e-02 -4.761562843354e-01 0.000000000000e+00 4.762500513397e+01 
5.006173506594e-02 -5.371347226804e-01 0.000000000000e+00 4.762500589855e+01 
5.005598078520e-02 -6.030075791828e-01 0.000000000000e+00 4.762500701407e+01 
5.008345235811e-02 -6.744505768430e-01 0.000000000000e+00 4.762500746528e+01 
5.006913214781e-02 -7.520111988761e-01 0.000000000000e+00 4.762500717437e+01 
5.005245558618e-02 -8.359504089462e-01 0.000000000000e+00 4.762500732538e+01 
3.066487977987e-02 -3.967816778596e-01 0.000000000000e+00 4.762500461442e+01 
6.944556402011e-02 -3.968201233631e-01 0.000000000000e+00 4.762500456962e+01 
6.938741587335e-02 -4.492665666015e-01 0.000000000000e+00 4.762500497291e+01 
5.007750042915e-02 -9.269884316941e-01 0.000000000000e+00 4.762500808428e+01 
3.079310721189e-02 -4.492985454339e-01 0.000000000000e+00 4.762500501821e+01 
3.221669410502e-02 -5.066378347700e-01 0.000000000000e+00 4.762500544082e+01 
6.786784203733e-02 -5.066531442817e-01 0.000000000000e+00 4.762500543000e+01 
3.339642373282e-02 -5.700696953954e-01 0.000000000000e+00 4.762500648525e+01 
6.525807751313e-02 -6.387232377182e-01 0.000000000000e+00 4.762500736755e+01 
5.008827505125e-02 -9.806018183701e-01 0.000000000000e+00 4.762500831124e+01 
6.875407163887e-02 -5.693536686703e-01 0.000000000000e+00 4.762500647050e+01 
3.664624163484e-02 -7.132284082360e-01 0.000000000000e+00 4.762500734170e+01 
6.148490449038e-02 -7.939830735880e-01 0.000000000000e+00 4.762500714000e+01 
4.100384574845e-02 -8.814719130658e-01 0.000000000000e+00 4.762500770637e+01 
3.022970257450e-02 -6.380821728272e-01 0.000000000000e+00 4.762500736627e+01 
2.375340220851e-02 -4.221482437035e-01 0.000000000000e+00 4.762500491574e+01 
7.632731958147e-02 -4.221881213587e-01 0.000000000000e+00 4.762500483675e+01 
2.293783770176e-02 -4.762423539471e-01 0.000000000000e+00 4.762500516745e+01 
7.721888027343e-02 -4.761946882435e-01 0.000000000000e+00 4.762500512799e+01 
7.129547302367e-02 -7.125259253720e-01 0.000000000000e+00 4.762500734281e+01 
7.757437444143e-02 -5.370973525672e-01 0.000000000000e+00 4.762500590492e+01 
2.255445764899e-02 -5.371289046437e-01 0.000000000000e+00 4.762500591192e+01 
2.720299568724e-02 -7.931304852765e-01 0.000000000000e+00 4.762500714995e+01 
7.798696120885e-02 -6.030216482613e-01 0.000000000000e+00 4.762500701186e+01 
2.212749701135e-02 -6.030477024067e-01 0.000000000000e+00 4.762500701538e+01 
1.000000000000e-01 -3.807449903129e-01 0.000000000000e+00 4.762500404051e+01 
0.000000000000e+00 -3.807449903129e-01 0.000000000000e+00 4.762500392998e+01 
5.009415947708e-02 -3.711929596105e-01 0.000000000000e+00 4.762500357823e+01 
2.414696816088e-02 -3.709124382382e-01 0.000000000000e+00 4.762500309657e+01 
7.605350107748e-02 -3.708957544133e-01 0.000000000000e+00 4.762500330358e+01 
18  1  51  18
1  2  51  1
2  19  51  2
43  3  58  43
3  4  58  3
4  5  44  4
4  44  58  4
44  5  60  44
5  6  60  5
6  7  48  6
6  48  60  6
48  7  62  48
7  8  62  7
8  9  52  8
8  52  62  8
52  9  65  52
9  10  65  9
10  11  50  10
10  50  65  10
11  12  39  11
11  39  50  11
39  12  61  39
12  13  61  12
13  14  40  13
13  40  61  13
40  14  54  40
14  15  54  14
15  16  41  15
15  41  54  15
16  17  55  16
41  16  55  41
17  45  55  17
17  18  45  17
45  18  51  45
19  45  51  19
19  20  45  19
45  20  55  45
20  21  55  20
21  22  41  21
21  41  55  21
41  22  64  41
22  23  64  22
23  24  40  23
23  40  64  23
40  24  53  40
24  25  53  24
25  26  39  25
25  39  53  25
39  26  56  39
26  27  56  26
56  27  66  56
27  28  66  27
28  29  49  28
28  49  66  28
49  29  63  49
29  30  63  29
30  31  47  30
30  47  63  30
47  31  59  47
31  32  59  31
32  33  46  32
32  46  59  32
46  33  57  46
33  34  57  33
34  42  57  34
35  42  43  35
35  44  46  35
42  35  57  42
35  43  58  35
35  46  57  35
44  35  58  44
44  36  46  44
47  36  48  47
48  36  60  48
36  47  59  36
36  44  60  36
46  36  59  46
37  47  48  37
49  37  52  49
37  49  63  37
52  37  62  52
47  37  63  47
37  48  62  37
38  49  52  38
38  50  56  38
38  56  66  38
38  52  65  38
50  38  65  50
49  38  66  49
50  39  56  50
53  39  61  53
40  53  61  40
40  54  64  40
54  41  64  54
67  3  43  67
34  68  42  34
42  69  43  42
42  68  70  42
69  42  70  69
67  43  71  67
43  69  71  43
