VARIABLES  = "X","Y","Z", "STRESS_XX", "STRESS_YY", "STRESS_ZZ", "DISPLACEMENT_X1", "DISPLACEMENT_Y1"
ZONE T="0.000000000000e+00s", N=76, E=120, F=FEPOINT, ET=QUADRILATERAL
STRANDID=1, SOLUTIONTIME=0.000000000000e+00
1.000000000000e-01 -8.133192903590e-02 0.000000000000e+00 0.000000000000e+00 0.000000000000e+00 0.000000000000e+00 0.000000000000e+00 0.000000000000e+00 
1.000000000000e-01 -9.493635849425e-02 0.000000000000e+00 0.000000000000e+00 0.000000000000e+00 0.000000000000e+00 0.000000000000e+00 0.000000000000e+00 
1.000000000000e-01 -1.090948080906e-01 0.000000000000e+00 0.000000000000e+00 0.000000000000e+00 0.000000000000e+00 0.000000000000e+00 0.000000000000e+00 
1.000000000000e-01 -1.238407989588e-01 0.000000000000e+00 0.000000000000e+00 0.000000000000e+00 0.000000000000e+00 0.000000000000e+00 0.000000000000e+00 
1.000000000000e-01 -1.391895614642e-01 0.000000000000e+00 0.000000000000e+00 0.000000000000e+00 0.000000000000e+00 0.000000000000e+00 0.000000000000e+00 
1.000000000000e-01 -1.551674274464e-01 0.000000000000e+00 0.000000000000e+00 0.000000000000e+00 0.000000000000e+00 0.000000000000e+00 0.000000000000e+00 
1.000000000000e-01 -1.717986916992e-01 0.000000000000e+00 0.000000000000e+00 0.000000000000e+00 0.000000000000e+00 0.000000000000e+00 0.000000000000e+00 
0.000000000000e+00 -1.551674274464e-01 0.000000000000e+00 0.000000000000e+00 0.000000000000e+00 0.000000000000e+00 0.000000000000e+00 0.000000000000e+00 
0.000000000000e+00 -1.391895614642e-01 0.000000000000e+00 0.000000000000e+00 0.000000000000e+00 0.000000000000e+00 0.000000000000e+00 0.000000000000e+00 
0.000000000000e+00 -1.238407989588e-01 0.000000000000e+00 0.000000000000e+00 0.000000000000e+00 0.000000000000e+00 0.000000000000e+00 0.000000000000e+00 
0.000000000000e+00 -1.090948080907e-01 0.000000000000e+00 0.000000000000e+00 0.000000000000e+00 0.000000000000e+00 0.000000000000e+00 0.000000000000e+00 
0.000000000000e+00 -9.493635849425e-02 0.000000000000e+00 0.000000000000e+00 0.000000000000e+00 0.000000000000e+00 0.000000000000e+00 0.000000000000e+00 
0.000000000000e+00 -8.133192903590e-02 0.000000000000e+00 0.000000000000e+00 0.000000000000e+00 0.000000000000e+00 0.000000000000e+00 0.000000000000e+00 
5.003429380367e-02 -1.017798692890e-01 0.000000000000e+00 0.000000000000e+00 0.000000000000e+00 0.000000000000e+00 0.000000000000e+00 0.000000000000e+00 
5.002853232124e-02 -1.519088519355e-01 0.000000000000e+00 0.000000000000e+00 0.000000000000e+00 0.000000000000e+00 0.000000000000e+00 0.000000000000e+00 
3.144484460580e-02 -7.586712852882e-02 0.000000000000e+00 0.000000000000e+00 0.000000000000e+00 0.000000000000e+00 0.000000000000e+00 0.000000000000e+00 
6.860613435721e-02 -7.587479770767e-02 0.000000000000e+00 0.000000000000e+00 0.000000000000e+00 0.000000000000e+00 0.000000000000e+00 0.000000000000e+00 
6.888280446269e-02 -1.268465272623e-01 0.000000000000e+00 0.000000000000e+00 0.000000000000e+00 0.000000000000e+00 0.000000000000e+00 0.000000000000e+00 
3.121957414972e-02 -1.268421985082e-01 0.000000000000e+00 0.000000000000e+00 0.000000000000e+00 0.000000000000e+00 0.000000000000e+00 0.000000000000e+00 
7.554701895293e-02 -1.019679427391e-01 0.000000000000e+00 0.000000000000e+00 0.000000000000e+00 0.000000000000e+00 0.000000000000e+00 0.000000000000e+00 
2.453145878902e-02 -1.018531985808e-01 0.000000000000e+00 0.000000000000e+00 0.000000000000e+00 0.000000000000e+00 0.000000000000e+00 0.000000000000e+00 
2.486640359495e-02 -1.511994000693e-01 0.000000000000e+00 0.000000000000e+00 0.000000000000e+00 0.000000000000e+00 0.000000000000e+00 0.000000000000e+00 
7.519018389267e-02 -1.512146935932e-01 0.000000000000e+00 0.000000000000e+00 0.000000000000e+00 0.000000000000e+00 0.000000000000e+00 0.000000000000e+00 
5.002678796997e-02 -6.957908922559e-02 0.000000000000e+00 0.000000000000e+00 0.000000000000e+00 0.000000000000e+00 0.000000000000e+00 0.000000000000e+00 
8.318938762240e-02 -6.726290804214e-02 0.000000000000e+00 0.000000000000e+00 0.000000000000e+00 0.000000000000e+00 0.000000000000e+00 0.000000000000e+00 
1.693000682173e-02 -6.715456475858e-02 0.000000000000e+00 0.000000000000e+00 0.000000000000e+00 0.000000000000e+00 0.000000000000e+00 0.000000000000e+00 
5.005181660085e-02 -1.213864546544e-01 0.000000000000e+00 0.000000000000e+00 0.000000000000e+00 0.000000000000e+00 0.000000000000e+00 0.000000000000e+00 
8.304311980566e-02 -8.600422434734e-02 0.000000000000e+00 0.000000000000e+00 0.000000000000e+00 0.000000000000e+00 0.000000000000e+00 0.000000000000e+00 
1.698701460171e-02 -8.593339913784e-02 0.000000000000e+00 0.000000000000e+00 0.000000000000e+00 0.000000000000e+00 0.000000000000e+00 0.000000000000e+00 
4.512057632941e-02 -8.568062374441e-02 0.000000000000e+00 0.000000000000e+00 0.000000000000e+00 0.000000000000e+00 0.000000000000e+00 0.000000000000e+00 
6.286808215727e-02 -9.137086788006e-02 0.000000000000e+00 0.000000000000e+00 0.000000000000e+00 0.000000000000e+00 0.000000000000e+00 0.000000000000e+00 
1.640712137365e-02 -1.174171270781e-01 0.000000000000e+00 0.000000000000e+00 0.000000000000e+00 0.000000000000e+00 0.000000000000e+00 0.000000000000e+00 
8.372537541237e-02 -1.174905373863e-01 0.000000000000e+00 0.000000000000e+00 0.000000000000e+00 0.000000000000e+00 0.000000000000e+00 0.000000000000e+00 
5.004288552848e-02 -1.716527951481e-01 0.000000000000e+00 0.000000000000e+00 0.000000000000e+00 0.000000000000e+00 0.000000000000e+00 0.000000000000e+00 
3.731099137938e-02 -1.115945408716e-01 0.000000000000e+00 0.000000000000e+00 0.000000000000e+00 0.000000000000e+00 0.000000000000e+00 0.000000000000e+00 
6.271916567743e-02 -1.115718330784e-01 0.000000000000e+00 0.000000000000e+00 0.000000000000e+00 0.000000000000e+00 0.000000000000e+00 0.000000000000e+00 
1.686902144853e-02 -1.361062558984e-01 0.000000000000e+00 0.000000000000e+00 0.000000000000e+00 0.000000000000e+00 0.000000000000e+00 0.000000000000e+00 
8.320724439706e-02 -1.361392086212e-01 0.000000000000e+00 0.000000000000e+00 0.000000000000e+00 0.000000000000e+00 0.000000000000e+00 0.000000000000e+00 
5.583260035578e-02 -1.366520720980e-01 0.000000000000e+00 0.000000000000e+00 0.000000000000e+00 0.000000000000e+00 0.000000000000e+00 0.000000000000e+00 
8.326930466579e-02 -1.667726886397e-01 0.000000000000e+00 0.000000000000e+00 0.000000000000e+00 0.000000000000e+00 0.000000000000e+00 0.000000000000e+00 
1.683000258849e-02 -1.667776624401e-01 0.000000000000e+00 0.000000000000e+00 0.000000000000e+00 0.000000000000e+00 0.000000000000e+00 0.000000000000e+00 
3.176003359910e-02 -8.986364252605e-02 0.000000000000e+00 0.000000000000e+00 0.000000000000e+00 0.000000000000e+00 0.000000000000e+00 0.000000000000e+00 
3.772961003605e-02 -1.415473931669e-01 0.000000000000e+00 0.000000000000e+00 0.000000000000e+00 0.000000000000e+00 0.000000000000e+00 0.000000000000e+00 
3.703325374415e-02 -1.619447957644e-01 0.000000000000e+00 0.000000000000e+00 0.000000000000e+00 0.000000000000e+00 0.000000000000e+00 0.000000000000e+00 
6.303932844440e-02 -1.619539551222e-01 0.000000000000e+00 0.000000000000e+00 0.000000000000e+00 0.000000000000e+00 0.000000000000e+00 0.000000000000e+00 
5.675176755435e-02 -8.029564380893e-02 0.000000000000e+00 0.000000000000e+00 0.000000000000e+00 0.000000000000e+00 0.000000000000e+00 0.000000000000e+00 
1.125853509499e-02 -1.018913627337e-01 0.000000000000e+00 0.000000000000e+00 0.000000000000e+00 0.000000000000e+00 0.000000000000e+00 0.000000000000e+00 
8.881871162219e-02 -1.019661470517e-01 0.000000000000e+00 0.000000000000e+00 0.000000000000e+00 0.000000000000e+00 0.000000000000e+00 0.000000000000e+00 
7.207066164269e-02 -6.508809647676e-02 0.000000000000e+00 0.000000000000e+00 0.000000000000e+00 0.000000000000e+00 0.000000000000e+00 0.000000000000e+00 
2.804557775330e-02 -6.508329529637e-02 0.000000000000e+00 0.000000000000e+00 0.000000000000e+00 0.000000000000e+00 0.000000000000e+00 0.000000000000e+00 
1.044096559141e-02 -7.656376756274e-02 0.000000000000e+00 0.000000000000e+00 0.000000000000e+00 0.000000000000e+00 0.000000000000e+00 0.000000000000e+00 
8.958901145892e-02 -7.668408325171e-02 0.000000000000e+00 0.000000000000e+00 0.000000000000e+00 0.000000000000e+00 0.000000000000e+00 0.000000000000e+00 
3.832908703950e-02 -9.976005802934e-02 0.000000000000e+00 0.000000000000e+00 0.000000000000e+00 0.000000000000e+00 0.000000000000e+00 0.000000000000e+00 
1.169884814581e-02 -1.485111206917e-01 0.000000000000e+00 0.000000000000e+00 0.000000000000e+00 0.000000000000e+00 0.000000000000e+00 0.000000000000e+00 
8.835347874980e-02 -1.485454048835e-01 0.000000000000e+00 0.000000000000e+00 0.000000000000e+00 0.000000000000e+00 0.000000000000e+00 0.000000000000e+00 
6.851377528847e-02 -1.399424198909e-01 0.000000000000e+00 0.000000000000e+00 0.000000000000e+00 0.000000000000e+00 0.000000000000e+00 0.000000000000e+00 
7.224986561191e-02 -8.603444691608e-02 0.000000000000e+00 0.000000000000e+00 0.000000000000e+00 0.000000000000e+00 0.000000000000e+00 0.000000000000e+00 
3.977027004405e-02 -6.986979884634e-02 0.000000000000e+00 0.000000000000e+00 0.000000000000e+00 0.000000000000e+00 0.000000000000e+00 0.000000000000e+00 
6.027993180190e-02 -6.988363285687e-02 0.000000000000e+00 0.000000000000e+00 0.000000000000e+00 0.000000000000e+00 0.000000000000e+00 0.000000000000e+00 
1.000000000000e-01 -6.826783355915e-02 0.000000000000e+00 0.000000000000e+00 0.000000000000e+00 0.000000000000e+00 0.000000000000e+00 0.000000000000e+00 
8.325780581963e-02 -1.864276587827e-01 0.000000000000e+00 0.000000000000e+00 0.000000000000e+00 0.000000000000e+00 0.000000000000e+00 0.000000000000e+00 
1.000000000000e-01 -1.891202423411e-01 0.000000000000e+00 0.000000000000e+00 0.000000000000e+00 0.000000000000e+00 0.000000000000e+00 0.000000000000e+00 
0.000000000000e+00 -1.717986916992e-01 0.000000000000e+00 0.000000000000e+00 0.000000000000e+00 0.000000000000e+00 0.000000000000e+00 0.000000000000e+00 
0.000000000000e+00 -6.826783355915e-02 0.000000000000e+00 0.000000000000e+00 0.000000000000e+00 0.000000000000e+00 0.000000000000e+00 0.000000000000e+00 
3.802067276118e-02 -5.975942885331e-02 0.000000000000e+00 0.000000000000e+00 0.000000000000e+00 0.000000000000e+00 0.000000000000e+00 0.000000000000e+00 
5.204798323580e-02 -5.977244273485e-02 0.000000000000e+00 0.000000000000e+00 0.000000000000e+00 0.000000000000e+00 0.000000000000e+00 0.000000000000e+00 
7.556622015059e-02 -5.213930935979e-02 0.000000000000e+00 0.000000000000e+00 0.000000000000e+00 0.000000000000e+00 0.000000000000e+00 0.000000000000e+00 
9.100272279741e-02 -6.058966642700e-02 0.000000000000e+00 0.000000000000e+00 0.000000000000e+00 0.000000000000e+00 0.000000000000e+00 0.000000000000e+00 
2.456481525732e-02 -5.204499879856e-02 0.000000000000e+00 0.000000000000e+00 0.000000000000e+00 0.000000000000e+00 0.000000000000e+00 0.000000000000e+00 
9.097483185567e-03 -6.052866285240e-02 0.000000000000e+00 0.000000000000e+00 0.000000000000e+00 0.000000000000e+00 0.000000000000e+00 0.000000000000e+00 
3.104608478085e-02 -1.770328565743e-01 0.000000000000e+00 0.000000000000e+00 0.000000000000e+00 0.000000000000e+00 0.000000000000e+00 0.000000000000e+00 
3.763666536168e-02 -1.917900581297e-01 0.000000000000e+00 0.000000000000e+00 0.000000000000e+00 0.000000000000e+00 0.000000000000e+00 0.000000000000e+00 
5.599679480673e-02 -1.868962244425e-01 0.000000000000e+00 0.000000000000e+00 0.000000000000e+00 0.000000000000e+00 0.000000000000e+00 0.000000000000e+00 
6.904394191688e-02 -1.770178073307e-01 0.000000000000e+00 0.000000000000e+00 0.000000000000e+00 0.000000000000e+00 0.000000000000e+00 0.000000000000e+00 
1.687036367023e-02 -1.864550581470e-01 0.000000000000e+00 0.000000000000e+00 0.000000000000e+00 0.000000000000e+00 0.000000000000e+00 0.000000000000e+00 
6.206074805899e-02 -5.978173210899e-02 0.000000000000e+00 0.000000000000e+00 0.000000000000e+00 0.000000000000e+00 0.000000000000e+00 0.000000000000e+00 
1  2  28  1
1  28  52  1
28  2  48  28
2  3  48  2
3  4  33  3
3  33  48  3
33  4  38  33
4  5  38  4
38  5  55  38
5  6  55  5
6  7  40  6
6  40  55  6
41  8  54  41
8  9  54  8
9  10  37  9
9  37  54  9
10  32  37  10
10  11  32  10
32  11  47  32
11  12  47  11
12  13  29  12
12  29  47  12
29  13  51  29
14  31  36  14
14  30  31  14
14  27  35  14
27  14  36  27
30  14  53  30
14  35  53  14
45  15  56  45
15  39  56  15
43  15  44  43
39  15  43  39
34  15  45  34
15  34  44  15
26  16  29  26
29  16  42  29
30  16  58  30
16  26  50  16
16  30  42  16
16  50  58  16
17  25  28  17
17  28  57  17
25  17  49  25
46  17  57  46
49  17  59  49
17  46  59  17
33  18  36  33
18  27  36  18
18  33  38  18
27  18  39  27
18  38  56  18
39  18  56  39
19  27  43  19
19  32  35  19
37  19  43  37
27  19  35  27
32  19  37  32
20  33  36  20
31  20  36  31
20  28  48  20
28  20  57  28
33  20  48  33
20  31  57  20
32  21  35  32
29  21  47  29
21  29  42  21
21  32  47  21
35  21  53  35
21  42  53  21
22  37  43  22
41  22  44  41
22  43  44  22
22  41  54  22
37  22  54  37
23  45  56  23
23  40  45  23
40  23  55  40
38  23  56  38
23  38  55  23
24  30  58  24
30  24  46  30
46  24  59  46
28  25  52  28
26  29  51  26
27  39  43  27
31  30  46  31
42  30  53  42
31  46  57  31
60  1  52  60
40  7  61  40
7  62  61  7
63  8  41  63
13  64  51  13
24  65  66  24
65  24  58  65
24  66  59  24
25  67  68  25
67  25  49  67
52  25  68  52
69  26  70  69
26  69  50  26
26  51  70  26
71  34  72  71
34  73  72  34
34  71  44  34
74  34  45  74
34  74  73  34
40  74  45  40
74  40  61  74
63  41  75  63
71  41  44  71
41  71  75  41
76  67  49  76
76  49  59  76
69  65  50  69
50  65  58  50
51  64  70  51
60  52  68  60
66  76  59  66
VARIABLES  = "X","Y","Z", "STRESS_XX", "STRESS_YY", "STRESS_ZZ", "DISPLACEMENT_X1", "DISPLACEMENT_Y1"
ZONE T="1.000000000000e+01s", N=76, E=120, F=FEPOINT, ET=QUADRILATERAL
STRANDID=1, SOLUTIONTIME=1.000000000000e+01
1.000000000000e-01 -8.133192903590e-02 0.000000000000e+00 -2.397892331194e+02 -9.590734571292e+02 -2.397725380497e+02 0.000000000000e+00 -2.625311385551e-02 
1.000000000000e-01 -9.493635849425e-02 0.000000000000e+00 -2.391289801821e+02 -9.565236012169e+02 -2.391305162798e+02 0.000000000000e+00 -2.586214357977e-02 
1.000000000000e-01 -1.090948080906e-01 0.000000000000e+00 -2.387123739518e+02 -9.548659887088e+02 -2.387156725321e+02 0.000000000000e+00 -2.545616518955e-02 
1.000000000000e-01 -1.238407989588e-01 0.000000000000e+00 -2.384302378919e+02 -9.537296591394e+02 -2.384319794063e+02 0.000000000000e+00 -2.503397229297e-02 
1.000000000000e-01 -1.391895614642e-01 0.000000000000e+00 -2.382781756877e+02 -9.530835733633e+02 -2.382723498102e+02 0.000000000000e+00 -2.459493785006e-02 
1.000000000000e-01 -1.551674274464e-01 0.000000000000e+00 -2.381832974913e+02 -9.527317660957e+02 -2.381830127174e+02 0.000000000000e+00 -2.413816366578e-02 
1.000000000000e-01 -1.717986916992e-01 0.000000000000e+00 -2.381355463706e+02 -9.525330123843e+02 -2.381337117510e+02 0.000000000000e+00 -2.366285263853e-02 
0.000000000000e+00 -1.551674274464e-01 0.000000000000e+00 -2.381944932849e+02 -9.527720641042e+02 -2.381933114778e+02 0.000000000000e+00 -2.413816268438e-02 
0.000000000000e+00 -1.391895614642e-01 0.000000000000e+00 -2.382932334350e+02 -9.531498647339e+02 -2.382886196338e+02 0.000000000000e+00 -2.459493669126e-02 
0.000000000000e+00 -1.238407989588e-01 0.000000000000e+00 -2.384590674538e+02 -9.538546122672e+02 -2.384627359442e+02 0.000000000000e+00 -2.503397280510e-02 
0.000000000000e+00 -1.090948080907e-01 0.000000000000e+00 -2.387631669694e+02 -9.550674484546e+02 -2.387661230848e+02 0.000000000000e+00 -2.545616598598e-02 
0.000000000000e+00 -9.493635849425e-02 0.000000000000e+00 -2.392093892070e+02 -9.568427397255e+02 -2.392104257865e+02 0.000000000000e+00 -2.586214309248e-02 
0.000000000000e+00 -8.133192903590e-02 0.000000000000e+00 -2.398906851932e+02 -9.594769192079e+02 -2.398735208802e+02 0.000000000000e+00 -2.625311398021e-02 
5.003429380367e-02 -1.017798692890e-01 0.000000000000e+00 -2.389291641086e+02 -9.557317138165e+02 -2.389321755850e+02 3.864072475037e-10 -2.566582124653e-02 
5.002853232124e-02 -1.519088519355e-01 0.000000000000e+00 -2.382010322620e+02 -9.528118147185e+02 -2.382025693961e+02 9.577636332872e-10 -2.423130383578e-02 
3.144484460580e-02 -7.586712852882e-02 0.000000000000e+00 -2.401513474074e+02 -9.606462977312e+02 -2.401595290277e+02 -1.151125998238e-09 -2.641050271155e-02 
6.860613435721e-02 -7.587479770767e-02 0.000000000000e+00 -2.401127657154e+02 -9.605027154149e+02 -2.401230962260e+02 3.063728718205e-09 -2.641027588583e-02 
6.888280446269e-02 -1.268465272623e-01 0.000000000000e+00 -2.384066638170e+02 -9.536443347265e+02 -2.384101997087e+02 -7.799571400891e-10 -2.494796871331e-02 
3.121957414972e-02 -1.268421985082e-01 0.000000000000e+00 -2.384166802078e+02 -9.536680127293e+02 -2.384169385874e+02 1.363832156137e-09 -2.494809165355e-02 
7.554701895293e-02 -1.019679427391e-01 0.000000000000e+00 -2.389375037152e+02 -9.557698980944e+02 -2.389414803619e+02 -1.636453227214e-09 -2.566042549297e-02 
2.453145878902e-02 -1.018531985808e-01 0.000000000000e+00 -2.389409802337e+02 -9.557832135745e+02 -2.389448387616e+02 6.212985740683e-10 -2.566371724800e-02 
2.486640359495e-02 -1.511994000693e-01 0.000000000000e+00 -2.382017213529e+02 -9.528247417415e+02 -2.382052926189e+02 -6.410145391290e-10 -2.425158411782e-02 
7.519018389267e-02 -1.512146935932e-01 0.000000000000e+00 -2.382058613067e+02 -9.528354498046e+02 -2.382082622223e+02 1.206455239625e-10 -2.425114782333e-02 
5.002678796997e-02 -6.957908922559e-02 0.000000000000e+00 -2.405870754014e+02 -9.623849934160e+02 -2.405944137635e+02 -1.509844621324e-09 -2.659187831185e-02 
8.318938762240e-02 -6.726290804214e-02 0.000000000000e+00 -2.407646679791e+02 -9.630841330907e+02 -2.407697602140e+02 9.614020542777e-10 -2.665877646605e-02 
1.693000682173e-02 -6.715456475858e-02 0.000000000000e+00 -2.407216447936e+02 -9.629079321587e+02 -2.407259153904e+02 -9.990403861746e-10 -2.666190849624e-02 
5.005181660085e-02 -1.213864546544e-01 0.000000000000e+00 -2.384867176686e+02 -9.539266598670e+02 -2.384826755071e+02 -1.744280940317e-09 -2.510420674913e-02 
8.304311980566e-02 -8.600422434734e-02 0.000000000000e+00 -2.395415940469e+02 -9.581715211769e+02 -2.395426230447e+02 -3.063287721575e-09 -2.611872153516e-02 
1.698701460171e-02 -8.593339913784e-02 0.000000000000e+00 -2.395434249532e+02 -9.581861109990e+02 -2.395459071904e+02 3.134756237228e-09 -2.612075563961e-02 
4.512057632941e-02 -8.568062374441e-02 0.000000000000e+00 -2.395884795487e+02 -9.583333560240e+02 -2.395843671145e+02 -1.998977763254e-09 -2.612802744161e-02 
6.286808215727e-02 -9.137086788006e-02 0.000000000000e+00 -2.393406784228e+02 -9.573459596308e+02 -2.393373276107e+02 9.090660765511e-10 -2.596452234939e-02 
1.640712137365e-02 -1.174171270781e-01 0.000000000000e+00 -2.385679168809e+02 -9.542697613149e+02 -2.385675356392e+02 1.188248955669e-09 -2.521782702364e-02 
8.372537541237e-02 -1.174905373863e-01 0.000000000000e+00 -2.385543640099e+02 -9.542033508724e+02 -2.385515429765e+02 -7.006169806100e-10 -2.521572365451e-02 
5.004288552848e-02 -1.716527951481e-01 0.000000000000e+00 -2.381357261737e+02 -9.525402481090e+02 -2.381351948565e+02 4.081280865438e-10 -2.366702152985e-02 
3.731099137938e-02 -1.115945408716e-01 0.000000000000e+00 -2.386862206311e+02 -9.547579872109e+02 -2.386888415684e+02 1.354425558708e-09 -2.538455788645e-02 
6.271916567743e-02 -1.115718330784e-01 0.000000000000e+00 -2.386780587934e+02 -9.546859647262e+02 -2.386728047039e+02 -8.938595366568e-10 -2.538520227977e-02 
1.686902144853e-02 -1.361062558984e-01 0.000000000000e+00 -2.383065268946e+02 -9.532269208698e+02 -2.383066895529e+02 -2.550455736697e-10 -2.468310629408e-02 
8.320724439706e-02 -1.361392086212e-01 0.000000000000e+00 -2.382998733510e+02 -9.531979392976e+02 -2.382995625297e+02 3.692790387651e-10 -2.468216549716e-02 
5.583260035578e-02 -1.366520720980e-01 0.000000000000e+00 -2.383008499847e+02 -9.532003548096e+02 -2.383002409589e+02 -1.078049982353e-09 -2.466749956771e-02 
8.326930466579e-02 -1.667726886397e-01 0.000000000000e+00 -2.381494383315e+02 -9.525880306109e+02 -2.381474937885e+02 8.690750789819e-10 -2.380648164616e-02 
1.683000258849e-02 -1.667776624401e-01 0.000000000000e+00 -2.381502628646e+02 -9.525976881063e+02 -2.381495901942e+02 -7.020425472590e-10 -2.380633950586e-02 
3.176003359910e-02 -8.986364252605e-02 0.000000000000e+00 -2.394092089044e+02 -9.575724712542e+02 -2.393963360317e+02 7.866435820120e-10 -2.600780543680e-02 
3.772961003605e-02 -1.415473931669e-01 0.000000000000e+00 -2.382578326480e+02 -9.530277952560e+02 -2.382571255808e+02 1.160519935752e-09 -2.452751757381e-02 
3.703325374415e-02 -1.619447957644e-01 0.000000000000e+00 -2.381594152731e+02 -9.526436902941e+02 -2.381606211134e+02 4.023299930536e-10 -2.394445689829e-02 
6.303932844440e-02 -1.619539551222e-01 0.000000000000e+00 -2.381640213359e+02 -9.526524159793e+02 -2.381632874630e+02 8.666130248569e-10 -2.394419426308e-02 
5.675176755435e-02 -8.029564380893e-02 0.000000000000e+00 -2.399039833647e+02 -9.596819005835e+02 -2.399171767896e+02 -9.563927501437e-10 -2.628294600088e-02 
1.125853509499e-02 -1.018913627337e-01 0.000000000000e+00 -2.389290029901e+02 -9.557295276825e+02 -2.389317061345e+02 2.588142861701e-09 -2.566262331259e-02 
8.881871162219e-02 -1.019661470517e-01 0.000000000000e+00 -2.389256238955e+02 -9.557280763741e+02 -2.389307400539e+02 -3.297793698354e-09 -2.566047880810e-02 
7.207066164269e-02 -6.508809647676e-02 0.000000000000e+00 -2.408901978395e+02 -9.635392600514e+02 -2.408858915782e+02 1.951304312204e-09 -2.672163131210e-02 
2.804557775330e-02 -6.508329529637e-02 0.000000000000e+00 -2.409739903073e+02 -9.638628916905e+02 -2.409673763996e+02 -2.740100437148e-09 -2.672177339094e-02 
1.044096559141e-02 -7.656376756274e-02 0.000000000000e+00 -2.401368734502e+02 -9.605884096751e+02 -2.401450566251e+02 -2.715908137411e-10 -2.639041621302e-02 
8.958901145892e-02 -7.668408325171e-02 0.000000000000e+00 -2.401321054287e+02 -9.605698964300e+02 -2.401404003717e+02 8.291926112380e-10 -2.638694867133e-02 
3.832908703950e-02 -9.976005802934e-02 0.000000000000e+00 -2.390105216483e+02 -9.560194437869e+02 -2.390059930870e+02 1.907100492492e-09 -2.572374428949e-02 
1.169884814581e-02 -1.485111206917e-01 0.000000000000e+00 -2.382188970840e+02 -9.528797622346e+02 -2.382197318637e+02 -4.098132334592e-10 -2.432843117248e-02 
8.835347874980e-02 -1.485454048835e-01 0.000000000000e+00 -2.382175721877e+02 -9.528820396454e+02 -2.382199223666e+02 6.424732532992e-12 -2.432745255576e-02 
6.851377528847e-02 -1.399424198909e-01 0.000000000000e+00 -2.382772017506e+02 -9.531001635146e+02 -2.382754730530e+02 -6.100308736760e-10 -2.457341218384e-02 
7.224986561191e-02 -8.603444691608e-02 0.000000000000e+00 -2.395773308792e+02 -9.582346511100e+02 -2.395623963978e+02 1.692867972737e-09 -2.611785704176e-02 
3.977027004405e-02 -6.986979884634e-02 0.000000000000e+00 -2.405612323565e+02 -9.622325279394e+02 -2.405587520592e+02 -2.519668866145e-10 -2.658348748436e-02 
6.027993180190e-02 -6.988363285687e-02 0.000000000000e+00 -2.405545242931e+02 -9.622353932985e+02 -2.405579835183e+02 1.075085849663e-09 -2.658308071813e-02 
1.000000000000e-01 -6.826783355915e-02 0.000000000000e+00 -2.406304241425e+02 -9.625453160573e+02 -2.406351480400e+02 0.000000000000e+00 -2.662974521904e-02 
8.325780581963e-02 -1.864276587827e-01 0.000000000000e+00 -2.381146509890e+02 -9.524558901280e+02 -2.381141082234e+02 7.964275608470e-10 -2.324482855669e-02 
1.000000000000e-01 -1.891202423411e-01 0.000000000000e+00 -2.381133676510e+02 -9.524416314999e+02 -2.381109998302e+02 0.000000000000e+00 -2.316789127877e-02 
0.000000000000e+00 -1.717986916992e-01 0.000000000000e+00 -2.381403333538e+02 -9.525533247557e+02 -2.381387316219e+02 0.000000000000e+00 -2.366285249608e-02 
0.000000000000e+00 -6.826783355915e-02 0.000000000000e+00 -2.407490403066e+02 -9.630471402692e+02 -2.407592361152e+02 0.000000000000e+00 -2.662974586381e-02 
3.802067276118e-02 -5.975942885331e-02 0.000000000000e+00 -2.413422277431e+02 -9.653965426634e+02 -2.413477540813e+02 2.849705115433e-10 -2.687585109434e-02 
5.204798323580e-02 -5.977244273485e-02 0.000000000000e+00 -2.413925807556e+02 -9.656003859249e+02 -2.413985933361e+02 3.313166196409e-09 -2.687547312241e-02 
7.556622015059e-02 -5.213930935979e-02 0.000000000000e+00 -2.420858039062e+02 -9.683172704439e+02 -2.420806148700e+02 -2.314297777714e-09 -2.709695790419e-02 
9.100272279741e-02 -6.058966642700e-02 0.000000000000e+00 -2.413735717496e+02 -9.654284001900e+02 -2.413603943879e+02 1.139372543206e-09 -2.685181388863e-02 
2.456481525732e-02 -5.204499879856e-02 0.000000000000e+00 -2.420569712939e+02 -9.681871806150e+02 -2.420488303818e+02 1.664178638621e-09 -2.709969739786e-02 
9.097483185567e-03 -6.052866285240e-02 0.000000000000e+00 -2.412957489049e+02 -9.651243522242e+02 -2.412840202258e+02 -1.482842666267e-09 -2.685358109226e-02 
3.104608478085e-02 -1.770328565743e-01 0.000000000000e+00 -2.381262245323e+02 -9.525119775712e+02 -2.381276404207e+02 -2.150163629357e-11 -2.351328150847e-02 
3.763666536168e-02 -1.917900581297e-01 0.000000000000e+00 -2.381082284839e+02 -9.524341507240e+02 -2.381084758416e+02 2.776954170735e-10 -2.309160652711e-02 
5.599679480673e-02 -1.868962244425e-01 0.000000000000e+00 -2.381116085589e+02 -9.524525677890e+02 -2.381128352696e+02 5.511106922976e-10 -2.323144076087e-02 
6.904394191688e-02 -1.770178073307e-01 0.000000000000e+00 -2.381262507070e+02 -9.525096863632e+02 -2.381271874140e+02 1.022575637129e-09 -2.351371168544e-02 
1.687036367023e-02 -1.864550581470e-01 0.000000000000e+00 -2.381133868030e+02 -9.524529408631e+02 -2.381132655332e+02 -5.573692902303e-10 -2.324404599692e-02 
6.206074805899e-02 -5.978173210899e-02 0.000000000000e+00 -2.413665514999e+02 -9.654263898173e+02 -2.413585882634e+02 3.816620813645e-11 -2.687520380984e-02 
1  2  28  1
1  28  52  1
28  2  48  28
2  3  48  2
3  4  33  3
3  33  48  3
33  4  38  33
4  5  38  4
38  5  55  38
5  6  55  5
6  7  40  6
6  40  55  6
41  8  54  41
8  9  54  8
9  10  37  9
9  37  54  9
10  32  37  10
10  11  32  10
32  11  47  32
11  12  47  11
12  13  29  12
12  29  47  12
29  13  51  29
14  31  36  14
14  30  31  14
14  27  35  14
27  14  36  27
30  14  53  30
14  35  53  14
45  15  56  45
15  39  56  15
43  15  44  43
39  15  43  39
34  15  45  34
15  34  44  15
26  16  29  26
29  16  42  29
30  16  58  30
16  26  50  16
16  30  42  16
16  50  58  16
17  25  28  17
17  28  57  17
25  17  49  25
46  17  57  46
49  17  59  49
17  46  59  17
33  18  36  33
18  27  36  18
18  33  38  18
27  18  39  27
18  38  56  18
39  18  56  39
19  27  43  19
19  32  35  19
37  19  43  37
27  19  35  27
32  19  37  32
20  33  36  20
31  20  36  31
20  28  48  20
28  20  57  28
33  20  48  33
20  31  57  20
32  21  35  32
29  21  47  29
21  29  42  21
21  32  47  21
35  21  53  35
21  42  53  21
22  37  43  22
41  22  44  41
22  43  44  22
22  41  54  22
37  22  54  37
23  45  56  23
23  40  45  23
40  23  55  40
38  23  56  38
23  38  55  23
24  30  58  24
30  24  46  30
46  24  59  46
28  25  52  28
26  29  51  26
27  39  43  27
31  30  46  31
42  30  53  42
31  46  57  31
60  1  52  60
40  7  61  40
7  62  61  7
63  8  41  63
13  64  51  13
24  65  66  24
65  24  58  65
24  66  59  24
25  67  68  25
67  25  49  67
52  25  68  52
69  26  70  69
26  69  50  26
26  51  70  26
71  34  72  71
34  73  72  34
34  71  44  34
74  34  45  74
34  74  73  34
40  74  45  40
74  40  61  74
63  41  75  63
71  41  44  71
41  71  75  41
76  67  49  76
76  49  59  76
69  65  50  69
50  65  58  50
51  64  70  51
60  52  68  60
66  76  59  66
