VARIABLES  = "X","Y","Z", "PRESSURE1"
ZONE T="0.000000000000e+00s", N=75, E=116, F=FEPOINT, ET=QUADRILATERAL
STRANDID=1, SOLUTIONTIME=0.000000000000e+00
1.000000000000e-01 -1.891202423411e-01 0.000000000000e+00 0.000000000000e+00 
1.000000000000e-01 -2.071452132758e-01 0.000000000000e+00 0.000000000000e+00 
1.000000000000e-01 -2.259159003327e-01 0.000000000000e+00 0.000000000000e+00 
1.000000000000e-01 -2.454553372135e-01 0.000000000000e+00 0.000000000000e+00 
1.000000000000e-01 -2.657958002743e-01 0.000000000000e+00 0.000000000000e+00 
1.000000000000e-01 -2.869820737070e-01 0.000000000000e+00 0.000000000000e+00 
1.000000000000e-01 -3.090302591577e-01 0.000000000000e+00 0.000000000000e+00 
1.000000000000e-01 -3.319808966566e-01 0.000000000000e+00 0.000000000000e+00 
1.000000000000e-01 -3.558736196309e-01 0.000000000000e+00 0.000000000000e+00 
1.000000000000e-01 -3.807449903129e-01 0.000000000000e+00 0.000000000000e+00 
0.000000000000e+00 -3.807449903129e-01 0.000000000000e+00 0.000000000000e+00 
0.000000000000e+00 -3.558736196309e-01 0.000000000000e+00 0.000000000000e+00 
0.000000000000e+00 -3.319808966566e-01 0.000000000000e+00 0.000000000000e+00 
0.000000000000e+00 -3.090302591577e-01 0.000000000000e+00 0.000000000000e+00 
0.000000000000e+00 -2.869820737070e-01 0.000000000000e+00 0.000000000000e+00 
0.000000000000e+00 -2.657958002743e-01 0.000000000000e+00 0.000000000000e+00 
0.000000000000e+00 -2.454553372135e-01 0.000000000000e+00 0.000000000000e+00 
0.000000000000e+00 -2.259159003327e-01 0.000000000000e+00 0.000000000000e+00 
0.000000000000e+00 -2.071452132758e-01 0.000000000000e+00 0.000000000000e+00 
0.000000000000e+00 -1.891202423411e-01 0.000000000000e+00 0.000000000000e+00 
0.000000000000e+00 -1.717986916992e-01 0.000000000000e+00 0.000000000000e+00 
5.004842734123e-02 -2.021418171447e-01 0.000000000000e+00 0.000000000000e+00 
5.005908986205e-02 -2.553771826632e-01 0.000000000000e+00 0.000000000000e+00 
5.008292036290e-02 -3.203087963123e-01 0.000000000000e+00 0.000000000000e+00 
5.009415947708e-02 -3.711929596105e-01 0.000000000000e+00 0.000000000000e+00 
6.904394191688e-02 -1.770178073307e-01 0.000000000000e+00 0.000000000000e+00 
3.104608478085e-02 -1.770328565743e-01 0.000000000000e+00 0.000000000000e+00 
6.807698165746e-02 -2.287558900294e-01 0.000000000000e+00 0.000000000000e+00 
3.206062782805e-02 -2.287631037513e-01 0.000000000000e+00 0.000000000000e+00 
3.557354364095e-02 -2.878483101898e-01 0.000000000000e+00 0.000000000000e+00 
6.776223739581e-02 -2.827412570156e-01 0.000000000000e+00 0.000000000000e+00 
7.535103115493e-02 -2.015293853660e-01 0.000000000000e+00 0.000000000000e+00 
2.474920969922e-02 -2.015432236000e-01 0.000000000000e+00 0.000000000000e+00 
3.050691695726e-02 -3.457552030811e-01 0.000000000000e+00 0.000000000000e+00 
6.961191317484e-02 -3.457465657077e-01 0.000000000000e+00 0.000000000000e+00 
2.403213634881e-02 -2.555147969150e-01 0.000000000000e+00 0.000000000000e+00 
7.607779023971e-02 -2.554704032576e-01 0.000000000000e+00 0.000000000000e+00 
7.369529764403e-02 -3.084770811070e-01 0.000000000000e+00 0.000000000000e+00 
2.378951418650e-02 -3.203343384072e-01 0.000000000000e+00 0.000000000000e+00 
7.605350107748e-02 -3.708957544133e-01 0.000000000000e+00 0.000000000000e+00 
2.414696816088e-02 -3.709124382382e-01 0.000000000000e+00 0.000000000000e+00 
5.006735922148e-02 -2.215423617712e-01 0.000000000000e+00 0.000000000000e+00 
1.850317579946e-02 -2.757149546133e-01 0.000000000000e+00 0.000000000000e+00 
8.327052267209e-02 -2.182301684835e-01 0.000000000000e+00 0.000000000000e+00 
1.689528006222e-02 -2.182447195749e-01 0.000000000000e+00 0.000000000000e+00 
5.386538030076e-02 -2.991451045652e-01 0.000000000000e+00 0.000000000000e+00 
8.325780581963e-02 -1.864276587827e-01 0.000000000000e+00 0.000000000000e+00 
1.687036367023e-02 -1.864550581470e-01 0.000000000000e+00 0.000000000000e+00 
1.887456660158e-02 -3.001711909616e-01 0.000000000000e+00 0.000000000000e+00 
5.599679480673e-02 -1.868962244425e-01 0.000000000000e+00 0.000000000000e+00 
1.562509704916e-02 -2.362679114654e-01 0.000000000000e+00 0.000000000000e+00 
8.450980591300e-02 -2.362475890693e-01 0.000000000000e+00 0.000000000000e+00 
5.000597776251e-02 -2.748200932242e-01 0.000000000000e+00 0.000000000000e+00 
3.763666536168e-02 -1.917900581297e-01 0.000000000000e+00 0.000000000000e+00 
7.990076033980e-02 -3.280154126230e-01 0.000000000000e+00 0.000000000000e+00 
5.374039812767e-02 -2.384606709325e-01 0.000000000000e+00 0.000000000000e+00 
8.295584548888e-02 -2.724709261564e-01 0.000000000000e+00 0.000000000000e+00 
3.621311007526e-02 -2.130558380742e-01 0.000000000000e+00 0.000000000000e+00 
6.391474833037e-02 -2.130589258886e-01 0.000000000000e+00 0.000000000000e+00 
5.005826476111e-02 -3.405429735745e-01 0.000000000000e+00 0.000000000000e+00 
3.698944467363e-02 -2.448228664997e-01 0.000000000000e+00 0.000000000000e+00 
3.662161907618e-02 -3.066087827684e-01 0.000000000000e+00 0.000000000000e+00 
8.289028355298e-02 -2.928054893704e-01 0.000000000000e+00 0.000000000000e+00 
3.408000067884e-02 -2.691217269938e-01 0.000000000000e+00 0.000000000000e+00 
1.000000000000e-01 -1.717986916992e-01 0.000000000000e+00 0.000000000000e+00 
1.000000000000e-01 -4.066333808964e-01 0.000000000000e+00 0.000000000000e+00 
6.944556402011e-02 -3.968201233631e-01 0.000000000000e+00 0.000000000000e+00 
0.000000000000e+00 -4.066333808964e-01 0.000000000000e+00 0.000000000000e+00 
3.066487977987e-02 -3.967816778596e-01 0.000000000000e+00 0.000000000000e+00 
1.683000258849e-02 -1.667776624401e-01 0.000000000000e+00 0.000000000000e+00 
0.000000000000e+00 -1.551674274464e-01 0.000000000000e+00 0.000000000000e+00 
8.326930466579e-02 -1.667726886397e-01 0.000000000000e+00 0.000000000000e+00 
6.303932844440e-02 -1.619539551222e-01 0.000000000000e+00 0.000000000000e+00 
5.004288552848e-02 -1.716527951481e-01 0.000000000000e+00 0.000000000000e+00 
3.703325374415e-02 -1.619447957644e-01 0.000000000000e+00 0.000000000000e+00 
1  2  47  1
2  32  47  2
32  2  44  32
2  3  44  2
3  4  52  3
44  3  52  44
4  5  37  4
4  37  52  4
37  5  57  37
5  6  57  5
6  7  63  6
57  6  63  57
38  7  55  38
7  8  55  7
7  38  63  7
8  9  55  8
9  35  55  9
35  9  40  35
9  10  40  9
11  12  41  11
12  13  34  12
12  34  41  12
34  13  39  34
13  14  39  13
39  14  49  39
14  15  49  14
15  43  49  15
15  16  43  15
16  17  36  16
16  36  43  16
36  17  51  36
17  18  51  17
18  19  45  18
18  45  51  18
33  19  48  33
19  20  48  19
19  33  45  19
20  21  48  20
32  22  50  32
22  32  59  22
54  22  58  54
50  22  54  50
42  22  59  42
22  42  58  22
23  37  53  23
37  23  56  37
61  23  64  61
23  53  64  23
56  23  61  56
35  24  55  35
24  35  60  24
39  24  60  39
24  38  55  24
38  24  46  38
24  39  62  24
46  24  62  46
25  34  60  25
35  25  60  35
34  25  41  34
25  35  40  25
26  32  50  26
32  26  47  32
48  27  54  48
28  37  56  28
37  28  52  37
44  28  59  44
28  44  52  28
42  28  56  42
28  42  59  28
29  42  56  29
29  56  61  29
51  29  61  51
29  45  58  29
45  29  51  45
42  29  58  42
43  30  49  43
46  30  53  46
30  46  62  30
30  43  64  30
49  30  62  49
53  30  64  53
37  31  53  37
31  37  57  31
31  38  46  31
38  31  63  38
31  46  53  31
31  57  63  31
32  44  59  32
33  48  54  33
33  54  58  33
45  33  58  45
34  39  60  34
36  51  61  36
36  61  64  36
43  36  64  43
39  49  62  39
65  1  47  65
10  66  67  10
10  67  40  10
68  11  69  68
69  11  41  69
21  70  48  21
21  71  70  21
69  25  67  69
67  25  40  67
25  69  41  25
72  26  73  72
26  72  47  26
26  74  73  26
74  26  50  74
27  74  54  27
27  70  75  27
70  27  48  70
74  27  75  74
72  65  47  72
74  50  54  74
VARIABLES  = "X","Y","Z", "PRESSURE1"
ZONE T="1.000000000000e+01s", N=75, E=116, F=FEPOINT, ET=QUADRILATERAL
STRANDID=1, SOLUTIONTIME=1.000000000000e+01
1.000000000000e-01 -1.891202423411e-01 0.000000000000e+00 4.754785745095e+01 
1.000000000000e-01 -2.071452132758e-01 0.000000000000e+00 4.759745780607e+01 
1.000000000000e-01 -2.259159003327e-01 0.000000000000e+00 4.761475956984e+01 
1.000000000000e-01 -2.454553372135e-01 0.000000000000e+00 4.762147507921e+01 
1.000000000000e-01 -2.657958002743e-01 0.000000000000e+00 4.762391965068e+01 
1.000000000000e-01 -2.869820737070e-01 0.000000000000e+00 4.762469771446e+01 
1.000000000000e-01 -3.090302591577e-01 0.000000000000e+00 4.762492856086e+01 
1.000000000000e-01 -3.319808966566e-01 0.000000000000e+00 4.762498440011e+01 
1.000000000000e-01 -3.558736196309e-01 0.000000000000e+00 4.762500151735e+01 
1.000000000000e-01 -3.807449903129e-01 0.000000000000e+00 4.762500404051e+01 
0.000000000000e+00 -3.807449903129e-01 0.000000000000e+00 4.762500392998e+01 
0.000000000000e+00 -3.558736196309e-01 0.000000000000e+00 4.762500025216e+01 
0.000000000000e+00 -3.319808966566e-01 0.000000000000e+00 4.762498520391e+01 
0.000000000000e+00 -3.090302591577e-01 0.000000000000e+00 4.762492388839e+01 
0.000000000000e+00 -2.869820737070e-01 0.000000000000e+00 4.762468581627e+01 
0.000000000000e+00 -2.657958002743e-01 0.000000000000e+00 4.762389014842e+01 
0.000000000000e+00 -2.454553372135e-01 0.000000000000e+00 4.762146541753e+01 
0.000000000000e+00 -2.259159003327e-01 0.000000000000e+00 4.761468475547e+01 
0.000000000000e+00 -2.071452132758e-01 0.000000000000e+00 4.759749680636e+01 
0.000000000000e+00 -1.891202423411e-01 0.000000000000e+00 4.754915571338e+01 
0.000000000000e+00 -1.717986916992e-01 0.000000000000e+00 4.745336107664e+01 
5.004842734123e-02 -2.021418171447e-01 0.000000000000e+00 4.758681787734e+01 
5.005908986205e-02 -2.553771826632e-01 0.000000000000e+00 4.762283419927e+01 
5.008292036290e-02 -3.203087963123e-01 0.000000000000e+00 4.762496569319e+01 
5.009415947708e-02 -3.711929596105e-01 0.000000000000e+00 4.762500357823e+01 
6.904394191688e-02 -1.770178073307e-01 0.000000000000e+00 4.749552487560e+01 
3.104608478085e-02 -1.770328565743e-01 0.000000000000e+00 4.749264218720e+01 
6.807698165746e-02 -2.287558900294e-01 0.000000000000e+00 4.761619102327e+01 
3.206062782805e-02 -2.287631037513e-01 0.000000000000e+00 4.761598550116e+01 
3.557354364095e-02 -2.878483101898e-01 0.000000000000e+00 4.762469755161e+01 
6.776223739581e-02 -2.827412570156e-01 0.000000000000e+00 4.762464066762e+01 
7.535103115493e-02 -2.015293853660e-01 0.000000000000e+00 4.758754250153e+01 
2.474920969922e-02 -2.015432236000e-01 0.000000000000e+00 4.758583906571e+01 
3.050691695726e-02 -3.457552030811e-01 0.000000000000e+00 4.762499647234e+01 
6.961191317484e-02 -3.457465657077e-01 0.000000000000e+00 4.762499771868e+01 
2.403213634881e-02 -2.555147969150e-01 0.000000000000e+00 4.762294402920e+01 
7.607779023971e-02 -2.554704032576e-01 0.000000000000e+00 4.762322348032e+01 
7.369529764403e-02 -3.084770811070e-01 0.000000000000e+00 4.762492742328e+01 
2.378951418650e-02 -3.203343384072e-01 0.000000000000e+00 4.762496514867e+01 
7.605350107748e-02 -3.708957544133e-01 0.000000000000e+00 4.762500330358e+01 
2.414696816088e-02 -3.709124382382e-01 0.000000000000e+00 4.762500309657e+01 
5.006735922148e-02 -2.215423617712e-01 0.000000000000e+00 4.761172055343e+01 
1.850317579946e-02 -2.757149546133e-01 0.000000000000e+00 4.762439384242e+01 
8.327052267209e-02 -2.182301684835e-01 0.000000000000e+00 4.760950891804e+01 
1.689528006222e-02 -2.182447195749e-01 0.000000000000e+00 4.760919564695e+01 
5.386538030076e-02 -2.991451045652e-01 0.000000000000e+00 4.762486417648e+01 
8.325780581963e-02 -1.864276587827e-01 0.000000000000e+00 4.754186289580e+01 
1.687036367023e-02 -1.864550581470e-01 0.000000000000e+00 4.754424787714e+01 
1.887456660158e-02 -3.001711909616e-01 0.000000000000e+00 4.762486816914e+01 
5.599679480673e-02 -1.868962244425e-01 0.000000000000e+00 4.754266390187e+01 
1.562509704916e-02 -2.362679114654e-01 0.000000000000e+00 4.761908095334e+01 
8.450980591300e-02 -2.362475890693e-01 0.000000000000e+00 4.761899276224e+01 
5.000597776251e-02 -2.748200932242e-01 0.000000000000e+00 4.762435610150e+01 
3.763666536168e-02 -1.917900581297e-01 0.000000000000e+00 4.756376992716e+01 
7.990076033980e-02 -3.280154126230e-01 0.000000000000e+00 4.762498188120e+01 
5.374039812767e-02 -2.384606709325e-01 0.000000000000e+00 4.761967694321e+01 
8.295584548888e-02 -2.724709261564e-01 0.000000000000e+00 4.762424998184e+01 
3.621311007526e-02 -2.130558380742e-01 0.000000000000e+00 4.760409100493e+01 
6.391474833037e-02 -2.130589258886e-01 0.000000000000e+00 4.760381103432e+01 
5.005826476111e-02 -3.405429735745e-01 0.000000000000e+00 4.762499341106e+01 
3.698944467363e-02 -2.448228664997e-01 0.000000000000e+00 4.762126928083e+01 
3.662161907618e-02 -3.066087827684e-01 0.000000000000e+00 4.762490755320e+01 
8.289028355298e-02 -2.928054893704e-01 0.000000000000e+00 4.762478366194e+01 
3.408000067884e-02 -2.691217269938e-01 0.000000000000e+00 4.762411725482e+01 
1.000000000000e-01 -1.717986916992e-01 0.000000000000e+00 4.745204361357e+01 
1.000000000000e-01 -4.066333808964e-01 0.000000000000e+00 4.762500469708e+01 
6.944556402011e-02 -3.968201233631e-01 0.000000000000e+00 4.762500456962e+01 
0.000000000000e+00 -4.066333808964e-01 0.000000000000e+00 4.762500476751e+01 
3.066487977987e-02 -3.967816778596e-01 0.000000000000e+00 4.762500461442e+01 
1.683000258849e-02 -1.667776624401e-01 0.000000000000e+00 4.741147814181e+01 
0.000000000000e+00 -1.551674274464e-01 0.000000000000e+00 4.725116136714e+01 
8.326930466579e-02 -1.667726886397e-01 0.000000000000e+00 4.740965953758e+01 
6.303932844440e-02 -1.619539551222e-01 0.000000000000e+00 4.735880049046e+01 
5.004288552848e-02 -1.716527951481e-01 0.000000000000e+00 4.745961032760e+01 
3.703325374415e-02 -1.619447957644e-01 0.000000000000e+00 4.735755655586e+01 
1  2  47  1
2  32  47  2
32  2  44  32
2  3  44  2
3  4  52  3
44  3  52  44
4  5  37  4
4  37  52  4
37  5  57  37
5  6  57  5
6  7  63  6
57  6  63  57
38  7  55  38
7  8  55  7
7  38  63  7
8  9  55  8
9  35  55  9
35  9  40  35
9  10  40  9
11  12  41  11
12  13  34  12
12  34  41  12
34  13  39  34
13  14  39  13
39  14  49  39
14  15  49  14
15  43  49  15
15  16  43  15
16  17  36  16
16  36  43  16
36  17  51  36
17  18  51  17
18  19  45  18
18  45  51  18
33  19  48  33
19  20  48  19
19  33  45  19
20  21  48  20
32  22  50  32
22  32  59  22
54  22  58  54
50  22  54  50
42  22  59  42
22  42  58  22
23  37  53  23
37  23  56  37
61  23  64  61
23  53  64  23
56  23  61  56
35  24  55  35
24  35  60  24
39  24  60  39
24  38  55  24
38  24  46  38
24  39  62  24
46  24  62  46
25  34  60  25
35  25  60  35
34  25  41  34
25  35  40  25
26  32  50  26
32  26  47  32
48  27  54  48
28  37  56  28
37  28  52  37
44  28  59  44
28  44  52  28
42  28  56  42
28  42  59  28
29  42  56  29
29  56  61  29
51  29  61  51
29  45  58  29
45  29  51  45
42  29  58  42
43  30  49  43
46  30  53  46
30  46  62  30
30  43  64  30
49  30  62  49
53  30  64  53
37  31  53  37
31  37  57  31
31  38  46  31
38  31  63  38
31  46  53  31
31  57  63  31
32  44  59  32
33  48  54  33
33  54  58  33
45  33  58  45
34  39  60  34
36  51  61  36
36  61  64  36
43  36  64  43
39  49  62  39
65  1  47  65
10  66  67  10
10  67  40  10
68  11  69  68
69  11  41  69
21  70  48  21
21  71  70  21
69  25  67  69
67  25  40  67
25  69  41  25
72  26  73  72
26  72  47  26
26  74  73  26
74  26  50  74
27  74  54  27
27  70  75  27
70  27  48  70
74  27  75  74
72  65  47  72
74  50  54  74
