VARIABLES  = "X","Y","Z", "PRESSURE1"
ZONE T="0.000000000000e+00s", N=76, E=120, F=FEPOINT, ET=QUADRILATERAL
STRANDID=1, SOLUTIONTIME=0.000000000000e+00
1.000000000000e-01 -8.133192903590e-02 0.000000000000e+00 0.000000000000e+00 
1.000000000000e-01 -9.493635849425e-02 0.000000000000e+00 0.000000000000e+00 
1.000000000000e-01 -1.090948080906e-01 0.000000000000e+00 0.000000000000e+00 
1.000000000000e-01 -1.238407989588e-01 0.000000000000e+00 0.000000000000e+00 
1.000000000000e-01 -1.391895614642e-01 0.000000000000e+00 0.000000000000e+00 
1.000000000000e-01 -1.551674274464e-01 0.000000000000e+00 0.000000000000e+00 
1.000000000000e-01 -1.717986916992e-01 0.000000000000e+00 0.000000000000e+00 
0.000000000000e+00 -1.551674274464e-01 0.000000000000e+00 0.000000000000e+00 
0.000000000000e+00 -1.391895614642e-01 0.000000000000e+00 0.000000000000e+00 
0.000000000000e+00 -1.238407989588e-01 0.000000000000e+00 0.000000000000e+00 
0.000000000000e+00 -1.090948080907e-01 0.000000000000e+00 0.000000000000e+00 
0.000000000000e+00 -9.493635849425e-02 0.000000000000e+00 0.000000000000e+00 
0.000000000000e+00 -8.133192903590e-02 0.000000000000e+00 0.000000000000e+00 
5.003429380367e-02 -1.017798692890e-01 0.000000000000e+00 0.000000000000e+00 
5.002853232124e-02 -1.519088519355e-01 0.000000000000e+00 0.000000000000e+00 
3.144484460580e-02 -7.586712852882e-02 0.000000000000e+00 0.000000000000e+00 
6.860613435721e-02 -7.587479770767e-02 0.000000000000e+00 0.000000000000e+00 
6.888280446269e-02 -1.268465272623e-01 0.000000000000e+00 0.000000000000e+00 
3.121957414972e-02 -1.268421985082e-01 0.000000000000e+00 0.000000000000e+00 
7.554701895293e-02 -1.019679427391e-01 0.000000000000e+00 0.000000000000e+00 
2.453145878902e-02 -1.018531985808e-01 0.000000000000e+00 0.000000000000e+00 
2.486640359495e-02 -1.511994000693e-01 0.000000000000e+00 0.000000000000e+00 
7.519018389267e-02 -1.512146935932e-01 0.000000000000e+00 0.000000000000e+00 
5.002678796997e-02 -6.957908922559e-02 0.000000000000e+00 0.000000000000e+00 
8.318938762240e-02 -6.726290804214e-02 0.000000000000e+00 0.000000000000e+00 
1.693000682173e-02 -6.715456475858e-02 0.000000000000e+00 0.000000000000e+00 
5.005181660085e-02 -1.213864546544e-01 0.000000000000e+00 0.000000000000e+00 
8.304311980566e-02 -8.600422434734e-02 0.000000000000e+00 0.000000000000e+00 
1.698701460171e-02 -8.593339913784e-02 0.000000000000e+00 0.000000000000e+00 
4.512057632941e-02 -8.568062374441e-02 0.000000000000e+00 0.000000000000e+00 
6.286808215727e-02 -9.137086788006e-02 0.000000000000e+00 0.000000000000e+00 
1.640712137365e-02 -1.174171270781e-01 0.000000000000e+00 0.000000000000e+00 
8.372537541237e-02 -1.174905373863e-01 0.000000000000e+00 0.000000000000e+00 
5.004288552848e-02 -1.716527951481e-01 0.000000000000e+00 0.000000000000e+00 
3.731099137938e-02 -1.115945408716e-01 0.000000000000e+00 0.000000000000e+00 
6.271916567743e-02 -1.115718330784e-01 0.000000000000e+00 0.000000000000e+00 
1.686902144853e-02 -1.361062558984e-01 0.000000000000e+00 0.000000000000e+00 
8.320724439706e-02 -1.361392086212e-01 0.000000000000e+00 0.000000000000e+00 
5.583260035578e-02 -1.366520720980e-01 0.000000000000e+00 0.000000000000e+00 
8.326930466579e-02 -1.667726886397e-01 0.000000000000e+00 0.000000000000e+00 
1.683000258849e-02 -1.667776624401e-01 0.000000000000e+00 0.000000000000e+00 
3.176003359910e-02 -8.986364252605e-02 0.000000000000e+00 0.000000000000e+00 
3.772961003605e-02 -1.415473931669e-01 0.000000000000e+00 0.000000000000e+00 
3.703325374415e-02 -1.619447957644e-01 0.000000000000e+00 0.000000000000e+00 
6.303932844440e-02 -1.619539551222e-01 0.000000000000e+00 0.000000000000e+00 
5.675176755435e-02 -8.029564380893e-02 0.000000000000e+00 0.000000000000e+00 
1.125853509499e-02 -1.018913627337e-01 0.000000000000e+00 0.000000000000e+00 
8.881871162219e-02 -1.019661470517e-01 0.000000000000e+00 0.000000000000e+00 
7.207066164269e-02 -6.508809647676e-02 0.000000000000e+00 0.000000000000e+00 
2.804557775330e-02 -6.508329529637e-02 0.000000000000e+00 0.000000000000e+00 
1.044096559141e-02 -7.656376756274e-02 0.000000000000e+00 0.000000000000e+00 
8.958901145892e-02 -7.668408325171e-02 0.000000000000e+00 0.000000000000e+00 
3.832908703950e-02 -9.976005802934e-02 0.000000000000e+00 0.000000000000e+00 
1.169884814581e-02 -1.485111206917e-01 0.000000000000e+00 0.000000000000e+00 
8.835347874980e-02 -1.485454048835e-01 0.000000000000e+00 0.000000000000e+00 
6.851377528847e-02 -1.399424198909e-01 0.000000000000e+00 0.000000000000e+00 
7.224986561191e-02 -8.603444691608e-02 0.000000000000e+00 0.000000000000e+00 
3.977027004405e-02 -6.986979884634e-02 0.000000000000e+00 0.000000000000e+00 
6.027993180190e-02 -6.988363285687e-02 0.000000000000e+00 0.000000000000e+00 
1.000000000000e-01 -6.826783355915e-02 0.000000000000e+00 0.000000000000e+00 
8.325780581963e-02 -1.864276587827e-01 0.000000000000e+00 0.000000000000e+00 
1.000000000000e-01 -1.891202423411e-01 0.000000000000e+00 0.000000000000e+00 
0.000000000000e+00 -1.717986916992e-01 0.000000000000e+00 0.000000000000e+00 
0.000000000000e+00 -6.826783355915e-02 0.000000000000e+00 0.000000000000e+00 
3.802067276118e-02 -5.975942885331e-02 0.000000000000e+00 0.000000000000e+00 
5.204798323580e-02 -5.977244273485e-02 0.000000000000e+00 0.000000000000e+00 
7.556622015059e-02 -5.213930935979e-02 0.000000000000e+00 0.000000000000e+00 
9.100272279741e-02 -6.058966642700e-02 0.000000000000e+00 0.000000000000e+00 
2.456481525732e-02 -5.204499879856e-02 0.000000000000e+00 0.000000000000e+00 
9.097483185567e-03 -6.052866285240e-02 0.000000000000e+00 0.000000000000e+00 
3.104608478085e-02 -1.770328565743e-01 0.000000000000e+00 0.000000000000e+00 
3.763666536168e-02 -1.917900581297e-01 0.000000000000e+00 0.000000000000e+00 
5.599679480673e-02 -1.868962244425e-01 0.000000000000e+00 0.000000000000e+00 
6.904394191688e-02 -1.770178073307e-01 0.000000000000e+00 0.000000000000e+00 
1.687036367023e-02 -1.864550581470e-01 0.000000000000e+00 0.000000000000e+00 
6.206074805899e-02 -5.978173210899e-02 0.000000000000e+00 0.000000000000e+00 
1  2  28  1
1  28  52  1
28  2  48  28
2  3  48  2
3  4  33  3
3  33  48  3
33  4  38  33
4  5  38  4
38  5  55  38
5  6  55  5
6  7  40  6
6  40  55  6
41  8  54  41
8  9  54  8
9  10  37  9
9  37  54  9
10  32  37  10
10  11  32  10
32  11  47  32
11  12  47  11
12  13  29  12
12  29  47  12
29  13  51  29
14  31  36  14
14  30  31  14
14  27  35  14
27  14  36  27
30  14  53  30
14  35  53  14
45  15  56  45
15  39  56  15
43  15  44  43
39  15  43  39
34  15  45  34
15  34  44  15
26  16  29  26
29  16  42  29
30  16  58  30
16  26  50  16
16  30  42  16
16  50  58  16
17  25  28  17
17  28  57  17
25  17  49  25
46  17  57  46
49  17  59  49
17  46  59  17
33  18  36  33
18  27  36  18
18  33  38  18
27  18  39  27
18  38  56  18
39  18  56  39
19  27  43  19
19  32  35  19
37  19  43  37
27  19  35  27
32  19  37  32
20  33  36  20
31  20  36  31
20  28  48  20
28  20  57  28
33  20  48  33
20  31  57  20
32  21  35  32
29  21  47  29
21  29  42  21
21  32  47  21
35  21  53  35
21  42  53  21
22  37  43  22
41  22  44  41
22  43  44  22
22  41  54  22
37  22  54  37
23  45  56  23
23  40  45  23
40  23  55  40
38  23  56  38
23  38  55  23
24  30  58  24
30  24  46  30
46  24  59  46
28  25  52  28
26  29  51  26
27  39  43  27
31  30  46  31
42  30  53  42
31  46  57  31
60  1  52  60
40  7  61  40
7  62  61  7
63  8  41  63
13  64  51  13
24  65  66  24
65  24  58  65
24  66  59  24
25  67  68  25
67  25  49  67
52  25  68  52
69  26  70  69
26  69  50  26
26  51  70  26
71  34  72  71
34  73  72  34
34  71  44  34
74  34  45  74
34  74  73  34
40  74  45  40
74  40  61  74
63  41  75  63
71  41  44  71
41  71  75  41
76  67  49  76
76  49  59  76
69  65  50  69
50  65  58  50
51  64  70  51
60  52  68  60
66  76  59  66
VARIABLES  = "X","Y","Z", "PRESSURE1"
ZONE T="1.000000000000e+01s", N=76, E=120, F=FEPOINT, ET=QUADRILATERAL
STRANDID=1, SOLUTIONTIME=1.000000000000e+01
1.000000000000e-01 -8.133192903590e-02 0.000000000000e+00 4.074052265342e+01 
1.000000000000e-01 -9.493635849425e-02 0.000000000000e+00 4.330679222501e+01 
1.000000000000e-01 -1.090948080906e-01 0.000000000000e+00 4.505985082054e+01 
1.000000000000e-01 -1.238407989588e-01 0.000000000000e+00 4.619039691057e+01 
1.000000000000e-01 -1.391895614642e-01 0.000000000000e+00 4.686685028886e+01 
1.000000000000e-01 -1.551674274464e-01 0.000000000000e+00 4.725023188858e+01 
1.000000000000e-01 -1.717986916992e-01 0.000000000000e+00 4.745204361357e+01 
0.000000000000e+00 -1.551674274464e-01 0.000000000000e+00 4.725116136714e+01 
0.000000000000e+00 -1.391895614642e-01 0.000000000000e+00 4.686532154203e+01 
0.000000000000e+00 -1.238407989588e-01 0.000000000000e+00 4.618890015587e+01 
0.000000000000e+00 -1.090948080907e-01 0.000000000000e+00 4.506096660876e+01 
0.000000000000e+00 -9.493635849425e-02 0.000000000000e+00 4.330784423201e+01 
0.000000000000e+00 -8.133192903590e-02 0.000000000000e+00 4.073922981580e+01 
5.003429380367e-02 -1.017798692890e-01 0.000000000000e+00 4.426480442083e+01 
5.002853232124e-02 -1.519088519355e-01 0.000000000000e+00 4.719410668244e+01 
3.144484460580e-02 -7.586712852882e-02 0.000000000000e+00 3.941302041997e+01 
6.860613435721e-02 -7.587479770767e-02 0.000000000000e+00 3.942150717774e+01 
6.888280446269e-02 -1.268465272623e-01 0.000000000000e+00 4.636084345021e+01 
3.121957414972e-02 -1.268421985082e-01 0.000000000000e+00 4.634590315196e+01 
7.554701895293e-02 -1.019679427391e-01 0.000000000000e+00 4.427790485470e+01 
2.453145878902e-02 -1.018531985808e-01 0.000000000000e+00 4.428197783081e+01 
2.486640359495e-02 -1.511994000693e-01 0.000000000000e+00 4.718256661703e+01 
7.519018389267e-02 -1.512146935932e-01 0.000000000000e+00 4.717278762065e+01 
5.002678796997e-02 -6.957908922559e-02 0.000000000000e+00 3.771308465839e+01 
8.318938762240e-02 -6.726290804214e-02 0.000000000000e+00 3.700722138050e+01 
1.693000682173e-02 -6.715456475858e-02 0.000000000000e+00 3.697753635939e+01 
5.005181660085e-02 -1.213864546544e-01 0.000000000000e+00 4.606767383896e+01 
8.304311980566e-02 -8.600422434734e-02 0.000000000000e+00 4.181942961175e+01 
1.698701460171e-02 -8.593339913784e-02 0.000000000000e+00 4.179785137415e+01 
4.512057632941e-02 -8.568062374441e-02 0.000000000000e+00 4.172496105164e+01 
6.286808215727e-02 -9.137086788006e-02 0.000000000000e+00 4.274040200266e+01 
1.640712137365e-02 -1.174171270781e-01 0.000000000000e+00 4.578235253136e+01 
8.372537541237e-02 -1.174905373863e-01 0.000000000000e+00 4.578937306838e+01 
5.004288552848e-02 -1.716527951481e-01 0.000000000000e+00 4.745961032760e+01 
3.731099137938e-02 -1.115945408716e-01 0.000000000000e+00 4.527970854490e+01 
6.271916567743e-02 -1.115718330784e-01 0.000000000000e+00 4.530815060720e+01 
1.686902144853e-02 -1.361062558984e-01 0.000000000000e+00 4.677197691962e+01 
8.320724439706e-02 -1.361392086212e-01 0.000000000000e+00 4.677926367004e+01 
5.583260035578e-02 -1.366520720980e-01 0.000000000000e+00 4.677960090994e+01 
8.326930466579e-02 -1.667726886397e-01 0.000000000000e+00 4.740965953758e+01 
1.683000258849e-02 -1.667776624401e-01 0.000000000000e+00 4.741147814181e+01 
3.176003359910e-02 -8.986364252605e-02 0.000000000000e+00 4.244409263318e+01 
3.772961003605e-02 -1.415473931669e-01 0.000000000000e+00 4.696099774769e+01 
3.703325374415e-02 -1.619447957644e-01 0.000000000000e+00 4.735755655586e+01 
6.303932844440e-02 -1.619539551222e-01 0.000000000000e+00 4.735880049046e+01 
5.675176755435e-02 -8.029564380893e-02 0.000000000000e+00 4.051375087391e+01 
1.125853509499e-02 -1.018913627337e-01 0.000000000000e+00 4.427441634695e+01 
8.881871162219e-02 -1.019661470517e-01 0.000000000000e+00 4.427969692338e+01 
7.207066164269e-02 -6.508809647676e-02 0.000000000000e+00 3.623511773040e+01 
2.804557775330e-02 -6.508329529637e-02 0.000000000000e+00 3.624692320626e+01 
1.044096559141e-02 -7.656376756274e-02 0.000000000000e+00 3.958421443253e+01 
8.958901145892e-02 -7.668408325171e-02 0.000000000000e+00 3.961687317541e+01 
3.832908703950e-02 -9.976005802934e-02 0.000000000000e+00 4.397432388979e+01 
1.169884814581e-02 -1.485111206917e-01 0.000000000000e+00 4.712162898074e+01 
8.835347874980e-02 -1.485454048835e-01 0.000000000000e+00 4.712108191174e+01 
6.851377528847e-02 -1.399424198909e-01 0.000000000000e+00 4.689837618161e+01 
7.224986561191e-02 -8.603444691608e-02 0.000000000000e+00 4.174906798397e+01 
3.977027004405e-02 -6.986979884634e-02 0.000000000000e+00 3.776750279754e+01 
6.027993180190e-02 -6.988363285687e-02 0.000000000000e+00 3.776915389100e+01 
1.000000000000e-01 -6.826783355915e-02 0.000000000000e+00 3.723267535772e+01 
8.325780581963e-02 -1.864276587827e-01 0.000000000000e+00 4.754186289580e+01 
1.000000000000e-01 -1.891202423411e-01 0.000000000000e+00 4.754785745095e+01 
0.000000000000e+00 -1.717986916992e-01 0.000000000000e+00 4.745336107664e+01 
0.000000000000e+00 -6.826783355915e-02 0.000000000000e+00 3.723392970327e+01 
3.802067276118e-02 -5.975942885331e-02 0.000000000000e+00 3.440809605589e+01 
5.204798323580e-02 -5.977244273485e-02 0.000000000000e+00 3.440491302037e+01 
7.556622015059e-02 -5.213930935979e-02 0.000000000000e+00 3.138574228454e+01 
9.100272279741e-02 -6.058966642700e-02 0.000000000000e+00 3.470990014346e+01 
2.456481525732e-02 -5.204499879856e-02 0.000000000000e+00 3.134848482255e+01 
9.097483185567e-03 -6.052866285240e-02 0.000000000000e+00 3.468953056722e+01 
3.104608478085e-02 -1.770328565743e-01 0.000000000000e+00 4.749264218720e+01 
3.763666536168e-02 -1.917900581297e-01 0.000000000000e+00 4.756376992716e+01 
5.599679480673e-02 -1.868962244425e-01 0.000000000000e+00 4.754266390187e+01 
6.904394191688e-02 -1.770178073307e-01 0.000000000000e+00 4.749552487560e+01 
1.687036367023e-02 -1.864550581470e-01 0.000000000000e+00 4.754424787714e+01 
6.206074805899e-02 -5.978173210899e-02 0.000000000000e+00 3.435867942390e+01 
1  2  28  1
1  28  52  1
28  2  48  28
2  3  48  2
3  4  33  3
3  33  48  3
33  4  38  33
4  5  38  4
38  5  55  38
5  6  55  5
6  7  40  6
6  40  55  6
41  8  54  41
8  9  54  8
9  10  37  9
9  37  54  9
10  32  37  10
10  11  32  10
32  11  47  32
11  12  47  11
12  13  29  12
12  29  47  12
29  13  51  29
14  31  36  14
14  30  31  14
14  27  35  14
27  14  36  27
30  14  53  30
14  35  53  14
45  15  56  45
15  39  56  15
43  15  44  43
39  15  43  39
34  15  45  34
15  34  44  15
26  16  29  26
29  16  42  29
30  16  58  30
16  26  50  16
16  30  42  16
16  50  58  16
17  25  28  17
17  28  57  17
25  17  49  25
46  17  57  46
49  17  59  49
17  46  59  17
33  18  36  33
18  27  36  18
18  33  38  18
27  18  39  27
18  38  56  18
39  18  56  39
19  27  43  19
19  32  35  19
37  19  43  37
27  19  35  27
32  19  37  32
20  33  36  20
31  20  36  31
20  28  48  20
28  20  57  28
33  20  48  33
20  31  57  20
32  21  35  32
29  21  47  29
21  29  42  21
21  32  47  21
35  21  53  35
21  42  53  21
22  37  43  22
41  22  44  41
22  43  44  22
22  41  54  22
37  22  54  37
23  45  56  23
23  40  45  23
40  23  55  40
38  23  56  38
23  38  55  23
24  30  58  24
30  24  46  30
46  24  59  46
28  25  52  28
26  29  51  26
27  39  43  27
31  30  46  31
42  30  53  42
31  46  57  31
60  1  52  60
40  7  61  40
7  62  61  7
63  8  41  63
13  64  51  13
24  65  66  24
65  24  58  65
24  66  59  24
25  67  68  25
67  25  49  67
52  25  68  52
69  26  70  69
26  69  50  26
26  51  70  26
71  34  72  71
34  73  72  34
34  71  44  34
74  34  45  74
34  74  73  34
40  74  45  40
74  40  61  74
63  41  75  63
71  41  44  71
41  71  75  41
76  67  49  76
76  49  59  76
69  65  50  69
50  65  58  50
51  64  70  51
60  52  68  60
66  76  59  66
