VARIABLES  = "X","Y","Z", "DISPLACEMENT_X1", "DISPLACEMENT_Y1", "STRESS_XX", "STRESS_XY", "STRESS_YY", "STRESS_ZZ", "STRAIN_XX", "STRAIN_XY", "STRAIN_YY"
ZONE T="0.000000000000e+00s", N=12, E=6, F=FEPOINT, ET=QUADRILATERAL
STRANDID=1, SOLUTIONTIME=0.000000000000e+00
4.000000000000e+00 0.000000000000e+00 0.000000000000e+00 0.000000000000e+00 0.000000000000e+00 0.000000000000e+00 0.000000000000e+00 0.000000000000e+00 0.000000000000e+00 0.000000000000e+00 0.000000000000e+00 0.000000000000e+00 
4.000000000000e+00 3.000000000000e+00 0.000000000000e+00 0.000000000000e+00 0.000000000000e+00 0.000000000000e+00 0.000000000000e+00 0.000000000000e+00 0.000000000000e+00 0.000000000000e+00 0.000000000000e+00 0.000000000000e+00 
3.000000000001e+00 3.000000000000e+00 0.000000000000e+00 0.000000000000e+00 0.000000000000e+00 0.000000000000e+00 0.000000000000e+00 0.000000000000e+00 0.000000000000e+00 0.000000000000e+00 0.000000000000e+00 0.000000000000e+00 
2.999999999997e+00 0.000000000000e+00 0.000000000000e+00 0.000000000000e+00 0.000000000000e+00 0.000000000000e+00 0.000000000000e+00 0.000000000000e+00 0.000000000000e+00 0.000000000000e+00 0.000000000000e+00 0.000000000000e+00 
4.000000000000e+00 9.999999999960e-01 0.000000000000e+00 0.000000000000e+00 0.000000000000e+00 0.000000000000e+00 0.000000000000e+00 0.000000000000e+00 0.000000000000e+00 0.000000000000e+00 0.000000000000e+00 0.000000000000e+00 
4.000000000000e+00 1.999999999996e+00 0.000000000000e+00 0.000000000000e+00 0.000000000000e+00 0.000000000000e+00 0.000000000000e+00 0.000000000000e+00 0.000000000000e+00 0.000000000000e+00 0.000000000000e+00 0.000000000000e+00 
3.000000000000e+00 1.999999999996e+00 0.000000000000e+00 0.000000000000e+00 0.000000000000e+00 0.000000000000e+00 0.000000000000e+00 0.000000000000e+00 0.000000000000e+00 0.000000000000e+00 0.000000000000e+00 0.000000000000e+00 
2.999999999999e+00 9.999999999960e-01 0.000000000000e+00 0.000000000000e+00 0.000000000000e+00 0.000000000000e+00 0.000000000000e+00 0.000000000000e+00 0.000000000000e+00 0.000000000000e+00 0.000000000000e+00 0.000000000000e+00 
2.000000000008e+00 3.000000000000e+00 0.000000000000e+00 0.000000000000e+00 0.000000000000e+00 0.000000000000e+00 0.000000000000e+00 0.000000000000e+00 0.000000000000e+00 0.000000000000e+00 0.000000000000e+00 0.000000000000e+00 
2.000000000004e+00 1.999999999996e+00 0.000000000000e+00 0.000000000000e+00 0.000000000000e+00 0.000000000000e+00 0.000000000000e+00 0.000000000000e+00 0.000000000000e+00 0.000000000000e+00 0.000000000000e+00 0.000000000000e+00 
1.999999999999e+00 9.999999999960e-01 0.000000000000e+00 0.000000000000e+00 0.000000000000e+00 0.000000000000e+00 0.000000000000e+00 0.000000000000e+00 0.000000000000e+00 0.000000000000e+00 0.000000000000e+00 0.000000000000e+00 
1.999999999995e+00 0.000000000000e+00 0.000000000000e+00 0.000000000000e+00 0.000000000000e+00 0.000000000000e+00 0.000000000000e+00 0.000000000000e+00 0.000000000000e+00 0.000000000000e+00 0.000000000000e+00 0.000000000000e+00 
8  4  1  5  
3  7  6  2  
7  8  5  6  
9  10  7  3  
11  12  4  8  
10  11  8  7  
VARIABLES  = "X","Y","Z", "DISPLACEMENT_X1", "DISPLACEMENT_Y1", "STRESS_XX", "STRESS_XY", "STRESS_YY", "STRESS_ZZ", "STRAIN_XX", "STRAIN_XY", "STRAIN_YY"
ZONE T="8.640000000000e+04s", N=12, E=6, F=FEPOINT, ET=QUADRILATERAL
STRANDID=1, SOLUTIONTIME=8.640000000000e+04
4.000000000000e+00 0.000000000000e+00 0.000000000000e+00 0.000000000000e+00 0.000000000000e+00 -2.410220493655e+04 1.288270631008e+04 -4.277065053802e+04 -2.674914218983e+04 1.852856077296e-04 1.803578883411e-03 -1.121505584374e-03 
4.000000000000e+00 3.000000000000e+00 0.000000000000e+00 1.433103085853e-03 -2.885391261084e-03 -2.259195341261e+02 1.258675361075e+01 -2.404312138861e+04 -9.707616369093e+03 6.637187784477e-04 1.762145505505e-06 -1.003485351366e-03 
3.000000000001e+00 3.000000000000e+00 0.000000000000e+00 7.476557325331e-04 -2.746605234809e-03 1.279144726787e+03 -2.869966267164e+02 -2.368960725984e+04 -8.964185013220e+03 7.170330818004e-04 -4.017952774029e-05 -1.030779557263e-03 
2.999999999997e+00 0.000000000000e+00 0.000000000000e+00 0.000000000000e+00 0.000000000000e+00 -1.397787654992e+04 4.348976869742e+03 -2.099616867740e+04 -1.398961809092e+04 8.219078706173e-07 6.088567617639e-04 -4.904585410530e-04 
4.000000000000e+00 9.999999999960e-01 0.000000000000e+00 1.064795225562e-03 -1.036408882126e-03 2.149289872479e+03 -1.476641443611e+03 -1.962999711109e+04 -6.992282895443e+03 6.399100937545e-04 -2.067298021055e-04 -8.846399950950e-04 
4.000000000000e+00 1.999999999996e+00 0.000000000000e+00 1.312885313946e-03 -1.912379827005e-03 1.595036577122e+02 -5.294572807308e+02 -2.225026814489e+04 -8.836305794869e+03 6.297066616807e-04 -7.412401930232e-05 -9.389773645011e-04 
3.000000000000e+00 1.999999999996e+00 0.000000000000e+00 6.631468139219e-04 -1.728271791460e-03 -2.145927176953e+01 -8.588859420853e+02 -2.410111182816e+04 -9.649028439972e+03 6.739298417742e-04 -1.202440318919e-04 -1.011645837173e-03 
2.999999999999e+00 9.999999999960e-01 0.000000000000e+00 4.777560072258e-04 -7.411094629907e-04 -2.994044309309e+03 1.668141932882e+03 -2.511946173052e+04 -1.124540241593e+04 5.775950674635e-04 2.335398706035e-04 -9.711841520211e-04 
2.000000000008e+00 3.000000000000e+00 0.000000000000e+00 6.198786295980e-15 -2.672791049038e-03 2.525632506877e+03 -1.575946377122e+00 -2.361331801336e+04 -8.435074202592e+03 7.672494696628e-04 -2.206324927971e-07 -1.062477066754e-03 
2.000000000004e+00 1.999999999996e+00 0.000000000000e+00 2.406299309685e-15 -1.639922652207e-03 -5.034096599511e+02 -3.299410240343e+01 -2.450158716663e+04 -1.000199873063e+04 6.649012349476e-04 -4.619174336480e-06 -1.014971190520e-03 
1.999999999999e+00 9.999999999960e-01 0.000000000000e+00 -3.741330420867e-16 -6.898213658091e-04 -5.530384698646e+03 -8.950462486315e+00 -2.435611327992e+04 -1.195459919143e+04 4.496950144946e-04 -1.253064748084e-06 -8.681059861945e-04 
1.999999999995e+00 0.000000000000e+00 0.000000000000e+00 0.000000000000e+00 0.000000000000e+00 -1.398602900585e+04 -2.503997466183e+01 -2.129741836833e+04 -1.411337894967e+04 8.914496067753e-06 -3.505596452656e-06 -5.028827593063e-04 
8  4  1  5  
3  7  6  2  
7  8  5  6  
9  10  7  3  
11  12  4  8  
10  11  8  7  
