VARIABLES  = "X","Y","Z", "DISPLACEMENT_X1", "DISPLACEMENT_Y1", "STRESS_XX", "STRESS_XY", "STRESS_YY", "STRESS_ZZ", "STRAIN_XX", "STRAIN_XY", "STRAIN_YY"
ZONE T="0.000000000000e+00s", N=16, E=9, F=FEPOINT, ET=QUADRILATERAL
STRANDID=1, SOLUTIONTIME=0.000000000000e+00
0.000000000000e+00 0.000000000000e+00 0.000000000000e+00 0.000000000000e+00 0.000000000000e+00 0.000000000000e+00 0.000000000000e+00 0.000000000000e+00 0.000000000000e+00 0.000000000000e+00 0.000000000000e+00 0.000000000000e+00 
0.000000000000e+00 3.000000000000e+00 0.000000000000e+00 0.000000000000e+00 0.000000000000e+00 0.000000000000e+00 0.000000000000e+00 0.000000000000e+00 0.000000000000e+00 0.000000000000e+00 0.000000000000e+00 0.000000000000e+00 
2.000000000008e+00 3.000000000000e+00 0.000000000000e+00 0.000000000000e+00 0.000000000000e+00 0.000000000000e+00 0.000000000000e+00 0.000000000000e+00 0.000000000000e+00 0.000000000000e+00 0.000000000000e+00 0.000000000000e+00 
1.000000000004e+00 3.000000000000e+00 0.000000000000e+00 0.000000000000e+00 0.000000000000e+00 0.000000000000e+00 0.000000000000e+00 0.000000000000e+00 0.000000000000e+00 0.000000000000e+00 0.000000000000e+00 0.000000000000e+00 
9.999999999976e-01 0.000000000000e+00 0.000000000000e+00 0.000000000000e+00 0.000000000000e+00 0.000000000000e+00 0.000000000000e+00 0.000000000000e+00 0.000000000000e+00 0.000000000000e+00 0.000000000000e+00 0.000000000000e+00 
1.999999999995e+00 0.000000000000e+00 0.000000000000e+00 0.000000000000e+00 0.000000000000e+00 0.000000000000e+00 0.000000000000e+00 0.000000000000e+00 0.000000000000e+00 0.000000000000e+00 0.000000000000e+00 0.000000000000e+00 
0.000000000000e+00 9.999999999960e-01 0.000000000000e+00 0.000000000000e+00 0.000000000000e+00 0.000000000000e+00 0.000000000000e+00 0.000000000000e+00 0.000000000000e+00 0.000000000000e+00 0.000000000000e+00 0.000000000000e+00 
0.000000000000e+00 1.999999999996e+00 0.000000000000e+00 0.000000000000e+00 0.000000000000e+00 0.000000000000e+00 0.000000000000e+00 0.000000000000e+00 0.000000000000e+00 0.000000000000e+00 0.000000000000e+00 0.000000000000e+00 
1.000000000002e+00 1.999999999996e+00 0.000000000000e+00 0.000000000000e+00 0.000000000000e+00 0.000000000000e+00 0.000000000000e+00 0.000000000000e+00 0.000000000000e+00 0.000000000000e+00 0.000000000000e+00 0.000000000000e+00 
2.000000000004e+00 1.999999999996e+00 0.000000000000e+00 0.000000000000e+00 0.000000000000e+00 0.000000000000e+00 0.000000000000e+00 0.000000000000e+00 0.000000000000e+00 0.000000000000e+00 0.000000000000e+00 0.000000000000e+00 
9.999999999998e-01 9.999999999960e-01 0.000000000000e+00 0.000000000000e+00 0.000000000000e+00 0.000000000000e+00 0.000000000000e+00 0.000000000000e+00 0.000000000000e+00 0.000000000000e+00 0.000000000000e+00 0.000000000000e+00 
1.999999999999e+00 9.999999999960e-01 0.000000000000e+00 0.000000000000e+00 0.000000000000e+00 0.000000000000e+00 0.000000000000e+00 0.000000000000e+00 0.000000000000e+00 0.000000000000e+00 0.000000000000e+00 0.000000000000e+00 
0.000000000000e+00 4.999999999980e-01 0.000000000000e+00 0.000000000000e+00 0.000000000000e+00 0.000000000000e+00 0.000000000000e+00 0.000000000000e+00 0.000000000000e+00 0.000000000000e+00 0.000000000000e+00 0.000000000000e+00 
4.999999999988e-01 0.000000000000e+00 0.000000000000e+00 0.000000000000e+00 0.000000000000e+00 0.000000000000e+00 0.000000000000e+00 0.000000000000e+00 0.000000000000e+00 0.000000000000e+00 0.000000000000e+00 0.000000000000e+00 
9.999999999987e-01 4.999999999980e-01 0.000000000000e+00 0.000000000000e+00 0.000000000000e+00 0.000000000000e+00 0.000000000000e+00 0.000000000000e+00 0.000000000000e+00 0.000000000000e+00 0.000000000000e+00 0.000000000000e+00 
4.999999999999e-01 9.999999999960e-01 0.000000000000e+00 0.000000000000e+00 0.000000000000e+00 0.000000000000e+00 0.000000000000e+00 0.000000000000e+00 0.000000000000e+00 0.000000000000e+00 0.000000000000e+00 0.000000000000e+00 
7  1  5  11  
2  8  9  4  
4  9  10  3  
11  5  6  12  
8  7  11  9  
9  11  12  10  
3  10  46  47  
12  6  48  49  
10  12  49  46  
VARIABLES  = "X","Y","Z", "DISPLACEMENT_X1", "DISPLACEMENT_Y1", "STRESS_XX", "STRESS_XY", "STRESS_YY", "STRESS_ZZ", "STRAIN_XX", "STRAIN_XY", "STRAIN_YY"
ZONE T="8.640000000000e+04s", N=16, E=9, F=FEPOINT, ET=QUADRILATERAL
STRANDID=1, SOLUTIONTIME=8.640000000000e+04
0.000000000000e+00 0.000000000000e+00 0.000000000000e+00 0.000000000000e+00 0.000000000000e+00 -2.410220493656e+04 -1.288270631008e+04 -4.277065053806e+04 -2.674914218985e+04 1.852856077302e-04 -1.803578883411e-03 -1.121505584375e-03 
0.000000000000e+00 3.000000000000e+00 0.000000000000e+00 -1.433103085853e-03 -2.885391261084e-03 -2.259195341267e+02 -1.258675361002e+01 -2.404312138861e+04 -9.707616369093e+03 6.637187784476e-04 -1.762145505402e-06 -1.003485351366e-03 
2.000000000008e+00 3.000000000000e+00 0.000000000000e+00 6.200998124602e-15 -2.672791049038e-03 2.525632506879e+03 -2.792141629016e-09 -2.361331801336e+04 -8.435074202591e+03 7.672494696629e-04 -3.909006229602e-16 -1.062477066754e-03 
1.000000000004e+00 3.000000000000e+00 0.000000000000e+00 -7.476557325293e-04 -2.746605234809e-03 1.279144726799e+03 2.869966267163e+02 -2.368960725984e+04 -8.964185013215e+03 7.170330818009e-04 4.017952774028e-05 -1.030779557263e-03 
9.999999999976e-01 0.000000000000e+00 0.000000000000e+00 0.000000000000e+00 0.000000000000e+00 -1.397787654992e+04 -4.348976869769e+03 -2.099616867741e+04 -1.398961809093e+04 8.219078708113e-07 -6.088567617677e-04 -4.904585410533e-04 
1.999999999995e+00 0.000000000000e+00 0.000000000000e+00 0.000000000000e+00 0.000000000000e+00 -1.398602900585e+04 -1.970428087361e-08 -2.129741836833e+04 -1.411337894967e+04 8.914496067748e-06 -2.758596573827e-15 -5.028827593063e-04 
0.000000000000e+00 9.999999999960e-01 0.000000000000e+00 -1.064795225563e-03 -1.036408882126e-03 2.149289872483e+03 1.476641443615e+03 -1.962999711107e+04 -6.992282895435e+03 6.399100937542e-04 2.067298021061e-04 -8.846399950945e-04 
0.000000000000e+00 1.999999999996e+00 0.000000000000e+00 -1.312885313946e-03 -1.912379827005e-03 1.595036577116e+02 5.294572807316e+02 -2.225026814489e+04 -8.836305794871e+03 6.297066616808e-04 7.412401930243e-05 -9.389773645012e-04 
1.000000000002e+00 1.999999999996e+00 0.000000000000e+00 -6.631468139207e-04 -1.728271791460e-03 -2.145927177185e+01 8.588859420845e+02 -2.410111182816e+04 -9.649028439973e+03 6.739298417741e-04 1.202440318918e-04 -1.011645837173e-03 
2.000000000004e+00 1.999999999996e+00 0.000000000000e+00 2.408127104796e-15 -1.639922652207e-03 -5.034096599521e+02 -2.179046276751e-09 -2.450158716663e+04 -1.000199873063e+04 6.649012349476e-04 -3.050669627666e-16 -1.014971190520e-03 
9.999999999998e-01 9.999999999960e-01 0.000000000000e+00 -4.777560072267e-04 -7.411094629909e-04 -2.994044309299e+03 -1.668141932881e+03 -2.511946173052e+04 -1.124540241593e+04 5.775950674640e-04 -2.335398706034e-04 -9.711841520214e-04 
1.999999999999e+00 9.999999999960e-01 0.000000000000e+00 -3.729039913668e-16 -6.898213658091e-04 -5.530384698646e+03 9.876721662749e-11 -2.435611327992e+04 -1.195459919143e+04 4.496950144946e-04 1.382368357831e-17 -8.681059861946e-04 
0.000000000000e+00 4.999999999980e-01 0.000000000000e+00 -7.772025122052e-04 -5.689913810542e-04 0.000000000000e+00 0.000000000000e+00 0.000000000000e+00 0.000000000000e+00 0.000000000000e+00 0.000000000000e+00 0.000000000000e+00 
4.999999999988e-01 0.000000000000e+00 0.000000000000e+00 0.000000000000e+00 0.000000000000e+00 0.000000000000e+00 0.000000000000e+00 0.000000000000e+00 0.000000000000e+00 0.000000000000e+00 0.000000000000e+00 0.000000000000e+00 
9.999999999987e-01 4.999999999980e-01 0.000000000000e+00 -2.778775140291e-04 -3.239264763927e-04 0.000000000000e+00 0.000000000000e+00 0.000000000000e+00 0.000000000000e+00 0.000000000000e+00 0.000000000000e+00 0.000000000000e+00 
4.999999999999e-01 9.999999999960e-01 0.000000000000e+00 -7.825781965821e-04 -8.512001326726e-04 0.000000000000e+00 0.000000000000e+00 0.000000000000e+00 0.000000000000e+00 0.000000000000e+00 0.000000000000e+00 0.000000000000e+00 
7  1  5  11  
2  8  9  4  
4  9  10  3  
11  5  6  12  
8  7  11  9  
9  11  12  10  
3  10  46  47  
12  6  48  49  
10  12  49  46  
