VARIABLES  = "X","Y","Z", "DISPLACEMENT_X1", "DISPLACEMENT_Y1", "STRESS_XX", "STRESS_XY", "STRESS_YY", "STRESS_ZZ", "STRAIN_XX", "STRAIN_XY", "STRAIN_YY"
ZONE T="0.000000000000e+00s", N=16, E=9, F=FEPOINT, ET=QUADRILATERAL
STRANDID=1, SOLUTIONTIME=0.000000000000e+00
0.000000000000e+00 0.000000000000e+00 0.000000000000e+00 0.000000000000e+00 0.000000000000e+00 0.000000000000e+00 0.000000000000e+00 0.000000000000e+00 0.000000000000e+00 0.000000000000e+00 0.000000000000e+00 0.000000000000e+00 
0.000000000000e+00 3.000000000000e+00 0.000000000000e+00 0.000000000000e+00 0.000000000000e+00 0.000000000000e+00 0.000000000000e+00 0.000000000000e+00 0.000000000000e+00 0.000000000000e+00 0.000000000000e+00 0.000000000000e+00 
2.000000000008e+00 3.000000000000e+00 0.000000000000e+00 0.000000000000e+00 0.000000000000e+00 0.000000000000e+00 0.000000000000e+00 0.000000000000e+00 0.000000000000e+00 0.000000000000e+00 0.000000000000e+00 0.000000000000e+00 
1.000000000004e+00 3.000000000000e+00 0.000000000000e+00 0.000000000000e+00 0.000000000000e+00 0.000000000000e+00 0.000000000000e+00 0.000000000000e+00 0.000000000000e+00 0.000000000000e+00 0.000000000000e+00 0.000000000000e+00 
9.999999999976e-01 0.000000000000e+00 0.000000000000e+00 0.000000000000e+00 0.000000000000e+00 0.000000000000e+00 0.000000000000e+00 0.000000000000e+00 0.000000000000e+00 0.000000000000e+00 0.000000000000e+00 0.000000000000e+00 
1.999999999995e+00 0.000000000000e+00 0.000000000000e+00 0.000000000000e+00 0.000000000000e+00 0.000000000000e+00 0.000000000000e+00 0.000000000000e+00 0.000000000000e+00 0.000000000000e+00 0.000000000000e+00 0.000000000000e+00 
0.000000000000e+00 9.999999999960e-01 0.000000000000e+00 0.000000000000e+00 0.000000000000e+00 0.000000000000e+00 0.000000000000e+00 0.000000000000e+00 0.000000000000e+00 0.000000000000e+00 0.000000000000e+00 0.000000000000e+00 
0.000000000000e+00 1.999999999996e+00 0.000000000000e+00 0.000000000000e+00 0.000000000000e+00 0.000000000000e+00 0.000000000000e+00 0.000000000000e+00 0.000000000000e+00 0.000000000000e+00 0.000000000000e+00 0.000000000000e+00 
1.000000000002e+00 1.999999999996e+00 0.000000000000e+00 0.000000000000e+00 0.000000000000e+00 0.000000000000e+00 0.000000000000e+00 0.000000000000e+00 0.000000000000e+00 0.000000000000e+00 0.000000000000e+00 0.000000000000e+00 
2.000000000004e+00 1.999999999996e+00 0.000000000000e+00 0.000000000000e+00 0.000000000000e+00 0.000000000000e+00 0.000000000000e+00 0.000000000000e+00 0.000000000000e+00 0.000000000000e+00 0.000000000000e+00 0.000000000000e+00 
9.999999999998e-01 9.999999999960e-01 0.000000000000e+00 0.000000000000e+00 0.000000000000e+00 0.000000000000e+00 0.000000000000e+00 0.000000000000e+00 0.000000000000e+00 0.000000000000e+00 0.000000000000e+00 0.000000000000e+00 
1.999999999999e+00 9.999999999960e-01 0.000000000000e+00 0.000000000000e+00 0.000000000000e+00 0.000000000000e+00 0.000000000000e+00 0.000000000000e+00 0.000000000000e+00 0.000000000000e+00 0.000000000000e+00 0.000000000000e+00 
3.000000000000e+00 1.999999999996e+00 0.000000000000e+00 0.000000000000e+00 0.000000000000e+00 0.000000000000e+00 0.000000000000e+00 0.000000000000e+00 0.000000000000e+00 0.000000000000e+00 0.000000000000e+00 0.000000000000e+00 
3.000000000001e+00 3.000000000000e+00 0.000000000000e+00 0.000000000000e+00 0.000000000000e+00 0.000000000000e+00 0.000000000000e+00 0.000000000000e+00 0.000000000000e+00 0.000000000000e+00 0.000000000000e+00 0.000000000000e+00 
2.999999999997e+00 0.000000000000e+00 0.000000000000e+00 0.000000000000e+00 0.000000000000e+00 0.000000000000e+00 0.000000000000e+00 0.000000000000e+00 0.000000000000e+00 0.000000000000e+00 0.000000000000e+00 0.000000000000e+00 
2.999999999999e+00 9.999999999960e-01 0.000000000000e+00 0.000000000000e+00 0.000000000000e+00 0.000000000000e+00 0.000000000000e+00 0.000000000000e+00 0.000000000000e+00 0.000000000000e+00 0.000000000000e+00 0.000000000000e+00 
7  1  5  11  
2  8  9  4  
4  9  10  3  
11  5  6  12  
8  7  11  9  
9  11  12  10  
3  10  13  14  
12  6  15  16  
10  12  16  13  
VARIABLES  = "X","Y","Z", "DISPLACEMENT_X1", "DISPLACEMENT_Y1", "STRESS_XX", "STRESS_XY", "STRESS_YY", "STRESS_ZZ", "STRAIN_XX", "STRAIN_XY", "STRAIN_YY"
ZONE T="8.640000000000e+04s", N=16, E=9, F=FEPOINT, ET=QUADRILATERAL
STRANDID=1, SOLUTIONTIME=8.640000000000e+04
0.000000000000e+00 0.000000000000e+00 0.000000000000e+00 0.000000000000e+00 0.000000000000e+00 -2.410220493656e+04 -1.288270631008e+04 -4.277065053806e+04 -2.674914218985e+04 1.852856077302e-04 -1.803578883411e-03 -1.121505584375e-03 
0.000000000000e+00 3.000000000000e+00 0.000000000000e+00 -1.433103085853e-03 -2.885391261084e-03 -2.259195341267e+02 -1.258675360998e+01 -2.404312138861e+04 -9.707616369093e+03 6.637187784476e-04 -1.762145505397e-06 -1.003485351366e-03 
2.000000000008e+00 3.000000000000e+00 0.000000000000e+00 6.198786295980e-15 -2.672791049038e-03 2.525632506879e+03 -2.777948537869e-09 -2.361331801336e+04 -8.435074202591e+03 7.672494696629e-04 -3.889130601494e-16 -1.062477066754e-03 
1.000000000004e+00 3.000000000000e+00 0.000000000000e+00 -7.476557325293e-04 -2.746605234809e-03 1.279144726799e+03 2.869966267162e+02 -2.368960725984e+04 -8.964185013215e+03 7.170330818009e-04 4.017952774027e-05 -1.030779557263e-03 
9.999999999976e-01 0.000000000000e+00 0.000000000000e+00 0.000000000000e+00 0.000000000000e+00 -1.397787654992e+04 -4.348976869769e+03 -2.099616867741e+04 -1.398961809093e+04 8.219078708115e-07 -6.088567617677e-04 -4.904585410533e-04 
1.999999999995e+00 0.000000000000e+00 0.000000000000e+00 0.000000000000e+00 0.000000000000e+00 -1.398602900585e+04 -1.971086760477e-08 -2.129741836833e+04 -1.411337894967e+04 8.914496067748e-06 -2.759527463036e-15 -5.028827593063e-04 
0.000000000000e+00 9.999999999960e-01 0.000000000000e+00 -1.064795225563e-03 -1.036408882126e-03 2.149289872483e+03 1.476641443615e+03 -1.962999711107e+04 -6.992282895435e+03 6.399100937542e-04 2.067298021061e-04 -8.846399950945e-04 
0.000000000000e+00 1.999999999996e+00 0.000000000000e+00 -1.312885313946e-03 -1.912379827005e-03 1.595036577119e+02 5.294572807316e+02 -2.225026814489e+04 -8.836305794871e+03 6.297066616808e-04 7.412401930243e-05 -9.389773645012e-04 
1.000000000002e+00 1.999999999996e+00 0.000000000000e+00 -6.631468139207e-04 -1.728271791460e-03 -2.145927177191e+01 8.588859420845e+02 -2.410111182816e+04 -9.649028439973e+03 6.739298417741e-04 1.202440318918e-04 -1.011645837173e-03 
2.000000000004e+00 1.999999999996e+00 0.000000000000e+00 2.406299309685e-15 -1.639922652207e-03 -5.034096599522e+02 -2.188901504496e-09 -2.450158716663e+04 -1.000199873063e+04 6.649012349476e-04 -3.064450853718e-16 -1.014971190520e-03 
9.999999999998e-01 9.999999999960e-01 0.000000000000e+00 -4.777560072267e-04 -7.411094629909e-04 -2.994044309299e+03 -1.668141932881e+03 -2.511946173052e+04 -1.124540241593e+04 5.775950674640e-04 -2.335398706034e-04 -9.711841520214e-04 
1.999999999999e+00 9.999999999960e-01 0.000000000000e+00 -3.741330420867e-16 -6.898213658091e-04 -5.530384698645e+03 1.003224170404e-10 -2.435611327992e+04 -1.195459919143e+04 4.496950144946e-04 1.404518269402e-17 -8.681059861946e-04 
3.000000000000e+00 1.999999999996e+00 0.000000000000e+00 6.631468139219e-04 -1.728271791460e-03 -6.773273796445e+01 -7.818699357603e+02 -2.411256274971e+04 -9.672118195070e+03 6.723069819974e-04 -1.094617910064e-04 -1.010831118825e-03 
3.000000000001e+00 3.000000000000e+00 0.000000000000e+00 7.476557325331e-04 -2.746605234809e-03 1.519110867171e+03 -2.799925114272e+02 -2.358557027027e+04 -8.826583761240e+03 7.241986239888e-04 -3.919895159980e-05 -1.033129055632e-03 
2.999999999997e+00 0.000000000000e+00 0.000000000000e+00 0.000000000000e+00 0.000000000000e+00 -1.459840082424e+04 4.416718078307e+03 -2.269349810294e+04 -1.491675957087e+04 2.228511226440e-05 6.183405309630e-04 -5.443716972449e-04 
2.999999999999e+00 9.999999999960e-01 0.000000000000e+00 4.777560072258e-04 -7.411094629907e-04 -3.959861767270e+03 1.547268438693e+03 -2.502061689846e+04 -1.159219146629e+04 5.342630789317e-04 2.166175814171e-04 -9.399897802520e-04 
7  1  5  11  
2  8  9  4  
4  9  10  3  
11  5  6  12  
8  7  11  9  
9  11  12  10  
3  10  13  14  
12  6  15  16  
10  12  16  13  
