VARIABLES  = "X","Y","Z", "PRESSURE1", "SATURATION1"
ZONE T="0.000000000000e+00s", N=44, E=27, F=FEPOINT, ET=QUADRILATERAL
STRANDID=1, SOLUTIONTIME=0.000000000000e+00
0.000000000000e+00 0.000000000000e+00 0.000000000000e+00 -2.150000000000e+04 4.545259079631e-01 
0.000000000000e+00 0.000000000000e+00 4.000000000000e-02 -2.150000000000e+04 4.545259079631e-01 
2.000000000000e-02 0.000000000000e+00 4.000000000000e-02 -2.150000000000e+04 4.545259079631e-01 
2.000000000000e-02 0.000000000000e+00 0.000000000000e+00 -2.150000000000e+04 4.545259079631e-01 
0.000000000000e+00 0.000000000000e+00 8.000000000000e-02 -2.150000000000e+04 4.545259079631e-01 
2.000000000000e-02 0.000000000000e+00 8.000000000000e-02 -2.150000000000e+04 4.545259079631e-01 
0.000000000000e+00 0.000000000000e+00 1.200000000000e-01 -2.150000000000e+04 4.545259079631e-01 
2.000000000000e-02 0.000000000000e+00 1.200000000000e-01 -2.150000000000e+04 4.545259079631e-01 
0.000000000000e+00 0.000000000000e+00 1.600000000000e-01 -2.150000000000e+04 4.545259079631e-01 
2.000000000000e-02 0.000000000000e+00 1.600000000000e-01 -2.150000000000e+04 4.545259079631e-01 
0.000000000000e+00 0.000000000000e+00 2.000000000000e-01 -2.150000000000e+04 4.545259079631e-01 
2.000000000000e-02 0.000000000000e+00 2.000000000000e-01 -2.150000000000e+04 4.545259079631e-01 
0.000000000000e+00 0.000000000000e+00 2.400000000000e-01 -2.150000000000e+04 4.545259079631e-01 
2.000000000000e-02 0.000000000000e+00 2.400000000000e-01 -2.150000000000e+04 4.545259079631e-01 
0.000000000000e+00 0.000000000000e+00 2.800000000000e-01 -2.150000000000e+04 4.545259079631e-01 
2.000000000000e-02 0.000000000000e+00 2.800000000000e-01 -2.150000000000e+04 4.545259079631e-01 
0.000000000000e+00 0.000000000000e+00 3.200000000000e-01 -2.150000000000e+04 4.545259079631e-01 
2.000000000000e-02 0.000000000000e+00 3.200000000000e-01 -2.150000000000e+04 4.545259079631e-01 
0.000000000000e+00 0.000000000000e+00 3.600000000000e-01 -2.150000000000e+04 4.545259079631e-01 
2.000000000000e-02 0.000000000000e+00 3.600000000000e-01 -2.150000000000e+04 4.545259079631e-01 
0.000000000000e+00 0.000000000000e+00 4.000000000000e-01 -2.150000000000e+04 4.545259079631e-01 
2.000000000000e-02 0.000000000000e+00 4.000000000000e-01 -2.150000000000e+04 4.545259079631e-01 
0.000000000000e+00 0.000000000000e+00 4.400000000000e-01 -2.150000000000e+04 4.545259079631e-01 
2.000000000000e-02 0.000000000000e+00 4.400000000000e-01 -2.150000000000e+04 4.545259079631e-01 
0.000000000000e+00 0.000000000000e+00 4.800000000000e-01 -2.150000000000e+04 4.545259079631e-01 
2.000000000000e-02 0.000000000000e+00 4.800000000000e-01 -2.150000000000e+04 4.545259079631e-01 
0.000000000000e+00 0.000000000000e+00 5.200000000000e-01 -2.150000000000e+04 4.545259079631e-01 
4.000000000000e-02 0.000000000000e+00 4.000000000000e-02 -2.150000000000e+04 4.545259079631e-01 
4.000000000000e-02 0.000000000000e+00 0.000000000000e+00 -2.150000000000e+04 4.545259079631e-01 
4.000000000000e-02 0.000000000000e+00 8.000000000000e-02 -2.150000000000e+04 4.545259079631e-01 
4.000000000000e-02 0.000000000000e+00 1.200000000000e-01 -2.150000000000e+04 4.545259079631e-01 
4.000000000000e-02 0.000000000000e+00 1.600000000000e-01 -2.150000000000e+04 4.545259079631e-01 
4.000000000000e-02 0.000000000000e+00 2.000000000000e-01 -2.150000000000e+04 4.545259079631e-01 
4.000000000000e-02 0.000000000000e+00 2.400000000000e-01 -2.150000000000e+04 4.545259079631e-01 
4.000000000000e-02 0.000000000000e+00 2.800000000000e-01 -2.150000000000e+04 4.545259079631e-01 
4.000000000000e-02 0.000000000000e+00 3.200000000000e-01 -2.150000000000e+04 4.545259079631e-01 
4.000000000000e-02 0.000000000000e+00 3.600000000000e-01 -2.150000000000e+04 4.545259079631e-01 
4.000000000000e-02 0.000000000000e+00 4.000000000000e-01 -2.150000000000e+04 4.545259079631e-01 
4.000000000000e-02 0.000000000000e+00 4.400000000000e-01 -2.150000000000e+04 4.545259079631e-01 
4.000000000000e-02 0.000000000000e+00 4.800000000000e-01 -2.150000000000e+04 4.545259079631e-01 
2.000000000000e-02 0.000000000000e+00 5.200000000000e-01 -2.150000000000e+04 4.545259079631e-01 
4.000000000000e-02 0.000000000000e+00 5.200000000000e-01 -2.150000000000e+04 4.545259079631e-01 
0.000000000000e+00 0.000000000000e+00 5.600000000000e-01 -2.150000000000e+04 4.545259079631e-01 
2.000000000000e-02 0.000000000000e+00 5.600000000000e-01 -2.150000000000e+04 4.545259079631e-01 
1  2  3  4  
2  5  6  3  
4  3  28  29  
3  6  30  28  
5  7  8  6  
6  8  31  30  
7  9  10  8  
8  10  32  31  
9  11  12  10  
10  12  33  32  
11  13  14  12  
12  14  34  33  
13  15  16  14  
14  16  35  34  
15  17  18  16  
16  18  36  35  
17  19  20  18  
18  20  37  36  
19  21  22  20  
20  22  38  37  
21  23  24  22  
22  24  39  38  
23  25  26  24  
24  26  40  39  
25  27  41  26  
26  41  42  40  
27  43  44  41  
VARIABLES  = "X","Y","Z", "PRESSURE1", "SATURATION1"
ZONE T="1.000000000000e-02s", N=44, E=27, F=FEPOINT, ET=QUADRILATERAL
STRANDID=1, SOLUTIONTIME=1.000000000000e-02
0.000000000000e+00 0.000000000000e+00 0.000000000000e+00 -2.150000000000e+04 4.545259079631e-01 
0.000000000000e+00 0.000000000000e+00 4.000000000000e-02 -2.149999999995e+04 4.545259079637e-01 
2.000000000000e-02 0.000000000000e+00 4.000000000000e-02 -2.149999999992e+04 4.545259079641e-01 
2.000000000000e-02 0.000000000000e+00 0.000000000000e+00 -2.150000000000e+04 4.545259079631e-01 
0.000000000000e+00 0.000000000000e+00 8.000000000000e-02 -2.149999999998e+04 4.545259079634e-01 
2.000000000000e-02 0.000000000000e+00 8.000000000000e-02 -2.150000000000e+04 4.545259079631e-01 
0.000000000000e+00 0.000000000000e+00 1.200000000000e-01 -2.150000000000e+04 4.545259079631e-01 
2.000000000000e-02 0.000000000000e+00 1.200000000000e-01 -2.150000000000e+04 4.545259079631e-01 
0.000000000000e+00 0.000000000000e+00 1.600000000000e-01 -2.150000000000e+04 4.545259079631e-01 
2.000000000000e-02 0.000000000000e+00 1.600000000000e-01 -2.150000000000e+04 4.545259079631e-01 
0.000000000000e+00 0.000000000000e+00 2.000000000000e-01 -2.150000000000e+04 4.545259079631e-01 
2.000000000000e-02 0.000000000000e+00 2.000000000000e-01 -2.150000000000e+04 4.545259079631e-01 
0.000000000000e+00 0.000000000000e+00 2.400000000000e-01 -2.150000000000e+04 4.545259079631e-01 
2.000000000000e-02 0.000000000000e+00 2.400000000000e-01 -2.150000000000e+04 4.545259079631e-01 
0.000000000000e+00 0.000000000000e+00 2.800000000000e-01 -2.150000000000e+04 4.545259079631e-01 
2.000000000000e-02 0.000000000000e+00 2.800000000000e-01 -2.150000000000e+04 4.545259079631e-01 
0.000000000000e+00 0.000000000000e+00 3.200000000000e-01 -2.150000000000e+04 4.545259079631e-01 
2.000000000000e-02 0.000000000000e+00 3.200000000000e-01 -2.150000000000e+04 4.545259079631e-01 
0.000000000000e+00 0.000000000000e+00 3.600000000000e-01 -2.150000000000e+04 4.545259079631e-01 
2.000000000000e-02 0.000000000000e+00 3.600000000000e-01 -2.150000000000e+04 4.545259079631e-01 
0.000000000000e+00 0.000000000000e+00 4.000000000000e-01 -2.150000000000e+04 4.545259079631e-01 
2.000000000000e-02 0.000000000000e+00 4.000000000000e-01 -2.150000000000e+04 4.545259079631e-01 
0.000000000000e+00 0.000000000000e+00 4.400000000000e-01 -2.150000000000e+04 4.545259079631e-01 
2.000000000000e-02 0.000000000000e+00 4.400000000000e-01 -2.150000000000e+04 4.545259079631e-01 
0.000000000000e+00 0.000000000000e+00 4.800000000000e-01 -2.150000000000e+04 4.545259079631e-01 
2.000000000000e-02 0.000000000000e+00 4.800000000000e-01 -2.149999999998e+04 4.545259079634e-01 
0.000000000000e+00 0.000000000000e+00 5.200000000000e-01 -2.149999999998e+04 4.545259079633e-01 
4.000000000000e-02 0.000000000000e+00 4.000000000000e-02 -2.149999999990e+04 4.545259079644e-01 
4.000000000000e-02 0.000000000000e+00 0.000000000000e+00 -2.150000000000e+04 4.545259079631e-01 
4.000000000000e-02 0.000000000000e+00 8.000000000000e-02 -2.149999999996e+04 4.545259079636e-01 
4.000000000000e-02 0.000000000000e+00 1.200000000000e-01 -2.150000000000e+04 4.545259079631e-01 
4.000000000000e-02 0.000000000000e+00 1.600000000000e-01 -2.150000000000e+04 4.545259079631e-01 
4.000000000000e-02 0.000000000000e+00 2.000000000000e-01 -2.150000000000e+04 4.545259079631e-01 
4.000000000000e-02 0.000000000000e+00 2.400000000000e-01 -2.150000000000e+04 4.545259079631e-01 
4.000000000000e-02 0.000000000000e+00 2.800000000000e-01 -2.150000000000e+04 4.545259079631e-01 
4.000000000000e-02 0.000000000000e+00 3.200000000000e-01 -2.150000000000e+04 4.545259079631e-01 
4.000000000000e-02 0.000000000000e+00 3.600000000000e-01 -2.150000000000e+04 4.545259079631e-01 
4.000000000000e-02 0.000000000000e+00 4.000000000000e-01 -2.150000000000e+04 4.545259079631e-01 
4.000000000000e-02 0.000000000000e+00 4.400000000000e-01 -2.150000000000e+04 4.545259079631e-01 
4.000000000000e-02 0.000000000000e+00 4.800000000000e-01 -2.150000000002e+04 4.545259079629e-01 
2.000000000000e-02 0.000000000000e+00 5.200000000000e-01 -2.149999999992e+04 4.545259079640e-01 
4.000000000000e-02 0.000000000000e+00 5.200000000000e-01 -2.149999999988e+04 4.545259079646e-01 
0.000000000000e+00 0.000000000000e+00 5.600000000000e-01 -2.149999999998e+04 4.545259079634e-01 
2.000000000000e-02 0.000000000000e+00 5.600000000000e-01 -2.150000000000e+04 4.545259079631e-01 
1  2  3  4  
2  5  6  3  
4  3  28  29  
3  6  30  28  
5  7  8  6  
6  8  31  30  
7  9  10  8  
8  10  32  31  
9  11  12  10  
10  12  33  32  
11  13  14  12  
12  14  34  33  
13  15  16  14  
14  16  35  34  
15  17  18  16  
16  18  36  35  
17  19  20  18  
18  20  37  36  
19  21  22  20  
20  22  38  37  
21  23  24  22  
22  24  39  38  
23  25  26  24  
24  26  40  39  
25  27  41  26  
26  41  42  40  
27  43  44  41  
VARIABLES  = "X","Y","Z", "PRESSURE1", "SATURATION1"
ZONE T="1.000000000000e-01s", N=44, E=27, F=FEPOINT, ET=QUADRILATERAL
STRANDID=1, SOLUTIONTIME=1.000000000000e-01
0.000000000000e+00 0.000000000000e+00 0.000000000000e+00 -2.149999999989e+04 4.545259079644e-01 
0.000000000000e+00 0.000000000000e+00 4.000000000000e-02 -2.150000000023e+04 4.545259079603e-01 
2.000000000000e-02 0.000000000000e+00 4.000000000000e-02 -2.149999999986e+04 4.545259079649e-01 
2.000000000000e-02 0.000000000000e+00 0.000000000000e+00 -2.149999999989e+04 4.545259079644e-01 
0.000000000000e+00 0.000000000000e+00 8.000000000000e-02 -2.149999999895e+04 4.545259079759e-01 
2.000000000000e-02 0.000000000000e+00 8.000000000000e-02 -2.149999999907e+04 4.545259079744e-01 
0.000000000000e+00 0.000000000000e+00 1.200000000000e-01 -2.149999999911e+04 4.545259079740e-01 
2.000000000000e-02 0.000000000000e+00 1.200000000000e-01 -2.149999999909e+04 4.545259079742e-01 
0.000000000000e+00 0.000000000000e+00 1.600000000000e-01 -2.149999999911e+04 4.545259079740e-01 
2.000000000000e-02 0.000000000000e+00 1.600000000000e-01 -2.149999999911e+04 4.545259079740e-01 
0.000000000000e+00 0.000000000000e+00 2.000000000000e-01 -2.149999999911e+04 4.545259079740e-01 
2.000000000000e-02 0.000000000000e+00 2.000000000000e-01 -2.149999999911e+04 4.545259079740e-01 
0.000000000000e+00 0.000000000000e+00 2.400000000000e-01 -2.149999999911e+04 4.545259079740e-01 
2.000000000000e-02 0.000000000000e+00 2.400000000000e-01 -2.149999999911e+04 4.545259079740e-01 
0.000000000000e+00 0.000000000000e+00 2.800000000000e-01 -2.149999999911e+04 4.545259079740e-01 
2.000000000000e-02 0.000000000000e+00 2.800000000000e-01 -2.149999999911e+04 4.545259079740e-01 
0.000000000000e+00 0.000000000000e+00 3.200000000000e-01 -2.149999999911e+04 4.545259079740e-01 
2.000000000000e-02 0.000000000000e+00 3.200000000000e-01 -2.149999999911e+04 4.545259079740e-01 
0.000000000000e+00 0.000000000000e+00 3.600000000000e-01 -2.149999999911e+04 4.545259079740e-01 
2.000000000000e-02 0.000000000000e+00 3.600000000000e-01 -2.149999999911e+04 4.545259079740e-01 
0.000000000000e+00 0.000000000000e+00 4.000000000000e-01 -2.149999999911e+04 4.545259079740e-01 
2.000000000000e-02 0.000000000000e+00 4.000000000000e-01 -2.149999999911e+04 4.545259079740e-01 
0.000000000000e+00 0.000000000000e+00 4.400000000000e-01 -2.149999999910e+04 4.545259079741e-01 
2.000000000000e-02 0.000000000000e+00 4.400000000000e-01 -2.149999999911e+04 4.545259079740e-01 
0.000000000000e+00 0.000000000000e+00 4.800000000000e-01 -2.149999999905e+04 4.545259079747e-01 
2.000000000000e-02 0.000000000000e+00 4.800000000000e-01 -2.149999999895e+04 4.545259079760e-01 
0.000000000000e+00 0.000000000000e+00 5.200000000000e-01 -2.149999999884e+04 4.545259079773e-01 
4.000000000000e-02 0.000000000000e+00 4.000000000000e-02 -2.149999999965e+04 4.545259079674e-01 
4.000000000000e-02 0.000000000000e+00 0.000000000000e+00 -2.149999999989e+04 4.545259079644e-01 
4.000000000000e-02 0.000000000000e+00 8.000000000000e-02 -2.149999999885e+04 4.545259079771e-01 
4.000000000000e-02 0.000000000000e+00 1.200000000000e-01 -2.149999999911e+04 4.545259079740e-01 
4.000000000000e-02 0.000000000000e+00 1.600000000000e-01 -2.149999999911e+04 4.545259079740e-01 
4.000000000000e-02 0.000000000000e+00 2.000000000000e-01 -2.149999999911e+04 4.545259079740e-01 
4.000000000000e-02 0.000000000000e+00 2.400000000000e-01 -2.149999999911e+04 4.545259079740e-01 
4.000000000000e-02 0.000000000000e+00 2.800000000000e-01 -2.149999999911e+04 4.545259079740e-01 
4.000000000000e-02 0.000000000000e+00 3.200000000000e-01 -2.149999999911e+04 4.545259079740e-01 
4.000000000000e-02 0.000000000000e+00 3.600000000000e-01 -2.149999999911e+04 4.545259079740e-01 
4.000000000000e-02 0.000000000000e+00 4.000000000000e-01 -2.149999999911e+04 4.545259079740e-01 
4.000000000000e-02 0.000000000000e+00 4.400000000000e-01 -2.149999999909e+04 4.545259079742e-01 
4.000000000000e-02 0.000000000000e+00 4.800000000000e-01 -2.149999999919e+04 4.545259079730e-01 
2.000000000000e-02 0.000000000000e+00 5.200000000000e-01 -2.149999999842e+04 4.545259079824e-01 
4.000000000000e-02 0.000000000000e+00 5.200000000000e-01 -2.149999999803e+04 4.545259079872e-01 
0.000000000000e+00 0.000000000000e+00 5.600000000000e-01 -2.149999999890e+04 4.545259079766e-01 
2.000000000000e-02 0.000000000000e+00 5.600000000000e-01 -2.149999999902e+04 4.545259079750e-01 
1  2  3  4  
2  5  6  3  
4  3  28  29  
3  6  30  28  
5  7  8  6  
6  8  31  30  
7  9  10  8  
8  10  32  31  
9  11  12  10  
10  12  33  32  
11  13  14  12  
12  14  34  33  
13  15  16  14  
14  16  35  34  
15  17  18  16  
16  18  36  35  
17  19  20  18  
18  20  37  36  
19  21  22  20  
20  22  38  37  
21  23  24  22  
22  24  39  38  
23  25  26  24  
24  26  40  39  
25  27  41  26  
26  41  42  40  
27  43  44  41  
VARIABLES  = "X","Y","Z", "PRESSURE1", "SATURATION1"
ZONE T="1.000000000000e+00s", N=44, E=27, F=FEPOINT, ET=QUADRILATERAL
STRANDID=1, SOLUTIONTIME=1.000000000000e+00
0.000000000000e+00 0.000000000000e+00 0.000000000000e+00 -2.149999999466e+04 4.545259080283e-01 
0.000000000000e+00 0.000000000000e+00 4.000000000000e-02 -2.150000007195e+04 4.545259070851e-01 
2.000000000000e-02 0.000000000000e+00 4.000000000000e-02 -2.150000006737e+04 4.545259071410e-01 
2.000000000000e-02 0.000000000000e+00 0.000000000000e+00 -2.149999999466e+04 4.545259080283e-01 
0.000000000000e+00 0.000000000000e+00 8.000000000000e-02 -2.149999987729e+04 4.545259094605e-01 
2.000000000000e-02 0.000000000000e+00 8.000000000000e-02 -2.149999987865e+04 4.545259094439e-01 
0.000000000000e+00 0.000000000000e+00 1.200000000000e-01 -2.149999987225e+04 4.545259095220e-01 
2.000000000000e-02 0.000000000000e+00 1.200000000000e-01 -2.149999987202e+04 4.545259095248e-01 
0.000000000000e+00 0.000000000000e+00 1.600000000000e-01 -2.149999987221e+04 4.545259095225e-01 
2.000000000000e-02 0.000000000000e+00 1.600000000000e-01 -2.149999987221e+04 4.545259095225e-01 
0.000000000000e+00 0.000000000000e+00 2.000000000000e-01 -2.149999987221e+04 4.545259095225e-01 
2.000000000000e-02 0.000000000000e+00 2.000000000000e-01 -2.149999987221e+04 4.545259095225e-01 
0.000000000000e+00 0.000000000000e+00 2.400000000000e-01 -2.149999987221e+04 4.545259095225e-01 
2.000000000000e-02 0.000000000000e+00 2.400000000000e-01 -2.149999987221e+04 4.545259095225e-01 
0.000000000000e+00 0.000000000000e+00 2.800000000000e-01 -2.149999987221e+04 4.545259095225e-01 
2.000000000000e-02 0.000000000000e+00 2.800000000000e-01 -2.149999987221e+04 4.545259095225e-01 
0.000000000000e+00 0.000000000000e+00 3.200000000000e-01 -2.149999987221e+04 4.545259095225e-01 
2.000000000000e-02 0.000000000000e+00 3.200000000000e-01 -2.149999987221e+04 4.545259095225e-01 
0.000000000000e+00 0.000000000000e+00 3.600000000000e-01 -2.149999987221e+04 4.545259095225e-01 
2.000000000000e-02 0.000000000000e+00 3.600000000000e-01 -2.149999987221e+04 4.545259095225e-01 
0.000000000000e+00 0.000000000000e+00 4.000000000000e-01 -2.149999987221e+04 4.545259095225e-01 
2.000000000000e-02 0.000000000000e+00 4.000000000000e-01 -2.149999987221e+04 4.545259095225e-01 
0.000000000000e+00 0.000000000000e+00 4.400000000000e-01 -2.149999987209e+04 4.545259095240e-01 
2.000000000000e-02 0.000000000000e+00 4.400000000000e-01 -2.149999987231e+04 4.545259095212e-01 
0.000000000000e+00 0.000000000000e+00 4.800000000000e-01 -2.149999987142e+04 4.545259095321e-01 
2.000000000000e-02 0.000000000000e+00 4.800000000000e-01 -2.149999987034e+04 4.545259095453e-01 
0.000000000000e+00 0.000000000000e+00 5.200000000000e-01 -2.149999986868e+04 4.545259095656e-01 
4.000000000000e-02 0.000000000000e+00 4.000000000000e-02 -2.150000006491e+04 4.545259071710e-01 
4.000000000000e-02 0.000000000000e+00 0.000000000000e+00 -2.149999999466e+04 4.545259080283e-01 
4.000000000000e-02 0.000000000000e+00 8.000000000000e-02 -2.149999987620e+04 4.545259094738e-01 
4.000000000000e-02 0.000000000000e+00 1.200000000000e-01 -2.149999987229e+04 4.545259095215e-01 
4.000000000000e-02 0.000000000000e+00 1.600000000000e-01 -2.149999987221e+04 4.545259095225e-01 
4.000000000000e-02 0.000000000000e+00 2.000000000000e-01 -2.149999987221e+04 4.545259095225e-01 
4.000000000000e-02 0.000000000000e+00 2.400000000000e-01 -2.149999987221e+04 4.545259095225e-01 
4.000000000000e-02 0.000000000000e+00 2.800000000000e-01 -2.149999987221e+04 4.545259095225e-01 
4.000000000000e-02 0.000000000000e+00 3.200000000000e-01 -2.149999987221e+04 4.545259095225e-01 
4.000000000000e-02 0.000000000000e+00 3.600000000000e-01 -2.149999987221e+04 4.545259095225e-01 
4.000000000000e-02 0.000000000000e+00 4.000000000000e-01 -2.149999987221e+04 4.545259095225e-01 
4.000000000000e-02 0.000000000000e+00 4.400000000000e-01 -2.149999987205e+04 4.545259095245e-01 
4.000000000000e-02 0.000000000000e+00 4.800000000000e-01 -2.149999987307e+04 4.545259095120e-01 
2.000000000000e-02 0.000000000000e+00 5.200000000000e-01 -2.149999986387e+04 4.545259096242e-01 
4.000000000000e-02 0.000000000000e+00 5.200000000000e-01 -2.149999985910e+04 4.545259096824e-01 
0.000000000000e+00 0.000000000000e+00 5.600000000000e-01 -2.149999986965e+04 4.545259095538e-01 
2.000000000000e-02 0.000000000000e+00 5.600000000000e-01 -2.149999987101e+04 4.545259095371e-01 
1  2  3  4  
2  5  6  3  
4  3  28  29  
3  6  30  28  
5  7  8  6  
6  8  31  30  
7  9  10  8  
8  10  32  31  
9  11  12  10  
10  12  33  32  
11  13  14  12  
12  14  34  33  
13  15  16  14  
14  16  35  34  
15  17  18  16  
16  18  36  35  
17  19  20  18  
18  20  37  36  
19  21  22  20  
20  22  38  37  
21  23  24  22  
22  24  39  38  
23  25  26  24  
24  26  40  39  
25  27  41  26  
26  41  42  40  
27  43  44  41  
VARIABLES  = "X","Y","Z", "PRESSURE1", "SATURATION1"
ZONE T="1.800000000000e+02s", N=44, E=27, F=FEPOINT, ET=QUADRILATERAL
STRANDID=1, SOLUTIONTIME=1.800000000000e+02
0.000000000000e+00 0.000000000000e+00 0.000000000000e+00 -2.149999999901e+04 4.545259079752e-01 
0.000000000000e+00 0.000000000000e+00 4.000000000000e-02 -2.150036347465e+04 4.545214726039e-01 
2.000000000000e-02 0.000000000000e+00 4.000000000000e-02 -2.150036220209e+04 4.545214881326e-01 
2.000000000000e-02 0.000000000000e+00 0.000000000000e+00 -2.149999999901e+04 4.545259079752e-01 
0.000000000000e+00 0.000000000000e+00 8.000000000000e-02 -2.149977043221e+04 4.545287093018e-01 
2.000000000000e-02 0.000000000000e+00 8.000000000000e-02 -2.149977085726e+04 4.545287041150e-01 
0.000000000000e+00 0.000000000000e+00 1.200000000000e-01 -2.149976250326e+04 4.545288060561e-01 
2.000000000000e-02 0.000000000000e+00 1.200000000000e-01 -2.149976247665e+04 4.545288063808e-01 
0.000000000000e+00 0.000000000000e+00 1.600000000000e-01 -2.149976250958e+04 4.545288059790e-01 
2.000000000000e-02 0.000000000000e+00 1.600000000000e-01 -2.149976251009e+04 4.545288059728e-01 
0.000000000000e+00 0.000000000000e+00 2.000000000000e-01 -2.149976251041e+04 4.545288059689e-01 
2.000000000000e-02 0.000000000000e+00 2.000000000000e-01 -2.149976251041e+04 4.545288059689e-01 
0.000000000000e+00 0.000000000000e+00 2.400000000000e-01 -2.149976251041e+04 4.545288059689e-01 
2.000000000000e-02 0.000000000000e+00 2.400000000000e-01 -2.149976251041e+04 4.545288059689e-01 
0.000000000000e+00 0.000000000000e+00 2.800000000000e-01 -2.149976251041e+04 4.545288059689e-01 
2.000000000000e-02 0.000000000000e+00 2.800000000000e-01 -2.149976251041e+04 4.545288059689e-01 
0.000000000000e+00 0.000000000000e+00 3.200000000000e-01 -2.149976251041e+04 4.545288059689e-01 
2.000000000000e-02 0.000000000000e+00 3.200000000000e-01 -2.149976251041e+04 4.545288059689e-01 
0.000000000000e+00 0.000000000000e+00 3.600000000000e-01 -2.149976251041e+04 4.545288059689e-01 
2.000000000000e-02 0.000000000000e+00 3.600000000000e-01 -2.149976251041e+04 4.545288059689e-01 
0.000000000000e+00 0.000000000000e+00 4.000000000000e-01 -2.149976251065e+04 4.545288059660e-01 
2.000000000000e-02 0.000000000000e+00 4.000000000000e-01 -2.149976251015e+04 4.545288059721e-01 
0.000000000000e+00 0.000000000000e+00 4.400000000000e-01 -2.149976249672e+04 4.545288061359e-01 
2.000000000000e-02 0.000000000000e+00 4.400000000000e-01 -2.149976252294e+04 4.545288058160e-01 
0.000000000000e+00 0.000000000000e+00 4.800000000000e-01 -2.149976241799e+04 4.545288070966e-01 
2.000000000000e-02 0.000000000000e+00 4.800000000000e-01 -2.149976203697e+04 4.545288117461e-01 
0.000000000000e+00 0.000000000000e+00 5.200000000000e-01 -2.149976177683e+04 4.545288149206e-01 
4.000000000000e-02 0.000000000000e+00 4.000000000000e-02 -2.150036149480e+04 4.545214967634e-01 
4.000000000000e-02 0.000000000000e+00 0.000000000000e+00 -2.149999999901e+04 4.545259079752e-01 
4.000000000000e-02 0.000000000000e+00 8.000000000000e-02 -2.149977010350e+04 4.545287133130e-01 
4.000000000000e-02 0.000000000000e+00 1.200000000000e-01 -2.149976250909e+04 4.545288059850e-01 
4.000000000000e-02 0.000000000000e+00 1.600000000000e-01 -2.149976250953e+04 4.545288059796e-01 
4.000000000000e-02 0.000000000000e+00 2.000000000000e-01 -2.149976251041e+04 4.545288059689e-01 
4.000000000000e-02 0.000000000000e+00 2.400000000000e-01 -2.149976251041e+04 4.545288059689e-01 
4.000000000000e-02 0.000000000000e+00 2.800000000000e-01 -2.149976251041e+04 4.545288059689e-01 
4.000000000000e-02 0.000000000000e+00 3.200000000000e-01 -2.149976251041e+04 4.545288059689e-01 
4.000000000000e-02 0.000000000000e+00 3.600000000000e-01 -2.149976251040e+04 4.545288059690e-01 
4.000000000000e-02 0.000000000000e+00 4.000000000000e-01 -2.149976251070e+04 4.545288059653e-01 
4.000000000000e-02 0.000000000000e+00 4.400000000000e-01 -2.149976249029e+04 4.545288062144e-01 
4.000000000000e-02 0.000000000000e+00 4.800000000000e-01 -2.149976282806e+04 4.545288020927e-01 
2.000000000000e-02 0.000000000000e+00 5.200000000000e-01 -2.149976049028e+04 4.545288306199e-01 
4.000000000000e-02 0.000000000000e+00 5.200000000000e-01 -2.149975920373e+04 4.545288463192e-01 
0.000000000000e+00 0.000000000000e+00 5.600000000000e-01 -2.149976189819e+04 4.545288134396e-01 
2.000000000000e-02 0.000000000000e+00 5.600000000000e-01 -2.149976232207e+04 4.545288082671e-01 
1  2  3  4  
2  5  6  3  
4  3  28  29  
3  6  30  28  
5  7  8  6  
6  8  31  30  
7  9  10  8  
8  10  32  31  
9  11  12  10  
10  12  33  32  
11  13  14  12  
12  14  34  33  
13  15  16  14  
14  16  35  34  
15  17  18  16  
16  18  36  35  
17  19  20  18  
18  20  37  36  
19  21  22  20  
20  22  38  37  
21  23  24  22  
22  24  39  38  
23  25  26  24  
24  26  40  39  
25  27  41  26  
26  41  42  40  
27  43  44  41  
VARIABLES  = "X","Y","Z", "PRESSURE1", "SATURATION1"
ZONE T="1.800000000000e+03s", N=44, E=27, F=FEPOINT, ET=QUADRILATERAL
STRANDID=1, SOLUTIONTIME=1.800000000000e+03
0.000000000000e+00 0.000000000000e+00 0.000000000000e+00 -2.149999999824e+04 4.545259079845e-01 
0.000000000000e+00 0.000000000000e+00 4.000000000000e-02 -2.150766659366e+04 4.544323550932e-01 
2.000000000000e-02 0.000000000000e+00 4.000000000000e-02 -2.150766083489e+04 4.544324253656e-01 
2.000000000000e-02 0.000000000000e+00 0.000000000000e+00 -2.149999999824e+04 4.545259079845e-01 
0.000000000000e+00 0.000000000000e+00 8.000000000000e-02 -2.149779103863e+04 4.545528631775e-01 
2.000000000000e-02 0.000000000000e+00 8.000000000000e-02 -2.149779274039e+04 4.545528424114e-01 
0.000000000000e+00 0.000000000000e+00 1.200000000000e-01 -2.149702722349e+04 4.545621837573e-01 
2.000000000000e-02 0.000000000000e+00 1.200000000000e-01 -2.149702683034e+04 4.545621885548e-01 
0.000000000000e+00 0.000000000000e+00 1.600000000000e-01 -2.149701598435e+04 4.545623209048e-01 
2.000000000000e-02 0.000000000000e+00 1.600000000000e-01 -2.149701602291e+04 4.545623204342e-01 
0.000000000000e+00 0.000000000000e+00 2.000000000000e-01 -2.149701633152e+04 4.545623166684e-01 
2.000000000000e-02 0.000000000000e+00 2.000000000000e-01 -2.149701632894e+04 4.545623166999e-01 
0.000000000000e+00 0.000000000000e+00 2.400000000000e-01 -2.149701634248e+04 4.545623165346e-01 
2.000000000000e-02 0.000000000000e+00 2.400000000000e-01 -2.149701634263e+04 4.545623165329e-01 
0.000000000000e+00 0.000000000000e+00 2.800000000000e-01 -2.149701634256e+04 4.545623165337e-01 
2.000000000000e-02 0.000000000000e+00 2.800000000000e-01 -2.149701634257e+04 4.545623165336e-01 
0.000000000000e+00 0.000000000000e+00 3.200000000000e-01 -2.149701634262e+04 4.545623165329e-01 
2.000000000000e-02 0.000000000000e+00 3.200000000000e-01 -2.149701634249e+04 4.545623165345e-01 
0.000000000000e+00 0.000000000000e+00 3.600000000000e-01 -2.149701634141e+04 4.545623165477e-01 
2.000000000000e-02 0.000000000000e+00 3.600000000000e-01 -2.149701634389e+04 4.545623165175e-01 
0.000000000000e+00 0.000000000000e+00 4.000000000000e-01 -2.149701635964e+04 4.545623163252e-01 
2.000000000000e-02 0.000000000000e+00 4.000000000000e-01 -2.149701632316e+04 4.545623167704e-01 
0.000000000000e+00 0.000000000000e+00 4.400000000000e-01 -2.149701615275e+04 4.545623188499e-01 
2.000000000000e-02 0.000000000000e+00 4.400000000000e-01 -2.149701650343e+04 4.545623145707e-01 
0.000000000000e+00 0.000000000000e+00 4.800000000000e-01 -2.149701455690e+04 4.545623383235e-01 
2.000000000000e-02 0.000000000000e+00 4.800000000000e-01 -2.149701376973e+04 4.545623479291e-01 
0.000000000000e+00 0.000000000000e+00 5.200000000000e-01 -2.149700995995e+04 4.545623944185e-01 
4.000000000000e-02 0.000000000000e+00 4.000000000000e-02 -2.150765769879e+04 4.544324636343e-01 
4.000000000000e-02 0.000000000000e+00 0.000000000000e+00 -2.149999999824e+04 4.545259079845e-01 
4.000000000000e-02 0.000000000000e+00 8.000000000000e-02 -2.149779004680e+04 4.545528752805e-01 
4.000000000000e-02 0.000000000000e+00 1.200000000000e-01 -2.149702731715e+04 4.545621826145e-01 
4.000000000000e-02 0.000000000000e+00 1.600000000000e-01 -2.149701598044e+04 4.545623209526e-01 
4.000000000000e-02 0.000000000000e+00 2.000000000000e-01 -2.149701633165e+04 4.545623166668e-01 
4.000000000000e-02 0.000000000000e+00 2.400000000000e-01 -2.149701634248e+04 4.545623165347e-01 
4.000000000000e-02 0.000000000000e+00 2.800000000000e-01 -2.149701634256e+04 4.545623165337e-01 
4.000000000000e-02 0.000000000000e+00 3.200000000000e-01 -2.149701634263e+04 4.545623165329e-01 
4.000000000000e-02 0.000000000000e+00 3.600000000000e-01 -2.149701634124e+04 4.545623165498e-01 
4.000000000000e-02 0.000000000000e+00 4.000000000000e-01 -2.149701636514e+04 4.545623162582e-01 
4.000000000000e-02 0.000000000000e+00 4.400000000000e-01 -2.149701600416e+04 4.545623206630e-01 
4.000000000000e-02 0.000000000000e+00 4.800000000000e-01 -2.149701706305e+04 4.545623077418e-01 
2.000000000000e-02 0.000000000000e+00 5.200000000000e-01 -2.149700404437e+04 4.545624666043e-01 
4.000000000000e-02 0.000000000000e+00 5.200000000000e-01 -2.149699812440e+04 4.545625388438e-01 
0.000000000000e+00 0.000000000000e+00 5.600000000000e-01 -2.149701241579e+04 4.545623644507e-01 
2.000000000000e-02 0.000000000000e+00 5.600000000000e-01 -2.149701403665e+04 4.545623446720e-01 
1  2  3  4  
2  5  6  3  
4  3  28  29  
3  6  30  28  
5  7  8  6  
6  8  31  30  
7  9  10  8  
8  10  32  31  
9  11  12  10  
10  12  33  32  
11  13  14  12  
12  14  34  33  
13  15  16  14  
14  16  35  34  
15  17  18  16  
16  18  36  35  
17  19  20  18  
18  20  37  36  
19  21  22  20  
20  22  38  37  
21  23  24  22  
22  24  39  38  
23  25  26  24  
24  26  40  39  
25  27  41  26  
26  41  42  40  
27  43  44  41  
VARIABLES  = "X","Y","Z", "PRESSURE1", "SATURATION1"
ZONE T="3.600000000000e+03s", N=44, E=27, F=FEPOINT, ET=QUADRILATERAL
STRANDID=1, SOLUTIONTIME=3.600000000000e+03
0.000000000000e+00 0.000000000000e+00 0.000000000000e+00 -2.149999999884e+04 4.545259079773e-01 
0.000000000000e+00 0.000000000000e+00 4.000000000000e-02 -2.152571200944e+04 4.542121529397e-01 
2.000000000000e-02 0.000000000000e+00 4.000000000000e-02 -2.152570590799e+04 4.542122273936e-01 
2.000000000000e-02 0.000000000000e+00 0.000000000000e+00 -2.149999999884e+04 4.545259079773e-01 
0.000000000000e+00 0.000000000000e+00 8.000000000000e-02 -2.149711807245e+04 4.545610751580e-01 
2.000000000000e-02 0.000000000000e+00 8.000000000000e-02 -2.149711978722e+04 4.545610542332e-01 