VARIABLES  = "X","Y","Z", "PRESSURE1", "SATURATION1"
ZONE T="0.000000000000e+00s", N=48, E=30, F=FEPOINT, ET=QUADRILATERAL
STRANDID=1, SOLUTIONTIME=0.000000000000e+00
2.000000000000e-02 0.000000000000e+00 5.200000000000e-01 -2.150000000000e+04 4.545259079631e-01 
0.000000000000e+00 0.000000000000e+00 5.600000000000e-01 -2.150000000000e+04 4.545259079631e-01 
2.000000000000e-02 0.000000000000e+00 5.600000000000e-01 -2.150000000000e+04 4.545259079631e-01 
0.000000000000e+00 0.000000000000e+00 6.000000000000e-01 -2.150000000000e+04 4.545259079631e-01 
2.000000000000e-02 0.000000000000e+00 6.000000000000e-01 -2.150000000000e+04 4.545259079631e-01 
0.000000000000e+00 0.000000000000e+00 6.400000000000e-01 -2.150000000000e+04 4.545259079631e-01 
2.000000000000e-02 0.000000000000e+00 6.400000000000e-01 -2.150000000000e+04 4.545259079631e-01 
0.000000000000e+00 0.000000000000e+00 6.800000000000e-01 -2.150000000000e+04 4.545259079631e-01 
2.000000000000e-02 0.000000000000e+00 6.800000000000e-01 -2.150000000000e+04 4.545259079631e-01 
0.000000000000e+00 0.000000000000e+00 7.200000000000e-01 -2.150000000000e+04 4.545259079631e-01 
2.000000000000e-02 0.000000000000e+00 7.200000000000e-01 -2.150000000000e+04 4.545259079631e-01 
0.000000000000e+00 0.000000000000e+00 7.600000000000e-01 -2.150000000000e+04 4.545259079631e-01 
2.000000000000e-02 0.000000000000e+00 7.600000000000e-01 -2.150000000000e+04 4.545259079631e-01 
0.000000000000e+00 0.000000000000e+00 8.000000000000e-01 -2.150000000000e+04 4.545259079631e-01 
2.000000000000e-02 0.000000000000e+00 8.000000000000e-01 -2.150000000000e+04 4.545259079631e-01 
0.000000000000e+00 0.000000000000e+00 8.400000000000e-01 -2.150000000000e+04 4.545259079631e-01 
2.000000000000e-02 0.000000000000e+00 8.400000000000e-01 -2.150000000000e+04 4.545259079631e-01 
0.000000000000e+00 0.000000000000e+00 8.800000000000e-01 -2.150000000000e+04 4.545259079631e-01 
2.000000000000e-02 0.000000000000e+00 8.800000000000e-01 -2.150000000000e+04 4.545259079631e-01 
0.000000000000e+00 0.000000000000e+00 9.200000000000e-01 -2.150000000000e+04 4.545259079631e-01 
2.000000000000e-02 0.000000000000e+00 9.200000000000e-01 -2.150000000000e+04 4.545259079631e-01 
0.000000000000e+00 0.000000000000e+00 9.600000000000e-01 -2.150000000000e+04 4.545259079631e-01 
2.000000000000e-02 0.000000000000e+00 9.600000000000e-01 -2.150000000000e+04 4.545259079631e-01 
2.000000000000e-02 0.000000000000e+00 1.000000000000e+00 -2.150000000000e+04 4.545259079631e-01 
0.000000000000e+00 0.000000000000e+00 1.040000000000e+00 -2.150000000000e+04 4.545259079631e-01 
2.000000000000e-02 0.000000000000e+00 1.040000000000e+00 -2.150000000000e+04 4.545259079631e-01 
4.000000000000e-02 0.000000000000e+00 5.200000000000e-01 -2.150000000000e+04 4.545259079631e-01 
4.000000000000e-02 0.000000000000e+00 5.600000000000e-01 -2.150000000000e+04 4.545259079631e-01 
4.000000000000e-02 0.000000000000e+00 6.000000000000e-01 -2.150000000000e+04 4.545259079631e-01 
4.000000000000e-02 0.000000000000e+00 6.400000000000e-01 -2.150000000000e+04 4.545259079631e-01 
4.000000000000e-02 0.000000000000e+00 6.800000000000e-01 -2.150000000000e+04 4.545259079631e-01 
4.000000000000e-02 0.000000000000e+00 7.200000000000e-01 -2.150000000000e+04 4.545259079631e-01 
4.000000000000e-02 0.000000000000e+00 7.600000000000e-01 -2.150000000000e+04 4.545259079631e-01 
4.000000000000e-02 0.000000000000e+00 8.000000000000e-01 -2.150000000000e+04 4.545259079631e-01 
4.000000000000e-02 0.000000000000e+00 8.400000000000e-01 -2.150000000000e+04 4.545259079631e-01 
4.000000000000e-02 0.000000000000e+00 8.800000000000e-01 -2.150000000000e+04 4.545259079631e-01 
4.000000000000e-02 0.000000000000e+00 9.200000000000e-01 -2.150000000000e+04 4.545259079631e-01 
4.000000000000e-02 0.000000000000e+00 1.000000000000e+00 -2.150000000000e+04 4.545259079631e-01 
4.000000000000e-02 0.000000000000e+00 1.040000000000e+00 -2.150000000000e+04 4.545259079631e-01 
0.000000000000e+00 0.000000000000e+00 4.800000000000e-01 -2.150000000000e+04 4.545259079631e-01 
0.000000000000e+00 0.000000000000e+00 5.200000000000e-01 -2.150000000000e+04 4.545259079631e-01 
2.000000000000e-02 0.000000000000e+00 4.800000000000e-01 -2.150000000000e+04 4.545259079631e-01 
4.000000000000e-02 0.000000000000e+00 4.800000000000e-01 -2.150000000000e+04 4.545259079631e-01 
4.000000000000e-02 0.000000000000e+00 9.600000000000e-01 -2.150000000000e+04 4.545259079631e-01 
0.000000000000e+00 0.000000000000e+00 1.000000000000e+00 -2.150000000000e+04 4.545259079631e-01 
0.000000000000e+00 0.000000000000e+00 1.080000000000e+00 -2.150000000000e+04 4.545259079631e-01 
2.000000000000e-02 0.000000000000e+00 1.080000000000e+00 -2.150000000000e+04 4.545259079631e-01 
4.000000000000e-02 0.000000000000e+00 1.080000000000e+00 -2.150000000000e+04 4.545259079631e-01 
1  3  28  27  
2  4  5  3  
3  5  29  28  
4  6  7  5  
5  7  30  29  
6  8  9  7  
7  9  31  30  
8  10  11  9  
9  11  32  31  
10  12  13  11  
11  13  33  32  
12  14  15  13  
13  15  34  33  
14  16  17  15  
15  17  35  34  
16  18  19  17  
17  19  36  35  
18  20  21  19  
19  21  37  36  
20  22  23  21  
24  26  39  38  
40  41  1  42  
41  2  3  1  
42  1  27  43  
21  23  44  37  
22  45  24  23  
23  24  38  44  
45  25  26  24  
25  46  47  26  
26  47  48  39  
VARIABLES  = "X","Y","Z", "PRESSURE1", "SATURATION1"
ZONE T="1.000000000000e-02s", N=48, E=30, F=FEPOINT, ET=QUADRILATERAL
STRANDID=1, SOLUTIONTIME=1.000000000000e-02
2.000000000000e-02 0.000000000000e+00 5.200000000000e-01 -2.149999999997e+04 4.545259079635e-01 
0.000000000000e+00 0.000000000000e+00 5.600000000000e-01 -2.149999999998e+04 4.545259079634e-01 
2.000000000000e-02 0.000000000000e+00 5.600000000000e-01 -2.150000000000e+04 4.545259079631e-01 
0.000000000000e+00 0.000000000000e+00 6.000000000000e-01 -2.149999999999e+04 4.545259079633e-01 
2.000000000000e-02 0.000000000000e+00 6.000000000000e-01 -2.149999999999e+04 4.545259079633e-01 
0.000000000000e+00 0.000000000000e+00 6.400000000000e-01 -2.149999999999e+04 4.545259079633e-01 
2.000000000000e-02 0.000000000000e+00 6.400000000000e-01 -2.149999999999e+04 4.545259079633e-01 
0.000000000000e+00 0.000000000000e+00 6.800000000000e-01 -2.149999999999e+04 4.545259079633e-01 
2.000000000000e-02 0.000000000000e+00 6.800000000000e-01 -2.149999999999e+04 4.545259079633e-01 
0.000000000000e+00 0.000000000000e+00 7.200000000000e-01 -2.149999999999e+04 4.545259079633e-01 
2.000000000000e-02 0.000000000000e+00 7.200000000000e-01 -2.149999999999e+04 4.545259079633e-01 
0.000000000000e+00 0.000000000000e+00 7.600000000000e-01 -2.149999999999e+04 4.545259079633e-01 
2.000000000000e-02 0.000000000000e+00 7.600000000000e-01 -2.149999999999e+04 4.545259079633e-01 
0.000000000000e+00 0.000000000000e+00 8.000000000000e-01 -2.149999999999e+04 4.545259079633e-01 
2.000000000000e-02 0.000000000000e+00 8.000000000000e-01 -2.149999999999e+04 4.545259079633e-01 
0.000000000000e+00 0.000000000000e+00 8.400000000000e-01 -2.149999999999e+04 4.545259079633e-01 
2.000000000000e-02 0.000000000000e+00 8.400000000000e-01 -2.149999999999e+04 4.545259079633e-01 
0.000000000000e+00 0.000000000000e+00 8.800000000000e-01 -2.149999999999e+04 4.545259079633e-01 
2.000000000000e-02 0.000000000000e+00 8.800000000000e-01 -2.149999999999e+04 4.545259079633e-01 
0.000000000000e+00 0.000000000000e+00 9.200000000000e-01 -2.149999999999e+04 4.545259079633e-01 
2.000000000000e-02 0.000000000000e+00 9.200000000000e-01 -2.149999999997e+04 4.545259079635e-01 
0.000000000000e+00 0.000000000000e+00 9.600000000000e-01 -2.150000000000e+04 4.545259079631e-01 
2.000000000000e-02 0.000000000000e+00 9.600000000000e-01 -2.149999999992e+04 4.545259079641e-01 
2.000000000000e-02 0.000000000000e+00 1.000000000000e+00 -2.149999999992e+04 4.545259079641e-01 
0.000000000000e+00 0.000000000000e+00 1.040000000000e+00 -2.150000000002e+04 4.545259079628e-01 
2.000000000000e-02 0.000000000000e+00 1.040000000000e+00 -2.149999999999e+04 4.545259079632e-01 
4.000000000000e-02 0.000000000000e+00 5.200000000000e-01 -2.150000000002e+04 4.545259079629e-01 
4.000000000000e-02 0.000000000000e+00 5.600000000000e-01 -2.149999999999e+04 4.545259079632e-01 
4.000000000000e-02 0.000000000000e+00 6.000000000000e-01 -2.149999999999e+04 4.545259079633e-01 
4.000000000000e-02 0.000000000000e+00 6.400000000000e-01 -2.149999999999e+04 4.545259079633e-01 
4.000000000000e-02 0.000000000000e+00 6.800000000000e-01 -2.149999999999e+04 4.545259079633e-01 
4.000000000000e-02 0.000000000000e+00 7.200000000000e-01 -2.149999999999e+04 4.545259079633e-01 
4.000000000000e-02 0.000000000000e+00 7.600000000000e-01 -2.149999999999e+04 4.545259079633e-01 
4.000000000000e-02 0.000000000000e+00 8.000000000000e-01 -2.149999999999e+04 4.545259079633e-01 
4.000000000000e-02 0.000000000000e+00 8.400000000000e-01 -2.149999999999e+04 4.545259079633e-01 
4.000000000000e-02 0.000000000000e+00 8.800000000000e-01 -2.149999999999e+04 4.545259079633e-01 
4.000000000000e-02 0.000000000000e+00 9.200000000000e-01 -2.150000000000e+04 4.545259079631e-01 
4.000000000000e-02 0.000000000000e+00 1.000000000000e+00 -2.150000000000e+04 4.545259079631e-01 
4.000000000000e-02 0.000000000000e+00 1.040000000000e+00 -2.150000000001e+04 4.545259079630e-01 
0.000000000000e+00 0.000000000000e+00 4.800000000000e-01 -2.149999999999e+04 4.545259079633e-01 
0.000000000000e+00 0.000000000000e+00 5.200000000000e-01 -2.150000000002e+04 4.545259079629e-01 
2.000000000000e-02 0.000000000000e+00 4.800000000000e-01 -2.149999999998e+04 4.545259079634e-01 
4.000000000000e-02 0.000000000000e+00 4.800000000000e-01 -2.150000000000e+04 4.545259079632e-01 
4.000000000000e-02 0.000000000000e+00 9.600000000000e-01 -2.150000000001e+04 4.545259079630e-01 
0.000000000000e+00 0.000000000000e+00 1.000000000000e+00 -2.150000000000e+04 4.545259079631e-01 
0.000000000000e+00 0.000000000000e+00 1.080000000000e+00 -2.149999999999e+04 4.545259079632e-01 
2.000000000000e-02 0.000000000000e+00 1.080000000000e+00 -2.150000000002e+04 4.545259079629e-01 
4.000000000000e-02 0.000000000000e+00 1.080000000000e+00 -2.150000000000e+04 4.545259079631e-01 
1  3  28  27  
2  4  5  3  
3  5  29  28  
4  6  7  5  
5  7  30  29  
6  8  9  7  
7  9  31  30  
8  10  11  9  
9  11  32  31  
10  12  13  11  
11  13  33  32  
12  14  15  13  
13  15  34  33  
14  16  17  15  
15  17  35  34  
16  18  19  17  
17  19  36  35  
18  20  21  19  
19  21  37  36  
20  22  23  21  
24  26  39  38  
40  41  1  42  
41  2  3  1  
42  1  27  43  
21  23  44  37  
22  45  24  23  
23  24  38  44  
45  25  26  24  
25  46  47  26  
26  47  48  39  
VARIABLES  = "X","Y","Z", "PRESSURE1", "SATURATION1"
ZONE T="1.000000000000e-01s", N=48, E=30, F=FEPOINT, ET=QUADRILATERAL
STRANDID=1, SOLUTIONTIME=1.000000000000e-01
2.000000000000e-02 0.000000000000e+00 5.200000000000e-01 -2.149999999726e+04 4.545259079966e-01 
0.000000000000e+00 0.000000000000e+00 5.600000000000e-01 -2.149999999826e+04 4.545259079843e-01 
2.000000000000e-02 0.000000000000e+00 5.600000000000e-01 -2.150000000023e+04 4.545259079603e-01 
0.000000000000e+00 0.000000000000e+00 6.000000000000e-01 -2.149999999895e+04 4.545259079759e-01 
2.000000000000e-02 0.000000000000e+00 6.000000000000e-01 -2.149999999895e+04 4.545259079759e-01 
0.000000000000e+00 0.000000000000e+00 6.400000000000e-01 -2.149999999895e+04 4.545259079759e-01 
2.000000000000e-02 0.000000000000e+00 6.400000000000e-01 -2.149999999895e+04 4.545259079759e-01 
0.000000000000e+00 0.000000000000e+00 6.800000000000e-01 -2.149999999895e+04 4.545259079759e-01 
2.000000000000e-02 0.000000000000e+00 6.800000000000e-01 -2.149999999895e+04 4.545259079759e-01 
0.000000000000e+00 0.000000000000e+00 7.200000000000e-01 -2.149999999895e+04 4.545259079759e-01 
2.000000000000e-02 0.000000000000e+00 7.200000000000e-01 -2.149999999895e+04 4.545259079759e-01 
0.000000000000e+00 0.000000000000e+00 7.600000000000e-01 -2.149999999895e+04 4.545259079759e-01 
2.000000000000e-02 0.000000000000e+00 7.600000000000e-01 -2.149999999895e+04 4.545259079759e-01 
0.000000000000e+00 0.000000000000e+00 8.000000000000e-01 -2.149999999895e+04 4.545259079759e-01 
2.000000000000e-02 0.000000000000e+00 8.000000000000e-01 -2.149999999895e+04 4.545259079759e-01 
0.000000000000e+00 0.000000000000e+00 8.400000000000e-01 -2.149999999895e+04 4.545259079759e-01 
2.000000000000e-02 0.000000000000e+00 8.400000000000e-01 -2.149999999895e+04 4.545259079759e-01 
0.000000000000e+00 0.000000000000e+00 8.800000000000e-01 -2.149999999895e+04 4.545259079759e-01 
2.000000000000e-02 0.000000000000e+00 8.800000000000e-01 -2.149999999895e+04 4.545259079759e-01 
0.000000000000e+00 0.000000000000e+00 9.200000000000e-01 -2.149999999895e+04 4.545259079759e-01 
2.000000000000e-02 0.000000000000e+00 9.200000000000e-01 -2.149999999744e+04 4.545259079943e-01 
0.000000000000e+00 0.000000000000e+00 9.600000000000e-01 -2.150000000016e+04 4.545259079611e-01 
2.000000000000e-02 0.000000000000e+00 9.600000000000e-01 -2.149999999321e+04 4.545259080460e-01 
2.000000000000e-02 0.000000000000e+00 1.000000000000e+00 -2.149999999321e+04 4.545259080460e-01 
0.000000000000e+00 0.000000000000e+00 1.040000000000e+00 -2.150000000192e+04 4.545259079396e-01 
2.000000000000e-02 0.000000000000e+00 1.040000000000e+00 -2.149999999920e+04 4.545259079728e-01 
4.000000000000e-02 0.000000000000e+00 5.200000000000e-01 -2.150000000155e+04 4.545259079443e-01 
4.000000000000e-02 0.000000000000e+00 5.600000000000e-01 -2.149999999944e+04 4.545259079700e-01 
4.000000000000e-02 0.000000000000e+00 6.000000000000e-01 -2.149999999895e+04 4.545259079759e-01 
4.000000000000e-02 0.000000000000e+00 6.400000000000e-01 -2.149999999895e+04 4.545259079759e-01 
4.000000000000e-02 0.000000000000e+00 6.800000000000e-01 -2.149999999895e+04 4.545259079759e-01 
4.000000000000e-02 0.000000000000e+00 7.200000000000e-01 -2.149999999895e+04 4.545259079759e-01 
4.000000000000e-02 0.000000000000e+00 7.600000000000e-01 -2.149999999895e+04 4.545259079759e-01 
4.000000000000e-02 0.000000000000e+00 8.000000000000e-01 -2.149999999895e+04 4.545259079759e-01 
4.000000000000e-02 0.000000000000e+00 8.400000000000e-01 -2.149999999895e+04 4.545259079759e-01 
4.000000000000e-02 0.000000000000e+00 8.800000000000e-01 -2.149999999895e+04 4.545259079759e-01 
4.000000000000e-02 0.000000000000e+00 9.200000000000e-01 -2.150000000016e+04 4.545259079611e-01 
4.000000000000e-02 0.000000000000e+00 1.000000000000e+00 -2.150000000016e+04 4.545259079611e-01 
4.000000000000e-02 0.000000000000e+00 1.040000000000e+00 -2.150000000072e+04 4.545259079544e-01 
0.000000000000e+00 0.000000000000e+00 4.800000000000e-01 -2.149999999895e+04 4.545259079759e-01 
0.000000000000e+00 0.000000000000e+00 5.200000000000e-01 -2.150000000159e+04 4.545259079437e-01 
2.000000000000e-02 0.000000000000e+00 4.800000000000e-01 -2.149999999797e+04 4.545259079879e-01 
4.000000000000e-02 0.000000000000e+00 4.800000000000e-01 -2.149999999974e+04 4.545259079663e-01 
4.000000000000e-02 0.000000000000e+00 9.600000000000e-01 -2.150000000082e+04 4.545259079531e-01 
0.000000000000e+00 0.000000000000e+00 1.000000000000e+00 -2.150000000019e+04 4.545259079608e-01 
0.000000000000e+00 0.000000000000e+00 1.080000000000e+00 -2.149999999956e+04 4.545259079685e-01 
2.000000000000e-02 0.000000000000e+00 1.080000000000e+00 -2.150000000142e+04 4.545259079458e-01 
4.000000000000e-02 0.000000000000e+00 1.080000000000e+00 -2.149999999984e+04 4.545259079651e-01 
1  3  28  27  
2  4  5  3  
3  5  29  28  
4  6  7  5  
5  7  30  29  
6  8  9  7  
7  9  31  30  
8  10  11  9  
9  11  32  31  
10  12  13  11  
11  13  33  32  
12  14  15  13  
13  15  34  33  
14  16  17  15  
15  17  35  34  
16  18  19  17  
17  19  36  35  
18  20  21  19  
19  21  37  36  
20  22  23  21  
24  26  39  38  
40  41  1  42  
41  2  3  1  
42  1  27  43  
21  23  44  37  
22  45  24  23  
23  24  38  44  
45  25  26  24  
25  46  47  26  
26  47  48  39  
VARIABLES  = "X","Y","Z", "PRESSURE1", "SATURATION1"
ZONE T="1.000000000000e+00s", N=48, E=30, F=FEPOINT, ET=QUADRILATERAL
STRANDID=1, SOLUTIONTIME=1.000000000000e+00
2.000000000000e-02 0.000000000000e+00 5.200000000000e-01 -2.149999972625e+04 4.545259113036e-01 
0.000000000000e+00 0.000000000000e+00 5.600000000000e-01 -2.149999982663e+04 4.545259100787e-01 
2.000000000000e-02 0.000000000000e+00 5.600000000000e-01 -2.150000002270e+04 4.545259076861e-01 
0.000000000000e+00 0.000000000000e+00 6.000000000000e-01 -2.149999989558e+04 4.545259092373e-01 
2.000000000000e-02 0.000000000000e+00 6.000000000000e-01 -2.149999989553e+04 4.545259092379e-01 
0.000000000000e+00 0.000000000000e+00 6.400000000000e-01 -2.149999989561e+04 4.545259092370e-01 
2.000000000000e-02 0.000000000000e+00 6.400000000000e-01 -2.149999989553e+04 4.545259092380e-01 
0.000000000000e+00 0.000000000000e+00 6.800000000000e-01 -2.149999989562e+04 4.545259092369e-01 
2.000000000000e-02 0.000000000000e+00 6.800000000000e-01 -2.149999989552e+04 4.545259092380e-01 
0.000000000000e+00 0.000000000000e+00 7.200000000000e-01 -2.149999989562e+04 4.545259092369e-01 
2.000000000000e-02 0.000000000000e+00 7.200000000000e-01 -2.149999989552e+04 4.545259092380e-01 
0.000000000000e+00 0.000000000000e+00 7.600000000000e-01 -2.149999989562e+04 4.545259092369e-01 
2.000000000000e-02 0.000000000000e+00 7.600000000000e-01 -2.149999989552e+04 4.545259092380e-01 
0.000000000000e+00 0.000000000000e+00 8.000000000000e-01 -2.149999989562e+04 4.545259092369e-01 
2.000000000000e-02 0.000000000000e+00 8.000000000000e-01 -2.149999989552e+04 4.545259092380e-01 
0.000000000000e+00 0.000000000000e+00 8.400000000000e-01 -2.149999989562e+04 4.545259092369e-01 
2.000000000000e-02 0.000000000000e+00 8.400000000000e-01 -2.149999989552e+04 4.545259092380e-01 
0.000000000000e+00 0.000000000000e+00 8.800000000000e-01 -2.149999989560e+04 4.545259092370e-01 
2.000000000000e-02 0.000000000000e+00 8.800000000000e-01 -2.149999989554e+04 4.545259092379e-01 
0.000000000000e+00 0.000000000000e+00 9.200000000000e-01 -2.149999989553e+04 4.545259092380e-01 
2.000000000000e-02 0.000000000000e+00 9.200000000000e-01 -2.149999974483e+04 4.545259110769e-01 
0.000000000000e+00 0.000000000000e+00 9.600000000000e-01 -2.150000001599e+04 4.545259077680e-01 
2.000000000000e-02 0.000000000000e+00 9.600000000000e-01 -2.149999932277e+04 4.545259162271e-01 
2.000000000000e-02 0.000000000000e+00 1.000000000000e+00 -2.149999932278e+04 4.545259162270e-01 
0.000000000000e+00 0.000000000000e+00 1.040000000000e+00 -2.150000019194e+04 4.545259056209e-01 
2.000000000000e-02 0.000000000000e+00 1.040000000000e+00 -2.149999992066e+04 4.545259089313e-01 
4.000000000000e-02 0.000000000000e+00 5.200000000000e-01 -2.150000015400e+04 4.545259060840e-01 
4.000000000000e-02 0.000000000000e+00 5.600000000000e-01 -2.149999994385e+04 4.545259086483e-01 
4.000000000000e-02 0.000000000000e+00 6.000000000000e-01 -2.149999989562e+04 4.545259092368e-01 
4.000000000000e-02 0.000000000000e+00 6.400000000000e-01 -2.149999989563e+04 4.545259092367e-01 
4.000000000000e-02 0.000000000000e+00 6.800000000000e-01 -2.149999989564e+04 4.545259092366e-01 
4.000000000000e-02 0.000000000000e+00 7.200000000000e-01 -2.149999989564e+04 4.545259092366e-01 
4.000000000000e-02 0.000000000000e+00 7.600000000000e-01 -2.149999989564e+04 4.545259092366e-01 
4.000000000000e-02 0.000000000000e+00 8.000000000000e-01 -2.149999989564e+04 4.545259092366e-01 
4.000000000000e-02 0.000000000000e+00 8.400000000000e-01 -2.149999989564e+04 4.545259092365e-01 
4.000000000000e-02 0.000000000000e+00 8.800000000000e-01 -2.149999989562e+04 4.545259092369e-01 
4.000000000000e-02 0.000000000000e+00 9.200000000000e-01 -2.150000001614e+04 4.545259077661e-01 
4.000000000000e-02 0.000000000000e+00 1.000000000000e+00 -2.150000001599e+04 4.545259077680e-01 
4.000000000000e-02 0.000000000000e+00 1.040000000000e+00 -2.150000007131e+04 4.545259070930e-01 
0.000000000000e+00 0.000000000000e+00 4.800000000000e-01 -2.149999989557e+04 4.545259092374e-01 
0.000000000000e+00 0.000000000000e+00 5.200000000000e-01 -2.150000015873e+04 4.545259060261e-01 
2.000000000000e-02 0.000000000000e+00 4.800000000000e-01 -2.149999979727e+04 4.545259104370e-01 
4.000000000000e-02 0.000000000000e+00 4.800000000000e-01 -2.149999997419e+04 4.545259082780e-01 
4.000000000000e-02 0.000000000000e+00 9.600000000000e-01 -2.150000008168e+04 4.545259069664e-01 
0.000000000000e+00 0.000000000000e+00 1.000000000000e+00 -2.150000001870e+04 4.545259077349e-01 
0.000000000000e+00 0.000000000000e+00 1.080000000000e+00 -2.149999995604e+04 4.545259084995e-01 
2.000000000000e-02 0.000000000000e+00 1.080000000000e+00 -2.150000014121e+04 4.545259062400e-01 
4.000000000000e-02 0.000000000000e+00 1.080000000000e+00 -2.149999998408e+04 4.545259081574e-01 
1  3  28  27  
2  4  5  3  
3  5  29  28  
4  6  7  5  
5  7  30  29  
6  8  9  7  
7  9  31  30  
8  10  11  9  
9  11  32  31  
10  12  13  11  
11  13  33  32  
12  14  15  13  
13  15  34  33  
14  16  17  15  
15  17  35  34  
16  18  19  17  
17  19  36  35  
18  20  21  19  
19  21  37  36  
20  22  23  21  
24  26  39  38  
40  41  1  42  
41  2  3  1  
42  1  27  43  
21  23  44  37  
22  45  24  23  
23  24  38  44  
45  25  26  24  
25  46  47  26  
26  47  48  39  
VARIABLES  = "X","Y","Z", "PRESSURE1", "SATURATION1"
ZONE T="1.800000000000e+02s", N=48, E=30, F=FEPOINT, ET=QUADRILATERAL
STRANDID=1, SOLUTIONTIME=1.800000000000e+02
2.000000000000e-02 0.000000000000e+00 5.200000000000e-01 -2.149999975014e+04 4.545259110121e-01 
0.000000000000e+00 0.000000000000e+00 5.600000000000e-01 -2.149999983465e+04 4.545259099808e-01 
2.000000000000e-02 0.000000000000e+00 5.600000000000e-01 -2.150000001759e+04 4.545259077484e-01 
0.000000000000e+00 0.000000000000e+00 6.000000000000e-01 -2.149999989849e+04 4.545259092019e-01 
2.000000000000e-02 0.000000000000e+00 6.000000000000e-01 -2.149999989492e+04 4.545259092454e-01 
0.000000000000e+00 0.000000000000e+00 6.400000000000e-01 -2.149999989593e+04 4.545259092331e-01 
2.000000000000e-02 0.000000000000e+00 6.400000000000e-01 -2.149999989591e+04 4.545259092332e-01 
0.000000000000e+00 0.000000000000e+00 6.800000000000e-01 -2.149999989595e+04 4.545259092327e-01 
2.000000000000e-02 0.000000000000e+00 6.800000000000e-01 -2.149999989589e+04 4.545259092336e-01 
0.000000000000e+00 0.000000000000e+00 7.200000000000e-01 -2.149999989595e+04 4.545259092328e-01 
2.000000000000e-02 0.000000000000e+00 7.200000000000e-01 -2.149999989589e+04 4.545259092335e-01 
0.000000000000e+00 0.000000000000e+00 7.600000000000e-01 -2.149999989595e+04 4.545259092328e-01 
2.000000000000e-02 0.000000000000e+00 7.600000000000e-01 -2.149999989589e+04 4.545259092335e-01 
0.000000000000e+00 0.000000000000e+00 8.000000000000e-01 -2.149999989595e+04 4.545259092328e-01 
2.000000000000e-02 0.000000000000e+00 8.000000000000e-01 -2.149999989589e+04 4.545259092335e-01 
0.000000000000e+00 0.000000000000e+00 8.400000000000e-01 -2.149999989598e+04 4.545259092324e-01 
2.000000000000e-02 0.000000000000e+00 8.400000000000e-01 -2.149999989586e+04 4.545259092339e-01 
0.000000000000e+00 0.000000000000e+00 8.800000000000e-01 -2.149999989362e+04 4.545259092613e-01 
2.000000000000e-02 0.000000000000e+00 8.800000000000e-01 -2.149999989761e+04 4.545259092125e-01 
0.000000000000e+00 0.000000000000e+00 9.200000000000e-01 -2.149999987905e+04 4.545259094390e-01 
2.000000000000e-02 0.000000000000e+00 9.200000000000e-01 -2.149999976307e+04 4.545259108543e-01 
0.000000000000e+00 0.000000000000e+00 9.600000000000e-01 -2.149999996979e+04 4.545259083317e-01 
2.000000000000e-02 0.000000000000e+00 9.600000000000e-01 -2.149999937348e+04 4.545259156083e-01 
2.000000000000e-02 0.000000000000e+00 1.000000000000e+00 -2.149999937481e+04 4.545259155922e-01 
0.000000000000e+00 0.000000000000e+00 1.040000000000e+00 -2.150000016596e+04 4.545259059380e-01 
2.000000000000e-02 0.000000000000e+00 1.040000000000e+00 -2.149999993239e+04 4.545259087882e-01 
4.000000000000e-02 0.000000000000e+00 5.200000000000e-01 -2.150000012809e+04 4.545259064001e-01 
4.000000000000e-02 0.000000000000e+00 5.600000000000e-01 -2.149999994256e+04 4.545259086640e-01 
4.000000000000e-02 0.000000000000e+00 6.000000000000e-01 -2.149999989772e+04 4.545259092112e-01 
4.000000000000e-02 0.000000000000e+00 6.400000000000e-01 -2.149999989595e+04 4.545259092328e-01 
4.000000000000e-02 0.000000000000e+00 6.800000000000e-01 -2.149999989597e+04 4.545259092325e-01 
4.000000000000e-02 0.000000000000e+00 7.200000000000e-01 -2.149999989597e+04 4.545259092325e-01 
4.000000000000e-02 0.000000000000e+00 7.600000000000e-01 -2.149999989597e+04 4.545259092325e-01 
4.000000000000e-02 0.000000000000e+00 8.000000000000e-01 -2.149999989597e+04 4.545259092326e-01 
4.000000000000e-02 0.000000000000e+00 8.400000000000e-01 -2.149999989600e+04 4.545259092321e-01 
4.000000000000e-02 0.000000000000e+00 8.800000000000e-01 -2.149999989285e+04 4.545259092706e-01 
4.000000000000e-02 0.000000000000e+00 9.200000000000e-01 -2.149999999146e+04 4.545259080674e-01 
4.000000000000e-02 0.000000000000e+00 1.000000000000e+00 -2.149999997133e+04 4.545259083129e-01 
4.000000000000e-02 0.000000000000e+00 1.040000000000e+00 -2.150000005301e+04 4.545259073163e-01 
0.000000000000e+00 0.000000000000e+00 4.800000000000e-01 -2.149999988721e+04 4.545259093395e-01 
0.000000000000e+00 0.000000000000e+00 5.200000000000e-01 -2.150000013199e+04 4.545259063525e-01 
2.000000000000e-02 0.000000000000e+00 4.800000000000e-01 -2.149999981184e+04 4.545259102591e-01 
4.000000000000e-02 0.000000000000e+00 4.800000000000e-01 -2.149999995998e+04 4.545259084515e-01 
4.000000000000e-02 0.000000000000e+00 9.600000000000e-01 -2.150000003083e+04 4.545259075869e-01 
0.000000000000e+00 0.000000000000e+00 1.000000000000e+00 -2.149999997431e+04 4.545259082766e-01 
0.000000000000e+00 0.000000000000e+00 1.080000000000e+00 -2.149999996154e+04 4.545259084324e-01 
2.000000000000e-02 0.000000000000e+00 1.080000000000e+00 -2.150000012942e+04 4.545259063839e-01 
4.000000000000e-02 0.000000000000e+00 1.080000000000e+00 -2.149999998809e+04 4.545259081084e-01 
1  3  28  27  
2  4  5  3  
3  5  29  28  
4  6  7  5  
5  7  30  29  
6  8  9  7  
7  9  31  30  
8  10  11  9  
9  11  32  31  
10  12  13  11  
11  13  33  32  
12  14  15  13  
13  15  34  33  
14  16  17  15  
15  17  35  34  
16  18  19  17  
17  19  36  35  
18  20  21  19  
19  21  37  36  
20  22  23  21  
24  26  39  38  
40  41  1  42  
41  2  3  1  
42  1  27  43  
21  23  44  37  
22  45  24  23  
23  24  38  44  
45  25  26  24  
25  46  47  26  
26  47  48  39  
VARIABLES  = "X","Y","Z", "PRESSURE1", "SATURATION1"
ZONE T="1.800000000000e+03s", N=48, E=30, F=FEPOINT, ET=QUADRILATERAL
STRANDID=1, SOLUTIONTIME=1.800000000000e+03
2.000000000000e-02 0.000000000000e+00 5.200000000000e-01 -2.150000709216e+04 4.545258214199e-01 
0.000000000000e+00 0.000000000000e+00 5.600000000000e-01 -2.150000074189e+04 4.545258989101e-01 
2.000000000000e-02 0.000000000000e+00 5.600000000000e-01 -2.149999680637e+04 4.545259469340e-01 
0.000000000000e+00 0.000000000000e+00 6.000000000000e-01 -2.150000010474e+04 4.545259066851e-01 
2.000000000000e-02 0.000000000000e+00 6.000000000000e-01 -2.150000031070e+04 4.545259041718e-01 
0.000000000000e+00 0.000000000000e+00 6.400000000000e-01 -2.150000008371e+04 4.545259069416e-01 
2.000000000000e-02 0.000000000000e+00 6.400000000000e-01 -2.150000031962e+04 4.545259040629e-01 
0.000000000000e+00 0.000000000000e+00 6.800000000000e-01 -2.150000005685e+04 4.545259072694e-01 
2.000000000000e-02 0.000000000000e+00 6.800000000000e-01 -2.150000032487e+04 4.545259039989e-01 
0.000000000000e+00 0.000000000000e+00 7.200000000000e-01 -2.150000005768e+04 4.545259072592e-01 
2.000000000000e-02 0.000000000000e+00 7.200000000000e-01 -2.150000032355e+04 4.545259040149e-01 
0.000000000000e+00 0.000000000000e+00 7.600000000000e-01 -2.150000005765e+04 4.545259072596e-01 
2.000000000000e-02 0.000000000000e+00 7.600000000000e-01 -2.150000032360e+04 4.545259040144e-01 
0.000000000000e+00 0.000000000000e+00 8.000000000000e-01 -2.150000005783e+04 4.545259072574e-01 
2.000000000000e-02 0.000000000000e+00 8.000000000000e-01 -2.150000032310e+04 4.545259040204e-01 
0.000000000000e+00 0.000000000000e+00 8.400000000000e-01 -2.150000005201e+04 4.545259073284e-01 
2.000000000000e-02 0.000000000000e+00 8.400000000000e-01 -2.150000033137e+04 4.545259039195e-01 
0.000000000000e+00 0.000000000000e+00 8.800000000000e-01 -2.150000025553e+04 4.545259048449e-01 
2.000000000000e-02 0.000000000000e+00 8.800000000000e-01 -2.150000020279e+04 4.545259054886e-01 
0.000000000000e+00 0.000000000000e+00 9.200000000000e-01 -2.150000159010e+04 4.545258885596e-01 
2.000000000000e-02 0.000000000000e+00 9.200000000000e-01 -2.150000517771e+04 4.545258447812e-01 
0.000000000000e+00 0.000000000000e+00 9.600000000000e-01 -2.149999946985e+04 4.545259144323e-01 
2.000000000000e-02 0.000000000000e+00 9.600000000000e-01 -2.150001995852e+04 4.545256644159e-01 
2.000000000000e-02 0.000000000000e+00 1.000000000000e+00 -2.150001952974e+04 4.545256696483e-01 
0.000000000000e+00 0.000000000000e+00 1.040000000000e+00 -2.149999182188e+04 4.545260077580e-01 
2.000000000000e-02 0.000000000000e+00 1.040000000000e+00 -2.149999808050e+04 4.545259313862e-01 
4.000000000000e-02 0.000000000000e+00 5.200000000000e-01 -2.149998753915e+04 4.545260600187e-01 
4.000000000000e-02 0.000000000000e+00 5.600000000000e-01 -2.149999734621e+04 4.545259403464e-01 
4.000000000000e-02 0.000000000000e+00 6.000000000000e-01 -2.149999999560e+04 4.545259080168e-01 
4.000000000000e-02 0.000000000000e+00 6.400000000000e-01 -2.150000000588e+04 4.545259078913e-01 
4.000000000000e-02 0.000000000000e+00 6.800000000000e-01 -2.149999997737e+04 4.545259082392e-01 
4.000000000000e-02 0.000000000000e+00 7.200000000000e-01 -2.149999997816e+04 4.545259082296e-01 
4.000000000000e-02 0.000000000000e+00 7.600000000000e-01 -2.149999997814e+04 4.545259082298e-01 
4.000000000000e-02 0.000000000000e+00 8.000000000000e-01 -2.149999997865e+04 4.545259082236e-01 