VARIABLES  = "X","Y","Z", "PRESSURE1", "SATURATION1"
ZONE T="0.000000000000e+00s", N=42, E=26, F=FEPOINT, ET=QUADRILATERAL
STRANDID=1, SOLUTIONTIME=0.000000000000e+00
0.000000000000e+00 0.000000000000e+00 1.520000000000e+00 -2.150000000000e+04 4.545259079631e-01 
2.000000000000e-02 0.000000000000e+00 1.520000000000e+00 -2.150000000000e+04 4.545259079631e-01 
0.000000000000e+00 0.000000000000e+00 1.560000000000e+00 -2.150000000000e+04 4.545259079631e-01 
2.000000000000e-02 0.000000000000e+00 1.560000000000e+00 -2.150000000000e+04 4.545259079631e-01 
0.000000000000e+00 0.000000000000e+00 1.600000000000e+00 -2.150000000000e+04 4.545259079631e-01 
2.000000000000e-02 0.000000000000e+00 1.600000000000e+00 -2.150000000000e+04 4.545259079631e-01 
0.000000000000e+00 0.000000000000e+00 1.640000000000e+00 -2.150000000000e+04 4.545259079631e-01 
2.000000000000e-02 0.000000000000e+00 1.640000000000e+00 -2.150000000000e+04 4.545259079631e-01 
0.000000000000e+00 0.000000000000e+00 1.680000000000e+00 -2.150000000000e+04 4.545259079631e-01 
2.000000000000e-02 0.000000000000e+00 1.680000000000e+00 -2.150000000000e+04 4.545259079631e-01 
0.000000000000e+00 0.000000000000e+00 1.720000000000e+00 -2.150000000000e+04 4.545259079631e-01 
2.000000000000e-02 0.000000000000e+00 1.720000000000e+00 -2.150000000000e+04 4.545259079631e-01 
0.000000000000e+00 0.000000000000e+00 1.760000000000e+00 -2.150000000000e+04 4.545259079631e-01 
2.000000000000e-02 0.000000000000e+00 1.760000000000e+00 -2.150000000000e+04 4.545259079631e-01 
0.000000000000e+00 0.000000000000e+00 1.800000000000e+00 -2.150000000000e+04 4.545259079631e-01 
2.000000000000e-02 0.000000000000e+00 1.800000000000e+00 -2.150000000000e+04 4.545259079631e-01 
0.000000000000e+00 0.000000000000e+00 1.840000000000e+00 -2.150000000000e+04 4.545259079631e-01 
2.000000000000e-02 0.000000000000e+00 1.840000000000e+00 -2.150000000000e+04 4.545259079631e-01 
0.000000000000e+00 0.000000000000e+00 1.880000000000e+00 -2.150000000000e+04 4.545259079631e-01 
2.000000000000e-02 0.000000000000e+00 1.880000000000e+00 -2.150000000000e+04 4.545259079631e-01 
0.000000000000e+00 0.000000000000e+00 1.920000000000e+00 -2.150000000000e+04 4.545259079631e-01 
2.000000000000e-02 0.000000000000e+00 1.920000000000e+00 -2.150000000000e+04 4.545259079631e-01 
0.000000000000e+00 0.000000000000e+00 1.960000000000e+00 -2.150000000000e+04 4.545259079631e-01 
2.000000000000e-02 0.000000000000e+00 1.960000000000e+00 -2.150000000000e+04 4.545259079631e-01 
0.000000000000e+00 0.000000000000e+00 2.000000000000e+00 -2.150000000000e+04 4.545259079631e-01 
2.000000000000e-02 0.000000000000e+00 2.000000000000e+00 -2.150000000000e+04 4.545259079631e-01 
4.000000000000e-02 0.000000000000e+00 1.520000000000e+00 -2.150000000000e+04 4.545259079631e-01 
4.000000000000e-02 0.000000000000e+00 1.600000000000e+00 -2.150000000000e+04 4.545259079631e-01 
4.000000000000e-02 0.000000000000e+00 1.640000000000e+00 -2.150000000000e+04 4.545259079631e-01 
4.000000000000e-02 0.000000000000e+00 1.680000000000e+00 -2.150000000000e+04 4.545259079631e-01 
4.000000000000e-02 0.000000000000e+00 1.720000000000e+00 -2.150000000000e+04 4.545259079631e-01 
4.000000000000e-02 0.000000000000e+00 1.760000000000e+00 -2.150000000000e+04 4.545259079631e-01 
4.000000000000e-02 0.000000000000e+00 1.800000000000e+00 -2.150000000000e+04 4.545259079631e-01 
4.000000000000e-02 0.000000000000e+00 1.840000000000e+00 -2.150000000000e+04 4.545259079631e-01 
4.000000000000e-02 0.000000000000e+00 1.880000000000e+00 -2.150000000000e+04 4.545259079631e-01 
4.000000000000e-02 0.000000000000e+00 1.920000000000e+00 -2.150000000000e+04 4.545259079631e-01 
4.000000000000e-02 0.000000000000e+00 1.960000000000e+00 -2.150000000000e+04 4.545259079631e-01 
4.000000000000e-02 0.000000000000e+00 2.000000000000e+00 -2.150000000000e+04 4.545259079631e-01 
0.000000000000e+00 0.000000000000e+00 1.480000000000e+00 -2.150000000000e+04 4.545259079631e-01 
2.000000000000e-02 0.000000000000e+00 1.480000000000e+00 -2.150000000000e+04 4.545259079631e-01 
4.000000000000e-02 0.000000000000e+00 1.480000000000e+00 -2.150000000000e+04 4.545259079631e-01 
4.000000000000e-02 0.000000000000e+00 1.560000000000e+00 -2.150000000000e+04 4.545259079631e-01 
1  3  4  2  
3  5  6  4  
5  7  8  6  
6  8  29  28  
7  9  10  8  
8  10  30  29  
9  11  12  10  
10  12  31  30  
11  13  14  12  
12  14  32  31  
13  15  16  14  
14  16  33  32  
15  17  18  16  
16  18  34  33  
17  19  20  18  
18  20  35  34  
19  21  22  20  
20  22  36  35  
21  23  24  22  
22  24  37  36  
23  25  26  24  
24  26  38  37  
39  1  2  40  
40  2  27  41  
2  4  42  27  
4  6  28  42  
VARIABLES  = "X","Y","Z", "PRESSURE1", "SATURATION1"
ZONE T="1.000000000000e-02s", N=42, E=26, F=FEPOINT, ET=QUADRILATERAL
STRANDID=1, SOLUTIONTIME=1.000000000000e-02
0.000000000000e+00 0.000000000000e+00 1.520000000000e+00 -2.149999999997e+04 4.545259079634e-01 
2.000000000000e-02 0.000000000000e+00 1.520000000000e+00 -2.149999999997e+04 4.545259079635e-01 
0.000000000000e+00 0.000000000000e+00 1.560000000000e+00 -2.149999999995e+04 4.545259079637e-01 
2.000000000000e-02 0.000000000000e+00 1.560000000000e+00 -2.149999999993e+04 4.545259079639e-01 
0.000000000000e+00 0.000000000000e+00 1.600000000000e+00 -2.150000000000e+04 4.545259079632e-01 
2.000000000000e-02 0.000000000000e+00 1.600000000000e+00 -2.149999999997e+04 4.545259079635e-01 
0.000000000000e+00 0.000000000000e+00 1.640000000000e+00 -2.149999999999e+04 4.545259079633e-01 
2.000000000000e-02 0.000000000000e+00 1.640000000000e+00 -2.149999999999e+04 4.545259079633e-01 
0.000000000000e+00 0.000000000000e+00 1.680000000000e+00 -2.149999999999e+04 4.545259079633e-01 
2.000000000000e-02 0.000000000000e+00 1.680000000000e+00 -2.149999999999e+04 4.545259079633e-01 
0.000000000000e+00 0.000000000000e+00 1.720000000000e+00 -2.149999999999e+04 4.545259079633e-01 
2.000000000000e-02 0.000000000000e+00 1.720000000000e+00 -2.149999999999e+04 4.545259079633e-01 
0.000000000000e+00 0.000000000000e+00 1.760000000000e+00 -2.149999999999e+04 4.545259079633e-01 
2.000000000000e-02 0.000000000000e+00 1.760000000000e+00 -2.149999999999e+04 4.545259079633e-01 
0.000000000000e+00 0.000000000000e+00 1.800000000000e+00 -2.149999999999e+04 4.545259079633e-01 
2.000000000000e-02 0.000000000000e+00 1.800000000000e+00 -2.149999999999e+04 4.545259079633e-01 
0.000000000000e+00 0.000000000000e+00 1.840000000000e+00 -2.149999999999e+04 4.545259079633e-01 
2.000000000000e-02 0.000000000000e+00 1.840000000000e+00 -2.149999999999e+04 4.545259079633e-01 
0.000000000000e+00 0.000000000000e+00 1.880000000000e+00 -2.149999999999e+04 4.545259079633e-01 
2.000000000000e-02 0.000000000000e+00 1.880000000000e+00 -2.149999999999e+04 4.545259079633e-01 
0.000000000000e+00 0.000000000000e+00 1.920000000000e+00 -2.149999999898e+04 4.545259079756e-01 
2.000000000000e-02 0.000000000000e+00 1.920000000000e+00 -2.149999999898e+04 4.545259079756e-01 
0.000000000000e+00 0.000000000000e+00 1.960000000000e+00 -2.149835767845e+04 4.345789792025e-01 
2.000000000000e-02 0.000000000000e+00 1.960000000000e+00 -2.149835767845e+04 4.345789792025e-01 
0.000000000000e+00 0.000000000000e+00 2.000000000000e+00 0.000000000000e+00 1.000000000000e+00 
2.000000000000e-02 0.000000000000e+00 2.000000000000e+00 0.000000000000e+00 1.000000000000e+00 
4.000000000000e-02 0.000000000000e+00 1.520000000000e+00 -2.150000000008e+04 4.545259079621e-01 
4.000000000000e-02 0.000000000000e+00 1.600000000000e+00 -2.149999999999e+04 4.545259079632e-01 
4.000000000000e-02 0.000000000000e+00 1.640000000000e+00 -2.149999999999e+04 4.545259079633e-01 
4.000000000000e-02 0.000000000000e+00 1.680000000000e+00 -2.149999999999e+04 4.545259079633e-01 
4.000000000000e-02 0.000000000000e+00 1.720000000000e+00 -2.149999999999e+04 4.545259079633e-01 
4.000000000000e-02 0.000000000000e+00 1.760000000000e+00 -2.149999999999e+04 4.545259079633e-01 
4.000000000000e-02 0.000000000000e+00 1.800000000000e+00 -2.149999999999e+04 4.545259079633e-01 
4.000000000000e-02 0.000000000000e+00 1.840000000000e+00 -2.149999999999e+04 4.545259079633e-01 
4.000000000000e-02 0.000000000000e+00 1.880000000000e+00 -2.149999999999e+04 4.545259079633e-01 
4.000000000000e-02 0.000000000000e+00 1.920000000000e+00 -2.149999999898e+04 4.545259079756e-01 
4.000000000000e-02 0.000000000000e+00 1.960000000000e+00 -2.149835767845e+04 4.345789792025e-01 
4.000000000000e-02 0.000000000000e+00 2.000000000000e+00 0.000000000000e+00 1.000000000000e+00 
0.000000000000e+00 0.000000000000e+00 1.480000000000e+00 -2.149999999999e+04 4.545259079633e-01 
2.000000000000e-02 0.000000000000e+00 1.480000000000e+00 -2.149999999998e+04 4.545259079634e-01 
4.000000000000e-02 0.000000000000e+00 1.480000000000e+00 -2.149999999999e+04 4.545259079632e-01 
4.000000000000e-02 0.000000000000e+00 1.560000000000e+00 -2.149999999996e+04 4.545259079636e-01 
1  3  4  2  
3  5  6  4  
5  7  8  6  
6  8  29  28  
7  9  10  8  
8  10  30  29  
9  11  12  10  
10  12  31  30  
11  13  14  12  
12  14  32  31  
13  15  16  14  
14  16  33  32  
15  17  18  16  
16  18  34  33  
17  19  20  18  
18  20  35  34  
19  21  22  20  
20  22  36  35  
21  23  24  22  
22  24  37  36  
23  25  26  24  
24  26  38  37  
39  1  2  40  
40  2  27  41  
2  4  42  27  
4  6  28  42  
VARIABLES  = "X","Y","Z", "PRESSURE1", "SATURATION1"
ZONE T="1.000000000000e-01s", N=42, E=26, F=FEPOINT, ET=QUADRILATERAL
STRANDID=1, SOLUTIONTIME=1.000000000000e-01
0.000000000000e+00 0.000000000000e+00 1.520000000000e+00 -2.149999999786e+04 4.545259079892e-01 
2.000000000000e-02 0.000000000000e+00 1.520000000000e+00 -2.149999999761e+04 4.545259079922e-01 
0.000000000000e+00 0.000000000000e+00 1.560000000000e+00 -2.149999999625e+04 4.545259080089e-01 
2.000000000000e-02 0.000000000000e+00 1.560000000000e+00 -2.149999999464e+04 4.545259080285e-01 
0.000000000000e+00 0.000000000000e+00 1.600000000000e+00 -2.149999999974e+04 4.545259079663e-01 
2.000000000000e-02 0.000000000000e+00 1.600000000000e+00 -2.149999999733e+04 4.545259079957e-01 
0.000000000000e+00 0.000000000000e+00 1.640000000000e+00 -2.149999999895e+04 4.545259079759e-01 
2.000000000000e-02 0.000000000000e+00 1.640000000000e+00 -2.149999999895e+04 4.545259079759e-01 
0.000000000000e+00 0.000000000000e+00 1.680000000000e+00 -2.149999999895e+04 4.545259079759e-01 
2.000000000000e-02 0.000000000000e+00 1.680000000000e+00 -2.149999999895e+04 4.545259079759e-01 
0.000000000000e+00 0.000000000000e+00 1.720000000000e+00 -2.149999999895e+04 4.545259079759e-01 
2.000000000000e-02 0.000000000000e+00 1.720000000000e+00 -2.149999999895e+04 4.545259079759e-01 
0.000000000000e+00 0.000000000000e+00 1.760000000000e+00 -2.149999999895e+04 4.545259079759e-01 
2.000000000000e-02 0.000000000000e+00 1.760000000000e+00 -2.149999999895e+04 4.545259079759e-01 
0.000000000000e+00 0.000000000000e+00 1.800000000000e+00 -2.149999999895e+04 4.545259079759e-01 
2.000000000000e-02 0.000000000000e+00 1.800000000000e+00 -2.149999999895e+04 4.545259079759e-01 
0.000000000000e+00 0.000000000000e+00 1.840000000000e+00 -2.149999999895e+04 4.545259079759e-01 
2.000000000000e-02 0.000000000000e+00 1.840000000000e+00 -2.149999999895e+04 4.545259079759e-01 
0.000000000000e+00 0.000000000000e+00 1.880000000000e+00 -2.149999999895e+04 4.545259079759e-01 
2.000000000000e-02 0.000000000000e+00 1.880000000000e+00 -2.149999999895e+04 4.545259079759e-01 
0.000000000000e+00 0.000000000000e+00 1.920000000000e+00 -2.149999990698e+04 4.545259090982e-01 
2.000000000000e-02 0.000000000000e+00 1.920000000000e+00 -2.149999990698e+04 4.545259090982e-01 
0.000000000000e+00 0.000000000000e+00 1.960000000000e+00 -2.148358150747e+04 4.347568948785e-01 
2.000000000000e-02 0.000000000000e+00 1.960000000000e+00 -2.148358150747e+04 4.347568948785e-01 
0.000000000000e+00 0.000000000000e+00 2.000000000000e+00 0.000000000000e+00 1.000000000000e+00 
2.000000000000e-02 0.000000000000e+00 2.000000000000e+00 0.000000000000e+00 1.000000000000e+00 
4.000000000000e-02 0.000000000000e+00 1.520000000000e+00 -2.150000000696e+04 4.545259078782e-01 
4.000000000000e-02 0.000000000000e+00 1.600000000000e+00 -2.149999999946e+04 4.545259079697e-01 
4.000000000000e-02 0.000000000000e+00 1.640000000000e+00 -2.149999999895e+04 4.545259079759e-01 
4.000000000000e-02 0.000000000000e+00 1.680000000000e+00 -2.149999999895e+04 4.545259079759e-01 
4.000000000000e-02 0.000000000000e+00 1.720000000000e+00 -2.149999999895e+04 4.545259079759e-01 
4.000000000000e-02 0.000000000000e+00 1.760000000000e+00 -2.149999999895e+04 4.545259079759e-01 
4.000000000000e-02 0.000000000000e+00 1.800000000000e+00 -2.149999999895e+04 4.545259079759e-01 
4.000000000000e-02 0.000000000000e+00 1.840000000000e+00 -2.149999999895e+04 4.545259079759e-01 
4.000000000000e-02 0.000000000000e+00 1.880000000000e+00 -2.149999999895e+04 4.545259079759e-01 
4.000000000000e-02 0.000000000000e+00 1.920000000000e+00 -2.149999990698e+04 4.545259090982e-01 
4.000000000000e-02 0.000000000000e+00 1.960000000000e+00 -2.148358150747e+04 4.347568948785e-01 
4.000000000000e-02 0.000000000000e+00 2.000000000000e+00 0.000000000000e+00 1.000000000000e+00 
0.000000000000e+00 0.000000000000e+00 1.480000000000e+00 -2.149999999895e+04 4.545259079759e-01 
2.000000000000e-02 0.000000000000e+00 1.480000000000e+00 -2.149999999832e+04 4.545259079836e-01 
4.000000000000e-02 0.000000000000e+00 1.480000000000e+00 -2.149999999946e+04 4.545259079697e-01 
4.000000000000e-02 0.000000000000e+00 1.560000000000e+00 -2.149999999676e+04 4.545259080027e-01 
1  3  4  2  
3  5  6  4  
5  7  8  6  
6  8  29  28  
7  9  10  8  
8  10  30  29  
9  11  12  10  
10  12  31  30  
11  13  14  12  
12  14  32  31  
13  15  16  14  
14  16  33  32  
15  17  18  16  
16  18  34  33  
17  19  20  18  
18  20  35  34  
19  21  22  20  
20  22  36  35  
21  23  24  22  
22  24  37  36  
23  25  26  24  
24  26  38  37  
39  1  2  40  
40  2  27  41  
2  4  42  27  
4  6  28  42  
VARIABLES  = "X","Y","Z", "PRESSURE1", "SATURATION1"
ZONE T="1.000000000000e+00s", N=42, E=26, F=FEPOINT, ET=QUADRILATERAL
STRANDID=1, SOLUTIONTIME=1.000000000000e+00
0.000000000000e+00 0.000000000000e+00 1.520000000000e+00 -2.149999978643e+04 4.545259105693e-01 
2.000000000000e-02 0.000000000000e+00 1.520000000000e+00 -2.149999976180e+04 4.545259108698e-01 
0.000000000000e+00 0.000000000000e+00 1.560000000000e+00 -2.149999962591e+04 4.545259125280e-01 
2.000000000000e-02 0.000000000000e+00 1.560000000000e+00 -2.149999946538e+04 4.545259144869e-01 
0.000000000000e+00 0.000000000000e+00 1.600000000000e+00 -2.149999997410e+04 4.545259082792e-01 
2.000000000000e-02 0.000000000000e+00 1.600000000000e+00 -2.149999973396e+04 4.545259112095e-01 
0.000000000000e+00 0.000000000000e+00 1.640000000000e+00 -2.149999989559e+04 4.545259092372e-01 
2.000000000000e-02 0.000000000000e+00 1.640000000000e+00 -2.149999989554e+04 4.545259092378e-01 
0.000000000000e+00 0.000000000000e+00 1.680000000000e+00 -2.149999989562e+04 4.545259092368e-01 
2.000000000000e-02 0.000000000000e+00 1.680000000000e+00 -2.149999989552e+04 4.545259092380e-01 
0.000000000000e+00 0.000000000000e+00 1.720000000000e+00 -2.149999989562e+04 4.545259092369e-01 
2.000000000000e-02 0.000000000000e+00 1.720000000000e+00 -2.149999989552e+04 4.545259092380e-01 
0.000000000000e+00 0.000000000000e+00 1.760000000000e+00 -2.149999989562e+04 4.545259092369e-01 
2.000000000000e-02 0.000000000000e+00 1.760000000000e+00 -2.149999989552e+04 4.545259092380e-01 
0.000000000000e+00 0.000000000000e+00 1.800000000000e+00 -2.149999989562e+04 4.545259092369e-01 
2.000000000000e-02 0.000000000000e+00 1.800000000000e+00 -2.149999989552e+04 4.545259092380e-01 
0.000000000000e+00 0.000000000000e+00 1.840000000000e+00 -2.149999989562e+04 4.545259092369e-01 
2.000000000000e-02 0.000000000000e+00 1.840000000000e+00 -2.149999989552e+04 4.545259092380e-01 
0.000000000000e+00 0.000000000000e+00 1.880000000000e+00 -2.149999989511e+04 4.545259092431e-01 
2.000000000000e-02 0.000000000000e+00 1.880000000000e+00 -2.149999989501e+04 4.545259092442e-01 
0.000000000000e+00 0.000000000000e+00 1.920000000000e+00 -2.149999065651e+04 4.545260219786e-01 
2.000000000000e-02 0.000000000000e+00 1.920000000000e+00 -2.149999065642e+04 4.545260219797e-01 
0.000000000000e+00 0.000000000000e+00 1.960000000000e+00 -2.133630188654e+04 4.365302469426e-01 
2.000000000000e-02 0.000000000000e+00 1.960000000000e+00 -2.133630188648e+04 4.365302469433e-01 
0.000000000000e+00 0.000000000000e+00 2.000000000000e+00 0.000000000000e+00 1.000000000000e+00 
2.000000000000e-02 0.000000000000e+00 2.000000000000e+00 0.000000000000e+00 1.000000000000e+00 
4.000000000000e-02 0.000000000000e+00 1.520000000000e+00 -2.150000069402e+04 4.545258994942e-01 
4.000000000000e-02 0.000000000000e+00 1.600000000000e+00 -2.149999994620e+04 4.545259086197e-01 
4.000000000000e-02 0.000000000000e+00 1.640000000000e+00 -2.149999989560e+04 4.545259092370e-01 
4.000000000000e-02 0.000000000000e+00 1.680000000000e+00 -2.149999989564e+04 4.545259092366e-01 
4.000000000000e-02 0.000000000000e+00 1.720000000000e+00 -2.149999989564e+04 4.545259092366e-01 
4.000000000000e-02 0.000000000000e+00 1.760000000000e+00 -2.149999989564e+04 4.545259092366e-01 
4.000000000000e-02 0.000000000000e+00 1.800000000000e+00 -2.149999989564e+04 4.545259092366e-01 
4.000000000000e-02 0.000000000000e+00 1.840000000000e+00 -2.149999989564e+04 4.545259092366e-01 
4.000000000000e-02 0.000000000000e+00 1.880000000000e+00 -2.149999989513e+04 4.545259092429e-01 
4.000000000000e-02 0.000000000000e+00 1.920000000000e+00 -2.149999065651e+04 4.545260219786e-01 
4.000000000000e-02 0.000000000000e+00 1.960000000000e+00 -2.133630188650e+04 4.365302469430e-01 
4.000000000000e-02 0.000000000000e+00 2.000000000000e+00 0.000000000000e+00 1.000000000000e+00 
0.000000000000e+00 0.000000000000e+00 1.480000000000e+00 -2.149999989560e+04 4.545259092371e-01 
2.000000000000e-02 0.000000000000e+00 1.480000000000e+00 -2.149999983219e+04 4.545259100108e-01 
4.000000000000e-02 0.000000000000e+00 1.480000000000e+00 -2.149999994624e+04 4.545259086191e-01 
4.000000000000e-02 0.000000000000e+00 1.560000000000e+00 -2.149999967659e+04 4.545259119096e-01 
1  3  4  2  
3  5  6  4  
5  7  8  6  
6  8  29  28  
7  9  10  8  
8  10  30  29  
9  11  12  10  
10  12  31  30  
11  13  14  12  
12  14  32  31  
13  15  16  14  
14  16  33  32  
15  17  18  16  
16  18  34  33  
17  19  20  18  
18  20  35  34  
19  21  22  20  
20  22  36  35  
21  23  24  22  
22  24  37  36  
23  25  26  24  
24  26  38  37  
39  1  2  40  
40  2  27  41  
2  4  42  27  
4  6  28  42  
VARIABLES  = "X","Y","Z", "PRESSURE1", "SATURATION1"
ZONE T="1.800000000000e+02s", N=42, E=26, F=FEPOINT, ET=QUADRILATERAL
STRANDID=1, SOLUTIONTIME=1.800000000000e+02
0.000000000000e+00 0.000000000000e+00 1.520000000000e+00 -2.149999978219e+04 4.545259106210e-01 
2.000000000000e-02 0.000000000000e+00 1.520000000000e+00 -2.149999978723e+04 4.545259105595e-01 
0.000000000000e+00 0.000000000000e+00 1.560000000000e+00 -2.149999961944e+04 4.545259126070e-01 
2.000000000000e-02 0.000000000000e+00 1.560000000000e+00 -2.149999948680e+04 4.545259142256e-01 
0.000000000000e+00 0.000000000000e+00 1.600000000000e+00 -2.149999995652e+04 4.545259084937e-01 
2.000000000000e-02 0.000000000000e+00 1.600000000000e+00 -2.149999974562e+04 4.545259110672e-01 
0.000000000000e+00 0.000000000000e+00 1.640000000000e+00 -2.149999989284e+04 4.545259092707e-01 
2.000000000000e-02 0.000000000000e+00 1.640000000000e+00 -2.149999989787e+04 4.545259092094e-01 
0.000000000000e+00 0.000000000000e+00 1.680000000000e+00 -2.149999989599e+04 4.545259092323e-01 
2.000000000000e-02 0.000000000000e+00 1.680000000000e+00 -2.149999989585e+04 4.545259092340e-01 
0.000000000000e+00 0.000000000000e+00 1.720000000000e+00 -2.149999989595e+04 4.545259092328e-01 
2.000000000000e-02 0.000000000000e+00 1.720000000000e+00 -2.149999989589e+04 4.545259092335e-01 
0.000000000000e+00 0.000000000000e+00 1.760000000000e+00 -2.149999989594e+04 4.545259092330e-01 
2.000000000000e-02 0.000000000000e+00 1.760000000000e+00 -2.149999989587e+04 4.545259092338e-01 
0.000000000000e+00 0.000000000000e+00 1.800000000000e+00 -2.149999988745e+04 4.545259093365e-01 
2.000000000000e-02 0.000000000000e+00 1.800000000000e+00 -2.149999988738e+04 4.545259093373e-01 
0.000000000000e+00 0.000000000000e+00 1.840000000000e+00 -2.149999631858e+04 4.545259528862e-01 
2.000000000000e-02 0.000000000000e+00 1.840000000000e+00 -2.149999631852e+04 4.545259528870e-01 
0.000000000000e+00 0.000000000000e+00 1.880000000000e+00 -2.149862921702e+04 4.545426351679e-01 
2.000000000000e-02 0.000000000000e+00 1.880000000000e+00 -2.149862921695e+04 4.545426351687e-01 
0.000000000000e+00 0.000000000000e+00 1.920000000000e+00 -2.102342356341e+04 4.526236364723e-01 
2.000000000000e-02 0.000000000000e+00 1.920000000000e+00 -2.102342356334e+04 4.526236364732e-01 
0.000000000000e+00 0.000000000000e+00 1.960000000000e+00 -5.138824581436e+03 7.934241097248e-01 
2.000000000000e-02 0.000000000000e+00 1.960000000000e+00 -5.138824581431e+03 7.934241097251e-01 
0.000000000000e+00 0.000000000000e+00 2.000000000000e+00 0.000000000000e+00 1.000000000000e+00 
2.000000000000e-02 0.000000000000e+00 2.000000000000e+00 0.000000000000e+00 1.000000000000e+00 
4.000000000000e-02 0.000000000000e+00 1.520000000000e+00 -2.150000062713e+04 4.545259003105e-01 
4.000000000000e-02 0.000000000000e+00 1.600000000000e+00 -2.149999993080e+04 4.545259088076e-01 
4.000000000000e-02 0.000000000000e+00 1.640000000000e+00 -2.149999989304e+04 4.545259092683e-01 
4.000000000000e-02 0.000000000000e+00 1.680000000000e+00 -2.149999989600e+04 4.545259092322e-01 
4.000000000000e-02 0.000000000000e+00 1.720000000000e+00 -2.149999989597e+04 4.545259092326e-01 
4.000000000000e-02 0.000000000000e+00 1.760000000000e+00 -2.149999989595e+04 4.545259092328e-01 
4.000000000000e-02 0.000000000000e+00 1.800000000000e+00 -2.149999988747e+04 4.545259093363e-01 
4.000000000000e-02 0.000000000000e+00 1.840000000000e+00 -2.149999631860e+04 4.545259528860e-01 
4.000000000000e-02 0.000000000000e+00 1.880000000000e+00 -2.149862921703e+04 4.545426351677e-01 
4.000000000000e-02 0.000000000000e+00 1.920000000000e+00 -2.102342356341e+04 4.526236364724e-01 
4.000000000000e-02 0.000000000000e+00 1.960000000000e+00 -5.138824581432e+03 7.934241097250e-01 
4.000000000000e-02 0.000000000000e+00 2.000000000000e+00 0.000000000000e+00 1.000000000000e+00 
0.000000000000e+00 0.000000000000e+00 1.480000000000e+00 -2.149999989189e+04 4.545259092824e-01 
2.000000000000e-02 0.000000000000e+00 1.480000000000e+00 -2.149999984467e+04 4.545259098586e-01 
4.000000000000e-02 0.000000000000e+00 1.480000000000e+00 -2.149999993292e+04 4.545259087817e-01 
4.000000000000e-02 0.000000000000e+00 1.560000000000e+00 -2.149999966036e+04 4.545259121077e-01 
1  3  4  2  
3  5  6  4  
5  7  8  6  
6  8  29  28  
7  9  10  8  
8  10  30  29  
9  11  12  10  
10  12  31  30  
11  13  14  12  
12  14  32  31  
13  15  16  14  
14  16  33  32  
15  17  18  16  
16  18  34  33  
17  19  20  18  
18  20  35  34  
19  21  22  20  
20  22  36  35  
21  23  24  22  
22  24  37  36  
23  25  26  24  
24  26  38  37  
39  1  2  40  
40  2  27  41  
2  4  42  27  
4  6  28  42  
VARIABLES  = "X","Y","Z", "PRESSURE1", "SATURATION1"
ZONE T="1.800000000000e+03s", N=42, E=26, F=FEPOINT, ET=QUADRILATERAL
STRANDID=1, SOLUTIONTIME=1.800000000000e+03
0.000000000000e+00 0.000000000000e+00 1.520000000000e+00 -2.150000295316e+04 4.545258719267e-01 
2.000000000000e-02 0.000000000000e+00 1.520000000000e+00 -2.150001274099e+04 4.545257524891e-01 
0.000000000000e+00 0.000000000000e+00 1.560000000000e+00 -2.150000086088e+04 4.545258974580e-01 
2.000000000000e-02 0.000000000000e+00 1.560000000000e+00 -2.150000857928e+04 4.545258032730e-01 
0.000000000000e+00 0.000000000000e+00 1.600000000000e+00 -2.149999922417e+04 4.545259174303e-01 
2.000000000000e-02 0.000000000000e+00 1.600000000000e+00 -2.150000362432e+04 4.545258637368e-01 
0.000000000000e+00 0.000000000000e+00 1.640000000000e+00 -2.150000020661e+04 4.545259054419e-01 
2.000000000000e-02 0.000000000000e+00 1.640000000000e+00 -2.150000017415e+04 4.545259058381e-01 
0.000000000000e+00 0.000000000000e+00 1.680000000000e+00 -2.149999573003e+04 4.545259600681e-01 
2.000000000000e-02 0.000000000000e+00 1.680000000000e+00 -2.149999601920e+04 4.545259565395e-01 
0.000000000000e+00 0.000000000000e+00 1.720000000000e+00 -2.149961814407e+04 4.545305676229e-01 
2.000000000000e-02 0.000000000000e+00 1.720000000000e+00 -2.149961840866e+04 4.545305643942e-01 
0.000000000000e+00 0.000000000000e+00 1.760000000000e+00 -2.146700908431e+04 4.549284850372e-01 
2.000000000000e-02 0.000000000000e+00 1.760000000000e+00 -2.146700933720e+04 4.549284819512e-01 
0.000000000000e+00 0.000000000000e+00 1.800000000000e+00 -1.908339381803e+04 4.752968248810e-01 
2.000000000000e-02 0.000000000000e+00 1.800000000000e+00 -1.908339518346e+04 4.752968093407e-01 
0.000000000000e+00 0.000000000000e+00 1.840000000000e+00 -4.701587165576e+03 8.113484012254e-01 
2.000000000000e-02 0.000000000000e+00 1.840000000000e+00 -4.701587758594e+03 8.113483708636e-01 
0.000000000000e+00 0.000000000000e+00 1.880000000000e+00 -2.129532868505e+03 9.748106436141e-01 
2.000000000000e-02 0.000000000000e+00 1.880000000000e+00 -2.129532928899e+03 9.748106432503e-01 
0.000000000000e+00 0.000000000000e+00 1.920000000000e+00 -1.306868114519e+03 1.000000000000e+00 
2.000000000000e-02 0.000000000000e+00 1.920000000000e+00 -1.306867829082e+03 1.000000000000e+00 
0.000000000000e+00 0.000000000000e+00 1.960000000000e+00 -6.578303555070e+02 1.000000000000e+00 
2.000000000000e-02 0.000000000000e+00 1.960000000000e+00 -6.578299070834e+02 1.000000000000e+00 
0.000000000000e+00 0.000000000000e+00 2.000000000000e+00 0.000000000000e+00 1.000000000000e+00 
2.000000000000e-02 0.000000000000e+00 2.000000000000e+00 0.000000000000e+00 1.000000000000e+00 
4.000000000000e-02 0.000000000000e+00 1.520000000000e+00 -2.149997219483e+04 4.545262472603e-01 
4.000000000000e-02 0.000000000000e+00 1.600000000000e+00 -2.149999987941e+04 4.545259094347e-01 
4.000000000000e-02 0.000000000000e+00 1.640000000000e+00 -2.150000014068e+04 4.545259062465e-01 
4.000000000000e-02 0.000000000000e+00 1.680000000000e+00 -2.149999564997e+04 4.545259610450e-01 
4.000000000000e-02 0.000000000000e+00 1.720000000000e+00 -2.149961806432e+04 4.545305685961e-01 
4.000000000000e-02 0.000000000000e+00 1.760000000000e+00 -2.146700894626e+04 4.549284867217e-01 
4.000000000000e-02 0.000000000000e+00 1.800000000000e+00 -1.908339626546e+04 4.752968010160e-01 
4.000000000000e-02 0.000000000000e+00 1.840000000000e+00 -4.701590955324e+03 8.113482179438e-01 
4.000000000000e-02 0.000000000000e+00 1.880000000000e+00 -2.129532379211e+03 9.748106695073e-01 
4.000000000000e-02 0.000000000000e+00 1.920000000000e+00 -1.306867354645e+03 1.000000000000e+00 
4.000000000000e-02 0.000000000000e+00 1.960000000000e+00 -6.578297954007e+02 1.000000000000e+00 
4.000000000000e-02 0.000000000000e+00 2.000000000000e+00 0.000000000000e+00 1.000000000000e+00 
0.000000000000e+00 0.000000000000e+00 1.480000000000e+00 -2.150000118101e+04 4.545258935516e-01 
2.000000000000e-02 0.000000000000e+00 1.480000000000e+00 -2.150000461555e+04 4.545258516412e-01 
4.000000000000e-02 0.000000000000e+00 1.480000000000e+00 -2.149999760073e+04 4.545259372406e-01 
4.000000000000e-02 0.000000000000e+00 1.560000000000e+00 -2.149999723718e+04 4.545259416769e-01 
1  3  4  2  
3  5  6  4  
5  7  8  6  
6  8  29  28  
7  9  10  8  
8  10  30  29  
9  11  12  10  
10  12  31  30  
11  13  14  12  
12  14  32  31  
13  15  16  14  
14  16  33  32  
15  17  18  16  
16  18  34  33  
17  19  20  18  
18  20  35  34  
19  21  22  20  
20  22  36  35  
21  23  24  22  
22  24  37  36  
23  25  26  24  
24  26  38  37  
39  1  2  40  
40  2  27  41  
2  4  42  27  
4  6  28  42  
VARIABLES  = "X","Y","Z", "PRESSURE1", "SATURATION1"
ZONE T="3.600000000000e+03s", N=42, E=26, F=FEPOINT, ET=QUADRILATERAL
STRANDID=1, SOLUTIONTIME=3.600000000000e+03
0.000000000000e+00 0.000000000000e+00 1.520000000000e+00 -2.150000450799e+04 4.545258529536e-01 
2.000000000000e-02 0.000000000000e+00 1.520000000000e+00 -2.150000401625e+04 4.545258589542e-01 
0.000000000000e+00 0.000000000000e+00 1.560000000000e+00 -2.150000277145e+04 4.545258741441e-01 
2.000000000000e-02 0.000000000000e+00 1.560000000000e+00 -2.150000328722e+04 4.545258678502e-01 
0.000000000000e+00 0.000000000000e+00 1.600000000000e+00 -2.149997765986e+04 4.545261805724e-01 
2.000000000000e-02 0.000000000000e+00 1.600000000000e+00 -2.149997863139e+04 4.545261687171e-01 
0.000000000000e+00 0.000000000000e+00 1.640000000000e+00 -2.149847002005e+04 4.545445777950e-01 
2.000000000000e-02 0.000000000000e+00 1.640000000000e+00 -2.149846972868e+04 4.545445813506e-01 
0.000000000000e+00 0.000000000000e+00 1.680000000000e+00 -2.140321393182e+04 4.557069558763e-01 
2.000000000000e-02 0.000000000000e+00 1.680000000000e+00 -2.140321402705e+04 4.557069547143e-01 
0.000000000000e+00 0.000000000000e+00 1.720000000000e+00 -1.693994126968e+04 5.000663223935e-01 
2.000000000000e-02 0.000000000000e+00 1.720000000000e+00 -1.693994104882e+04 5.000663253463e-01 
0.000000000000e+00 0.000000000000e+00 1.760000000000e+00 -3.803013010983e+03 8.594141336830e-01 
2.000000000000e-02 0.000000000000e+00 1.760000000000e+00 -3.803012856553e+03 8.594141430892e-01 
0.000000000000e+00 0.000000000000e+00 1.800000000000e+00 -2.399096812905e+03 9.649877115645e-01 
2.000000000000e-02 0.000000000000e+00 1.800000000000e+00 -2.399096796726e+03 9.649877116731e-01 
0.000000000000e+00 0.000000000000e+00 1.840000000000e+00 -1.699328901096e+03 9.874546088074e-01 
2.000000000000e-02 0.000000000000e+00 1.840000000000e+00 -1.699328973366e+03 9.874546053023e-01 
0.000000000000e+00 0.000000000000e+00 1.880000000000e+00 -1.255262199519e+03 1.000000000000e+00 