VARIABLES  = "X","Y","Z", "PRESSURE1", "SATURATION1"
ZONE T="0.000000000000e+00s", N=51, E=30, F=FEPOINT, ET=QUADRILATERAL
STRANDID=1, SOLUTIONTIME=0.000000000000e+00
0.000000000000e+00 0.000000000000e+00 1.000000000000e+00 -2.150000000000e+04 4.545259079631e-01 
0.000000000000e+00 0.000000000000e+00 1.080000000000e+00 -2.150000000000e+04 4.545259079631e-01 
2.000000000000e-02 0.000000000000e+00 1.080000000000e+00 -2.150000000000e+04 4.545259079631e-01 
0.000000000000e+00 0.000000000000e+00 1.120000000000e+00 -2.150000000000e+04 4.545259079631e-01 
2.000000000000e-02 0.000000000000e+00 1.120000000000e+00 -2.150000000000e+04 4.545259079631e-01 
0.000000000000e+00 0.000000000000e+00 1.160000000000e+00 -2.150000000000e+04 4.545259079631e-01 
2.000000000000e-02 0.000000000000e+00 1.160000000000e+00 -2.150000000000e+04 4.545259079631e-01 
0.000000000000e+00 0.000000000000e+00 1.200000000000e+00 -2.150000000000e+04 4.545259079631e-01 
2.000000000000e-02 0.000000000000e+00 1.200000000000e+00 -2.150000000000e+04 4.545259079631e-01 
0.000000000000e+00 0.000000000000e+00 1.240000000000e+00 -2.150000000000e+04 4.545259079631e-01 
2.000000000000e-02 0.000000000000e+00 1.240000000000e+00 -2.150000000000e+04 4.545259079631e-01 
0.000000000000e+00 0.000000000000e+00 1.280000000000e+00 -2.150000000000e+04 4.545259079631e-01 
2.000000000000e-02 0.000000000000e+00 1.280000000000e+00 -2.150000000000e+04 4.545259079631e-01 
0.000000000000e+00 0.000000000000e+00 1.320000000000e+00 -2.150000000000e+04 4.545259079631e-01 
2.000000000000e-02 0.000000000000e+00 1.320000000000e+00 -2.150000000000e+04 4.545259079631e-01 
0.000000000000e+00 0.000000000000e+00 1.360000000000e+00 -2.150000000000e+04 4.545259079631e-01 
2.000000000000e-02 0.000000000000e+00 1.360000000000e+00 -2.150000000000e+04 4.545259079631e-01 
0.000000000000e+00 0.000000000000e+00 1.400000000000e+00 -2.150000000000e+04 4.545259079631e-01 
2.000000000000e-02 0.000000000000e+00 1.400000000000e+00 -2.150000000000e+04 4.545259079631e-01 
0.000000000000e+00 0.000000000000e+00 1.440000000000e+00 -2.150000000000e+04 4.545259079631e-01 
2.000000000000e-02 0.000000000000e+00 1.440000000000e+00 -2.150000000000e+04 4.545259079631e-01 
0.000000000000e+00 0.000000000000e+00 1.480000000000e+00 -2.150000000000e+04 4.545259079631e-01 
2.000000000000e-02 0.000000000000e+00 1.480000000000e+00 -2.150000000000e+04 4.545259079631e-01 
4.000000000000e-02 0.000000000000e+00 9.600000000000e-01 -2.150000000000e+04 4.545259079631e-01 
4.000000000000e-02 0.000000000000e+00 1.080000000000e+00 -2.150000000000e+04 4.545259079631e-01 
4.000000000000e-02 0.000000000000e+00 1.120000000000e+00 -2.150000000000e+04 4.545259079631e-01 
4.000000000000e-02 0.000000000000e+00 1.160000000000e+00 -2.150000000000e+04 4.545259079631e-01 
4.000000000000e-02 0.000000000000e+00 1.200000000000e+00 -2.150000000000e+04 4.545259079631e-01 
4.000000000000e-02 0.000000000000e+00 1.240000000000e+00 -2.150000000000e+04 4.545259079631e-01 
4.000000000000e-02 0.000000000000e+00 1.280000000000e+00 -2.150000000000e+04 4.545259079631e-01 
4.000000000000e-02 0.000000000000e+00 1.320000000000e+00 -2.150000000000e+04 4.545259079631e-01 
4.000000000000e-02 0.000000000000e+00 1.360000000000e+00 -2.150000000000e+04 4.545259079631e-01 
4.000000000000e-02 0.000000000000e+00 1.400000000000e+00 -2.150000000000e+04 4.545259079631e-01 
4.000000000000e-02 0.000000000000e+00 1.440000000000e+00 -2.150000000000e+04 4.545259079631e-01 
4.000000000000e-02 0.000000000000e+00 1.480000000000e+00 -2.150000000000e+04 4.545259079631e-01 
4.000000000000e-02 0.000000000000e+00 1.560000000000e+00 -2.150000000000e+04 4.545259079631e-01 
0.000000000000e+00 0.000000000000e+00 9.600000000000e-01 -2.150000000000e+04 4.545259079631e-01 
2.000000000000e-02 0.000000000000e+00 1.000000000000e+00 -2.150000000000e+04 4.545259079631e-01 
2.000000000000e-02 0.000000000000e+00 9.600000000000e-01 -2.150000000000e+04 4.545259079631e-01 
0.000000000000e+00 0.000000000000e+00 1.040000000000e+00 -2.150000000000e+04 4.545259079631e-01 
2.000000000000e-02 0.000000000000e+00 1.040000000000e+00 -2.150000000000e+04 4.545259079631e-01 
4.000000000000e-02 0.000000000000e+00 1.040000000000e+00 -2.150000000000e+04 4.545259079631e-01 
0.000000000000e+00 0.000000000000e+00 1.520000000000e+00 -2.150000000000e+04 4.545259079631e-01 
2.000000000000e-02 0.000000000000e+00 1.520000000000e+00 -2.150000000000e+04 4.545259079631e-01 
4.000000000000e-02 0.000000000000e+00 1.520000000000e+00 -2.150000000000e+04 4.545259079631e-01 
2.000000000000e-02 0.000000000000e+00 9.200000000000e-01 -2.150000000000e+04 4.545259079631e-01 
4.000000000000e-02 0.000000000000e+00 9.200000000000e-01 -2.150000000000e+04 4.545259079631e-01 
4.000000000000e-02 0.000000000000e+00 1.000000000000e+00 -2.150000000000e+04 4.545259079631e-01 
2.000000000000e-02 0.000000000000e+00 1.560000000000e+00 -2.150000000000e+04 4.545259079631e-01 
2.000000000000e-02 0.000000000000e+00 1.600000000000e+00 -2.150000000000e+04 4.545259079631e-01 
4.000000000000e-02 0.000000000000e+00 1.600000000000e+00 -2.150000000000e+04 4.545259079631e-01 
2  4  5  3  
3  5  26  25  
4  6  7  5  
5  7  27  26  
6  8  9  7  
7  9  28  27  
8  10  11  9  
9  11  29  28  
10  12  13  11  
11  13  30  29  
12  14  15  13  
13  15  31  30  
14  16  17  15  
15  17  32  31  
16  18  19  17  
17  19  33  32  
18  20  21  19  
19  21  34  33  
20  22  23  21  
21  23  35  34  
37  1  38  39  
1  40  41  38  
40  2  3  41  
41  3  25  42  
22  43  44  23  
23  44  45  35  
46  39  24  47  
39  38  48  24  
44  49  36  45  
49  50  51  36  
VARIABLES  = "X","Y","Z", "PRESSURE1", "SATURATION1"
ZONE T="1.000000000000e-02s", N=51, E=30, F=FEPOINT, ET=QUADRILATERAL
STRANDID=1, SOLUTIONTIME=1.000000000000e-02
0.000000000000e+00 0.000000000000e+00 1.000000000000e+00 -2.149999999985e+04 4.545259079649e-01 
0.000000000000e+00 0.000000000000e+00 1.080000000000e+00 -2.149999999998e+04 4.545259079634e-01 
2.000000000000e-02 0.000000000000e+00 1.080000000000e+00 -2.149999999998e+04 4.545259079633e-01 
0.000000000000e+00 0.000000000000e+00 1.120000000000e+00 -2.150000000000e+04 4.545259079631e-01 
2.000000000000e-02 0.000000000000e+00 1.120000000000e+00 -2.150000000000e+04 4.545259079631e-01 
0.000000000000e+00 0.000000000000e+00 1.160000000000e+00 -2.150000000000e+04 4.545259079631e-01 
2.000000000000e-02 0.000000000000e+00 1.160000000000e+00 -2.150000000000e+04 4.545259079631e-01 
0.000000000000e+00 0.000000000000e+00 1.200000000000e+00 -2.150000000000e+04 4.545259079631e-01 
2.000000000000e-02 0.000000000000e+00 1.200000000000e+00 -2.150000000000e+04 4.545259079631e-01 
0.000000000000e+00 0.000000000000e+00 1.240000000000e+00 -2.150000000000e+04 4.545259079631e-01 
2.000000000000e-02 0.000000000000e+00 1.240000000000e+00 -2.150000000000e+04 4.545259079631e-01 
0.000000000000e+00 0.000000000000e+00 1.280000000000e+00 -2.150000000000e+04 4.545259079631e-01 
2.000000000000e-02 0.000000000000e+00 1.280000000000e+00 -2.150000000000e+04 4.545259079631e-01 
0.000000000000e+00 0.000000000000e+00 1.320000000000e+00 -2.150000000000e+04 4.545259079631e-01 
2.000000000000e-02 0.000000000000e+00 1.320000000000e+00 -2.150000000000e+04 4.545259079631e-01 
0.000000000000e+00 0.000000000000e+00 1.360000000000e+00 -2.150000000000e+04 4.545259079631e-01 
2.000000000000e-02 0.000000000000e+00 1.360000000000e+00 -2.150000000000e+04 4.545259079631e-01 
0.000000000000e+00 0.000000000000e+00 1.400000000000e+00 -2.150000000000e+04 4.545259079631e-01 
2.000000000000e-02 0.000000000000e+00 1.400000000000e+00 -2.150000000000e+04 4.545259079631e-01 
0.000000000000e+00 0.000000000000e+00 1.440000000000e+00 -2.150000000000e+04 4.545259079631e-01 
2.000000000000e-02 0.000000000000e+00 1.440000000000e+00 -2.150000000000e+04 4.545259079631e-01 
0.000000000000e+00 0.000000000000e+00 1.480000000000e+00 -2.150000000000e+04 4.545259079631e-01 
2.000000000000e-02 0.000000000000e+00 1.480000000000e+00 -2.149999999998e+04 4.545259079634e-01 
4.000000000000e-02 0.000000000000e+00 9.600000000000e-01 -2.149999999985e+04 4.545259079649e-01 
4.000000000000e-02 0.000000000000e+00 1.080000000000e+00 -2.149999999998e+04 4.545259079634e-01 
4.000000000000e-02 0.000000000000e+00 1.120000000000e+00 -2.150000000000e+04 4.545259079631e-01 
4.000000000000e-02 0.000000000000e+00 1.160000000000e+00 -2.150000000000e+04 4.545259079631e-01 
4.000000000000e-02 0.000000000000e+00 1.200000000000e+00 -2.150000000000e+04 4.545259079631e-01 
4.000000000000e-02 0.000000000000e+00 1.240000000000e+00 -2.150000000000e+04 4.545259079631e-01 
4.000000000000e-02 0.000000000000e+00 1.280000000000e+00 -2.150000000000e+04 4.545259079631e-01 
4.000000000000e-02 0.000000000000e+00 1.320000000000e+00 -2.150000000000e+04 4.545259079631e-01 
4.000000000000e-02 0.000000000000e+00 1.360000000000e+00 -2.150000000000e+04 4.545259079631e-01 
4.000000000000e-02 0.000000000000e+00 1.400000000000e+00 -2.150000000000e+04 4.545259079631e-01 
4.000000000000e-02 0.000000000000e+00 1.440000000000e+00 -2.150000000000e+04 4.545259079631e-01 
4.000000000000e-02 0.000000000000e+00 1.480000000000e+00 -2.150000000002e+04 4.545259079629e-01 
4.000000000000e-02 0.000000000000e+00 1.560000000000e+00 -2.149999999989e+04 4.545259079645e-01 
0.000000000000e+00 0.000000000000e+00 9.600000000000e-01 -2.150000000002e+04 4.545259079629e-01 
2.000000000000e-02 0.000000000000e+00 1.000000000000e+00 -2.149999999992e+04 4.545259079641e-01 
2.000000000000e-02 0.000000000000e+00 9.600000000000e-01 -2.149999999992e+04 4.545259079641e-01 
0.000000000000e+00 0.000000000000e+00 1.040000000000e+00 -2.150000000000e+04 4.545259079631e-01 
2.000000000000e-02 0.000000000000e+00 1.040000000000e+00 -2.149999999996e+04 4.545259079636e-01 
4.000000000000e-02 0.000000000000e+00 1.040000000000e+00 -2.149999999998e+04 4.545259079634e-01 
0.000000000000e+00 0.000000000000e+00 1.520000000000e+00 -2.149999999996e+04 4.545259079636e-01 
2.000000000000e-02 0.000000000000e+00 1.520000000000e+00 -2.149999999996e+04 4.545259079636e-01 
4.000000000000e-02 0.000000000000e+00 1.520000000000e+00 -2.149999999990e+04 4.545259079643e-01 
2.000000000000e-02 0.000000000000e+00 9.200000000000e-01 -2.149999999998e+04 4.545259079634e-01 
4.000000000000e-02 0.000000000000e+00 9.200000000000e-01 -2.150000000002e+04 4.545259079629e-01 
4.000000000000e-02 0.000000000000e+00 1.000000000000e+00 -2.150000000002e+04 4.545259079629e-01 
2.000000000000e-02 0.000000000000e+00 1.560000000000e+00 -2.149999999989e+04 4.545259079645e-01 
2.000000000000e-02 0.000000000000e+00 1.600000000000e+00 -2.149999999996e+04 4.545259079636e-01 
4.000000000000e-02 0.000000000000e+00 1.600000000000e+00 -2.150000000002e+04 4.545259079629e-01 
2  4  5  3  
3  5  26  25  
4  6  7  5  
5  7  27  26  
6  8  9  7  
7  9  28  27  
8  10  11  9  
9  11  29  28  
10  12  13  11  
11  13  30  29  
12  14  15  13  
13  15  31  30  
14  16  17  15  
15  17  32  31  
16  18  19  17  
17  19  33  32  
18  20  21  19  
19  21  34  33  
20  22  23  21  
21  23  35  34  
37  1  38  39  
1  40  41  38  
40  2  3  41  
41  3  25  42  
22  43  44  23  
23  44  45  35  
46  39  24  47  
39  38  48  24  
44  49  36  45  
49  50  51  36  
VARIABLES  = "X","Y","Z", "PRESSURE1", "SATURATION1"
ZONE T="1.000000000000e-01s", N=51, E=30, F=FEPOINT, ET=QUADRILATERAL
STRANDID=1, SOLUTIONTIME=1.000000000000e-01
0.000000000000e+00 0.000000000000e+00 1.000000000000e+00 -2.149999999781e+04 4.545259079898e-01 
0.000000000000e+00 0.000000000000e+00 1.080000000000e+00 -2.149999999889e+04 4.545259079767e-01 
2.000000000000e-02 0.000000000000e+00 1.080000000000e+00 -2.149999999891e+04 4.545259079764e-01 
0.000000000000e+00 0.000000000000e+00 1.120000000000e+00 -2.149999999910e+04 4.545259079741e-01 
2.000000000000e-02 0.000000000000e+00 1.120000000000e+00 -2.149999999910e+04 4.545259079741e-01 
0.000000000000e+00 0.000000000000e+00 1.160000000000e+00 -2.149999999911e+04 4.545259079740e-01 
2.000000000000e-02 0.000000000000e+00 1.160000000000e+00 -2.149999999911e+04 4.545259079740e-01 
0.000000000000e+00 0.000000000000e+00 1.200000000000e+00 -2.149999999911e+04 4.545259079740e-01 
2.000000000000e-02 0.000000000000e+00 1.200000000000e+00 -2.149999999911e+04 4.545259079740e-01 
0.000000000000e+00 0.000000000000e+00 1.240000000000e+00 -2.149999999911e+04 4.545259079740e-01 
2.000000000000e-02 0.000000000000e+00 1.240000000000e+00 -2.149999999911e+04 4.545259079740e-01 
0.000000000000e+00 0.000000000000e+00 1.280000000000e+00 -2.149999999911e+04 4.545259079740e-01 
2.000000000000e-02 0.000000000000e+00 1.280000000000e+00 -2.149999999911e+04 4.545259079740e-01 
0.000000000000e+00 0.000000000000e+00 1.320000000000e+00 -2.149999999911e+04 4.545259079740e-01 
2.000000000000e-02 0.000000000000e+00 1.320000000000e+00 -2.149999999911e+04 4.545259079740e-01 
0.000000000000e+00 0.000000000000e+00 1.360000000000e+00 -2.149999999911e+04 4.545259079740e-01 
2.000000000000e-02 0.000000000000e+00 1.360000000000e+00 -2.149999999911e+04 4.545259079740e-01 
0.000000000000e+00 0.000000000000e+00 1.400000000000e+00 -2.149999999911e+04 4.545259079740e-01 
2.000000000000e-02 0.000000000000e+00 1.400000000000e+00 -2.149999999911e+04 4.545259079740e-01 
0.000000000000e+00 0.000000000000e+00 1.440000000000e+00 -2.149999999910e+04 4.545259079741e-01 
2.000000000000e-02 0.000000000000e+00 1.440000000000e+00 -2.149999999911e+04 4.545259079740e-01 
0.000000000000e+00 0.000000000000e+00 1.480000000000e+00 -2.149999999907e+04 4.545259079744e-01 
2.000000000000e-02 0.000000000000e+00 1.480000000000e+00 -2.149999999894e+04 4.545259079760e-01 
4.000000000000e-02 0.000000000000e+00 9.600000000000e-01 -2.149999999782e+04 4.545259079898e-01 
4.000000000000e-02 0.000000000000e+00 1.080000000000e+00 -2.149999999889e+04 4.545259079766e-01 
4.000000000000e-02 0.000000000000e+00 1.120000000000e+00 -2.149999999910e+04 4.545259079741e-01 
4.000000000000e-02 0.000000000000e+00 1.160000000000e+00 -2.149999999911e+04 4.545259079740e-01 
4.000000000000e-02 0.000000000000e+00 1.200000000000e+00 -2.149999999911e+04 4.545259079740e-01 
4.000000000000e-02 0.000000000000e+00 1.240000000000e+00 -2.149999999911e+04 4.545259079740e-01 
4.000000000000e-02 0.000000000000e+00 1.280000000000e+00 -2.149999999911e+04 4.545259079740e-01 
4.000000000000e-02 0.000000000000e+00 1.320000000000e+00 -2.149999999911e+04 4.545259079740e-01 
4.000000000000e-02 0.000000000000e+00 1.360000000000e+00 -2.149999999911e+04 4.545259079740e-01 
4.000000000000e-02 0.000000000000e+00 1.400000000000e+00 -2.149999999911e+04 4.545259079740e-01 
4.000000000000e-02 0.000000000000e+00 1.440000000000e+00 -2.149999999909e+04 4.545259079742e-01 
4.000000000000e-02 0.000000000000e+00 1.480000000000e+00 -2.149999999920e+04 4.545259079728e-01 
4.000000000000e-02 0.000000000000e+00 1.560000000000e+00 -2.149999999808e+04 4.545259079866e-01 
0.000000000000e+00 0.000000000000e+00 9.600000000000e-01 -2.149999999912e+04 4.545259079738e-01 
2.000000000000e-02 0.000000000000e+00 1.000000000000e+00 -2.149999999844e+04 4.545259079822e-01 
2.000000000000e-02 0.000000000000e+00 9.600000000000e-01 -2.149999999845e+04 4.545259079821e-01 
0.000000000000e+00 0.000000000000e+00 1.040000000000e+00 -2.149999999899e+04 4.545259079754e-01 
2.000000000000e-02 0.000000000000e+00 1.040000000000e+00 -2.149999999875e+04 4.545259079784e-01 
4.000000000000e-02 0.000000000000e+00 1.040000000000e+00 -2.149999999885e+04 4.545259079772e-01 
0.000000000000e+00 0.000000000000e+00 1.520000000000e+00 -2.149999999873e+04 4.545259079786e-01 
2.000000000000e-02 0.000000000000e+00 1.520000000000e+00 -2.149999999869e+04 4.545259079791e-01 
4.000000000000e-02 0.000000000000e+00 1.520000000000e+00 -2.149999999817e+04 4.545259079854e-01 
2.000000000000e-02 0.000000000000e+00 9.200000000000e-01 -2.149999999895e+04 4.545259079760e-01 
4.000000000000e-02 0.000000000000e+00 9.200000000000e-01 -2.149999999920e+04 4.545259079729e-01 
4.000000000000e-02 0.000000000000e+00 1.000000000000e+00 -2.149999999912e+04 4.545259079739e-01 
2.000000000000e-02 0.000000000000e+00 1.560000000000e+00 -2.149999999809e+04 4.545259079864e-01 
2.000000000000e-02 0.000000000000e+00 1.600000000000e+00 -2.149999999880e+04 4.545259079778e-01 
4.000000000000e-02 0.000000000000e+00 1.600000000000e+00 -2.149999999915e+04 4.545259079735e-01 
2  4  5  3  
3  5  26  25  
4  6  7  5  
5  7  27  26  
6  8  9  7  
7  9  28  27  
8  10  11  9  
9  11  29  28  
10  12  13  11  
11  13  30  29  
12  14  15  13  
13  15  31  30  
14  16  17  15  
15  17  32  31  
16  18  19  17  
17  19  33  32  
18  20  21  19  
19  21  34  33  
20  22  23  21  
21  23  35  34  
37  1  38  39  
1  40  41  38  
40  2  3  41  
41  3  25  42  
22  43  44  23  
23  44  45  35  
46  39  24  47  
39  38  48  24  
44  49  36  45  
49  50  51  36  
VARIABLES  = "X","Y","Z", "PRESSURE1", "SATURATION1"
ZONE T="1.000000000000e+00s", N=51, E=30, F=FEPOINT, ET=QUADRILATERAL
STRANDID=1, SOLUTIONTIME=1.000000000000e+00
0.000000000000e+00 0.000000000000e+00 1.000000000000e+00 -2.149999985644e+04 4.545259097150e-01 
0.000000000000e+00 0.000000000000e+00 1.080000000000e+00 -2.149999986949e+04 4.545259095557e-01 
2.000000000000e-02 0.000000000000e+00 1.080000000000e+00 -2.149999986976e+04 4.545259095524e-01 
0.000000000000e+00 0.000000000000e+00 1.120000000000e+00 -2.149999987212e+04 4.545259095236e-01 
2.000000000000e-02 0.000000000000e+00 1.120000000000e+00 -2.149999987212e+04 4.545259095236e-01 
0.000000000000e+00 0.000000000000e+00 1.160000000000e+00 -2.149999987221e+04 4.545259095225e-01 
2.000000000000e-02 0.000000000000e+00 1.160000000000e+00 -2.149999987221e+04 4.545259095225e-01 
0.000000000000e+00 0.000000000000e+00 1.200000000000e+00 -2.149999987221e+04 4.545259095225e-01 
2.000000000000e-02 0.000000000000e+00 1.200000000000e+00 -2.149999987221e+04 4.545259095225e-01 
0.000000000000e+00 0.000000000000e+00 1.240000000000e+00 -2.149999987221e+04 4.545259095225e-01 
2.000000000000e-02 0.000000000000e+00 1.240000000000e+00 -2.149999987221e+04 4.545259095225e-01 
0.000000000000e+00 0.000000000000e+00 1.280000000000e+00 -2.149999987221e+04 4.545259095225e-01 
2.000000000000e-02 0.000000000000e+00 1.280000000000e+00 -2.149999987221e+04 4.545259095225e-01 
0.000000000000e+00 0.000000000000e+00 1.320000000000e+00 -2.149999987221e+04 4.545259095225e-01 
2.000000000000e-02 0.000000000000e+00 1.320000000000e+00 -2.149999987221e+04 4.545259095225e-01 
0.000000000000e+00 0.000000000000e+00 1.360000000000e+00 -2.149999987221e+04 4.545259095225e-01 
2.000000000000e-02 0.000000000000e+00 1.360000000000e+00 -2.149999987221e+04 4.545259095225e-01 
0.000000000000e+00 0.000000000000e+00 1.400000000000e+00 -2.149999987221e+04 4.545259095225e-01 
2.000000000000e-02 0.000000000000e+00 1.400000000000e+00 -2.149999987221e+04 4.545259095225e-01 
0.000000000000e+00 0.000000000000e+00 1.440000000000e+00 -2.149999987209e+04 4.545259095240e-01 
2.000000000000e-02 0.000000000000e+00 1.440000000000e+00 -2.149999987231e+04 4.545259095212e-01 
0.000000000000e+00 0.000000000000e+00 1.480000000000e+00 -2.149999987171e+04 4.545259095286e-01 
2.000000000000e-02 0.000000000000e+00 1.480000000000e+00 -2.149999987024e+04 4.545259095465e-01 
4.000000000000e-02 0.000000000000e+00 9.600000000000e-01 -2.149999985653e+04 4.545259097138e-01 
4.000000000000e-02 0.000000000000e+00 1.080000000000e+00 -2.149999986953e+04 4.545259095552e-01 
4.000000000000e-02 0.000000000000e+00 1.120000000000e+00 -2.149999987212e+04 4.545259095236e-01 
4.000000000000e-02 0.000000000000e+00 1.160000000000e+00 -2.149999987221e+04 4.545259095225e-01 
4.000000000000e-02 0.000000000000e+00 1.200000000000e+00 -2.149999987221e+04 4.545259095225e-01 
4.000000000000e-02 0.000000000000e+00 1.240000000000e+00 -2.149999987221e+04 4.545259095225e-01 
4.000000000000e-02 0.000000000000e+00 1.280000000000e+00 -2.149999987221e+04 4.545259095225e-01 
4.000000000000e-02 0.000000000000e+00 1.320000000000e+00 -2.149999987221e+04 4.545259095225e-01 
4.000000000000e-02 0.000000000000e+00 1.360000000000e+00 -2.149999987221e+04 4.545259095225e-01 
4.000000000000e-02 0.000000000000e+00 1.400000000000e+00 -2.149999987221e+04 4.545259095225e-01 
4.000000000000e-02 0.000000000000e+00 1.440000000000e+00 -2.149999987205e+04 4.545259095245e-01 
4.000000000000e-02 0.000000000000e+00 1.480000000000e+00 -2.149999987328e+04 4.545259095094e-01 
4.000000000000e-02 0.000000000000e+00 1.560000000000e+00 -2.149999985967e+04 4.545259096755e-01 
0.000000000000e+00 0.000000000000e+00 9.600000000000e-01 -2.149999987205e+04 4.545259095244e-01 
2.000000000000e-02 0.000000000000e+00 1.000000000000e+00 -2.149999986418e+04 4.545259096205e-01 
2.000000000000e-02 0.000000000000e+00 9.600000000000e-01 -2.149999986427e+04 4.545259096194e-01 
0.000000000000e+00 0.000000000000e+00 1.040000000000e+00 -2.149999987060e+04 4.545259095421e-01 
2.000000000000e-02 0.000000000000e+00 1.040000000000e+00 -2.149999986782e+04 4.545259095761e-01 
4.000000000000e-02 0.000000000000e+00 1.040000000000e+00 -2.149999986879e+04 4.545259095642e-01 
0.000000000000e+00 0.000000000000e+00 1.520000000000e+00 -2.149999986758e+04 4.545259095790e-01 
2.000000000000e-02 0.000000000000e+00 1.520000000000e+00 -2.149999986698e+04 4.545259095864e-01 
4.000000000000e-02 0.000000000000e+00 1.520000000000e+00 -2.149999986069e+04 4.545259096630e-01 
2.000000000000e-02 0.000000000000e+00 9.200000000000e-01 -2.149999987038e+04 4.545259095449e-01 
4.000000000000e-02 0.000000000000e+00 9.200000000000e-01 -2.149999987316e+04 4.545259095109e-01 
4.000000000000e-02 0.000000000000e+00 1.000000000000e+00 -2.149999987196e+04 4.545259095255e-01 
2.000000000000e-02 0.000000000000e+00 1.560000000000e+00 -2.149999985983e+04 4.545259096735e-01 
2.000000000000e-02 0.000000000000e+00 1.600000000000e+00 -2.149999986855e+04 4.545259095671e-01 
4.000000000000e-02 0.000000000000e+00 1.600000000000e+00 -2.149999987246e+04 4.545259095195e-01 
2  4  5  3  
3  5  26  25  
4  6  7  5  
5  7  27  26  
6  8  9  7  
7  9  28  27  
8  10  11  9  
9  11  29  28  
10  12  13  11  
11  13  30  29  
12  14  15  13  
13  15  31  30  
14  16  17  15  
15  17  32  31  
16  18  19  17  
17  19  33  32  
18  20  21  19  
19  21  34  33  
20  22  23  21  
21  23  35  34  
37  1  38  39  
1  40  41  38  
40  2  3  41  
41  3  25  42  
22  43  44  23  
23  44  45  35  
46  39  24  47  
39  38  48  24  
44  49  36  45  
49  50  51  36  
VARIABLES  = "X","Y","Z", "PRESSURE1", "SATURATION1"
ZONE T="1.800000000000e+02s", N=51, E=30, F=FEPOINT, ET=QUADRILATERAL
STRANDID=1, SOLUTIONTIME=1.800000000000e+02
0.000000000000e+00 0.000000000000e+00 1.000000000000e+00 -2.149975857894e+04 4.545288539433e-01 
0.000000000000e+00 0.000000000000e+00 1.080000000000e+00 -2.149976187817e+04 4.545288136839e-01 
2.000000000000e-02 0.000000000000e+00 1.080000000000e+00 -2.149976191100e+04 4.545288132833e-01 
0.000000000000e+00 0.000000000000e+00 1.120000000000e+00 -2.149976250207e+04 4.545288060706e-01 
2.000000000000e-02 0.000000000000e+00 1.120000000000e+00 -2.149976250151e+04 4.545288060775e-01 
0.000000000000e+00 0.000000000000e+00 1.160000000000e+00 -2.149976251042e+04 4.545288059688e-01 
2.000000000000e-02 0.000000000000e+00 1.160000000000e+00 -2.149976251043e+04 4.545288059687e-01 
0.000000000000e+00 0.000000000000e+00 1.200000000000e+00 -2.149976251041e+04 4.545288059689e-01 
2.000000000000e-02 0.000000000000e+00 1.200000000000e+00 -2.149976251041e+04 4.545288059689e-01 
0.000000000000e+00 0.000000000000e+00 1.240000000000e+00 -2.149976251041e+04 4.545288059689e-01 
2.000000000000e-02 0.000000000000e+00 1.240000000000e+00 -2.149976251041e+04 4.545288059689e-01 
0.000000000000e+00 0.000000000000e+00 1.280000000000e+00 -2.149976251041e+04 4.545288059689e-01 
2.000000000000e-02 0.000000000000e+00 1.280000000000e+00 -2.149976251041e+04 4.545288059689e-01 
0.000000000000e+00 0.000000000000e+00 1.320000000000e+00 -2.149976251041e+04 4.545288059689e-01 
2.000000000000e-02 0.000000000000e+00 1.320000000000e+00 -2.149976251041e+04 4.545288059689e-01 
0.000000000000e+00 0.000000000000e+00 1.360000000000e+00 -2.149976251041e+04 4.545288059690e-01 
2.000000000000e-02 0.000000000000e+00 1.360000000000e+00 -2.149976251041e+04 4.545288059689e-01 
0.000000000000e+00 0.000000000000e+00 1.400000000000e+00 -2.149976251065e+04 4.545288059659e-01 
2.000000000000e-02 0.000000000000e+00 1.400000000000e+00 -2.149976251014e+04 4.545288059721e-01 
0.000000000000e+00 0.000000000000e+00 1.440000000000e+00 -2.149976249629e+04 4.545288061412e-01 
2.000000000000e-02 0.000000000000e+00 1.440000000000e+00 -2.149976252331e+04 4.545288058115e-01 
0.000000000000e+00 0.000000000000e+00 1.480000000000e+00 -2.149976245262e+04 4.545288066741e-01 
2.000000000000e-02 0.000000000000e+00 1.480000000000e+00 -2.149976202323e+04 4.545288119137e-01 
4.000000000000e-02 0.000000000000e+00 9.600000000000e-01 -2.149975858760e+04 4.545288538376e-01 
4.000000000000e-02 0.000000000000e+00 1.080000000000e+00 -2.149976188492e+04 4.545288136016e-01 
4.000000000000e-02 0.000000000000e+00 1.120000000000e+00 -2.149976250201e+04 4.545288060713e-01 
4.000000000000e-02 0.000000000000e+00 1.160000000000e+00 -2.149976251042e+04 4.545288059688e-01 
4.000000000000e-02 0.000000000000e+00 1.200000000000e+00 -2.149976251041e+04 4.545288059689e-01 
4.000000000000e-02 0.000000000000e+00 1.240000000000e+00 -2.149976251041e+04 4.545288059689e-01 
4.000000000000e-02 0.000000000000e+00 1.280000000000e+00 -2.149976251041e+04 4.545288059689e-01 
4.000000000000e-02 0.000000000000e+00 1.320000000000e+00 -2.149976251041e+04 4.545288059689e-01 
4.000000000000e-02 0.000000000000e+00 1.360000000000e+00 -2.149976251040e+04 4.545288059690e-01 
4.000000000000e-02 0.000000000000e+00 1.400000000000e+00 -2.149976251071e+04 4.545288059653e-01 
4.000000000000e-02 0.000000000000e+00 1.440000000000e+00 -2.149976248996e+04 4.545288062185e-01 
4.000000000000e-02 0.000000000000e+00 1.480000000000e+00 -2.149976285063e+04 4.545288018173e-01 
4.000000000000e-02 0.000000000000e+00 1.560000000000e+00 -2.149975948248e+04 4.545288429178e-01 
0.000000000000e+00 0.000000000000e+00 9.600000000000e-01 -2.149976270394e+04 4.545288036074e-01 
2.000000000000e-02 0.000000000000e+00 1.000000000000e+00 -2.149976058676e+04 4.545288294426e-01 
2.000000000000e-02 0.000000000000e+00 9.600000000000e-01 -2.149976059503e+04 4.545288293416e-01 
0.000000000000e+00 0.000000000000e+00 1.040000000000e+00 -2.149976222990e+04 4.545288093919e-01 
2.000000000000e-02 0.000000000000e+00 1.040000000000e+00 -2.149976142946e+04 4.545288191594e-01 
4.000000000000e-02 0.000000000000e+00 1.040000000000e+00 -2.149976179394e+04 4.545288147118e-01 
0.000000000000e+00 0.000000000000e+00 1.520000000000e+00 -2.149976145281e+04 4.545288188744e-01 
2.000000000000e-02 0.000000000000e+00 1.520000000000e+00 -2.149976138155e+04 4.545288197440e-01 
4.000000000000e-02 0.000000000000e+00 1.520000000000e+00 -2.149975960287e+04 4.545288414486e-01 
2.000000000000e-02 0.000000000000e+00 9.200000000000e-01 -2.149976204100e+04 4.545288116969e-01 
4.000000000000e-02 0.000000000000e+00 9.200000000000e-01 -2.149976284096e+04 4.545288019353e-01 
4.000000000000e-02 0.000000000000e+00 1.000000000000e+00 -2.149976269616e+04 4.545288037023e-01 
2.000000000000e-02 0.000000000000e+00 1.560000000000e+00 -2.149975955080e+04 4.545288420840e-01 
2.000000000000e-02 0.000000000000e+00 1.600000000000e+00 -2.149976157224e+04 4.545288174170e-01 
4.000000000000e-02 0.000000000000e+00 1.600000000000e+00 -2.149976275407e+04 4.545288029955e-01 
2  4  5  3  
3  5  26  25  
4  6  7  5  
5  7  27  26  
6  8  9  7  
7  9  28  27  
8  10  11  9  
9  11  29  28  
10  12  13  11  
11  13  30  29  
12  14  15  13  
13  15  31  30  
14  16  17  15  
15  17  32  31  
16  18  19  17  
17  19  33  32  
18  20  21  19  
19  21  34  33  
20  22  23  21  
21  23  35  34  
37  1  38  39  
1  40  41  38  
40  2  3  41  
41  3  25  42  
22  43  44  23  
23  44  45  35  
46  39  24  47  
39  38  48  24  
44  49  36  45  
49  50  51  36  
VARIABLES  = "X","Y","Z", "PRESSURE1", "SATURATION1"
ZONE T="1.800000000000e+03s", N=51, E=30, F=FEPOINT, ET=QUADRILATERAL
STRANDID=1, SOLUTIONTIME=1.800000000000e+03
0.000000000000e+00 0.000000000000e+00 1.000000000000e+00 -2.149699424359e+04 4.545625862000e-01 
0.000000000000e+00 0.000000000000e+00 1.080000000000e+00 -2.149701218354e+04 4.545623672848e-01 
2.000000000000e-02 0.000000000000e+00 1.080000000000e+00 -2.149701269583e+04 4.545623610335e-01 
0.000000000000e+00 0.000000000000e+00 1.120000000000e+00 -2.149701618521e+04 4.545623184538e-01 
2.000000000000e-02 0.000000000000e+00 1.120000000000e+00 -2.149701614241e+04 4.545623189761e-01 
0.000000000000e+00 0.000000000000e+00 1.160000000000e+00 -2.149701634094e+04 4.545623165535e-01 
2.000000000000e-02 0.000000000000e+00 1.160000000000e+00 -2.149701634364e+04 4.545623165205e-01 
0.000000000000e+00 0.000000000000e+00 1.200000000000e+00 -2.149701634277e+04 4.545623165311e-01 
2.000000000000e-02 0.000000000000e+00 1.200000000000e+00 -2.149701634264e+04 4.545623165328e-01 
0.000000000000e+00 0.000000000000e+00 1.240000000000e+00 -2.149701634256e+04 4.545623165337e-01 
2.000000000000e-02 0.000000000000e+00 1.240000000000e+00 -2.149701634257e+04 4.545623165336e-01 
0.000000000000e+00 0.000000000000e+00 1.280000000000e+00 -2.149701634255e+04 4.545623165338e-01 
2.000000000000e-02 0.000000000000e+00 1.280000000000e+00 -2.149701634256e+04 4.545623165336e-01 
0.000000000000e+00 0.000000000000e+00 1.320000000000e+00 -2.149701634263e+04 4.545623165329e-01 
2.000000000000e-02 0.000000000000e+00 1.320000000000e+00 -2.149701634249e+04 4.545623165346e-01 
0.000000000000e+00 0.000000000000e+00 1.360000000000e+00 -2.149701634130e+04 4.545623165490e-01 
2.000000000000e-02 0.000000000000e+00 1.360000000000e+00 -2.149701634398e+04 4.545623165163e-01 
0.000000000000e+00 0.000000000000e+00 1.400000000000e+00 -2.149701636154e+04 4.545623163020e-01 
2.000000000000e-02 0.000000000000e+00 1.400000000000e+00 -2.149701632119e+04 4.545623167945e-01 