VARIABLES  = "X","Y","Z", "PRESSURE1", "SATURATION1"
ZONE T="0.000000000000e+00s", N=48, E=30, F=FEPOINT, ET=QUADRILATERAL
STRANDID=1, SOLUTIONTIME=0.000000000000e+00
2.000000000000e-02 0.000000000000e+00 5.200000000000e-01 -2.150000000000e+04 4.545259079631e-01 
0.000000000000e+00 0.000000000000e+00 5.600000000000e-01 -2.150000000000e+04 4.545259079631e-01 
2.000000000000e-02 0.000000000000e+00 5.600000000000e-01 -2.150000000000e+04 4.545259079631e-01 
0.000000000000e+00 0.000000000000e+00 6.000000000000e-01 -2.150000000000e+04 4.545259079631e-01 
2.000000000000e-02 0.000000000000e+00 6.000000000000e-01 -2.150000000000e+04 4.545259079631e-01 
0.000000000000e+00 0.000000000000e+00 6.400000000000e-01 -2.150000000000e+04 4.545259079631e-01 
2.000000000000e-02 0.000000000000e+00 6.400000000000e-01 -2.150000000000e+04 4.545259079631e-01 
0.000000000000e+00 0.000000000000e+00 6.800000000000e-01 -2.150000000000e+04 4.545259079631e-01 
2.000000000000e-02 0.000000000000e+00 6.800000000000e-01 -2.150000000000e+04 4.545259079631e-01 
0.000000000000e+00 0.000000000000e+00 7.200000000000e-01 -2.150000000000e+04 4.545259079631e-01 
2.000000000000e-02 0.000000000000e+00 7.200000000000e-01 -2.150000000000e+04 4.545259079631e-01 
0.000000000000e+00 0.000000000000e+00 7.600000000000e-01 -2.150000000000e+04 4.545259079631e-01 
2.000000000000e-02 0.000000000000e+00 7.600000000000e-01 -2.150000000000e+04 4.545259079631e-01 
0.000000000000e+00 0.000000000000e+00 8.000000000000e-01 -2.150000000000e+04 4.545259079631e-01 
2.000000000000e-02 0.000000000000e+00 8.000000000000e-01 -2.150000000000e+04 4.545259079631e-01 
0.000000000000e+00 0.000000000000e+00 8.400000000000e-01 -2.150000000000e+04 4.545259079631e-01 
2.000000000000e-02 0.000000000000e+00 8.400000000000e-01 -2.150000000000e+04 4.545259079631e-01 
0.000000000000e+00 0.000000000000e+00 8.800000000000e-01 -2.150000000000e+04 4.545259079631e-01 
2.000000000000e-02 0.000000000000e+00 8.800000000000e-01 -2.150000000000e+04 4.545259079631e-01 
0.000000000000e+00 0.000000000000e+00 9.200000000000e-01 -2.150000000000e+04 4.545259079631e-01 
2.000000000000e-02 0.000000000000e+00 9.200000000000e-01 -2.150000000000e+04 4.545259079631e-01 
0.000000000000e+00 0.000000000000e+00 9.600000000000e-01 -2.150000000000e+04 4.545259079631e-01 
2.000000000000e-02 0.000000000000e+00 9.600000000000e-01 -2.150000000000e+04 4.545259079631e-01 
2.000000000000e-02 0.000000000000e+00 1.000000000000e+00 -2.150000000000e+04 4.545259079631e-01 
0.000000000000e+00 0.000000000000e+00 1.040000000000e+00 -2.150000000000e+04 4.545259079631e-01 
2.000000000000e-02 0.000000000000e+00 1.040000000000e+00 -2.150000000000e+04 4.545259079631e-01 
4.000000000000e-02 0.000000000000e+00 5.200000000000e-01 -2.150000000000e+04 4.545259079631e-01 
4.000000000000e-02 0.000000000000e+00 5.600000000000e-01 -2.150000000000e+04 4.545259079631e-01 
4.000000000000e-02 0.000000000000e+00 6.000000000000e-01 -2.150000000000e+04 4.545259079631e-01 
4.000000000000e-02 0.000000000000e+00 6.400000000000e-01 -2.150000000000e+04 4.545259079631e-01 
4.000000000000e-02 0.000000000000e+00 6.800000000000e-01 -2.150000000000e+04 4.545259079631e-01 
4.000000000000e-02 0.000000000000e+00 7.200000000000e-01 -2.150000000000e+04 4.545259079631e-01 
4.000000000000e-02 0.000000000000e+00 7.600000000000e-01 -2.150000000000e+04 4.545259079631e-01 
4.000000000000e-02 0.000000000000e+00 8.000000000000e-01 -2.150000000000e+04 4.545259079631e-01 
4.000000000000e-02 0.000000000000e+00 8.400000000000e-01 -2.150000000000e+04 4.545259079631e-01 
4.000000000000e-02 0.000000000000e+00 8.800000000000e-01 -2.150000000000e+04 4.545259079631e-01 
4.000000000000e-02 0.000000000000e+00 9.200000000000e-01 -2.150000000000e+04 4.545259079631e-01 
4.000000000000e-02 0.000000000000e+00 1.000000000000e+00 -2.150000000000e+04 4.545259079631e-01 
4.000000000000e-02 0.000000000000e+00 1.040000000000e+00 -2.150000000000e+04 4.545259079631e-01 
0.000000000000e+00 0.000000000000e+00 4.800000000000e-01 -2.150000000000e+04 4.545259079631e-01 
0.000000000000e+00 0.000000000000e+00 5.200000000000e-01 -2.150000000000e+04 4.545259079631e-01 
2.000000000000e-02 0.000000000000e+00 4.800000000000e-01 -2.150000000000e+04 4.545259079631e-01 
4.000000000000e-02 0.000000000000e+00 4.800000000000e-01 -2.150000000000e+04 4.545259079631e-01 
4.000000000000e-02 0.000000000000e+00 9.600000000000e-01 -2.150000000000e+04 4.545259079631e-01 
0.000000000000e+00 0.000000000000e+00 1.000000000000e+00 -2.150000000000e+04 4.545259079631e-01 
0.000000000000e+00 0.000000000000e+00 1.080000000000e+00 -2.150000000000e+04 4.545259079631e-01 
2.000000000000e-02 0.000000000000e+00 1.080000000000e+00 -2.150000000000e+04 4.545259079631e-01 
4.000000000000e-02 0.000000000000e+00 1.080000000000e+00 -2.150000000000e+04 4.545259079631e-01 
1  3  28  27  
2  4  5  3  
3  5  29  28  
4  6  7  5  
5  7  30  29  
6  8  9  7  
7  9  31  30  
8  10  11  9  
9  11  32  31  
10  12  13  11  
11  13  33  32  
12  14  15  13  
13  15  34  33  
14  16  17  15  
15  17  35  34  
16  18  19  17  
17  19  36  35  
18  20  21  19  
19  21  37  36  
20  22  23  21  
24  26  39  38  
40  41  1  42  
41  2  3  1  
42  1  27  43  
21  23  44  37  
22  45  24  23  
23  24  38  44  
45  25  26  24  
25  46  47  26  
26  47  48  39  
VARIABLES  = "X","Y","Z", "PRESSURE1", "SATURATION1"
ZONE T="1.000000000000e-02s", N=48, E=30, F=FEPOINT, ET=QUADRILATERAL
STRANDID=1, SOLUTIONTIME=1.000000000000e-02
2.000000000000e-02 0.000000000000e+00 5.200000000000e-01 -2.149999999992e+04 4.545259079640e-01 
0.000000000000e+00 0.000000000000e+00 5.600000000000e-01 -2.149999999998e+04 4.545259079634e-01 
2.000000000000e-02 0.000000000000e+00 5.600000000000e-01 -2.150000000000e+04 4.545259079631e-01 
0.000000000000e+00 0.000000000000e+00 6.000000000000e-01 -2.150000000000e+04 4.545259079631e-01 
2.000000000000e-02 0.000000000000e+00 6.000000000000e-01 -2.150000000000e+04 4.545259079631e-01 
0.000000000000e+00 0.000000000000e+00 6.400000000000e-01 -2.150000000000e+04 4.545259079631e-01 
2.000000000000e-02 0.000000000000e+00 6.400000000000e-01 -2.150000000000e+04 4.545259079631e-01 
0.000000000000e+00 0.000000000000e+00 6.800000000000e-01 -2.150000000000e+04 4.545259079631e-01 
2.000000000000e-02 0.000000000000e+00 6.800000000000e-01 -2.150000000000e+04 4.545259079631e-01 
0.000000000000e+00 0.000000000000e+00 7.200000000000e-01 -2.150000000000e+04 4.545259079631e-01 
2.000000000000e-02 0.000000000000e+00 7.200000000000e-01 -2.150000000000e+04 4.545259079631e-01 
0.000000000000e+00 0.000000000000e+00 7.600000000000e-01 -2.150000000000e+04 4.545259079631e-01 
2.000000000000e-02 0.000000000000e+00 7.600000000000e-01 -2.150000000000e+04 4.545259079631e-01 
0.000000000000e+00 0.000000000000e+00 8.000000000000e-01 -2.150000000000e+04 4.545259079631e-01 
2.000000000000e-02 0.000000000000e+00 8.000000000000e-01 -2.150000000000e+04 4.545259079631e-01 
0.000000000000e+00 0.000000000000e+00 8.400000000000e-01 -2.150000000000e+04 4.545259079631e-01 
2.000000000000e-02 0.000000000000e+00 8.400000000000e-01 -2.150000000000e+04 4.545259079631e-01 
0.000000000000e+00 0.000000000000e+00 8.800000000000e-01 -2.150000000000e+04 4.545259079631e-01 
2.000000000000e-02 0.000000000000e+00 8.800000000000e-01 -2.150000000000e+04 4.545259079631e-01 
0.000000000000e+00 0.000000000000e+00 9.200000000000e-01 -2.150000000000e+04 4.545259079631e-01 
2.000000000000e-02 0.000000000000e+00 9.200000000000e-01 -2.149999999998e+04 4.545259079634e-01 
0.000000000000e+00 0.000000000000e+00 9.600000000000e-01 -2.150000000002e+04 4.545259079629e-01 
2.000000000000e-02 0.000000000000e+00 9.600000000000e-01 -2.149999999992e+04 4.545259079641e-01 
2.000000000000e-02 0.000000000000e+00 1.000000000000e+00 -2.149999999992e+04 4.545259079641e-01 
0.000000000000e+00 0.000000000000e+00 1.040000000000e+00 -2.150000000000e+04 4.545259079631e-01 
2.000000000000e-02 0.000000000000e+00 1.040000000000e+00 -2.149999999996e+04 4.545259079636e-01 
4.000000000000e-02 0.000000000000e+00 5.200000000000e-01 -2.149999999988e+04 4.545259079646e-01 
4.000000000000e-02 0.000000000000e+00 5.600000000000e-01 -2.149999999996e+04 4.545259079636e-01 
4.000000000000e-02 0.000000000000e+00 6.000000000000e-01 -2.150000000000e+04 4.545259079631e-01 
4.000000000000e-02 0.000000000000e+00 6.400000000000e-01 -2.150000000000e+04 4.545259079631e-01 
4.000000000000e-02 0.000000000000e+00 6.800000000000e-01 -2.150000000000e+04 4.545259079631e-01 
4.000000000000e-02 0.000000000000e+00 7.200000000000e-01 -2.150000000000e+04 4.545259079631e-01 
4.000000000000e-02 0.000000000000e+00 7.600000000000e-01 -2.150000000000e+04 4.545259079631e-01 
4.000000000000e-02 0.000000000000e+00 8.000000000000e-01 -2.150000000000e+04 4.545259079631e-01 
4.000000000000e-02 0.000000000000e+00 8.400000000000e-01 -2.150000000000e+04 4.545259079631e-01 
4.000000000000e-02 0.000000000000e+00 8.800000000000e-01 -2.150000000000e+04 4.545259079631e-01 
4.000000000000e-02 0.000000000000e+00 9.200000000000e-01 -2.150000000002e+04 4.545259079629e-01 
4.000000000000e-02 0.000000000000e+00 1.000000000000e+00 -2.150000000002e+04 4.545259079629e-01 
4.000000000000e-02 0.000000000000e+00 1.040000000000e+00 -2.149999999998e+04 4.545259079634e-01 
0.000000000000e+00 0.000000000000e+00 4.800000000000e-01 -2.150000000000e+04 4.545259079631e-01 
0.000000000000e+00 0.000000000000e+00 5.200000000000e-01 -2.149999999998e+04 4.545259079633e-01 
2.000000000000e-02 0.000000000000e+00 4.800000000000e-01 -2.149999999998e+04 4.545259079634e-01 
4.000000000000e-02 0.000000000000e+00 4.800000000000e-01 -2.150000000002e+04 4.545259079629e-01 
4.000000000000e-02 0.000000000000e+00 9.600000000000e-01 -2.149999999985e+04 4.545259079649e-01 
0.000000000000e+00 0.000000000000e+00 1.000000000000e+00 -2.149999999985e+04 4.545259079649e-01 
0.000000000000e+00 0.000000000000e+00 1.080000000000e+00 -2.149999999998e+04 4.545259079634e-01 
2.000000000000e-02 0.000000000000e+00 1.080000000000e+00 -2.149999999998e+04 4.545259079633e-01 
4.000000000000e-02 0.000000000000e+00 1.080000000000e+00 -2.149999999998e+04 4.545259079634e-01 
1  3  28  27  
2  4  5  3  
3  5  29  28  
4  6  7  5  
5  7  30  29  
6  8  9  7  
7  9  31  30  
8  10  11  9  
9  11  32  31  
10  12  13  11  
11  13  33  32  
12  14  15  13  
13  15  34  33  
14  16  17  15  
15  17  35  34  
16  18  19  17  
17  19  36  35  
18  20  21  19  
19  21  37  36  
20  22  23  21  
24  26  39  38  
40  41  1  42  
41  2  3  1  
42  1  27  43  
21  23  44  37  
22  45  24  23  
23  24  38  44  
45  25  26  24  
25  46  47  26  
26  47  48  39  
VARIABLES  = "X","Y","Z", "PRESSURE1", "SATURATION1"
ZONE T="1.000000000000e-01s", N=48, E=30, F=FEPOINT, ET=QUADRILATERAL
STRANDID=1, SOLUTIONTIME=1.000000000000e-01
2.000000000000e-02 0.000000000000e+00 5.200000000000e-01 -2.149999999842e+04 4.545259079824e-01 
0.000000000000e+00 0.000000000000e+00 5.600000000000e-01 -2.149999999890e+04 4.545259079766e-01 
2.000000000000e-02 0.000000000000e+00 5.600000000000e-01 -2.149999999902e+04 4.545259079750e-01 
0.000000000000e+00 0.000000000000e+00 6.000000000000e-01 -2.149999999911e+04 4.545259079740e-01 
2.000000000000e-02 0.000000000000e+00 6.000000000000e-01 -2.149999999909e+04 4.545259079742e-01 
0.000000000000e+00 0.000000000000e+00 6.400000000000e-01 -2.149999999911e+04 4.545259079740e-01 
2.000000000000e-02 0.000000000000e+00 6.400000000000e-01 -2.149999999911e+04 4.545259079740e-01 
0.000000000000e+00 0.000000000000e+00 6.800000000000e-01 -2.149999999911e+04 4.545259079740e-01 
2.000000000000e-02 0.000000000000e+00 6.800000000000e-01 -2.149999999911e+04 4.545259079740e-01 
0.000000000000e+00 0.000000000000e+00 7.200000000000e-01 -2.149999999911e+04 4.545259079740e-01 
2.000000000000e-02 0.000000000000e+00 7.200000000000e-01 -2.149999999911e+04 4.545259079740e-01 
0.000000000000e+00 0.000000000000e+00 7.600000000000e-01 -2.149999999911e+04 4.545259079740e-01 
2.000000000000e-02 0.000000000000e+00 7.600000000000e-01 -2.149999999911e+04 4.545259079740e-01 
0.000000000000e+00 0.000000000000e+00 8.000000000000e-01 -2.149999999911e+04 4.545259079740e-01 
2.000000000000e-02 0.000000000000e+00 8.000000000000e-01 -2.149999999911e+04 4.545259079740e-01 
0.000000000000e+00 0.000000000000e+00 8.400000000000e-01 -2.149999999911e+04 4.545259079740e-01 
2.000000000000e-02 0.000000000000e+00 8.400000000000e-01 -2.149999999911e+04 4.545259079740e-01 
0.000000000000e+00 0.000000000000e+00 8.800000000000e-01 -2.149999999910e+04 4.545259079741e-01 
2.000000000000e-02 0.000000000000e+00 8.800000000000e-01 -2.149999999911e+04 4.545259079740e-01 
0.000000000000e+00 0.000000000000e+00 9.200000000000e-01 -2.149999999905e+04 4.545259079747e-01 
2.000000000000e-02 0.000000000000e+00 9.200000000000e-01 -2.149999999895e+04 4.545259079760e-01 
0.000000000000e+00 0.000000000000e+00 9.600000000000e-01 -2.149999999912e+04 4.545259079738e-01 
2.000000000000e-02 0.000000000000e+00 9.600000000000e-01 -2.149999999845e+04 4.545259079821e-01 
2.000000000000e-02 0.000000000000e+00 1.000000000000e+00 -2.149999999844e+04 4.545259079822e-01 
0.000000000000e+00 0.000000000000e+00 1.040000000000e+00 -2.149999999899e+04 4.545259079754e-01 
2.000000000000e-02 0.000000000000e+00 1.040000000000e+00 -2.149999999875e+04 4.545259079784e-01 
4.000000000000e-02 0.000000000000e+00 5.200000000000e-01 -2.149999999803e+04 4.545259079872e-01 
4.000000000000e-02 0.000000000000e+00 5.600000000000e-01 -2.149999999880e+04 4.545259079778e-01 
4.000000000000e-02 0.000000000000e+00 6.000000000000e-01 -2.149999999911e+04 4.545259079740e-01 
4.000000000000e-02 0.000000000000e+00 6.400000000000e-01 -2.149999999911e+04 4.545259079740e-01 
4.000000000000e-02 0.000000000000e+00 6.800000000000e-01 -2.149999999911e+04 4.545259079740e-01 
4.000000000000e-02 0.000000000000e+00 7.200000000000e-01 -2.149999999911e+04 4.545259079740e-01 
4.000000000000e-02 0.000000000000e+00 7.600000000000e-01 -2.149999999911e+04 4.545259079740e-01 
4.000000000000e-02 0.000000000000e+00 8.000000000000e-01 -2.149999999911e+04 4.545259079740e-01 
4.000000000000e-02 0.000000000000e+00 8.400000000000e-01 -2.149999999911e+04 4.545259079740e-01 
4.000000000000e-02 0.000000000000e+00 8.800000000000e-01 -2.149999999909e+04 4.545259079742e-01 
4.000000000000e-02 0.000000000000e+00 9.200000000000e-01 -2.149999999920e+04 4.545259079729e-01 
4.000000000000e-02 0.000000000000e+00 1.000000000000e+00 -2.149999999912e+04 4.545259079739e-01 
4.000000000000e-02 0.000000000000e+00 1.040000000000e+00 -2.149999999885e+04 4.545259079772e-01 
0.000000000000e+00 0.000000000000e+00 4.800000000000e-01 -2.149999999905e+04 4.545259079747e-01 
0.000000000000e+00 0.000000000000e+00 5.200000000000e-01 -2.149999999884e+04 4.545259079773e-01 
2.000000000000e-02 0.000000000000e+00 4.800000000000e-01 -2.149999999895e+04 4.545259079760e-01 
4.000000000000e-02 0.000000000000e+00 4.800000000000e-01 -2.149999999919e+04 4.545259079730e-01 
4.000000000000e-02 0.000000000000e+00 9.600000000000e-01 -2.149999999782e+04 4.545259079898e-01 
0.000000000000e+00 0.000000000000e+00 1.000000000000e+00 -2.149999999781e+04 4.545259079898e-01 
0.000000000000e+00 0.000000000000e+00 1.080000000000e+00 -2.149999999889e+04 4.545259079767e-01 
2.000000000000e-02 0.000000000000e+00 1.080000000000e+00 -2.149999999891e+04 4.545259079764e-01 
4.000000000000e-02 0.000000000000e+00 1.080000000000e+00 -2.149999999889e+04 4.545259079766e-01 
1  3  28  27  
2  4  5  3  
3  5  29  28  
4  6  7  5  
5  7  30  29  
6  8  9  7  
7  9  31  30  
8  10  11  9  
9  11  32  31  
10  12  13  11  
11  13  33  32  
12  14  15  13  
13  15  34  33  
14  16  17  15  
15  17  35  34  
16  18  19  17  
17  19  36  35  
18  20  21  19  
19  21  37  36  
20  22  23  21  
24  26  39  38  
40  41  1  42  
41  2  3  1  
42  1  27  43  
21  23  44  37  
22  45  24  23  
23  24  38  44  
45  25  26  24  
25  46  47  26  
26  47  48  39  
VARIABLES  = "X","Y","Z", "PRESSURE1", "SATURATION1"
ZONE T="1.000000000000e+00s", N=48, E=30, F=FEPOINT, ET=QUADRILATERAL
STRANDID=1, SOLUTIONTIME=1.000000000000e+00
2.000000000000e-02 0.000000000000e+00 5.200000000000e-01 -2.149999986387e+04 4.545259096242e-01 
0.000000000000e+00 0.000000000000e+00 5.600000000000e-01 -2.149999986965e+04 4.545259095538e-01 
2.000000000000e-02 0.000000000000e+00 5.600000000000e-01 -2.149999987101e+04 4.545259095371e-01 
0.000000000000e+00 0.000000000000e+00 6.000000000000e-01 -2.149999987225e+04 4.545259095220e-01 
2.000000000000e-02 0.000000000000e+00 6.000000000000e-01 -2.149999987202e+04 4.545259095248e-01 
0.000000000000e+00 0.000000000000e+00 6.400000000000e-01 -2.149999987221e+04 4.545259095225e-01 
2.000000000000e-02 0.000000000000e+00 6.400000000000e-01 -2.149999987221e+04 4.545259095225e-01 
0.000000000000e+00 0.000000000000e+00 6.800000000000e-01 -2.149999987221e+04 4.545259095225e-01 
2.000000000000e-02 0.000000000000e+00 6.800000000000e-01 -2.149999987221e+04 4.545259095225e-01 
0.000000000000e+00 0.000000000000e+00 7.200000000000e-01 -2.149999987221e+04 4.545259095225e-01 
2.000000000000e-02 0.000000000000e+00 7.200000000000e-01 -2.149999987221e+04 4.545259095225e-01 
0.000000000000e+00 0.000000000000e+00 7.600000000000e-01 -2.149999987221e+04 4.545259095225e-01 
2.000000000000e-02 0.000000000000e+00 7.600000000000e-01 -2.149999987221e+04 4.545259095225e-01 
0.000000000000e+00 0.000000000000e+00 8.000000000000e-01 -2.149999987221e+04 4.545259095225e-01 
2.000000000000e-02 0.000000000000e+00 8.000000000000e-01 -2.149999987221e+04 4.545259095225e-01 
0.000000000000e+00 0.000000000000e+00 8.400000000000e-01 -2.149999987221e+04 4.545259095225e-01 
2.000000000000e-02 0.000000000000e+00 8.400000000000e-01 -2.149999987221e+04 4.545259095225e-01 
0.000000000000e+00 0.000000000000e+00 8.800000000000e-01 -2.149999987209e+04 4.545259095240e-01 
2.000000000000e-02 0.000000000000e+00 8.800000000000e-01 -2.149999987231e+04 4.545259095212e-01 
0.000000000000e+00 0.000000000000e+00 9.200000000000e-01 -2.149999987135e+04 4.545259095330e-01 
2.000000000000e-02 0.000000000000e+00 9.200000000000e-01 -2.149999987038e+04 4.545259095449e-01 
0.000000000000e+00 0.000000000000e+00 9.600000000000e-01 -2.149999987205e+04 4.545259095244e-01 
2.000000000000e-02 0.000000000000e+00 9.600000000000e-01 -2.149999986427e+04 4.545259096194e-01 
2.000000000000e-02 0.000000000000e+00 1.000000000000e+00 -2.149999986418e+04 4.545259096205e-01 
0.000000000000e+00 0.000000000000e+00 1.040000000000e+00 -2.149999987060e+04 4.545259095421e-01 
2.000000000000e-02 0.000000000000e+00 1.040000000000e+00 -2.149999986782e+04 4.545259095761e-01 
4.000000000000e-02 0.000000000000e+00 5.200000000000e-01 -2.149999985910e+04 4.545259096824e-01 
4.000000000000e-02 0.000000000000e+00 5.600000000000e-01 -2.149999986856e+04 4.545259095670e-01 
4.000000000000e-02 0.000000000000e+00 6.000000000000e-01 -2.149999987229e+04 4.545259095216e-01 
4.000000000000e-02 0.000000000000e+00 6.400000000000e-01 -2.149999987221e+04 4.545259095225e-01 
4.000000000000e-02 0.000000000000e+00 6.800000000000e-01 -2.149999987221e+04 4.545259095225e-01 
4.000000000000e-02 0.000000000000e+00 7.200000000000e-01 -2.149999987221e+04 4.545259095225e-01 
4.000000000000e-02 0.000000000000e+00 7.600000000000e-01 -2.149999987221e+04 4.545259095225e-01 
4.000000000000e-02 0.000000000000e+00 8.000000000000e-01 -2.149999987221e+04 4.545259095225e-01 
4.000000000000e-02 0.000000000000e+00 8.400000000000e-01 -2.149999987221e+04 4.545259095225e-01 
4.000000000000e-02 0.000000000000e+00 8.800000000000e-01 -2.149999987205e+04 4.545259095245e-01 
4.000000000000e-02 0.000000000000e+00 9.200000000000e-01 -2.149999987316e+04 4.545259095109e-01 
4.000000000000e-02 0.000000000000e+00 1.000000000000e+00 -2.149999987196e+04 4.545259095255e-01 
4.000000000000e-02 0.000000000000e+00 1.040000000000e+00 -2.149999986879e+04 4.545259095642e-01 
0.000000000000e+00 0.000000000000e+00 4.800000000000e-01 -2.149999987142e+04 4.545259095321e-01 
0.000000000000e+00 0.000000000000e+00 5.200000000000e-01 -2.149999986868e+04 4.545259095656e-01 
2.000000000000e-02 0.000000000000e+00 4.800000000000e-01 -2.149999987034e+04 4.545259095453e-01 
4.000000000000e-02 0.000000000000e+00 4.800000000000e-01 -2.149999987307e+04 4.545259095120e-01 
4.000000000000e-02 0.000000000000e+00 9.600000000000e-01 -2.149999985653e+04 4.545259097138e-01 
0.000000000000e+00 0.000000000000e+00 1.000000000000e+00 -2.149999985644e+04 4.545259097150e-01 
0.000000000000e+00 0.000000000000e+00 1.080000000000e+00 -2.149999986949e+04 4.545259095557e-01 
2.000000000000e-02 0.000000000000e+00 1.080000000000e+00 -2.149999986976e+04 4.545259095524e-01 
4.000000000000e-02 0.000000000000e+00 1.080000000000e+00 -2.149999986953e+04 4.545259095552e-01 
1  3  28  27  
2  4  5  3  
3  5  29  28  
4  6  7  5  
5  7  30  29  
6  8  9  7  
7  9  31  30  
8  10  11  9  
9  11  32  31  
10  12  13  11  
11  13  33  32  
12  14  15  13  
13  15  34  33  
14  16  17  15  
15  17  35  34  
16  18  19  17  
17  19  36  35  
18  20  21  19  
19  21  37  36  
20  22  23  21  
24  26  39  38  
40  41  1  42  
41  2  3  1  
42  1  27  43  
21  23  44  37  
22  45  24  23  
23  24  38  44  
45  25  26  24  
25  46  47  26  
26  47  48  39  
VARIABLES  = "X","Y","Z", "PRESSURE1", "SATURATION1"
ZONE T="1.800000000000e+02s", N=48, E=30, F=FEPOINT, ET=QUADRILATERAL
STRANDID=1, SOLUTIONTIME=1.800000000000e+02
2.000000000000e-02 0.000000000000e+00 5.200000000000e-01 -2.149976049028e+04 4.545288306199e-01 
0.000000000000e+00 0.000000000000e+00 5.600000000000e-01 -2.149976189819e+04 4.545288134396e-01 
2.000000000000e-02 0.000000000000e+00 5.600000000000e-01 -2.149976232207e+04 4.545288082671e-01 
0.000000000000e+00 0.000000000000e+00 6.000000000000e-01 -2.149976251581e+04 4.545288059030e-01 
2.000000000000e-02 0.000000000000e+00 6.000000000000e-01 -2.149976248922e+04 4.545288062275e-01 
0.000000000000e+00 0.000000000000e+00 6.400000000000e-01 -2.149976251018e+04 4.545288059717e-01 
2.000000000000e-02 0.000000000000e+00 6.400000000000e-01 -2.149976251069e+04 4.545288059655e-01 
0.000000000000e+00 0.000000000000e+00 6.800000000000e-01 -2.149976251041e+04 4.545288059689e-01 
2.000000000000e-02 0.000000000000e+00 6.800000000000e-01 -2.149976251041e+04 4.545288059689e-01 
0.000000000000e+00 0.000000000000e+00 7.200000000000e-01 -2.149976251041e+04 4.545288059689e-01 
2.000000000000e-02 0.000000000000e+00 7.200000000000e-01 -2.149976251041e+04 4.545288059689e-01 
0.000000000000e+00 0.000000000000e+00 7.600000000000e-01 -2.149976251041e+04 4.545288059689e-01 
2.000000000000e-02 0.000000000000e+00 7.600000000000e-01 -2.149976251041e+04 4.545288059689e-01 
0.000000000000e+00 0.000000000000e+00 8.000000000000e-01 -2.149976251041e+04 4.545288059689e-01 
2.000000000000e-02 0.000000000000e+00 8.000000000000e-01 -2.149976251041e+04 4.545288059689e-01 
0.000000000000e+00 0.000000000000e+00 8.400000000000e-01 -2.149976251065e+04 4.545288059660e-01 
2.000000000000e-02 0.000000000000e+00 8.400000000000e-01 -2.149976251015e+04 4.545288059721e-01 
0.000000000000e+00 0.000000000000e+00 8.800000000000e-01 -2.149976249686e+04 4.545288061343e-01 
2.000000000000e-02 0.000000000000e+00 8.800000000000e-01 -2.149976252290e+04 4.545288058165e-01 
0.000000000000e+00 0.000000000000e+00 9.200000000000e-01 -2.149976240597e+04 4.545288072433e-01 
2.000000000000e-02 0.000000000000e+00 9.200000000000e-01 -2.149976204100e+04 4.545288116969e-01 
0.000000000000e+00 0.000000000000e+00 9.600000000000e-01 -2.149976270394e+04 4.545288036074e-01 
2.000000000000e-02 0.000000000000e+00 9.600000000000e-01 -2.149976059503e+04 4.545288293416e-01 
2.000000000000e-02 0.000000000000e+00 1.000000000000e+00 -2.149976058676e+04 4.545288294426e-01 
0.000000000000e+00 0.000000000000e+00 1.040000000000e+00 -2.149976222990e+04 4.545288093919e-01 
2.000000000000e-02 0.000000000000e+00 1.040000000000e+00 -2.149976142946e+04 4.545288191594e-01 
4.000000000000e-02 0.000000000000e+00 5.200000000000e-01 -2.149975920373e+04 4.545288463192e-01 
4.000000000000e-02 0.000000000000e+00 5.600000000000e-01 -2.149976157383e+04 4.545288173976e-01 
4.000000000000e-02 0.000000000000e+00 6.000000000000e-01 -2.149976252161e+04 4.545288058323e-01 
4.000000000000e-02 0.000000000000e+00 6.400000000000e-01 -2.149976251013e+04 4.545288059723e-01 
4.000000000000e-02 0.000000000000e+00 6.800000000000e-01 -2.149976251041e+04 4.545288059689e-01 
4.000000000000e-02 0.000000000000e+00 7.200000000000e-01 -2.149976251041e+04 4.545288059689e-01 
4.000000000000e-02 0.000000000000e+00 7.600000000000e-01 -2.149976251041e+04 4.545288059689e-01 
4.000000000000e-02 0.000000000000e+00 8.000000000000e-01 -2.149976251040e+04 4.545288059690e-01 
4.000000000000e-02 0.000000000000e+00 8.400000000000e-01 -2.149976251070e+04 4.545288059653e-01 
4.000000000000e-02 0.000000000000e+00 8.800000000000e-01 -2.149976249022e+04 4.545288062153e-01 
4.000000000000e-02 0.000000000000e+00 9.200000000000e-01 -2.149976284096e+04 4.545288019353e-01 
4.000000000000e-02 0.000000000000e+00 1.000000000000e+00 -2.149976269616e+04 4.545288037023e-01 
4.000000000000e-02 0.000000000000e+00 1.040000000000e+00 -2.149976179394e+04 4.545288147118e-01 
0.000000000000e+00 0.000000000000e+00 4.800000000000e-01 -2.149976241799e+04 4.545288070966e-01 
0.000000000000e+00 0.000000000000e+00 5.200000000000e-01 -2.149976177683e+04 4.545288149206e-01 
2.000000000000e-02 0.000000000000e+00 4.800000000000e-01 -2.149976203697e+04 4.545288117461e-01 
4.000000000000e-02 0.000000000000e+00 4.800000000000e-01 -2.149976282806e+04 4.545288020927e-01 
4.000000000000e-02 0.000000000000e+00 9.600000000000e-01 -2.149975858760e+04 4.545288538376e-01 
0.000000000000e+00 0.000000000000e+00 1.000000000000e+00 -2.149975857894e+04 4.545288539433e-01 
0.000000000000e+00 0.000000000000e+00 1.080000000000e+00 -2.149976187817e+04 4.545288136839e-01 
2.000000000000e-02 0.000000000000e+00 1.080000000000e+00 -2.149976191100e+04 4.545288132833e-01 
4.000000000000e-02 0.000000000000e+00 1.080000000000e+00 -2.149976188492e+04 4.545288136016e-01 
1  3  28  27  
2  4  5  3  
3  5  29  28  
4  6  7  5  
5  7  30  29  
6  8  9  7  
7  9  31  30  
8  10  11  9  
9  11  32  31  
10  12  13  11  
11  13  33  32  
12  14  15  13  
13  15  34  33  
14  16  17  15  
15  17  35  34  
16  18  19  17  
17  19  36  35  
18  20  21  19  
19  21  37  36  
20  22  23  21  
24  26  39  38  
40  41  1  42  
41  2  3  1  
42  1  27  43  
21  23  44  37  
22  45  24  23  
23  24  38  44  
45  25  26  24  
25  46  47  26  
26  47  48  39  
VARIABLES  = "X","Y","Z", "PRESSURE1", "SATURATION1"
ZONE T="1.800000000000e+03s", N=48, E=30, F=FEPOINT, ET=QUADRILATERAL
STRANDID=1, SOLUTIONTIME=1.800000000000e+03
2.000000000000e-02 0.000000000000e+00 5.200000000000e-01 -2.149700404437e+04 4.545624666043e-01 
0.000000000000e+00 0.000000000000e+00 5.600000000000e-01 -2.149701241579e+04 4.545623644507e-01 
2.000000000000e-02 0.000000000000e+00 5.600000000000e-01 -2.149701403665e+04 4.545623446720e-01 
0.000000000000e+00 0.000000000000e+00 6.000000000000e-01 -2.149701637598e+04 4.545623161258e-01 
2.000000000000e-02 0.000000000000e+00 6.000000000000e-01 -2.149701599238e+04 4.545623208068e-01 
0.000000000000e+00 0.000000000000e+00 6.400000000000e-01 -2.149701632472e+04 4.545623167514e-01 
2.000000000000e-02 0.000000000000e+00 6.400000000000e-01 -2.149701636260e+04 4.545623162892e-01 
0.000000000000e+00 0.000000000000e+00 6.800000000000e-01 -2.149701634391e+04 4.545623165172e-01 
2.000000000000e-02 0.000000000000e+00 6.800000000000e-01 -2.149701634137e+04 4.545623165482e-01 
0.000000000000e+00 0.000000000000e+00 7.200000000000e-01 -2.149701634249e+04 4.545623165346e-01 
2.000000000000e-02 0.000000000000e+00 7.200000000000e-01 -2.149701634264e+04 4.545623165328e-01 
0.000000000000e+00 0.000000000000e+00 7.600000000000e-01 -2.149701634263e+04 4.545623165329e-01 
2.000000000000e-02 0.000000000000e+00 7.600000000000e-01 -2.149701634249e+04 4.545623165345e-01 
0.000000000000e+00 0.000000000000e+00 8.000000000000e-01 -2.149701634142e+04 4.545623165476e-01 
2.000000000000e-02 0.000000000000e+00 8.000000000000e-01 -2.149701634388e+04 4.545623165176e-01 
0.000000000000e+00 0.000000000000e+00 8.400000000000e-01 -2.149701635920e+04 4.545623163306e-01 
2.000000000000e-02 0.000000000000e+00 8.400000000000e-01 -2.149701632324e+04 4.545623167695e-01 
0.000000000000e+00 0.000000000000e+00 8.800000000000e-01 -2.149701616462e+04 4.545623187051e-01 
2.000000000000e-02 0.000000000000e+00 8.800000000000e-01 -2.149701650260e+04 4.545623145807e-01 
0.000000000000e+00 0.000000000000e+00 9.200000000000e-01 -2.149701433212e+04 4.545623410664e-01 
2.000000000000e-02 0.000000000000e+00 9.200000000000e-01 -2.149701382508e+04 4.545623472537e-01 
0.000000000000e+00 0.000000000000e+00 9.600000000000e-01 -2.149701442613e+04 4.545623399192e-01 
2.000000000000e-02 0.000000000000e+00 9.600000000000e-01 -2.149700457675e+04 4.545624601080e-01 
2.000000000000e-02 0.000000000000e+00 1.000000000000e+00 -2.149700441861e+04 4.545624620377e-01 
0.000000000000e+00 0.000000000000e+00 1.040000000000e+00 -2.149701359945e+04 4.545623500069e-01 
2.000000000000e-02 0.000000000000e+00 1.040000000000e+00 -2.149701004059e+04 4.545623934346e-01 
4.000000000000e-02 0.000000000000e+00 5.200000000000e-01 -2.149699812440e+04 4.545625388438e-01 
4.000000000000e-02 0.000000000000e+00 5.600000000000e-01 -2.149701157791e+04 4.545623746751e-01 
4.000000000000e-02 0.000000000000e+00 6.000000000000e-01 -2.149701646326e+04 4.545623150609e-01 
4.000000000000e-02 0.000000000000e+00 6.400000000000e-01 -2.149701632100e+04 4.545623167967e-01 
4.000000000000e-02 0.000000000000e+00 6.800000000000e-01 -2.149701634404e+04 4.545623165157e-01 
4.000000000000e-02 0.000000000000e+00 7.200000000000e-01 -2.149701634248e+04 4.545623165347e-01 
4.000000000000e-02 0.000000000000e+00 7.600000000000e-01 -2.149701634263e+04 4.545623165328e-01 
4.000000000000e-02 0.000000000000e+00 8.000000000000e-01 -2.149701634123e+04 4.545623165499e-01 