VARIABLES  = "X","Y","Z", "PRESSURE1", "SATURATION1"
ZONE T="0.000000000000e+00s", N=42, E=26, F=FEPOINT, ET=QUADRILATERAL
STRANDID=1, SOLUTIONTIME=0.000000000000e+00
0.000000000000e+00 0.000000000000e+00 1.520000000000e+00 -2.150000000000e+04 4.545259079631e-01 
2.000000000000e-02 0.000000000000e+00 1.520000000000e+00 -2.150000000000e+04 4.545259079631e-01 
0.000000000000e+00 0.000000000000e+00 1.560000000000e+00 -2.150000000000e+04 4.545259079631e-01 
2.000000000000e-02 0.000000000000e+00 1.560000000000e+00 -2.150000000000e+04 4.545259079631e-01 
0.000000000000e+00 0.000000000000e+00 1.600000000000e+00 -2.150000000000e+04 4.545259079631e-01 
2.000000000000e-02 0.000000000000e+00 1.600000000000e+00 -2.150000000000e+04 4.545259079631e-01 
0.000000000000e+00 0.000000000000e+00 1.640000000000e+00 -2.150000000000e+04 4.545259079631e-01 
2.000000000000e-02 0.000000000000e+00 1.640000000000e+00 -2.150000000000e+04 4.545259079631e-01 
0.000000000000e+00 0.000000000000e+00 1.680000000000e+00 -2.150000000000e+04 4.545259079631e-01 
2.000000000000e-02 0.000000000000e+00 1.680000000000e+00 -2.150000000000e+04 4.545259079631e-01 
0.000000000000e+00 0.000000000000e+00 1.720000000000e+00 -2.150000000000e+04 4.545259079631e-01 
2.000000000000e-02 0.000000000000e+00 1.720000000000e+00 -2.150000000000e+04 4.545259079631e-01 
0.000000000000e+00 0.000000000000e+00 1.760000000000e+00 -2.150000000000e+04 4.545259079631e-01 
2.000000000000e-02 0.000000000000e+00 1.760000000000e+00 -2.150000000000e+04 4.545259079631e-01 
0.000000000000e+00 0.000000000000e+00 1.800000000000e+00 -2.150000000000e+04 4.545259079631e-01 
2.000000000000e-02 0.000000000000e+00 1.800000000000e+00 -2.150000000000e+04 4.545259079631e-01 
0.000000000000e+00 0.000000000000e+00 1.840000000000e+00 -2.150000000000e+04 4.545259079631e-01 
2.000000000000e-02 0.000000000000e+00 1.840000000000e+00 -2.150000000000e+04 4.545259079631e-01 
0.000000000000e+00 0.000000000000e+00 1.880000000000e+00 -2.150000000000e+04 4.545259079631e-01 
2.000000000000e-02 0.000000000000e+00 1.880000000000e+00 -2.150000000000e+04 4.545259079631e-01 
0.000000000000e+00 0.000000000000e+00 1.920000000000e+00 -2.150000000000e+04 4.545259079631e-01 
2.000000000000e-02 0.000000000000e+00 1.920000000000e+00 -2.150000000000e+04 4.545259079631e-01 
0.000000000000e+00 0.000000000000e+00 1.960000000000e+00 -2.150000000000e+04 4.545259079631e-01 
2.000000000000e-02 0.000000000000e+00 1.960000000000e+00 -2.150000000000e+04 4.545259079631e-01 
0.000000000000e+00 0.000000000000e+00 2.000000000000e+00 -2.150000000000e+04 4.545259079631e-01 
2.000000000000e-02 0.000000000000e+00 2.000000000000e+00 -2.150000000000e+04 4.545259079631e-01 
4.000000000000e-02 0.000000000000e+00 1.520000000000e+00 -2.150000000000e+04 4.545259079631e-01 
4.000000000000e-02 0.000000000000e+00 1.600000000000e+00 -2.150000000000e+04 4.545259079631e-01 
4.000000000000e-02 0.000000000000e+00 1.640000000000e+00 -2.150000000000e+04 4.545259079631e-01 
4.000000000000e-02 0.000000000000e+00 1.680000000000e+00 -2.150000000000e+04 4.545259079631e-01 
4.000000000000e-02 0.000000000000e+00 1.720000000000e+00 -2.150000000000e+04 4.545259079631e-01 
4.000000000000e-02 0.000000000000e+00 1.760000000000e+00 -2.150000000000e+04 4.545259079631e-01 
4.000000000000e-02 0.000000000000e+00 1.800000000000e+00 -2.150000000000e+04 4.545259079631e-01 
4.000000000000e-02 0.000000000000e+00 1.840000000000e+00 -2.150000000000e+04 4.545259079631e-01 
4.000000000000e-02 0.000000000000e+00 1.880000000000e+00 -2.150000000000e+04 4.545259079631e-01 
4.000000000000e-02 0.000000000000e+00 1.920000000000e+00 -2.150000000000e+04 4.545259079631e-01 
4.000000000000e-02 0.000000000000e+00 1.960000000000e+00 -2.150000000000e+04 4.545259079631e-01 
4.000000000000e-02 0.000000000000e+00 2.000000000000e+00 -2.150000000000e+04 4.545259079631e-01 
0.000000000000e+00 0.000000000000e+00 1.480000000000e+00 -2.150000000000e+04 4.545259079631e-01 
2.000000000000e-02 0.000000000000e+00 1.480000000000e+00 -2.150000000000e+04 4.545259079631e-01 
4.000000000000e-02 0.000000000000e+00 1.480000000000e+00 -2.150000000000e+04 4.545259079631e-01 
4.000000000000e-02 0.000000000000e+00 1.560000000000e+00 -2.150000000000e+04 4.545259079631e-01 
1  3  4  2  
3  5  6  4  
5  7  8  6  
6  8  29  28  
7  9  10  8  
8  10  30  29  
9  11  12  10  
10  12  31  30  
11  13  14  12  
12  14  32  31  
13  15  16  14  
14  16  33  32  
15  17  18  16  
16  18  34  33  
17  19  20  18  
18  20  35  34  
19  21  22  20  
20  22  36  35  
21  23  24  22  
22  24  37  36  
23  25  26  24  
24  26  38  37  
39  1  2  40  
40  2  27  41  
2  4  42  27  
4  6  28  42  
VARIABLES  = "X","Y","Z", "PRESSURE1", "SATURATION1"
ZONE T="1.000000000000e-02s", N=42, E=26, F=FEPOINT, ET=QUADRILATERAL
STRANDID=1, SOLUTIONTIME=1.000000000000e-02
0.000000000000e+00 0.000000000000e+00 1.520000000000e+00 -2.149999999996e+04 4.545259079636e-01 
2.000000000000e-02 0.000000000000e+00 1.520000000000e+00 -2.149999999996e+04 4.545259079636e-01 
0.000000000000e+00 0.000000000000e+00 1.560000000000e+00 -2.149999999987e+04 4.545259079647e-01 
2.000000000000e-02 0.000000000000e+00 1.560000000000e+00 -2.149999999989e+04 4.545259079645e-01 
0.000000000000e+00 0.000000000000e+00 1.600000000000e+00 -2.150000000002e+04 4.545259079629e-01 
2.000000000000e-02 0.000000000000e+00 1.600000000000e+00 -2.149999999996e+04 4.545259079636e-01 
0.000000000000e+00 0.000000000000e+00 1.640000000000e+00 -2.150000000000e+04 4.545259079631e-01 
2.000000000000e-02 0.000000000000e+00 1.640000000000e+00 -2.150000000000e+04 4.545259079631e-01 
0.000000000000e+00 0.000000000000e+00 1.680000000000e+00 -2.150000000000e+04 4.545259079631e-01 
2.000000000000e-02 0.000000000000e+00 1.680000000000e+00 -2.150000000000e+04 4.545259079631e-01 
0.000000000000e+00 0.000000000000e+00 1.720000000000e+00 -2.150000000000e+04 4.545259079631e-01 
2.000000000000e-02 0.000000000000e+00 1.720000000000e+00 -2.150000000000e+04 4.545259079631e-01 
0.000000000000e+00 0.000000000000e+00 1.760000000000e+00 -2.150000000000e+04 4.545259079631e-01 
2.000000000000e-02 0.000000000000e+00 1.760000000000e+00 -2.150000000000e+04 4.545259079631e-01 
0.000000000000e+00 0.000000000000e+00 1.800000000000e+00 -2.150000000000e+04 4.545259079631e-01 
2.000000000000e-02 0.000000000000e+00 1.800000000000e+00 -2.150000000000e+04 4.545259079631e-01 
0.000000000000e+00 0.000000000000e+00 1.840000000000e+00 -2.150000000000e+04 4.545259079631e-01 
2.000000000000e-02 0.000000000000e+00 1.840000000000e+00 -2.150000000000e+04 4.545259079631e-01 
0.000000000000e+00 0.000000000000e+00 1.880000000000e+00 -2.150000000000e+04 4.545259079631e-01 
2.000000000000e-02 0.000000000000e+00 1.880000000000e+00 -2.150000000000e+04 4.545259079631e-01 
0.000000000000e+00 0.000000000000e+00 1.920000000000e+00 -2.149999999889e+04 4.545259079767e-01 
2.000000000000e-02 0.000000000000e+00 1.920000000000e+00 -2.149999999889e+04 4.545259079767e-01 
0.000000000000e+00 0.000000000000e+00 1.960000000000e+00 -2.149835767845e+04 4.345789792025e-01 
2.000000000000e-02 0.000000000000e+00 1.960000000000e+00 -2.149835767845e+04 4.345789792025e-01 
0.000000000000e+00 0.000000000000e+00 2.000000000000e+00 0.000000000000e+00 1.000000000000e+00 
2.000000000000e-02 0.000000000000e+00 2.000000000000e+00 0.000000000000e+00 1.000000000000e+00 
4.000000000000e-02 0.000000000000e+00 1.520000000000e+00 -2.149999999990e+04 4.545259079643e-01 
4.000000000000e-02 0.000000000000e+00 1.600000000000e+00 -2.150000000002e+04 4.545259079629e-01 
4.000000000000e-02 0.000000000000e+00 1.640000000000e+00 -2.150000000000e+04 4.545259079631e-01 
4.000000000000e-02 0.000000000000e+00 1.680000000000e+00 -2.150000000000e+04 4.545259079631e-01 
4.000000000000e-02 0.000000000000e+00 1.720000000000e+00 -2.150000000000e+04 4.545259079631e-01 
4.000000000000e-02 0.000000000000e+00 1.760000000000e+00 -2.150000000000e+04 4.545259079631e-01 
4.000000000000e-02 0.000000000000e+00 1.800000000000e+00 -2.150000000000e+04 4.545259079631e-01 
4.000000000000e-02 0.000000000000e+00 1.840000000000e+00 -2.150000000000e+04 4.545259079631e-01 
4.000000000000e-02 0.000000000000e+00 1.880000000000e+00 -2.150000000000e+04 4.545259079631e-01 
4.000000000000e-02 0.000000000000e+00 1.920000000000e+00 -2.149999999889e+04 4.545259079767e-01 
4.000000000000e-02 0.000000000000e+00 1.960000000000e+00 -2.149835767845e+04 4.345789792025e-01 
4.000000000000e-02 0.000000000000e+00 2.000000000000e+00 0.000000000000e+00 1.000000000000e+00 
0.000000000000e+00 0.000000000000e+00 1.480000000000e+00 -2.150000000000e+04 4.545259079631e-01 
2.000000000000e-02 0.000000000000e+00 1.480000000000e+00 -2.149999999998e+04 4.545259079634e-01 
4.000000000000e-02 0.000000000000e+00 1.480000000000e+00 -2.150000000002e+04 4.545259079629e-01 
4.000000000000e-02 0.000000000000e+00 1.560000000000e+00 -2.149999999989e+04 4.545259079645e-01 
1  3  4  2  
3  5  6  4  
5  7  8  6  
6  8  29  28  
7  9  10  8  
8  10  30  29  
9  11  12  10  
10  12  31  30  
11  13  14  12  
12  14  32  31  
13  15  16  14  
14  16  33  32  
15  17  18  16  
16  18  34  33  
17  19  20  18  
18  20  35  34  
19  21  22  20  
20  22  36  35  
21  23  24  22  
22  24  37  36  
23  25  26  24  
24  26  38  37  
39  1  2  40  
40  2  27  41  
2  4  42  27  
4  6  28  42  
VARIABLES  = "X","Y","Z", "PRESSURE1", "SATURATION1"
ZONE T="1.000000000000e-01s", N=42, E=26, F=FEPOINT, ET=QUADRILATERAL
STRANDID=1, SOLUTIONTIME=1.000000000000e-01
0.000000000000e+00 0.000000000000e+00 1.520000000000e+00 -2.149999999873e+04 4.545259079786e-01 
2.000000000000e-02 0.000000000000e+00 1.520000000000e+00 -2.149999999869e+04 4.545259079791e-01 
0.000000000000e+00 0.000000000000e+00 1.560000000000e+00 -2.149999999795e+04 4.545259079881e-01 
2.000000000000e-02 0.000000000000e+00 1.560000000000e+00 -2.149999999809e+04 4.545259079864e-01 
0.000000000000e+00 0.000000000000e+00 1.600000000000e+00 -2.149999999915e+04 4.545259079735e-01 
2.000000000000e-02 0.000000000000e+00 1.600000000000e+00 -2.149999999880e+04 4.545259079778e-01 
0.000000000000e+00 0.000000000000e+00 1.640000000000e+00 -2.149999999909e+04 4.545259079743e-01 
2.000000000000e-02 0.000000000000e+00 1.640000000000e+00 -2.149999999912e+04 4.545259079739e-01 
0.000000000000e+00 0.000000000000e+00 1.680000000000e+00 -2.149999999911e+04 4.545259079740e-01 
2.000000000000e-02 0.000000000000e+00 1.680000000000e+00 -2.149999999911e+04 4.545259079740e-01 
0.000000000000e+00 0.000000000000e+00 1.720000000000e+00 -2.149999999911e+04 4.545259079740e-01 
2.000000000000e-02 0.000000000000e+00 1.720000000000e+00 -2.149999999911e+04 4.545259079740e-01 
0.000000000000e+00 0.000000000000e+00 1.760000000000e+00 -2.149999999911e+04 4.545259079740e-01 
2.000000000000e-02 0.000000000000e+00 1.760000000000e+00 -2.149999999911e+04 4.545259079740e-01 
0.000000000000e+00 0.000000000000e+00 1.800000000000e+00 -2.149999999911e+04 4.545259079740e-01 
2.000000000000e-02 0.000000000000e+00 1.800000000000e+00 -2.149999999911e+04 4.545259079740e-01 
0.000000000000e+00 0.000000000000e+00 1.840000000000e+00 -2.149999999911e+04 4.545259079740e-01 
2.000000000000e-02 0.000000000000e+00 1.840000000000e+00 -2.149999999911e+04 4.545259079740e-01 
0.000000000000e+00 0.000000000000e+00 1.880000000000e+00 -2.150000000057e+04 4.545259079562e-01 
2.000000000000e-02 0.000000000000e+00 1.880000000000e+00 -2.150000000057e+04 4.545259079562e-01 
0.000000000000e+00 0.000000000000e+00 1.920000000000e+00 -2.149999990691e+04 4.545259090990e-01 
2.000000000000e-02 0.000000000000e+00 1.920000000000e+00 -2.149999990691e+04 4.545259090990e-01 
0.000000000000e+00 0.000000000000e+00 1.960000000000e+00 -2.148358150790e+04 4.347568948732e-01 
2.000000000000e-02 0.000000000000e+00 1.960000000000e+00 -2.148358150790e+04 4.347568948732e-01 
0.000000000000e+00 0.000000000000e+00 2.000000000000e+00 0.000000000000e+00 1.000000000000e+00 
2.000000000000e-02 0.000000000000e+00 2.000000000000e+00 0.000000000000e+00 1.000000000000e+00 
4.000000000000e-02 0.000000000000e+00 1.520000000000e+00 -2.149999999817e+04 4.545259079854e-01 
4.000000000000e-02 0.000000000000e+00 1.600000000000e+00 -2.149999999915e+04 4.545259079735e-01 
4.000000000000e-02 0.000000000000e+00 1.640000000000e+00 -2.149999999909e+04 4.545259079743e-01 
4.000000000000e-02 0.000000000000e+00 1.680000000000e+00 -2.149999999911e+04 4.545259079740e-01 
4.000000000000e-02 0.000000000000e+00 1.720000000000e+00 -2.149999999911e+04 4.545259079740e-01 
4.000000000000e-02 0.000000000000e+00 1.760000000000e+00 -2.149999999911e+04 4.545259079740e-01 
4.000000000000e-02 0.000000000000e+00 1.800000000000e+00 -2.149999999911e+04 4.545259079740e-01 
4.000000000000e-02 0.000000000000e+00 1.840000000000e+00 -2.149999999911e+04 4.545259079740e-01 
4.000000000000e-02 0.000000000000e+00 1.880000000000e+00 -2.150000000057e+04 4.545259079562e-01 
4.000000000000e-02 0.000000000000e+00 1.920000000000e+00 -2.149999990691e+04 4.545259090990e-01 
4.000000000000e-02 0.000000000000e+00 1.960000000000e+00 -2.148358150790e+04 4.347568948732e-01 
4.000000000000e-02 0.000000000000e+00 2.000000000000e+00 0.000000000000e+00 1.000000000000e+00 
0.000000000000e+00 0.000000000000e+00 1.480000000000e+00 -2.149999999907e+04 4.545259079744e-01 
2.000000000000e-02 0.000000000000e+00 1.480000000000e+00 -2.149999999894e+04 4.545259079760e-01 
4.000000000000e-02 0.000000000000e+00 1.480000000000e+00 -2.149999999920e+04 4.545259079728e-01 
4.000000000000e-02 0.000000000000e+00 1.560000000000e+00 -2.149999999808e+04 4.545259079866e-01 
1  3  4  2  
3  5  6  4  
5  7  8  6  
6  8  29  28  
7  9  10  8  
8  10  30  29  
9  11  12  10  
10  12  31  30  
11  13  14  12  
12  14  32  31  
13  15  16  14  
14  16  33  32  
15  17  18  16  
16  18  34  33  
17  19  20  18  
18  20  35  34  
19  21  22  20  
20  22  36  35  
21  23  24  22  
22  24  37  36  
23  25  26  24  
24  26  38  37  
39  1  2  40  
40  2  27  41  
2  4  42  27  
4  6  28  42  
VARIABLES  = "X","Y","Z", "PRESSURE1", "SATURATION1"
ZONE T="1.000000000000e+00s", N=42, E=26, F=FEPOINT, ET=QUADRILATERAL
STRANDID=1, SOLUTIONTIME=1.000000000000e+00
0.000000000000e+00 0.000000000000e+00 1.520000000000e+00 -2.149999986758e+04 4.545259095790e-01 
2.000000000000e-02 0.000000000000e+00 1.520000000000e+00 -2.149999986698e+04 4.545259095864e-01 
0.000000000000e+00 0.000000000000e+00 1.560000000000e+00 -2.149999985810e+04 4.545259096947e-01 
2.000000000000e-02 0.000000000000e+00 1.560000000000e+00 -2.149999985983e+04 4.545259096735e-01 
0.000000000000e+00 0.000000000000e+00 1.600000000000e+00 -2.149999987250e+04 4.545259095190e-01 
2.000000000000e-02 0.000000000000e+00 1.600000000000e+00 -2.149999986855e+04 4.545259095671e-01 
0.000000000000e+00 0.000000000000e+00 1.640000000000e+00 -2.149999987192e+04 4.545259095260e-01 
2.000000000000e-02 0.000000000000e+00 1.640000000000e+00 -2.149999987241e+04 4.545259095200e-01 
0.000000000000e+00 0.000000000000e+00 1.680000000000e+00 -2.149999987221e+04 4.545259095225e-01 
2.000000000000e-02 0.000000000000e+00 1.680000000000e+00 -2.149999987221e+04 4.545259095225e-01 
0.000000000000e+00 0.000000000000e+00 1.720000000000e+00 -2.149999987221e+04 4.545259095225e-01 
2.000000000000e-02 0.000000000000e+00 1.720000000000e+00 -2.149999987221e+04 4.545259095225e-01 
0.000000000000e+00 0.000000000000e+00 1.760000000000e+00 -2.149999987221e+04 4.545259095225e-01 
2.000000000000e-02 0.000000000000e+00 1.760000000000e+00 -2.149999987221e+04 4.545259095225e-01 
0.000000000000e+00 0.000000000000e+00 1.800000000000e+00 -2.149999987221e+04 4.545259095225e-01 
2.000000000000e-02 0.000000000000e+00 1.800000000000e+00 -2.149999987221e+04 4.545259095225e-01 
0.000000000000e+00 0.000000000000e+00 1.840000000000e+00 -2.149999987226e+04 4.545259095219e-01 
2.000000000000e-02 0.000000000000e+00 1.840000000000e+00 -2.149999987226e+04 4.545259095219e-01 
0.000000000000e+00 0.000000000000e+00 1.880000000000e+00 -2.150000008265e+04 4.545259069545e-01 
2.000000000000e-02 0.000000000000e+00 1.880000000000e+00 -2.150000008265e+04 4.545259069545e-01 
0.000000000000e+00 0.000000000000e+00 1.920000000000e+00 -2.149999063395e+04 4.545260222539e-01 
2.000000000000e-02 0.000000000000e+00 1.920000000000e+00 -2.149999063395e+04 4.545260222539e-01 
0.000000000000e+00 0.000000000000e+00 1.960000000000e+00 -2.133630191685e+04 4.365302465776e-01 
2.000000000000e-02 0.000000000000e+00 1.960000000000e+00 -2.133630191685e+04 4.365302465776e-01 
0.000000000000e+00 0.000000000000e+00 2.000000000000e+00 0.000000000000e+00 1.000000000000e+00 
2.000000000000e-02 0.000000000000e+00 2.000000000000e+00 0.000000000000e+00 1.000000000000e+00 
4.000000000000e-02 0.000000000000e+00 1.520000000000e+00 -2.149999986069e+04 4.545259096630e-01 
4.000000000000e-02 0.000000000000e+00 1.600000000000e+00 -2.149999987246e+04 4.545259095195e-01 
4.000000000000e-02 0.000000000000e+00 1.640000000000e+00 -2.149999987192e+04 4.545259095260e-01 
4.000000000000e-02 0.000000000000e+00 1.680000000000e+00 -2.149999987221e+04 4.545259095225e-01 
4.000000000000e-02 0.000000000000e+00 1.720000000000e+00 -2.149999987221e+04 4.545259095225e-01 
4.000000000000e-02 0.000000000000e+00 1.760000000000e+00 -2.149999987221e+04 4.545259095225e-01 
4.000000000000e-02 0.000000000000e+00 1.800000000000e+00 -2.149999987221e+04 4.545259095225e-01 
4.000000000000e-02 0.000000000000e+00 1.840000000000e+00 -2.149999987226e+04 4.545259095219e-01 
4.000000000000e-02 0.000000000000e+00 1.880000000000e+00 -2.150000008265e+04 4.545259069545e-01 
4.000000000000e-02 0.000000000000e+00 1.920000000000e+00 -2.149999063395e+04 4.545260222539e-01 
4.000000000000e-02 0.000000000000e+00 1.960000000000e+00 -2.133630191685e+04 4.365302465776e-01 
4.000000000000e-02 0.000000000000e+00 2.000000000000e+00 0.000000000000e+00 1.000000000000e+00 
0.000000000000e+00 0.000000000000e+00 1.480000000000e+00 -2.149999987171e+04 4.545259095286e-01 
2.000000000000e-02 0.000000000000e+00 1.480000000000e+00 -2.149999987024e+04 4.545259095465e-01 
4.000000000000e-02 0.000000000000e+00 1.480000000000e+00 -2.149999987328e+04 4.545259095094e-01 
4.000000000000e-02 0.000000000000e+00 1.560000000000e+00 -2.149999985967e+04 4.545259096755e-01 
1  3  4  2  
3  5  6  4  
5  7  8  6  
6  8  29  28  
7  9  10  8  
8  10  30  29  
9  11  12  10  
10  12  31  30  
11  13  14  12  
12  14  32  31  
13  15  16  14  
14  16  33  32  
15  17  18  16  
16  18  34  33  
17  19  20  18  
18  20  35  34  
19  21  22  20  
20  22  36  35  
21  23  24  22  
22  24  37  36  
23  25  26  24  
24  26  38  37  
39  1  2  40  
40  2  27  41  
2  4  42  27  
4  6  28  42  
VARIABLES  = "X","Y","Z", "PRESSURE1", "SATURATION1"
ZONE T="1.800000000000e+02s", N=42, E=26, F=FEPOINT, ET=QUADRILATERAL
STRANDID=1, SOLUTIONTIME=1.800000000000e+02
0.000000000000e+00 0.000000000000e+00 1.520000000000e+00 -2.149976145281e+04 4.545288188744e-01 
2.000000000000e-02 0.000000000000e+00 1.520000000000e+00 -2.149976138155e+04 4.545288197440e-01 
0.000000000000e+00 0.000000000000e+00 1.560000000000e+00 -2.149975908403e+04 4.545288477799e-01 
2.000000000000e-02 0.000000000000e+00 1.560000000000e+00 -2.149975955080e+04 4.545288420840e-01 
0.000000000000e+00 0.000000000000e+00 1.600000000000e+00 -2.149976276051e+04 4.545288029170e-01 
2.000000000000e-02 0.000000000000e+00 1.600000000000e+00 -2.149976157224e+04 4.545288174170e-01 
0.000000000000e+00 0.000000000000e+00 1.640000000000e+00 -2.149976247651e+04 4.545288063826e-01 
2.000000000000e-02 0.000000000000e+00 1.640000000000e+00 -2.149976253576e+04 4.545288056595e-01 
0.000000000000e+00 0.000000000000e+00 1.680000000000e+00 -2.149976251095e+04 4.545288059623e-01 
2.000000000000e-02 0.000000000000e+00 1.680000000000e+00 -2.149976250988e+04 4.545288059753e-01 
0.000000000000e+00 0.000000000000e+00 1.720000000000e+00 -2.149976251040e+04 4.545288059690e-01 
2.000000000000e-02 0.000000000000e+00 1.720000000000e+00 -2.149976251042e+04 4.545288059688e-01 
0.000000000000e+00 0.000000000000e+00 1.760000000000e+00 -2.149976251020e+04 4.545288059715e-01 
2.000000000000e-02 0.000000000000e+00 1.760000000000e+00 -2.149976251020e+04 4.545288059715e-01 
0.000000000000e+00 0.000000000000e+00 1.800000000000e+00 -2.149976249553e+04 4.545288061505e-01 
2.000000000000e-02 0.000000000000e+00 1.800000000000e+00 -2.149976249553e+04 4.545288061505e-01 
0.000000000000e+00 0.000000000000e+00 1.840000000000e+00 -2.149977282208e+04 4.545286801391e-01 
2.000000000000e-02 0.000000000000e+00 1.840000000000e+00 -2.149977282208e+04 4.545286801391e-01 
0.000000000000e+00 0.000000000000e+00 1.880000000000e+00 -2.150009427356e+04 4.545247575745e-01 
2.000000000000e-02 0.000000000000e+00 1.880000000000e+00 -2.150009427356e+04 4.545247575745e-01 
0.000000000000e+00 0.000000000000e+00 1.920000000000e+00 -2.102324757655e+04 4.526257106193e-01 
2.000000000000e-02 0.000000000000e+00 1.920000000000e+00 -2.102324757654e+04 4.526257106187e-01 
0.000000000000e+00 0.000000000000e+00 1.960000000000e+00 -5.138796797925e+03 7.934256144607e-01 
2.000000000000e-02 0.000000000000e+00 1.960000000000e+00 -5.138796797495e+03 7.934256144800e-01 
0.000000000000e+00 0.000000000000e+00 2.000000000000e+00 0.000000000000e+00 1.000000000000e+00 
2.000000000000e-02 0.000000000000e+00 2.000000000000e+00 0.000000000000e+00 1.000000000000e+00 
4.000000000000e-02 0.000000000000e+00 1.520000000000e+00 -2.149975960287e+04 4.545288414486e-01 
4.000000000000e-02 0.000000000000e+00 1.600000000000e+00 -2.149976275407e+04 4.545288029955e-01 
4.000000000000e-02 0.000000000000e+00 1.640000000000e+00 -2.149976247656e+04 4.545288063819e-01 
4.000000000000e-02 0.000000000000e+00 1.680000000000e+00 -2.149976251095e+04 4.545288059623e-01 
4.000000000000e-02 0.000000000000e+00 1.720000000000e+00 -2.149976251040e+04 4.545288059690e-01 
4.000000000000e-02 0.000000000000e+00 1.760000000000e+00 -2.149976251020e+04 4.545288059715e-01 
4.000000000000e-02 0.000000000000e+00 1.800000000000e+00 -2.149976249553e+04 4.545288061505e-01 
4.000000000000e-02 0.000000000000e+00 1.840000000000e+00 -2.149977282208e+04 4.545286801391e-01 
4.000000000000e-02 0.000000000000e+00 1.880000000000e+00 -2.150009427356e+04 4.545247575745e-01 
4.000000000000e-02 0.000000000000e+00 1.920000000000e+00 -2.102324757654e+04 4.526257106182e-01 
4.000000000000e-02 0.000000000000e+00 1.960000000000e+00 -5.138796797117e+03 7.934256144970e-01 
4.000000000000e-02 0.000000000000e+00 2.000000000000e+00 0.000000000000e+00 1.000000000000e+00 
0.000000000000e+00 0.000000000000e+00 1.480000000000e+00 -2.149976245262e+04 4.545288066741e-01 
2.000000000000e-02 0.000000000000e+00 1.480000000000e+00 -2.149976202323e+04 4.545288119137e-01 
4.000000000000e-02 0.000000000000e+00 1.480000000000e+00 -2.149976285063e+04 4.545288018173e-01 
4.000000000000e-02 0.000000000000e+00 1.560000000000e+00 -2.149975948248e+04 4.545288429178e-01 
1  3  4  2  
3  5  6  4  
5  7  8  6  
6  8  29  28  
7  9  10  8  
8  10  30  29  
9  11  12  10  
10  12  31  30  
11  13  14  12  
12  14  32  31  
13  15  16  14  
14  16  33  32  
15  17  18  16  
16  18  34  33  
17  19  20  18  
18  20  35  34  
19  21  22  20  
20  22  36  35  
21  23  24  22  
22  24  37  36  
23  25  26  24  
24  26  38  37  
39  1  2  40  
40  2  27  41  
2  4  42  27  
4  6  28  42  
VARIABLES  = "X","Y","Z", "PRESSURE1", "SATURATION1"
ZONE T="1.800000000000e+03s", N=42, E=26, F=FEPOINT, ET=QUADRILATERAL
STRANDID=1, SOLUTIONTIME=1.800000000000e+03
0.000000000000e+00 0.000000000000e+00 1.520000000000e+00 -2.149700900856e+04 4.545624060280e-01 
2.000000000000e-02 0.000000000000e+00 1.520000000000e+00 -2.149700780262e+04 4.545624207437e-01 
0.000000000000e+00 0.000000000000e+00 1.560000000000e+00 -2.149699563172e+04 4.545625692611e-01 
2.000000000000e-02 0.000000000000e+00 1.560000000000e+00 -2.149699787426e+04 4.545625418962e-01 
0.000000000000e+00 0.000000000000e+00 1.600000000000e+00 -2.149701581886e+04 4.545623229242e-01 
2.000000000000e-02 0.000000000000e+00 1.600000000000e+00 -2.149701146232e+04 4.545623760857e-01 
0.000000000000e+00 0.000000000000e+00 1.640000000000e+00 -2.149701572161e+04 4.545623241109e-01 
2.000000000000e-02 0.000000000000e+00 1.640000000000e+00 -2.149701659734e+04 4.545623134247e-01 
0.000000000000e+00 0.000000000000e+00 1.680000000000e+00 -2.149702643090e+04 4.545621934291e-01 
2.000000000000e-02 0.000000000000e+00 1.680000000000e+00 -2.149702635011e+04 4.545621944149e-01 
0.000000000000e+00 0.000000000000e+00 1.720000000000e+00 -2.149757215494e+04 4.545555341417e-01 
2.000000000000e-02 0.000000000000e+00 1.720000000000e+00 -2.149757216174e+04 4.545555340588e-01 
0.000000000000e+00 0.000000000000e+00 1.760000000000e+00 -2.147941560881e+04 4.547770923817e-01 
2.000000000000e-02 0.000000000000e+00 1.760000000000e+00 -2.147941557066e+04 4.547770928472e-01 
0.000000000000e+00 0.000000000000e+00 1.800000000000e+00 -1.909429792310e+04 4.751715684885e-01 
2.000000000000e-02 0.000000000000e+00 1.800000000000e+00 -1.909429961858e+04 4.751716113052e-01 
0.000000000000e+00 0.000000000000e+00 1.840000000000e+00 -4.705534702773e+03 8.111437060989e-01 
2.000000000000e-02 0.000000000000e+00 1.840000000000e+00 -4.705577888708e+03 8.111418322280e-01 
0.000000000000e+00 0.000000000000e+00 1.880000000000e+00 -2.129895991580e+03 9.748038953029e-01 
2.000000000000e-02 0.000000000000e+00 1.880000000000e+00 -2.129791573389e+03 9.748085055260e-01 
0.000000000000e+00 0.000000000000e+00 1.920000000000e+00 -1.307268541989e+03 1.000000000000e+00 
2.000000000000e-02 0.000000000000e+00 1.920000000000e+00 -1.306924467566e+03 1.000000000000e+00 
0.000000000000e+00 0.000000000000e+00 1.960000000000e+00 -6.580034443434e+02 1.000000000000e+00 
2.000000000000e-02 0.000000000000e+00 1.960000000000e+00 -6.578790957621e+02 1.000000000000e+00 
0.000000000000e+00 0.000000000000e+00 2.000000000000e+00 0.000000000000e+00 1.000000000000e+00 
2.000000000000e-02 0.000000000000e+00 2.000000000000e+00 0.000000000000e+00 1.000000000000e+00 
4.000000000000e-02 0.000000000000e+00 1.520000000000e+00 -2.149700031946e+04 4.545625120582e-01 
4.000000000000e-02 0.000000000000e+00 1.600000000000e+00 -2.149701567359e+04 4.545623246970e-01 
4.000000000000e-02 0.000000000000e+00 1.640000000000e+00 -2.149701572720e+04 4.545623240427e-01 
4.000000000000e-02 0.000000000000e+00 1.680000000000e+00 -2.149702643072e+04 4.545621934313e-01 
4.000000000000e-02 0.000000000000e+00 1.720000000000e+00 -2.149757215486e+04 4.545555341427e-01 
4.000000000000e-02 0.000000000000e+00 1.760000000000e+00 -2.147941560117e+04 4.547770924748e-01 
4.000000000000e-02 0.000000000000e+00 1.800000000000e+00 -1.909430061160e+04 4.751716749697e-01 
4.000000000000e-02 0.000000000000e+00 1.840000000000e+00 -4.705629553380e+03 8.111394600333e-01 
4.000000000000e-02 0.000000000000e+00 1.880000000000e+00 -2.129740593034e+03 9.748111037135e-01 
4.000000000000e-02 0.000000000000e+00 1.920000000000e+00 -1.306638284713e+03 1.000000000000e+00 
4.000000000000e-02 0.000000000000e+00 1.960000000000e+00 -6.576813493366e+02 1.000000000000e+00 
4.000000000000e-02 0.000000000000e+00 2.000000000000e+00 0.000000000000e+00 1.000000000000e+00 
0.000000000000e+00 0.000000000000e+00 1.480000000000e+00 -2.149701514019e+04 4.545623312058e-01 
2.000000000000e-02 0.000000000000e+00 1.480000000000e+00 -2.149701361220e+04 4.545623498513e-01 
4.000000000000e-02 0.000000000000e+00 1.480000000000e+00 -2.149701742092e+04 4.545623033748e-01 
4.000000000000e-02 0.000000000000e+00 1.560000000000e+00 -2.149699793213e+04 4.545625411900e-01 
1  3  4  2  
3  5  6  4  
5  7  8  6  
6  8  29  28  
7  9  10  8  
8  10  30  29  
9  11  12  10  
10  12  31  30  
11  13  14  12  
12  14  32  31  
13  15  16  14  
14  16  33  32  
15  17  18  16  
16  18  34  33  
17  19  20  18  
18  20  35  34  
19  21  22  20  
20  22  36  35  
21  23  24  22  
22  24  37  36  
23  25  26  24  
24  26  38  37  
39  1  2  40  
40  2  27  41  
2  4  42  27  
4  6  28  42  
VARIABLES  = "X","Y","Z", "PRESSURE1", "SATURATION1"
ZONE T="3.600000000000e+03s", N=42, E=26, F=FEPOINT, ET=QUADRILATERAL
STRANDID=1, SOLUTIONTIME=3.600000000000e+03
0.000000000000e+00 0.000000000000e+00 1.520000000000e+00 -2.149434001338e+04 4.545949748806e-01 
2.000000000000e-02 0.000000000000e+00 1.520000000000e+00 -2.149433810197e+04 4.545949982049e-01 
0.000000000000e+00 0.000000000000e+00 1.560000000000e+00 -2.149432300428e+04 4.545951824370e-01 
2.000000000000e-02 0.000000000000e+00 1.560000000000e+00 -2.149432547665e+04 4.545951522675e-01 
0.000000000000e+00 0.000000000000e+00 1.600000000000e+00 -2.149438128965e+04 4.545944712001e-01 
2.000000000000e-02 0.000000000000e+00 1.600000000000e+00 -2.149437724641e+04 4.545945205384e-01 
0.000000000000e+00 0.000000000000e+00 1.640000000000e+00 -2.149522806624e+04 4.545841382696e-01 
2.000000000000e-02 0.000000000000e+00 1.640000000000e+00 -2.149522924861e+04 4.545841238415e-01 
0.000000000000e+00 0.000000000000e+00 1.680000000000e+00 -2.143308538805e+04 4.553424445194e-01 
2.000000000000e-02 0.000000000000e+00 1.680000000000e+00 -2.143308519124e+04 4.553424469210e-01 
0.000000000000e+00 0.000000000000e+00 1.720000000000e+00 -1.698065422757e+04 4.994725210489e-01 
2.000000000000e-02 0.000000000000e+00 1.720000000000e+00 -1.698065568179e+04 4.994725014621e-01 
0.000000000000e+00 0.000000000000e+00 1.760000000000e+00 -3.806366945787e+03 8.591381285956e-01 
2.000000000000e-02 0.000000000000e+00 1.760000000000e+00 -3.806367889526e+03 8.591380703318e-01 
0.000000000000e+00 0.000000000000e+00 1.800000000000e+00 -2.399828885989e+03 9.649750493393e-01 
2.000000000000e-02 0.000000000000e+00 1.800000000000e+00 -2.399829211731e+03 9.649750421792e-01 
0.000000000000e+00 0.000000000000e+00 1.840000000000e+00 -1.699599155860e+03 9.874422445560e-01 
2.000000000000e-02 0.000000000000e+00 1.840000000000e+00 -1.699598950076e+03 9.874421586383e-01 
0.000000000000e+00 0.000000000000e+00 1.880000000000e+00 -1.255441454546e+03 1.000000000000e+00 