VARIABLES  = "X","Y","Z", "PRESSURE1", "SATURATION1"
ZONE T="0.000000000000e+00s", N=44, E=27, F=FEPOINT, ET=QUADRILATERAL
STRANDID=1, SOLUTIONTIME=0.000000000000e+00
0.000000000000e+00 0.000000000000e+00 0.000000000000e+00 -2.150000000000e+04 4.545259079631e-01 
0.000000000000e+00 0.000000000000e+00 4.000000000000e-02 -2.150000000000e+04 4.545259079631e-01 
2.000000000000e-02 0.000000000000e+00 4.000000000000e-02 -2.150000000000e+04 4.545259079631e-01 
2.000000000000e-02 0.000000000000e+00 0.000000000000e+00 -2.150000000000e+04 4.545259079631e-01 
0.000000000000e+00 0.000000000000e+00 8.000000000000e-02 -2.150000000000e+04 4.545259079631e-01 
2.000000000000e-02 0.000000000000e+00 8.000000000000e-02 -2.150000000000e+04 4.545259079631e-01 
0.000000000000e+00 0.000000000000e+00 1.200000000000e-01 -2.150000000000e+04 4.545259079631e-01 
2.000000000000e-02 0.000000000000e+00 1.200000000000e-01 -2.150000000000e+04 4.545259079631e-01 
0.000000000000e+00 0.000000000000e+00 1.600000000000e-01 -2.150000000000e+04 4.545259079631e-01 
2.000000000000e-02 0.000000000000e+00 1.600000000000e-01 -2.150000000000e+04 4.545259079631e-01 
0.000000000000e+00 0.000000000000e+00 2.000000000000e-01 -2.150000000000e+04 4.545259079631e-01 
2.000000000000e-02 0.000000000000e+00 2.000000000000e-01 -2.150000000000e+04 4.545259079631e-01 
0.000000000000e+00 0.000000000000e+00 2.400000000000e-01 -2.150000000000e+04 4.545259079631e-01 
2.000000000000e-02 0.000000000000e+00 2.400000000000e-01 -2.150000000000e+04 4.545259079631e-01 
0.000000000000e+00 0.000000000000e+00 2.800000000000e-01 -2.150000000000e+04 4.545259079631e-01 
2.000000000000e-02 0.000000000000e+00 2.800000000000e-01 -2.150000000000e+04 4.545259079631e-01 
0.000000000000e+00 0.000000000000e+00 3.200000000000e-01 -2.150000000000e+04 4.545259079631e-01 
2.000000000000e-02 0.000000000000e+00 3.200000000000e-01 -2.150000000000e+04 4.545259079631e-01 
0.000000000000e+00 0.000000000000e+00 3.600000000000e-01 -2.150000000000e+04 4.545259079631e-01 
2.000000000000e-02 0.000000000000e+00 3.600000000000e-01 -2.150000000000e+04 4.545259079631e-01 
0.000000000000e+00 0.000000000000e+00 4.000000000000e-01 -2.150000000000e+04 4.545259079631e-01 
2.000000000000e-02 0.000000000000e+00 4.000000000000e-01 -2.150000000000e+04 4.545259079631e-01 
0.000000000000e+00 0.000000000000e+00 4.400000000000e-01 -2.150000000000e+04 4.545259079631e-01 
2.000000000000e-02 0.000000000000e+00 4.400000000000e-01 -2.150000000000e+04 4.545259079631e-01 
0.000000000000e+00 0.000000000000e+00 4.800000000000e-01 -2.150000000000e+04 4.545259079631e-01 
2.000000000000e-02 0.000000000000e+00 4.800000000000e-01 -2.150000000000e+04 4.545259079631e-01 
0.000000000000e+00 0.000000000000e+00 5.200000000000e-01 -2.150000000000e+04 4.545259079631e-01 
4.000000000000e-02 0.000000000000e+00 4.000000000000e-02 -2.150000000000e+04 4.545259079631e-01 
4.000000000000e-02 0.000000000000e+00 0.000000000000e+00 -2.150000000000e+04 4.545259079631e-01 
4.000000000000e-02 0.000000000000e+00 8.000000000000e-02 -2.150000000000e+04 4.545259079631e-01 
4.000000000000e-02 0.000000000000e+00 1.200000000000e-01 -2.150000000000e+04 4.545259079631e-01 
4.000000000000e-02 0.000000000000e+00 1.600000000000e-01 -2.150000000000e+04 4.545259079631e-01 
4.000000000000e-02 0.000000000000e+00 2.000000000000e-01 -2.150000000000e+04 4.545259079631e-01 
4.000000000000e-02 0.000000000000e+00 2.400000000000e-01 -2.150000000000e+04 4.545259079631e-01 
4.000000000000e-02 0.000000000000e+00 2.800000000000e-01 -2.150000000000e+04 4.545259079631e-01 
4.000000000000e-02 0.000000000000e+00 3.200000000000e-01 -2.150000000000e+04 4.545259079631e-01 
4.000000000000e-02 0.000000000000e+00 3.600000000000e-01 -2.150000000000e+04 4.545259079631e-01 
4.000000000000e-02 0.000000000000e+00 4.000000000000e-01 -2.150000000000e+04 4.545259079631e-01 
4.000000000000e-02 0.000000000000e+00 4.400000000000e-01 -2.150000000000e+04 4.545259079631e-01 
4.000000000000e-02 0.000000000000e+00 4.800000000000e-01 -2.150000000000e+04 4.545259079631e-01 
2.000000000000e-02 0.000000000000e+00 5.200000000000e-01 -2.150000000000e+04 4.545259079631e-01 
4.000000000000e-02 0.000000000000e+00 5.200000000000e-01 -2.150000000000e+04 4.545259079631e-01 
0.000000000000e+00 0.000000000000e+00 5.600000000000e-01 -2.150000000000e+04 4.545259079631e-01 
2.000000000000e-02 0.000000000000e+00 5.600000000000e-01 -2.150000000000e+04 4.545259079631e-01 
1  2  3  4  
2  5  6  3  
4  3  28  29  
3  6  30  28  
5  7  8  6  
6  8  31  30  
7  9  10  8  
8  10  32  31  
9  11  12  10  
10  12  33  32  
11  13  14  12  
12  14  34  33  
13  15  16  14  
14  16  35  34  
15  17  18  16  
16  18  36  35  
17  19  20  18  
18  20  37  36  
19  21  22  20  
20  22  38  37  
21  23  24  22  
22  24  39  38  
23  25  26  24  
24  26  40  39  
25  27  41  26  
26  41  42  40  
27  43  44  41  
VARIABLES  = "X","Y","Z", "PRESSURE1", "SATURATION1"
ZONE T="1.000000000000e-02s", N=44, E=27, F=FEPOINT, ET=QUADRILATERAL
STRANDID=1, SOLUTIONTIME=1.000000000000e-02
0.000000000000e+00 0.000000000000e+00 0.000000000000e+00 -2.149999999999e+04 4.545259079633e-01 
0.000000000000e+00 0.000000000000e+00 4.000000000000e-02 -2.150000000007e+04 4.545259079623e-01 
2.000000000000e-02 0.000000000000e+00 4.000000000000e-02 -2.149999999999e+04 4.545259079632e-01 
2.000000000000e-02 0.000000000000e+00 0.000000000000e+00 -2.149999999999e+04 4.545259079633e-01 
0.000000000000e+00 0.000000000000e+00 8.000000000000e-02 -2.149999999999e+04 4.545259079633e-01 
2.000000000000e-02 0.000000000000e+00 8.000000000000e-02 -2.149999999999e+04 4.545259079632e-01 
0.000000000000e+00 0.000000000000e+00 1.200000000000e-01 -2.149999999999e+04 4.545259079633e-01 
2.000000000000e-02 0.000000000000e+00 1.200000000000e-01 -2.149999999999e+04 4.545259079633e-01 
0.000000000000e+00 0.000000000000e+00 1.600000000000e-01 -2.149999999999e+04 4.545259079633e-01 
2.000000000000e-02 0.000000000000e+00 1.600000000000e-01 -2.149999999999e+04 4.545259079633e-01 
0.000000000000e+00 0.000000000000e+00 2.000000000000e-01 -2.149999999999e+04 4.545259079633e-01 
2.000000000000e-02 0.000000000000e+00 2.000000000000e-01 -2.149999999999e+04 4.545259079633e-01 
0.000000000000e+00 0.000000000000e+00 2.400000000000e-01 -2.149999999999e+04 4.545259079633e-01 
2.000000000000e-02 0.000000000000e+00 2.400000000000e-01 -2.149999999999e+04 4.545259079633e-01 
0.000000000000e+00 0.000000000000e+00 2.800000000000e-01 -2.149999999999e+04 4.545259079633e-01 
2.000000000000e-02 0.000000000000e+00 2.800000000000e-01 -2.149999999999e+04 4.545259079633e-01 
0.000000000000e+00 0.000000000000e+00 3.200000000000e-01 -2.149999999999e+04 4.545259079633e-01 
2.000000000000e-02 0.000000000000e+00 3.200000000000e-01 -2.149999999999e+04 4.545259079633e-01 
0.000000000000e+00 0.000000000000e+00 3.600000000000e-01 -2.149999999999e+04 4.545259079633e-01 
2.000000000000e-02 0.000000000000e+00 3.600000000000e-01 -2.149999999999e+04 4.545259079633e-01 
0.000000000000e+00 0.000000000000e+00 4.000000000000e-01 -2.149999999999e+04 4.545259079633e-01 
2.000000000000e-02 0.000000000000e+00 4.000000000000e-01 -2.149999999999e+04 4.545259079633e-01 
0.000000000000e+00 0.000000000000e+00 4.400000000000e-01 -2.149999999999e+04 4.545259079633e-01 
2.000000000000e-02 0.000000000000e+00 4.400000000000e-01 -2.149999999999e+04 4.545259079633e-01 
0.000000000000e+00 0.000000000000e+00 4.800000000000e-01 -2.149999999999e+04 4.545259079633e-01 
2.000000000000e-02 0.000000000000e+00 4.800000000000e-01 -2.149999999998e+04 4.545259079634e-01 
0.000000000000e+00 0.000000000000e+00 5.200000000000e-01 -2.150000000002e+04 4.545259079629e-01 
4.000000000000e-02 0.000000000000e+00 4.000000000000e-02 -2.150000000000e+04 4.545259079631e-01 
4.000000000000e-02 0.000000000000e+00 0.000000000000e+00 -2.149999999999e+04 4.545259079633e-01 
4.000000000000e-02 0.000000000000e+00 8.000000000000e-02 -2.149999999999e+04 4.545259079632e-01 
4.000000000000e-02 0.000000000000e+00 1.200000000000e-01 -2.149999999999e+04 4.545259079633e-01 
4.000000000000e-02 0.000000000000e+00 1.600000000000e-01 -2.149999999999e+04 4.545259079633e-01 
4.000000000000e-02 0.000000000000e+00 2.000000000000e-01 -2.149999999999e+04 4.545259079633e-01 
4.000000000000e-02 0.000000000000e+00 2.400000000000e-01 -2.149999999999e+04 4.545259079633e-01 
4.000000000000e-02 0.000000000000e+00 2.800000000000e-01 -2.149999999999e+04 4.545259079633e-01 
4.000000000000e-02 0.000000000000e+00 3.200000000000e-01 -2.149999999999e+04 4.545259079633e-01 
4.000000000000e-02 0.000000000000e+00 3.600000000000e-01 -2.149999999999e+04 4.545259079633e-01 
4.000000000000e-02 0.000000000000e+00 4.000000000000e-01 -2.149999999999e+04 4.545259079633e-01 
4.000000000000e-02 0.000000000000e+00 4.400000000000e-01 -2.149999999999e+04 4.545259079633e-01 
4.000000000000e-02 0.000000000000e+00 4.800000000000e-01 -2.150000000000e+04 4.545259079632e-01 
2.000000000000e-02 0.000000000000e+00 5.200000000000e-01 -2.149999999997e+04 4.545259079635e-01 
4.000000000000e-02 0.000000000000e+00 5.200000000000e-01 -2.150000000002e+04 4.545259079629e-01 
0.000000000000e+00 0.000000000000e+00 5.600000000000e-01 -2.149999999998e+04 4.545259079634e-01 
2.000000000000e-02 0.000000000000e+00 5.600000000000e-01 -2.150000000000e+04 4.545259079631e-01 
1  2  3  4  
2  5  6  3  
4  3  28  29  
3  6  30  28  
5  7  8  6  
6  8  31  30  
7  9  10  8  
8  10  32  31  
9  11  12  10  
10  12  33  32  
11  13  14  12  
12  14  34  33  
13  15  16  14  
14  16  35  34  
15  17  18  16  
16  18  36  35  
17  19  20  18  
18  20  37  36  
19  21  22  20  
20  22  38  37  
21  23  24  22  
22  24  39  38  
23  25  26  24  
24  26  40  39  
25  27  41  26  
26  41  42  40  
27  43  44  41  
VARIABLES  = "X","Y","Z", "PRESSURE1", "SATURATION1"
ZONE T="1.000000000000e-01s", N=44, E=27, F=FEPOINT, ET=QUADRILATERAL
STRANDID=1, SOLUTIONTIME=1.000000000000e-01
0.000000000000e+00 0.000000000000e+00 0.000000000000e+00 -2.149999999897e+04 4.545259079757e-01 
0.000000000000e+00 0.000000000000e+00 4.000000000000e-02 -2.150000000558e+04 4.545259078950e-01 
2.000000000000e-02 0.000000000000e+00 4.000000000000e-02 -2.149999999913e+04 4.545259079738e-01 
2.000000000000e-02 0.000000000000e+00 0.000000000000e+00 -2.149999999897e+04 4.545259079757e-01 
0.000000000000e+00 0.000000000000e+00 8.000000000000e-02 -2.149999999879e+04 4.545259079779e-01 
2.000000000000e-02 0.000000000000e+00 8.000000000000e-02 -2.149999999942e+04 4.545259079702e-01 
0.000000000000e+00 0.000000000000e+00 1.200000000000e-01 -2.149999999895e+04 4.545259079759e-01 
2.000000000000e-02 0.000000000000e+00 1.200000000000e-01 -2.149999999895e+04 4.545259079759e-01 
0.000000000000e+00 0.000000000000e+00 1.600000000000e-01 -2.149999999895e+04 4.545259079759e-01 
2.000000000000e-02 0.000000000000e+00 1.600000000000e-01 -2.149999999895e+04 4.545259079759e-01 
0.000000000000e+00 0.000000000000e+00 2.000000000000e-01 -2.149999999895e+04 4.545259079759e-01 
2.000000000000e-02 0.000000000000e+00 2.000000000000e-01 -2.149999999895e+04 4.545259079759e-01 
0.000000000000e+00 0.000000000000e+00 2.400000000000e-01 -2.149999999895e+04 4.545259079759e-01 
2.000000000000e-02 0.000000000000e+00 2.400000000000e-01 -2.149999999895e+04 4.545259079759e-01 
0.000000000000e+00 0.000000000000e+00 2.800000000000e-01 -2.149999999895e+04 4.545259079759e-01 
2.000000000000e-02 0.000000000000e+00 2.800000000000e-01 -2.149999999895e+04 4.545259079759e-01 
0.000000000000e+00 0.000000000000e+00 3.200000000000e-01 -2.149999999895e+04 4.545259079759e-01 
2.000000000000e-02 0.000000000000e+00 3.200000000000e-01 -2.149999999895e+04 4.545259079759e-01 
0.000000000000e+00 0.000000000000e+00 3.600000000000e-01 -2.149999999895e+04 4.545259079759e-01 
2.000000000000e-02 0.000000000000e+00 3.600000000000e-01 -2.149999999895e+04 4.545259079759e-01 
0.000000000000e+00 0.000000000000e+00 4.000000000000e-01 -2.149999999895e+04 4.545259079759e-01 
2.000000000000e-02 0.000000000000e+00 4.000000000000e-01 -2.149999999895e+04 4.545259079759e-01 
0.000000000000e+00 0.000000000000e+00 4.400000000000e-01 -2.149999999895e+04 4.545259079759e-01 
2.000000000000e-02 0.000000000000e+00 4.400000000000e-01 -2.149999999895e+04 4.545259079759e-01 
0.000000000000e+00 0.000000000000e+00 4.800000000000e-01 -2.149999999895e+04 4.545259079759e-01 
2.000000000000e-02 0.000000000000e+00 4.800000000000e-01 -2.149999999797e+04 4.545259079879e-01 
0.000000000000e+00 0.000000000000e+00 5.200000000000e-01 -2.150000000159e+04 4.545259079437e-01 
4.000000000000e-02 0.000000000000e+00 4.000000000000e-02 -2.149999999982e+04 4.545259079653e-01 
4.000000000000e-02 0.000000000000e+00 0.000000000000e+00 -2.149999999897e+04 4.545259079757e-01 
4.000000000000e-02 0.000000000000e+00 8.000000000000e-02 -2.149999999926e+04 4.545259079721e-01 
4.000000000000e-02 0.000000000000e+00 1.200000000000e-01 -2.149999999895e+04 4.545259079759e-01 
4.000000000000e-02 0.000000000000e+00 1.600000000000e-01 -2.149999999895e+04 4.545259079759e-01 
4.000000000000e-02 0.000000000000e+00 2.000000000000e-01 -2.149999999895e+04 4.545259079759e-01 
4.000000000000e-02 0.000000000000e+00 2.400000000000e-01 -2.149999999895e+04 4.545259079759e-01 
4.000000000000e-02 0.000000000000e+00 2.800000000000e-01 -2.149999999895e+04 4.545259079759e-01 
4.000000000000e-02 0.000000000000e+00 3.200000000000e-01 -2.149999999895e+04 4.545259079759e-01 
4.000000000000e-02 0.000000000000e+00 3.600000000000e-01 -2.149999999895e+04 4.545259079759e-01 
4.000000000000e-02 0.000000000000e+00 4.000000000000e-01 -2.149999999895e+04 4.545259079759e-01 
4.000000000000e-02 0.000000000000e+00 4.400000000000e-01 -2.149999999895e+04 4.545259079759e-01 
4.000000000000e-02 0.000000000000e+00 4.800000000000e-01 -2.149999999974e+04 4.545259079663e-01 
2.000000000000e-02 0.000000000000e+00 5.200000000000e-01 -2.149999999726e+04 4.545259079966e-01 
4.000000000000e-02 0.000000000000e+00 5.200000000000e-01 -2.150000000155e+04 4.545259079443e-01 
0.000000000000e+00 0.000000000000e+00 5.600000000000e-01 -2.149999999826e+04 4.545259079843e-01 
2.000000000000e-02 0.000000000000e+00 5.600000000000e-01 -2.150000000023e+04 4.545259079603e-01 
1  2  3  4  
2  5  6  3  
4  3  28  29  
3  6  30  28  
5  7  8  6  
6  8  31  30  
7  9  10  8  
8  10  32  31  
9  11  12  10  
10  12  33  32  
11  13  14  12  
12  14  34  33  
13  15  16  14  
14  16  35  34  
15  17  18  16  
16  18  36  35  
17  19  20  18  
18  20  37  36  
19  21  22  20  
20  22  38  37  
21  23  24  22  
22  24  39  38  
23  25  26  24  
24  26  40  39  
25  27  41  26  
26  41  42  40  
27  43  44  41  
VARIABLES  = "X","Y","Z", "PRESSURE1", "SATURATION1"
ZONE T="1.000000000000e+00s", N=44, E=27, F=FEPOINT, ET=QUADRILATERAL
STRANDID=1, SOLUTIONTIME=1.000000000000e+00
0.000000000000e+00 0.000000000000e+00 0.000000000000e+00 -2.149999989658e+04 4.545259092251e-01 
0.000000000000e+00 0.000000000000e+00 4.000000000000e-02 -2.150000055665e+04 4.545259011705e-01 
2.000000000000e-02 0.000000000000e+00 4.000000000000e-02 -2.149999991296e+04 4.545259090252e-01 
2.000000000000e-02 0.000000000000e+00 0.000000000000e+00 -2.149999989658e+04 4.545259092251e-01 
0.000000000000e+00 0.000000000000e+00 8.000000000000e-02 -2.149999987902e+04 4.545259094394e-01 
2.000000000000e-02 0.000000000000e+00 8.000000000000e-02 -2.149999994229e+04 4.545259086673e-01 
0.000000000000e+00 0.000000000000e+00 1.200000000000e-01 -2.149999989558e+04 4.545259092373e-01 
2.000000000000e-02 0.000000000000e+00 1.200000000000e-01 -2.149999989553e+04 4.545259092379e-01 
0.000000000000e+00 0.000000000000e+00 1.600000000000e-01 -2.149999989561e+04 4.545259092370e-01 
2.000000000000e-02 0.000000000000e+00 1.600000000000e-01 -2.149999989553e+04 4.545259092380e-01 
0.000000000000e+00 0.000000000000e+00 2.000000000000e-01 -2.149999989562e+04 4.545259092369e-01 
2.000000000000e-02 0.000000000000e+00 2.000000000000e-01 -2.149999989552e+04 4.545259092380e-01 
0.000000000000e+00 0.000000000000e+00 2.400000000000e-01 -2.149999989562e+04 4.545259092369e-01 
2.000000000000e-02 0.000000000000e+00 2.400000000000e-01 -2.149999989552e+04 4.545259092380e-01 
0.000000000000e+00 0.000000000000e+00 2.800000000000e-01 -2.149999989562e+04 4.545259092369e-01 
2.000000000000e-02 0.000000000000e+00 2.800000000000e-01 -2.149999989552e+04 4.545259092380e-01 
0.000000000000e+00 0.000000000000e+00 3.200000000000e-01 -2.149999989562e+04 4.545259092369e-01 
2.000000000000e-02 0.000000000000e+00 3.200000000000e-01 -2.149999989552e+04 4.545259092380e-01 
0.000000000000e+00 0.000000000000e+00 3.600000000000e-01 -2.149999989562e+04 4.545259092369e-01 
2.000000000000e-02 0.000000000000e+00 3.600000000000e-01 -2.149999989552e+04 4.545259092380e-01 
0.000000000000e+00 0.000000000000e+00 4.000000000000e-01 -2.149999989562e+04 4.545259092369e-01 
2.000000000000e-02 0.000000000000e+00 4.000000000000e-01 -2.149999989552e+04 4.545259092380e-01 
0.000000000000e+00 0.000000000000e+00 4.400000000000e-01 -2.149999989561e+04 4.545259092370e-01 
2.000000000000e-02 0.000000000000e+00 4.400000000000e-01 -2.149999989553e+04 4.545259092379e-01 
0.000000000000e+00 0.000000000000e+00 4.800000000000e-01 -2.149999989557e+04 4.545259092374e-01 
2.000000000000e-02 0.000000000000e+00 4.800000000000e-01 -2.149999979727e+04 4.545259104370e-01 
0.000000000000e+00 0.000000000000e+00 5.200000000000e-01 -2.150000015873e+04 4.545259060261e-01 
4.000000000000e-02 0.000000000000e+00 4.000000000000e-02 -2.149999998153e+04 4.545259081885e-01 
4.000000000000e-02 0.000000000000e+00 0.000000000000e+00 -2.149999989658e+04 4.545259092251e-01 
4.000000000000e-02 0.000000000000e+00 8.000000000000e-02 -2.149999992632e+04 4.545259088622e-01 
4.000000000000e-02 0.000000000000e+00 1.200000000000e-01 -2.149999989562e+04 4.545259092368e-01 
4.000000000000e-02 0.000000000000e+00 1.600000000000e-01 -2.149999989563e+04 4.545259092367e-01 
4.000000000000e-02 0.000000000000e+00 2.000000000000e-01 -2.149999989564e+04 4.545259092366e-01 
4.000000000000e-02 0.000000000000e+00 2.400000000000e-01 -2.149999989564e+04 4.545259092366e-01 
4.000000000000e-02 0.000000000000e+00 2.800000000000e-01 -2.149999989564e+04 4.545259092366e-01 
4.000000000000e-02 0.000000000000e+00 3.200000000000e-01 -2.149999989564e+04 4.545259092366e-01 
4.000000000000e-02 0.000000000000e+00 3.600000000000e-01 -2.149999989564e+04 4.545259092366e-01 
4.000000000000e-02 0.000000000000e+00 4.000000000000e-01 -2.149999989564e+04 4.545259092365e-01 
4.000000000000e-02 0.000000000000e+00 4.400000000000e-01 -2.149999989562e+04 4.545259092369e-01 
4.000000000000e-02 0.000000000000e+00 4.800000000000e-01 -2.149999997419e+04 4.545259082780e-01 
2.000000000000e-02 0.000000000000e+00 5.200000000000e-01 -2.149999972625e+04 4.545259113036e-01 
4.000000000000e-02 0.000000000000e+00 5.200000000000e-01 -2.150000015400e+04 4.545259060840e-01 
0.000000000000e+00 0.000000000000e+00 5.600000000000e-01 -2.149999982663e+04 4.545259100787e-01 
2.000000000000e-02 0.000000000000e+00 5.600000000000e-01 -2.150000002270e+04 4.545259076861e-01 
1  2  3  4  
2  5  6  3  
4  3  28  29  
3  6  30  28  
5  7  8  6  
6  8  31  30  
7  9  10  8  
8  10  32  31  
9  11  12  10  
10  12  33  32  
11  13  14  12  
12  14  34  33  
13  15  16  14  
14  16  35  34  
15  17  18  16  
16  18  36  35  
17  19  20  18  
18  20  37  36  
19  21  22  20  
20  22  38  37  
21  23  24  22  
22  24  39  38  
23  25  26  24  
24  26  40  39  
25  27  41  26  
26  41  42  40  
27  43  44  41  
VARIABLES  = "X","Y","Z", "PRESSURE1", "SATURATION1"
ZONE T="1.800000000000e+02s", N=44, E=27, F=FEPOINT, ET=QUADRILATERAL
STRANDID=1, SOLUTIONTIME=1.800000000000e+02
0.000000000000e+00 0.000000000000e+00 0.000000000000e+00 -2.150000000002e+04 4.545259079629e-01 
0.000000000000e+00 0.000000000000e+00 4.000000000000e-02 -2.150000050777e+04 4.545259017669e-01 
2.000000000000e-02 0.000000000000e+00 4.000000000000e-02 -2.149999992984e+04 4.545259088193e-01 
2.000000000000e-02 0.000000000000e+00 0.000000000000e+00 -2.150000000002e+04 4.545259079629e-01 
0.000000000000e+00 0.000000000000e+00 8.000000000000e-02 -2.149999987924e+04 4.545259094367e-01 
2.000000000000e-02 0.000000000000e+00 8.000000000000e-02 -2.149999994511e+04 4.545259086329e-01 
0.000000000000e+00 0.000000000000e+00 1.200000000000e-01 -2.149999989686e+04 4.545259092217e-01 
2.000000000000e-02 0.000000000000e+00 1.200000000000e-01 -2.149999989569e+04 4.545259092360e-01 
0.000000000000e+00 0.000000000000e+00 1.600000000000e-01 -2.149999989594e+04 4.545259092329e-01 
2.000000000000e-02 0.000000000000e+00 1.600000000000e-01 -2.149999989590e+04 4.545259092334e-01 
0.000000000000e+00 0.000000000000e+00 2.000000000000e-01 -2.149999989595e+04 4.545259092328e-01 
2.000000000000e-02 0.000000000000e+00 2.000000000000e-01 -2.149999989589e+04 4.545259092336e-01 
0.000000000000e+00 0.000000000000e+00 2.400000000000e-01 -2.149999989595e+04 4.545259092328e-01 
2.000000000000e-02 0.000000000000e+00 2.400000000000e-01 -2.149999989589e+04 4.545259092335e-01 
0.000000000000e+00 0.000000000000e+00 2.800000000000e-01 -2.149999989595e+04 4.545259092328e-01 
2.000000000000e-02 0.000000000000e+00 2.800000000000e-01 -2.149999989589e+04 4.545259092335e-01 
0.000000000000e+00 0.000000000000e+00 3.200000000000e-01 -2.149999989595e+04 4.545259092328e-01 
2.000000000000e-02 0.000000000000e+00 3.200000000000e-01 -2.149999989589e+04 4.545259092335e-01 
0.000000000000e+00 0.000000000000e+00 3.600000000000e-01 -2.149999989595e+04 4.545259092328e-01 
2.000000000000e-02 0.000000000000e+00 3.600000000000e-01 -2.149999989589e+04 4.545259092335e-01 
0.000000000000e+00 0.000000000000e+00 4.000000000000e-01 -2.149999989597e+04 4.545259092326e-01 
2.000000000000e-02 0.000000000000e+00 4.000000000000e-01 -2.149999989587e+04 4.545259092338e-01 
0.000000000000e+00 0.000000000000e+00 4.400000000000e-01 -2.149999989445e+04 4.545259092512e-01 
2.000000000000e-02 0.000000000000e+00 4.400000000000e-01 -2.149999989702e+04 4.545259092197e-01 
0.000000000000e+00 0.000000000000e+00 4.800000000000e-01 -2.149999988721e+04 4.545259093395e-01 
2.000000000000e-02 0.000000000000e+00 4.800000000000e-01 -2.149999981184e+04 4.545259102591e-01 
0.000000000000e+00 0.000000000000e+00 5.200000000000e-01 -2.150000013199e+04 4.545259063525e-01 
4.000000000000e-02 0.000000000000e+00 4.000000000000e-02 -2.149999997870e+04 4.545259082231e-01 
4.000000000000e-02 0.000000000000e+00 0.000000000000e+00 -2.150000000002e+04 4.545259079629e-01 
4.000000000000e-02 0.000000000000e+00 8.000000000000e-02 -2.149999992664e+04 4.545259088583e-01 
4.000000000000e-02 0.000000000000e+00 1.200000000000e-01 -2.149999989656e+04 4.545259092254e-01 
4.000000000000e-02 0.000000000000e+00 1.600000000000e-01 -2.149999989596e+04 4.545259092327e-01 
4.000000000000e-02 0.000000000000e+00 2.000000000000e-01 -2.149999989597e+04 4.545259092325e-01 
4.000000000000e-02 0.000000000000e+00 2.400000000000e-01 -2.149999989597e+04 4.545259092325e-01 
4.000000000000e-02 0.000000000000e+00 2.800000000000e-01 -2.149999989597e+04 4.545259092325e-01 
4.000000000000e-02 0.000000000000e+00 3.200000000000e-01 -2.149999989597e+04 4.545259092325e-01 
4.000000000000e-02 0.000000000000e+00 3.600000000000e-01 -2.149999989597e+04 4.545259092326e-01 
4.000000000000e-02 0.000000000000e+00 4.000000000000e-01 -2.149999989599e+04 4.545259092323e-01 
4.000000000000e-02 0.000000000000e+00 4.400000000000e-01 -2.149999989395e+04 4.545259092573e-01 
4.000000000000e-02 0.000000000000e+00 4.800000000000e-01 -2.149999995998e+04 4.545259084515e-01 
2.000000000000e-02 0.000000000000e+00 5.200000000000e-01 -2.149999975014e+04 4.545259110121e-01 
4.000000000000e-02 0.000000000000e+00 5.200000000000e-01 -2.150000012809e+04 4.545259064001e-01 
0.000000000000e+00 0.000000000000e+00 5.600000000000e-01 -2.149999983465e+04 4.545259099808e-01 
2.000000000000e-02 0.000000000000e+00 5.600000000000e-01 -2.150000001759e+04 4.545259077484e-01 
1  2  3  4  
2  5  6  3  
4  3  28  29  
3  6  30  28  
5  7  8  6  
6  8  31  30  
7  9  10  8  
8  10  32  31  
9  11  12  10  
10  12  33  32  
11  13  14  12  
12  14  34  33  
13  15  16  14  
14  16  35  34  
15  17  18  16  
16  18  36  35  
17  19  20  18  
18  20  37  36  
19  21  22  20  
20  22  38  37  
21  23  24  22  
22  24  39  38  
23  25  26  24  
24  26  40  39  
25  27  41  26  
26  41  42  40  
27  43  44  41  
VARIABLES  = "X","Y","Z", "PRESSURE1", "SATURATION1"
ZONE T="1.800000000000e+03s", N=44, E=27, F=FEPOINT, ET=QUADRILATERAL
STRANDID=1, SOLUTIONTIME=1.800000000000e+03
0.000000000000e+00 0.000000000000e+00 0.000000000000e+00 -2.150000002343e+04 4.545259076772e-01 
0.000000000000e+00 0.000000000000e+00 4.000000000000e-02 -2.149997731625e+04 4.545261847653e-01 
2.000000000000e-02 0.000000000000e+00 4.000000000000e-02 -2.149999884268e+04 4.545259220855e-01 
2.000000000000e-02 0.000000000000e+00 0.000000000000e+00 -2.150000002343e+04 4.545259076772e-01 
0.000000000000e+00 0.000000000000e+00 8.000000000000e-02 -2.149999957874e+04 4.545259131036e-01 
2.000000000000e-02 0.000000000000e+00 8.000000000000e-02 -2.150000064774e+04 4.545259000590e-01 
0.000000000000e+00 0.000000000000e+00 1.200000000000e-01 -2.150000026267e+04 4.545259047578e-01 
2.000000000000e-02 0.000000000000e+00 1.200000000000e-01 -2.150000028011e+04 4.545259045450e-01 
0.000000000000e+00 0.000000000000e+00 1.600000000000e-01 -2.150000008119e+04 4.545259069724e-01 
2.000000000000e-02 0.000000000000e+00 1.600000000000e-01 -2.150000032304e+04 4.545259040211e-01 
0.000000000000e+00 0.000000000000e+00 2.000000000000e-01 -2.150000005696e+04 4.545259072680e-01 
2.000000000000e-02 0.000000000000e+00 2.000000000000e-01 -2.150000032486e+04 4.545259039989e-01 
0.000000000000e+00 0.000000000000e+00 2.400000000000e-01 -2.150000005773e+04 4.545259072586e-01 
2.000000000000e-02 0.000000000000e+00 2.400000000000e-01 -2.150000032361e+04 4.545259040142e-01 
0.000000000000e+00 0.000000000000e+00 2.800000000000e-01 -2.150000005771e+04 4.545259072589e-01 
2.000000000000e-02 0.000000000000e+00 2.800000000000e-01 -2.150000032364e+04 4.545259040138e-01 
0.000000000000e+00 0.000000000000e+00 3.200000000000e-01 -2.150000005770e+04 4.545259072591e-01 
2.000000000000e-02 0.000000000000e+00 3.200000000000e-01 -2.150000032366e+04 4.545259040136e-01 
0.000000000000e+00 0.000000000000e+00 3.600000000000e-01 -2.150000005785e+04 4.545259072572e-01 
2.000000000000e-02 0.000000000000e+00 3.600000000000e-01 -2.150000032313e+04 4.545259040201e-01 
0.000000000000e+00 0.000000000000e+00 4.000000000000e-01 -2.150000005323e+04 4.545259073135e-01 
2.000000000000e-02 0.000000000000e+00 4.000000000000e-01 -2.150000033021e+04 4.545259039337e-01 
0.000000000000e+00 0.000000000000e+00 4.400000000000e-01 -2.150000021571e+04 4.545259053309e-01 
2.000000000000e-02 0.000000000000e+00 4.400000000000e-01 -2.150000022694e+04 4.545259051938e-01 
0.000000000000e+00 0.000000000000e+00 4.800000000000e-01 -2.150000098428e+04 4.545258959523e-01 
2.000000000000e-02 0.000000000000e+00 4.800000000000e-01 -2.150000407865e+04 4.545258581927e-01 
0.000000000000e+00 0.000000000000e+00 5.200000000000e-01 -2.149999302483e+04 4.545259930787e-01 
4.000000000000e-02 0.000000000000e+00 4.000000000000e-02 -2.149999801355e+04 4.545259322031e-01 
4.000000000000e-02 0.000000000000e+00 0.000000000000e+00 -2.150000002343e+04 4.545259076772e-01 
4.000000000000e-02 0.000000000000e+00 8.000000000000e-02 -2.149999936782e+04 4.545259156774e-01 
4.000000000000e-02 0.000000000000e+00 1.200000000000e-01 -2.150000009498e+04 4.545259068041e-01 
4.000000000000e-02 0.000000000000e+00 1.600000000000e-01 -2.150000000405e+04 4.545259079137e-01 
4.000000000000e-02 0.000000000000e+00 2.000000000000e-01 -2.149999997748e+04 4.545259082380e-01 
4.000000000000e-02 0.000000000000e+00 2.400000000000e-01 -2.149999997820e+04 4.545259082291e-01 
4.000000000000e-02 0.000000000000e+00 2.800000000000e-01 -2.149999997818e+04 4.545259082293e-01 
4.000000000000e-02 0.000000000000e+00 3.200000000000e-01 -2.149999997819e+04 4.545259082293e-01 
4.000000000000e-02 0.000000000000e+00 3.600000000000e-01 -2.149999997874e+04 4.545259082225e-01 
4.000000000000e-02 0.000000000000e+00 4.000000000000e-01 -2.149999995569e+04 4.545259085038e-01 
4.000000000000e-02 0.000000000000e+00 4.400000000000e-01 -2.150000024845e+04 4.545259049314e-01 
4.000000000000e-02 0.000000000000e+00 4.800000000000e-01 -2.149999762778e+04 4.545259369105e-01 
2.000000000000e-02 0.000000000000e+00 5.200000000000e-01 -2.150000709228e+04 4.545258214184e-01 
4.000000000000e-02 0.000000000000e+00 5.200000000000e-01 -2.149998753854e+04 4.545260600261e-01 
0.000000000000e+00 0.000000000000e+00 5.600000000000e-01 -2.150000074193e+04 4.545258989095e-01 
2.000000000000e-02 0.000000000000e+00 5.600000000000e-01 -2.149999680625e+04 4.545259469354e-01 
1  2  3  4  
2  5  6  3  
4  3  28  29  
3  6  30  28  
5  7  8  6  
6  8  31  30  
7  9  10  8  
8  10  32  31  
9  11  12  10  
10  12  33  32  
11  13  14  12  
12  14  34  33  
13  15  16  14  
14  16  35  34  
15  17  18  16  
16  18  36  35  
17  19  20  18  
18  20  37  36  
19  21  22  20  
20  22  38  37  
21  23  24  22  
22  24  39  38  
23  25  26  24  
24  26  40  39  
25  27  41  26  
26  41  42  40  
27  43  44  41  
VARIABLES  = "X","Y","Z", "PRESSURE1", "SATURATION1"
ZONE T="3.600000000000e+03s", N=44, E=27, F=FEPOINT, ET=QUADRILATERAL
STRANDID=1, SOLUTIONTIME=3.600000000000e+03
0.000000000000e+00 0.000000000000e+00 0.000000000000e+00 -2.149999999653e+04 4.545259080055e-01 
0.000000000000e+00 0.000000000000e+00 4.000000000000e-02 -2.149998815194e+04 4.545260525410e-01 
2.000000000000e-02 0.000000000000e+00 4.000000000000e-02 -2.149999628645e+04 4.545259532783e-01 
2.000000000000e-02 0.000000000000e+00 0.000000000000e+00 -2.149999999653e+04 4.545259080055e-01 
0.000000000000e+00 0.000000000000e+00 8.000000000000e-02 -2.150000011447e+04 4.545259065663e-01 
2.000000000000e-02 0.000000000000e+00 8.000000000000e-02 -2.149999925717e+04 4.545259170276e-01 