VARIABLES  = "X","Y","Z", "PRESSURE1", "SATURATION1"
ZONE T="0.000000000000e+00s", N=42, E=26, F=FEPOINT, ET=QUADRILATERAL
STRANDID=1, SOLUTIONTIME=0.000000000000e+00
0.000000000000e+00 0.000000000000e+00 1.520000000000e+00 -2.150000000000e+04 4.545259079631e-01 
2.000000000000e-02 0.000000000000e+00 1.520000000000e+00 -2.150000000000e+04 4.545259079631e-01 
0.000000000000e+00 0.000000000000e+00 1.560000000000e+00 -2.150000000000e+04 4.545259079631e-01 
2.000000000000e-02 0.000000000000e+00 1.560000000000e+00 -2.150000000000e+04 4.545259079631e-01 
0.000000000000e+00 0.000000000000e+00 1.600000000000e+00 -2.150000000000e+04 4.545259079631e-01 
2.000000000000e-02 0.000000000000e+00 1.600000000000e+00 -2.150000000000e+04 4.545259079631e-01 
0.000000000000e+00 0.000000000000e+00 1.640000000000e+00 -2.150000000000e+04 4.545259079631e-01 
2.000000000000e-02 0.000000000000e+00 1.640000000000e+00 -2.150000000000e+04 4.545259079631e-01 
0.000000000000e+00 0.000000000000e+00 1.680000000000e+00 -2.150000000000e+04 4.545259079631e-01 
2.000000000000e-02 0.000000000000e+00 1.680000000000e+00 -2.150000000000e+04 4.545259079631e-01 
0.000000000000e+00 0.000000000000e+00 1.720000000000e+00 -2.150000000000e+04 4.545259079631e-01 
2.000000000000e-02 0.000000000000e+00 1.720000000000e+00 -2.150000000000e+04 4.545259079631e-01 
0.000000000000e+00 0.000000000000e+00 1.760000000000e+00 -2.150000000000e+04 4.545259079631e-01 
2.000000000000e-02 0.000000000000e+00 1.760000000000e+00 -2.150000000000e+04 4.545259079631e-01 
0.000000000000e+00 0.000000000000e+00 1.800000000000e+00 -2.150000000000e+04 4.545259079631e-01 
2.000000000000e-02 0.000000000000e+00 1.800000000000e+00 -2.150000000000e+04 4.545259079631e-01 
0.000000000000e+00 0.000000000000e+00 1.840000000000e+00 -2.150000000000e+04 4.545259079631e-01 
2.000000000000e-02 0.000000000000e+00 1.840000000000e+00 -2.150000000000e+04 4.545259079631e-01 
0.000000000000e+00 0.000000000000e+00 1.880000000000e+00 -2.150000000000e+04 4.545259079631e-01 
2.000000000000e-02 0.000000000000e+00 1.880000000000e+00 -2.150000000000e+04 4.545259079631e-01 
0.000000000000e+00 0.000000000000e+00 1.920000000000e+00 -2.150000000000e+04 4.545259079631e-01 
2.000000000000e-02 0.000000000000e+00 1.920000000000e+00 -2.150000000000e+04 4.545259079631e-01 
0.000000000000e+00 0.000000000000e+00 1.960000000000e+00 -2.150000000000e+04 4.545259079631e-01 
2.000000000000e-02 0.000000000000e+00 1.960000000000e+00 -2.150000000000e+04 4.545259079631e-01 
0.000000000000e+00 0.000000000000e+00 2.000000000000e+00 -2.150000000000e+04 4.545259079631e-01 
2.000000000000e-02 0.000000000000e+00 2.000000000000e+00 -2.150000000000e+04 4.545259079631e-01 
4.000000000000e-02 0.000000000000e+00 1.520000000000e+00 -2.150000000000e+04 4.545259079631e-01 
4.000000000000e-02 0.000000000000e+00 1.600000000000e+00 -2.150000000000e+04 4.545259079631e-01 
4.000000000000e-02 0.000000000000e+00 1.640000000000e+00 -2.150000000000e+04 4.545259079631e-01 
4.000000000000e-02 0.000000000000e+00 1.680000000000e+00 -2.150000000000e+04 4.545259079631e-01 
4.000000000000e-02 0.000000000000e+00 1.720000000000e+00 -2.150000000000e+04 4.545259079631e-01 
4.000000000000e-02 0.000000000000e+00 1.760000000000e+00 -2.150000000000e+04 4.545259079631e-01 
4.000000000000e-02 0.000000000000e+00 1.800000000000e+00 -2.150000000000e+04 4.545259079631e-01 
4.000000000000e-02 0.000000000000e+00 1.840000000000e+00 -2.150000000000e+04 4.545259079631e-01 
4.000000000000e-02 0.000000000000e+00 1.880000000000e+00 -2.150000000000e+04 4.545259079631e-01 
4.000000000000e-02 0.000000000000e+00 1.920000000000e+00 -2.150000000000e+04 4.545259079631e-01 
4.000000000000e-02 0.000000000000e+00 1.960000000000e+00 -2.150000000000e+04 4.545259079631e-01 
4.000000000000e-02 0.000000000000e+00 2.000000000000e+00 -2.150000000000e+04 4.545259079631e-01 
0.000000000000e+00 0.000000000000e+00 1.480000000000e+00 -2.150000000000e+04 4.545259079631e-01 
2.000000000000e-02 0.000000000000e+00 1.480000000000e+00 -2.150000000000e+04 4.545259079631e-01 
4.000000000000e-02 0.000000000000e+00 1.480000000000e+00 -2.150000000000e+04 4.545259079631e-01 
4.000000000000e-02 0.000000000000e+00 1.560000000000e+00 -2.150000000000e+04 4.545259079631e-01 
1  3  4  2  
3  5  6  4  
5  7  8  6  
6  8  29  28  
7  9  10  8  
8  10  30  29  
9  11  12  10  
10  12  31  30  
11  13  14  12  
12  14  32  31  
13  15  16  14  
14  16  33  32  
15  17  18  16  
16  18  34  33  
17  19  20  18  
18  20  35  34  
19  21  22  20  
20  22  36  35  
21  23  24  22  
22  24  37  36  
23  25  26  24  
24  26  38  37  
39  1  2  40  
40  2  27  41  
2  4  42  27  
4  6  28  42  
VARIABLES  = "X","Y","Z", "PRESSURE1", "SATURATION1"
ZONE T="1.000000000000e-02s", N=42, E=26, F=FEPOINT, ET=QUADRILATERAL
STRANDID=1, SOLUTIONTIME=1.000000000000e-02
0.000000000000e+00 0.000000000000e+00 1.520000000000e+00 -2.149999999997e+04 4.545259079634e-01 
2.000000000000e-02 0.000000000000e+00 1.520000000000e+00 -2.149999999997e+04 4.545259079635e-01 
0.000000000000e+00 0.000000000000e+00 1.560000000000e+00 -2.149999999995e+04 4.545259079637e-01 
2.000000000000e-02 0.000000000000e+00 1.560000000000e+00 -2.149999999993e+04 4.545259079639e-01 
0.000000000000e+00 0.000000000000e+00 1.600000000000e+00 -2.150000000000e+04 4.545259079632e-01 
2.000000000000e-02 0.000000000000e+00 1.600000000000e+00 -2.149999999997e+04 4.545259079635e-01 
0.000000000000e+00 0.000000000000e+00 1.640000000000e+00 -2.149999999999e+04 4.545259079633e-01 
2.000000000000e-02 0.000000000000e+00 1.640000000000e+00 -2.149999999999e+04 4.545259079633e-01 
0.000000000000e+00 0.000000000000e+00 1.680000000000e+00 -2.149999999999e+04 4.545259079633e-01 
2.000000000000e-02 0.000000000000e+00 1.680000000000e+00 -2.149999999999e+04 4.545259079633e-01 
0.000000000000e+00 0.000000000000e+00 1.720000000000e+00 -2.149999999999e+04 4.545259079633e-01 
2.000000000000e-02 0.000000000000e+00 1.720000000000e+00 -2.149999999999e+04 4.545259079633e-01 
0.000000000000e+00 0.000000000000e+00 1.760000000000e+00 -2.149999999999e+04 4.545259079633e-01 
2.000000000000e-02 0.000000000000e+00 1.760000000000e+00 -2.149999999999e+04 4.545259079633e-01 
0.000000000000e+00 0.000000000000e+00 1.800000000000e+00 -2.149999999999e+04 4.545259079633e-01 
2.000000000000e-02 0.000000000000e+00 1.800000000000e+00 -2.149999999999e+04 4.545259079633e-01 
0.000000000000e+00 0.000000000000e+00 1.840000000000e+00 -2.149999999999e+04 4.545259079633e-01 
2.000000000000e-02 0.000000000000e+00 1.840000000000e+00 -2.149999999999e+04 4.545259079633e-01 
0.000000000000e+00 0.000000000000e+00 1.880000000000e+00 -2.149999999999e+04 4.545259079633e-01 
2.000000000000e-02 0.000000000000e+00 1.880000000000e+00 -2.149999999999e+04 4.545259079633e-01 
0.000000000000e+00 0.000000000000e+00 1.920000000000e+00 -2.149999999898e+04 4.545259079756e-01 
2.000000000000e-02 0.000000000000e+00 1.920000000000e+00 -2.149999999898e+04 4.545259079756e-01 
0.000000000000e+00 0.000000000000e+00 1.960000000000e+00 -2.149835767845e+04 4.345789792025e-01 
2.000000000000e-02 0.000000000000e+00 1.960000000000e+00 -2.149835767845e+04 4.345789792025e-01 
0.000000000000e+00 0.000000000000e+00 2.000000000000e+00 0.000000000000e+00 1.000000000000e+00 
2.000000000000e-02 0.000000000000e+00 2.000000000000e+00 0.000000000000e+00 1.000000000000e+00 
4.000000000000e-02 0.000000000000e+00 1.520000000000e+00 -2.150000000008e+04 4.545259079621e-01 
4.000000000000e-02 0.000000000000e+00 1.600000000000e+00 -2.149999999999e+04 4.545259079632e-01 
4.000000000000e-02 0.000000000000e+00 1.640000000000e+00 -2.149999999999e+04 4.545259079633e-01 
4.000000000000e-02 0.000000000000e+00 1.680000000000e+00 -2.149999999999e+04 4.545259079633e-01 
4.000000000000e-02 0.000000000000e+00 1.720000000000e+00 -2.149999999999e+04 4.545259079633e-01 
4.000000000000e-02 0.000000000000e+00 1.760000000000e+00 -2.149999999999e+04 4.545259079633e-01 
4.000000000000e-02 0.000000000000e+00 1.800000000000e+00 -2.149999999999e+04 4.545259079633e-01 
4.000000000000e-02 0.000000000000e+00 1.840000000000e+00 -2.149999999999e+04 4.545259079633e-01 
4.000000000000e-02 0.000000000000e+00 1.880000000000e+00 -2.149999999999e+04 4.545259079633e-01 
4.000000000000e-02 0.000000000000e+00 1.920000000000e+00 -2.149999999898e+04 4.545259079756e-01 
4.000000000000e-02 0.000000000000e+00 1.960000000000e+00 -2.149835767845e+04 4.345789792025e-01 
4.000000000000e-02 0.000000000000e+00 2.000000000000e+00 0.000000000000e+00 1.000000000000e+00 
0.000000000000e+00 0.000000000000e+00 1.480000000000e+00 -2.149999999999e+04 4.545259079633e-01 
2.000000000000e-02 0.000000000000e+00 1.480000000000e+00 -2.149999999998e+04 4.545259079634e-01 
4.000000000000e-02 0.000000000000e+00 1.480000000000e+00 -2.149999999999e+04 4.545259079632e-01 
4.000000000000e-02 0.000000000000e+00 1.560000000000e+00 -2.149999999996e+04 4.545259079636e-01 
1  3  4  2  
3  5  6  4  
5  7  8  6  
6  8  29  28  
7  9  10  8  
8  10  30  29  
9  11  12  10  
10  12  31  30  
11  13  14  12  
12  14  32  31  
13  15  16  14  
14  16  33  32  
15  17  18  16  
16  18  34  33  
17  19  20  18  
18  20  35  34  
19  21  22  20  
20  22  36  35  
21  23  24  22  
22  24  37  36  
23  25  26  24  
24  26  38  37  
39  1  2  40  
40  2  27  41  
2  4  42  27  
4  6  28  42  
VARIABLES  = "X","Y","Z", "PRESSURE1", "SATURATION1"
ZONE T="1.000000000000e-01s", N=42, E=26, F=FEPOINT, ET=QUADRILATERAL
STRANDID=1, SOLUTIONTIME=1.000000000000e-01
0.000000000000e+00 0.000000000000e+00 1.520000000000e+00 -2.149999999786e+04 4.545259079892e-01 
2.000000000000e-02 0.000000000000e+00 1.520000000000e+00 -2.149999999761e+04 4.545259079922e-01 
0.000000000000e+00 0.000000000000e+00 1.560000000000e+00 -2.149999999625e+04 4.545259080089e-01 
2.000000000000e-02 0.000000000000e+00 1.560000000000e+00 -2.149999999464e+04 4.545259080285e-01 
0.000000000000e+00 0.000000000000e+00 1.600000000000e+00 -2.149999999974e+04 4.545259079663e-01 
2.000000000000e-02 0.000000000000e+00 1.600000000000e+00 -2.149999999733e+04 4.545259079957e-01 
0.000000000000e+00 0.000000000000e+00 1.640000000000e+00 -2.149999999895e+04 4.545259079759e-01 
2.000000000000e-02 0.000000000000e+00 1.640000000000e+00 -2.149999999895e+04 4.545259079759e-01 
0.000000000000e+00 0.000000000000e+00 1.680000000000e+00 -2.149999999895e+04 4.545259079759e-01 
2.000000000000e-02 0.000000000000e+00 1.680000000000e+00 -2.149999999895e+04 4.545259079759e-01 
0.000000000000e+00 0.000000000000e+00 1.720000000000e+00 -2.149999999895e+04 4.545259079759e-01 
2.000000000000e-02 0.000000000000e+00 1.720000000000e+00 -2.149999999895e+04 4.545259079759e-01 
0.000000000000e+00 0.000000000000e+00 1.760000000000e+00 -2.149999999895e+04 4.545259079759e-01 
2.000000000000e-02 0.000000000000e+00 1.760000000000e+00 -2.149999999895e+04 4.545259079759e-01 
0.000000000000e+00 0.000000000000e+00 1.800000000000e+00 -2.149999999895e+04 4.545259079759e-01 
2.000000000000e-02 0.000000000000e+00 1.800000000000e+00 -2.149999999895e+04 4.545259079759e-01 
0.000000000000e+00 0.000000000000e+00 1.840000000000e+00 -2.149999999895e+04 4.545259079759e-01 
2.000000000000e-02 0.000000000000e+00 1.840000000000e+00 -2.149999999895e+04 4.545259079759e-01 
0.000000000000e+00 0.000000000000e+00 1.880000000000e+00 -2.149999999895e+04 4.545259079759e-01 
2.000000000000e-02 0.000000000000e+00 1.880000000000e+00 -2.149999999895e+04 4.545259079759e-01 
0.000000000000e+00 0.000000000000e+00 1.920000000000e+00 -2.149999990698e+04 4.545259090982e-01 
2.000000000000e-02 0.000000000000e+00 1.920000000000e+00 -2.149999990698e+04 4.545259090982e-01 
0.000000000000e+00 0.000000000000e+00 1.960000000000e+00 -2.148358150747e+04 4.347568948785e-01 
2.000000000000e-02 0.000000000000e+00 1.960000000000e+00 -2.148358150747e+04 4.347568948785e-01 
0.000000000000e+00 0.000000000000e+00 2.000000000000e+00 0.000000000000e+00 1.000000000000e+00 
2.000000000000e-02 0.000000000000e+00 2.000000000000e+00 0.000000000000e+00 1.000000000000e+00 
4.000000000000e-02 0.000000000000e+00 1.520000000000e+00 -2.150000000696e+04 4.545259078782e-01 
4.000000000000e-02 0.000000000000e+00 1.600000000000e+00 -2.149999999946e+04 4.545259079697e-01 
4.000000000000e-02 0.000000000000e+00 1.640000000000e+00 -2.149999999895e+04 4.545259079759e-01 
4.000000000000e-02 0.000000000000e+00 1.680000000000e+00 -2.149999999895e+04 4.545259079759e-01 
4.000000000000e-02 0.000000000000e+00 1.720000000000e+00 -2.149999999895e+04 4.545259079759e-01 
4.000000000000e-02 0.000000000000e+00 1.760000000000e+00 -2.149999999895e+04 4.545259079759e-01 
4.000000000000e-02 0.000000000000e+00 1.800000000000e+00 -2.149999999895e+04 4.545259079759e-01 
4.000000000000e-02 0.000000000000e+00 1.840000000000e+00 -2.149999999895e+04 4.545259079759e-01 
4.000000000000e-02 0.000000000000e+00 1.880000000000e+00 -2.149999999895e+04 4.545259079759e-01 
4.000000000000e-02 0.000000000000e+00 1.920000000000e+00 -2.149999990698e+04 4.545259090982e-01 
4.000000000000e-02 0.000000000000e+00 1.960000000000e+00 -2.148358150747e+04 4.347568948785e-01 
4.000000000000e-02 0.000000000000e+00 2.000000000000e+00 0.000000000000e+00 1.000000000000e+00 
0.000000000000e+00 0.000000000000e+00 1.480000000000e+00 -2.149999999895e+04 4.545259079759e-01 
2.000000000000e-02 0.000000000000e+00 1.480000000000e+00 -2.149999999832e+04 4.545259079836e-01 
4.000000000000e-02 0.000000000000e+00 1.480000000000e+00 -2.149999999946e+04 4.545259079697e-01 
4.000000000000e-02 0.000000000000e+00 1.560000000000e+00 -2.149999999676e+04 4.545259080027e-01 
1  3  4  2  
3  5  6  4  
5  7  8  6  
6  8  29  28  
7  9  10  8  
8  10  30  29  
9  11  12  10  
10  12  31  30  
11  13  14  12  
12  14  32  31  
13  15  16  14  
14  16  33  32  
15  17  18  16  
16  18  34  33  
17  19  20  18  
18  20  35  34  
19  21  22  20  
20  22  36  35  
21  23  24  22  
22  24  37  36  
23  25  26  24  
24  26  38  37  
39  1  2  40  
40  2  27  41  
2  4  42  27  
4  6  28  42  
VARIABLES  = "X","Y","Z", "PRESSURE1", "SATURATION1"
ZONE T="1.000000000000e+00s", N=42, E=26, F=FEPOINT, ET=QUADRILATERAL
STRANDID=1, SOLUTIONTIME=1.000000000000e+00
0.000000000000e+00 0.000000000000e+00 1.520000000000e+00 -2.149999978643e+04 4.545259105693e-01 
2.000000000000e-02 0.000000000000e+00 1.520000000000e+00 -2.149999976180e+04 4.545259108698e-01 
0.000000000000e+00 0.000000000000e+00 1.560000000000e+00 -2.149999962591e+04 4.545259125280e-01 
2.000000000000e-02 0.000000000000e+00 1.560000000000e+00 -2.149999946538e+04 4.545259144869e-01 
0.000000000000e+00 0.000000000000e+00 1.600000000000e+00 -2.149999997410e+04 4.545259082792e-01 
2.000000000000e-02 0.000000000000e+00 1.600000000000e+00 -2.149999973396e+04 4.545259112095e-01 
0.000000000000e+00 0.000000000000e+00 1.640000000000e+00 -2.149999989559e+04 4.545259092372e-01 
2.000000000000e-02 0.000000000000e+00 1.640000000000e+00 -2.149999989554e+04 4.545259092378e-01 
0.000000000000e+00 0.000000000000e+00 1.680000000000e+00 -2.149999989562e+04 4.545259092368e-01 
2.000000000000e-02 0.000000000000e+00 1.680000000000e+00 -2.149999989552e+04 4.545259092380e-01 
0.000000000000e+00 0.000000000000e+00 1.720000000000e+00 -2.149999989562e+04 4.545259092369e-01 
2.000000000000e-02 0.000000000000e+00 1.720000000000e+00 -2.149999989552e+04 4.545259092380e-01 
0.000000000000e+00 0.000000000000e+00 1.760000000000e+00 -2.149999989562e+04 4.545259092369e-01 
2.000000000000e-02 0.000000000000e+00 1.760000000000e+00 -2.149999989552e+04 4.545259092380e-01 
0.000000000000e+00 0.000000000000e+00 1.800000000000e+00 -2.149999989562e+04 4.545259092369e-01 
2.000000000000e-02 0.000000000000e+00 1.800000000000e+00 -2.149999989552e+04 4.545259092380e-01 
0.000000000000e+00 0.000000000000e+00 1.840000000000e+00 -2.149999989562e+04 4.545259092369e-01 
2.000000000000e-02 0.000000000000e+00 1.840000000000e+00 -2.149999989552e+04 4.545259092380e-01 
0.000000000000e+00 0.000000000000e+00 1.880000000000e+00 -2.149999989511e+04 4.545259092431e-01 
2.000000000000e-02 0.000000000000e+00 1.880000000000e+00 -2.149999989501e+04 4.545259092442e-01 
0.000000000000e+00 0.000000000000e+00 1.920000000000e+00 -2.149999065651e+04 4.545260219786e-01 
2.000000000000e-02 0.000000000000e+00 1.920000000000e+00 -2.149999065642e+04 4.545260219797e-01 
0.000000000000e+00 0.000000000000e+00 1.960000000000e+00 -2.133630188654e+04 4.365302469426e-01 
2.000000000000e-02 0.000000000000e+00 1.960000000000e+00 -2.133630188648e+04 4.365302469433e-01 
0.000000000000e+00 0.000000000000e+00 2.000000000000e+00 0.000000000000e+00 1.000000000000e+00 
2.000000000000e-02 0.000000000000e+00 2.000000000000e+00 0.000000000000e+00 1.000000000000e+00 
4.000000000000e-02 0.000000000000e+00 1.520000000000e+00 -2.150000069402e+04 4.545258994942e-01 
4.000000000000e-02 0.000000000000e+00 1.600000000000e+00 -2.149999994620e+04 4.545259086197e-01 
4.000000000000e-02 0.000000000000e+00 1.640000000000e+00 -2.149999989560e+04 4.545259092370e-01 
4.000000000000e-02 0.000000000000e+00 1.680000000000e+00 -2.149999989564e+04 4.545259092366e-01 
4.000000000000e-02 0.000000000000e+00 1.720000000000e+00 -2.149999989564e+04 4.545259092366e-01 
4.000000000000e-02 0.000000000000e+00 1.760000000000e+00 -2.149999989564e+04 4.545259092366e-01 
4.000000000000e-02 0.000000000000e+00 1.800000000000e+00 -2.149999989564e+04 4.545259092366e-01 
4.000000000000e-02 0.000000000000e+00 1.840000000000e+00 -2.149999989564e+04 4.545259092366e-01 
4.000000000000e-02 0.000000000000e+00 1.880000000000e+00 -2.149999989513e+04 4.545259092429e-01 
4.000000000000e-02 0.000000000000e+00 1.920000000000e+00 -2.149999065651e+04 4.545260219786e-01 
4.000000000000e-02 0.000000000000e+00 1.960000000000e+00 -2.133630188650e+04 4.365302469430e-01 
4.000000000000e-02 0.000000000000e+00 2.000000000000e+00 0.000000000000e+00 1.000000000000e+00 
0.000000000000e+00 0.000000000000e+00 1.480000000000e+00 -2.149999989560e+04 4.545259092371e-01 
2.000000000000e-02 0.000000000000e+00 1.480000000000e+00 -2.149999983219e+04 4.545259100108e-01 
4.000000000000e-02 0.000000000000e+00 1.480000000000e+00 -2.149999994624e+04 4.545259086191e-01 
4.000000000000e-02 0.000000000000e+00 1.560000000000e+00 -2.149999967659e+04 4.545259119096e-01 
1  3  4  2  
3  5  6  4  
5  7  8  6  
6  8  29  28  
7  9  10  8  
8  10  30  29  
9  11  12  10  
10  12  31  30  
11  13  14  12  
12  14  32  31  
13  15  16  14  
14  16  33  32  
15  17  18  16  
16  18  34  33  
17  19  20  18  
18  20  35  34  
19  21  22  20  
20  22  36  35  
21  23  24  22  
22  24  37  36  
23  25  26  24  
24  26  38  37  
39  1  2  40  
40  2  27  41  
2  4  42  27  
4  6  28  42  
VARIABLES  = "X","Y","Z", "PRESSURE1", "SATURATION1"
ZONE T="1.800000000000e+02s", N=42, E=26, F=FEPOINT, ET=QUADRILATERAL
STRANDID=1, SOLUTIONTIME=1.800000000000e+02
0.000000000000e+00 0.000000000000e+00 1.520000000000e+00 -2.149999978219e+04 4.545259106210e-01 
2.000000000000e-02 0.000000000000e+00 1.520000000000e+00 -2.149999978723e+04 4.545259105595e-01 
0.000000000000e+00 0.000000000000e+00 1.560000000000e+00 -2.149999961944e+04 4.545259126070e-01 
2.000000000000e-02 0.000000000000e+00 1.560000000000e+00 -2.149999948680e+04 4.545259142256e-01 
0.000000000000e+00 0.000000000000e+00 1.600000000000e+00 -2.149999995652e+04 4.545259084937e-01 
2.000000000000e-02 0.000000000000e+00 1.600000000000e+00 -2.149999974562e+04 4.545259110672e-01 
0.000000000000e+00 0.000000000000e+00 1.640000000000e+00 -2.149999989284e+04 4.545259092707e-01 
2.000000000000e-02 0.000000000000e+00 1.640000000000e+00 -2.149999989787e+04 4.545259092094e-01 
0.000000000000e+00 0.000000000000e+00 1.680000000000e+00 -2.149999989599e+04 4.545259092323e-01 
2.000000000000e-02 0.000000000000e+00 1.680000000000e+00 -2.149999989585e+04 4.545259092340e-01 
0.000000000000e+00 0.000000000000e+00 1.720000000000e+00 -2.149999989595e+04 4.545259092328e-01 
2.000000000000e-02 0.000000000000e+00 1.720000000000e+00 -2.149999989589e+04 4.545259092335e-01 
0.000000000000e+00 0.000000000000e+00 1.760000000000e+00 -2.149999989594e+04 4.545259092330e-01 
2.000000000000e-02 0.000000000000e+00 1.760000000000e+00 -2.149999989587e+04 4.545259092338e-01 
0.000000000000e+00 0.000000000000e+00 1.800000000000e+00 -2.149999988745e+04 4.545259093365e-01 
2.000000000000e-02 0.000000000000e+00 1.800000000000e+00 -2.149999988738e+04 4.545259093373e-01 
0.000000000000e+00 0.000000000000e+00 1.840000000000e+00 -2.149999631858e+04 4.545259528862e-01 
2.000000000000e-02 0.000000000000e+00 1.840000000000e+00 -2.149999631852e+04 4.545259528870e-01 
0.000000000000e+00 0.000000000000e+00 1.880000000000e+00 -2.149862921702e+04 4.545426351679e-01 
2.000000000000e-02 0.000000000000e+00 1.880000000000e+00 -2.149862921695e+04 4.545426351687e-01 
0.000000000000e+00 0.000000000000e+00 1.920000000000e+00 -2.102342356341e+04 4.526236364723e-01 
2.000000000000e-02 0.000000000000e+00 1.920000000000e+00 -2.102342356334e+04 4.526236364732e-01 
0.000000000000e+00 0.000000000000e+00 1.960000000000e+00 -5.138824581436e+03 7.934241097248e-01 
2.000000000000e-02 0.000000000000e+00 1.960000000000e+00 -5.138824581431e+03 7.934241097251e-01 
0.000000000000e+00 0.000000000000e+00 2.000000000000e+00 0.000000000000e+00 1.000000000000e+00 
2.000000000000e-02 0.000000000000e+00 2.000000000000e+00 0.000000000000e+00 1.000000000000e+00 
4.000000000000e-02 0.000000000000e+00 1.520000000000e+00 -2.150000062713e+04 4.545259003105e-01 
4.000000000000e-02 0.000000000000e+00 1.600000000000e+00 -2.149999993080e+04 4.545259088076e-01 
4.000000000000e-02 0.000000000000e+00 1.640000000000e+00 -2.149999989304e+04 4.545259092683e-01 
4.000000000000e-02 0.000000000000e+00 1.680000000000e+00 -2.149999989600e+04 4.545259092322e-01 
4.000000000000e-02 0.000000000000e+00 1.720000000000e+00 -2.149999989597e+04 4.545259092326e-01 
4.000000000000e-02 0.000000000000e+00 1.760000000000e+00 -2.149999989595e+04 4.545259092328e-01 
4.000000000000e-02 0.000000000000e+00 1.800000000000e+00 -2.149999988747e+04 4.545259093363e-01 
4.000000000000e-02 0.000000000000e+00 1.840000000000e+00 -2.149999631860e+04 4.545259528860e-01 
4.000000000000e-02 0.000000000000e+00 1.880000000000e+00 -2.149862921703e+04 4.545426351677e-01 
4.000000000000e-02 0.000000000000e+00 1.920000000000e+00 -2.102342356341e+04 4.526236364724e-01 
4.000000000000e-02 0.000000000000e+00 1.960000000000e+00 -5.138824581432e+03 7.934241097250e-01 
4.000000000000e-02 0.000000000000e+00 2.000000000000e+00 0.000000000000e+00 1.000000000000e+00 
0.000000000000e+00 0.000000000000e+00 1.480000000000e+00 -2.149999989189e+04 4.545259092824e-01 
2.000000000000e-02 0.000000000000e+00 1.480000000000e+00 -2.149999984467e+04 4.545259098586e-01 
4.000000000000e-02 0.000000000000e+00 1.480000000000e+00 -2.149999993292e+04 4.545259087817e-01 
4.000000000000e-02 0.000000000000e+00 1.560000000000e+00 -2.149999966036e+04 4.545259121077e-01 
1  3  4  2  
3  5  6  4  
5  7  8  6  
6  8  29  28  
7  9  10  8  
8  10  30  29  
9  11  12  10  
10  12  31  30  
11  13  14  12  
12  14  32  31  
13  15  16  14  
14  16  33  32  
15  17  18  16  
16  18  34  33  
17  19  20  18  
18  20  35  34  
19  21  22  20  
20  22  36  35  
21  23  24  22  
22  24  37  36  
23  25  26  24  
24  26  38  37  
39  1  2  40  
40  2  27  41  
2  4  42  27  
4  6  28  42  
VARIABLES  = "X","Y","Z", "PRESSURE1", "SATURATION1"
ZONE T="1.800000000000e+03s", N=42, E=26, F=FEPOINT, ET=QUADRILATERAL
STRANDID=1, SOLUTIONTIME=1.800000000000e+03
0.000000000000e+00 0.000000000000e+00 1.520000000000e+00 -2.150000295328e+04 4.545258719252e-01 
2.000000000000e-02 0.000000000000e+00 1.520000000000e+00 -2.150001274132e+04 4.545257524851e-01 
0.000000000000e+00 0.000000000000e+00 1.560000000000e+00 -2.150000086083e+04 4.545258974587e-01 
2.000000000000e-02 0.000000000000e+00 1.560000000000e+00 -2.150000857946e+04 4.545258032708e-01 
0.000000000000e+00 0.000000000000e+00 1.600000000000e+00 -2.149999922421e+04 4.545259174298e-01 
2.000000000000e-02 0.000000000000e+00 1.600000000000e+00 -2.150000362444e+04 4.545258637352e-01 
0.000000000000e+00 0.000000000000e+00 1.640000000000e+00 -2.150000020666e+04 4.545259054413e-01 
2.000000000000e-02 0.000000000000e+00 1.640000000000e+00 -2.150000017420e+04 4.545259058374e-01 
0.000000000000e+00 0.000000000000e+00 1.680000000000e+00 -2.149999572984e+04 4.545259600704e-01 
2.000000000000e-02 0.000000000000e+00 1.680000000000e+00 -2.149999601903e+04 4.545259565416e-01 
0.000000000000e+00 0.000000000000e+00 1.720000000000e+00 -2.149961812036e+04 4.545305679122e-01 
2.000000000000e-02 0.000000000000e+00 1.720000000000e+00 -2.149961838496e+04 4.545305646834e-01 
0.000000000000e+00 0.000000000000e+00 1.760000000000e+00 -2.146700689533e+04 4.549285117485e-01 
2.000000000000e-02 0.000000000000e+00 1.760000000000e+00 -2.146700714824e+04 4.549285086624e-01 
0.000000000000e+00 0.000000000000e+00 1.800000000000e+00 -1.908325855588e+04 4.752982388407e-01 
2.000000000000e-02 0.000000000000e+00 1.800000000000e+00 -1.908325992129e+04 4.752982233005e-01 
0.000000000000e+00 0.000000000000e+00 1.840000000000e+00 -4.701442649925e+03 8.113555008085e-01 
2.000000000000e-02 0.000000000000e+00 1.840000000000e+00 -4.701443242894e+03 8.113554704490e-01 
0.000000000000e+00 0.000000000000e+00 1.880000000000e+00 -2.129524017747e+03 9.748107090650e-01 
2.000000000000e-02 0.000000000000e+00 1.880000000000e+00 -2.129524078142e+03 9.748107087011e-01 
0.000000000000e+00 0.000000000000e+00 1.920000000000e+00 -1.306863540752e+03 1.000000000000e+00 
2.000000000000e-02 0.000000000000e+00 1.920000000000e+00 -1.306863255305e+03 1.000000000000e+00 
0.000000000000e+00 0.000000000000e+00 1.960000000000e+00 -6.578278246071e+02 1.000000000000e+00 
2.000000000000e-02 0.000000000000e+00 1.960000000000e+00 -6.578273762138e+02 1.000000000000e+00 
0.000000000000e+00 0.000000000000e+00 2.000000000000e+00 0.000000000000e+00 1.000000000000e+00 
2.000000000000e-02 0.000000000000e+00 2.000000000000e+00 0.000000000000e+00 1.000000000000e+00 
4.000000000000e-02 0.000000000000e+00 1.520000000000e+00 -2.149997219368e+04 4.545262472743e-01 
4.000000000000e-02 0.000000000000e+00 1.600000000000e+00 -2.149999987948e+04 4.545259094338e-01 
4.000000000000e-02 0.000000000000e+00 1.640000000000e+00 -2.150000014073e+04 4.545259062458e-01 
4.000000000000e-02 0.000000000000e+00 1.680000000000e+00 -2.149999564978e+04 4.545259610473e-01 
4.000000000000e-02 0.000000000000e+00 1.720000000000e+00 -2.149961804061e+04 4.545305688854e-01 
4.000000000000e-02 0.000000000000e+00 1.760000000000e+00 -2.146700675728e+04 4.549285134330e-01 
4.000000000000e-02 0.000000000000e+00 1.800000000000e+00 -1.908326100326e+04 4.752982149757e-01 
4.000000000000e-02 0.000000000000e+00 1.840000000000e+00 -4.701446439381e+03 8.113553175409e-01 
4.000000000000e-02 0.000000000000e+00 1.880000000000e+00 -2.129523528438e+03 9.748107349582e-01 
4.000000000000e-02 0.000000000000e+00 1.920000000000e+00 -1.306862780885e+03 1.000000000000e+00 
4.000000000000e-02 0.000000000000e+00 1.960000000000e+00 -6.578272645541e+02 1.000000000000e+00 
4.000000000000e-02 0.000000000000e+00 2.000000000000e+00 0.000000000000e+00 1.000000000000e+00 
0.000000000000e+00 0.000000000000e+00 1.480000000000e+00 -2.150000118111e+04 4.545258935505e-01 
2.000000000000e-02 0.000000000000e+00 1.480000000000e+00 -2.150000461569e+04 4.545258516394e-01 
4.000000000000e-02 0.000000000000e+00 1.480000000000e+00 -2.149999760075e+04 4.545259372403e-01 
4.000000000000e-02 0.000000000000e+00 1.560000000000e+00 -2.149999723705e+04 4.545259416785e-01 
1  3  4  2  
3  5  6  4  
5  7  8  6  
6  8  29  28  
7  9  10  8  
8  10  30  29  
9  11  12  10  
10  12  31  30  
11  13  14  12  
12  14  32  31  
13  15  16  14  
14  16  33  32  
15  17  18  16  
16  18  34  33  
17  19  20  18  
18  20  35  34  
19  21  22  20  
20  22  36  35  
21  23  24  22  
22  24  37  36  
23  25  26  24  
24  26  38  37  
39  1  2  40  
40  2  27  41  
2  4  42  27  
4  6  28  42  
VARIABLES  = "X","Y","Z", "PRESSURE1", "SATURATION1"
ZONE T="3.600000000000e+03s", N=42, E=26, F=FEPOINT, ET=QUADRILATERAL
STRANDID=1, SOLUTIONTIME=3.600000000000e+03
0.000000000000e+00 0.000000000000e+00 1.520000000000e+00 -2.150000450812e+04 4.545258529521e-01 
2.000000000000e-02 0.000000000000e+00 1.520000000000e+00 -2.150000401632e+04 4.545258589533e-01 
0.000000000000e+00 0.000000000000e+00 1.560000000000e+00 -2.150000277146e+04 4.545258741440e-01 
2.000000000000e-02 0.000000000000e+00 1.560000000000e+00 -2.150000328725e+04 4.545258678499e-01 
0.000000000000e+00 0.000000000000e+00 1.600000000000e+00 -2.149997765809e+04 4.545261805939e-01 
2.000000000000e-02 0.000000000000e+00 1.600000000000e+00 -2.149997862964e+04 4.545261687384e-01 
0.000000000000e+00 0.000000000000e+00 1.640000000000e+00 -2.149846989089e+04 4.545445793711e-01 
2.000000000000e-02 0.000000000000e+00 1.640000000000e+00 -2.149846959951e+04 4.545445829268e-01 
0.000000000000e+00 0.000000000000e+00 1.680000000000e+00 -2.140320580317e+04 4.557070550675e-01 
2.000000000000e-02 0.000000000000e+00 1.680000000000e+00 -2.140320589840e+04 4.557070539054e-01 
0.000000000000e+00 0.000000000000e+00 1.720000000000e+00 -1.693963355454e+04 5.000705773745e-01 
2.000000000000e-02 0.000000000000e+00 1.720000000000e+00 -1.693963333369e+04 5.000705803272e-01 
0.000000000000e+00 0.000000000000e+00 1.760000000000e+00 -3.802869350426e+03 8.594231025099e-01 
2.000000000000e-02 0.000000000000e+00 1.760000000000e+00 -3.802869195986e+03 8.594231119168e-01 
0.000000000000e+00 0.000000000000e+00 1.800000000000e+00 -2.399075026701e+03 9.649879763723e-01 
2.000000000000e-02 0.000000000000e+00 1.800000000000e+00 -2.399075010524e+03 9.649879764808e-01 
0.000000000000e+00 0.000000000000e+00 1.840000000000e+00 -1.699318810382e+03 9.874550643825e-01 
2.000000000000e-02 0.000000000000e+00 1.840000000000e+00 -1.699318882677e+03 9.874550608763e-01 
0.000000000000e+00 0.000000000000e+00 1.880000000000e+00 -1.255256777614e+03 1.000000000000e+00 