VARIABLES  = "X","Y","Z", "PRESSURE1", "SATURATION1"
ZONE T="0.000000000000e+00s", N=51, E=30, F=FEPOINT, ET=QUADRILATERAL
STRANDID=1, SOLUTIONTIME=0.000000000000e+00
0.000000000000e+00 0.000000000000e+00 1.000000000000e+00 -2.150000000000e+04 4.545259079631e-01 
0.000000000000e+00 0.000000000000e+00 1.080000000000e+00 -2.150000000000e+04 4.545259079631e-01 
2.000000000000e-02 0.000000000000e+00 1.080000000000e+00 -2.150000000000e+04 4.545259079631e-01 
0.000000000000e+00 0.000000000000e+00 1.120000000000e+00 -2.150000000000e+04 4.545259079631e-01 
2.000000000000e-02 0.000000000000e+00 1.120000000000e+00 -2.150000000000e+04 4.545259079631e-01 
0.000000000000e+00 0.000000000000e+00 1.160000000000e+00 -2.150000000000e+04 4.545259079631e-01 
2.000000000000e-02 0.000000000000e+00 1.160000000000e+00 -2.150000000000e+04 4.545259079631e-01 
0.000000000000e+00 0.000000000000e+00 1.200000000000e+00 -2.150000000000e+04 4.545259079631e-01 
2.000000000000e-02 0.000000000000e+00 1.200000000000e+00 -2.150000000000e+04 4.545259079631e-01 
0.000000000000e+00 0.000000000000e+00 1.240000000000e+00 -2.150000000000e+04 4.545259079631e-01 
2.000000000000e-02 0.000000000000e+00 1.240000000000e+00 -2.150000000000e+04 4.545259079631e-01 
0.000000000000e+00 0.000000000000e+00 1.280000000000e+00 -2.150000000000e+04 4.545259079631e-01 
2.000000000000e-02 0.000000000000e+00 1.280000000000e+00 -2.150000000000e+04 4.545259079631e-01 
0.000000000000e+00 0.000000000000e+00 1.320000000000e+00 -2.150000000000e+04 4.545259079631e-01 
2.000000000000e-02 0.000000000000e+00 1.320000000000e+00 -2.150000000000e+04 4.545259079631e-01 
0.000000000000e+00 0.000000000000e+00 1.360000000000e+00 -2.150000000000e+04 4.545259079631e-01 
2.000000000000e-02 0.000000000000e+00 1.360000000000e+00 -2.150000000000e+04 4.545259079631e-01 
0.000000000000e+00 0.000000000000e+00 1.400000000000e+00 -2.150000000000e+04 4.545259079631e-01 
2.000000000000e-02 0.000000000000e+00 1.400000000000e+00 -2.150000000000e+04 4.545259079631e-01 
0.000000000000e+00 0.000000000000e+00 1.440000000000e+00 -2.150000000000e+04 4.545259079631e-01 
2.000000000000e-02 0.000000000000e+00 1.440000000000e+00 -2.150000000000e+04 4.545259079631e-01 
0.000000000000e+00 0.000000000000e+00 1.480000000000e+00 -2.150000000000e+04 4.545259079631e-01 
2.000000000000e-02 0.000000000000e+00 1.480000000000e+00 -2.150000000000e+04 4.545259079631e-01 
4.000000000000e-02 0.000000000000e+00 9.600000000000e-01 -2.150000000000e+04 4.545259079631e-01 
4.000000000000e-02 0.000000000000e+00 1.080000000000e+00 -2.150000000000e+04 4.545259079631e-01 
4.000000000000e-02 0.000000000000e+00 1.120000000000e+00 -2.150000000000e+04 4.545259079631e-01 
4.000000000000e-02 0.000000000000e+00 1.160000000000e+00 -2.150000000000e+04 4.545259079631e-01 
4.000000000000e-02 0.000000000000e+00 1.200000000000e+00 -2.150000000000e+04 4.545259079631e-01 
4.000000000000e-02 0.000000000000e+00 1.240000000000e+00 -2.150000000000e+04 4.545259079631e-01 
4.000000000000e-02 0.000000000000e+00 1.280000000000e+00 -2.150000000000e+04 4.545259079631e-01 
4.000000000000e-02 0.000000000000e+00 1.320000000000e+00 -2.150000000000e+04 4.545259079631e-01 
4.000000000000e-02 0.000000000000e+00 1.360000000000e+00 -2.150000000000e+04 4.545259079631e-01 
4.000000000000e-02 0.000000000000e+00 1.400000000000e+00 -2.150000000000e+04 4.545259079631e-01 
4.000000000000e-02 0.000000000000e+00 1.440000000000e+00 -2.150000000000e+04 4.545259079631e-01 
4.000000000000e-02 0.000000000000e+00 1.480000000000e+00 -2.150000000000e+04 4.545259079631e-01 
4.000000000000e-02 0.000000000000e+00 1.560000000000e+00 -2.150000000000e+04 4.545259079631e-01 
0.000000000000e+00 0.000000000000e+00 9.600000000000e-01 -2.150000000000e+04 4.545259079631e-01 
2.000000000000e-02 0.000000000000e+00 1.000000000000e+00 -2.150000000000e+04 4.545259079631e-01 
2.000000000000e-02 0.000000000000e+00 9.600000000000e-01 -2.150000000000e+04 4.545259079631e-01 
0.000000000000e+00 0.000000000000e+00 1.040000000000e+00 -2.150000000000e+04 4.545259079631e-01 
2.000000000000e-02 0.000000000000e+00 1.040000000000e+00 -2.150000000000e+04 4.545259079631e-01 
4.000000000000e-02 0.000000000000e+00 1.040000000000e+00 -2.150000000000e+04 4.545259079631e-01 
0.000000000000e+00 0.000000000000e+00 1.520000000000e+00 -2.150000000000e+04 4.545259079631e-01 
2.000000000000e-02 0.000000000000e+00 1.520000000000e+00 -2.150000000000e+04 4.545259079631e-01 
4.000000000000e-02 0.000000000000e+00 1.520000000000e+00 -2.150000000000e+04 4.545259079631e-01 
2.000000000000e-02 0.000000000000e+00 9.200000000000e-01 -2.150000000000e+04 4.545259079631e-01 
4.000000000000e-02 0.000000000000e+00 9.200000000000e-01 -2.150000000000e+04 4.545259079631e-01 
4.000000000000e-02 0.000000000000e+00 1.000000000000e+00 -2.150000000000e+04 4.545259079631e-01 
2.000000000000e-02 0.000000000000e+00 1.560000000000e+00 -2.150000000000e+04 4.545259079631e-01 
2.000000000000e-02 0.000000000000e+00 1.600000000000e+00 -2.150000000000e+04 4.545259079631e-01 
4.000000000000e-02 0.000000000000e+00 1.600000000000e+00 -2.150000000000e+04 4.545259079631e-01 
2  4  5  3  
3  5  26  25  
4  6  7  5  
5  7  27  26  
6  8  9  7  
7  9  28  27  
8  10  11  9  
9  11  29  28  
10  12  13  11  
11  13  30  29  
12  14  15  13  
13  15  31  30  
14  16  17  15  
15  17  32  31  
16  18  19  17  
17  19  33  32  
18  20  21  19  
19  21  34  33  
20  22  23  21  
21  23  35  34  
37  1  38  39  
1  40  41  38  
40  2  3  41  
41  3  25  42  
22  43  44  23  
23  44  45  35  
46  39  24  47  
39  38  48  24  
44  49  36  45  
49  50  51  36  
VARIABLES  = "X","Y","Z", "PRESSURE1", "SATURATION1"
ZONE T="1.000000000000e-02s", N=51, E=30, F=FEPOINT, ET=QUADRILATERAL
STRANDID=1, SOLUTIONTIME=1.000000000000e-02
0.000000000000e+00 0.000000000000e+00 1.000000000000e+00 -2.150000000000e+04 4.545259079631e-01 
0.000000000000e+00 0.000000000000e+00 1.080000000000e+00 -2.149999999999e+04 4.545259079632e-01 
2.000000000000e-02 0.000000000000e+00 1.080000000000e+00 -2.150000000002e+04 4.545259079629e-01 
0.000000000000e+00 0.000000000000e+00 1.120000000000e+00 -2.149999999999e+04 4.545259079633e-01 
2.000000000000e-02 0.000000000000e+00 1.120000000000e+00 -2.149999999999e+04 4.545259079633e-01 
0.000000000000e+00 0.000000000000e+00 1.160000000000e+00 -2.149999999999e+04 4.545259079633e-01 
2.000000000000e-02 0.000000000000e+00 1.160000000000e+00 -2.149999999999e+04 4.545259079633e-01 
0.000000000000e+00 0.000000000000e+00 1.200000000000e+00 -2.149999999999e+04 4.545259079633e-01 
2.000000000000e-02 0.000000000000e+00 1.200000000000e+00 -2.149999999999e+04 4.545259079633e-01 
0.000000000000e+00 0.000000000000e+00 1.240000000000e+00 -2.149999999999e+04 4.545259079633e-01 
2.000000000000e-02 0.000000000000e+00 1.240000000000e+00 -2.149999999999e+04 4.545259079633e-01 
0.000000000000e+00 0.000000000000e+00 1.280000000000e+00 -2.149999999999e+04 4.545259079633e-01 
2.000000000000e-02 0.000000000000e+00 1.280000000000e+00 -2.149999999999e+04 4.545259079633e-01 
0.000000000000e+00 0.000000000000e+00 1.320000000000e+00 -2.149999999999e+04 4.545259079633e-01 
2.000000000000e-02 0.000000000000e+00 1.320000000000e+00 -2.149999999999e+04 4.545259079633e-01 
0.000000000000e+00 0.000000000000e+00 1.360000000000e+00 -2.149999999999e+04 4.545259079633e-01 
2.000000000000e-02 0.000000000000e+00 1.360000000000e+00 -2.149999999999e+04 4.545259079633e-01 
0.000000000000e+00 0.000000000000e+00 1.400000000000e+00 -2.149999999999e+04 4.545259079633e-01 
2.000000000000e-02 0.000000000000e+00 1.400000000000e+00 -2.149999999999e+04 4.545259079633e-01 
0.000000000000e+00 0.000000000000e+00 1.440000000000e+00 -2.149999999999e+04 4.545259079633e-01 
2.000000000000e-02 0.000000000000e+00 1.440000000000e+00 -2.149999999999e+04 4.545259079633e-01 
0.000000000000e+00 0.000000000000e+00 1.480000000000e+00 -2.149999999999e+04 4.545259079633e-01 
2.000000000000e-02 0.000000000000e+00 1.480000000000e+00 -2.149999999998e+04 4.545259079634e-01 
4.000000000000e-02 0.000000000000e+00 9.600000000000e-01 -2.150000000001e+04 4.545259079630e-01 
4.000000000000e-02 0.000000000000e+00 1.080000000000e+00 -2.150000000000e+04 4.545259079631e-01 
4.000000000000e-02 0.000000000000e+00 1.120000000000e+00 -2.149999999999e+04 4.545259079633e-01 
4.000000000000e-02 0.000000000000e+00 1.160000000000e+00 -2.149999999999e+04 4.545259079633e-01 
4.000000000000e-02 0.000000000000e+00 1.200000000000e+00 -2.149999999999e+04 4.545259079633e-01 
4.000000000000e-02 0.000000000000e+00 1.240000000000e+00 -2.149999999999e+04 4.545259079633e-01 
4.000000000000e-02 0.000000000000e+00 1.280000000000e+00 -2.149999999999e+04 4.545259079633e-01 
4.000000000000e-02 0.000000000000e+00 1.320000000000e+00 -2.149999999999e+04 4.545259079633e-01 
4.000000000000e-02 0.000000000000e+00 1.360000000000e+00 -2.149999999999e+04 4.545259079633e-01 
4.000000000000e-02 0.000000000000e+00 1.400000000000e+00 -2.149999999999e+04 4.545259079633e-01 
4.000000000000e-02 0.000000000000e+00 1.440000000000e+00 -2.149999999999e+04 4.545259079633e-01 
4.000000000000e-02 0.000000000000e+00 1.480000000000e+00 -2.149999999999e+04 4.545259079632e-01 
4.000000000000e-02 0.000000000000e+00 1.560000000000e+00 -2.149999999996e+04 4.545259079636e-01 
0.000000000000e+00 0.000000000000e+00 9.600000000000e-01 -2.150000000000e+04 4.545259079631e-01 
2.000000000000e-02 0.000000000000e+00 1.000000000000e+00 -2.149999999992e+04 4.545259079641e-01 
2.000000000000e-02 0.000000000000e+00 9.600000000000e-01 -2.149999999992e+04 4.545259079641e-01 
0.000000000000e+00 0.000000000000e+00 1.040000000000e+00 -2.150000000002e+04 4.545259079628e-01 
2.000000000000e-02 0.000000000000e+00 1.040000000000e+00 -2.149999999999e+04 4.545259079632e-01 
4.000000000000e-02 0.000000000000e+00 1.040000000000e+00 -2.150000000001e+04 4.545259079630e-01 
0.000000000000e+00 0.000000000000e+00 1.520000000000e+00 -2.149999999997e+04 4.545259079634e-01 
2.000000000000e-02 0.000000000000e+00 1.520000000000e+00 -2.149999999997e+04 4.545259079635e-01 
4.000000000000e-02 0.000000000000e+00 1.520000000000e+00 -2.150000000008e+04 4.545259079621e-01 
2.000000000000e-02 0.000000000000e+00 9.200000000000e-01 -2.149999999997e+04 4.545259079635e-01 
4.000000000000e-02 0.000000000000e+00 9.200000000000e-01 -2.150000000000e+04 4.545259079631e-01 
4.000000000000e-02 0.000000000000e+00 1.000000000000e+00 -2.150000000000e+04 4.545259079631e-01 
2.000000000000e-02 0.000000000000e+00 1.560000000000e+00 -2.149999999993e+04 4.545259079639e-01 
2.000000000000e-02 0.000000000000e+00 1.600000000000e+00 -2.149999999997e+04 4.545259079635e-01 
4.000000000000e-02 0.000000000000e+00 1.600000000000e+00 -2.149999999999e+04 4.545259079632e-01 
2  4  5  3  
3  5  26  25  
4  6  7  5  
5  7  27  26  
6  8  9  7  
7  9  28  27  
8  10  11  9  
9  11  29  28  
10  12  13  11  
11  13  30  29  
12  14  15  13  
13  15  31  30  
14  16  17  15  
15  17  32  31  
16  18  19  17  
17  19  33  32  
18  20  21  19  
19  21  34  33  
20  22  23  21  
21  23  35  34  
37  1  38  39  
1  40  41  38  
40  2  3  41  
41  3  25  42  
22  43  44  23  
23  44  45  35  
46  39  24  47  
39  38  48  24  
44  49  36  45  
49  50  51  36  
VARIABLES  = "X","Y","Z", "PRESSURE1", "SATURATION1"
ZONE T="1.000000000000e-01s", N=51, E=30, F=FEPOINT, ET=QUADRILATERAL
STRANDID=1, SOLUTIONTIME=1.000000000000e-01
0.000000000000e+00 0.000000000000e+00 1.000000000000e+00 -2.150000000019e+04 4.545259079608e-01 
0.000000000000e+00 0.000000000000e+00 1.080000000000e+00 -2.149999999956e+04 4.545259079685e-01 
2.000000000000e-02 0.000000000000e+00 1.080000000000e+00 -2.150000000142e+04 4.545259079458e-01 
0.000000000000e+00 0.000000000000e+00 1.120000000000e+00 -2.149999999895e+04 4.545259079759e-01 
2.000000000000e-02 0.000000000000e+00 1.120000000000e+00 -2.149999999895e+04 4.545259079759e-01 
0.000000000000e+00 0.000000000000e+00 1.160000000000e+00 -2.149999999895e+04 4.545259079759e-01 
2.000000000000e-02 0.000000000000e+00 1.160000000000e+00 -2.149999999895e+04 4.545259079759e-01 
0.000000000000e+00 0.000000000000e+00 1.200000000000e+00 -2.149999999895e+04 4.545259079759e-01 
2.000000000000e-02 0.000000000000e+00 1.200000000000e+00 -2.149999999895e+04 4.545259079759e-01 
0.000000000000e+00 0.000000000000e+00 1.240000000000e+00 -2.149999999895e+04 4.545259079759e-01 
2.000000000000e-02 0.000000000000e+00 1.240000000000e+00 -2.149999999895e+04 4.545259079759e-01 
0.000000000000e+00 0.000000000000e+00 1.280000000000e+00 -2.149999999895e+04 4.545259079759e-01 
2.000000000000e-02 0.000000000000e+00 1.280000000000e+00 -2.149999999895e+04 4.545259079759e-01 
0.000000000000e+00 0.000000000000e+00 1.320000000000e+00 -2.149999999895e+04 4.545259079759e-01 
2.000000000000e-02 0.000000000000e+00 1.320000000000e+00 -2.149999999895e+04 4.545259079759e-01 
0.000000000000e+00 0.000000000000e+00 1.360000000000e+00 -2.149999999895e+04 4.545259079759e-01 
2.000000000000e-02 0.000000000000e+00 1.360000000000e+00 -2.149999999895e+04 4.545259079759e-01 
0.000000000000e+00 0.000000000000e+00 1.400000000000e+00 -2.149999999895e+04 4.545259079759e-01 
2.000000000000e-02 0.000000000000e+00 1.400000000000e+00 -2.149999999895e+04 4.545259079759e-01 
0.000000000000e+00 0.000000000000e+00 1.440000000000e+00 -2.149999999895e+04 4.545259079759e-01 
2.000000000000e-02 0.000000000000e+00 1.440000000000e+00 -2.149999999895e+04 4.545259079759e-01 
0.000000000000e+00 0.000000000000e+00 1.480000000000e+00 -2.149999999895e+04 4.545259079759e-01 
2.000000000000e-02 0.000000000000e+00 1.480000000000e+00 -2.149999999832e+04 4.545259079836e-01 
4.000000000000e-02 0.000000000000e+00 9.600000000000e-01 -2.150000000082e+04 4.545259079531e-01 
4.000000000000e-02 0.000000000000e+00 1.080000000000e+00 -2.149999999984e+04 4.545259079651e-01 
4.000000000000e-02 0.000000000000e+00 1.120000000000e+00 -2.149999999895e+04 4.545259079759e-01 
4.000000000000e-02 0.000000000000e+00 1.160000000000e+00 -2.149999999895e+04 4.545259079759e-01 
4.000000000000e-02 0.000000000000e+00 1.200000000000e+00 -2.149999999895e+04 4.545259079759e-01 
4.000000000000e-02 0.000000000000e+00 1.240000000000e+00 -2.149999999895e+04 4.545259079759e-01 
4.000000000000e-02 0.000000000000e+00 1.280000000000e+00 -2.149999999895e+04 4.545259079759e-01 
4.000000000000e-02 0.000000000000e+00 1.320000000000e+00 -2.149999999895e+04 4.545259079759e-01 
4.000000000000e-02 0.000000000000e+00 1.360000000000e+00 -2.149999999895e+04 4.545259079759e-01 
4.000000000000e-02 0.000000000000e+00 1.400000000000e+00 -2.149999999895e+04 4.545259079759e-01 
4.000000000000e-02 0.000000000000e+00 1.440000000000e+00 -2.149999999895e+04 4.545259079759e-01 
4.000000000000e-02 0.000000000000e+00 1.480000000000e+00 -2.149999999946e+04 4.545259079697e-01 
4.000000000000e-02 0.000000000000e+00 1.560000000000e+00 -2.149999999676e+04 4.545259080027e-01 
0.000000000000e+00 0.000000000000e+00 9.600000000000e-01 -2.150000000016e+04 4.545259079611e-01 
2.000000000000e-02 0.000000000000e+00 1.000000000000e+00 -2.149999999321e+04 4.545259080460e-01 
2.000000000000e-02 0.000000000000e+00 9.600000000000e-01 -2.149999999321e+04 4.545259080460e-01 
0.000000000000e+00 0.000000000000e+00 1.040000000000e+00 -2.150000000192e+04 4.545259079396e-01 
2.000000000000e-02 0.000000000000e+00 1.040000000000e+00 -2.149999999920e+04 4.545259079728e-01 
4.000000000000e-02 0.000000000000e+00 1.040000000000e+00 -2.150000000072e+04 4.545259079544e-01 
0.000000000000e+00 0.000000000000e+00 1.520000000000e+00 -2.149999999786e+04 4.545259079892e-01 
2.000000000000e-02 0.000000000000e+00 1.520000000000e+00 -2.149999999761e+04 4.545259079922e-01 
4.000000000000e-02 0.000000000000e+00 1.520000000000e+00 -2.150000000696e+04 4.545259078782e-01 
2.000000000000e-02 0.000000000000e+00 9.200000000000e-01 -2.149999999744e+04 4.545259079943e-01 
4.000000000000e-02 0.000000000000e+00 9.200000000000e-01 -2.150000000016e+04 4.545259079611e-01 
4.000000000000e-02 0.000000000000e+00 1.000000000000e+00 -2.150000000016e+04 4.545259079611e-01 
2.000000000000e-02 0.000000000000e+00 1.560000000000e+00 -2.149999999464e+04 4.545259080285e-01 
2.000000000000e-02 0.000000000000e+00 1.600000000000e+00 -2.149999999733e+04 4.545259079957e-01 
4.000000000000e-02 0.000000000000e+00 1.600000000000e+00 -2.149999999946e+04 4.545259079697e-01 
2  4  5  3  
3  5  26  25  
4  6  7  5  
5  7  27  26  
6  8  9  7  
7  9  28  27  
8  10  11  9  
9  11  29  28  
10  12  13  11  
11  13  30  29  
12  14  15  13  
13  15  31  30  
14  16  17  15  
15  17  32  31  
16  18  19  17  
17  19  33  32  
18  20  21  19  
19  21  34  33  
20  22  23  21  
21  23  35  34  
37  1  38  39  
1  40  41  38  
40  2  3  41  
41  3  25  42  
22  43  44  23  
23  44  45  35  
46  39  24  47  
39  38  48  24  
44  49  36  45  
49  50  51  36  
VARIABLES  = "X","Y","Z", "PRESSURE1", "SATURATION1"
ZONE T="1.000000000000e+00s", N=51, E=30, F=FEPOINT, ET=QUADRILATERAL
STRANDID=1, SOLUTIONTIME=1.000000000000e+00
0.000000000000e+00 0.000000000000e+00 1.000000000000e+00 -2.150000001870e+04 4.545259077349e-01 
0.000000000000e+00 0.000000000000e+00 1.080000000000e+00 -2.149999995604e+04 4.545259084995e-01 
2.000000000000e-02 0.000000000000e+00 1.080000000000e+00 -2.150000014121e+04 4.545259062400e-01 
0.000000000000e+00 0.000000000000e+00 1.120000000000e+00 -2.149999989561e+04 4.545259092370e-01 
2.000000000000e-02 0.000000000000e+00 1.120000000000e+00 -2.149999989553e+04 4.545259092379e-01 
0.000000000000e+00 0.000000000000e+00 1.160000000000e+00 -2.149999989561e+04 4.545259092369e-01 
2.000000000000e-02 0.000000000000e+00 1.160000000000e+00 -2.149999989553e+04 4.545259092380e-01 
0.000000000000e+00 0.000000000000e+00 1.200000000000e+00 -2.149999989562e+04 4.545259092369e-01 
2.000000000000e-02 0.000000000000e+00 1.200000000000e+00 -2.149999989552e+04 4.545259092380e-01 
0.000000000000e+00 0.000000000000e+00 1.240000000000e+00 -2.149999989562e+04 4.545259092369e-01 
2.000000000000e-02 0.000000000000e+00 1.240000000000e+00 -2.149999989552e+04 4.545259092380e-01 
0.000000000000e+00 0.000000000000e+00 1.280000000000e+00 -2.149999989562e+04 4.545259092369e-01 
2.000000000000e-02 0.000000000000e+00 1.280000000000e+00 -2.149999989552e+04 4.545259092380e-01 
0.000000000000e+00 0.000000000000e+00 1.320000000000e+00 -2.149999989562e+04 4.545259092369e-01 
2.000000000000e-02 0.000000000000e+00 1.320000000000e+00 -2.149999989552e+04 4.545259092380e-01 
0.000000000000e+00 0.000000000000e+00 1.360000000000e+00 -2.149999989562e+04 4.545259092369e-01 
2.000000000000e-02 0.000000000000e+00 1.360000000000e+00 -2.149999989552e+04 4.545259092380e-01 
0.000000000000e+00 0.000000000000e+00 1.400000000000e+00 -2.149999989562e+04 4.545259092369e-01 
2.000000000000e-02 0.000000000000e+00 1.400000000000e+00 -2.149999989552e+04 4.545259092380e-01 
0.000000000000e+00 0.000000000000e+00 1.440000000000e+00 -2.149999989561e+04 4.545259092369e-01 
2.000000000000e-02 0.000000000000e+00 1.440000000000e+00 -2.149999989553e+04 4.545259092379e-01 
0.000000000000e+00 0.000000000000e+00 1.480000000000e+00 -2.149999989560e+04 4.545259092371e-01 
2.000000000000e-02 0.000000000000e+00 1.480000000000e+00 -2.149999983219e+04 4.545259100108e-01 
4.000000000000e-02 0.000000000000e+00 9.600000000000e-01 -2.150000008168e+04 4.545259069664e-01 
4.000000000000e-02 0.000000000000e+00 1.080000000000e+00 -2.149999998408e+04 4.545259081574e-01 
4.000000000000e-02 0.000000000000e+00 1.120000000000e+00 -2.149999989564e+04 4.545259092366e-01 
4.000000000000e-02 0.000000000000e+00 1.160000000000e+00 -2.149999989563e+04 4.545259092367e-01 
4.000000000000e-02 0.000000000000e+00 1.200000000000e+00 -2.149999989564e+04 4.545259092366e-01 
4.000000000000e-02 0.000000000000e+00 1.240000000000e+00 -2.149999989564e+04 4.545259092366e-01 
4.000000000000e-02 0.000000000000e+00 1.280000000000e+00 -2.149999989564e+04 4.545259092366e-01 
4.000000000000e-02 0.000000000000e+00 1.320000000000e+00 -2.149999989564e+04 4.545259092366e-01 
4.000000000000e-02 0.000000000000e+00 1.360000000000e+00 -2.149999989564e+04 4.545259092366e-01 
4.000000000000e-02 0.000000000000e+00 1.400000000000e+00 -2.149999989564e+04 4.545259092365e-01 
4.000000000000e-02 0.000000000000e+00 1.440000000000e+00 -2.149999989561e+04 4.545259092369e-01 
4.000000000000e-02 0.000000000000e+00 1.480000000000e+00 -2.149999994624e+04 4.545259086191e-01 
4.000000000000e-02 0.000000000000e+00 1.560000000000e+00 -2.149999967659e+04 4.545259119096e-01 
0.000000000000e+00 0.000000000000e+00 9.600000000000e-01 -2.150000001599e+04 4.545259077680e-01 
2.000000000000e-02 0.000000000000e+00 1.000000000000e+00 -2.149999932278e+04 4.545259162270e-01 
2.000000000000e-02 0.000000000000e+00 9.600000000000e-01 -2.149999932277e+04 4.545259162271e-01 
0.000000000000e+00 0.000000000000e+00 1.040000000000e+00 -2.150000019194e+04 4.545259056209e-01 
2.000000000000e-02 0.000000000000e+00 1.040000000000e+00 -2.149999992066e+04 4.545259089313e-01 
4.000000000000e-02 0.000000000000e+00 1.040000000000e+00 -2.150000007131e+04 4.545259070930e-01 
0.000000000000e+00 0.000000000000e+00 1.520000000000e+00 -2.149999978643e+04 4.545259105693e-01 
2.000000000000e-02 0.000000000000e+00 1.520000000000e+00 -2.149999976180e+04 4.545259108698e-01 
4.000000000000e-02 0.000000000000e+00 1.520000000000e+00 -2.150000069402e+04 4.545258994942e-01 
2.000000000000e-02 0.000000000000e+00 9.200000000000e-01 -2.149999974483e+04 4.545259110769e-01 
4.000000000000e-02 0.000000000000e+00 9.200000000000e-01 -2.150000001614e+04 4.545259077661e-01 
4.000000000000e-02 0.000000000000e+00 1.000000000000e+00 -2.150000001599e+04 4.545259077680e-01 
2.000000000000e-02 0.000000000000e+00 1.560000000000e+00 -2.149999946538e+04 4.545259144869e-01 
2.000000000000e-02 0.000000000000e+00 1.600000000000e+00 -2.149999973396e+04 4.545259112095e-01 
4.000000000000e-02 0.000000000000e+00 1.600000000000e+00 -2.149999994620e+04 4.545259086197e-01 
2  4  5  3  
3  5  26  25  
4  6  7  5  
5  7  27  26  
6  8  9  7  
7  9  28  27  
8  10  11  9  
9  11  29  28  
10  12  13  11  
11  13  30  29  
12  14  15  13  
13  15  31  30  
14  16  17  15  
15  17  32  31  
16  18  19  17  
17  19  33  32  
18  20  21  19  
19  21  34  33  
20  22  23  21  
21  23  35  34  
37  1  38  39  
1  40  41  38  
40  2  3  41  
41  3  25  42  
22  43  44  23  
23  44  45  35  
46  39  24  47  
39  38  48  24  
44  49  36  45  
49  50  51  36  
VARIABLES  = "X","Y","Z", "PRESSURE1", "SATURATION1"
ZONE T="1.800000000000e+02s", N=51, E=30, F=FEPOINT, ET=QUADRILATERAL
STRANDID=1, SOLUTIONTIME=1.800000000000e+02
0.000000000000e+00 0.000000000000e+00 1.000000000000e+00 -2.149999997431e+04 4.545259082766e-01 
0.000000000000e+00 0.000000000000e+00 1.080000000000e+00 -2.149999996154e+04 4.545259084324e-01 
2.000000000000e-02 0.000000000000e+00 1.080000000000e+00 -2.150000012942e+04 4.545259063839e-01 
0.000000000000e+00 0.000000000000e+00 1.120000000000e+00 -2.149999989958e+04 4.545259091885e-01 
2.000000000000e-02 0.000000000000e+00 1.120000000000e+00 -2.149999989561e+04 4.545259092370e-01 
0.000000000000e+00 0.000000000000e+00 1.160000000000e+00 -2.149999989593e+04 4.545259092330e-01 
2.000000000000e-02 0.000000000000e+00 1.160000000000e+00 -2.149999989592e+04 4.545259092331e-01 
0.000000000000e+00 0.000000000000e+00 1.200000000000e+00 -2.149999989595e+04 4.545259092327e-01 
2.000000000000e-02 0.000000000000e+00 1.200000000000e+00 -2.149999989589e+04 4.545259092336e-01 
0.000000000000e+00 0.000000000000e+00 1.240000000000e+00 -2.149999989595e+04 4.545259092328e-01 
2.000000000000e-02 0.000000000000e+00 1.240000000000e+00 -2.149999989589e+04 4.545259092335e-01 
0.000000000000e+00 0.000000000000e+00 1.280000000000e+00 -2.149999989595e+04 4.545259092328e-01 
2.000000000000e-02 0.000000000000e+00 1.280000000000e+00 -2.149999989589e+04 4.545259092335e-01 
0.000000000000e+00 0.000000000000e+00 1.320000000000e+00 -2.149999989595e+04 4.545259092328e-01 
2.000000000000e-02 0.000000000000e+00 1.320000000000e+00 -2.149999989589e+04 4.545259092335e-01 
0.000000000000e+00 0.000000000000e+00 1.360000000000e+00 -2.149999989595e+04 4.545259092328e-01 
2.000000000000e-02 0.000000000000e+00 1.360000000000e+00 -2.149999989589e+04 4.545259092335e-01 
0.000000000000e+00 0.000000000000e+00 1.400000000000e+00 -2.149999989596e+04 4.545259092326e-01 
2.000000000000e-02 0.000000000000e+00 1.400000000000e+00 -2.149999989588e+04 4.545259092337e-01 
0.000000000000e+00 0.000000000000e+00 1.440000000000e+00 -2.149999989500e+04 4.545259092444e-01 
2.000000000000e-02 0.000000000000e+00 1.440000000000e+00 -2.149999989659e+04 4.545259092249e-01 
0.000000000000e+00 0.000000000000e+00 1.480000000000e+00 -2.149999989189e+04 4.545259092824e-01 
2.000000000000e-02 0.000000000000e+00 1.480000000000e+00 -2.149999984467e+04 4.545259098586e-01 
4.000000000000e-02 0.000000000000e+00 9.600000000000e-01 -2.150000003083e+04 4.545259075869e-01 
4.000000000000e-02 0.000000000000e+00 1.080000000000e+00 -2.149999998809e+04 4.545259081084e-01 
4.000000000000e-02 0.000000000000e+00 1.120000000000e+00 -2.149999989942e+04 4.545259091905e-01 
4.000000000000e-02 0.000000000000e+00 1.160000000000e+00 -2.149999989595e+04 4.545259092328e-01 
4.000000000000e-02 0.000000000000e+00 1.200000000000e+00 -2.149999989597e+04 4.545259092325e-01 
4.000000000000e-02 0.000000000000e+00 1.240000000000e+00 -2.149999989597e+04 4.545259092325e-01 
4.000000000000e-02 0.000000000000e+00 1.280000000000e+00 -2.149999989597e+04 4.545259092325e-01 
4.000000000000e-02 0.000000000000e+00 1.320000000000e+00 -2.149999989597e+04 4.545259092325e-01 
4.000000000000e-02 0.000000000000e+00 1.360000000000e+00 -2.149999989597e+04 4.545259092326e-01 
4.000000000000e-02 0.000000000000e+00 1.400000000000e+00 -2.149999989599e+04 4.545259092324e-01 
4.000000000000e-02 0.000000000000e+00 1.440000000000e+00 -2.149999989470e+04 4.545259092481e-01 
4.000000000000e-02 0.000000000000e+00 1.480000000000e+00 -2.149999993292e+04 4.545259087817e-01 
4.000000000000e-02 0.000000000000e+00 1.560000000000e+00 -2.149999966036e+04 4.545259121077e-01 
0.000000000000e+00 0.000000000000e+00 9.600000000000e-01 -2.149999996979e+04 4.545259083317e-01 
2.000000000000e-02 0.000000000000e+00 1.000000000000e+00 -2.149999937481e+04 4.545259155922e-01 
2.000000000000e-02 0.000000000000e+00 9.600000000000e-01 -2.149999937348e+04 4.545259156083e-01 
0.000000000000e+00 0.000000000000e+00 1.040000000000e+00 -2.150000016596e+04 4.545259059380e-01 
2.000000000000e-02 0.000000000000e+00 1.040000000000e+00 -2.149999993239e+04 4.545259087882e-01 
4.000000000000e-02 0.000000000000e+00 1.040000000000e+00 -2.150000005301e+04 4.545259073163e-01 
0.000000000000e+00 0.000000000000e+00 1.520000000000e+00 -2.149999978219e+04 4.545259106210e-01 
2.000000000000e-02 0.000000000000e+00 1.520000000000e+00 -2.149999978723e+04 4.545259105595e-01 
4.000000000000e-02 0.000000000000e+00 1.520000000000e+00 -2.150000062713e+04 4.545259003105e-01 
2.000000000000e-02 0.000000000000e+00 9.200000000000e-01 -2.149999976307e+04 4.545259108543e-01 
4.000000000000e-02 0.000000000000e+00 9.200000000000e-01 -2.149999999146e+04 4.545259080674e-01 
4.000000000000e-02 0.000000000000e+00 1.000000000000e+00 -2.149999997133e+04 4.545259083129e-01 
2.000000000000e-02 0.000000000000e+00 1.560000000000e+00 -2.149999948680e+04 4.545259142256e-01 
2.000000000000e-02 0.000000000000e+00 1.600000000000e+00 -2.149999974562e+04 4.545259110672e-01 
4.000000000000e-02 0.000000000000e+00 1.600000000000e+00 -2.149999993080e+04 4.545259088076e-01 
2  4  5  3  
3  5  26  25  
4  6  7  5  
5  7  27  26  
6  8  9  7  
7  9  28  27  
8  10  11  9  
9  11  29  28  
10  12  13  11  
11  13  30  29  
12  14  15  13  
13  15  31  30  
14  16  17  15  
15  17  32  31  
16  18  19  17  
17  19  33  32  
18  20  21  19  
19  21  34  33  
20  22  23  21  
21  23  35  34  
37  1  38  39  
1  40  41  38  
40  2  3  41  
41  3  25  42  
22  43  44  23  
23  44  45  35  
46  39  24  47  
39  38  48  24  
44  49  36  45  
49  50  51  36  
VARIABLES  = "X","Y","Z", "PRESSURE1", "SATURATION1"
ZONE T="1.800000000000e+03s", N=51, E=30, F=FEPOINT, ET=QUADRILATERAL
STRANDID=1, SOLUTIONTIME=1.800000000000e+03
0.000000000000e+00 0.000000000000e+00 1.000000000000e+00 -2.149998181294e+04 4.545261298937e-01 
0.000000000000e+00 0.000000000000e+00 1.080000000000e+00 -2.149999670484e+04 4.545259481729e-01 
2.000000000000e-02 0.000000000000e+00 1.080000000000e+00 -2.149999290995e+04 4.545259944806e-01 
0.000000000000e+00 0.000000000000e+00 1.120000000000e+00 -2.149999994329e+04 4.545259086551e-01 
2.000000000000e-02 0.000000000000e+00 1.120000000000e+00 -2.150000027447e+04 4.545259046139e-01 
0.000000000000e+00 0.000000000000e+00 1.160000000000e+00 -2.150000007689e+04 4.545259070249e-01 
2.000000000000e-02 0.000000000000e+00 1.160000000000e+00 -2.150000031713e+04 4.545259040932e-01 
0.000000000000e+00 0.000000000000e+00 1.200000000000e+00 -2.150000005714e+04 4.545259072659e-01 
2.000000000000e-02 0.000000000000e+00 1.200000000000e+00 -2.150000032459e+04 4.545259040023e-01 
0.000000000000e+00 0.000000000000e+00 1.240000000000e+00 -2.150000005773e+04 4.545259072587e-01 
2.000000000000e-02 0.000000000000e+00 1.240000000000e+00 -2.150000032362e+04 4.545259040141e-01 
0.000000000000e+00 0.000000000000e+00 1.280000000000e+00 -2.150000005771e+04 4.545259072589e-01 
2.000000000000e-02 0.000000000000e+00 1.280000000000e+00 -2.150000032364e+04 4.545259040138e-01 
0.000000000000e+00 0.000000000000e+00 1.320000000000e+00 -2.150000005769e+04 4.545259072591e-01 
2.000000000000e-02 0.000000000000e+00 1.320000000000e+00 -2.150000032366e+04 4.545259040136e-01 
0.000000000000e+00 0.000000000000e+00 1.360000000000e+00 -2.150000005791e+04 4.545259072565e-01 
2.000000000000e-02 0.000000000000e+00 1.360000000000e+00 -2.150000032302e+04 4.545259040215e-01 
0.000000000000e+00 0.000000000000e+00 1.400000000000e+00 -2.150000005242e+04 4.545259073235e-01 
2.000000000000e-02 0.000000000000e+00 1.400000000000e+00 -2.150000033181e+04 4.545259039141e-01 