<?xml version="1.0"?>
<!-- Time step: 30 | Time: 3.000000000000e+08 -->
<VTKFile type="UnstructuredGrid" version="0.1" byte_order="LittleEndian">
  <UnstructuredGrid>
    <Piece NumberOfPoints="409" NumberOfCells="736">
      <Points>
        <DataArray type="Float64" NumberOfComponents="3" format="ascii">
          0.000000000000e+00 1.000000000000e+00 0.000000000000e+00
          3.500000000000e-01 1.000000000000e+00 0.000000000000e+00
          0.000000000000e+00 6.500000000000e-01 0.000000000000e+00
          6.500000000000e-01 1.000000000000e+00 0.000000000000e+00
          0.000000000000e+00 3.500000000000e-01 0.000000000000e+00
          1.000000000000e+00 1.000000000000e+00 0.000000000000e+00
          0.000000000000e+00 0.000000000000e+00 0.000000000000e+00
          1.000000000000e+00 7.000000000000e-01 0.000000000000e+00
          3.000000000000e-01 0.000000000000e+00 0.000000000000e+00
          1.000000000000e+00 4.500000000000e-01 0.000000000000e+00
          5.500000000000e-01 0.000000000000e+00 0.000000000000e+00
          1.000000000000e+00 1.500000000000e-01 0.000000000000e+00
          8.500000000000e-01 0.000000000000e+00 0.000000000000e+00
          1.000000000000e+00 0.000000000000e+00 0.000000000000e+00
          5.000000000000e-02 1.000000000000e+00 0.000000000000e+00
          1.000000000000e-01 1.000000000000e+00 0.000000000000e+00
          1.500000000000e-01 1.000000000000e+00 0.000000000000e+00
          2.000000000000e-01 1.000000000000e+00 0.000000000000e+00
          2.500000000000e-01 1.000000000000e+00 0.000000000000e+00
          3.000000000000e-01 1.000000000000e+00 0.000000000000e+00
          3.146447000000e-01 9.646447000000e-01 0.000000000000e+00
          2.792893000000e-01 9.292893000000e-01 0.000000000000e+00
          2.439340000000e-01 8.939340000000e-01 0.000000000000e+00
          2.085786000000e-01 8.585786000000e-01 0.000000000000e+00
          1.732233000000e-01 8.232233000000e-01 0.000000000000e+00
          1.378680000000e-01 7.878680000000e-01 0.000000000000e+00
          1.025126000000e-01 7.525126000000e-01 0.000000000000e+00
          6.715730000000e-02 7.171573000000e-01 0.000000000000e+00
          0.000000000000e+00 7.000000000000e-01 0.000000000000e+00
          0.000000000000e+00 7.500000000000e-01 0.000000000000e+00
          0.000000000000e+00 8.000000000000e-01 0.000000000000e+00
          0.000000000000e+00 8.500000000000e-01 0.000000000000e+00
          0.000000000000e+00 9.000000000000e-01 0.000000000000e+00
          0.000000000000e+00 9.500000000000e-01 0.000000000000e+00
          4.000000000000e-01 1.000000000000e+00 0.000000000000e+00
          4.500000000000e-01 1.000000000000e+00 0.000000000000e+00
          5.000000000000e-01 1.000000000000e+00 0.000000000000e+00
          5.500000000000e-01 1.000000000000e+00 0.000000000000e+00
          6.000000000000e-01 1.000000000000e+00 0.000000000000e+00
          6.146447000000e-01 9.646447000000e-01 0.000000000000e+00
          5.792893000000e-01 9.292893000000e-01 0.000000000000e+00
          5.439340000000e-01 8.939340000000e-01 0.000000000000e+00
          5.085786000000e-01 8.585786000000e-01 0.000000000000e+00
          4.732233000000e-01 8.232233000000e-01 0.000000000000e+00
          4.378680000000e-01 7.878680000000e-01 0.000000000000e+00
          4.025126000000e-01 7.525126000000e-01 0.000000000000e+00
          3.671573000000e-01 7.171573000000e-01 0.000000000000e+00
          3.318019000000e-01 6.818019000000e-01 0.000000000000e+00
          2.964466000000e-01 6.464466000000e-01 0.000000000000e+00
          2.610913000000e-01 6.110913000000e-01 0.000000000000e+00
          2.257359000000e-01 5.757359000000e-01 0.000000000000e+00
          1.903806000000e-01 5.403806000000e-01 0.000000000000e+00
          1.550253000000e-01 5.050253000000e-01 0.000000000000e+00
          1.196699000000e-01 4.696699000000e-01 0.000000000000e+00
          8.431460000000e-02 4.343146000000e-01 0.000000000000e+00
          4.895920000000e-02 3.989592000000e-01 0.000000000000e+00
          0.000000000000e+00 4.000000000000e-01 0.000000000000e+00
          0.000000000000e+00 4.500000000000e-01 0.000000000000e+00
          0.000000000000e+00 5.000000000000e-01 0.000000000000e+00
          0.000000000000e+00 5.500000000000e-01 0.000000000000e+00
          0.000000000000e+00 6.000000000000e-01 0.000000000000e+00
          7.000000000000e-01 1.000000000000e+00 0.000000000000e+00
          7.500000000000e-01 1.000000000000e+00 0.000000000000e+00
          8.000000000000e-01 1.000000000000e+00 0.000000000000e+00
          8.500000000000e-01 1.000000000000e+00 0.000000000000e+00
          9.000000000000e-01 1.000000000000e+00 0.000000000000e+00
          9.500000000000e-01 1.000000000000e+00 0.000000000000e+00
          9.646447000000e-01 9.646447000000e-01 0.000000000000e+00
          9.292893000000e-01 9.292893000000e-01 0.000000000000e+00
          8.939340000000e-01 8.939340000000e-01 0.000000000000e+00
          8.585786000000e-01 8.585786000000e-01 0.000000000000e+00
          8.232233000000e-01 8.232233000000e-01 0.000000000000e+00
          7.878680000000e-01 7.878680000000e-01 0.000000000000e+00
          7.525126000000e-01 7.525126000000e-01 0.000000000000e+00
          7.171573000000e-01 7.171573000000e-01 0.000000000000e+00
          6.818019000000e-01 6.818019000000e-01 0.000000000000e+00
          6.464466000000e-01 6.464466000000e-01 0.000000000000e+00
          6.110913000000e-01 6.110913000000e-01 0.000000000000e+00
          5.757359000000e-01 5.757359000000e-01 0.000000000000e+00
          5.403806000000e-01 5.403806000000e-01 0.000000000000e+00
          5.050253000000e-01 5.050253000000e-01 0.000000000000e+00
          4.696699000000e-01 4.696699000000e-01 0.000000000000e+00
          4.343146000000e-01 4.343146000000e-01 0.000000000000e+00
          3.989592000000e-01 3.989592000000e-01 0.000000000000e+00
          3.636039000000e-01 3.636039000000e-01 0.000000000000e+00
          3.282486000000e-01 3.282486000000e-01 0.000000000000e+00
          2.928932000000e-01 2.928932000000e-01 0.000000000000e+00
          2.575379000000e-01 2.575379000000e-01 0.000000000000e+00
          2.221825000000e-01 2.221825000000e-01 0.000000000000e+00
          1.868272000000e-01 1.868272000000e-01 0.000000000000e+00
          1.514719000000e-01 1.514719000000e-01 0.000000000000e+00
          1.161165000000e-01 1.161165000000e-01 0.000000000000e+00
          8.076120000000e-02 8.076120000000e-02 0.000000000000e+00
          4.540580000000e-02 4.540580000000e-02 0.000000000000e+00
          0.000000000000e+00 5.000000000000e-02 0.000000000000e+00
          0.000000000000e+00 1.000000000000e-01 0.000000000000e+00
          0.000000000000e+00 1.500000000000e-01 0.000000000000e+00
          0.000000000000e+00 2.000000000000e-01 0.000000000000e+00
          0.000000000000e+00 2.500000000000e-01 0.000000000000e+00
          0.000000000000e+00 3.000000000000e-01 0.000000000000e+00
          1.000000000000e+00 9.500000000000e-01 0.000000000000e+00
          1.000000000000e+00 9.000000000000e-01 0.000000000000e+00
          1.000000000000e+00 8.500000000000e-01 0.000000000000e+00
          1.000000000000e+00 8.000000000000e-01 0.000000000000e+00
          1.000000000000e+00 7.500000000000e-01 0.000000000000e+00
          9.646447000000e-01 6.646447000000e-01 0.000000000000e+00
          9.292893000000e-01 6.292893000000e-01 0.000000000000e+00
          8.939340000000e-01 5.939340000000e-01 0.000000000000e+00
          8.585786000000e-01 5.585786000000e-01 0.000000000000e+00
          8.232233000000e-01 5.232233000000e-01 0.000000000000e+00
          7.878680000000e-01 4.878680000000e-01 0.000000000000e+00
          7.525126000000e-01 4.525126000000e-01 0.000000000000e+00
          7.171573000000e-01 4.171573000000e-01 0.000000000000e+00
          6.818019000000e-01 3.818019000000e-01 0.000000000000e+00
          6.464466000000e-01 3.464466000000e-01 0.000000000000e+00
          6.110913000000e-01 3.110913000000e-01 0.000000000000e+00
          5.757359000000e-01 2.757359000000e-01 0.000000000000e+00
          5.403806000000e-01 2.403806000000e-01 0.000000000000e+00
          5.050253000000e-01 2.050253000000e-01 0.000000000000e+00
          4.696699000000e-01 1.696699000000e-01 0.000000000000e+00
          4.343146000000e-01 1.343146000000e-01 0.000000000000e+00
          3.989592000000e-01 9.895920000000e-02 0.000000000000e+00
          3.636039000000e-01 6.360390000000e-02 0.000000000000e+00
          2.500000000000e-01 0.000000000000e+00 0.000000000000e+00
          2.000000000000e-01 0.000000000000e+00 0.000000000000e+00
          1.500000000000e-01 0.000000000000e+00 0.000000000000e+00
          1.000000000000e-01 0.000000000000e+00 0.000000000000e+00
          5.000000000000e-02 0.000000000000e+00 0.000000000000e+00
          1.000000000000e+00 6.500000000000e-01 0.000000000000e+00
          1.000000000000e+00 6.000000000000e-01 0.000000000000e+00
          1.000000000000e+00 5.500000000000e-01 0.000000000000e+00
          1.000000000000e+00 5.000000000000e-01 0.000000000000e+00
          9.646447000000e-01 4.146447000000e-01 0.000000000000e+00
          9.292893000000e-01 3.792893000000e-01 0.000000000000e+00
          8.939340000000e-01 3.439340000000e-01 0.000000000000e+00
          8.585786000000e-01 3.085786000000e-01 0.000000000000e+00
          8.232233000000e-01 2.732233000000e-01 0.000000000000e+00
          7.878680000000e-01 2.378680000000e-01 0.000000000000e+00
          7.525126000000e-01 2.025126000000e-01 0.000000000000e+00
          7.171573000000e-01 1.671573000000e-01 0.000000000000e+00
          6.818019000000e-01 1.318019000000e-01 0.000000000000e+00
          6.464466000000e-01 9.644660000000e-02 0.000000000000e+00
          6.110913000000e-01 6.109130000000e-02 0.000000000000e+00
          5.000000000000e-01 0.000000000000e+00 0.000000000000e+00
[...]
      <PointData Scalars="PRESSURE1">
        <DataArray type="Float64" Name="PRESSURE1" format="ascii">
          1.000000000000e+00 6.047025854644e-01 6.045795779627e-01 5.407909138282e-01 5.407903479260e-01 4.996594221519e-01 4.997182438897e-01 4.661847309338e-01 4.661496120322e-01 4.205346715696e-01 4.204840891545e-01 3.080608009499e-01 3.074190680911e-01 0.000000000000e+00 7.992884249242e-01 7.344380241294e-01 6.932972478108e-01 6.649383541715e-01 6.408914402538e-01 6.224522602181e-01 6.063653492042e-01 6.077364790593e-01 6.087439163195e-01 6.093905303878e-01 6.096232953433e-01 6.093530317579e-01 6.086652313687e-01 6.075737825872e-01 6.219304994156e-01 6.405739674523e-01 6.636305152782e-01 6.950373459721e-01 7.343904679642e-01 7.992589701496e-01 5.909794029312e-01 5.789838855075e-01 5.680812440798e-01 5.582081116243e-01 5.494082374062e-01 5.417348559275e-01 5.426303136511e-01 5.433873858650e-01 5.440475198798e-01 5.445773290007e-01 5.449578948691e-01 5.452947442883e-01 5.454721904815e-01 5.456114155891e-01 5.455543997497e-01 5.454211130134e-01 5.451295592024e-01 5.447394753098e-01 5.442041770912e-01 5.436486018402e-01 5.429311539550e-01 5.420565908636e-01 5.493937369101e-01 5.582897025031e-01 5.681440645977e-01 5.792225064094e-01 5.913964775737e-01 5.332535973792e-01 5.261458722538e-01 5.198587302700e-01 5.136114104043e-01 5.081777976568e-01 5.033406603977e-01 4.996564804876e-01 4.996799785548e-01 4.996867346193e-01 4.996747307301e-01 4.997046724802e-01 4.996902566792e-01 4.996836856621e-01 4.996796048635e-01 4.996708023341e-01 4.996644496381e-01 4.996515565579e-01 4.996418863494e-01 4.996503715948e-01 4.996513663614e-01 4.996542960461e-01 4.996590435285e-01 4.996599631395e-01 4.996571299230e-01 4.996455971150e-01 4.996723650913e-01 4.996907276163e-01 4.996778089930e-01 4.996734588421e-01 4.996660673767e-01 4.996432474870e-01 4.996552457446e-01 4.997164584375e-01 5.035776717315e-01 5.081453368905e-01 5.135617410672e-01 5.195530269467e-01 5.261250747071e-01 5.331883797830e-01 4.960744589516e-01 4.911459088200e-01 4.858282814990e-01 4.797293589616e-01 4.732059950572e-01 4.653018180470e-01 4.644862000802e-01 4.637908899977e-01 4.631428704333e-01 4.625875944885e-01 4.621566934462e-01 4.618179279602e-01 4.615613084281e-01 4.614050662640e-01 4.613577173340e-01 4.614205686111e-01 4.615938539629e-01 4.618720918231e-01 4.622412100676e-01 4.627090435744e-01 4.632819955736e-01 4.639114949645e-01 4.646455883518e-01 4.732268653480e-01 4.797822603652e-01 4.858504286928e-01 4.913433996608e-01 4.958809375282e-01 4.584430414428e-01 4.499517101409e-01 4.410766472425e-01 4.314773200876e-01 4.191621979586e-01 4.179800711421e-01 4.170525037529e-01 4.163523098406e-01 4.158986941910e-01 4.156513657612e-01 4.156992099520e-01 4.160168250443e-01 4.166103674925e-01 4.173565231172e-01 4.183868961067e-01 4.313556309239e-01 4.411426601532e-01 4.501561063621e-01 4.583153916263e-01 4.082157299783e-01 3.936595099429e-01 3.782130366059e-01 3.589169621649e-01 3.361913774004e-01 3.050312474018e-01 3.035623291193e-01 3.037845447850e-01 3.354753088969e-01 3.588101797897e-01 3.780613816659e-01 3.940853817972e-01 4.076826496729e-01 2.571210115704e-01 2.022622195296e-01 1.991903853961e-01 2.618810034243e-01 6.543619007090e-01 5.729738078172e-01 5.714451825609e-01 5.211396254497e-01 5.220394384663e-01 4.724865019432e-01 4.332797289217e-01 6.323999508935e-01 6.316225346644e-01 5.877910594315e-01 6.431005115679e-01 6.833249376773e-01 5.655286910750e-01 7.155949359901e-01 6.311661797349e-01 5.546154060129e-01 6.612675358879e-01 5.575169606200e-01 5.563049511366e-01 6.398741521939e-01 6.783671943615e-01 5.877067801712e-01 5.959407626814e-01 5.864821921258e-01 5.896349867688e-01 5.244366027369e-01 5.742146458396e-01 5.142354646745e-01 5.152098766488e-01 5.880076435928e-01 5.053079406490e-01 5.719970174373e-01 5.718141884926e-01 5.195972275000e-01 5.353321797037e-01 5.579526880163e-01 5.816634966469e-01 5.577618549131e-01 5.591339441078e-01 5.065934162798e-01 5.197620904654e-01 5.620465557389e-01 5.306361254327e-01 5.108210067093e-01 5.642998004603e-01 5.542330216998e-01 5.089002905873e-01 5.094950599896e-01 5.154679119076e-01 5.526949132744e-01 5.749884093391e-01 5.554768314380e-01 5.913370861070e-01 5.311931829782e-01 5.368815283460e-01 5.205624525944e-01 5.134399610637e-01 5.282910130865e-01 5.326625311238e-01 5.307416055947e-01 4.948758528633e-01 5.362088343899e-01 4.865817989812e-01 5.086098785997e-01 5.157760850334e-01 4.824314577424e-01 4.912577172965e-01 5.316569310276e-01 4.829301499655e-01 4.808549315184e-01 5.063787011849e-01 5.083794570582e-01 4.892211303566e-01 4.763379901035e-01 5.200562262172e-01 5.333511096327e-01 4.818932261789e-01 4.919527527618e-01 5.353249903064e-01 4.801137254667e-01 5.188884479677e-01 5.325621696726e-01 4.754846686336e-01 4.739971130967e-01 5.188848127910e-01 5.081509970885e-01 4.709113084985e-01 4.726062746882e-01 5.160872031365e-01 5.119236047010e-01 4.718195049761e-01 4.796901894326e-01 5.227588547462e-01 5.188366014240e-01 4.726121549985e-01 4.808703078178e-01 5.244677970876e-01 5.096996866804e-01 4.742890817818e-01 4.866896335377e-01 5.053119092777e-01 4.867281532924e-01 4.930340515257e-01 5.042454594833e-01 5.070566372011e-01 4.930211260979e-01 4.926995338543e-01 4.801144279551e-01 4.903277495754e-01 4.555066429291e-01 4.729715839173e-01 4.713250235126e-01 4.419271611502e-01 4.742093419298e-01 4.827199142866e-01 4.417203885620e-01 4.509442800583e-01 4.910307910966e-01 4.358657862851e-01 4.396082951949e-01 4.918901502040e-01 4.509915123401e-01 4.333622382451e-01 4.714841247895e-01 4.725883722854e-01 4.307914979946e-01 4.715753223799e-01 4.842095607181e-01 4.286897520125e-01 4.426786201260e-01 4.729610481600e-01 4.917199059697e-01 4.325138825958e-01 4.498187231836e-01 4.729571060560e-01 4.929566782990e-01 4.533996577307e-01 4.756354557019e-01 4.799909704413e-01 4.488852149773e-01 4.044924220880e-01 4.295272812429e-01 3.806388146019e-01 4.520234195574e-01 4.278906765936e-01 3.716728573972e-01 4.533341677562e-01 3.451617088205e-01 3.546526751283e-01 3.919138770172e-01 3.837546898672e-01 4.486347290321e-01 4.346936375361e-01 4.436619750379e-01 3.991996076930e-01 3.985291034670e-01 3.600630997304e-01 3.957541619305e-01 3.407797434419e-01 3.663046922000e-01 2.534687039123e-01 5.589787951067e-01 5.067130750894e-01 5.535994159894e-01 5.301527136101e-01 5.209603936855e-01 5.741247240725e-01 5.116625524242e-01 5.074857517388e-01 5.335650489079e-01 5.334383533914e-01 5.231572077509e-01 5.256511800947e-01 5.182627113163e-01 4.917794677341e-01 4.911372038712e-01 5.325004419013e-01 4.909928932266e-01 5.266247556917e-01 5.239469966004e-01 5.253660510098e-01 4.932710241284e-01 5.091258821365e-01 4.523567790065e-01 4.839899671806e-01 4.818669415106e-01 4.523607794755e-01 4.415448865517e-01 4.829893092669e-01 4.300507044039e-01 4.291589841075e-01 4.021437749216e-01 4.000654695185e-01 3.969266530645e-01 5.096815786003e-01 5.135532643903e-01 4.729794133289e-01 5.626969908149e-01 5.822901816724e-01 6.306019623436e-01 5.702520948861e-01 5.638697681010e-01 5.143363327429e-01 5.701397189285e-01 5.895100560565e-01 5.054975270148e-01 5.752059270757e-01 5.163380086205e-01 5.364813696230e-01 5.066002516955e-01 5.346126263233e-01 4.916996918815e-01 5.254271576639e-01 4.896795107147e-01 5.279615126987e-01 5.062806302609e-01 4.821331310921e-01 4.861504928599e-01 5.153805198535e-01 4.896891221197e-01 4.850948210043e-01 5.082285604068e-01 5.170084863781e-01 5.297155485361e-01 4.905035512154e-01 4.929883019319e-01 5.126565098691e-01 4.813771906015e-01 4.826635422326e-01 4.515984460278e-01 4.499054999838e-01 4.405912180607e-01 4.855968707845e-01 4.500915148530e-01 4.548158026136e-01 4.514682101960e-01 3.926099387786e-01 3.771573504066e-01 4.373158072348e-01 4.796312907183e-01 5.059957802810e-01 4.411838511610e-01 5.538561558039e-01 4.945047841260e-01 3.712461789829e-01 
        </DataArray>
        <DataArray type="Float64" Name="Tracer" format="ascii">
          0.000000000000e+00 1.000000000000e+00 1.000000000000e+00 4.360732816902e-01 4.361823705575e-01 2.748727012535e-01 2.753778789449e-01 2.383782694027e-01 2.385860698116e-01 1.771868895410e-01 1.771019625228e-01 1.216671660289e-01 1.215208284778e-01 1.139215395863e-01 4.787475979671e-01 6.882001639965e-01 8.176363219743e-01 8.999788231489e-01 9.548578470031e-01 9.918078788400e-01 1.000000000000e+00 1.000000000000e+00 1.000000000000e+00 1.000000000000e+00 1.000000000000e+00 1.000000000000e+00 1.000000000000e+00 1.000000000000e+00 9.897942850038e-01 9.547441768471e-01 9.000849694943e-01 8.202601300937e-01 6.901595854417e-01 4.754579227291e-01 8.256484499793e-01 7.120930858111e-01 6.224280783739e-01 5.496086885669e-01 4.883465738031e-01 4.695784942328e-01 5.055193829011e-01 5.387139147266e-01 5.689754607950e-01 5.943653652422e-01 6.137822978636e-01 6.277840445366e-01 6.357671471000e-01 6.395478924195e-01 6.378615727646e-01 6.317428225089e-01 6.200422564418e-01 6.031329388747e-01 5.794874013773e-01 5.515798725246e-01 5.186637654448e-01 4.838160238528e-01 4.886121982365e-01 5.505283985035e-01 6.238472204152e-01 7.123184357054e-01 8.300436268384e-01 3.918189410953e-01 3.549596843122e-01 3.268099924022e-01 3.040275053050e-01 2.881212824446e-01 2.784136396850e-01 2.759718312204e-01 2.795069332226e-01 2.838985737667e-01 2.900341513843e-01 2.980697579815e-01 3.065234947240e-01 3.154283323549e-01 3.244932689410e-01 3.328642680795e-01 3.405753966931e-01 3.470208430892e-01 3.515899489686e-01 3.548122053245e-01 3.560548326789e-01 3.556031752491e-01 3.528645362121e-01 3.485233761356e-01 3.427890072675e-01 3.351831134238e-01 3.270921013059e-01 3.181532223357e-01 3.092093328354e-01 3.006268860126e-01 2.926134858261e-01 2.856157155692e-01 2.803176925642e-01 2.770911015082e-01 2.789369311803e-01 2.881676835011e-01 3.039595308565e-01 3.263930615774e-01 3.556541175622e-01 3.921018205101e-01 2.737271455879e-01 2.708073126734e-01 2.646725784859e-01 2.577959735048e-01 2.487961701174e-01 2.318103278947e-01 2.266654168810e-01 2.228443853857e-01 2.202385101304e-01 2.189078453432e-01 2.178035795562e-01 2.173464152609e-01 2.171392962756e-01 2.170245908345e-01 2.170531157323e-01 2.171174781361e-01 2.172641760022e-01 2.174374496123e-01 2.180145643355e-01 2.190887576384e-01 2.209999896193e-01 2.235921732797e-01 2.273167408913e-01 2.490797195254e-01 2.580332078337e-01 2.652124483049e-01 2.701343585084e-01 2.743847668765e-01 2.270060297774e-01 2.150507189308e-01 2.020635778890e-01 1.893459961195e-01 1.695505538649e-01 1.635652664917e-01 1.589743041892e-01 1.555463028646e-01 1.534973625757e-01 1.526147187253e-01 1.527268890908e-01 1.539497963059e-01 1.563757603662e-01 1.599428855347e-01 1.647073166886e-01 1.896038391990e-01 2.023068676603e-01 2.148544225726e-01 2.273519318662e-01 1.653163736106e-01 1.543479634039e-01 1.437817697023e-01 1.351376067597e-01 1.276153732412e-01 1.188595493733e-01 1.178774633595e-01 1.183918133922e-01 1.275380332042e-01 1.351644940288e-01 1.440547428207e-01 1.541293235691e-01 1.655248840403e-01 1.174968791469e-01 1.143590190219e-01 1.146680314770e-01 1.172985958445e-01 8.587059076976e-01 8.068852319030e-01 7.681907089265e-01 4.533094093226e-01 4.223146593795e-01 2.427142591735e-01 1.830073383739e-01 9.244215134763e-01 9.509111422467e-01 8.680670478940e-01 9.042452511466e-01 7.851775421537e-01 6.557703831664e-01 6.681305419964e-01 9.526897844531e-01 5.764365357598e-01 8.319577857985e-01 6.651166127695e-01 6.836721775288e-01 9.110874507269e-01 8.102650744342e-01 8.838854661469e-01 9.346540814569e-01 8.859249986992e-01 9.027710838835e-01 3.987476677145e-01 7.494161303143e-01 3.575253377775e-01 3.319283820309e-01 8.925828546260e-01 2.891348309024e-01 7.787447812017e-01 7.975686887420e-01 4.676724078478e-01 5.706584614594e-01 7.093008373661e-01 8.158659597249e-01 7.133822439589e-01 7.120058432906e-01 3.032299571128e-01 3.604054048074e-01 6.871283822621e-01 4.769039050276e-01 3.853041011213e-01 6.543632885489e-01 5.685862432154e-01 3.859063599362e-01 4.099322506182e-01 4.455491601912e-01 6.003139628481e-01 7.389868626072e-01 6.709763034814e-01 9.007455454098e-01 4.555035247666e-01 5.286888970858e-01 4.325862088203e-01 3.145857300827e-01 5.059220618747e-01 5.488535650406e-01 5.388154073659e-01 2.729448225202e-01 5.769036148358e-01 2.630409230472e-01 3.216783416640e-01 4.399681321298e-01 2.577008234971e-01 2.826405182983e-01 5.282148935788e-01 2.622410115209e-01 2.630296875707e-01 3.519736167690e-01 3.928797548561e-01 2.936041149767e-01 2.526898626352e-01 4.457202892420e-01 5.009390691533e-01 2.757049332125e-01 3.169919571757e-01 4.857313650378e-01 2.709608616800e-01 4.662145622621e-01 4.217076453762e-01 2.457566755993e-01 2.415991433941e-01 4.509984279821e-01 3.981243014291e-01 2.369063419967e-01 2.448822180136e-01 3.578436159932e-01 3.927824699941e-01 2.437330106760e-01 2.691603967239e-01 4.471979178341e-01 3.927800551189e-01 2.445181383510e-01 2.629475397538e-01 3.754168906657e-01 3.093904224190e-01 2.424050065675e-01 2.641134584689e-01 2.903028293571e-01 2.635163164465e-01 2.716257633800e-01 3.037872424541e-01 3.307559423131e-01 2.719749342414e-01 2.753528270829e-01 2.543452109263e-01 3.113749564090e-01 2.154266503255e-01 2.404847945719e-01 2.427304766661e-01 1.899670082005e-01 2.428324406797e-01 2.754453655826e-01 1.839841781439e-01 1.969461561835e-01 3.102914559186e-01 1.740292200264e-01 1.783776129925e-01 3.079407084033e-01 1.961200961416e-01 1.839050275684e-01 2.432678312793e-01 2.412420790342e-01 1.758579583744e-01 2.427994415553e-01 2.649655255230e-01 1.649399481241e-01 1.839099612494e-01 2.438779146459e-01 2.914800899703e-01 1.721584437409e-01 1.995231159501e-01 2.406669418825e-01 2.871337215327e-01 2.117636619134e-01 2.444973569403e-01 2.539990556931e-01 2.017667580659e-01 1.552581858804e-01 1.700378910270e-01 1.383371733054e-01 1.982466042443e-01 1.646132502033e-01 1.300725519635e-01 2.010006188253e-01 1.245794698475e-01 1.261600936635e-01 1.400748189925e-01 1.408394122794e-01 1.934799469404e-01 1.769297437633e-01 1.973734680281e-01 1.475686597219e-01 1.435825665771e-01 1.308350833516e-01 1.395666109246e-01 1.222944706526e-01 1.326628378775e-01 1.156782060766e-01 7.243667816817e-01 3.388178756038e-01 6.082828121824e-01 4.011800395574e-01 3.998768017395e-01 8.144052011125e-01 4.172354705739e-01 3.982336173028e-01 4.432743359303e-01 5.266030339524e-01 4.838399864413e-01 5.086382696831e-01 4.600522475486e-01 2.783887420057e-01 2.950553411209e-01 5.166518235783e-01 3.097793283424e-01 5.138576282413e-01 3.962984089159e-01 4.410204695602e-01 2.749779246847e-01 3.242767792577e-01 2.024864377059e-01 2.688986621207e-01 2.752366241581e-01 2.004627310697e-01 1.860152001479e-01 2.656657437264e-01 1.677376962009e-01 1.657204841824e-01 1.486941987534e-01 1.514312212714e-01 1.407749022798e-01 3.915806462432e-01 3.736261839182e-01 2.408272704481e-01 6.713303388847e-01 8.566603501496e-01 9.297685469240e-01 7.790625156415e-01 7.532501115272e-01 3.913633390350e-01 7.867269840512e-01 8.971906773555e-01 3.850341116487e-01 8.121314311652e-01 4.360096407685e-01 5.711511758223e-01 3.827118887444e-01 5.541864309817e-01 2.904481021692e-01 4.991832085663e-01 2.999159347048e-01 4.807478229658e-01 3.553992368367e-01 2.744832429344e-01 2.936600357198e-01 3.952116166709e-01 3.077798617091e-01 2.613661801008e-01 3.500293088972e-01 3.395996364665e-01 4.384094984729e-01 2.948695051937e-01 2.797252657800e-01 3.582530231609e-01 2.756102624324e-01 2.717118027192e-01 1.975523869296e-01 1.942521060001e-01 1.796488591877e-01 2.647012393763e-01 1.973730169113e-01 2.095450528373e-01 1.970447270127e-01 1.385026754168e-01 1.335013487331e-01 1.828345024420e-01 2.520775238494e-01 3.244832768416e-01 1.808866639821e-01 6.903817472336e-01 3.307356559247e-01 1.299492467455e-01 
        </DataArray>
      </PointData>
      <CellData>
        <DataArray type="Int32" Name="MatGroup" format="ascii">
          0 0 0 0 0 0 0 0 0 0 0 0 0 0 0 0 0 0 0 0 0 0 0 0 0 0 0 0 0 0 0 0 0 0 0 0 0 0 0 0 0 0 0 1 1 1 1 1 1 1 1 1 1 1 1 1 1 1 1 1 1 1 1 1 1 1 1 1 1 1 1 1 1 1 1 1 1 1 1 1 1 1 1 1 1 1 1 1 1 1 1 1 1 1 1 1 1 1 1 1 1 1 1 1 1 1 1 1 1 1 1 1 1 1 1 1 1 1 1 1 1 1 1 1 1 1 1 1 1 1 1 1 1 1 1 1 1 1 1 1 1 1 1 1 1 1 1 1 1 1 1 1 1 1 2 2 2 2 2 2 2 2 2 2 2 2 2 2 2 2 2 2 2 2 2 2 2 2 2 2 2 2 2 2 2 2 2 2 2 2 2 2 2 2 2 2 2 2 2 2 2 2 2 2 2 2 2 2 2 2 2 2 2 2 2 2 2 2 2 2 2 2 2 2 2 2 2 2 2 2 2 2 2 2 2 2 2 2 2 2 2 2 2 2 2 2 2 2 2 2 2 2 2 2 2 2 2 2 2 2 2 2 2 2 2 2 2 2 2 2 2 2 2 2 2 2 2 2 2 2 2 2 2 2 2 2 2 2 2 2 2 2 2 2 2 2 2 2 2 2 2 2 2 2 2 2 2 2 2 2 2 2 2 2 2 2 2 2 2 2 2 2 2 2 2 2 2 2 2 2 2 2 2 2 2 2 2 2 2 2 2 2 2 2 2 2 2 2 2 2 2 2 2 2 2 2 2 2 2 2 2 2 2 2 3 3 3 3 3 3 3 3 3 3 3 3 3 3 3 3 3 3 3 3 3 3 3 3 3 3 3 3 3 3 3 3 3 3 3 3 3 3 3 3 3 3 3 3 3 3 3 3 3 3 3 3 3 3 3 3 3 3 3 3 3 3 3 3 3 3 3 3 3 3 3 3 3 3 3 3 3 3 3 3 3 3 3 3 3 3 3 3 3 3 3 3 3 3 3 3 3 3 3 3 3 3 3 3 3 3 3 3 3 3 3 3 3 3 3 3 3 3 3 3 3 3 3 3 3 3 3 3 3 3 3 3 3 3 3 3 3 3 3 3 3 3 3 3 3 3 3 3 3 3 3 3 3 3 3 3 3 3 3 3 3 3 3 3 3 3 3 3 3 3 3 3 3 3 3 3 3 3 3 3 3 3 3 3 3 3 3 4 4 4 4 4 4 4 4 4 4 4 4 4 4 4 4 4 4 4 4 4 4 4 4 4 4 4 4 4 4 4 4 4 4 4 4 4 4 4 4 4 4 4 4 4 4 4 4 4 4 4 4 4 4 4 4 4 4 4 4 4 4 4 4 4 4 4 4 4 4 4 4 4 4 4 4 4 4 4 4 4 4 4 4 4 4 4 4 4 4 4 4 4 4 4 4 4 4 4 4 4 4 4 4 4 4 4 4 4 4 4 5 5 5 5 5 5 5 5 5 5 5 5 5 5 5 5 5 5 5 5 5 5 5 5 5 5 5 5 5 5 5 5 5 5 5 5 5 5 5 5 5 5 5 5 5 5 5 5 5 5 5 5 5 5 5 5 5 5 5 5 5 5 5 5 6 6 6 6 6 6 6 6 6 6 
        </DataArray>
      </CellData>
    </Piece>
  </UnstructuredGrid>
</VTKFile>
