VARIABLES  = "X","Y","Z", "TEMPERATURE1"
ZONE T="0.000000000000e+00s", N=41, E=40, F=FEPOINT, ET=QUADRILATERAL
STRANDID=1, SOLUTIONTIME=0.000000000000e+00
0.000000000000e+00 0.000000000000e+00 0.000000000000e+00 2.500000000000e+01 
1.000000000000e-01 0.000000000000e+00 0.000000000000e+00 2.500000000000e+01 
2.000000000000e-01 0.000000000000e+00 0.000000000000e+00 2.500000000000e+01 
3.000000000000e-01 0.000000000000e+00 0.000000000000e+00 2.500000000000e+01 
4.000000000000e-01 0.000000000000e+00 0.000000000000e+00 2.500000000000e+01 
5.000000000000e-01 0.000000000000e+00 0.000000000000e+00 2.500000000000e+01 
6.000000000000e-01 0.000000000000e+00 0.000000000000e+00 2.500000000000e+01 
7.000000000000e-01 0.000000000000e+00 0.000000000000e+00 2.500000000000e+01 
8.000000000000e-01 0.000000000000e+00 0.000000000000e+00 2.500000000000e+01 
9.000000000000e-01 0.000000000000e+00 0.000000000000e+00 2.500000000000e+01 
1.000000000000e+00 0.000000000000e+00 0.000000000000e+00 2.500000000000e+01 
1.100000000000e+00 0.000000000000e+00 0.000000000000e+00 2.500000000000e+01 
1.200000000000e+00 0.000000000000e+00 0.000000000000e+00 2.500000000000e+01 
1.300000000000e+00 0.000000000000e+00 0.000000000000e+00 2.500000000000e+01 
1.400000000000e+00 0.000000000000e+00 0.000000000000e+00 2.500000000000e+01 
1.500000000000e+00 0.000000000000e+00 0.000000000000e+00 2.500000000000e+01 
1.600000000000e+00 0.000000000000e+00 0.000000000000e+00 2.500000000000e+01 
1.700000000000e+00 0.000000000000e+00 0.000000000000e+00 2.500000000000e+01 
1.800000000000e+00 0.000000000000e+00 0.000000000000e+00 2.500000000000e+01 
1.900000000000e+00 0.000000000000e+00 0.000000000000e+00 2.500000000000e+01 
2.000000000000e+00 0.000000000000e+00 0.000000000000e+00 2.500000000000e+01 
2.100000000000e+00 0.000000000000e+00 0.000000000000e+00 2.500000000000e+01 
2.200000000000e+00 0.000000000000e+00 0.000000000000e+00 2.500000000000e+01 
2.300000000000e+00 0.000000000000e+00 0.000000000000e+00 2.500000000000e+01 
2.400000000000e+00 0.000000000000e+00 0.000000000000e+00 2.500000000000e+01 
2.500000000000e+00 0.000000000000e+00 0.000000000000e+00 2.500000000000e+01 
2.600000000000e+00 0.000000000000e+00 0.000000000000e+00 2.500000000000e+01 
2.700000000000e+00 0.000000000000e+00 0.000000000000e+00 2.500000000000e+01 
2.800000000000e+00 0.000000000000e+00 0.000000000000e+00 2.500000000000e+01 
2.900000000000e+00 0.000000000000e+00 0.000000000000e+00 2.500000000000e+01 
3.000000000000e+00 0.000000000000e+00 0.000000000000e+00 2.500000000000e+01 
3.100000000000e+00 0.000000000000e+00 0.000000000000e+00 2.500000000000e+01 
3.200000000000e+00 0.000000000000e+00 0.000000000000e+00 2.500000000000e+01 
3.300000000000e+00 0.000000000000e+00 0.000000000000e+00 2.500000000000e+01 
3.400000000000e+00 0.000000000000e+00 0.000000000000e+00 2.500000000000e+01 
3.500000000000e+00 0.000000000000e+00 0.000000000000e+00 2.500000000000e+01 
3.600000000000e+00 0.000000000000e+00 0.000000000000e+00 2.500000000000e+01 
3.700000000000e+00 0.000000000000e+00 0.000000000000e+00 2.500000000000e+01 
3.800000000000e+00 0.000000000000e+00 0.000000000000e+00 2.500000000000e+01 
3.900000000000e+00 0.000000000000e+00 0.000000000000e+00 2.500000000000e+01 
4.000000000000e+00 0.000000000000e+00 0.000000000000e+00 2.500000000000e+01 
1  2  2  1
2  3  3  2
3  4  4  3
4  5  5  4
5  6  6  5
6  7  7  6
7  8  8  7
8  9  9  8
9  10  10  9
10  11  11  10
11  12  12  11
12  13  13  12
13  14  14  13
14  15  15  14
15  16  16  15
16  17  17  16
17  18  18  17
18  19  19  18
19  20  20  19
20  21  21  20
21  22  22  21
22  23  23  22
23  24  24  23
24  25  25  24
25  26  26  25
26  27  27  26
27  28  28  27
28  29  29  28
29  30  30  29
30  31  31  30
31  32  32  31
32  33  33  32
33  34  34  33
34  35  35  34
35  36  36  35
36  37  37  36
37  38  38  37
38  39  39  38
39  40  40  39
40  41  41  40
VARIABLES  = "X","Y","Z", "TEMPERATURE1"
ZONE T="5.000000000000e+04s", N=41, E=40, F=FEPOINT, ET=QUADRILATERAL
STRANDID=1, SOLUTIONTIME=5.000000000000e+04
0.000000000000e+00 0.000000000000e+00 0.000000000000e+00 2.739639339718e+01 
1.000000000000e-01 0.000000000000e+00 0.000000000000e+00 2.689043928241e+01 
2.000000000000e-01 0.000000000000e+00 0.000000000000e+00 2.646218644521e+01 
3.000000000000e-01 0.000000000000e+00 0.000000000000e+00 2.610786412341e+01 
4.000000000000e-01 0.000000000000e+00 0.000000000000e+00 2.582159338598e+01 
5.000000000000e-01 0.000000000000e+00 0.000000000000e+00 2.559592708043e+01 
6.000000000000e-01 0.000000000000e+00 0.000000000000e+00 2.542248448333e+01 
7.000000000000e-01 0.000000000000e+00 0.000000000000e+00 2.529259170601e+01 
8.000000000000e-01 0.000000000000e+00 0.000000000000e+00 2.519784937164e+01 
9.000000000000e-01 0.000000000000e+00 0.000000000000e+00 2.513057227981e+01 
1.000000000000e+00 0.000000000000e+00 0.000000000000e+00 2.508407483804e+01 
1.100000000000e+00 0.000000000000e+00 0.000000000000e+00 2.505280390129e+01 
1.200000000000e+00 0.000000000000e+00 0.000000000000e+00 2.503234195413e+01 
1.300000000000e+00 0.000000000000e+00 0.000000000000e+00 2.501931565073e+01 
1.400000000000e+00 0.000000000000e+00 0.000000000000e+00 2.501124768294e+01 
1.500000000000e+00 0.000000000000e+00 0.000000000000e+00 2.500638584675e+01 
1.600000000000e+00 0.000000000000e+00 0.000000000000e+00 2.500353498903e+01 
1.700000000000e+00 0.000000000000e+00 0.000000000000e+00 2.500190811172e+01 
1.800000000000e+00 0.000000000000e+00 0.000000000000e+00 2.500100442031e+01 
1.900000000000e+00 0.000000000000e+00 0.000000000000e+00 2.500051569046e+01 
2.000000000000e+00 0.000000000000e+00 0.000000000000e+00 2.500025828857e+01 
2.100000000000e+00 0.000000000000e+00 0.000000000000e+00 2.500012622852e+01 
2.200000000000e+00 0.000000000000e+00 0.000000000000e+00 2.500006020762e+01 
2.300000000000e+00 0.000000000000e+00 0.000000000000e+00 2.500002803516e+01 
2.400000000000e+00 0.000000000000e+00 0.000000000000e+00 2.500001274787e+01 
2.500000000000e+00 0.000000000000e+00 0.000000000000e+00 2.500000566224e+01 
2.600000000000e+00 0.000000000000e+00 0.000000000000e+00 2.500000245751e+01 
2.700000000000e+00 0.000000000000e+00 0.000000000000e+00 2.500000104257e+01 
2.800000000000e+00 0.000000000000e+00 0.000000000000e+00 2.500000043249e+01 
2.900000000000e+00 0.000000000000e+00 0.000000000000e+00 2.500000017549e+01 
3.000000000000e+00 0.000000000000e+00 0.000000000000e+00 2.500000006968e+01 
3.100000000000e+00 0.000000000000e+00 0.000000000000e+00 2.500000002708e+01 
3.200000000000e+00 0.000000000000e+00 0.000000000000e+00 2.500000001031e+01 
3.300000000000e+00 0.000000000000e+00 0.000000000000e+00 2.500000000384e+01 
3.400000000000e+00 0.000000000000e+00 0.000000000000e+00 2.500000000140e+01 
3.500000000000e+00 0.000000000000e+00 0.000000000000e+00 2.500000000050e+01 
3.600000000000e+00 0.000000000000e+00 0.000000000000e+00 2.500000000018e+01 
3.700000000000e+00 0.000000000000e+00 0.000000000000e+00 2.500000000006e+01 
3.800000000000e+00 0.000000000000e+00 0.000000000000e+00 2.500000000002e+01 
3.900000000000e+00 0.000000000000e+00 0.000000000000e+00 2.500000000001e+01 
4.000000000000e+00 0.000000000000e+00 0.000000000000e+00 2.500000000000e+01 
1  2  2  1
2  3  3  2
3  4  4  3
4  5  5  4
5  6  6  5
6  7  7  6
7  8  8  7
8  9  9  8
9  10  10  9
10  11  11  10
11  12  12  11
12  13  13  12
13  14  14  13
14  15  15  14
15  16  16  15
16  17  17  16
17  18  18  17
18  19  19  18
19  20  20  19
20  21  21  20
21  22  22  21
22  23  23  22
23  24  24  23
24  25  25  24
25  26  26  25
26  27  27  26
27  28  28  27
28  29  29  28
29  30  30  29
30  31  31  30
31  32  32  31
32  33  33  32
33  34  34  33
34  35  35  34
35  36  36  35
36  37  37  36
37  38  38  37
38  39  39  38
39  40  40  39
40  41  41  40
VARIABLES  = "X","Y","Z", "TEMPERATURE1"
ZONE T="1.000000000000e+05s", N=41, E=40, F=FEPOINT, ET=QUADRILATERAL
STRANDID=1, SOLUTIONTIME=1.000000000000e+05
0.000000000000e+00 0.000000000000e+00 0.000000000000e+00 2.839561028794e+01 
1.000000000000e-01 0.000000000000e+00 0.000000000000e+00 2.787803930231e+01 
2.000000000000e-01 0.000000000000e+00 0.000000000000e+00 2.741577793406e+01 
3.000000000000e-01 0.000000000000e+00 0.000000000000e+00 2.700747617334e+01 
4.000000000000e-01 0.000000000000e+00 0.000000000000e+00 2.665095715164e+01 
5.000000000000e-01 0.000000000000e+00 0.000000000000e+00 2.634332062829e+01 
6.000000000000e-01 0.000000000000e+00 0.000000000000e+00 2.608107612869e+01 
7.000000000000e-01 0.000000000000e+00 0.000000000000e+00 2.586029558235e+01 
8.000000000000e-01 0.000000000000e+00 0.000000000000e+00 2.567677442247e+01 
9.000000000000e-01 0.000000000000e+00 0.000000000000e+00 2.552619032971e+01 
1.000000000000e+00 0.000000000000e+00 0.000000000000e+00 2.540425001809e+01 
1.100000000000e+00 0.000000000000e+00 0.000000000000e+00 2.530681644288e+01 
1.200000000000e+00 0.000000000000e+00 0.000000000000e+00 2.523001125934e+01 
1.300000000000e+00 0.000000000000e+00 0.000000000000e+00 2.517028995825e+01 
1.400000000000e+00 0.000000000000e+00 0.000000000000e+00 2.512448955188e+01 
1.500000000000e+00 0.000000000000e+00 0.000000000000e+00 2.508985074970e+01 
1.600000000000e+00 0.000000000000e+00 0.000000000000e+00 2.506401809492e+01 
1.700000000000e+00 0.000000000000e+00 0.000000000000e+00 2.504502247107e+01 
1.800000000000e+00 0.000000000000e+00 0.000000000000e+00 2.503125075122e+01 
1.900000000000e+00 0.000000000000e+00 0.000000000000e+00 2.502140723543e+01 
2.000000000000e+00 0.000000000000e+00 0.000000000000e+00 2.501447102464e+01 
2.100000000000e+00 0.000000000000e+00 0.000000000000e+00 2.500965274904e+01 
2.200000000000e+00 0.000000000000e+00 0.000000000000e+00 2.500635323409e+01 
2.300000000000e+00 0.000000000000e+00 0.000000000000e+00 2.500412585771e+01 
2.400000000000e+00 0.000000000000e+00 0.000000000000e+00 2.500264360608e+01 
2.500000000000e+00 0.000000000000e+00 0.000000000000e+00 2.500167122065e+01 
2.600000000000e+00 0.000000000000e+00 0.000000000000e+00 2.500104236668e+01 
2.700000000000e+00 0.000000000000e+00 0.000000000000e+00 2.500064143921e+01 
2.800000000000e+00 0.000000000000e+00 0.000000000000e+00 2.500038944002e+01 
2.900000000000e+00 0.000000000000e+00 0.000000000000e+00 2.500023328165e+01 
3.000000000000e+00 0.000000000000e+00 0.000000000000e+00 2.500013787421e+01 
3.100000000000e+00 0.000000000000e+00 0.000000000000e+00 2.500008040025e+01 
3.200000000000e+00 0.000000000000e+00 0.000000000000e+00 2.500004626075e+01 
3.300000000000e+00 0.000000000000e+00 0.000000000000e+00 2.500002626325e+01 
3.400000000000e+00 0.000000000000e+00 0.000000000000e+00 2.500001471035e+01 
3.500000000000e+00 0.000000000000e+00 0.000000000000e+00 2.500000812516e+01 
3.600000000000e+00 0.000000000000e+00 0.000000000000e+00 2.500000441717e+01 
3.700000000000e+00 0.000000000000e+00 0.000000000000e+00 2.500000234596e+01 
3.800000000000e+00 0.000000000000e+00 0.000000000000e+00 2.500000118137e+01 
3.900000000000e+00 0.000000000000e+00 0.000000000000e+00 2.500000049003e+01 
4.000000000000e+00 0.000000000000e+00 0.000000000000e+00 2.500000000000e+01 
1  2  2  1
2  3  3  2
3  4  4  3
4  5  5  4
5  6  6  5
6  7  7  6
7  8  8  7
8  9  9  8
9  10  10  9
10  11  11  10
11  12  12  11
12  13  13  12
13  14  14  13
14  15  15  14
15  16  16  15
16  17  17  16
17  18  18  17
18  19  19  18
19  20  20  19
20  21  21  20
21  22  22  21
22  23  23  22
23  24  24  23
24  25  25  24
25  26  26  25
26  27  27  26
27  28  28  27
28  29  29  28
29  30  30  29
30  31  31  30
31  32  32  31
32  33  33  32
33  34  34  33
34  35  35  34
35  36  36  35
36  37  37  36
37  38  38  37
38  39  39  38
39  40  40  39
40  41  41  40
VARIABLES  = "X","Y","Z", "TEMPERATURE1"
ZONE T="1.500000000000e+05s", N=41, E=40, F=FEPOINT, ET=QUADRILATERAL
STRANDID=1, SOLUTIONTIME=1.500000000000e+05
0.000000000000e+00 0.000000000000e+00 0.000000000000e+00 2.916144525841e+01 
1.000000000000e-01 0.000000000000e+00 0.000000000000e+00 2.863874462933e+01 
2.000000000000e-01 0.000000000000e+00 0.000000000000e+00 2.816130316166e+01 
3.000000000000e-01 0.000000000000e+00 0.000000000000e+00 2.772838298899e+01 
4.000000000000e-01 0.000000000000e+00 0.000000000000e+00 2.733878104838e+01 
5.000000000000e-01 0.000000000000e+00 0.000000000000e+00 2.699086762957e+01 
6.000000000000e-01 0.000000000000e+00 0.000000000000e+00 2.668263741833e+01 
7.000000000000e-01 0.000000000000e+00 0.000000000000e+00 2.641177037375e+01 
8.000000000000e-01 0.000000000000e+00 0.000000000000e+00 2.617569936978e+01 
9.000000000000e-01 0.000000000000e+00 0.000000000000e+00 2.597168133771e+01 
1.000000000000e+00 0.000000000000e+00 0.000000000000e+00 2.579686867120e+01 
1.100000000000e+00 0.000000000000e+00 0.000000000000e+00 2.564837788285e+01 
1.200000000000e+00 0.000000000000e+00 0.000000000000e+00 2.552335289992e+01 
1.300000000000e+00 0.000000000000e+00 0.000000000000e+00 2.541902091238e+01 
1.400000000000e+00 0.000000000000e+00 0.000000000000e+00 2.533273928874e+01 
1.500000000000e+00 0.000000000000e+00 0.000000000000e+00 2.526203270348e+01 
1.600000000000e+00 0.000000000000e+00 0.000000000000e+00 2.520462022497e+01 
1.700000000000e+00 0.000000000000e+00 0.000000000000e+00 2.515843265553e+01 
1.800000000000e+00 0.000000000000e+00 0.000000000000e+00 2.512162086463e+01 
1.900000000000e+00 0.000000000000e+00 0.000000000000e+00 2.509255619469e+01 
2.000000000000e+00 0.000000000000e+00 0.000000000000e+00 2.506982423918e+01 
2.100000000000e+00 0.000000000000e+00 0.000000000000e+00 2.505221339905e+01 
2.200000000000e+00 0.000000000000e+00 0.000000000000e+00 2.503869962764e+01 
2.300000000000e+00 0.000000000000e+00 0.000000000000e+00 2.502842869472e+01 
2.400000000000e+00 0.000000000000e+00 0.000000000000e+00 2.502069715839e+01 
2.500000000000e+00 0.000000000000e+00 0.000000000000e+00 2.501493305066e+01 
2.600000000000e+00 0.000000000000e+00 0.000000000000e+00 2.501067708089e+01 
2.700000000000e+00 0.000000000000e+00 0.000000000000e+00 2.500756495637e+01 
2.800000000000e+00 0.000000000000e+00 0.000000000000e+00 2.500531122799e+01 
2.900000000000e+00 0.000000000000e+00 0.000000000000e+00 2.500369489863e+01 
3.000000000000e+00 0.000000000000e+00 0.000000000000e+00 2.500254689013e+01 
3.100000000000e+00 0.000000000000e+00 0.000000000000e+00 2.500173935297e+01 
3.200000000000e+00 0.000000000000e+00 0.000000000000e+00 2.500117672081e+01 
3.300000000000e+00 0.000000000000e+00 0.000000000000e+00 2.500078835733e+01 
3.400000000000e+00 0.000000000000e+00 0.000000000000e+00 2.500052261073e+01 
3.500000000000e+00 0.000000000000e+00 0.000000000000e+00 2.500034207819e+01 
3.600000000000e+00 0.000000000000e+00 0.000000000000e+00 2.500021988268e+01 
3.700000000000e+00 0.000000000000e+00 0.000000000000e+00 2.500013677420e+01 
3.800000000000e+00 0.000000000000e+00 0.000000000000e+00 2.500007888215e+01 
3.900000000000e+00 0.000000000000e+00 0.000000000000e+00 2.500003596257e+01 
4.000000000000e+00 0.000000000000e+00 0.000000000000e+00 2.500000000000e+01 
1  2  2  1
2  3  3  2
3  4  4  3
4  5  5  4
5  6  6  5
6  7  7  6
7  8  8  7
8  9  9  8
9  10  10  9
10  11  11  10
11  12  12  11
12  13  13  12
13  14  14  13
14  15  15  14
15  16  16  15
16  17  17  16
17  18  18  17
18  19  19  18
19  20  20  19
20  21  21  20
21  22  22  21
22  23  23  22
23  24  24  23
24  25  25  24
25  26  26  25
26  27  27  26
27  28  28  27
28  29  29  28
29  30  30  29
30  31  31  30
31  32  32  31
32  33  33  32
33  34  34  33
34  35  35  34
35  36  36  35
36  37  37  36
37  38  38  37
38  39  39  38
39  40  40  39
40  41  41  40
VARIABLES  = "X","Y","Z", "TEMPERATURE1"
ZONE T="2.000000000000e+05s", N=41, E=40, F=FEPOINT, ET=QUADRILATERAL
STRANDID=1, SOLUTIONTIME=2.000000000000e+05
0.000000000000e+00 0.000000000000e+00 0.000000000000e+00 2.980677454681e+01 
1.000000000000e-01 0.000000000000e+00 0.000000000000e+00 2.928101987893e+01 
2.000000000000e-01 0.000000000000e+00 0.000000000000e+00 2.879450356724e+01 
3.000000000000e-01 0.000000000000e+00 0.000000000000e+00 2.834674537991e+01 
4.000000000000e-01 0.000000000000e+00 0.000000000000e+00 2.793695798524e+01 
5.000000000000e-01 0.000000000000e+00 0.000000000000e+00 2.756406597490e+01 
6.000000000000e-01 0.000000000000e+00 0.000000000000e+00 2.722673141215e+01 
7.000000000000e-01 0.000000000000e+00 0.000000000000e+00 2.692338489410e+01 
8.000000000000e-01 0.000000000000e+00 0.000000000000e+00 2.665226092889e+01 
9.000000000000e-01 0.000000000000e+00 0.000000000000e+00 2.641143630356e+01 
1.000000000000e+00 0.000000000000e+00 0.000000000000e+00 2.619887006354e+01 
1.100000000000e+00 0.000000000000e+00 0.000000000000e+00 2.601244373820e+01 
1.200000000000e+00 0.000000000000e+00 0.000000000000e+00 2.585000052436e+01 
1.300000000000e+00 0.000000000000e+00 0.000000000000e+00 2.570938227337e+01 
1.400000000000e+00 0.000000000000e+00 0.000000000000e+00 2.558846330480e+01 
1.500000000000e+00 0.000000000000e+00 0.000000000000e+00 2.548518027921e+01 
1.600000000000e+00 0.000000000000e+00 0.000000000000e+00 2.539755758758e+01 
1.700000000000e+00 0.000000000000e+00 0.000000000000e+00 2.532372794457e+01 
1.800000000000e+00 0.000000000000e+00 0.000000000000e+00 2.526194809140e+01 
1.900000000000e+00 0.000000000000e+00 0.000000000000e+00 2.521060971334e+01 
2.000000000000e+00 0.000000000000e+00 0.000000000000e+00 2.516824584652e+01 
2.100000000000e+00 0.000000000000e+00 0.000000000000e+00 2.513353318467e+01 
2.200000000000e+00 0.000000000000e+00 0.000000000000e+00 2.510529079504e+01 
2.300000000000e+00 0.000000000000e+00 0.000000000000e+00 2.508247581440e+01 
2.400000000000e+00 0.000000000000e+00 0.000000000000e+00 2.506417672248e+01 
2.500000000000e+00 0.000000000000e+00 0.000000000000e+00 2.504960478570e+01 
2.600000000000e+00 0.000000000000e+00 0.000000000000e+00 2.503808423353e+01 
2.700000000000e+00 0.000000000000e+00 0.000000000000e+00 2.502904167929e+01 
2.800000000000e+00 0.000000000000e+00 0.000000000000e+00 2.502199523239e+01 
2.900000000000e+00 0.000000000000e+00 0.000000000000e+00 2.501654367627e+01 
3.000000000000e+00 0.000000000000e+00 0.000000000000e+00 2.501235601004e+01 
3.100000000000e+00 0.000000000000e+00 0.000000000000e+00 2.500916157729e+01 
3.200000000000e+00 0.000000000000e+00 0.000000000000e+00 2.500674093499e+01 
3.300000000000e+00 0.000000000000e+00 0.000000000000e+00 2.500491755264e+01 
3.400000000000e+00 0.000000000000e+00 0.000000000000e+00 2.500355037678e+01 
3.500000000000e+00 0.000000000000e+00 0.000000000000e+00 2.500252725035e+01 
3.600000000000e+00 0.000000000000e+00 0.000000000000e+00 2.500175913949e+01 
3.700000000000e+00 0.000000000000e+00 0.000000000000e+00 2.500117509185e+01 
3.800000000000e+00 0.000000000000e+00 0.000000000000e+00 2.500071782921e+01 
3.900000000000e+00 0.000000000000e+00 0.000000000000e+00 2.500033986157e+01 
4.000000000000e+00 0.000000000000e+00 0.000000000000e+00 2.500000000000e+01 
1  2  2  1
2  3  3  2
3  4  4  3
4  5  5  4
5  6  6  5
6  7  7  6
7  8  8  7
8  9  9  8
9  10  10  9
10  11  11  10
11  12  12  11
12  13  13  12
13  14  14  13
14  15  15  14
15  16  16  15
16  17  17  16
17  18  18  17
18  19  19  18
19  20  20  19
20  21  21  20
21  22  22  21
22  23  23  22
23  24  24  23
24  25  25  24
25  26  26  25
26  27  27  26
27  28  28  27
28  29  29  28
29  30  30  29
30  31  31  30
31  32  32  31
32  33  33  32
33  34  34  33
34  35  35  34
35  36  36  35
36  37  37  36
37  38  38  37
38  39  39  38
39  40  40  39
40  41  41  40
VARIABLES  = "X","Y","Z", "TEMPERATURE1"
ZONE T="2.500000000000e+05s", N=41, E=40, F=FEPOINT, ET=QUADRILATERAL
STRANDID=1, SOLUTIONTIME=2.500000000000e+05
0.000000000000e+00 0.000000000000e+00 0.000000000000e+00 3.037517771449e+01 
1.000000000000e-01 0.000000000000e+00 0.000000000000e+00 2.984734027420e+01 
2.000000000000e-01 0.000000000000e+00 0.000000000000e+00 2.935462160725e+01 
3.000000000000e-01 0.000000000000e+00 0.000000000000e+00 2.889667767094e+01 
4.000000000000e-01 0.000000000000e+00 0.000000000000e+00 2.847294254775e+01 
5.000000000000e-01 0.000000000000e+00 0.000000000000e+00 2.808263941918e+01 
6.000000000000e-01 0.000000000000e+00 0.000000000000e+00 2.772479542825e+01 
7.000000000000e-01 0.000000000000e+00 0.000000000000e+00 2.739825995691e+01 
8.000000000000e-01 0.000000000000e+00 0.000000000000e+00 2.710172574700e+01 
9.000000000000e-01 0.000000000000e+00 0.000000000000e+00 2.683375221992e+01 
1.000000000000e+00 0.000000000000e+00 0.000000000000e+00 2.659279030516e+01 
1.100000000000e+00 0.000000000000e+00 0.000000000000e+00 2.637720807042e+01 
1.200000000000e+00 0.000000000000e+00 0.000000000000e+00 2.618531645688e+01 
1.300000000000e+00 0.000000000000e+00 0.000000000000e+00 2.601539446015e+01 
1.400000000000e+00 0.000000000000e+00 0.000000000000e+00 2.586571315695e+01 
1.500000000000e+00 0.000000000000e+00 0.000000000000e+00 2.573455805602e+01 
1.600000000000e+00 0.000000000000e+00 0.000000000000e+00 2.562024934402e+01 
1.700000000000e+00 0.000000000000e+00 0.000000000000e+00 2.552115969847e+01 
1.800000000000e+00 0.000000000000e+00 0.000000000000e+00 2.543572944456e+01 
1.900000000000e+00 0.000000000000e+00 0.000000000000e+00 2.536247893604e+01 
2.000000000000e+00 0.000000000000e+00 0.000000000000e+00 2.530001813852e+01 
2.100000000000e+00 0.000000000000e+00 0.000000000000e+00 2.524705348184e+01 
2.200000000000e+00 0.000000000000e+00 0.000000000000e+00 2.520239212443e+01 
2.300000000000e+00 0.000000000000e+00 0.000000000000e+00 2.516494383466e+01 
2.400000000000e+00 0.000000000000e+00 0.000000000000e+00 2.513372074116e+01 
2.500000000000e+00 0.000000000000e+00 0.000000000000e+00 2.510783523517e+01 
2.600000000000e+00 0.000000000000e+00 0.000000000000e+00 2.508649632514e+01 
2.700000000000e+00 0.000000000000e+00 0.000000000000e+00 2.506900474628e+01 
2.800000000000e+00 0.000000000000e+00 0.000000000000e+00 2.505474711926e+01 
2.900000000000e+00 0.000000000000e+00 0.000000000000e+00 2.504318943335e+01 
3.000000000000e+00 0.000000000000e+00 0.000000000000e+00 2.503387010271e+01 
3.100000000000e+00 0.000000000000e+00 0.000000000000e+00 2.502639281259e+01 
3.200000000000e+00 0.000000000000e+00 0.000000000000e+00 2.502041933660e+01 
3.300000000000e+00 0.000000000000e+00 0.000000000000e+00 2.501566246929e+01 
3.400000000000e+00 0.000000000000e+00 0.000000000000e+00 2.501187918095e+01 
3.500000000000e+00 0.000000000000e+00 0.000000000000e+00 2.500886406656e+01 
3.600000000000e+00 0.000000000000e+00 0.000000000000e+00 2.500644312724e+01 
3.700000000000e+00 0.000000000000e+00 0.000000000000e+00 2.500446789318e+01 
3.800000000000e+00 0.000000000000e+00 0.000000000000e+00 2.500280987109e+01 
3.900000000000e+00 0.000000000000e+00 0.000000000000e+00 2.500135527722e+01 
4.000000000000e+00 0.000000000000e+00 0.000000000000e+00 2.500000000000e+01 
1  2  2  1
2  3  3  2
3  4  4  3
4  5  5  4
5  6  6  5
6  7  7  6
7  8  8  7
8  9  9  8
9  10  10  9
10  11  11  10
11  12  12  11
12  13  13  12
13  14  14  13
14  15  15  14
15  16  16  15
16  17  17  16
17  18  18  17
18  19  19  18
19  20  20  19
20  21  21  20
21  22  22  21
22  23  23  22
23  24  24  23
24  25  25  24
25  26  26  25
26  27  27  26
27  28  28  27
28  29  29  28
29  30  30  29
30  31  31  30
31  32  32  31
32  33  33  32
33  34  34  33
34  35  35  34
35  36  36  35
36  37  37  36
37  38  38  37
38  39  39  38
39  40  40  39
40  41  41  40
VARIABLES  = "X","Y","Z", "TEMPERATURE1"
ZONE T="3.000000000000e+05s", N=41, E=40, F=FEPOINT, ET=QUADRILATERAL
STRANDID=1, SOLUTIONTIME=3.000000000000e+05
0.000000000000e+00 0.000000000000e+00 0.000000000000e+00 3.088897179308e+01 
1.000000000000e-01 0.000000000000e+00 0.000000000000e+00 3.035959756350e+01 
2.000000000000e-01 0.000000000000e+00 0.000000000000e+00 2.986229617534e+01 
3.000000000000e-01 0.000000000000e+00 0.000000000000e+00 2.939680569497e+01 
4.000000000000e-01 0.000000000000e+00 0.000000000000e+00 2.896269431839e+01 
5.000000000000e-01 0.000000000000e+00 0.000000000000e+00 2.855936736360e+01 
6.000000000000e-01 0.000000000000e+00 0.000000000000e+00 2.818607679366e+01 
7.000000000000e-01 0.000000000000e+00 0.000000000000e+00 2.784193301643e+01 
8.000000000000e-01 0.000000000000e+00 0.000000000000e+00 2.752591865092e+01 
9.000000000000e-01 0.000000000000e+00 0.000000000000e+00 2.723690390586e+01 
1.000000000000e+00 0.000000000000e+00 0.000000000000e+00 2.697366318397e+01 
1.100000000000e+00 0.000000000000e+00 0.000000000000e+00 2.673489250751e+01 
1.200000000000e+00 0.000000000000e+00 0.000000000000e+00 2.651922735586e+01 
1.300000000000e+00 0.000000000000e+00 0.000000000000e+00 2.632526051455e+01 
1.400000000000e+00 0.000000000000e+00 0.000000000000e+00 2.615155955651e+01 
1.500000000000e+00 0.000000000000e+00 0.000000000000e+00 2.599668360752e+01 
1.600000000000e+00 0.000000000000e+00 0.000000000000e+00 2.585919908937e+01 
1.700000000000e+00 0.000000000000e+00 0.000000000000e+00 2.573769418145e+01 
1.800000000000e+00 0.000000000000e+00 0.000000000000e+00 2.563079179428e+01 
1.900000000000e+00 0.000000000000e+00 0.000000000000e+00 2.553716090321e+01 
2.000000000000e+00 0.000000000000e+00 0.000000000000e+00 2.545552614536e+01 
2.100000000000e+00 0.000000000000e+00 0.000000000000e+00 2.538467563617e+01 
2.200000000000e+00 0.000000000000e+00 0.000000000000e+00 2.532346701107e+01 
2.300000000000e+00 0.000000000000e+00 0.000000000000e+00 2.527083174219e+01 
2.400000000000e+00 0.000000000000e+00 0.000000000000e+00 2.522577781763e+01 
2.500000000000e+00 0.000000000000e+00 0.000000000000e+00 2.518739090198e+01 
2.600000000000e+00 0.000000000000e+00 0.000000000000e+00 2.515483411960e+01 
2.700000000000e+00 0.000000000000e+00 0.000000000000e+00 2.512734661852e+01 
2.800000000000e+00 0.000000000000e+00 0.000000000000e+00 2.510424108083e+01 
2.900000000000e+00 0.000000000000e+00 0.000000000000e+00 2.508490034755e+01 
3.000000000000e+00 0.000000000000e+00 0.000000000000e+00 2.506877332173e+01 
3.100000000000e+00 0.000000000000e+00 0.000000000000e+00 2.505537030387e+01 
3.200000000000e+00 0.000000000000e+00 0.000000000000e+00 2.504425790085e+01 
3.300000000000e+00 0.000000000000e+00 0.000000000000e+00 2.503505363246e+01 
3.400000000000e+00 0.000000000000e+00 0.000000000000e+00 2.502742034137e+01 
3.500000000000e+00 0.000000000000e+00 0.000000000000e+00 2.502106049253e+01 
3.600000000000e+00 0.000000000000e+00 0.000000000000e+00 2.501571042823e+01 
3.700000000000e+00 0.000000000000e+00 0.000000000000e+00 2.501113462589e+01 
3.800000000000e+00 0.000000000000e+00 0.000000000000e+00 2.500711998793e+01 
3.900000000000e+00 0.000000000000e+00 0.000000000000e+00 2.500347017742e+01 
4.000000000000e+00 0.000000000000e+00 0.000000000000e+00 2.500000000000e+01 
1  2  2  1
2  3  3  2
3  4  4  3
4  5  5  4
5  6  6  5
6  7  7  6
7  8  8  7
8  9  9  8
9  10  10  9
10  11  11  10
11  12  12  11
12  13  13  12
13  14  14  13
14  15  15  14
15  16  16  15
16  17  17  16
17  18  18  17
18  19  19  18
19  20  20  19
20  21  21  20
21  22  22  21
22  23  23  22
23  24  24  23
24  25  25  24
25  26  26  25
26  27  27  26
27  28  28  27
28  29  29  28
29  30  30  29
30  31  31  30
31  32  32  31
32  33  33  32
33  34  34  33
34  35  35  34
35  36  36  35
36  37  37  36
37  38  38  37
38  39  39  38
39  40  40  39
40  41  41  40
VARIABLES  = "X","Y","Z", "TEMPERATURE1"
ZONE T="3.500000000000e+05s", N=41, E=40, F=FEPOINT, ET=QUADRILATERAL
STRANDID=1, SOLUTIONTIME=3.500000000000e+05
0.000000000000e+00 0.000000000000e+00 0.000000000000e+00 3.136140238096e+01 
1.000000000000e-01 0.000000000000e+00 0.000000000000e+00 3.083083409776e+01 
2.000000000000e-01 0.000000000000e+00 0.000000000000e+00 3.032996868550e+01 
3.000000000000e-01 0.000000000000e+00 0.000000000000e+00 2.985859816080e+01 
4.000000000000e-01 0.000000000000e+00 0.000000000000e+00 2.941637911935e+01 
5.000000000000e-01 0.000000000000e+00 0.000000000000e+00 2.900283750879e+01 
6.000000000000e-01 0.000000000000e+00 0.000000000000e+00 2.861737515460e+01 
7.000000000000e-01 0.000000000000e+00 0.000000000000e+00 2.825927788945e+01 
8.000000000000e-01 0.000000000000e+00 0.000000000000e+00 2.792772510152e+01 
9.000000000000e-01 0.000000000000e+00 0.000000000000e+00 2.762180048917e+01 
1.000000000000e+00 0.000000000000e+00 0.000000000000e+00 2.734050378694e+01 
1.100000000000e+00 0.000000000000e+00 0.000000000000e+00 2.708276321333e+01 
1.200000000000e+00 0.000000000000e+00 0.000000000000e+00 2.684744838311e+01 
1.300000000000e+00 0.000000000000e+00 0.000000000000e+00 2.663338342685e+01 
1.400000000000e+00 0.000000000000e+00 0.000000000000e+00 2.643936006710e+01 
1.500000000000e+00 0.000000000000e+00 0.000000000000e+00 2.626415041405e+01 
1.600000000000e+00 0.000000000000e+00 0.000000000000e+00 2.610651926234e+01 
1.700000000000e+00 0.000000000000e+00 0.000000000000e+00 2.596523569458e+01 
1.800000000000e+00 0.000000000000e+00 0.000000000000e+00 2.583908382454e+01 
1.900000000000e+00 0.000000000000e+00 0.000000000000e+00 2.572687254292e+01 
2.000000000000e+00 0.000000000000e+00 0.000000000000e+00 2.562744416013e+01 
2.100000000000e+00 0.000000000000e+00 0.000000000000e+00 2.553968187234e+01 
2.200000000000e+00 0.000000000000e+00 0.000000000000e+00 2.546251600784e+01 
2.300000000000e+00 0.000000000000e+00 0.000000000000e+00 2.539492904031e+01 
2.400000000000e+00 0.000000000000e+00 0.000000000000e+00 2.533595938229e+01 
2.500000000000e+00 0.000000000000e+00 0.000000000000e+00 2.528470399581e+01 
2.600000000000e+00 0.000000000000e+00 0.000000000000e+00 2.524031987747e+01 
2.700000000000e+00 0.000000000000e+00 0.000000000000e+00 2.520202449086e+01 
2.800000000000e+00 0.000000000000e+00 0.000000000000e+00 2.516909523219e+01 
2.900000000000e+00 0.000000000000e+00 0.000000000000e+00 2.514086802228e+01 
3.000000000000e+00 0.000000000000e+00 0.000000000000e+00 2.511673512316e+01 
3.100000000000e+00 0.000000000000e+00 0.000000000000e+00 2.509614227791e+01 
3.200000000000e+00 0.000000000000e+00 0.000000000000e+00 2.507858527059e+01 
3.300000000000e+00 0.000000000000e+00 0.000000000000e+00 2.506360599796e+01 
3.400000000000e+00 0.000000000000e+00 0.000000000000e+00 2.505078813836e+01 