 TITLE = "Time curves in points"
 VARIABLES = "TIME "  "PRESSURE1" 
 ZONE T="POINT=POINT5"
0.000000000000e+00 0.000000000000e+00 
1.000000000000e-05 1.809331091523e-05 
2.000000000000e-05 1.228041016641e-04 
3.000000000000e-05 4.511283102364e-04 
4.000000000000e-05 1.195664016797e-03 
5.000000000000e-05 2.569639621015e-03 
6.000000000000e-05 4.769206064938e-03 
7.000000000000e-05 7.946891017589e-03 
8.000000000000e-05 1.220013259535e-02 
9.000000000000e-05 1.757208535612e-02 
1.000000000000e-04 2.405969246109e-02 
1.900000000000e-04 1.299681589799e-01 
2.800000000000e-04 2.541345520290e-01 
3.700000000000e-04 3.814721864628e-01 
4.600000000000e-04 5.051297174157e-01 
5.500000000000e-04 6.223771394644e-01 
6.400000000000e-04 7.324210281001e-01 
7.300000000000e-04 8.353354083965e-01 
8.200000000000e-04 9.315542364229e-01 
9.100000000000e-04 1.021634567140e+00 
1.000000000000e-03 1.106148688180e+00 
2.000000000000e-03 1.714210772389e+00 
3.000000000000e-03 2.146472437027e+00 
4.000000000000e-03 2.475647249272e+00 
5.000000000000e-03 2.739079756438e+00 
6.000000000000e-03 2.957671992013e+00 
7.000000000000e-03 3.144018751904e+00 
8.000000000000e-03 3.306188479576e+00 
9.000000000000e-03 3.449616857002e+00 
1.000000000000e-02 3.578120896728e+00 
2.000000000000e-02 4.318159192801e+00 
3.000000000000e-02 4.811734516664e+00 
4.000000000000e-02 5.174092713491e+00 
5.000000000000e-02 5.457654130970e+00 
6.000000000000e-02 5.689531524937e+00 
7.000000000000e-02 5.885213647407e+00 
8.000000000000e-02 6.054257040570e+00 
9.000000000000e-02 6.202923769730e+00 
1.000000000000e-01 6.335517084931e+00 
1.900000000000e-01 7.021703623469e+00 
2.800000000000e-01 7.457078190017e+00 
3.700000000000e-01 7.746514467651e+00 
4.600000000000e-01 7.942991170608e+00 
5.500000000000e-01 8.077585522184e+00 
6.400000000000e-01 8.170151899254e+00 
7.300000000000e-01 8.233921915794e+00 
8.200000000000e-01 8.277885875699e+00 
9.100000000000e-01 8.308204774409e+00 
1.000000000000e+00 8.329116442653e+00 
1.500000000000e+00 8.362323043823e+00 
2.000000000000e+00 8.371814910294e+00 
2.500000000000e+00 8.374528120807e+00 
3.000000000000e+00 8.375303682798e+00 
3.500000000000e+00 8.375525374699e+00 
4.000000000000e+00 8.375588744627e+00 
4.500000000000e+00 8.375606858720e+00 
5.000000000000e+00 8.375612036577e+00 
5.500000000000e+00 8.375613516651e+00 
6.000000000000e+00 8.375613939725e+00 
6.500000000000e+00 8.375614060660e+00 
7.000000000000e+00 8.375614095229e+00 
7.500000000000e+00 8.375614095229e+00 
8.000000000000e+00 8.375614095229e+00 
8.500000000000e+00 8.375614095229e+00 
9.000000000000e+00 8.375614095229e+00 
9.500000000000e+00 8.375614095229e+00 
1.000000000000e+01 8.375614095229e+00 
