 TITLE = "Profiles along polylines"
 VARIABLES = "DIST" "TEMPERATURE1" 
 ZONE T="TIME=0.000000000000e+00"
3.147000000000e+00 4.230000000000e+02 
1.677600000000e+01 4.230000000000e+02 
3.670000000000e+01 4.230000000000e+02 
7.014400000000e+01 4.230000000000e+02 
9.453400000000e+01 4.230000000000e+02 
1.066172000000e+02 4.230000000000e+02 
1.508728000000e+02 4.230000000000e+02 
1.899406000000e+02 4.230000000000e+02 
1.978522900000e+02 4.230000000000e+02 
2.138261000000e+02 4.230000000000e+02 
2.195371000000e+02 4.230000000000e+02 
2.298447000000e+02 4.230000000000e+02 
2.428690000000e+02 4.230000000000e+02 
2.634942000000e+02 4.230000000000e+02 
2.839899000000e+02 4.230000000000e+02 
2.949174000000e+02 4.230000000000e+02 
3.090880000000e+02 4.230000000000e+02 
3.304080000000e+02 4.230000000000e+02 
3.498850000000e+02 4.230000000000e+02 
3.633000000000e+02 4.230000000000e+02 
3.832240000000e+02 4.230000000000e+02 
4.031470000000e+02 4.230000000000e+02 
 TITLE = "Profiles along polylines"
 VARIABLES = "DIST" "TEMPERATURE1" 
 ZONE T="TIME=4.320000000000e+04"
3.147000000000e+00 3.000000000000e+02 
1.677600000000e+01 4.353618392199e+02 
3.670000000000e+01 4.234028944181e+02 
7.014400000000e+01 4.229695477203e+02 
9.453400000000e+01 4.230026539811e+02 
1.066172000000e+02 4.229993977063e+02 
1.508728000000e+02 4.229999987487e+02 
1.899406000000e+02 4.229999995730e+02 
1.978522900000e+02 4.229999997950e+02 
2.138261000000e+02 4.230000001013e+02 
2.195371000000e+02 4.230000000113e+02 
2.298447000000e+02 4.229999999953e+02 
2.428690000000e+02 4.229999999999e+02 
2.634942000000e+02 4.230000000000e+02 
2.839899000000e+02 4.230000000000e+02 
2.949174000000e+02 4.230000000000e+02 
3.090880000000e+02 4.230000000000e+02 
3.304080000000e+02 4.230000000000e+02 
3.498850000000e+02 4.230000000000e+02 
3.633000000000e+02 4.230000000000e+02 
3.832240000000e+02 4.230000000000e+02 
4.031470000000e+02 4.230000000000e+02 
 ZONE T="TIME=8.640000000000e+04"
3.147000000000e+00 3.000000000000e+02 
1.677600000000e+01 4.352205627170e+02 
3.670000000000e+01 4.234026536675e+02 
7.014400000000e+01 4.229696474795e+02 
9.453400000000e+01 4.230027385304e+02 
1.066172000000e+02 4.229993917565e+02 
1.508728000000e+02 4.229999977878e+02 
1.899406000000e+02 4.229999995972e+02 
1.978522900000e+02 4.229999998155e+02 
2.138261000000e+02 4.230000000936e+02 
2.195371000000e+02 4.230000000101e+02 
2.298447000000e+02 4.229999999957e+02 
2.428690000000e+02 4.229999999997e+02 
2.634942000000e+02 4.229999999999e+02 
2.839899000000e+02 4.230000000000e+02 
2.949174000000e+02 4.230000000000e+02 
3.090880000000e+02 4.230000000000e+02 
3.304080000000e+02 4.230000000000e+02 
3.498850000000e+02 4.230000000000e+02 
3.633000000000e+02 4.230000000000e+02 
3.832240000000e+02 4.230000000000e+02 
4.031470000000e+02 4.230000000000e+02 
