 TITLE = "Time curves in points"
 VARIABLES = "TIME "  "PRESSURE1"  "PRESSURE2"  "SATURATION1"  "SATURATION2"  "PRESSURE_CAP" 
 ZONE T="POINT=POINT4"
0.000000000000e+00 0.000000000000e+00 3.697300000000e+02 1.000000000000e+00 0.000000000000e+00 3.697300000000e+02 
1.000000000000e+00 4.601756266674e+01 4.157479580359e+02 9.999961942947e-01 3.805705297994e-06 3.697303953691e+02 
2.000000000000e+00 4.795366101385e+01 4.176875272336e+02 9.999627857706e-01 3.721422935844e-05 3.697338662197e+02 
3.000000000000e+00 5.026701144617e+01 4.200137781980e+02 9.998386256094e-01 1.613743906291e-04 3.697467667519e+02 
4.000000000000e+00 5.303257287633e+01 4.228132153625e+02 9.995126914666e-01 4.873085333803e-04 3.697806424861e+02 
5.000000000000e+00 5.632580440999e+01 4.261801757013e+02 9.988038138529e-01 1.196186147117e-03 3.698543712913e+02 
