 TITLE = "Time curves in points"
 VARIABLES = "TIME "  "PRESSURE1"  "PRESSURE2"  "SATURATION1"  "SATURATION2"  "PRESSURE_CAP" 
 ZONE T="POINT=POINT4"
0.000000000000e+00 0.000000000000e+00 4.242870002808e+02 6.200000000000e-01 3.800000000000e-01 4.242870002808e+02 
1.000000000000e+00 6.333523842128e+01 4.876222387020e+02 6.200000000000e-01 3.800000000000e-01 4.242870002808e+02 
2.000000000000e+00 6.595251944623e+01 4.902395197270e+02 6.200000000000e-01 3.800000000000e-01 4.242870002808e+02 
3.000000000000e+00 6.907515287940e+01 4.933621531601e+02 6.200000000000e-01 3.800000000000e-01 4.242870002808e+02 
4.000000000000e+00 7.279949675579e+01 4.970864970365e+02 6.200000000005e-01 3.799999999995e-01 4.242870002807e+02 
5.000000000000e+00 7.721405494401e+01 5.015010552248e+02 6.200000000000e-01 3.800000000000e-01 4.242870002808e+02 
