 TITLE = "Time curves in points"
 VARIABLES = "TIME "  "PRESSURE1"  "PRESSURE2"  "PRESSURE_W"  "SATURATION1" SATURATION2  "VELOCITY_X1"  "VELOCITY_Y1"  "VELOCITY_X2"  "VELOCITY_Y2" 
 ZONE T="POINT=POINT4"
0.000000000000e+00 5.000000000000e+04 0.000000000000e+00 -5.000000000000e+04 1.000000000000e-02 9.900000000000e-01 0.000000000000e+00 0.000000000000e+00 0.000000000000e+00 0.000000000000e+00 
5.000000000000e+00 4.999999999986e+03 1.999999999995e+05 1.949999999995e+05 3.345535830617e-01 6.654464169383e-01 3.574472574581e-04 -5.719207250541e-14 -4.128321456144e-05 3.309360950168e-12 
1.000000000000e+01 4.999999999999e+03 2.000000000000e+05 1.950000000000e+05 4.104307975639e-01 5.895692024361e-01 6.383557023925e-04 -3.626965705142e-14 -5.541442955899e-05 6.255309232530e-13 
1.500000000000e+01 5.000000000000e+03 2.000000000000e+05 1.950000000000e+05 5.087274657154e-01 4.912725342846e-01 1.118490786058e-03 -2.366540464086e-14 -5.764971851840e-05 -3.765152632376e-13 
2.000000000000e+01 5.000000000000e+03 2.000000000000e+05 1.950000000000e+05 6.174610923465e-01 3.825389076535e-01 1.719757878572e-03 1.775308934963e-14 -2.763933556290e-05 -1.114617329916e-12 
2.500000000000e+01 5.000000000000e+03 2.000000000000e+05 1.950000000000e+05 7.178518638179e-01 2.821481361821e-01 2.170022377901e-03 -2.777253437959e-13 2.850675295491e-05 7.107955288925e-13 
3.000000000000e+01 4.999999999568e+03 1.999999999827e+05 1.949999999831e+05 7.978654098713e-01 2.021345901287e-01 2.257864522176e-03 -3.043127472903e-11 7.922882519163e-05 2.604932900842e-11 
3.500000000000e+01 5.000000000001e+03 2.000000000000e+05 1.950000000000e+05 8.556470568039e-01 1.443529431961e-01 2.013381833590e-03 -2.146573871424e-11 1.052999555653e-04 6.912343111651e-12 
4.000000000000e+01 5.000000000095e+03 2.000000000038e+05 1.950000000037e+05 8.949860140274e-01 1.050139859726e-01 1.609519657354e-03 -5.736337973288e-12 1.079304717523e-04 1.976981535220e-12 
4.500000000000e+01 5.000000000001e+03 2.000000000001e+05 1.950000000001e+05 9.210673077378e-01 7.893269226224e-02 1.207653031517e-03 -4.677321265409e-12 9.702708671604e-05 2.266427522671e-12 
5.000000000000e+01 4.999999999991e+03 1.999999999997e+05 1.949999999997e+05 9.383627587284e-01 6.163724127162e-02 8.858636767637e-04 -6.448231244932e-12 8.184480512907e-05 1.111297860146e-12 
6.000000000000e+01 4.999999999844e+03 1.999999999938e+05 1.949999999939e+05 9.563549681927e-01 4.364503180729e-02 5.299886445625e-04 2.287311089239e-11 5.836827471726e-05 2.300564411144e-11 
7.000000000000e+01 4.999999999999e+03 1.999999999999e+05 1.949999999999e+05 9.662049523642e-01 3.379504763584e-02 3.442178275045e-04 4.444667164249e-11 4.274510699806e-05 -6.987875559623e-13 
8.000000000000e+01 5.000000000029e+03 2.000000000012e+05 1.950000000011e+05 9.718306179852e-01 2.816938201478e-02 2.482437469835e-04 2.331744852255e-11 3.337900899828e-05 4.052509227442e-14 
9.000000000000e+01 5.000000000009e+03 2.000000000004e+05 1.950000000004e+05 9.749962978088e-01 2.500370219120e-02 1.988269400583e-04 -2.524525869730e-11 2.812072393249e-05 1.443285504360e-11 
1.000000000000e+02 4.999999999957e+03 1.999999999983e+05 1.949999999983e+05 9.765908706715e-01 2.340912932851e-02 1.754708073632e-04 8.671117160178e-12 2.550498036395e-05 4.275762683747e-12 
1.100000000000e+02 4.999999999790e+03 1.999999999916e+05 1.949999999918e+05 9.771574569056e-01 2.284254309437e-02 1.675857588177e-04 8.262301492945e-12 2.458122119218e-05 -1.005328923904e-12 
1.200000000000e+02 4.999999999998e+03 1.999999999999e+05 1.949999999999e+05 9.770872379271e-01 2.291276207293e-02 1.683526582648e-04 -3.837442341967e-12 2.469901866522e-05 1.113992861989e-12 
1.300000000000e+02 4.999999998334e+03 1.999999999334e+05 1.949999999350e+05 9.766903554091e-01 2.330964459094e-02 1.737475760601e-04 -9.474194540699e-11 2.534836842843e-05 -2.365125621665e-12 
1.400000000000e+02 4.999999999991e+03 1.999999999996e+05 1.949999999996e+05 9.761954600633e-01 2.380453993674e-02 1.811843293147e-04 -3.172088448594e-11 2.615018703845e-05 -6.161757607435e-12 
1.500000000000e+02 5.000000000098e+03 2.000000000039e+05 1.950000000038e+05 9.757267500906e-01 2.427324990938e-02 1.880647212051e-04 -3.930361955628e-12 2.691728744373e-05 -7.742848599505e-12 
1.600000000000e+02 5.000000000608e+03 2.000000000243e+05 1.950000000237e+05 9.753450670026e-01 2.465493299739e-02 1.934690724471e-04 1.237521337097e-11 2.754908836677e-05 1.022424702193e-12 
1.700000000000e+02 5.000000000137e+03 2.000000000055e+05 1.950000000053e+05 9.750809702574e-01 2.491902974257e-02 1.974881322406e-04 -2.020474732547e-11 2.798249561042e-05 1.255067373620e-11 
1.800000000000e+02 5.000000000000e+03 2.000000000000e+05 1.950000000000e+05 9.749366828167e-01 2.506331718335e-02 1.997154157372e-04 1.584177078209e-11 2.821918943770e-05 2.305483742500e-12 
1.900000000000e+02 5.000000000000e+03 2.000000000000e+05 1.950000000000e+05 9.749054393393e-01 2.509456066071e-02 2.000202797287e-04 9.745213684894e-12 2.827400969863e-05 1.444005642099e-12 
2.000000000000e+02 5.000000000000e+03 2.000000000000e+05 1.950000000000e+05 9.749889692181e-01 2.501103078192e-02 1.987934922585e-04 5.748500712569e-12 2.813564406584e-05 1.100774585227e-12 
2.100000000000e+02 5.000000000000e+03 2.000000000000e+05 1.950000000000e+05 9.751872343753e-01 2.481276562473e-02 1.958678749000e-04 3.950271830220e-12 2.780801571980e-05 7.972823511817e-13 
2.200000000000e+02 5.000000000000e+03 2.000000000000e+05 1.950000000000e+05 9.755003200346e-01 2.449967996535e-02 1.912287912460e-04 2.936817046657e-12 2.729254253824e-05 6.201672370251e-13 
2.300000000000e+02 5.000000000000e+03 2.000000000000e+05 1.950000000000e+05 9.759249690231e-01 2.407503097694e-02 1.850029105805e-04 2.491056260273e-12 2.659519443326e-05 4.859739351354e-13 
2.400000000000e+02 5.000000000000e+03 2.000000000000e+05 1.950000000000e+05 9.764494742619e-01 2.355052573814e-02 1.774238013142e-04 2.206069545808e-12 2.573696282281e-05 4.107959138464e-13 
2.500000000000e+02 5.000000000000e+03 2.000000000000e+05 1.950000000000e+05 9.770515937361e-01 2.294840626386e-02 1.688745515669e-04 2.045044518161e-12 2.475651433164e-05 3.533275440536e-13 
2.600000000000e+02 4.999999999998e+03 1.999999999999e+05 1.949999999999e+05 9.777029990777e-01 2.229700092229e-02 1.600587242505e-04 -1.786472772570e-13 2.369805578714e-05 8.304983951948e-13 
2.700000000000e+02 4.999999999359e+03 1.999999999744e+05 1.949999999750e+05 9.783650836074e-01 2.163491639255e-02 1.510755879193e-04 -7.741631019552e-12 2.263404481423e-05 -2.873724836254e-12 
2.800000000000e+02 5.000000000059e+03 2.000000000024e+05 1.950000000023e+05 9.790028433801e-01 2.099715661988e-02 1.425266962819e-04 -5.563953671262e-12 2.161889620180e-05 -1.612531461798e-12 
2.900000000000e+02 4.999999999701e+03 1.999999999880e+05 1.949999999883e+05 9.795876449460e-01 2.041235505399e-02 1.348012391486e-04 -3.886155739649e-11 2.069675639351e-05 4.601605405547e-12 
3.000000000000e+02 4.999999999987e+03 1.999999999995e+05 1.949999999995e+05 9.800991618678e-01 1.990083813224e-02 1.280932349263e-04 -2.506194983999e-12 1.989810808765e-05 -7.924169839158e-13 
3.100000000000e+02 5.000000000368e+03 2.000000000147e+05 1.950000000144e+05 9.805292772044e-01 1.947072279555e-02 1.227212133986e-04 2.032686845845e-11 1.922919838923e-05 -2.532654601097e-12 
3.200000000000e+02 5.000000000061e+03 2.000000000024e+05 1.950000000024e+05 9.808778701140e-01 1.912212988600e-02 1.186655502513e-04 8.069128137371e-12 1.868752230353e-05 -7.952084106727e-13 
3.300000000000e+02 5.000000000000e+03 2.000000000000e+05 1.950000000000e+05 9.811487120862e-01 1.885128791379e-02 1.155693686266e-04 4.146399018879e-13 1.826899112448e-05 1.635083574603e-13 
3.400000000000e+02 5.000000000000e+03 2.000000000000e+05 1.950000000000e+05 9.813497877250e-01 1.865021227495e-02 1.132323808770e-04 2.024944964913e-12 1.796059434433e-05 -1.185543258745e-13 
3.500000000000e+02 4.999999998083e+03 1.999999999233e+05 1.949999999252e+05 9.814921918721e-01 1.850780812793e-02 1.115721270135e-04 -6.702599950404e-11 1.774318615281e-05 1.802350373874e-12 
3.600000000000e+02 4.999999995624e+03 1.999999998250e+05 1.949999998294e+05 9.815877815175e-01 1.841221848247e-02 1.104558429374e-04 -2.313324604883e-10 1.759771117337e-05 9.534837832363e-12 
3.700000000000e+02 4.999999995128e+03 1.999999998051e+05 1.949999998100e+05 9.816478249463e-01 1.835217505371e-02 1.097529229929e-04 -2.954159086957e-10 1.750653578621e-05 5.601132901729e-12 
3.800000000000e+02 4.999999997688e+03 1.999999999075e+05 1.949999999098e+05 9.816821218425e-01 1.831787815749e-02 1.093264668990e-04 -1.896861323497e-10 1.745485189315e-05 -7.831356965270e-12 
3.900000000000e+02 4.999999999716e+03 1.999999999886e+05 1.949999999889e+05 9.816992731411e-01 1.830072685894e-02 1.091212354299e-04 -7.936291073409e-11 1.742891398901e-05 -1.430221733333e-11 
4.000000000000e+02 4.999999999991e+03 1.999999999996e+05 1.949999999997e+05 9.817060277594e-01 1.829397224061e-02 1.090316388646e-04 -4.813305341523e-11 1.741881996049e-05 -1.153785605955e-11 
4.100000000000e+02 4.999999999997e+03 1.999999999999e+05 1.949999999999e+05 9.817071671687e-01 1.829283283126e-02 1.089352590877e-04 -3.531843824692e-11 1.741820646971e-05 -8.297860361246e-12 
4.200000000000e+02 5.000000001553e+03 2.000000000621e+05 1.950000000606e+05 9.817088265145e-01 1.829117348547e-02 1.090089770816e-04 -6.034957971048e-12 1.741444330519e-05 3.514007894448e-12 
4.300000000000e+02 5.000000001112e+03 2.000000000445e+05 1.950000000434e+05 9.817126600407e-01 1.828733995934e-02 1.088759827956e-04 8.293657440845e-11 1.740981647131e-05 -3.337992349168e-12 
4.400000000000e+02 5.000000001937e+03 2.000000000775e+05 1.950000000756e+05 9.817234561904e-01 1.827654380959e-02 1.088420433047e-04 8.332333785110e-11 1.739222525902e-05 8.271237040600e-12 
4.500000000000e+02 5.000000000217e+03 2.000000000087e+05 1.950000000085e+05 9.817425428497e-01 1.825745715035e-02 1.086001449897e-04 2.784097101267e-11 1.736357477994e-05 1.287393431119e-11 
4.600000000000e+02 4.999999999869e+03 1.999999999948e+05 1.949999999949e+05 9.817722801758e-01 1.822771982420e-02 1.082417070075e-04 4.828152402695e-11 1.731871629711e-05 3.219350695868e-12 
4.700000000000e+02 5.000000000028e+03 2.000000000011e+05 1.950000000011e+05 9.818146653670e-01 1.818533463300e-02 1.077364191183e-04 2.023170968824e-11 1.725476235389e-05 4.625288094936e-12 
4.800000000000e+02 4.999999999938e+03 1.999999999975e+05 1.949999999976e+05 9.818713679657e-01 1.812863203433e-02 1.070653448739e-04 6.213275685593e-11 1.716924932931e-05 -6.251526255446e-12 
4.900000000000e+02 5.000000000002e+03 2.000000000001e+05 1.950000000001e+05 9.819436068913e-01 1.805639310870e-02 1.062133040746e-04 3.389693889098e-11 1.706044934143e-05 -4.661594319490e-12 
5.000000000000e+02 4.999999997894e+03 1.999999999158e+05 1.949999999179e+05 9.820320349927e-01 1.796796500735e-02 1.051737256822e-04 -2.099311625038e-10 1.692750237893e-05 1.395968987243e-11 
5.100000000000e+02 5.000000000528e+03 2.000000000211e+05 1.950000000206e+05 9.821367206303e-01 1.786327936965e-02 1.039604688361e-04 2.676172939823e-11 1.677028297813e-05 -9.911212822985e-12 
5.200000000000e+02 5.000000000313e+03 2.000000000125e+05 1.950000000122e+05 9.822568159896e-01 1.774318401042e-02 1.025748811195e-04 3.031694787251e-11 1.659038416817e-05 -7.153275160247e-12 
5.300000000000e+02 5.000000000502e+03 2.000000000201e+05 1.950000000196e+05 9.823908042818e-01 1.760919571815e-02 1.010500554427e-04 4.906384320523e-11 1.639009543674e-05 -5.851918351320e-12 
5.400000000000e+02 5.000000000181e+03 2.000000000072e+05 1.950000000071e+05 9.825364029459e-01 1.746359705406e-02 9.941244791486e-05 1.880225200404e-11 1.617304543135e-05 -1.069678345268e-12 
5.500000000000e+02 4.999999999881e+03 1.999999999952e+05 1.949999999954e+05 9.826907008631e-01 1.730929913695e-02 9.769265831202e-05 -9.159859583061e-12 1.594379871212e-05 1.419008238185e-12 
5.600000000000e+02 4.999999999977e+03 1.999999999991e+05 1.949999999991e+05 9.828503957481e-01 1.714960425193e-02 9.592648246689e-05 -2.457878160831e-12 1.570742625360e-05 4.151911932932e-13 
5.700000000000e+02 4.999999999907e+03 1.999999999963e+05 1.949999999964e+05 9.830120574482e-01 1.698794255183e-02 9.415181859282e-05 -1.996628777818e-11 1.546909725791e-05 2.706188896366e-12 
5.800000000000e+02 5.000000000052e+03 2.000000000021e+05 1.950000000020e+05 9.831723457448e-01 1.682765425524e-02 9.240202870133e-05 8.849404120001e-12 1.523379868085e-05 -7.666857419204e-13 
5.900000000000e+02 4.999999999531e+03 1.999999999812e+05 1.949999999817e+05 9.833283300804e-01 1.667166991964e-02 9.071635853219e-05 -4.955858084405e-11 1.500570220677e-05 4.503183525635e-12 
6.000000000000e+02 5.000000001929e+03 2.000000000771e+05 1.950000000752e+05 9.834775071606e-01 1.652249283941e-02 8.911772198404e-05 1.438910001393e-10 1.478841752943e-05 -8.714078069478e-12 
6.100000000000e+02 4.999999999878e+03 1.999999999951e+05 1.949999999952e+05 9.836179596988e-01 1.638204030115e-02 8.762639041211e-05 -6.025184624249e-12 1.458460354207e-05 7.112120526909e-12 
6.200000000000e+02 5.000000000024e+03 2.000000000010e+05 1.950000000009e+05 9.837482567061e-01 1.625174329392e-02 8.624336441940e-05 1.629195238948e-11 1.439632878449e-05 2.946926056763e-12 
6.300000000000e+02 5.000000000074e+03 2.000000000029e+05 1.950000000029e+05 9.838676751245e-01 1.613232487551e-02 8.499124212546e-05 1.387354008047e-11 1.422428612681e-05 2.482791984000e-12 
6.400000000000e+02 4.999999999982e+03 1.999999999993e+05 1.949999999993e+05 9.839759164640e-01 1.602408353601e-02 8.386266475666e-05 8.842598716424e-12 1.406885068372e-05 2.005461246900e-12 
6.500000000000e+02 5.000000000102e+03 2.000000000041e+05 1.950000000040e+05 9.840730998428e-01 1.592690015723e-02 8.285483948062e-05 1.641076391633e-11 1.392970434061e-05 7.570627369153e-13 
6.600000000000e+02 5.000000000148e+03 2.000000000059e+05 1.950000000058e+05 9.841596732939e-01 1.584032670613e-02 8.196191447171e-05 2.336330089936e-11 1.380607336153e-05 -3.702819883651e-13 
6.700000000000e+02 5.000000001105e+03 2.000000000442e+05 1.950000000431e+05 9.842367369869e-01 1.576326301308e-02 8.123037167873e-05 9.455965148632e-11 1.369562151259e-05 -5.346098220507e-12 
6.800000000000e+02 4.999999999973e+03 1.999999999989e+05 1.949999999989e+05 9.843042328789e-01 1.569576712107e-02 8.048513538890e-05 3.620449638535e-11 1.360028054844e-05 -1.632279448252e-12 
6.900000000000e+02 5.000000000207e+03 2.000000000083e+05 1.950000000081e+05 9.843635300901e-01 1.563646990995e-02 7.987951748976e-05 1.701952618667e-11 1.351615707898e-05 7.562961854138e-13 
7.000000000000e+02 5.000000000474e+03 2.000000000190e+05 1.950000000185e+05 9.844155844074e-01 1.558441559259e-02 7.934966125877e-05 2.513072628895e-11 1.344243049295e-05 1.468189762741e-12 
7.100000000000e+02 5.000000000062e+03 2.000000000025e+05 1.950000000024e+05 9.844613577702e-01 1.553864222979e-02 7.888559173408e-05 4.980349562900e-12 1.337768957965e-05 3.323290272117e-12 
7.200000000000e+02 5.000000001129e+03 2.000000000451e+05 1.950000000440e+05 9.845017848563e-01 1.549821514366e-02 7.847723284440e-05 6.529530560574e-11 1.332057872335e-05 3.045558644244e-13 
7.300000000000e+02 4.999999994623e+03 1.999999997849e+05 1.949999997903e+05 9.845379765204e-01 1.546202347959e-02 7.814140965117e-05 -2.616991347843e-10 1.326920144324e-05 1.447200168006e-11 
7.400000000000e+02 4.999999997273e+03 1.999999998909e+05 1.949999998936e+05 9.845703130696e-01 1.542968693043e-02 7.778421217462e-05 -2.582012195090e-10 1.322396600836e-05 1.097581387125e-11 
7.500000000000e+02 4.999999999369e+03 1.999999999747e+05 1.949999999754e+05 9.845998708235e-01 1.540012917645e-02 7.748791018780e-05 -9.604792124171e-11 1.318233613155e-05 -3.613472340009e-12 
7.600000000000e+02 5.000000000963e+03 2.000000000385e+05 1.950000000376e+05 9.846274099738e-01 1.537259002622e-02 7.721175032044e-05 3.613665139461e-11 1.314358963095e-05 -1.139905732325e-11 
7.700000000000e+02 5.000000002683e+03 2.000000001073e+05 1.950000001046e+05 9.846536523777e-01 1.534634762226e-02 7.694819738448e-05 1.189611315288e-10 1.310670690472e-05 -8.763010095069e-12 
7.800000000000e+02 4.999999997803e+03 1.999999999121e+05 1.949999999143e+05 9.846792941349e-01 1.532070586509e-02 7.669033823277e-05 -1.495853608199e-10 1.307070894754e-05 1.495555757773e-11 
7.900000000000e+02 5.000000000098e+03 2.000000000039e+05 1.950000000038e+05 9.847049989209e-01 1.529500107908e-02 7.643349797308e-05 -3.493412049239e-11 1.303463364635e-05 5.167015030088e-12 
8.000000000000e+02 5.000000000066e+03 2.000000000026e+05 1.950000000026e+05 9.847313976515e-01 1.526860234849e-02 7.616993114125e-05 -2.638568600292e-11 1.299761806346e-05 6.158361479978e-12 
8.100000000000e+02 5.000000000016e+03 2.000000000007e+05 1.950000000006e+05 9.847590806204e-01 1.524091937960e-02 7.589406321767e-05 -6.126163850900e-12 1.295883380949e-05 4.651701428633e-12 
8.200000000000e+02 4.999999999909e+03 1.999999999963e+05 1.949999999964e+05 9.847885927280e-01 1.521140727205e-02 7.560058488352e-05 3.769935987970e-12 1.291752285652e-05 3.274780653496e-12 
8.300000000000e+02 4.999999999925e+03 1.999999999970e+05 1.949999999971e+05 9.848204208091e-01 1.517957919086e-02 7.528476184859e-05 9.211095241894e-12 1.287301192106e-05 2.150104444591e-12 
8.400000000000e+02 4.999999999994e+03 1.999999999998e+05 1.949999999998e+05 9.848549787507e-01 1.514502124925e-02 7.494247456212e-05 -8.143837607568e-13 1.282473474411e-05 3.447036999105e-12 
8.500000000000e+02 4.999999999187e+03 1.999999999675e+05 1.949999999683e+05 9.848925929528e-01 1.510740704722e-02 7.457042996337e-05 -8.586731704710e-11 1.277225193535e-05 1.247019438720e-11 
8.600000000000e+02 4.999999997644e+03 1.999999999057e+05 1.949999999081e+05 9.849334889424e-01 1.506651105756e-02 7.416659000079e-05 -2.269835668937e-10 1.271526512378e-05 2.622000842476e-11 
8.700000000000e+02 4.999999997553e+03 1.999999999021e+05 1.949999999046e+05 9.849777853382e-01 1.502221466176e-02 7.373087694352e-05 -2.676777614318e-10 1.265361752109e-05 3.096986662852e-11 
8.800000000000e+02 4.999999998790e+03 1.999999999516e+05 1.949999999528e+05 9.850254833373e-01 1.497451666270e-02 7.326367913862e-05 -1.932339128584e-10 1.258732693569e-05 2.650530421206e-11 
8.900000000000e+02 5.000000000573e+03 2.000000000229e+05 1.950000000223e+05 9.850764630482e-01 1.492353695184e-02 7.276620986610e-05 -6.449313444344e-11 1.251658513075e-05 1.904391843847e-11 
9.000000000000e+02 5.000000001342e+03 2.000000000537e+05 1.950000000524e+05 9.851304885510e-01 1.486951144899e-02 7.224062955572e-05 1.800879344162e-11 1.244174737039e-05 1.591122161038e-11 
9.100000000000e+02 5.000000000957e+03 2.000000000383e+05 1.950000000373e+05 9.851872203293e-01 1.481277967073e-02 7.169030126253e-05 3.909532470753e-11 1.236330820000e-05 1.587469350258e-11 
9.200000000000e+02 5.000000000132e+03 2.000000000053e+05 1.950000000052e+05 9.852462328320e-01 1.475376716802e-02 7.111948097472e-05 2.524839368452e-11 1.228187707624e-05 1.596536664605e-11 
9.300000000000e+02 4.999999999996e+03 1.999999999998e+05 1.949999999999e+05 9.853070340383e-01 1.469296596167e-02 7.053283248209e-05 2.914385064744e-11 1.219815290094e-05 1.353210918343e-11 
9.400000000000e+02 4.999999999428e+03 1.999999999771e+05 1.949999999777e+05 9.853690807256e-01 1.463091927442e-02 6.993390948706e-05 4.102800331128e-12 1.211291676231e-05 1.267229562195e-11 
9.500000000000e+02 5.000000001122e+03 2.000000000449e+05 1.950000000438e+05 9.854311079349e-01 1.456889206508e-02 6.922513607829e-05 8.080356271683e-11 1.202901460519e-05 6.449592404562e-12 
9.600000000000e+02 5.000000000006e+03 2.000000000002e+05 1.950000000002e+05 9.854942614044e-01 1.450573859561e-02 6.875681963083e-05 2.565675423797e-11 1.194125618864e-05 1.068344768283e-11 
9.700000000000e+02 4.999999999995e+03 1.999999999998e+05 1.949999999998e+05 9.855570332037e-01 1.444296679633e-02 6.815810308944e-05 3.234381966765e-11 1.185557686489e-05 8.290158783911e-12 
9.800000000000e+02 5.000000000023e+03 2.000000000009e+05 1.950000000009e+05 9.856189724115e-01 1.438102758853e-02 6.757206995794e-05 5.580134248873e-12 1.177119374459e-05 1.055697327303e-11 
9.900000000000e+02 4.999999999932e+03 1.999999999973e+05 1.949999999974e+05 9.856796674518e-01 1.432033254819e-02 6.700093318777e-05 -1.333948551633e-11 1.168867532499e-05 1.231513836907e-11 
1.000000000000e+03 5.000000000088e+03 2.000000000035e+05 1.950000000034e+05 9.857387645946e-01 1.426123540537e-02 6.644776807247e-05 2.039695414738e-11 1.160849205061e-05 8.115756774894e-12 
1.010000000000e+03 5.000000000107e+03 2.000000000043e+05 1.950000000042e+05 9.857959662749e-01 1.420403372507e-02 6.591402272562e-05 1.444940569191e-12 1.153104520552e-05 9.992534590504e-12 
1.020000000000e+03 4.999999999736e+03 1.999999999894e+05 1.949999999897e+05 9.858510432975e-01 1.414895670249e-02 6.540218475596e-05 -8.274169062390e-12 1.145662392890e-05 9.697369046467e-12 
1.030000000000e+03 5.000000000139e+03 2.000000000055e+05 1.950000000054e+05 9.859038280782e-01 1.409617192182e-02 6.491372541011e-05 2.445309100773e-11 1.138543572809e-05 5.749102743381e-12 
1.040000000000e+03 5.000000000351e+03 2.000000000140e+05 1.950000000137e+05 9.859542083209e-01 1.404579167909e-02 6.444897206942e-05 3.061204502317e-11 1.131761972933e-05 5.174699649390e-12 
1.050000000000e+03 5.000000000316e+03 2.000000000127e+05 1.950000000123e+05 9.860021249676e-01 1.399787503239e-02 6.400844477836e-05 2.960953908636e-11 1.125323599584e-05 5.209837131199e-12 
1.150000000000e+03 4.999999999265e+03 1.999999999706e+05 1.949999999713e+05 9.863116499420e-01 1.368835005799e-02 6.125507107573e-05 3.425597713465e-11 1.083957019500e-05 -7.932032882660e-12 
1.250000000000e+03 5.000000000003e+03 2.000000000001e+05 1.950000000001e+05 9.865432546680e-01 1.345674533198e-02 5.906089119266e-05 1.500553301437e-11 1.053482509400e-05 -6.224975190227e-12 
1.350000000000e+03 5.000000000083e+03 2.000000000033e+05 1.950000000032e+05 9.867791207741e-01 1.322087922587e-02 5.718234738185e-05 -1.079468280671e-12 1.022444551434e-05 -8.579642253674e-13 
1.450000000000e+03 4.999999999974e+03 1.999999999989e+05 1.949999999990e+05 9.870142833796e-01 1.298571662044e-02 5.491448219816e-05 -5.812843411461e-12 9.921750013676e-06 2.710931347713e-14 
1.550000000000e+03 5.000000000070e+03 2.000000000028e+05 1.950000000027e+05 9.872404695630e-01 1.275953043700e-02 5.296364025776e-05 8.907157801904e-12 9.631685646534e-06 -1.700737262303e-12 
1.650000000000e+03 5.000000000116e+03 2.000000000046e+05 1.950000000045e+05 9.874392353769e-01 1.256076462313e-02 5.120288421776e-05 -1.995352171326e-11 9.379730420438e-06 4.107180399774e-12 
1.750000000000e+03 4.999999999999e+03 2.000000000000e+05 1.950000000000e+05 9.876188395833e-01 1.238116041669e-02 4.988502085318e-05 5.482048159529e-11 9.151906015348e-06 -1.382014257486e-11 
1.850000000000e+03 5.000000000000e+03 2.000000000000e+05 1.950000000000e+05 9.877844974647e-01 1.221550253531e-02 4.854696765094e-05 -1.138497121402e-11 8.944588247717e-06 -3.158463482213e-12 
1.925000000000e+03 4.999999999987e+03 1.999999999995e+05 1.949999999995e+05 9.879095199576e-01 1.209048004237e-02 4.763559080244e-05 -1.756003096359e-11 8.788498691990e-06 3.561411370816e-13 
2.000000000000e+03 5.000000000006e+03 2.000000000002e+05 1.950000000002e+05 9.880321723580e-01 1.196782764201e-02 4.652805562844e-05 -1.136709950273e-12 8.638025650386e-06 -5.313218141449e-13 
2.100000000000e+03 4.999999999999e+03 2.000000000000e+05 1.950000000000e+05 9.881979746526e-01 1.180202534742e-02 4.532656757804e-05 1.086270727998e-11 8.433850459106e-06 -3.110464440318e-12 
2.200000000000e+03 5.000000000000e+03 2.000000000000e+05 1.950000000000e+05 9.883509262503e-01 1.164907374967e-02 4.402354258936e-05 -2.066689034946e-12 8.248585574407e-06 -9.483540800650e-13 
2.300000000000e+03 5.000000000000e+03 2.000000000000e+05 1.950000000000e+05 9.884955238990e-01 1.150447610096e-02 4.306928308546e-05 7.617384714373e-13 8.072774359135e-06 -9.351571451744e-13 
2.400000000000e+03 5.000000000000e+03 2.000000000000e+05 1.950000000000e+05 9.886243375003e-01 1.137566249968e-02 4.202542737018e-05 3.700067951657e-11 7.918778216589e-06 -9.483350336499e-12 
2.500000000000e+03 5.000000000000e+03 2.000000000000e+05 1.950000000000e+05 9.887400399813e-01 1.125996001867e-02 4.097766624274e-05 -7.514911780985e-11 7.782192322032e-06 1.105159645107e-11 
2.600000000000e+03 5.000000000000e+03 2.000000000000e+05 1.950000000000e+05 9.888596996028e-01 1.114030039720e-02 4.030649700321e-05 4.597736334105e-12 7.638921499090e-06 1.459872070602e-12 
2.700000000000e+03 5.000000000000e+03 2.000000000000e+05 1.950000000000e+05 9.889760346279e-01 1.102396537211e-02 3.942799318315e-05 -9.374997305007e-13 7.502200349523e-06 6.789441216178e-13 
2.800000000000e+03 5.000000000000e+03 2.000000000000e+05 1.950000000000e+05 9.890890850749e-01 1.091091492505e-02 3.859076641429e-05 6.266564615108e-12 7.370117650301e-06 -1.218886882168e-12 
2.900000000000e+03 4.999999999999e+03 1.999999999999e+05 1.949999999999e+05 9.891944508390e-01 1.080554916098e-02 3.771795760069e-05 -2.516763994062e-12 7.248445793920e-06 1.542440941960e-13 
3.000000000000e+03 5.000000000000e+03 2.000000000000e+05 1.950000000000e+05 9.892957460928e-01 1.070425390721e-02 3.704935549244e-05 -3.707874794639e-11 7.131039294251e-06 6.542862132823e-12 
3.100000000000e+03 5.000000000000e+03 2.000000000000e+05 1.950000000000e+05 9.893937716323e-01 1.060622836772e-02 3.648356154037e-05 2.992616219350e-12 7.017580296103e-06 1.332952174520e-12 
3.200000000000e+03 5.000000000004e+03 2.000000000001e+05 1.950000000001e+05 9.894852568097e-01 1.051474319035e-02 3.582789365046e-05 -9.445478763347e-12 6.913170193056e-06 2.335958987699e-12 
3.300000000000e+03 5.000000000000e+03 2.000000000000e+05 1.950000000000e+05 9.895730101959e-01 1.042698980410e-02 3.521658098674e-05 1.287566571039e-11 6.813466343298e-06 -1.355691130070e-12 
3.400000000000e+03 5.000000000004e+03 2.000000000001e+05 1.950000000001e+05 9.896603602046e-01 1.033963979536e-02 3.468420266986e-05 3.436146445472e-12 6.714281129070e-06 -8.103363035504e-13 
3.500000000000e+03 5.000000000000e+03 2.000000000000e+05 1.950000000000e+05 9.897428062134e-01 1.025719378658e-02 3.400738264085e-05 5.804399751010e-12 6.622296291800e-06 -1.395160774927e-12 
3.600000000000e+03 5.000000000000e+03 2.000000000000e+05 1.950000000000e+05 9.898234025018e-01 1.017659749823e-02 3.344896824969e-05 3.867095432120e-12 6.532187726858e-06 -1.158252809121e-12 
3.700000000000e+03 5.000000000005e+03 2.000000000002e+05 1.950000000002e+05 9.899045993700e-01 1.009540062997e-02 3.303500907409e-05 4.660112417678e-12 6.440958568744e-06 -1.344113213100e-12 
3.800000000000e+03 4.999999999997e+03 1.999999999999e+05 1.949999999999e+05 9.899780813134e-01 1.002191868662e-02 3.239572152061e-05 -1.362249643592e-12 6.360473992645e-06 -3.904152700480e-13 
3.900000000000e+03 5.000000000003e+03 2.000000000001e+05 1.950000000001e+05 9.900458408978e-01 9.954159102247e-03 3.182792853969e-05 1.327256267028e-11 6.286463695583e-06 -2.725281625235e-12 
4.000000000000e+03 4.999999999997e+03 1.999999999999e+05 1.949999999999e+05 9.901117507998e-01 9.888249200177e-03 3.139590868491e-05 -4.598338463083e-12 6.214057422006e-06 -2.991376682730e-13 
4.100000000000e+03 5.000000000005e+03 2.000000000002e+05 1.950000000002e+05 9.901831752507e-01 9.816824749297e-03 3.123903437266e-05 7.126481336925e-12 6.134082342726e-06 -1.380097725491e-12 
4.200000000000e+03 4.999999999986e+03 1.999999999994e+05 1.949999999994e+05 9.902473916002e-01 9.752608399769e-03 3.064077104650e-05 2.300897999571e-11 6.065273563570e-06 -6.020466642931e-12 
4.300000000000e+03 5.000000000000e+03 2.000000000000e+05 1.950000000000e+05 9.903140599051e-01 9.685940094865e-03 3.036315098189e-05 -5.682322595086e-12 5.992110960060e-06 -2.663913055988e-12 
4.400000000000e+03 4.999999999998e+03 1.999999999999e+05 1.949999999999e+05 9.903793816126e-01 9.620618387435e-03 2.997665062560e-05 -3.294762920539e-12 5.921443224023e-06 -1.881837116783e-12 
4.500000000000e+03 5.000000000000e+03 2.000000000000e+05 1.950000000000e+05 9.904426265285e-01 9.557373471538e-03 2.958118416193e-05 -2.815800660250e-11 5.853460277288e-06 3.814510135016e-12 
4.600000000000e+03 5.000000000000e+03 2.000000000000e+05 1.950000000000e+05 9.905000656301e-01 9.499934369880e-03 2.906023469913e-05 -1.923550444155e-11 5.792920601557e-06 4.748521723135e-12 
4.700000000000e+03 5.000000000187e+03 2.000000000075e+05 1.950000000073e+05 9.905589644980e-01 9.441035502041e-03 2.882675843921e-05 2.813856574295e-12 5.729366699688e-06 3.858388265280e-12 
4.800000000000e+03 4.999999999951e+03 1.999999999980e+05 1.949999999981e+05 9.906148856876e-01 9.385114312369e-03 2.845521128643e-05 1.061553163913e-11 5.670139596319e-06 7.322677462320e-13 
4.900000000000e+03 5.000000000000e+03 2.000000000000e+05 1.950000000000e+05 9.906682698834e-01 9.331730116643e-03 2.809665941472e-05 -2.513328983984e-11 5.613846249163e-06 5.147573003390e-12 
5.000000000000e+03 5.000000000594e+03 2.000000000238e+05 1.950000000232e+05 9.907194696357e-01 9.280530364277e-03 2.774337152441e-05 3.737070512819e-11 5.560115810646e-06 9.430849184042e-13 
5.100000000000e+03 4.999999999958e+03 1.999999999983e+05 1.949999999984e+05 9.907707861211e-01 9.229213878927e-03 2.747618246108e-05 7.639303483398e-13 5.505982589318e-06 1.559076092297e-12 
5.200000000000e+03 5.000000000061e+03 2.000000000024e+05 1.950000000024e+05 9.908219538894e-01 9.178046110622e-03 2.720647251612e-05 6.300882521987e-12 5.452234241124e-06 5.207153022246e-13 
5.300000000000e+03 5.000000000383e+03 2.000000000153e+05 1.950000000149e+05 9.908661003917e-01 9.133899608258e-03 2.665395385716e-05 3.223589809439e-11 5.407786758784e-06 -2.025411321197e-13 
5.400000000000e+03 4.999999999580e+03 1.999999999832e+05 1.949999999836e+05 9.909140810561e-01 9.085918943879e-03 2.653567033506e-05 -2.547046499020e-11 5.357001419822e-06 1.181765930861e-12 