VARIABLES  = "X","Y","Z", "PRESSURE1", "PRESSURE2", "PRESSURE_W", "SATURATION1", SATURATION2, "VELOCITY_X1", "VELOCITY_Y1", "VELOCITY_X2", "VELOCITY_Y2"
ZONE T="0.000000000000e+00s", N=67, E=51, F=FEPOINT, ET=QUADRILATERAL
STRANDID=1, SOLUTIONTIME=0.000000000000e+00
1.434482758620e+00 0.000000000000e+00 0.000000000000e+00 5.000000000000e+04 0.000000000000e+00 -5.000000000000e+04 1.000000000000e-02 9.900000000000e-01 0.000000000000e+00 0.000000000000e+00 0.000000000000e+00 0.000000000000e+00 
1.524137931034e+00 0.000000000000e+00 0.000000000000e+00 5.000000000000e+04 0.000000000000e+00 -5.000000000000e+04 1.000000000000e-02 9.900000000000e-01 0.000000000000e+00 0.000000000000e+00 0.000000000000e+00 0.000000000000e+00 
1.613793103448e+00 0.000000000000e+00 0.000000000000e+00 5.000000000000e+04 0.000000000000e+00 -5.000000000000e+04 1.000000000000e-02 9.900000000000e-01 0.000000000000e+00 0.000000000000e+00 0.000000000000e+00 0.000000000000e+00 
1.703448275862e+00 0.000000000000e+00 0.000000000000e+00 5.000000000000e+04 0.000000000000e+00 -5.000000000000e+04 1.000000000000e-02 9.900000000000e-01 0.000000000000e+00 0.000000000000e+00 0.000000000000e+00 0.000000000000e+00 
1.793103448276e+00 0.000000000000e+00 0.000000000000e+00 5.000000000000e+04 0.000000000000e+00 -5.000000000000e+04 1.000000000000e-02 9.900000000000e-01 0.000000000000e+00 0.000000000000e+00 0.000000000000e+00 0.000000000000e+00 
1.882758620690e+00 0.000000000000e+00 0.000000000000e+00 5.000000000000e+04 0.000000000000e+00 -5.000000000000e+04 1.000000000000e-02 9.900000000000e-01 0.000000000000e+00 0.000000000000e+00 0.000000000000e+00 0.000000000000e+00 
1.972413793104e+00 0.000000000000e+00 0.000000000000e+00 5.000000000000e+04 0.000000000000e+00 -5.000000000000e+04 1.000000000000e-02 9.900000000000e-01 0.000000000000e+00 0.000000000000e+00 0.000000000000e+00 0.000000000000e+00 
1.882758620691e+00 5.000000000000e-01 0.000000000000e+00 5.000000000000e+04 0.000000000000e+00 -5.000000000000e+04 1.000000000000e-02 9.900000000000e-01 0.000000000000e+00 0.000000000000e+00 0.000000000000e+00 0.000000000000e+00 
1.793103448277e+00 5.000000000000e-01 0.000000000000e+00 5.000000000000e+04 0.000000000000e+00 -5.000000000000e+04 1.000000000000e-02 9.900000000000e-01 0.000000000000e+00 0.000000000000e+00 0.000000000000e+00 0.000000000000e+00 
1.703448275863e+00 5.000000000000e-01 0.000000000000e+00 5.000000000000e+04 0.000000000000e+00 -5.000000000000e+04 1.000000000000e-02 9.900000000000e-01 0.000000000000e+00 0.000000000000e+00 0.000000000000e+00 0.000000000000e+00 
1.613793103450e+00 5.000000000000e-01 0.000000000000e+00 5.000000000000e+04 0.000000000000e+00 -5.000000000000e+04 1.000000000000e-02 9.900000000000e-01 0.000000000000e+00 0.000000000000e+00 0.000000000000e+00 0.000000000000e+00 
1.524137931036e+00 5.000000000000e-01 0.000000000000e+00 5.000000000000e+04 0.000000000000e+00 -5.000000000000e+04 1.000000000000e-02 9.900000000000e-01 0.000000000000e+00 0.000000000000e+00 0.000000000000e+00 0.000000000000e+00 
1.434482758622e+00 5.000000000000e-01 0.000000000000e+00 5.000000000000e+04 0.000000000000e+00 -5.000000000000e+04 1.000000000000e-02 9.900000000000e-01 0.000000000000e+00 0.000000000000e+00 0.000000000000e+00 0.000000000000e+00 
1.344827586208e+00 5.000000000000e-01 0.000000000000e+00 5.000000000000e+04 0.000000000000e+00 -5.000000000000e+04 1.000000000000e-02 9.900000000000e-01 0.000000000000e+00 0.000000000000e+00 0.000000000000e+00 0.000000000000e+00 
1.344827586208e+00 4.166666666666e-01 0.000000000000e+00 5.000000000000e+04 0.000000000000e+00 -5.000000000000e+04 1.000000000000e-02 9.900000000000e-01 0.000000000000e+00 0.000000000000e+00 0.000000000000e+00 0.000000000000e+00 
1.434482758622e+00 4.166666666666e-01 0.000000000000e+00 5.000000000000e+04 0.000000000000e+00 -5.000000000000e+04 1.000000000000e-02 9.900000000000e-01 0.000000000000e+00 0.000000000000e+00 0.000000000000e+00 0.000000000000e+00 
1.524137931036e+00 4.166666666666e-01 0.000000000000e+00 5.000000000000e+04 0.000000000000e+00 -5.000000000000e+04 1.000000000000e-02 9.900000000000e-01 0.000000000000e+00 0.000000000000e+00 0.000000000000e+00 0.000000000000e+00 
1.613793103449e+00 4.166666666666e-01 0.000000000000e+00 5.000000000000e+04 0.000000000000e+00 -5.000000000000e+04 1.000000000000e-02 9.900000000000e-01 0.000000000000e+00 0.000000000000e+00 0.000000000000e+00 0.000000000000e+00 
1.703448275863e+00 4.166666666666e-01 0.000000000000e+00 5.000000000000e+04 0.000000000000e+00 -5.000000000000e+04 1.000000000000e-02 9.900000000000e-01 0.000000000000e+00 0.000000000000e+00 0.000000000000e+00 0.000000000000e+00 
1.793103448277e+00 4.166666666666e-01 0.000000000000e+00 5.000000000000e+04 0.000000000000e+00 -5.000000000000e+04 1.000000000000e-02 9.900000000000e-01 0.000000000000e+00 0.000000000000e+00 0.000000000000e+00 0.000000000000e+00 
1.882758620691e+00 4.166666666665e-01 0.000000000000e+00 5.000000000000e+04 0.000000000000e+00 -5.000000000000e+04 1.000000000000e-02 9.900000000000e-01 0.000000000000e+00 0.000000000000e+00 0.000000000000e+00 0.000000000000e+00 
1.344827586208e+00 3.333333333333e-01 0.000000000000e+00 5.000000000000e+04 0.000000000000e+00 -5.000000000000e+04 1.000000000000e-02 9.900000000000e-01 0.000000000000e+00 0.000000000000e+00 0.000000000000e+00 0.000000000000e+00 
1.434482758621e+00 3.333333333333e-01 0.000000000000e+00 5.000000000000e+04 0.000000000000e+00 -5.000000000000e+04 1.000000000000e-02 9.900000000000e-01 0.000000000000e+00 0.000000000000e+00 0.000000000000e+00 0.000000000000e+00 
1.524137931035e+00 3.333333333333e-01 0.000000000000e+00 5.000000000000e+04 0.000000000000e+00 -5.000000000000e+04 1.000000000000e-02 9.900000000000e-01 0.000000000000e+00 0.000000000000e+00 0.000000000000e+00 0.000000000000e+00 
1.613793103449e+00 3.333333333332e-01 0.000000000000e+00 5.000000000000e+04 0.000000000000e+00 -5.000000000000e+04 1.000000000000e-02 9.900000000000e-01 0.000000000000e+00 0.000000000000e+00 0.000000000000e+00 0.000000000000e+00 
1.703448275863e+00 3.333333333332e-01 0.000000000000e+00 5.000000000000e+04 0.000000000000e+00 -5.000000000000e+04 1.000000000000e-02 9.900000000000e-01 0.000000000000e+00 0.000000000000e+00 0.000000000000e+00 0.000000000000e+00 
1.793103448277e+00 3.333333333332e-01 0.000000000000e+00 5.000000000000e+04 0.000000000000e+00 -5.000000000000e+04 1.000000000000e-02 9.900000000000e-01 0.000000000000e+00 0.000000000000e+00 0.000000000000e+00 0.000000000000e+00 
1.882758620691e+00 3.333333333332e-01 0.000000000000e+00 5.000000000000e+04 0.000000000000e+00 -5.000000000000e+04 1.000000000000e-02 9.900000000000e-01 0.000000000000e+00 0.000000000000e+00 0.000000000000e+00 0.000000000000e+00 
1.972413793104e+00 3.333333333331e-01 0.000000000000e+00 5.000000000000e+04 0.000000000000e+00 -5.000000000000e+04 1.000000000000e-02 9.900000000000e-01 0.000000000000e+00 0.000000000000e+00 0.000000000000e+00 0.000000000000e+00 
1.344827586207e+00 2.500000000001e-01 0.000000000000e+00 5.000000000000e+04 0.000000000000e+00 -5.000000000000e+04 1.000000000000e-02 9.900000000000e-01 0.000000000000e+00 0.000000000000e+00 0.000000000000e+00 0.000000000000e+00 
1.434482758621e+00 2.500000000000e-01 0.000000000000e+00 5.000000000000e+04 0.000000000000e+00 -5.000000000000e+04 1.000000000000e-02 9.900000000000e-01 0.000000000000e+00 0.000000000000e+00 0.000000000000e+00 0.000000000000e+00 
1.524137931035e+00 2.500000000000e-01 0.000000000000e+00 5.000000000000e+04 0.000000000000e+00 -5.000000000000e+04 1.000000000000e-02 9.900000000000e-01 0.000000000000e+00 0.000000000000e+00 0.000000000000e+00 0.000000000000e+00 
1.613793103449e+00 2.500000000000e-01 0.000000000000e+00 5.000000000000e+04 0.000000000000e+00 -5.000000000000e+04 1.000000000000e-02 9.900000000000e-01 0.000000000000e+00 0.000000000000e+00 0.000000000000e+00 0.000000000000e+00 
1.703448275863e+00 2.499999999999e-01 0.000000000000e+00 5.000000000000e+04 0.000000000000e+00 -5.000000000000e+04 1.000000000000e-02 9.900000000000e-01 0.000000000000e+00 0.000000000000e+00 0.000000000000e+00 0.000000000000e+00 
1.793103448277e+00 2.499999999999e-01 0.000000000000e+00 5.000000000000e+04 0.000000000000e+00 -5.000000000000e+04 1.000000000000e-02 9.900000000000e-01 0.000000000000e+00 0.000000000000e+00 0.000000000000e+00 0.000000000000e+00 
1.882758620690e+00 2.499999999998e-01 0.000000000000e+00 5.000000000000e+04 0.000000000000e+00 -5.000000000000e+04 1.000000000000e-02 9.900000000000e-01 0.000000000000e+00 0.000000000000e+00 0.000000000000e+00 0.000000000000e+00 
1.972413793104e+00 2.499999999998e-01 0.000000000000e+00 5.000000000000e+04 0.000000000000e+00 -5.000000000000e+04 1.000000000000e-02 9.900000000000e-01 0.000000000000e+00 0.000000000000e+00 0.000000000000e+00 0.000000000000e+00 
1.434482758621e+00 1.666666666667e-01 0.000000000000e+00 5.000000000000e+04 0.000000000000e+00 -5.000000000000e+04 1.000000000000e-02 9.900000000000e-01 0.000000000000e+00 0.000000000000e+00 0.000000000000e+00 0.000000000000e+00 
1.524137931035e+00 1.666666666667e-01 0.000000000000e+00 5.000000000000e+04 0.000000000000e+00 -5.000000000000e+04 1.000000000000e-02 9.900000000000e-01 0.000000000000e+00 0.000000000000e+00 0.000000000000e+00 0.000000000000e+00 
1.613793103449e+00 1.666666666667e-01 0.000000000000e+00 5.000000000000e+04 0.000000000000e+00 -5.000000000000e+04 1.000000000000e-02 9.900000000000e-01 0.000000000000e+00 0.000000000000e+00 0.000000000000e+00 0.000000000000e+00 
1.703448275862e+00 1.666666666666e-01 0.000000000000e+00 5.000000000000e+04 0.000000000000e+00 -5.000000000000e+04 1.000000000000e-02 9.900000000000e-01 0.000000000000e+00 0.000000000000e+00 0.000000000000e+00 0.000000000000e+00 
1.793103448276e+00 1.666666666666e-01 0.000000000000e+00 5.000000000000e+04 0.000000000000e+00 -5.000000000000e+04 1.000000000000e-02 9.900000000000e-01 0.000000000000e+00 0.000000000000e+00 0.000000000000e+00 0.000000000000e+00 
1.882758620690e+00 1.666666666666e-01 0.000000000000e+00 5.000000000000e+04 0.000000000000e+00 -5.000000000000e+04 1.000000000000e-02 9.900000000000e-01 0.000000000000e+00 0.000000000000e+00 0.000000000000e+00 0.000000000000e+00 
1.972413793104e+00 1.666666666665e-01 0.000000000000e+00 5.000000000000e+04 0.000000000000e+00 -5.000000000000e+04 1.000000000000e-02 9.900000000000e-01 0.000000000000e+00 0.000000000000e+00 0.000000000000e+00 0.000000000000e+00 
1.434482758620e+00 8.333333333338e-02 0.000000000000e+00 5.000000000000e+04 0.000000000000e+00 -5.000000000000e+04 1.000000000000e-02 9.900000000000e-01 0.000000000000e+00 0.000000000000e+00 0.000000000000e+00 0.000000000000e+00 
1.524137931034e+00 8.333333333336e-02 0.000000000000e+00 5.000000000000e+04 0.000000000000e+00 -5.000000000000e+04 1.000000000000e-02 9.900000000000e-01 0.000000000000e+00 0.000000000000e+00 0.000000000000e+00 0.000000000000e+00 
1.613793103448e+00 8.333333333334e-02 0.000000000000e+00 5.000000000000e+04 0.000000000000e+00 -5.000000000000e+04 1.000000000000e-02 9.900000000000e-01 0.000000000000e+00 0.000000000000e+00 0.000000000000e+00 0.000000000000e+00 
1.703448275862e+00 8.333333333332e-02 0.000000000000e+00 5.000000000000e+04 0.000000000000e+00 -5.000000000000e+04 1.000000000000e-02 9.900000000000e-01 0.000000000000e+00 0.000000000000e+00 0.000000000000e+00 0.000000000000e+00 
1.793103448276e+00 8.333333333330e-02 0.000000000000e+00 5.000000000000e+04 0.000000000000e+00 -5.000000000000e+04 1.000000000000e-02 9.900000000000e-01 0.000000000000e+00 0.000000000000e+00 0.000000000000e+00 0.000000000000e+00 
1.882758620690e+00 8.333333333328e-02 0.000000000000e+00 5.000000000000e+04 0.000000000000e+00 -5.000000000000e+04 1.000000000000e-02 9.900000000000e-01 0.000000000000e+00 0.000000000000e+00 0.000000000000e+00 0.000000000000e+00 
1.972413793104e+00 8.333333333327e-02 0.000000000000e+00 5.000000000000e+04 0.000000000000e+00 -5.000000000000e+04 1.000000000000e-02 9.900000000000e-01 0.000000000000e+00 0.000000000000e+00 0.000000000000e+00 0.000000000000e+00 
1.344827586206e+00 8.333333333340e-02 0.000000000000e+00 5.000000000000e+04 0.000000000000e+00 -5.000000000000e+04 1.000000000000e-02 9.900000000000e-01 0.000000000000e+00 0.000000000000e+00 0.000000000000e+00 0.000000000000e+00 
1.344827586206e+00 0.000000000000e+00 0.000000000000e+00 5.000000000000e+04 0.000000000000e+00 -5.000000000000e+04 1.000000000000e-02 9.900000000000e-01 0.000000000000e+00 0.000000000000e+00 0.000000000000e+00 0.000000000000e+00 
2.062068965517e+00 0.000000000000e+00 0.000000000000e+00 5.000000000000e+04 0.000000000000e+00 -5.000000000000e+04 1.000000000000e-02 9.900000000000e-01 0.000000000000e+00 0.000000000000e+00 0.000000000000e+00 0.000000000000e+00 
2.062068965518e+00 8.333333333325e-02 0.000000000000e+00 5.000000000000e+04 0.000000000000e+00 -5.000000000000e+04 1.000000000000e-02 9.900000000000e-01 0.000000000000e+00 0.000000000000e+00 0.000000000000e+00 0.000000000000e+00 
1.972413793105e+00 4.166666666665e-01 0.000000000000e+00 5.000000000000e+04 0.000000000000e+00 -5.000000000000e+04 1.000000000000e-02 9.900000000000e-01 0.000000000000e+00 0.000000000000e+00 0.000000000000e+00 0.000000000000e+00 
1.972413793105e+00 5.000000000000e-01 0.000000000000e+00 5.000000000000e+04 0.000000000000e+00 -5.000000000000e+04 1.000000000000e-02 9.900000000000e-01 0.000000000000e+00 0.000000000000e+00 0.000000000000e+00 0.000000000000e+00 
1.255172413794e+00 5.000000000000e-01 0.000000000000e+00 5.000000000000e+04 0.000000000000e+00 -5.000000000000e+04 1.000000000000e-02 9.900000000000e-01 0.000000000000e+00 0.000000000000e+00 0.000000000000e+00 0.000000000000e+00 
1.255172413794e+00 4.166666666666e-01 0.000000000000e+00 5.000000000000e+04 0.000000000000e+00 -5.000000000000e+04 1.000000000000e-02 9.900000000000e-01 0.000000000000e+00 0.000000000000e+00 0.000000000000e+00 0.000000000000e+00 
1.255172413794e+00 3.333333333333e-01 0.000000000000e+00 5.000000000000e+04 0.000000000000e+00 -5.000000000000e+04 1.000000000000e-02 9.900000000000e-01 0.000000000000e+00 0.000000000000e+00 0.000000000000e+00 0.000000000000e+00 
1.255172413793e+00 2.500000000001e-01 0.000000000000e+00 5.000000000000e+04 0.000000000000e+00 -5.000000000000e+04 1.000000000000e-02 9.900000000000e-01 0.000000000000e+00 0.000000000000e+00 0.000000000000e+00 0.000000000000e+00 
2.062068965518e+00 3.333333333331e-01 0.000000000000e+00 5.000000000000e+04 0.000000000000e+00 -5.000000000000e+04 1.000000000000e-02 9.900000000000e-01 0.000000000000e+00 0.000000000000e+00 0.000000000000e+00 0.000000000000e+00 
2.062068965518e+00 4.166666666665e-01 0.000000000000e+00 5.000000000000e+04 0.000000000000e+00 -5.000000000000e+04 1.000000000000e-02 9.900000000000e-01 0.000000000000e+00 0.000000000000e+00 0.000000000000e+00 0.000000000000e+00 
2.062068965518e+00 2.499999999998e-01 0.000000000000e+00 5.000000000000e+04 0.000000000000e+00 -5.000000000000e+04 1.000000000000e-02 9.900000000000e-01 0.000000000000e+00 0.000000000000e+00 0.000000000000e+00 0.000000000000e+00 
1.255172413793e+00 1.666666666668e-01 0.000000000000e+00 5.000000000000e+04 0.000000000000e+00 -5.000000000000e+04 1.000000000000e-02 9.900000000000e-01 0.000000000000e+00 0.000000000000e+00 0.000000000000e+00 0.000000000000e+00 
1.344827586207e+00 1.666666666668e-01 0.000000000000e+00 5.000000000000e+04 0.000000000000e+00 -5.000000000000e+04 1.000000000000e-02 9.900000000000e-01 0.000000000000e+00 0.000000000000e+00 0.000000000000e+00 0.000000000000e+00 
2.062068965518e+00 1.666666666665e-01 0.000000000000e+00 5.000000000000e+04 0.000000000000e+00 -5.000000000000e+04 1.000000000000e-02 9.900000000000e-01 0.000000000000e+00 0.000000000000e+00 0.000000000000e+00 0.000000000000e+00 
45  1  2  46  
46  2  3  47  
47  3  4  48  
48  4  5  49  
49  5  6  50  
50  6  7  51  
9  20  21  8  
10  19  20  9  
11  18  19  10  
12  17  18  11  
13  16  17  12  
14  15  16  13  
15  22  23  16  
16  23  24  17  
17  24  25  18  
18  25  26  19  
19  26  27  20  
20  27  28  21  
22  30  31  23  
23  31  32  24  
24  32  33  25  
25  33  34  26  
26  34  35  27  
27  35  36  28  
28  36  37  29  
31  38  39  32  
32  39  40  33  
33  40  41  34  
34  41  42  35  
35  42  43  36  
36  43  44  37  
38  45  46  39  
39  46  47  40  
40  47  48  41  
41  48  49  42  
42  49  50  43  
43  50  51  44  
52  53  1  45  
51  7  54  55  
8  21  56  57  
58  59  15  14  
59  60  22  15  
21  28  29  56  
60  61  30  22  
56  29  62  63  
29  37  64  62  
61  65  66  30  
30  66  38  31  
37  44  67  64  
66  52  45  38  
44  51  55  67  
VARIABLES  = "X","Y","Z", "PRESSURE1", "PRESSURE2", "PRESSURE_W", "SATURATION1", SATURATION2, "VELOCITY_X1", "VELOCITY_Y1", "VELOCITY_X2", "VELOCITY_Y2"
ZONE T="5.000000000000e+02s", N=67, E=51, F=FEPOINT, ET=QUADRILATERAL
STRANDID=1, SOLUTIONTIME=5.000000000000e+02
1.434482758620e+00 0.000000000000e+00 0.000000000000e+00 4.999999986783e+04 2.017402468839e+05 1.517402470161e+05 1.000000005287e-02 9.899999999471e-01 5.356084266964e-16 7.819578331568e-18 5.248992288898e-08 7.663203208950e-10 
1.524137931034e+00 0.000000000000e+00 0.000000000000e+00 4.999999986748e+04 2.017402009606e+05 1.517402010931e+05 1.000000005301e-02 9.899999999470e-01 5.030107354505e-16 7.837971693997e-18 4.929534287990e-08 7.681228756152e-10 
1.613793103448e+00 0.000000000000e+00 0.000000000000e+00 4.999999986748e+04 2.017401566886e+05 1.517401568211e+05 1.000000005301e-02 9.899999999470e-01 4.806557853591e-16 1.175540082959e-17 4.710436164658e-08 1.152031456686e-09 
1.703448275862e+00 0.000000000000e+00 0.000000000000e+00 4.999999986748e+04 2.017401147740e+05 1.517401149065e+05 1.000000005301e-02 9.899999999470e-01 4.481673602840e-16 1.544674541851e-17 4.392048966808e-08 1.513783971950e-09 
1.793103448276e+00 0.000000000000e+00 0.000000000000e+00 4.999999986748e+04 2.017400763275e+05 1.517400764600e+05 1.000000005301e-02 9.899999999470e-01 4.050555909582e-16 1.949076299437e-17 3.969552771319e-08 1.910097859309e-09 
1.882758620690e+00 0.000000000000e+00 0.000000000000e+00 4.999999986748e+04 2.017400421434e+05 1.517400422759e+05 1.000000005301e-02 9.899999999470e-01 3.580591898694e-16 1.908460682516e-17 3.508967909285e-08 1.870295098962e-09 
1.972413793104e+00 0.000000000000e+00 0.000000000000e+00 4.999999986783e+04 2.017400121241e+05 1.517400122563e+05 1.000000005287e-02 9.899999999471e-01 2.772435272871e-16 8.480162150265e-18 2.716972846786e-08 8.310575252202e-10 
1.882758620691e+00 5.000000000000e-01 0.000000000000e+00 4.999999986783e+04 2.017400389555e+05 1.517400390877e+05 1.000000005287e-02 9.899999999471e-01 3.443182781591e-16 -1.090209858078e-18 3.374306700093e-08 -1.069891246183e-10 
1.793103448277e+00 5.000000000000e-01 0.000000000000e+00 4.999999986748e+04 2.017400739414e+05 1.517400740739e+05 1.000000005301e-02 9.899999999470e-01 4.039225443391e-16 -1.078102248035e-17 3.958429685036e-08 -1.056541986916e-09 
1.703448275863e+00 5.000000000000e-01 0.000000000000e+00 4.999999986748e+04 2.017401113827e+05 1.517401115152e+05 1.000000005301e-02 9.899999999470e-01 4.347017193333e-16 -8.925729793695e-18 4.260085425375e-08 -8.747227157767e-10 
1.613793103450e+00 5.000000000000e-01 0.000000000000e+00 4.999999986748e+04 2.017401518879e+05 1.517401520205e+05 1.000000005301e-02 9.899999999470e-01 4.655725681675e-16 -6.884768208579e-18 4.562620321182e-08 -6.747084363860e-10 
1.524137931036e+00 5.000000000000e-01 0.000000000000e+00 4.999999986748e+04 2.017401948646e+05 1.517401949971e+05 1.000000005301e-02 9.899999999470e-01 4.895639999973e-16 -4.560240477702e-18 4.797736841607e-08 -4.469037245344e-10 
1.434482758622e+00 5.000000000000e-01 0.000000000000e+00 4.999999986748e+04 2.017402396718e+05 1.517402398043e+05 1.000000005301e-02 9.899999999470e-01 5.049873286002e-16 -9.279221704350e-19 4.948904988139e-08 -9.093645594163e-11 
1.344827586208e+00 5.000000000000e-01 0.000000000000e+00 4.999999986783e+04 2.017402854144e+05 1.517402855466e+05 1.000000005287e-02 9.899999999471e-01 5.554431967754e-16 5.682430081550e-18 5.443373436797e-08 5.568796183784e-10 
1.344827586208e+00 4.166666666666e-01 0.000000000000e+00 4.999999986783e+04 2.017402858880e+05 1.517402860201e+05 1.000000005287e-02 9.899999999471e-01 5.525476612293e-16 1.381122459788e-17 5.414997140551e-08 1.353502272186e-09 
1.434482758622e+00 4.166666666666e-01 0.000000000000e+00 4.999999986748e+04 2.017402395945e+05 1.517402397270e+05 1.000000005301e-02 9.899999999470e-01 5.097475439278e-16 9.477450445604e-18 4.995555175414e-08 9.287921152584e-10 
1.524137931036e+00 4.166666666666e-01 0.000000000000e+00 4.999999986748e+04 2.017401944846e+05 1.517401946171e+05 1.000000005301e-02 9.899999999470e-01 4.923324059613e-16 6.962373174458e-18 4.824867270783e-08 6.823142756192e-10 
1.613793103449e+00 4.166666666666e-01 0.000000000000e+00 4.999999986748e+04 2.017401513142e+05 1.517401514467e+05 1.000000005301e-02 9.899999999470e-01 4.676014014868e-16 4.836064428317e-18 4.582502938935e-08 4.739352103222e-10 
1.703448275863e+00 4.166666666666e-01 0.000000000000e+00 4.999999986748e+04 2.017401106388e+05 1.517401107714e+05 1.000000005301e-02 9.899999999470e-01 4.365124786578e-16 2.868066998555e-18 4.277830892776e-08 2.810713145978e-10 
1.793103448277e+00 4.166666666666e-01 0.000000000000e+00 4.999999986748e+04 2.017400730430e+05 1.517400731755e+05 1.000000005301e-02 9.899999999470e-01 4.002810362204e-16 1.849787123461e-18 3.922749753990e-08 1.812796856904e-10 
1.882758620691e+00 4.166666666665e-01 0.000000000000e+00 4.999999986770e+04 2.017400388645e+05 1.517400389968e+05 1.000000005292e-02 9.899999999471e-01 3.459275340307e-16 8.115508775066e-18 3.390069016962e-08 7.951891859664e-10 
1.344827586208e+00 3.333333333333e-01 0.000000000000e+00 4.999999986783e+04 2.017402877163e+05 1.517402878485e+05 1.000000005287e-02 9.899999999471e-01 5.554864297384e-16 2.467186749542e-17 5.443797126636e-08 2.417938094541e-09 
1.434482758621e+00 3.333333333333e-01 0.000000000000e+00 4.999999986748e+04 2.017402412514e+05 1.517402413839e+05 1.000000005301e-02 9.899999999470e-01 5.113532482290e-16 2.082194703488e-17 5.011291053084e-08 2.040629284637e-09 
1.524137931035e+00 3.333333333333e-01 0.000000000000e+00 4.999999986748e+04 2.017401960250e+05 1.517401961575e+05 1.000000005301e-02 9.899999999470e-01 4.938781085741e-16 1.979434871590e-17 4.840015205098e-08 1.939850121920e-09 
1.613793103449e+00 3.333333333332e-01 0.000000000000e+00 4.999999986748e+04 2.017401526940e+05 1.517401528265e+05 1.000000005301e-02 9.899999999470e-01 4.693781734053e-16 1.702191932130e-17 4.599915342385e-08 1.668151307957e-09 
1.703448275863e+00 3.333333333332e-01 0.000000000000e+00 4.999999986748e+04 2.017401118607e+05 1.517401119932e+05 1.000000005301e-02 9.899999999470e-01 4.374774255608e-16 1.419083491792e-17 4.287287378773e-08 1.390704534547e-09 
1.793103448277e+00 3.333333333332e-01 0.000000000000e+00 4.999999986748e+04 2.017400742497e+05 1.517400743822e+05 1.000000005301e-02 9.899999999470e-01 3.990451143263e-16 1.263064674111e-17 3.910643083587e-08 1.237805929258e-09 
1.882758620691e+00 3.333333333332e-01 0.000000000000e+00 4.999999986761e+04 2.017400403079e+05 1.517400404403e+05 1.000000005296e-02 9.899999999470e-01 3.495013720533e-16 1.594828242693e-17 3.425092715026e-08 1.562802701774e-09 
1.972413793104e+00 3.333333333331e-01 0.000000000000e+00 4.999999986798e+04 2.017400115810e+05 1.517400117130e+05 1.000000005281e-02 9.899999999472e-01 2.588731755806e-16 8.793772985662e-18 2.536956837096e-08 8.617011110745e-10 
1.344827586207e+00 2.500000000001e-01 0.000000000000e+00 4.999999986798e+04 2.017402900001e+05 1.517402901321e+05 1.000000005281e-02 9.899999999472e-01 5.600913756391e-16 3.957933075069e-17 5.488911889866e-08 3.878873380788e-09 
1.434482758621e+00 2.500000000000e-01 0.000000000000e+00 4.999999986761e+04 2.017402430650e+05 1.517402431973e+05 1.000000005296e-02 9.899999999470e-01 5.142811351118e-16 2.208735171616e-17 5.039992841540e-08 2.164696969731e-09 
1.524137931035e+00 2.500000000000e-01 0.000000000000e+00 4.999999986748e+04 2.017401977837e+05 1.517401979162e+05 1.000000005301e-02 9.899999999470e-01 4.958644825760e-16 1.976088175813e-17 4.859488618066e-08 1.936570345373e-09 
1.613793103449e+00 2.500000000000e-01 0.000000000000e+00 4.999999986748e+04 2.017401541512e+05 1.517401542837e+05 1.000000005301e-02 9.899999999470e-01 4.728097959145e-16 1.559554077784e-17 4.633545314939e-08 1.528366062711e-09 
1.703448275863e+00 2.499999999999e-01 0.000000000000e+00 4.999999986748e+04 2.017401130040e+05 1.517401131365e+05 1.000000005301e-02 9.899999999470e-01 4.405941101343e-16 1.085730821743e-17 4.317830943707e-08 1.064018355408e-09 
1.793103448277e+00 2.499999999999e-01 0.000000000000e+00 4.999999986748e+04 2.017400751481e+05 1.517400752806e+05 1.000000005301e-02 9.899999999470e-01 3.986475115755e-16 7.304523477843e-18 3.906753445343e-08 7.158447868742e-10 
1.882758620690e+00 2.499999999998e-01 0.000000000000e+00 4.999999986748e+04 2.017400415224e+05 1.517400416549e+05 1.000000005301e-02 9.899999999470e-01 3.494938590051e-16 7.917592221231e-18 3.425027477902e-08 7.758514519942e-10 
1.972413793104e+00 2.499999999998e-01 0.000000000000e+00 4.999999986783e+04 2.017400124806e+05 1.517400126128e+05 1.000000005287e-02 9.899999999471e-01 2.697290020267e-16 3.798323035580e-18 2.643330362337e-08 3.721457883995e-10 
1.434482758621e+00 1.666666666667e-01 0.000000000000e+00 4.999999986770e+04 2.017402449329e+05 1.517402450651e+05 1.000000005292e-02 9.899999999471e-01 5.297742425284e-16 1.900272230649e-17 5.191825623997e-08 1.862402282214e-09 
1.524137931035e+00 1.666666666667e-01 0.000000000000e+00 4.999999986748e+04 2.017401993185e+05 1.517401994510e+05 1.000000005301e-02 9.899999999470e-01 4.999121633338e-16 1.514238899955e-17 4.899161343432e-08 1.483956885136e-09 
1.613793103449e+00 1.666666666667e-01 0.000000000000e+00 4.999999986748e+04 2.017401552932e+05 1.517401554257e+05 1.000000005301e-02 9.899999999470e-01 4.776539309308e-16 9.346428533485e-18 4.681017933857e-08 9.159519607335e-10 
1.703448275862e+00 1.666666666666e-01 0.000000000000e+00 4.999999986748e+04 2.017401136702e+05 1.517401138027e+05 1.000000005301e-02 9.899999999470e-01 4.451838199889e-16 2.896799250746e-18 4.362810191841e-08 2.838868501937e-10 
1.793103448276e+00 1.666666666666e-01 0.000000000000e+00 4.999999986748e+04 2.017400754671e+05 1.517400755997e+05 1.000000005301e-02 9.899999999470e-01 4.017775422843e-16 -2.669025238431e-18 3.937427823793e-08 -2.615648268928e-10 
1.882758620690e+00 1.666666666666e-01 0.000000000000e+00 4.999999986748e+04 2.017400416273e+05 1.517400417599e+05 1.000000005301e-02 9.899999999470e-01 3.527603403075e-16 -5.816341006513e-18 3.457039093194e-08 -5.700027972832e-10 
1.972413793104e+00 1.666666666665e-01 0.000000000000e+00 4.999999986783e+04 2.017400122139e+05 1.517400123461e+05 1.000000005287e-02 9.899999999471e-01 2.737861597780e-16 -6.378839785538e-18 2.683090583931e-08 -6.251279409730e-10 
1.434482758620e+00 8.333333333338e-02 0.000000000000e+00 4.999999986783e+04 2.017402462323e+05 1.517402463645e+05 1.000000005287e-02 9.899999999471e-01 5.337240636262e-16 1.170569535699e-17 5.230525543518e-08 1.147234437605e-09 
1.524137931034e+00 8.333333333336e-02 0.000000000000e+00 4.999999986748e+04 2.017402003074e+05 1.517402004399e+05 1.000000005301e-02 9.899999999470e-01 5.048398836359e-16 9.852348487849e-18 4.947459964726e-08 9.655319655208e-10 
1.613793103448e+00 8.333333333334e-02 0.000000000000e+00 4.999999986748e+04 2.017401557089e+05 1.517401558415e+05 1.000000005301e-02 9.899999999470e-01 4.841919144501e-16 8.372059140334e-18 4.745090286843e-08 8.204634605463e-10 
1.703448275862e+00 8.333333333332e-02 0.000000000000e+00 4.999999986748e+04 2.017401134868e+05 1.517401136193e+05 1.000000005301e-02 9.899999999470e-01 4.517623204567e-16 6.622766825027e-18 4.427279616791e-08 6.490323765991e-10 
1.793103448276e+00 8.333333333330e-02 0.000000000000e+00 4.999999986748e+04 2.017400747033e+05 1.517400748358e+05 1.000000005301e-02 9.899999999470e-01 4.067462637191e-16 5.162181211334e-18 3.986121394188e-08 5.058945662647e-10 
1.882758620690e+00 8.333333333328e-02 0.000000000000e+00 4.999999986748e+04 2.017400405530e+05 1.517400406855e+05 1.000000005301e-02 9.899999999470e-01 3.529420841001e-16 3.096038679300e-18 3.458820201776e-08 3.034122938402e-10 
1.972413793104e+00 8.333333333327e-02 0.000000000000e+00 4.999999986783e+04 2.017400114175e+05 1.517400115496e+05 1.000000005287e-02 9.899999999471e-01 2.745750293415e-16 -5.386503751948e-19 2.690821493692e-08 -5.278784090994e-11 
1.344827586206e+00 8.333333333340e-02 0.000000000000e+00 4.999999986783e+04 2.017402960100e+05 1.517402961422e+05 1.000000005287e-02 9.899999999471e-01 5.552127710303e-16 1.612912585439e-17 5.441096161762e-08 1.580566417416e-09 
1.344827586206e+00 0.000000000000e+00 0.000000000000e+00 4.999999986783e+04 2.017402970010e+05 1.517402971332e+05 1.000000005287e-02 9.899999999471e-01 5.589985933526e-16 1.189260074253e-17 5.478197210502e-08 1.165476429605e-09 
2.062068965517e+00 0.000000000000e+00 0.000000000000e+00 4.999999986783e+04 2.017399924311e+05 1.517399925632e+05 1.000000005287e-02 9.899999999471e-01 2.196534955709e-16 1.334273578895e-17 2.152608602138e-08 1.307590225262e-09 
2.062068965518e+00 8.333333333325e-02 0.000000000000e+00 4.999999986783e+04 2.017399913192e+05 1.517399914513e+05 1.000000005287e-02 9.899999999471e-01 2.241731951910e-16 -6.236117570369e-19 2.196901706229e-08 -6.111411737580e-11 
1.972413793105e+00 4.166666666665e-01 0.000000000000e+00 4.999999986799e+04 2.017400110151e+05 1.517400111471e+05 1.000000005281e-02 9.899999999472e-01 2.707764195776e-16 -2.207771120145e-19 2.653607611677e-08 -2.157590661241e-11 
1.972413793105e+00 5.000000000000e-01 0.000000000000e+00 4.999999986783e+04 2.017400122020e+05 1.517400123341e+05 1.000000005287e-02 9.899999999471e-01 2.984051457709e-16 -1.424369710219e-17 2.924376322260e-08 -1.395703465766e-09 