VARIABLES  = "X","Y","Z", "PRESSURE1", "PRESSURE2", "PRESSURE_W", "SATURATION1", SATURATION2, "VELOCITY_X1", "VELOCITY_Y1", "VELOCITY_X2", "VELOCITY_Y2"
ZONE T="0.000000000000e+00s", N=66, E=49, F=FEPOINT, ET=QUADRILATERAL
STRANDID=1, SOLUTIONTIME=0.000000000000e+00
0.000000000000e+00 0.000000000000e+00 0.000000000000e+00 5.000000000000e+04 0.000000000000e+00 -5.000000000000e+04 1.000000000000e-02 9.900000000000e-01 0.000000000000e+00 0.000000000000e+00 0.000000000000e+00 0.000000000000e+00 
0.000000000000e+00 5.000000000000e-01 0.000000000000e+00 5.000000000000e+04 0.000000000000e+00 -5.000000000000e+04 1.000000000000e-02 9.900000000000e-01 0.000000000000e+00 0.000000000000e+00 0.000000000000e+00 0.000000000000e+00 
8.965517241371e-02 0.000000000000e+00 0.000000000000e+00 5.000000000000e+04 0.000000000000e+00 -5.000000000000e+04 1.000000000000e-02 9.900000000000e-01 0.000000000000e+00 0.000000000000e+00 0.000000000000e+00 0.000000000000e+00 
1.793103448274e-01 0.000000000000e+00 0.000000000000e+00 5.000000000000e+04 0.000000000000e+00 -5.000000000000e+04 1.000000000000e-02 9.900000000000e-01 0.000000000000e+00 0.000000000000e+00 0.000000000000e+00 0.000000000000e+00 
2.689655172411e-01 0.000000000000e+00 0.000000000000e+00 5.000000000000e+04 0.000000000000e+00 -5.000000000000e+04 1.000000000000e-02 9.900000000000e-01 0.000000000000e+00 0.000000000000e+00 0.000000000000e+00 0.000000000000e+00 
3.586206896548e-01 0.000000000000e+00 0.000000000000e+00 5.000000000000e+04 0.000000000000e+00 -5.000000000000e+04 1.000000000000e-02 9.900000000000e-01 0.000000000000e+00 0.000000000000e+00 0.000000000000e+00 0.000000000000e+00 
4.482758620685e-01 0.000000000000e+00 0.000000000000e+00 5.000000000000e+04 0.000000000000e+00 -5.000000000000e+04 1.000000000000e-02 9.900000000000e-01 0.000000000000e+00 0.000000000000e+00 0.000000000000e+00 0.000000000000e+00 
5.379310344822e-01 0.000000000000e+00 0.000000000000e+00 5.000000000000e+04 0.000000000000e+00 -5.000000000000e+04 1.000000000000e-02 9.900000000000e-01 0.000000000000e+00 0.000000000000e+00 0.000000000000e+00 0.000000000000e+00 
6.275862068960e-01 0.000000000000e+00 0.000000000000e+00 5.000000000000e+04 0.000000000000e+00 -5.000000000000e+04 1.000000000000e-02 9.900000000000e-01 0.000000000000e+00 0.000000000000e+00 0.000000000000e+00 0.000000000000e+00 
7.172413793105e-01 5.000000000000e-01 0.000000000000e+00 5.000000000000e+04 0.000000000000e+00 -5.000000000000e+04 1.000000000000e-02 9.900000000000e-01 0.000000000000e+00 0.000000000000e+00 0.000000000000e+00 0.000000000000e+00 
6.275862068966e-01 5.000000000000e-01 0.000000000000e+00 5.000000000000e+04 0.000000000000e+00 -5.000000000000e+04 1.000000000000e-02 9.900000000000e-01 0.000000000000e+00 0.000000000000e+00 0.000000000000e+00 0.000000000000e+00 
5.379310344828e-01 5.000000000000e-01 0.000000000000e+00 5.000000000000e+04 0.000000000000e+00 -5.000000000000e+04 1.000000000000e-02 9.900000000000e-01 0.000000000000e+00 0.000000000000e+00 0.000000000000e+00 0.000000000000e+00 
4.482758620690e-01 5.000000000000e-01 0.000000000000e+00 5.000000000000e+04 0.000000000000e+00 -5.000000000000e+04 1.000000000000e-02 9.900000000000e-01 0.000000000000e+00 0.000000000000e+00 0.000000000000e+00 0.000000000000e+00 
3.586206896552e-01 5.000000000000e-01 0.000000000000e+00 5.000000000000e+04 0.000000000000e+00 -5.000000000000e+04 1.000000000000e-02 9.900000000000e-01 0.000000000000e+00 0.000000000000e+00 0.000000000000e+00 0.000000000000e+00 
2.689655172414e-01 5.000000000000e-01 0.000000000000e+00 5.000000000000e+04 0.000000000000e+00 -5.000000000000e+04 1.000000000000e-02 9.900000000000e-01 0.000000000000e+00 0.000000000000e+00 0.000000000000e+00 0.000000000000e+00 
1.793103448276e-01 5.000000000000e-01 0.000000000000e+00 5.000000000000e+04 0.000000000000e+00 -5.000000000000e+04 1.000000000000e-02 9.900000000000e-01 0.000000000000e+00 0.000000000000e+00 0.000000000000e+00 0.000000000000e+00 
8.965517241379e-02 5.000000000000e-01 0.000000000000e+00 5.000000000000e+04 0.000000000000e+00 -5.000000000000e+04 1.000000000000e-02 9.900000000000e-01 0.000000000000e+00 0.000000000000e+00 0.000000000000e+00 0.000000000000e+00 
0.000000000000e+00 4.166666666668e-01 0.000000000000e+00 5.000000000000e+04 0.000000000000e+00 -5.000000000000e+04 1.000000000000e-02 9.900000000000e-01 0.000000000000e+00 0.000000000000e+00 0.000000000000e+00 0.000000000000e+00 
0.000000000000e+00 3.333333333337e-01 0.000000000000e+00 5.000000000000e+04 0.000000000000e+00 -5.000000000000e+04 1.000000000000e-02 9.900000000000e-01 0.000000000000e+00 0.000000000000e+00 0.000000000000e+00 0.000000000000e+00 
0.000000000000e+00 2.500000000007e-01 0.000000000000e+00 5.000000000000e+04 0.000000000000e+00 -5.000000000000e+04 1.000000000000e-02 9.900000000000e-01 0.000000000000e+00 0.000000000000e+00 0.000000000000e+00 0.000000000000e+00 
0.000000000000e+00 1.666666666672e-01 0.000000000000e+00 5.000000000000e+04 0.000000000000e+00 -5.000000000000e+04 1.000000000000e-02 9.900000000000e-01 0.000000000000e+00 0.000000000000e+00 0.000000000000e+00 0.000000000000e+00 
0.000000000000e+00 8.333333333368e-02 0.000000000000e+00 5.000000000000e+04 0.000000000000e+00 -5.000000000000e+04 1.000000000000e-02 9.900000000000e-01 0.000000000000e+00 0.000000000000e+00 0.000000000000e+00 0.000000000000e+00 
8.965517241378e-02 4.166666666668e-01 0.000000000000e+00 5.000000000000e+04 0.000000000000e+00 -5.000000000000e+04 1.000000000000e-02 9.900000000000e-01 0.000000000000e+00 0.000000000000e+00 0.000000000000e+00 0.000000000000e+00 
1.793103448276e-01 4.166666666668e-01 0.000000000000e+00 5.000000000000e+04 0.000000000000e+00 -5.000000000000e+04 1.000000000000e-02 9.900000000000e-01 0.000000000000e+00 0.000000000000e+00 0.000000000000e+00 0.000000000000e+00 
2.689655172413e-01 4.166666666667e-01 0.000000000000e+00 5.000000000000e+04 0.000000000000e+00 -5.000000000000e+04 1.000000000000e-02 9.900000000000e-01 0.000000000000e+00 0.000000000000e+00 0.000000000000e+00 0.000000000000e+00 
3.586206896551e-01 4.166666666667e-01 0.000000000000e+00 5.000000000000e+04 0.000000000000e+00 -5.000000000000e+04 1.000000000000e-02 9.900000000000e-01 0.000000000000e+00 0.000000000000e+00 0.000000000000e+00 0.000000000000e+00 
4.482758620689e-01 4.166666666667e-01 0.000000000000e+00 5.000000000000e+04 0.000000000000e+00 -5.000000000000e+04 1.000000000000e-02 9.900000000000e-01 0.000000000000e+00 0.000000000000e+00 0.000000000000e+00 0.000000000000e+00 
5.379310344827e-01 4.166666666667e-01 0.000000000000e+00 5.000000000000e+04 0.000000000000e+00 -5.000000000000e+04 1.000000000000e-02 9.900000000000e-01 0.000000000000e+00 0.000000000000e+00 0.000000000000e+00 0.000000000000e+00 
6.275862068965e-01 4.166666666667e-01 0.000000000000e+00 5.000000000000e+04 0.000000000000e+00 -5.000000000000e+04 1.000000000000e-02 9.900000000000e-01 0.000000000000e+00 0.000000000000e+00 0.000000000000e+00 0.000000000000e+00 
7.172413793104e-01 4.166666666667e-01 0.000000000000e+00 5.000000000000e+04 0.000000000000e+00 -5.000000000000e+04 1.000000000000e-02 9.900000000000e-01 0.000000000000e+00 0.000000000000e+00 0.000000000000e+00 0.000000000000e+00 
8.965517241376e-02 3.333333333337e-01 0.000000000000e+00 5.000000000000e+04 0.000000000000e+00 -5.000000000000e+04 1.000000000000e-02 9.900000000000e-01 0.000000000000e+00 0.000000000000e+00 0.000000000000e+00 0.000000000000e+00 
1.793103448275e-01 3.333333333336e-01 0.000000000000e+00 5.000000000000e+04 0.000000000000e+00 -5.000000000000e+04 1.000000000000e-02 9.900000000000e-01 0.000000000000e+00 0.000000000000e+00 0.000000000000e+00 0.000000000000e+00 
2.689655172413e-01 3.333333333336e-01 0.000000000000e+00 5.000000000000e+04 0.000000000000e+00 -5.000000000000e+04 1.000000000000e-02 9.900000000000e-01 0.000000000000e+00 0.000000000000e+00 0.000000000000e+00 0.000000000000e+00 
3.586206896551e-01 3.333333333336e-01 0.000000000000e+00 5.000000000000e+04 0.000000000000e+00 -5.000000000000e+04 1.000000000000e-02 9.900000000000e-01 0.000000000000e+00 0.000000000000e+00 0.000000000000e+00 0.000000000000e+00 
4.482758620688e-01 3.333333333336e-01 0.000000000000e+00 5.000000000000e+04 0.000000000000e+00 -5.000000000000e+04 1.000000000000e-02 9.900000000000e-01 0.000000000000e+00 0.000000000000e+00 0.000000000000e+00 0.000000000000e+00 
5.379310344826e-01 3.333333333335e-01 0.000000000000e+00 5.000000000000e+04 0.000000000000e+00 -5.000000000000e+04 1.000000000000e-02 9.900000000000e-01 0.000000000000e+00 0.000000000000e+00 0.000000000000e+00 0.000000000000e+00 
6.275862068964e-01 3.333333333335e-01 0.000000000000e+00 5.000000000000e+04 0.000000000000e+00 -5.000000000000e+04 1.000000000000e-02 9.900000000000e-01 0.000000000000e+00 0.000000000000e+00 0.000000000000e+00 0.000000000000e+00 
7.172413793102e-01 3.333333333335e-01 0.000000000000e+00 5.000000000000e+04 0.000000000000e+00 -5.000000000000e+04 1.000000000000e-02 9.900000000000e-01 0.000000000000e+00 0.000000000000e+00 0.000000000000e+00 0.000000000000e+00 
8.965517241375e-02 2.500000000007e-01 0.000000000000e+00 5.000000000000e+04 0.000000000000e+00 -5.000000000000e+04 1.000000000000e-02 9.900000000000e-01 0.000000000000e+00 0.000000000000e+00 0.000000000000e+00 0.000000000000e+00 
1.793103448275e-01 2.500000000006e-01 0.000000000000e+00 5.000000000000e+04 0.000000000000e+00 -5.000000000000e+04 1.000000000000e-02 9.900000000000e-01 0.000000000000e+00 0.000000000000e+00 0.000000000000e+00 0.000000000000e+00 
2.689655172413e-01 2.500000000006e-01 0.000000000000e+00 5.000000000000e+04 0.000000000000e+00 -5.000000000000e+04 1.000000000000e-02 9.900000000000e-01 0.000000000000e+00 0.000000000000e+00 0.000000000000e+00 0.000000000000e+00 
3.586206896550e-01 2.500000000005e-01 0.000000000000e+00 5.000000000000e+04 0.000000000000e+00 -5.000000000000e+04 1.000000000000e-02 9.900000000000e-01 0.000000000000e+00 0.000000000000e+00 0.000000000000e+00 0.000000000000e+00 
4.482758620688e-01 2.500000000005e-01 0.000000000000e+00 5.000000000000e+04 0.000000000000e+00 -5.000000000000e+04 1.000000000000e-02 9.900000000000e-01 0.000000000000e+00 0.000000000000e+00 0.000000000000e+00 0.000000000000e+00 
5.379310344825e-01 2.500000000004e-01 0.000000000000e+00 5.000000000000e+04 0.000000000000e+00 -5.000000000000e+04 1.000000000000e-02 9.900000000000e-01 0.000000000000e+00 0.000000000000e+00 0.000000000000e+00 0.000000000000e+00 
8.965517241374e-02 1.666666666672e-01 0.000000000000e+00 5.000000000000e+04 0.000000000000e+00 -5.000000000000e+04 1.000000000000e-02 9.900000000000e-01 0.000000000000e+00 0.000000000000e+00 0.000000000000e+00 0.000000000000e+00 
1.793103448275e-01 1.666666666672e-01 0.000000000000e+00 5.000000000000e+04 0.000000000000e+00 -5.000000000000e+04 1.000000000000e-02 9.900000000000e-01 0.000000000000e+00 0.000000000000e+00 0.000000000000e+00 0.000000000000e+00 
4.482758620687e-01 1.666666666671e-01 0.000000000000e+00 5.000000000000e+04 0.000000000000e+00 -5.000000000000e+04 1.000000000000e-02 9.900000000000e-01 0.000000000000e+00 0.000000000000e+00 0.000000000000e+00 0.000000000000e+00 
5.379310344824e-01 1.666666666670e-01 0.000000000000e+00 5.000000000000e+04 0.000000000000e+00 -5.000000000000e+04 1.000000000000e-02 9.900000000000e-01 0.000000000000e+00 0.000000000000e+00 0.000000000000e+00 0.000000000000e+00 
8.965517241372e-02 8.333333333366e-02 0.000000000000e+00 5.000000000000e+04 0.000000000000e+00 -5.000000000000e+04 1.000000000000e-02 9.900000000000e-01 0.000000000000e+00 0.000000000000e+00 0.000000000000e+00 0.000000000000e+00 
1.793103448274e-01 8.333333333364e-02 0.000000000000e+00 5.000000000000e+04 0.000000000000e+00 -5.000000000000e+04 1.000000000000e-02 9.900000000000e-01 0.000000000000e+00 0.000000000000e+00 0.000000000000e+00 0.000000000000e+00 
2.689655172412e-01 8.333333333362e-02 0.000000000000e+00 5.000000000000e+04 0.000000000000e+00 -5.000000000000e+04 1.000000000000e-02 9.900000000000e-01 0.000000000000e+00 0.000000000000e+00 0.000000000000e+00 0.000000000000e+00 
3.586206896549e-01 8.333333333360e-02 0.000000000000e+00 5.000000000000e+04 0.000000000000e+00 -5.000000000000e+04 1.000000000000e-02 9.900000000000e-01 0.000000000000e+00 0.000000000000e+00 0.000000000000e+00 0.000000000000e+00 
4.482758620686e-01 8.333333333359e-02 0.000000000000e+00 5.000000000000e+04 0.000000000000e+00 -5.000000000000e+04 1.000000000000e-02 9.900000000000e-01 0.000000000000e+00 0.000000000000e+00 0.000000000000e+00 0.000000000000e+00 
5.379310344823e-01 8.333333333357e-02 0.000000000000e+00 5.000000000000e+04 0.000000000000e+00 -5.000000000000e+04 1.000000000000e-02 9.900000000000e-01 0.000000000000e+00 0.000000000000e+00 0.000000000000e+00 0.000000000000e+00 
6.275862068961e-01 8.333333333355e-02 0.000000000000e+00 5.000000000000e+04 0.000000000000e+00 -5.000000000000e+04 1.000000000000e-02 9.900000000000e-01 0.000000000000e+00 0.000000000000e+00 0.000000000000e+00 0.000000000000e+00 
7.172413793097e-01 0.000000000000e+00 0.000000000000e+00 5.000000000000e+04 0.000000000000e+00 -5.000000000000e+04 1.000000000000e-02 9.900000000000e-01 0.000000000000e+00 0.000000000000e+00 0.000000000000e+00 0.000000000000e+00 
7.172413793098e-01 8.333333333353e-02 0.000000000000e+00 5.000000000000e+04 0.000000000000e+00 -5.000000000000e+04 1.000000000000e-02 9.900000000000e-01 0.000000000000e+00 0.000000000000e+00 0.000000000000e+00 0.000000000000e+00 
8.068965517243e-01 4.166666666667e-01 0.000000000000e+00 5.000000000000e+04 0.000000000000e+00 -5.000000000000e+04 1.000000000000e-02 9.900000000000e-01 0.000000000000e+00 0.000000000000e+00 0.000000000000e+00 0.000000000000e+00 
8.068965517245e-01 5.000000000000e-01 0.000000000000e+00 5.000000000000e+04 0.000000000000e+00 -5.000000000000e+04 1.000000000000e-02 9.900000000000e-01 0.000000000000e+00 0.000000000000e+00 0.000000000000e+00 0.000000000000e+00 
8.068965517241e-01 3.333333333335e-01 0.000000000000e+00 5.000000000000e+04 0.000000000000e+00 -5.000000000000e+04 1.000000000000e-02 9.900000000000e-01 0.000000000000e+00 0.000000000000e+00 0.000000000000e+00 0.000000000000e+00 
6.275862068963e-01 2.500000000004e-01 0.000000000000e+00 5.000000000000e+04 0.000000000000e+00 -5.000000000000e+04 1.000000000000e-02 9.900000000000e-01 0.000000000000e+00 0.000000000000e+00 0.000000000000e+00 0.000000000000e+00 
7.172413793101e-01 2.500000000004e-01 0.000000000000e+00 5.000000000000e+04 0.000000000000e+00 -5.000000000000e+04 1.000000000000e-02 9.900000000000e-01 0.000000000000e+00 0.000000000000e+00 0.000000000000e+00 0.000000000000e+00 
8.068965517240e-01 2.500000000003e-01 0.000000000000e+00 5.000000000000e+04 0.000000000000e+00 -5.000000000000e+04 1.000000000000e-02 9.900000000000e-01 0.000000000000e+00 0.000000000000e+00 0.000000000000e+00 0.000000000000e+00 
2.689655172412e-01 1.666666666671e-01 0.000000000000e+00 5.000000000000e+04 0.000000000000e+00 -5.000000000000e+04 1.000000000000e-02 9.900000000000e-01 0.000000000000e+00 0.000000000000e+00 0.000000000000e+00 0.000000000000e+00 
3.586206896549e-01 1.666666666671e-01 0.000000000000e+00 5.000000000000e+04 0.000000000000e+00 -5.000000000000e+04 1.000000000000e-02 9.900000000000e-01 0.000000000000e+00 0.000000000000e+00 0.000000000000e+00 0.000000000000e+00 
6.275862068961e-01 1.666666666670e-01 0.000000000000e+00 5.000000000000e+04 0.000000000000e+00 -5.000000000000e+04 1.000000000000e-02 9.900000000000e-01 0.000000000000e+00 0.000000000000e+00 0.000000000000e+00 0.000000000000e+00 
22  1  3  49  
2  18  23  17  
49  3  4  50  
50  4  5  51  
51  5  6  52  
52  6  7  53  
53  7  8  54  
11  29  30  10  
12  28  29  11  
13  27  28  12  
14  26  27  13  
15  25  26  14  
16  24  25  15  
17  23  24  16  
18  19  31  23  
19  20  39  31  
20  21  45  39  
21  22  49  45  
23  31  32  24  
24  32  33  25  
25  33  34  26  
26  34  35  27  
27  35  36  28  
28  36  37  29  
29  37  38  30  
31  39  40  32  
32  40  41  33  
33  41  42  34  
34  42  43  35  
35  43  44  36  
39  45  46  40  
43  47  48  44  
45  49  50  46  
47  53  54  48  
54  8  9  55  
55  9  56  57  
10  30  58  59  
30  38  60  58  
36  44  61  37  
37  61  62  38  
38  62  63  60  
40  46  64  41  
41  64  65  42  
42  65  47  43  
44  48  66  61  
46  50  51  64  
65  52  53  47  
48  54  55  66  
64  51  52  65  
VARIABLES  = "X","Y","Z", "PRESSURE1", "PRESSURE2", "PRESSURE_W", "SATURATION1", SATURATION2, "VELOCITY_X1", "VELOCITY_Y1", "VELOCITY_X2", "VELOCITY_Y2"
ZONE T="5.000000000000e+02s", N=66, E=49, F=FEPOINT, ET=QUADRILATERAL
STRANDID=1, SOLUTIONTIME=5.000000000000e+02
0.000000000000e+00 0.000000000000e+00 0.000000000000e+00 4.999999997894e+03 1.999999999158e+05 1.949999999179e+05 9.820320600844e-01 1.796793991562e-02 1.051717855953e-04 -1.021950406435e-10 1.692748625348e-05 1.047359005396e-11 
0.000000000000e+00 5.000000000000e-01 0.000000000000e+00 4.999999997894e+03 1.999999999158e+05 1.949999999179e+05 9.820320782391e-01 1.796792176095e-02 1.051700716464e-04 -6.230536835767e-11 1.692747865102e-05 1.058016431494e-11 
8.965517241371e-02 0.000000000000e+00 0.000000000000e+00 6.453205287861e+03 2.013438088684e+05 1.948906035806e+05 5.928132675916e-01 4.071867324084e-01 3.946337619664e-05 -1.744144859089e-10 -8.525782084384e-05 -9.764049106481e-11 
1.793103448274e-01 0.000000000000e+00 0.000000000000e+00 7.230472053773e+03 2.016172576791e+05 1.943867856254e+05 4.750031062337e-01 5.249968937663e-01 4.929067075685e-05 -1.994059043824e-11 -4.573282333197e-05 -9.991232111254e-12 
2.689655172411e-01 0.000000000000e+00 0.000000000000e+00 8.670748868597e+03 2.017335274942e+05 1.930627786256e+05 2.574007658076e-01 7.425992341924e-01 2.248847470593e-05 9.254157897287e-12 -2.853180006185e-05 -2.100636810829e-10 
3.586206896548e-01 0.000000000000e+00 0.000000000000e+00 4.114040991843e+04 2.017410910500e+05 1.606006811316e+05 5.536147705729e-03 9.944638522943e-01 -1.923650315386e-06 -8.946941506233e-14 -4.193852800210e-06 1.720893881537e-10 
4.482758620685e-01 0.000000000000e+00 0.000000000000e+00 4.999931273213e+04 2.017410001803e+05 1.517416874481e+05 9.939329279887e-03 9.900606707201e-01 3.827189305321e-11 -4.691062154877e-18 9.870158490036e-08 6.108011655764e-10 
5.379310344822e-01 0.000000000000e+00 0.000000000000e+00 4.999999984216e+04 2.017409104788e+05 1.517409106366e+05 1.000000006285e-02 9.899999999371e-01 4.818191634022e-15 5.183107146016e-18 9.663676233924e-08 5.079786820306e-10 
6.275862068960e-01 0.000000000000e+00 0.000000000000e+00 4.999999986804e+04 2.017408233646e+05 1.517408234966e+05 1.000000005278e-02 9.899999999472e-01 9.515183530258e-16 6.948456695268e-18 9.323470245858e-08 6.808668189234e-10 
7.172413793105e-01 5.000000000000e-01 0.000000000000e+00 4.999999986783e+04 2.017407348009e+05 1.517407349331e+05 1.000000005287e-02 9.899999999471e-01 9.099071548313e-16 -8.742453734597e-18 8.917088778540e-08 -8.567620710832e-10 
6.275862068966e-01 5.000000000000e-01 0.000000000000e+00 4.999999986748e+04 2.017408184769e+05 1.517408186094e+05 1.000000005301e-02 9.899999999470e-01 9.517377464867e-16 -1.001972376933e-17 9.325631731680e-08 -9.819345336306e-10 
5.379310344828e-01 5.000000000000e-01 0.000000000000e+00 4.999999984190e+04 2.017409054314e+05 1.517409055895e+05 1.000000006295e-02 9.899999999370e-01 4.816291813601e-15 -2.220942701067e-18 9.645151294978e-08 -2.176542891824e-10 
4.482758620690e-01 5.000000000000e-01 0.000000000000e+00 4.999931273328e+04 2.017409949536e+05 1.517416822204e+05 9.939329456637e-03 9.900606705434e-01 3.827187964859e-11 1.385087314836e-17 9.815751212134e-08 -5.081071902259e-10 
3.586206896552e-01 5.000000000000e-01 0.000000000000e+00 4.114042120493e+04 2.017410850073e+05 1.606006638024e+05 5.536144475665e-03 9.944638555243e-01 -1.923646951193e-06 3.563359933965e-13 -4.193890888322e-06 4.283894370134e-10 
2.689655172414e-01 5.000000000000e-01 0.000000000000e+00 8.670751001710e+03 2.017335221712e+05 1.930627711694e+05 2.574006302718e-01 7.425993697282e-01 2.248846242987e-05 -3.631801035772e-11 -2.853072143274e-05 6.580266709714e-11 
1.793103448276e-01 5.000000000000e-01 0.000000000000e+00 7.230471302520e+03 2.016172561345e+05 1.943867848320e+05 4.750031960756e-01 5.249968039244e-01 4.929095088386e-05 -2.458738255103e-10 -4.573206482361e-05 -6.227682610821e-10 
8.965517241379e-02 5.000000000000e-01 0.000000000000e+00 6.453204420667e+03 2.013438097981e+05 1.948906053775e+05 5.928134333614e-01 4.071865666386e-01 3.946353361963e-05 -1.229718605156e-10 -8.525763006739e-05 -8.332185242243e-11 
0.000000000000e+00 4.166666666668e-01 0.000000000000e+00 4.999999997894e+03 1.999999999158e+05 1.949999999179e+05 9.820320821896e-01 1.796791781042e-02 1.051707051707e-04 -1.821255178895e-10 1.692746380911e-05 1.107700261453e-11 
0.000000000000e+00 3.333333333337e-01 0.000000000000e+00 4.999999997894e+03 1.999999999158e+05 1.949999999179e+05 9.820320349875e-01 1.796796501252e-02 1.051737257375e-04 -2.099312031811e-10 1.692750238676e-05 1.395967450229e-11 
0.000000000000e+00 2.500000000007e-01 0.000000000000e+00 4.999999997894e+03 1.999999999158e+05 1.949999999179e+05 9.820320363171e-01 1.796796368294e-02 1.051749201221e-04 -3.333444634851e-11 1.692748453571e-05 3.331264673955e-12 
0.000000000000e+00 1.666666666672e-01 0.000000000000e+00 4.999999997894e+03 1.999999999158e+05 1.949999999179e+05 9.820320314291e-01 1.796796857089e-02 1.051743978058e-04 2.068343567527e-10 1.692749947267e-05 -1.866331080957e-11 
0.000000000000e+00 8.333333333368e-02 0.000000000000e+00 4.999999997894e+03 1.999999999158e+05 1.949999999179e+05 9.820320651031e-01 1.796793489690e-02 1.051707550724e-04 1.301129088010e-10 1.692749144628e-05 -8.585016264972e-12 
8.965517241378e-02 4.166666666668e-01 0.000000000000e+00 6.453204231963e+03 2.013438089535e+05 1.948906047216e+05 5.928134649114e-01 4.071865350886e-01 3.946379227057e-05 -3.091527123865e-10 -8.525747698786e-05 -1.014139757721e-10 
1.793103448276e-01 4.166666666668e-01 0.000000000000e+00 7.230472827917e+03 2.016172537457e+05 1.943867809178e+05 4.750029819345e-01 5.249970180655e-01 4.929097438370e-05 -1.586928914510e-11 -4.573223263747e-05 -9.649175137411e-11 
2.689655172413e-01 4.166666666667e-01 0.000000000000e+00 8.670756313150e+03 2.017335223302e+05 1.930627660171e+05 2.574003330987e-01 7.425996669013e-01 2.248836896488e-05 5.329654922245e-12 -2.853140230620e-05 4.691253870119e-10 
3.586206896551e-01 4.166666666667e-01 0.000000000000e+00 4.114043065216e+04 2.017410853720e+05 1.606006547198e+05 5.536147626530e-03 9.944638523735e-01 -1.923639969152e-06 -3.320506742206e-14 -4.193574614488e-06 7.635737638435e-10 
4.482758620689e-01 4.166666666667e-01 0.000000000000e+00 4.999931273307e+04 2.017409945212e+05 1.517416817882e+05 9.939329605063e-03 9.900606703949e-01 3.827187429241e-11 3.235776182276e-18 9.845806853753e-08 4.379703105083e-10 
5.379310344827e-01 4.166666666667e-01 0.000000000000e+00 4.999999984191e+04 2.017409052464e+05 1.517409054045e+05 1.000000006295e-02 9.899999999370e-01 4.818538140784e-15 3.013036958870e-18 9.667154000503e-08 2.953531944084e-10 
6.275862068965e-01 4.166666666667e-01 0.000000000000e+00 4.999999986748e+04 2.017408176419e+05 1.517408177745e+05 1.000000005301e-02 9.899999999470e-01 9.547685692838e-16 2.222793241375e-18 9.355333859846e-08 2.179990184523e-10 
7.172413793104e-01 4.166666666667e-01 0.000000000000e+00 4.999999986783e+04 2.017407340724e+05 1.517407342046e+05 1.000000005287e-02 9.899999999471e-01 9.054652555231e-16 3.098119725200e-18 8.873558102000e-08 3.037811817320e-10 
8.965517241376e-02 3.333333333337e-01 0.000000000000e+00 6.453206486663e+03 2.013438080296e+05 1.948906015430e+05 5.928130426540e-01 4.071869573460e-01 3.946336804177e-05 -3.415174560067e-10 -8.525783815811e-05 -1.413393329374e-10 
1.793103448275e-01 3.333333333336e-01 0.000000000000e+00 7.230471515779e+03 2.016172554971e+05 1.943867839813e+05 4.750031722811e-01 5.249968277189e-01 4.929081252148e-05 1.871445428797e-10 -4.573246114573e-05 4.073680851480e-10 
2.689655172413e-01 3.333333333336e-01 0.000000000000e+00 8.670751547413e+03 2.017335237102e+05 1.930627721628e+05 2.574006017508e-01 7.425993982492e-01 2.248844295005e-05 3.210262269588e-11 -2.853111816794e-05 1.037662434911e-09 
3.586206896551e-01 3.333333333336e-01 0.000000000000e+00 4.114042105802e+04 2.017410862899e+05 1.606006652319e+05 5.536145469914e-03 9.944638545301e-01 -1.923646340934e-06 -3.017698990238e-13 -4.193455673897e-06 1.582486265054e-09 
4.482758620688e-01 3.333333333336e-01 0.000000000000e+00 4.999931273284e+04 2.017409956981e+05 1.517416829653e+05 9.939329454508e-03 9.900606705455e-01 3.827188344444e-11 -1.757991643766e-18 9.858404896054e-08 1.334361310269e-09 
5.379310344826e-01 3.333333333335e-01 0.000000000000e+00 4.999999984203e+04 2.017409059337e+05 1.517409060917e+05 1.000000006290e-02 9.899999999371e-01 4.818380157032e-15 1.384100778814e-17 9.665578107818e-08 1.356553593621e-09 
6.275862068964e-01 3.333333333335e-01 0.000000000000e+00 4.999999986776e+04 2.017408188477e+05 1.517408189799e+05 1.000000005290e-02 9.899999999471e-01 9.516586705318e-16 7.939385678992e-18 9.324848360721e-08 7.784325424821e-10 
7.172413793102e-01 3.333333333335e-01 0.000000000000e+00 4.999999986811e+04 2.017407353176e+05 1.517407354495e+05 1.000000005276e-02 9.899999999472e-01 8.978399929848e-16 1.689091098106e-17 8.798852605569e-08 1.655270816000e-09 
8.965517241375e-02 2.500000000007e-01 0.000000000000e+00 6.453206423153e+03 2.013438067248e+05 1.948906003016e+05 5.928130568999e-01 4.071869431001e-01 3.946316453215e-05 -5.007552383788e-11 -8.525792843803e-05 -3.828041390823e-11 
1.793103448275e-01 2.500000000006e-01 0.000000000000e+00 7.230470674387e+03 2.016172571081e+05 1.943867864337e+05 4.750032837259e-01 5.249967162741e-01 4.929075424622e-05 8.931038003626e-11 -4.573281456286e-05 2.638423430496e-10 
2.689655172413e-01 2.500000000006e-01 0.000000000000e+00 8.670750882519e+03 2.017335256436e+05 1.930627747611e+05 2.574006401763e-01 7.425993598237e-01 2.248845383520e-05 2.054028574872e-11 -2.853111527359e-05 1.009520414297e-09 
3.586206896550e-01 2.500000000005e-01 0.000000000000e+00 4.114041806120e+04 2.017410880281e+05 1.606006699669e+05 5.536146164011e-03 9.944638538360e-01 -1.923647372134e-06 -2.106498974758e-13 -4.192996298335e-06 1.947145021347e-09 
4.482758620688e-01 2.500000000005e-01 0.000000000000e+00 4.999931273226e+04 2.017409967901e+05 1.517416840578e+05 9.939329407691e-03 9.900606705923e-01 3.827188565348e-11 2.511173767071e-19 9.864891772190e-08 1.673351251234e-09 
5.379310344825e-01 2.500000000004e-01 0.000000000000e+00 4.999999984213e+04 2.017409075534e+05 1.517409077113e+05 1.000000006286e-02 9.899999999371e-01 4.823816296188e-15 1.920585278307e-17 9.718801305006e-08 1.882308318105e-09 
8.965517241374e-02 1.666666666672e-01 0.000000000000e+00 6.453206656635e+03 2.013438074978e+05 1.948906008411e+05 5.928130118724e-01 4.071869881276e-01 3.946315102821e-05 3.480584193149e-10 -8.525798495161e-05 1.723996331502e-10 
1.793103448275e-01 1.666666666672e-01 0.000000000000e+00 7.230471024501e+03 2.016172577005e+05 1.943867866760e+05 4.750032425063e-01 5.249967574937e-01 4.929068222983e-05 -1.757170165566e-11 -4.573289144353e-05 7.516164420048e-11 
4.482758620687e-01 1.666666666671e-01 0.000000000000e+00 4.999931273202e+04 2.017409985434e+05 1.517416858114e+05 9.939329242342e-03 9.900606707577e-01 3.827189399439e-11 1.210345100238e-17 9.862915438607e-08 1.688172823395e-09 
5.379310344824e-01 1.666666666670e-01 0.000000000000e+00 4.999999984226e+04 2.017409091349e+05 1.517409092927e+05 1.000000006281e-02 9.899999999372e-01 4.816143714225e-15 1.496062109347e-17 9.643611853881e-08 1.466144875801e-09 
8.965517241372e-02 8.333333333366e-02 0.000000000000e+00 6.453205048132e+03 2.013438097045e+05 1.948906046564e+05 5.928133139671e-01 4.071866860329e-01 3.946339164287e-05 2.170759223102e-10 -8.525779139223e-05 8.027343152267e-11 
1.793103448274e-01 8.333333333364e-02 0.000000000000e+00 7.230471640781e+03 2.016172577110e+05 1.943867860702e+05 4.750031560745e-01 5.249968439255e-01 4.929074170708e-05 -3.677529175834e-11 -4.573275148829e-05 -1.200888253400e-12 
2.689655172412e-01 8.333333333362e-02 0.000000000000e+00 8.670750107943e+03 2.017335278203e+05 1.930627777123e+05 2.574006894511e-01 7.425993105489e-01 2.248845467311e-05 6.103189902746e-12 -2.853170450797e-05 1.471492038781e-10 
3.586206896549e-01 8.333333333360e-02 0.000000000000e+00 4.114041507524e+04 2.017410908958e+05 1.606006758205e+05 5.536146669475e-03 9.944638533305e-01 -1.923648478054e-06 -2.884441219679e-14 -4.193385590582e-06 8.648973205515e-10 
4.482758620686e-01 8.333333333359e-02 0.000000000000e+00 4.999931273202e+04 2.017409996608e+05 1.517416869288e+05 9.939329360905e-03 9.900606706391e-01 3.827189009267e-11 1.143849678712e-17 9.885342777366e-08 9.625595101846e-10 
5.379310344823e-01 8.333333333357e-02 0.000000000000e+00 4.999999984213e+04 2.017409100469e+05 1.517409102047e+05 1.000000006286e-02 9.899999999371e-01 4.818524301135e-15 8.063821493261e-18 9.666926364092e-08 7.901991932700e-10 
6.275862068961e-01 8.333333333355e-02 0.000000000000e+00 4.999999986811e+04 2.017408227856e+05 1.517408229175e+05 1.000000005276e-02 9.899999999472e-01 9.563974517603e-16 7.394358609039e-18 9.370828827803e-08 7.247028591180e-10 
7.172413793097e-01 0.000000000000e+00 0.000000000000e+00 4.999999986829e+04 2.017407398879e+05 1.517407400196e+05 1.000000005268e-02 9.899999999473e-01 9.310896107429e-16 -2.813027804509e-18 9.124668843383e-08 -2.751993428311e-10 
7.172413793098e-01 8.333333333353e-02 0.000000000000e+00 4.999999986789e+04 2.017407401219e+05 1.517407402540e+05 1.000000005285e-02 9.899999999472e-01 9.220164362975e-16 -2.813027804618e-18 9.035803711815e-08 -2.751993439025e-10 
8.068965517243e-01 4.166666666667e-01 0.000000000000e+00 4.999999986783e+04 2.017406552830e+05 1.517406554152e+05 1.000000005287e-02 9.899999999471e-01 8.788047975642e-16 1.520539517377e-17 8.612304294868e-08 1.490057208338e-09 