VARIABLES  = "X","Y","Z", "PRESSURE1", "PRESSURE2", "PRESSURE_W", "SATURATION1", SATURATION2, "VELOCITY_X1", "VELOCITY_Y1", "VELOCITY_X2", "VELOCITY_Y2"
ZONE T="0.000000000000e+00s", N=66, E=49, F=FEPOINT, ET=QUADRILATERAL
STRANDID=1, SOLUTIONTIME=0.000000000000e+00
0.000000000000e+00 0.000000000000e+00 0.000000000000e+00 5.000000000000e+04 0.000000000000e+00 -5.000000000000e+04 1.000000000000e-02 9.900000000000e-01 0.000000000000e+00 0.000000000000e+00 0.000000000000e+00 0.000000000000e+00 
0.000000000000e+00 5.000000000000e-01 0.000000000000e+00 5.000000000000e+04 0.000000000000e+00 -5.000000000000e+04 1.000000000000e-02 9.900000000000e-01 0.000000000000e+00 0.000000000000e+00 0.000000000000e+00 0.000000000000e+00 
8.965517241371e-02 0.000000000000e+00 0.000000000000e+00 5.000000000000e+04 0.000000000000e+00 -5.000000000000e+04 1.000000000000e-02 9.900000000000e-01 0.000000000000e+00 0.000000000000e+00 0.000000000000e+00 0.000000000000e+00 
1.793103448274e-01 0.000000000000e+00 0.000000000000e+00 5.000000000000e+04 0.000000000000e+00 -5.000000000000e+04 1.000000000000e-02 9.900000000000e-01 0.000000000000e+00 0.000000000000e+00 0.000000000000e+00 0.000000000000e+00 
2.689655172411e-01 0.000000000000e+00 0.000000000000e+00 5.000000000000e+04 0.000000000000e+00 -5.000000000000e+04 1.000000000000e-02 9.900000000000e-01 0.000000000000e+00 0.000000000000e+00 0.000000000000e+00 0.000000000000e+00 
3.586206896548e-01 0.000000000000e+00 0.000000000000e+00 5.000000000000e+04 0.000000000000e+00 -5.000000000000e+04 1.000000000000e-02 9.900000000000e-01 0.000000000000e+00 0.000000000000e+00 0.000000000000e+00 0.000000000000e+00 
4.482758620685e-01 0.000000000000e+00 0.000000000000e+00 5.000000000000e+04 0.000000000000e+00 -5.000000000000e+04 1.000000000000e-02 9.900000000000e-01 0.000000000000e+00 0.000000000000e+00 0.000000000000e+00 0.000000000000e+00 
5.379310344822e-01 0.000000000000e+00 0.000000000000e+00 5.000000000000e+04 0.000000000000e+00 -5.000000000000e+04 1.000000000000e-02 9.900000000000e-01 0.000000000000e+00 0.000000000000e+00 0.000000000000e+00 0.000000000000e+00 
6.275862068960e-01 0.000000000000e+00 0.000000000000e+00 5.000000000000e+04 0.000000000000e+00 -5.000000000000e+04 1.000000000000e-02 9.900000000000e-01 0.000000000000e+00 0.000000000000e+00 0.000000000000e+00 0.000000000000e+00 
7.172413793105e-01 5.000000000000e-01 0.000000000000e+00 5.000000000000e+04 0.000000000000e+00 -5.000000000000e+04 1.000000000000e-02 9.900000000000e-01 0.000000000000e+00 0.000000000000e+00 0.000000000000e+00 0.000000000000e+00 
6.275862068966e-01 5.000000000000e-01 0.000000000000e+00 5.000000000000e+04 0.000000000000e+00 -5.000000000000e+04 1.000000000000e-02 9.900000000000e-01 0.000000000000e+00 0.000000000000e+00 0.000000000000e+00 0.000000000000e+00 
5.379310344828e-01 5.000000000000e-01 0.000000000000e+00 5.000000000000e+04 0.000000000000e+00 -5.000000000000e+04 1.000000000000e-02 9.900000000000e-01 0.000000000000e+00 0.000000000000e+00 0.000000000000e+00 0.000000000000e+00 
4.482758620690e-01 5.000000000000e-01 0.000000000000e+00 5.000000000000e+04 0.000000000000e+00 -5.000000000000e+04 1.000000000000e-02 9.900000000000e-01 0.000000000000e+00 0.000000000000e+00 0.000000000000e+00 0.000000000000e+00 
3.586206896552e-01 5.000000000000e-01 0.000000000000e+00 5.000000000000e+04 0.000000000000e+00 -5.000000000000e+04 1.000000000000e-02 9.900000000000e-01 0.000000000000e+00 0.000000000000e+00 0.000000000000e+00 0.000000000000e+00 
2.689655172414e-01 5.000000000000e-01 0.000000000000e+00 5.000000000000e+04 0.000000000000e+00 -5.000000000000e+04 1.000000000000e-02 9.900000000000e-01 0.000000000000e+00 0.000000000000e+00 0.000000000000e+00 0.000000000000e+00 
1.793103448276e-01 5.000000000000e-01 0.000000000000e+00 5.000000000000e+04 0.000000000000e+00 -5.000000000000e+04 1.000000000000e-02 9.900000000000e-01 0.000000000000e+00 0.000000000000e+00 0.000000000000e+00 0.000000000000e+00 
8.965517241379e-02 5.000000000000e-01 0.000000000000e+00 5.000000000000e+04 0.000000000000e+00 -5.000000000000e+04 1.000000000000e-02 9.900000000000e-01 0.000000000000e+00 0.000000000000e+00 0.000000000000e+00 0.000000000000e+00 
0.000000000000e+00 4.166666666668e-01 0.000000000000e+00 5.000000000000e+04 0.000000000000e+00 -5.000000000000e+04 1.000000000000e-02 9.900000000000e-01 0.000000000000e+00 0.000000000000e+00 0.000000000000e+00 0.000000000000e+00 
0.000000000000e+00 3.333333333337e-01 0.000000000000e+00 5.000000000000e+04 0.000000000000e+00 -5.000000000000e+04 1.000000000000e-02 9.900000000000e-01 0.000000000000e+00 0.000000000000e+00 0.000000000000e+00 0.000000000000e+00 
0.000000000000e+00 2.500000000007e-01 0.000000000000e+00 5.000000000000e+04 0.000000000000e+00 -5.000000000000e+04 1.000000000000e-02 9.900000000000e-01 0.000000000000e+00 0.000000000000e+00 0.000000000000e+00 0.000000000000e+00 
0.000000000000e+00 1.666666666672e-01 0.000000000000e+00 5.000000000000e+04 0.000000000000e+00 -5.000000000000e+04 1.000000000000e-02 9.900000000000e-01 0.000000000000e+00 0.000000000000e+00 0.000000000000e+00 0.000000000000e+00 
0.000000000000e+00 8.333333333368e-02 0.000000000000e+00 5.000000000000e+04 0.000000000000e+00 -5.000000000000e+04 1.000000000000e-02 9.900000000000e-01 0.000000000000e+00 0.000000000000e+00 0.000000000000e+00 0.000000000000e+00 
8.965517241378e-02 4.166666666668e-01 0.000000000000e+00 5.000000000000e+04 0.000000000000e+00 -5.000000000000e+04 1.000000000000e-02 9.900000000000e-01 0.000000000000e+00 0.000000000000e+00 0.000000000000e+00 0.000000000000e+00 
1.793103448276e-01 4.166666666668e-01 0.000000000000e+00 5.000000000000e+04 0.000000000000e+00 -5.000000000000e+04 1.000000000000e-02 9.900000000000e-01 0.000000000000e+00 0.000000000000e+00 0.000000000000e+00 0.000000000000e+00 
2.689655172413e-01 4.166666666667e-01 0.000000000000e+00 5.000000000000e+04 0.000000000000e+00 -5.000000000000e+04 1.000000000000e-02 9.900000000000e-01 0.000000000000e+00 0.000000000000e+00 0.000000000000e+00 0.000000000000e+00 
3.586206896551e-01 4.166666666667e-01 0.000000000000e+00 5.000000000000e+04 0.000000000000e+00 -5.000000000000e+04 1.000000000000e-02 9.900000000000e-01 0.000000000000e+00 0.000000000000e+00 0.000000000000e+00 0.000000000000e+00 
4.482758620689e-01 4.166666666667e-01 0.000000000000e+00 5.000000000000e+04 0.000000000000e+00 -5.000000000000e+04 1.000000000000e-02 9.900000000000e-01 0.000000000000e+00 0.000000000000e+00 0.000000000000e+00 0.000000000000e+00 
5.379310344827e-01 4.166666666667e-01 0.000000000000e+00 5.000000000000e+04 0.000000000000e+00 -5.000000000000e+04 1.000000000000e-02 9.900000000000e-01 0.000000000000e+00 0.000000000000e+00 0.000000000000e+00 0.000000000000e+00 
6.275862068965e-01 4.166666666667e-01 0.000000000000e+00 5.000000000000e+04 0.000000000000e+00 -5.000000000000e+04 1.000000000000e-02 9.900000000000e-01 0.000000000000e+00 0.000000000000e+00 0.000000000000e+00 0.000000000000e+00 
7.172413793104e-01 4.166666666667e-01 0.000000000000e+00 5.000000000000e+04 0.000000000000e+00 -5.000000000000e+04 1.000000000000e-02 9.900000000000e-01 0.000000000000e+00 0.000000000000e+00 0.000000000000e+00 0.000000000000e+00 
8.965517241376e-02 3.333333333337e-01 0.000000000000e+00 5.000000000000e+04 0.000000000000e+00 -5.000000000000e+04 1.000000000000e-02 9.900000000000e-01 0.000000000000e+00 0.000000000000e+00 0.000000000000e+00 0.000000000000e+00 
1.793103448275e-01 3.333333333336e-01 0.000000000000e+00 5.000000000000e+04 0.000000000000e+00 -5.000000000000e+04 1.000000000000e-02 9.900000000000e-01 0.000000000000e+00 0.000000000000e+00 0.000000000000e+00 0.000000000000e+00 
2.689655172413e-01 3.333333333336e-01 0.000000000000e+00 5.000000000000e+04 0.000000000000e+00 -5.000000000000e+04 1.000000000000e-02 9.900000000000e-01 0.000000000000e+00 0.000000000000e+00 0.000000000000e+00 0.000000000000e+00 
3.586206896551e-01 3.333333333336e-01 0.000000000000e+00 5.000000000000e+04 0.000000000000e+00 -5.000000000000e+04 1.000000000000e-02 9.900000000000e-01 0.000000000000e+00 0.000000000000e+00 0.000000000000e+00 0.000000000000e+00 
4.482758620688e-01 3.333333333336e-01 0.000000000000e+00 5.000000000000e+04 0.000000000000e+00 -5.000000000000e+04 1.000000000000e-02 9.900000000000e-01 0.000000000000e+00 0.000000000000e+00 0.000000000000e+00 0.000000000000e+00 
5.379310344826e-01 3.333333333335e-01 0.000000000000e+00 5.000000000000e+04 0.000000000000e+00 -5.000000000000e+04 1.000000000000e-02 9.900000000000e-01 0.000000000000e+00 0.000000000000e+00 0.000000000000e+00 0.000000000000e+00 
6.275862068964e-01 3.333333333335e-01 0.000000000000e+00 5.000000000000e+04 0.000000000000e+00 -5.000000000000e+04 1.000000000000e-02 9.900000000000e-01 0.000000000000e+00 0.000000000000e+00 0.000000000000e+00 0.000000000000e+00 
7.172413793102e-01 3.333333333335e-01 0.000000000000e+00 5.000000000000e+04 0.000000000000e+00 -5.000000000000e+04 1.000000000000e-02 9.900000000000e-01 0.000000000000e+00 0.000000000000e+00 0.000000000000e+00 0.000000000000e+00 
8.965517241375e-02 2.500000000007e-01 0.000000000000e+00 5.000000000000e+04 0.000000000000e+00 -5.000000000000e+04 1.000000000000e-02 9.900000000000e-01 0.000000000000e+00 0.000000000000e+00 0.000000000000e+00 0.000000000000e+00 
1.793103448275e-01 2.500000000006e-01 0.000000000000e+00 5.000000000000e+04 0.000000000000e+00 -5.000000000000e+04 1.000000000000e-02 9.900000000000e-01 0.000000000000e+00 0.000000000000e+00 0.000000000000e+00 0.000000000000e+00 
2.689655172413e-01 2.500000000006e-01 0.000000000000e+00 5.000000000000e+04 0.000000000000e+00 -5.000000000000e+04 1.000000000000e-02 9.900000000000e-01 0.000000000000e+00 0.000000000000e+00 0.000000000000e+00 0.000000000000e+00 
3.586206896550e-01 2.500000000005e-01 0.000000000000e+00 5.000000000000e+04 0.000000000000e+00 -5.000000000000e+04 1.000000000000e-02 9.900000000000e-01 0.000000000000e+00 0.000000000000e+00 0.000000000000e+00 0.000000000000e+00 
4.482758620688e-01 2.500000000005e-01 0.000000000000e+00 5.000000000000e+04 0.000000000000e+00 -5.000000000000e+04 1.000000000000e-02 9.900000000000e-01 0.000000000000e+00 0.000000000000e+00 0.000000000000e+00 0.000000000000e+00 
5.379310344825e-01 2.500000000004e-01 0.000000000000e+00 5.000000000000e+04 0.000000000000e+00 -5.000000000000e+04 1.000000000000e-02 9.900000000000e-01 0.000000000000e+00 0.000000000000e+00 0.000000000000e+00 0.000000000000e+00 
8.965517241374e-02 1.666666666672e-01 0.000000000000e+00 5.000000000000e+04 0.000000000000e+00 -5.000000000000e+04 1.000000000000e-02 9.900000000000e-01 0.000000000000e+00 0.000000000000e+00 0.000000000000e+00 0.000000000000e+00 
1.793103448275e-01 1.666666666672e-01 0.000000000000e+00 5.000000000000e+04 0.000000000000e+00 -5.000000000000e+04 1.000000000000e-02 9.900000000000e-01 0.000000000000e+00 0.000000000000e+00 0.000000000000e+00 0.000000000000e+00 
4.482758620687e-01 1.666666666671e-01 0.000000000000e+00 5.000000000000e+04 0.000000000000e+00 -5.000000000000e+04 1.000000000000e-02 9.900000000000e-01 0.000000000000e+00 0.000000000000e+00 0.000000000000e+00 0.000000000000e+00 
5.379310344824e-01 1.666666666670e-01 0.000000000000e+00 5.000000000000e+04 0.000000000000e+00 -5.000000000000e+04 1.000000000000e-02 9.900000000000e-01 0.000000000000e+00 0.000000000000e+00 0.000000000000e+00 0.000000000000e+00 
8.965517241372e-02 8.333333333366e-02 0.000000000000e+00 5.000000000000e+04 0.000000000000e+00 -5.000000000000e+04 1.000000000000e-02 9.900000000000e-01 0.000000000000e+00 0.000000000000e+00 0.000000000000e+00 0.000000000000e+00 
1.793103448274e-01 8.333333333364e-02 0.000000000000e+00 5.000000000000e+04 0.000000000000e+00 -5.000000000000e+04 1.000000000000e-02 9.900000000000e-01 0.000000000000e+00 0.000000000000e+00 0.000000000000e+00 0.000000000000e+00 
2.689655172412e-01 8.333333333362e-02 0.000000000000e+00 5.000000000000e+04 0.000000000000e+00 -5.000000000000e+04 1.000000000000e-02 9.900000000000e-01 0.000000000000e+00 0.000000000000e+00 0.000000000000e+00 0.000000000000e+00 
3.586206896549e-01 8.333333333360e-02 0.000000000000e+00 5.000000000000e+04 0.000000000000e+00 -5.000000000000e+04 1.000000000000e-02 9.900000000000e-01 0.000000000000e+00 0.000000000000e+00 0.000000000000e+00 0.000000000000e+00 
4.482758620686e-01 8.333333333359e-02 0.000000000000e+00 5.000000000000e+04 0.000000000000e+00 -5.000000000000e+04 1.000000000000e-02 9.900000000000e-01 0.000000000000e+00 0.000000000000e+00 0.000000000000e+00 0.000000000000e+00 
5.379310344823e-01 8.333333333357e-02 0.000000000000e+00 5.000000000000e+04 0.000000000000e+00 -5.000000000000e+04 1.000000000000e-02 9.900000000000e-01 0.000000000000e+00 0.000000000000e+00 0.000000000000e+00 0.000000000000e+00 
6.275862068961e-01 8.333333333355e-02 0.000000000000e+00 5.000000000000e+04 0.000000000000e+00 -5.000000000000e+04 1.000000000000e-02 9.900000000000e-01 0.000000000000e+00 0.000000000000e+00 0.000000000000e+00 0.000000000000e+00 
7.172413793097e-01 0.000000000000e+00 0.000000000000e+00 5.000000000000e+04 0.000000000000e+00 -5.000000000000e+04 1.000000000000e-02 9.900000000000e-01 0.000000000000e+00 0.000000000000e+00 0.000000000000e+00 0.000000000000e+00 
7.172413793098e-01 8.333333333353e-02 0.000000000000e+00 5.000000000000e+04 0.000000000000e+00 -5.000000000000e+04 1.000000000000e-02 9.900000000000e-01 0.000000000000e+00 0.000000000000e+00 0.000000000000e+00 0.000000000000e+00 
8.068965517243e-01 4.166666666667e-01 0.000000000000e+00 5.000000000000e+04 0.000000000000e+00 -5.000000000000e+04 1.000000000000e-02 9.900000000000e-01 0.000000000000e+00 0.000000000000e+00 0.000000000000e+00 0.000000000000e+00 
8.068965517245e-01 5.000000000000e-01 0.000000000000e+00 5.000000000000e+04 0.000000000000e+00 -5.000000000000e+04 1.000000000000e-02 9.900000000000e-01 0.000000000000e+00 0.000000000000e+00 0.000000000000e+00 0.000000000000e+00 
8.068965517241e-01 3.333333333335e-01 0.000000000000e+00 5.000000000000e+04 0.000000000000e+00 -5.000000000000e+04 1.000000000000e-02 9.900000000000e-01 0.000000000000e+00 0.000000000000e+00 0.000000000000e+00 0.000000000000e+00 
6.275862068963e-01 2.500000000004e-01 0.000000000000e+00 5.000000000000e+04 0.000000000000e+00 -5.000000000000e+04 1.000000000000e-02 9.900000000000e-01 0.000000000000e+00 0.000000000000e+00 0.000000000000e+00 0.000000000000e+00 
7.172413793101e-01 2.500000000004e-01 0.000000000000e+00 5.000000000000e+04 0.000000000000e+00 -5.000000000000e+04 1.000000000000e-02 9.900000000000e-01 0.000000000000e+00 0.000000000000e+00 0.000000000000e+00 0.000000000000e+00 
8.068965517240e-01 2.500000000003e-01 0.000000000000e+00 5.000000000000e+04 0.000000000000e+00 -5.000000000000e+04 1.000000000000e-02 9.900000000000e-01 0.000000000000e+00 0.000000000000e+00 0.000000000000e+00 0.000000000000e+00 
2.689655172412e-01 1.666666666671e-01 0.000000000000e+00 5.000000000000e+04 0.000000000000e+00 -5.000000000000e+04 1.000000000000e-02 9.900000000000e-01 0.000000000000e+00 0.000000000000e+00 0.000000000000e+00 0.000000000000e+00 
3.586206896549e-01 1.666666666671e-01 0.000000000000e+00 5.000000000000e+04 0.000000000000e+00 -5.000000000000e+04 1.000000000000e-02 9.900000000000e-01 0.000000000000e+00 0.000000000000e+00 0.000000000000e+00 0.000000000000e+00 
6.275862068961e-01 1.666666666670e-01 0.000000000000e+00 5.000000000000e+04 0.000000000000e+00 -5.000000000000e+04 1.000000000000e-02 9.900000000000e-01 0.000000000000e+00 0.000000000000e+00 0.000000000000e+00 0.000000000000e+00 
22  1  3  49  
2  18  23  17  
49  3  4  50  
50  4  5  51  
51  5  6  52  
52  6  7  53  
53  7  8  54  
11  29  30  10  
12  28  29  11  
13  27  28  12  
14  26  27  13  
15  25  26  14  
16  24  25  15  
17  23  24  16  
18  19  31  23  
19  20  39  31  
20  21  45  39  
21  22  49  45  
23  31  32  24  
24  32  33  25  
25  33  34  26  
26  34  35  27  
27  35  36  28  
28  36  37  29  
29  37  38  30  
31  39  40  32  
32  40  41  33  
33  41  42  34  
34  42  43  35  
35  43  44  36  
39  45  46  40  
43  47  48  44  
45  49  50  46  
47  53  54  48  
54  8  9  55  
55  9  56  57  
10  30  58  59  
30  38  60  58  
36  44  61  37  
37  61  62  38  
38  62  63  60  
40  46  64  41  
41  64  65  42  
42  65  47  43  
44  48  66  61  
46  50  51  64  
65  52  53  47  
48  54  55  66  
64  51  52  65  
VARIABLES  = "X","Y","Z", "PRESSURE1", "PRESSURE2", "PRESSURE_W", "SATURATION1", SATURATION2, "VELOCITY_X1", "VELOCITY_Y1", "VELOCITY_X2", "VELOCITY_Y2"
ZONE T="5.000000000000e+02s", N=66, E=49, F=FEPOINT, ET=QUADRILATERAL
STRANDID=1, SOLUTIONTIME=5.000000000000e+02
0.000000000000e+00 0.000000000000e+00 0.000000000000e+00 4.999999997894e+03 1.999999999158e+05 1.949999999179e+05 9.820320600897e-01 1.796793991034e-02 1.051717855387e-04 -1.021950005479e-10 1.692748624548e-05 1.047360703168e-11 
0.000000000000e+00 5.000000000000e-01 0.000000000000e+00 4.999999997894e+03 1.999999999158e+05 1.949999999179e+05 9.820320782442e-01 1.796792175583e-02 1.051700715914e-04 -6.230538933204e-11 1.692747864326e-05 1.058016540772e-11 
8.965517241371e-02 0.000000000000e+00 0.000000000000e+00 6.453205287608e+03 2.013438088682e+05 1.948906035806e+05 5.928132676424e-01 4.071867323576e-01 3.946337615103e-05 -1.744144121782e-10 -8.525782080028e-05 -9.764065062242e-11 
1.793103448274e-01 0.000000000000e+00 0.000000000000e+00 7.230472052577e+03 2.016172576788e+05 1.943867856263e+05 4.750031064186e-01 5.249968935814e-01 4.929067057555e-05 -1.994055652174e-11 -4.573282328300e-05 -9.991245893302e-12 
2.689655172411e-01 0.000000000000e+00 0.000000000000e+00 8.670748857871e+03 2.017335274939e+05 1.930627786360e+05 2.574007665059e-01 7.425992334941e-01 2.248847489760e-05 9.254217630028e-12 -2.853180000325e-05 -2.100637182192e-10 
3.586206896548e-01 0.000000000000e+00 0.000000000000e+00 4.114040984332e+04 2.017410910498e+05 1.606006812065e+05 5.536147732982e-03 9.944638522670e-01 -1.923650334001e-06 -8.947008907409e-14 -4.193852840665e-06 1.720895991955e-10 
4.482758620685e-01 0.000000000000e+00 0.000000000000e+00 4.999931273212e+04 2.017410001801e+05 1.517416874480e+05 9.939329278712e-03 9.900606707213e-01 3.827189311234e-11 -4.691143199095e-18 9.870158677356e-08 6.108015397599e-10 
5.379310344822e-01 0.000000000000e+00 0.000000000000e+00 4.999999984216e+04 2.017409104786e+05 1.517409106364e+05 1.000000006285e-02 9.899999999371e-01 4.818191708448e-15 5.183122696626e-18 9.663676370856e-08 5.079802658989e-10 
6.275862068960e-01 0.000000000000e+00 0.000000000000e+00 4.999999986804e+04 2.017408233644e+05 1.517408234964e+05 1.000000005278e-02 9.899999999472e-01 9.515183799996e-16 6.948532459554e-18 9.323470520333e-08 6.808743102604e-10 
7.172413793105e-01 5.000000000000e-01 0.000000000000e+00 4.999999986783e+04 2.017407348007e+05 1.517407349329e+05 1.000000005287e-02 9.899999999471e-01 9.099071834271e-16 -8.742435820846e-18 8.917089052764e-08 -8.567609195075e-10 
6.275862068966e-01 5.000000000000e-01 0.000000000000e+00 4.999999986748e+04 2.017408184767e+05 1.517408186092e+05 1.000000005301e-02 9.899999999470e-01 9.517378122227e-16 -1.001971580334e-17 9.325632376914e-08 -9.819339009371e-10 
5.379310344828e-01 5.000000000000e-01 0.000000000000e+00 4.999999984191e+04 2.017409054312e+05 1.517409055893e+05 1.000000006295e-02 9.899999999370e-01 4.816291924068e-15 -2.220940087777e-18 9.645151785665e-08 -2.176542489260e-10 
4.482758620690e-01 5.000000000000e-01 0.000000000000e+00 4.999931273327e+04 2.017409949534e+05 1.517416822202e+05 9.939329455470e-03 9.900606705445e-01 3.827187970733e-11 1.385080784685e-17 9.815751622103e-08 -5.081071412391e-10 
3.586206896552e-01 5.000000000000e-01 0.000000000000e+00 4.114042113035e+04 2.017410850071e+05 1.606006638768e+05 5.536144502736e-03 9.944638554973e-01 -1.923646969673e-06 3.563355362636e-13 -4.193890927533e-06 4.283893863918e-10 
2.689655172414e-01 5.000000000000e-01 0.000000000000e+00 8.670750991064e+03 2.017335221709e+05 1.930627711798e+05 2.574006309650e-01 7.425993690350e-01 2.248846262013e-05 -3.631797226557e-11 -2.853072137398e-05 6.580261289270e-11 
1.793103448276e-01 5.000000000000e-01 0.000000000000e+00 7.230471301337e+03 2.016172561342e+05 1.943867848329e+05 4.750031962585e-01 5.249968037415e-01 4.929095070363e-05 -2.458737708421e-10 -4.573206477461e-05 -6.227682885336e-10 
8.965517241379e-02 5.000000000000e-01 0.000000000000e+00 6.453204420422e+03 2.013438097980e+05 1.948906053775e+05 5.928134334107e-01 4.071865665893e-01 3.946353357424e-05 -1.229718876302e-10 -8.525763002487e-05 -8.332186228630e-11 
0.000000000000e+00 4.166666666668e-01 0.000000000000e+00 4.999999997894e+03 1.999999999158e+05 1.949999999179e+05 9.820320821947e-01 1.796791780530e-02 1.051707051159e-04 -1.821254988418e-10 1.692746380135e-05 1.107701520940e-11 
0.000000000000e+00 3.333333333337e-01 0.000000000000e+00 4.999999997894e+03 1.999999999158e+05 1.949999999179e+05 9.820320349927e-01 1.796796500735e-02 1.051737256822e-04 -2.099311625038e-10 1.692750237893e-05 1.395968987243e-11 
0.000000000000e+00 2.500000000007e-01 0.000000000000e+00 4.999999997894e+03 1.999999999158e+05 1.949999999179e+05 9.820320363222e-01 1.796796367775e-02 1.051749200666e-04 -3.333443135287e-11 1.692748452785e-05 3.331272844738e-12 
0.000000000000e+00 1.666666666672e-01 0.000000000000e+00 4.999999997894e+03 1.999999999158e+05 1.949999999179e+05 9.820320314343e-01 1.796796856568e-02 1.051743977502e-04 2.068343926842e-10 1.692749946478e-05 -1.866329902508e-11 
0.000000000000e+00 8.333333333368e-02 0.000000000000e+00 4.999999997894e+03 1.999999999158e+05 1.949999999179e+05 9.820320651083e-01 1.796793489166e-02 1.051707550163e-04 1.301129549733e-10 1.692749143834e-05 -8.585001194423e-12 
8.965517241378e-02 4.166666666668e-01 0.000000000000e+00 6.453204231718e+03 2.013438089534e+05 1.948906047216e+05 5.928134649607e-01 4.071865350393e-01 3.946379222512e-05 -3.091526798745e-10 -8.525747694535e-05 -1.014140908576e-10 
1.793103448276e-01 4.166666666668e-01 0.000000000000e+00 7.230472826734e+03 2.016172537455e+05 1.943867809187e+05 4.750029821175e-01 5.249970178825e-01 4.929097420340e-05 -1.586921965784e-11 -4.573223258844e-05 -9.649185034916e-11 
2.689655172413e-01 4.166666666667e-01 0.000000000000e+00 8.670756302499e+03 2.017335223299e+05 1.930627660274e+05 2.574003337922e-01 7.425996662078e-01 2.248836915523e-05 5.329724511992e-12 -2.853140224742e-05 4.691252320207e-10 
3.586206896551e-01 4.166666666667e-01 0.000000000000e+00 4.114043057755e+04 2.017410853718e+05 1.606006547942e+05 5.536147653611e-03 9.944638523464e-01 -1.923639987640e-06 -3.320593243194e-14 -4.193574653780e-06 7.635736535986e-10 
4.482758620689e-01 4.166666666667e-01 0.000000000000e+00 4.999931273306e+04 2.017409945210e+05 1.517416817880e+05 9.939329603895e-03 9.900606703961e-01 3.827187435117e-11 3.235649942693e-18 9.845807258193e-08 4.379702994957e-10 
5.379310344827e-01 4.166666666667e-01 0.000000000000e+00 4.999999984191e+04 2.017409052461e+05 1.517409054042e+05 1.000000006295e-02 9.899999999370e-01 4.818538246355e-15 3.013038609633e-18 9.667154465707e-08 2.953532776761e-10 
6.275862068965e-01 4.166666666667e-01 0.000000000000e+00 4.999999986748e+04 2.017408176417e+05 1.517408177742e+05 1.000000005301e-02 9.899999999470e-01 9.547686280192e-16 2.222794643899e-18 9.355334454186e-08 2.179991735387e-10 
7.172413793104e-01 4.166666666667e-01 0.000000000000e+00 4.999999986783e+04 2.017407340722e+05 1.517407342044e+05 1.000000005287e-02 9.899999999471e-01 9.054652846000e-16 3.098128546863e-18 8.873558406907e-08 3.037819075340e-10 
8.965517241376e-02 3.333333333337e-01 0.000000000000e+00 6.453206486416e+03 2.013438080294e+05 1.948906015430e+05 5.928130427038e-01 4.071869572962e-01 3.946336799641e-05 -3.415173833480e-10 -8.525783811529e-05 -1.413394741150e-10 
1.793103448275e-01 3.333333333336e-01 0.000000000000e+00 7.230471514594e+03 2.016172554968e+05 1.943867839822e+05 4.750031724643e-01 5.249968275357e-01 4.929081234101e-05 1.871446317947e-10 -4.573246109684e-05 4.073679152950e-10 
2.689655172413e-01 3.333333333336e-01 0.000000000000e+00 8.670751536751e+03 2.017335237099e+05 1.930627721732e+05 2.574006024451e-01 7.425993975549e-01 2.248844314061e-05 3.210275974771e-11 -2.853111810923e-05 1.037662142639e-09 
3.586206896551e-01 3.333333333336e-01 0.000000000000e+00 4.114042098332e+04 2.017410862897e+05 1.606006653064e+05 5.536145497029e-03 9.944638545030e-01 -1.923646359442e-06 -3.017715518498e-13 -4.193455713342e-06 1.582486020265e-09 
4.482758620688e-01 3.333333333336e-01 0.000000000000e+00 4.999931273283e+04 2.017409956979e+05 1.517416829651e+05 9.939329453339e-03 9.900606705467e-01 3.827188350327e-11 -1.758224314947e-18 9.858405289260e-08 1.334361340077e-09 
5.379310344826e-01 3.333333333335e-01 0.000000000000e+00 4.999999984203e+04 2.017409059335e+05 1.517409060915e+05 1.000000006290e-02 9.899999999371e-01 4.818380265850e-15 1.384101309527e-17 9.665578584201e-08 1.356553872552e-09 
6.275862068964e-01 3.333333333335e-01 0.000000000000e+00 4.999999986776e+04 2.017408188474e+05 1.517408189797e+05 1.000000005290e-02 9.899999999471e-01 9.516587294984e-16 7.939400564944e-18 9.324848939520e-08 7.784340168758e-10 
7.172413793102e-01 3.333333333335e-01 0.000000000000e+00 4.999999986811e+04 2.017407353174e+05 1.517407354492e+05 1.000000005276e-02 9.899999999472e-01 8.978400214950e-16 1.689094362342e-17 8.798852888394e-08 1.655273880112e-09 
8.965517241375e-02 2.500000000007e-01 0.000000000000e+00 6.453206422905e+03 2.013438067246e+05 1.948906003017e+05 5.928130569498e-01 4.071869430502e-01 3.946316448678e-05 -5.007548550200e-11 -8.525792839507e-05 -3.828049042092e-11 
1.793103448275e-01 2.500000000006e-01 0.000000000000e+00 7.230470673201e+03 2.016172571078e+05 1.943867864346e+05 4.750032839094e-01 5.249967160906e-01 4.929075406539e-05 8.931052225023e-11 -4.573281451391e-05 2.638421612675e-10 
2.689655172413e-01 2.500000000006e-01 0.000000000000e+00 8.670750871836e+03 2.017335256433e+05 1.930627747715e+05 2.574006408718e-01 7.425993591282e-01 2.248845402611e-05 2.054046065390e-11 -2.853111521485e-05 1.009520131564e-09 
3.586206896550e-01 2.500000000005e-01 0.000000000000e+00 4.114041798637e+04 2.017410880279e+05 1.606006700416e+05 5.536146191173e-03 9.944638538088e-01 -1.923647390676e-06 -2.106519318758e-13 -4.192996338130e-06 1.947144750138e-09 
4.482758620688e-01 2.500000000005e-01 0.000000000000e+00 4.999931273225e+04 2.017409967899e+05 1.517416840576e+05 9.939329406520e-03 9.900606705935e-01 3.827188571241e-11 2.508423184447e-19 9.864892127301e-08 1.673351324181e-09 
5.379310344825e-01 2.500000000004e-01 0.000000000000e+00 4.999999984213e+04 2.017409075532e+05 1.517409077111e+05 1.000000006286e-02 9.899999999371e-01 4.823816390387e-15 1.920586197021e-17 9.718801636579e-08 1.882309094369e-09 
8.965517241374e-02 1.666666666672e-01 0.000000000000e+00 6.453206656386e+03 2.013438074976e+05 1.948906008412e+05 5.928130119226e-01 4.071869880774e-01 3.946315098274e-05 3.480584911948e-10 -8.525798490850e-05 1.723995299342e-10 
1.793103448275e-01 1.666666666672e-01 0.000000000000e+00 7.230471023311e+03 2.016172577002e+05 1.943867866769e+05 4.750032426903e-01 5.249967573097e-01 4.929068204869e-05 -1.757144155547e-11 -4.573289139454e-05 7.516138002525e-11 
4.482758620687e-01 1.666666666671e-01 0.000000000000e+00 4.999931273201e+04 2.017409985432e+05 1.517416858112e+05 9.939329241169e-03 9.900606707588e-01 3.827189405341e-11 1.210320119449e-17 9.862915737384e-08 1.688172783769e-09 
5.379310344824e-01 1.666666666670e-01 0.000000000000e+00 4.999999984226e+04 2.017409091347e+05 1.517409092925e+05 1.000000006281e-02 9.899999999372e-01 4.816143812458e-15 1.496062907055e-17 9.643612241802e-08 1.466145767361e-09 
8.965517241372e-02 8.333333333366e-02 0.000000000000e+00 6.453205047881e+03 2.013438097043e+05 1.948906046564e+05 5.928133140175e-01 4.071866859825e-01 3.946339159717e-05 2.170760158568e-10 -8.525779134888e-05 8.027329677057e-11 
1.793103448274e-01 8.333333333364e-02 0.000000000000e+00 7.230471639586e+03 2.016172577107e+05 1.943867860711e+05 4.750031562592e-01 5.249968437408e-01 4.929074152590e-05 -3.677510843528e-11 -4.573275143917e-05 -1.201058340669e-12 
2.689655172412e-01 8.333333333362e-02 0.000000000000e+00 8.670750097224e+03 2.017335278200e+05 1.930627777228e+05 2.574006901490e-01 7.425993098510e-01 2.248845486466e-05 6.103284964426e-12 -2.853170444931e-05 1.471490044737e-10 
3.586206896549e-01 8.333333333360e-02 0.000000000000e+00 4.114041500018e+04 2.017410908956e+05 1.606006758954e+05 5.536146696715e-03 9.944638533033e-01 -1.923648496657e-06 -2.884556476444e-14 -4.193385630801e-06 8.648972703313e-10 
4.482758620686e-01 8.333333333359e-02 0.000000000000e+00 4.999931273201e+04 2.017409996606e+05 1.517416869286e+05 9.939329359731e-03 9.900606706403e-01 3.827189015176e-11 1.143834263362e-17 9.885343027308e-08 9.625596942235e-10 
5.379310344823e-01 8.333333333357e-02 0.000000000000e+00 4.999999984213e+04 2.017409100466e+05 1.517409102045e+05 1.000000006286e-02 9.899999999371e-01 4.818524407382e-15 8.063832976925e-18 9.666926835745e-08 7.902003652313e-10 
6.275862068961e-01 8.333333333355e-02 0.000000000000e+00 4.999999986811e+04 2.017408227854e+05 1.517408229173e+05 1.000000005276e-02 9.899999999472e-01 9.563975104208e-16 7.394402597571e-18 9.370829397995e-08 7.247072823966e-10 
7.172413793097e-01 0.000000000000e+00 0.000000000000e+00 4.999999986829e+04 2.017407398876e+05 1.517407400194e+05 1.000000005268e-02 9.899999999473e-01 9.310896460182e-16 -2.812961299291e-18 9.124669218196e-08 -2.751931500614e-10 
7.172413793098e-01 8.333333333353e-02 0.000000000000e+00 4.999999986789e+04 2.017407401217e+05 1.517407402538e+05 1.000000005285e-02 9.899999999472e-01 9.220164627424e-16 -2.812961605449e-18 9.035803975367e-08 -2.751930825751e-10 
8.068965517243e-01 4.166666666667e-01 0.000000000000e+00 4.999999986783e+04 2.017406552828e+05 1.517406554150e+05 1.000000005287e-02 9.899999999471e-01 8.788047868720e-16 1.520539657121e-17 8.612304214153e-08 1.490057241911e-09 