 TITLE = "Time curves in points"
 VARIABLES = "TIME "  "PRESSURE1"  "PRESSURE2"  "PRESSURE_W"  "SATURATION1" SATURATION2  "VELOCITY_X1"  "VELOCITY_Y1"  "VELOCITY_X2"  "VELOCITY_Y2" 
 ZONE T="POINT=POINT4"
0.000000000000e+00 5.000000000000e+04 0.000000000000e+00 -5.000000000000e+04 1.000000000000e-02 9.900000000000e-01 0.000000000000e+00 0.000000000000e+00 0.000000000000e+00 0.000000000000e+00 
5.000000000000e+00 4.999999999986e+03 1.999999999995e+05 1.949999999995e+05 3.345535831814e-01 6.654464168186e-01 3.574472583127e-04 -4.154084474338e-14 -4.128319323142e-05 3.879530821546e-12 
1.000000000000e+01 4.999999999999e+03 2.000000000000e+05 1.950000000000e+05 4.104307977849e-01 5.895692022151e-01 6.383557035235e-04 2.571063397072e-14 -5.541442703568e-05 7.311709780693e-13 
1.500000000000e+01 5.000000000000e+03 2.000000000000e+05 1.950000000000e+05 5.087274660252e-01 4.912725339748e-01 1.118490787514e-03 1.412286582563e-13 -5.764971913815e-05 -5.660300442347e-13 
2.000000000000e+01 5.000000000000e+03 2.000000000000e+05 1.950000000000e+05 6.174610926721e-01 3.825389073279e-01 1.719757879107e-03 3.325506423634e-13 -2.763933587408e-05 -1.209432872780e-12 
2.500000000000e+01 5.000000000000e+03 2.000000000000e+05 1.950000000000e+05 7.178518642878e-01 2.821481357122e-01 2.170022382139e-03 -3.133644579971e-14 2.850675288682e-05 2.150804134707e-12 
3.000000000000e+01 4.999999999568e+03 1.999999999827e+05 1.949999999831e+05 7.978654157290e-01 2.021345842710e-01 2.257864610308e-03 -1.022531938078e-12 7.922881174684e-05 1.391744514980e-11 
3.500000000000e+01 5.000000000001e+03 2.000000000000e+05 1.950000000000e+05 8.556470638034e-01 1.443529361966e-01 2.013381822857e-03 5.934327803726e-12 1.052999517349e-04 2.069973810862e-12 
4.000000000000e+01 5.000000000095e+03 2.000000000038e+05 1.950000000037e+05 8.949860201009e-01 1.050139798991e-01 1.609519619021e-03 4.415811320286e-12 1.079304663040e-04 4.176816199055e-12 
4.500000000000e+01 5.000000000001e+03 2.000000000001e+05 1.950000000001e+05 9.210673127599e-01 7.893268724009e-02 1.207652980363e-03 6.218902156775e-12 9.702708055917e-05 1.380193983440e-12 
5.000000000000e+01 4.999999999991e+03 1.999999999997e+05 1.949999999997e+05 9.383627625980e-01 6.163723740205e-02 8.858636149655e-04 5.786034833243e-12 8.184480013411e-05 6.360426357879e-13 
6.000000000000e+01 4.999999999844e+03 1.999999999938e+05 1.949999999939e+05 9.563549649873e-01 4.364503501272e-02 5.299884728437e-04 -1.235823754563e-11 5.836828857045e-05 1.150773226425e-11 
7.000000000000e+01 4.999999999999e+03 1.999999999999e+05 1.949999999999e+05 9.662049614170e-01 3.379503858296e-02 3.442182191459e-04 5.697112019319e-13 4.274507631010e-05 5.268847820717e-12 
8.000000000000e+01 5.000000000029e+03 2.000000000012e+05 1.950000000011e+05 9.718306226859e-01 2.816937731412e-02 2.482436322233e-04 5.022120983488e-12 3.337900203736e-05 2.026573236342e-12 
9.000000000000e+01 5.000000000009e+03 2.000000000004e+05 1.950000000004e+05 9.749962935396e-01 2.500370646041e-02 1.988266592283e-04 1.493775572118e-11 2.812073778538e-05 -3.683510917490e-12 
1.000000000000e+02 4.999999999957e+03 1.999999999983e+05 1.949999999983e+05 9.765908770698e-01 2.340912293023e-02 1.754711837163e-04 -3.040013753552e-11 2.550496141242e-05 1.071091687226e-11 
1.100000000000e+02 4.999999999790e+03 1.999999999916e+05 1.949999999918e+05 9.771574569993e-01 2.284254300070e-02 1.675855588587e-04 1.434521904196e-11 2.458122455072e-05 -6.268464949001e-13 
1.200000000000e+02 4.999999999998e+03 1.999999999999e+05 1.949999999999e+05 9.770872385790e-01 2.291276142103e-02 1.683526917563e-04 -4.881971311096e-13 2.469901685051e-05 1.554803430801e-12 
1.300000000000e+02 4.999999998334e+03 1.999999999334e+05 1.949999999350e+05 9.766903520032e-01 2.330964799676e-02 1.737474706304e-04 1.577766216209e-11 2.534837676635e-05 -4.479455374057e-12 
1.400000000000e+02 4.999999999991e+03 1.999999999996e+05 1.949999999996e+05 9.761954563887e-01 2.380454361134e-02 1.811842993359e-04 -2.375438346637e-13 2.615019459498e-05 -1.522445981025e-12 
1.500000000000e+02 5.000000000098e+03 2.000000000039e+05 1.950000000038e+05 9.757267453204e-01 2.427325467964e-02 1.880646387985e-04 2.914478751391e-12 2.691729817687e-05 -2.330268468603e-12 
1.600000000000e+02 5.000000000608e+03 2.000000000243e+05 1.950000000237e+05 9.753450665637e-01 2.465493343628e-02 1.934692147914e-04 -1.236448913209e-11 2.754908645208e-05 2.815113972046e-12 
1.700000000000e+02 5.000000000137e+03 2.000000000055e+05 1.950000000053e+05 9.750809779744e-01 2.491902202562e-02 1.974884958842e-04 -4.060302496476e-11 2.798247346486e-05 1.476751855981e-11 
1.800000000000e+02 5.000000000000e+03 2.000000000000e+05 1.950000000000e+05 9.749366877813e-01 2.506331221866e-02 1.997153082263e-04 1.288388865784e-11 2.821918189891e-05 2.089702765680e-12 
1.900000000000e+02 5.000000000000e+03 2.000000000000e+05 1.950000000000e+05 9.749054426574e-01 2.509455734262e-02 2.000202033399e-04 8.663958383836e-12 2.827400474841e-05 1.355043045186e-12 
2.000000000000e+02 5.000000000000e+03 2.000000000000e+05 1.950000000000e+05 9.749889716689e-01 2.501102833108e-02 1.987934395828e-04 5.659844225961e-12 2.813564033760e-05 1.120485278645e-12 
2.100000000000e+02 5.000000000000e+03 2.000000000000e+05 1.950000000000e+05 9.751872363163e-01 2.481276368367e-02 1.958678313138e-04 4.539821704497e-12 2.780801280827e-05 8.693028699009e-13 
2.200000000000e+02 5.000000000000e+03 2.000000000000e+05 1.950000000000e+05 9.755003216824e-01 2.449967831760e-02 1.912287533172e-04 3.930979515507e-12 2.729254009063e-05 7.281402579839e-13 
2.300000000000e+02 5.000000000000e+03 2.000000000000e+05 1.950000000000e+05 9.759249704847e-01 2.407502951531e-02 1.850028754325e-04 3.728151655494e-12 2.659519229797e-05 6.130948699208e-13 
2.400000000000e+02 5.000000000000e+03 2.000000000000e+05 1.950000000000e+05 9.764494756002e-01 2.355052439980e-02 1.774237691262e-04 3.537874694093e-12 2.573696087631e-05 5.503226092120e-13 
2.500000000000e+02 5.000000000000e+03 2.000000000000e+05 1.950000000000e+05 9.770515949696e-01 2.294840503045e-02 1.688745220127e-04 3.368361190450e-12 2.475651254588e-05 4.958771553583e-13 
2.600000000000e+02 4.999999999998e+03 1.999999999999e+05 1.949999999999e+05 9.777030004963e-01 2.229699950372e-02 1.600587199267e-04 8.638965506198e-13 2.369805323894e-05 1.033133488909e-12 
2.700000000000e+02 4.999999999359e+03 1.999999999744e+05 1.949999999750e+05 9.783650824741e-01 2.163491752586e-02 1.510753818607e-04 2.378470789444e-11 2.263405028408e-05 -4.689968123987e-12 
2.800000000000e+02 5.000000000059e+03 2.000000000024e+05 1.950000000023e+05 9.790028425092e-01 2.099715749081e-02 1.425267086806e-04 -2.126070368310e-12 2.161889756856e-05 -2.004037478925e-13 
2.900000000000e+02 4.999999999701e+03 1.999999999880e+05 1.949999999883e+05 9.795876471158e-01 2.041235288418e-02 1.348014936526e-04 -1.931264012593e-11 2.069674863910e-05 3.995634930995e-12 
3.000000000000e+02 4.999999999987e+03 1.999999999995e+05 1.949999999995e+05 9.800991626935e-01 1.990083730650e-02 1.280931510742e-04 9.680862074043e-12 1.989810789257e-05 -1.250114762390e-12 
3.100000000000e+02 5.000000000368e+03 2.000000000147e+05 1.950000000144e+05 9.805292775749e-01 1.947072242511e-02 1.227211970571e-04 1.315423904688e-12 1.922919798561e-05 -2.484742002429e-13 
3.200000000000e+02 5.000000000061e+03 2.000000000024e+05 1.950000000024e+05 9.808778702287e-01 1.912212977134e-02 1.186655349246e-04 1.700907750810e-12 1.868752232433e-05 -4.645345514250e-13 
3.300000000000e+02 5.000000000000e+03 2.000000000000e+05 1.950000000000e+05 9.811487121367e-01 1.885128786325e-02 1.155693695223e-04 -7.537481420545e-13 1.826899102614e-05 -9.789310354037e-14 
3.400000000000e+02 5.000000000000e+03 2.000000000000e+05 1.950000000000e+05 9.813497877871e-01 1.865021221288e-02 1.132323866497e-04 -9.055753711656e-13 1.796059416021e-05 -4.549731249537e-14 
3.500000000000e+02 4.999999998083e+03 1.999999999233e+05 1.949999999252e+05 9.814921933692e-01 1.850780663084e-02 1.115722325064e-04 1.101057794996e-12 1.774318219933e-05 -2.401243012138e-13 
3.600000000000e+02 4.999999995624e+03 1.999999998250e+05 1.949999998294e+05 9.815877870373e-01 1.841221296270e-02 1.104562845982e-04 -1.982984275677e-11 1.759769594498e-05 3.865227042511e-12 
3.700000000000e+02 4.999999995128e+03 1.999999998051e+05 1.949999998100e+05 9.816478335170e-01 1.835216648302e-02 1.097534053244e-04 -2.373531478432e-11 1.750651494148e-05 5.459316353122e-12 
3.800000000000e+02 4.999999997688e+03 1.999999999075e+05 1.949999999098e+05 9.816821295486e-01 1.831787045140e-02 1.093266605736e-04 -1.192993436517e-11 1.745483639956e-05 3.808923251407e-12 
3.900000000000e+02 4.999999999716e+03 1.999999999886e+05 1.949999999889e+05 9.816992777097e-01 1.830072229035e-02 1.091211890279e-04 5.056571800136e-13 1.742890697096e-05 1.278034866614e-12 
4.000000000000e+02 4.999999999991e+03 1.999999999996e+05 1.949999999997e+05 9.817060299414e-01 1.829397005860e-02 1.090315989500e-04 1.248381065830e-12 1.741881684708e-05 4.925772153551e-13 
4.100000000000e+02 4.999999999997e+03 1.999999999999e+05 1.949999999999e+05 9.817071678125e-01 1.829283218755e-02 1.089352466351e-04 1.124333168480e-13 1.741820556029e-05 2.109657725355e-13 
4.200000000000e+02 5.000000001553e+03 2.000000000621e+05 1.950000000606e+05 9.817088348543e-01 1.829116514572e-02 1.090099454944e-04 -4.810868706868e-11 1.741441638611e-05 9.767946190738e-12 
4.300000000000e+02 5.000000001112e+03 2.000000000445e+05 1.950000000434e+05 9.817126634043e-01 1.828733659567e-02 1.088755840610e-04 2.449371598436e-11 1.740981618947e-05 -1.478315487562e-12 
4.400000000000e+02 5.000000001937e+03 2.000000000775e+05 1.950000000756e+05 9.817234593364e-01 1.827654066362e-02 1.088423220068e-04 -7.796376541081e-12 1.739221627099e-05 3.454153225691e-12 
4.500000000000e+02 5.000000000217e+03 2.000000000087e+05 1.950000000085e+05 9.817425473146e-01 1.825745268544e-02 1.086002754993e-04 -2.461709730622e-12 1.736356557793e-05 3.954707960423e-12 
4.600000000000e+02 4.999999999869e+03 1.999999999948e+05 1.949999999949e+05 9.817722820351e-01 1.822771796494e-02 1.082413997483e-04 3.582631319546e-11 1.731871729368e-05 -2.700447272525e-12 
4.700000000000e+02 5.000000000028e+03 2.000000000011e+05 1.950000000011e+05 9.818146675175e-01 1.818533248253e-02 1.077364036885e-04 5.751840696515e-12 1.725475897511e-05 1.613755125765e-12 
4.800000000000e+02 4.999999999938e+03 1.999999999975e+05 1.949999999976e+05 9.818713665186e-01 1.812863348144e-02 1.070648481252e-04 4.412264099803e-11 1.716925831896e-05 -5.859215834336e-12 
4.900000000000e+02 5.000000000002e+03 2.000000000001e+05 1.950000000001e+05 9.819436027190e-01 1.805639728104e-02 1.062129681648e-04 3.583638184947e-11 1.706046069688e-05 -6.593293442656e-12 
5.000000000000e+02 4.999999997894e+03 1.999999999158e+05 1.949999999179e+05 9.820320363171e-01 1.796796368294e-02 1.051749201221e-04 -3.333444634851e-11 1.692748453571e-05 3.331264673955e-12 
5.100000000000e+02 5.000000000528e+03 2.000000000211e+05 1.950000000206e+05 9.821367192296e-01 1.786328077044e-02 1.039601439067e-04 1.592464224583e-11 1.677028951634e-05 -3.417199508553e-12 
5.200000000000e+02 5.000000000313e+03 2.000000000125e+05 1.950000000122e+05 9.822568128039e-01 1.774318719614e-02 1.025746262288e-04 1.665193248080e-11 1.659039269385e-05 -3.866152439238e-12 
5.300000000000e+02 5.000000000502e+03 2.000000000201e+05 1.950000000196e+05 9.823908000576e-01 1.760919994238e-02 1.010498177311e-04 1.213412147225e-11 1.639010539031e-05 -3.281894016091e-12 
5.400000000000e+02 5.000000000181e+03 2.000000000072e+05 1.950000000071e+05 9.825363994483e-01 1.746360055169e-02 9.941240239099e-05 1.387524072928e-12 1.617305170761e-05 -1.380115363596e-12 
5.500000000000e+02 4.999999999881e+03 1.999999999952e+05 1.949999999954e+05 9.826906987121e-01 1.730930128788e-02 9.769273450005e-05 -3.301169568572e-12 1.594380124812e-05 -2.200195556460e-13 
5.600000000000e+02 4.999999999977e+03 1.999999999991e+05 1.949999999991e+05 9.828503944003e-01 1.714960559971e-02 9.592652012096e-05 -2.073569452990e-12 1.570742796285e-05 -4.537475292746e-15 
5.700000000000e+02 4.999999999907e+03 1.999999999963e+05 1.949999999964e+05 9.830120579809e-01 1.698794201914e-02 9.415201166649e-05 -1.574226116350e-11 1.546909404582e-05 2.632480991781e-12 
5.800000000000e+02 5.000000000052e+03 2.000000000021e+05 1.950000000020e+05 9.831723458381e-01 1.682765416188e-02 9.240196297497e-05 6.371308349204e-12 1.523379932475e-05 -3.678249669252e-13 
5.900000000000e+02 4.999999999531e+03 1.999999999812e+05 1.949999999817e+05 9.833283320097e-01 1.667166799034e-02 9.071656901980e-05 -1.486308409993e-11 1.500569663408e-05 2.963694699282e-12 
6.000000000000e+02 5.000000001929e+03 2.000000000771e+05 1.950000000752e+05 9.834775068620e-01 1.652249313803e-02 8.911736928860e-05 5.754555765296e-12 1.478842215869e-05 3.310731914962e-13 
6.100000000000e+02 4.999999999878e+03 1.999999999951e+05 1.949999999952e+05 9.836179613708e-01 1.638203862918e-02 8.762651262296e-05 -1.054814275364e-11 1.458459948900e-05 3.042081245489e-12 
6.200000000000e+02 5.000000000024e+03 2.000000000010e+05 1.950000000009e+05 9.837482583496e-01 1.625174165045e-02 8.624331681052e-05 6.586167287247e-12 1.439632676290e-05 7.499379050833e-13 
6.300000000000e+02 5.000000000074e+03 2.000000000029e+05 1.950000000029e+05 9.838676769079e-01 1.613232309215e-02 8.499122836110e-05 2.340081528603e-12 1.422428350610e-05 1.181564779450e-12 
6.400000000000e+02 4.999999999982e+03 1.999999999993e+05 1.949999999993e+05 9.839759181159e-01 1.602408188407e-02 8.386260398918e-05 6.558313492836e-12 1.406884880951e-05 4.869812656141e-13 
6.500000000000e+02 5.000000000102e+03 2.000000000041e+05 1.950000000040e+05 9.840731010096e-01 1.592689899036e-02 8.285472181812e-05 8.972474123677e-12 1.392970386046e-05 -5.625160115320e-14 
6.600000000000e+02 5.000000000148e+03 2.000000000059e+05 1.950000000058e+05 9.841596735219e-01 1.584032647811e-02 8.196173451015e-05 1.430132128912e-11 1.380607502121e-05 -1.150388727618e-12 
6.700000000000e+02 5.000000001105e+03 2.000000000442e+05 1.950000000431e+05 9.842367342390e-01 1.576326576097e-02 8.122952905132e-05 4.726161643842e-11 1.369563509397e-05 -5.704659980170e-12 
6.800000000000e+02 4.999999999973e+03 1.999999999989e+05 1.949999999989e+05 9.843042280542e-01 1.569577194581e-02 8.048494614730e-05 2.674394503453e-11 1.360029003480e-05 -4.661920017229e-12 
6.900000000000e+02 5.000000000207e+03 2.000000000083e+05 1.950000000081e+05 9.843635267688e-01 1.563647323125e-02 7.987960551893e-05 -7.518646627793e-12 1.351616119120e-05 -1.521998897592e-13 
7.000000000000e+02 5.000000000474e+03 2.000000000190e+05 1.950000000185e+05 9.844155830233e-01 1.558441697669e-02 7.934981740976e-05 -1.646052110804e-11 1.344243089644e-05 1.815234348190e-12 
7.100000000000e+02 5.000000000062e+03 2.000000000025e+05 1.950000000024e+05 9.844613575915e-01 1.553864240851e-02 7.888563111431e-05 -3.121416479726e-12 1.337768942252e-05 8.055053194803e-13 
7.200000000000e+02 5.000000001128e+03 2.000000000451e+05 1.950000000440e+05 9.845017853713e-01 1.549821462871e-02 7.847706056240e-05 -7.957108033954e-12 1.332057981267e-05 2.132687128884e-12 
7.300000000000e+02 4.999999994623e+03 1.999999997849e+05 1.949999997903e+05 9.845379824239e-01 1.546201757613e-02 7.814318814494e-05 -9.294046795201e-12 1.326917319916e-05 1.087375438089e-12 
7.400000000000e+02 4.999999997273e+03 1.999999998909e+05 1.949999998936e+05 9.845703258546e-01 1.542967414536e-02 7.778557262542e-05 -9.469183111334e-11 1.322393190237e-05 1.408316609265e-11 
7.500000000000e+02 4.999999999369e+03 1.999999999747e+05 1.949999999754e+05 9.845998821454e-01 1.540011785459e-02 7.748796074283e-05 -1.200606577128e-11 1.318231842546e-05 4.995029432397e-12 
7.600000000000e+02 5.000000000963e+03 2.000000000385e+05 1.950000000376e+05 9.846274169702e-01 1.537258302979e-02 7.721129370483e-05 2.724188597340e-11 1.314358394983e-05 -6.042807342897e-13 
7.700000000000e+02 5.000000002683e+03 2.000000001073e+05 1.950000001046e+05 9.846536575479e-01 1.534634245214e-02 7.694791053897e-05 -7.162462066592e-12 1.310670216372e-05 3.696797380557e-12 
7.800000000000e+02 4.999999997803e+03 1.999999999121e+05 1.949999999143e+05 9.846793040147e-01 1.532069598532e-02 7.669109877621e-05 -3.671395687052e-11 1.307068587156e-05 8.650390316686e-12 
7.900000000000e+02 5.000000000098e+03 2.000000000039e+05 1.950000000038e+05 9.847050103647e-01 1.529498963531e-02 7.643375424479e-05 -2.673469733992e-11 1.303461363199e-05 8.715596522403e-12 
8.000000000000e+02 5.000000000066e+03 2.000000000026e+05 1.950000000026e+05 9.847314098518e-01 1.526859014822e-02 7.617005524104e-05 -1.440629886058e-11 1.299759834185e-05 7.966299945011e-12 
8.100000000000e+02 5.000000000016e+03 2.000000000007e+05 1.950000000006e+05 9.847590923413e-01 1.524090765866e-02 7.589403506158e-05 5.778088444788e-12 1.295881645314e-05 5.564554787817e-12 
8.200000000000e+02 4.999999999909e+03 1.999999999963e+05 1.949999999964e+05 9.847886032823e-01 1.521139671769e-02 7.560044906581e-05 1.768489447054e-11 1.291750841799e-05 3.609048575747e-12 
8.300000000000e+02 4.999999999925e+03 1.999999999970e+05 1.949999999971e+05 9.848204299251e-01 1.517957007488e-02 7.528458127746e-05 1.985119534132e-11 1.287300013391e-05 2.583528967481e-12 
8.400000000000e+02 4.999999999994e+03 1.999999999998e+05 1.949999999998e+05 9.848549877623e-01 1.514501223766e-02 7.494246629758e-05 1.807894779137e-12 1.282472130791e-05 4.494714288692e-12 
8.500000000000e+02 4.999999999187e+03 1.999999999675e+05 1.949999999683e+05 9.848926066444e-01 1.510739335559e-02 7.457111750667e-05 -5.681071716854e-11 1.277222418453e-05 1.305096815053e-11 
8.600000000000e+02 4.999999997644e+03 1.999999999058e+05 1.949999999081e+05 9.849335144718e-01 1.506648552821e-02 7.416843459897e-05 -1.538287051469e-10 1.271520758853e-05 2.897486389210e-11 
8.700000000000e+02 4.999999997553e+03 1.999999999021e+05 1.949999999046e+05 9.849778248878e-01 1.502217511216e-02 7.373332447267e-05 -2.029499853781e-10 1.265353289006e-05 4.066059605870e-11 
8.800000000000e+02 4.999999998790e+03 1.999999999516e+05 1.949999999528e+05 9.850255337604e-01 1.497446623964e-02 7.326597593019e-05 -1.857967732281e-10 1.258722788307e-05 4.372046944078e-11 
8.900000000000e+02 5.000000000573e+03 2.000000000229e+05 1.950000000223e+05 9.850765184117e-01 1.492348158826e-02 7.276778613349e-05 -1.254245712150e-10 1.251648645247e-05 3.957933218150e-11 
9.000000000000e+02 5.000000001342e+03 2.000000000537e+05 1.950000000524e+05 9.851305436540e-01 1.486945634598e-02 7.224138090877e-05 -5.974129791958e-11 1.244165784142e-05 3.264811518370e-11 
9.100000000000e+02 5.000000000957e+03 2.000000000383e+05 1.950000000373e+05 9.851872718713e-01 1.481272812873e-02 7.169042100076e-05 -7.901374012013e-12 1.236323065256e-05 2.564301812835e-11 
9.200000000000e+02 5.000000000132e+03 2.000000000053e+05 1.950000000052e+05 9.852462791127e-01 1.475372088734e-02 7.111921057430e-05 2.496006016713e-11 1.228181147482e-05 1.976410180221e-11 
9.300000000000e+02 4.999999999996e+03 1.999999999998e+05 1.949999999999e+05 9.853070748057e-01 1.469292519433e-02 7.053244623413e-05 3.790009964175e-11 1.219809675661e-05 1.576502468950e-11 
9.400000000000e+02 4.999999999428e+03 1.999999999771e+05 1.949999999777e+05 9.853691151944e-01 1.463088480563e-02 6.993326381422e-05 5.356121507083e-11 1.211287262872e-05 1.122908787578e-11 
9.500000000000e+02 5.000000001122e+03 2.000000000449e+05 1.950000000438e+05 9.854311441932e-01 1.456885580684e-02 6.922613332803e-05 -3.584418259171e-11 1.202895143371e-05 2.051232819551e-11 
9.600000000000e+02 5.000000000006e+03 2.000000000002e+05 1.950000000002e+05 9.854942936491e-01 1.450570635091e-02 6.875647877941e-05 3.131508691249e-11 1.194121245553e-05 1.178535456108e-11 
9.700000000000e+02 4.999999999995e+03 1.999999999998e+05 1.949999999998e+05 9.855570609736e-01 1.444293902635e-02 6.815764686014e-05 4.460590229250e-11 1.185554090884e-05 8.401277605454e-12 
9.800000000000e+02 5.000000000023e+03 2.000000000009e+05 1.950000000009e+05 9.856189983597e-01 1.438100164026e-02 6.757195679315e-05 1.123263813215e-11 1.177115712922e-05 1.119405808329e-11 
9.900000000000e+02 4.999999999932e+03 1.999999999973e+05 1.949999999974e+05 9.856796929372e-01 1.432030706284e-02 6.700100722082e-05 -3.717212657270e-12 1.168863763306e-05 1.264701704186e-11 
1.000000000000e+03 5.000000000088e+03 2.000000000035e+05 1.950000000034e+05 9.857387873106e-01 1.426121268936e-02 6.644747433053e-05 3.007514155952e-11 1.160846205903e-05 7.907061198401e-12 
1.010000000000e+03 5.000000000107e+03 2.000000000043e+05 1.950000000042e+05 9.857959885424e-01 1.420401145764e-02 6.591406243815e-05 -5.503484675653e-12 1.153101268437e-05 1.137471654670e-11 
1.020000000000e+03 4.999999999736e+03 1.999999999894e+05 1.949999999897e+05 9.858510650947e-01 1.414893490529e-02 6.540225262337e-05 -6.600123182756e-12 1.145659189126e-05 1.117780880398e-11 
1.030000000000e+03 5.000000000139e+03 2.000000000055e+05 1.950000000054e+05 9.859038477617e-01 1.409615223828e-02 6.491354644079e-05 1.209056216252e-11 1.138540917995e-05 8.283312866093e-12 
1.040000000000e+03 5.000000000351e+03 2.000000000140e+05 1.950000000137e+05 9.859542259765e-01 1.404577402354e-02 6.444875044231e-05 1.122846613029e-11 1.131759655155e-05 7.514234459921e-12 
1.050000000000e+03 5.000000000316e+03 2.000000000127e+05 1.950000000123e+05 9.860021403118e-01 1.399785968817e-02 6.400807974476e-05 1.999909416378e-11 1.125321753712e-05 5.718107406074e-12 
1.150000000000e+03 4.999999999265e+03 1.999999999706e+05 1.949999999713e+05 9.863116363289e-01 1.368836367110e-02 6.125476642262e-05 4.086370701284e-11 1.083959221913e-05 -1.017150139467e-11 
1.250000000000e+03 5.000000000003e+03 2.000000000001e+05 1.950000000001e+05 9.865432423857e-01 1.345675761433e-02 5.906070801221e-05 1.818551537407e-11 1.053484389384e-05 -7.927134676585e-12 
1.350000000000e+03 5.000000000083e+03 2.000000000033e+05 1.950000000032e+05 9.867791174806e-01 1.322088251944e-02 5.718236995536e-05 -3.911616705691e-12 1.022444985759e-05 -1.574178533002e-12 
1.450000000000e+03 4.999999999974e+03 1.999999999989e+05 1.949999999990e+05 9.870142819108e-01 1.298571808924e-02 5.491453520678e-05 -2.368969197670e-12 9.921751557432e-06 -5.470291638953e-13 
1.550000000000e+03 5.000000000070e+03 2.000000000028e+05 1.950000000027e+05 9.872404668775e-01 1.275953312254e-02 5.296354482713e-05 7.256335026735e-12 9.631690077689e-06 -1.987160892839e-12 
1.650000000000e+03 5.000000000116e+03 2.000000000046e+05 1.950000000045e+05 9.874392411012e-01 1.256075889883e-02 5.120314938131e-05 -2.246417016641e-11 9.379720574241e-06 4.884864932811e-12 
1.750000000000e+03 4.999999999999e+03 2.000000000000e+05 1.950000000000e+05 9.876188157654e-01 1.238118423456e-02 4.988431935653e-05 6.500045928700e-11 9.151943238342e-06 -1.625931579139e-11 
1.850000000000e+03 5.000000000000e+03 2.000000000000e+05 1.950000000000e+05 9.877844862886e-01 1.221551371138e-02 4.854710743042e-05 -1.334968998226e-11 8.944601778917e-06 -3.691729025276e-12 
1.925000000000e+03 4.999999999987e+03 1.999999999995e+05 1.949999999995e+05 9.879095169881e-01 1.209048301191e-02 4.763577855791e-05 -1.698861559549e-11 8.788501073359e-06 1.506976610272e-13 
2.000000000000e+03 5.000000000006e+03 2.000000000002e+05 1.950000000002e+05 9.880321706073e-01 1.196782939270e-02 4.652807271597e-05 -1.815901490555e-12 8.638027781468e-06 -5.940436458836e-13 
2.100000000000e+03 4.999999999999e+03 2.000000000000e+05 1.950000000000e+05 9.881979684894e-01 1.180203151063e-02 4.532641734246e-05 1.397344219419e-11 8.433859509320e-06 -3.792742154973e-12 
2.200000000000e+03 5.000000000000e+03 2.000000000000e+05 1.950000000000e+05 9.883509230304e-01 1.164907696956e-02 4.402357007303e-05 -2.767345919632e-12 8.248589458235e-06 -1.153166013413e-12 
2.300000000000e+03 5.000000000000e+03 2.000000000000e+05 1.950000000000e+05 9.884955215277e-01 1.150447847226e-02 4.306927369011e-05 8.653013434830e-13 8.072777416385e-06 -1.118360390616e-12 
2.400000000000e+03 5.000000000000e+03 2.000000000000e+05 1.950000000000e+05 9.886243189363e-01 1.137568106367e-02 4.202494238817e-05 4.365024404227e-11 7.918804976205e-06 -1.117966828955e-11 
2.500000000000e+03 5.000000000000e+03 2.000000000000e+05 1.950000000000e+05 9.887400540707e-01 1.125994592927e-02 4.097863513071e-05 -8.992962426680e-11 7.782167831456e-06 1.331912568645e-11 
2.600000000000e+03 5.000000000000e+03 2.000000000000e+05 1.950000000000e+05 9.888597050473e-01 1.114029495265e-02 4.030644442222e-05 5.945924070978e-12 7.638915160353e-06 1.994585571973e-12 
2.700000000000e+03 5.000000000000e+03 2.000000000000e+05 1.950000000000e+05 9.889760364816e-01 1.102396351839e-02 3.942800643218e-05 -9.815647723301e-13 7.502197987095e-06 9.955298040825e-13 
2.800000000000e+03 5.000000000000e+03 2.000000000000e+05 1.950000000000e+05 9.890890829729e-01 1.091091702711e-02 3.859068414434e-05 7.684016542828e-12 7.370120775683e-06 -1.361515724767e-12 
2.900000000000e+03 4.999999999999e+03 1.999999999999e+05 1.949999999999e+05 9.891944501824e-01 1.080554981764e-02 3.771797384644e-05 -2.295701802775e-12 7.248446475921e-06 1.424237015019e-13 
3.000000000000e+03 5.000000000000e+03 2.000000000000e+05 1.950000000000e+05 9.892957565392e-01 1.070424346075e-02 3.704984909330e-05 -4.558446869573e-11 7.131023423101e-06 8.231218993249e-12 
3.100000000000e+03 5.000000000000e+03 2.000000000000e+05 1.950000000000e+05 9.893937761340e-01 1.060622386604e-02 3.648352361956e-05 4.184521751408e-12 7.017575181537e-06 1.870641754676e-12 
3.200000000000e+03 5.000000000004e+03 2.000000000001e+05 1.950000000001e+05 9.894852617461e-01 1.051473825390e-02 3.582803145445e-05 -1.214677701364e-11 6.913163432017e-06 3.018544258115e-12 
3.300000000000e+03 5.000000000000e+03 2.000000000000e+05 1.950000000000e+05 9.895730091188e-01 1.042699088120e-02 3.521641100029e-05 1.569829851091e-11 6.813468722696e-06 -1.547511543756e-12 
3.400000000000e+03 5.000000000004e+03 2.000000000001e+05 1.950000000001e+05 9.896603586001e-01 1.033964139990e-02 3.468416812991e-05 3.781756259520e-12 6.714283232091e-06 -7.797385347054e-13 
3.500000000000e+03 5.000000000000e+03 2.000000000000e+05 1.950000000000e+05 9.897428031970e-01 1.025719680298e-02 3.400730477769e-05 6.990661622753e-12 6.622300304378e-06 -1.578440024470e-12 
3.600000000000e+03 5.000000000000e+03 2.000000000000e+05 1.950000000000e+05 9.898233996852e-01 1.017660031484e-02 3.344891645838e-05 4.736997299609e-12 6.532191318712e-06 -1.368874516435e-12 
3.700000000000e+03 5.000000000005e+03 2.000000000002e+05 1.950000000002e+05 9.899045960765e-01 1.009540392354e-02 3.303494531956e-05 5.696581323482e-12 6.440962763315e-06 -1.615466200104e-12 
3.800000000000e+03 4.999999999997e+03 1.999999999999e+05 1.949999999999e+05 9.899780796609e-01 1.002192033911e-02 3.239573583593e-05 -1.520695378995e-12 6.360475798689e-06 -4.810045543098e-13 
3.900000000000e+03 5.000000000003e+03 2.000000000001e+05 1.950000000001e+05 9.900458350467e-01 9.954164953333e-03 3.182775438014e-05 1.522175034962e-11 6.286471444114e-06 -3.190299313162e-12 
4.000000000000e+03 4.999999999997e+03 1.999999999999e+05 1.949999999999e+05 9.901117485321e-01 9.888251467932e-03 3.139597499319e-05 -5.168061797143e-12 6.214059594186e-06 -5.105696410382e-13 
4.100000000000e+03 5.000000000005e+03 2.000000000002e+05 1.950000000002e+05 9.901831721548e-01 9.816827845179e-03 3.123892624764e-05 9.114719303395e-12 6.134086493873e-06 -2.096232239905e-12 
4.200000000000e+03 4.999999999986e+03 1.999999999994e+05 1.949999999994e+05 9.902473773147e-01 9.752622685301e-03 3.064045999451e-05 2.697639518662e-11 6.065291496260e-06 -7.079717200580e-12 
4.300000000000e+03 5.000000000000e+03 2.000000000000e+05 1.950000000000e+05 9.903140501517e-01 9.685949848272e-03 3.036321708593e-05 -6.646494764431e-12 5.992121486469e-06 -3.064435980756e-12 
4.400000000000e+03 4.999999999998e+03 1.999999999999e+05 1.949999999999e+05 9.903793749175e-01 9.620625082530e-03 2.997669663957e-05 -3.745930870136e-12 5.921450412553e-06 -2.113834307790e-12 
4.500000000000e+03 5.000000000000e+03 2.000000000000e+05 1.950000000000e+05 9.904426327486e-01 9.557367251372e-03 2.958155853494e-05 -3.252942312078e-11 5.853451197405e-06 4.443292638052e-12 
4.600000000000e+03 5.000000000000e+03 2.000000000000e+05 1.950000000000e+05 9.905000770626e-01 9.499922937439e-03 2.906049534916e-05 -2.256152871947e-11 5.792906468883e-06 5.569344321936e-12 
4.700000000000e+03 5.000000000187e+03 2.000000000075e+05 1.950000000073e+05 9.905589753280e-01 9.441024671993e-03 2.882690336862e-05 -1.169173857142e-11 5.729353962001e-06 4.759500731974e-12 
4.800000000000e+03 4.999999999951e+03 1.999999999980e+05 1.949999999981e+05 9.906148897335e-01 9.385110266513e-03 2.845507647476e-05 1.376406588405e-11 5.670135934310e-06 6.155003251276e-13 
4.900000000000e+03 5.000000000000e+03 2.000000000000e+05 1.950000000000e+05 9.906682816207e-01 9.331718379272e-03 2.809700834398e-05 -2.974504082885e-11 5.613831479760e-06 6.002834375013e-12 
5.000000000000e+03 5.000000000594e+03 2.000000000238e+05 1.950000000232e+05 9.907194769340e-01 9.280523065982e-03 2.774307783354e-05 1.396489555656e-11 5.560109530868e-06 1.619138718290e-12 
5.100000000000e+03 4.999999999958e+03 1.999999999983e+05 1.949999999984e+05 9.907707904204e-01 9.229209579645e-03 2.747617689362e-05 1.646494302362e-12 5.505977969218e-06 1.411077465850e-12 
5.200000000000e+03 5.000000000061e+03 2.000000000024e+05 1.950000000024e+05 9.908219560875e-01 9.178043912550e-03 2.720643385137e-05 2.838108814837e-12 5.452232086391e-06 5.757465500279e-13 
5.300000000000e+03 5.000000000383e+03 2.000000000153e+05 1.950000000149e+05 9.908660996151e-01 9.133900384931e-03 2.665406380400e-05 -4.206954811215e-12 5.407786989023e-06 4.447294446559e-13 
5.400000000000e+03 4.999999999580e+03 1.999999999832e+05 1.949999999836e+05 9.909140822069e-01 9.085917793066e-03 2.653569329486e-05 -5.922697810986e-14 5.357000063351e-06 3.581747902831e-13 