VARIABLES  = "X","Y","Z", "PRESSURE1", "PRESSURE2", "PRESSURE_W", "SATURATION1", SATURATION2, "VELOCITY_X1", "VELOCITY_Y1", "VELOCITY_X2", "VELOCITY_Y2"
ZONE T="0.000000000000e+00s", N=82, E=59, F=FEPOINT, ET=QUADRILATERAL
STRANDID=1, SOLUTIONTIME=0.000000000000e+00
7.172413793097e-01 0.000000000000e+00 0.000000000000e+00 5.000000000000e+04 0.000000000000e+00 -5.000000000000e+04 1.000000000000e-02 9.900000000000e-01 0.000000000000e+00 0.000000000000e+00 0.000000000000e+00 0.000000000000e+00 
8.068965517235e-01 0.000000000000e+00 0.000000000000e+00 5.000000000000e+04 0.000000000000e+00 -5.000000000000e+04 1.000000000000e-02 9.900000000000e-01 0.000000000000e+00 0.000000000000e+00 0.000000000000e+00 0.000000000000e+00 
8.965517241372e-01 0.000000000000e+00 0.000000000000e+00 5.000000000000e+04 0.000000000000e+00 -5.000000000000e+04 1.000000000000e-02 9.900000000000e-01 0.000000000000e+00 0.000000000000e+00 0.000000000000e+00 0.000000000000e+00 
9.862068965510e-01 0.000000000000e+00 0.000000000000e+00 5.000000000000e+04 0.000000000000e+00 -5.000000000000e+04 1.000000000000e-02 9.900000000000e-01 0.000000000000e+00 0.000000000000e+00 0.000000000000e+00 0.000000000000e+00 
1.075862068965e+00 0.000000000000e+00 0.000000000000e+00 5.000000000000e+04 0.000000000000e+00 -5.000000000000e+04 1.000000000000e-02 9.900000000000e-01 0.000000000000e+00 0.000000000000e+00 0.000000000000e+00 0.000000000000e+00 
1.165517241378e+00 0.000000000000e+00 0.000000000000e+00 5.000000000000e+04 0.000000000000e+00 -5.000000000000e+04 1.000000000000e-02 9.900000000000e-01 0.000000000000e+00 0.000000000000e+00 0.000000000000e+00 0.000000000000e+00 
1.255172413792e+00 0.000000000000e+00 0.000000000000e+00 5.000000000000e+04 0.000000000000e+00 -5.000000000000e+04 1.000000000000e-02 9.900000000000e-01 0.000000000000e+00 0.000000000000e+00 0.000000000000e+00 0.000000000000e+00 
1.344827586206e+00 0.000000000000e+00 0.000000000000e+00 5.000000000000e+04 0.000000000000e+00 -5.000000000000e+04 1.000000000000e-02 9.900000000000e-01 0.000000000000e+00 0.000000000000e+00 0.000000000000e+00 0.000000000000e+00 
1.255172413794e+00 5.000000000000e-01 0.000000000000e+00 5.000000000000e+04 0.000000000000e+00 -5.000000000000e+04 1.000000000000e-02 9.900000000000e-01 0.000000000000e+00 0.000000000000e+00 0.000000000000e+00 0.000000000000e+00 
1.165517241380e+00 5.000000000000e-01 0.000000000000e+00 5.000000000000e+04 0.000000000000e+00 -5.000000000000e+04 1.000000000000e-02 9.900000000000e-01 0.000000000000e+00 0.000000000000e+00 0.000000000000e+00 0.000000000000e+00 
1.075862068966e+00 5.000000000000e-01 0.000000000000e+00 5.000000000000e+04 0.000000000000e+00 -5.000000000000e+04 1.000000000000e-02 9.900000000000e-01 0.000000000000e+00 0.000000000000e+00 0.000000000000e+00 0.000000000000e+00 
9.862068965524e-01 5.000000000000e-01 0.000000000000e+00 5.000000000000e+04 0.000000000000e+00 -5.000000000000e+04 1.000000000000e-02 9.900000000000e-01 0.000000000000e+00 0.000000000000e+00 0.000000000000e+00 0.000000000000e+00 
8.965517241385e-01 5.000000000000e-01 0.000000000000e+00 5.000000000000e+04 0.000000000000e+00 -5.000000000000e+04 1.000000000000e-02 9.900000000000e-01 0.000000000000e+00 0.000000000000e+00 0.000000000000e+00 0.000000000000e+00 
8.068965517245e-01 5.000000000000e-01 0.000000000000e+00 5.000000000000e+04 0.000000000000e+00 -5.000000000000e+04 1.000000000000e-02 9.900000000000e-01 0.000000000000e+00 0.000000000000e+00 0.000000000000e+00 0.000000000000e+00 
8.068965517243e-01 4.166666666667e-01 0.000000000000e+00 5.000000000000e+04 0.000000000000e+00 -5.000000000000e+04 1.000000000000e-02 9.900000000000e-01 0.000000000000e+00 0.000000000000e+00 0.000000000000e+00 0.000000000000e+00 
8.965517241383e-01 4.166666666667e-01 0.000000000000e+00 5.000000000000e+04 0.000000000000e+00 -5.000000000000e+04 1.000000000000e-02 9.900000000000e-01 0.000000000000e+00 0.000000000000e+00 0.000000000000e+00 0.000000000000e+00 
9.862068965522e-01 4.166666666667e-01 0.000000000000e+00 5.000000000000e+04 0.000000000000e+00 -5.000000000000e+04 1.000000000000e-02 9.900000000000e-01 0.000000000000e+00 0.000000000000e+00 0.000000000000e+00 0.000000000000e+00 
1.075862068966e+00 4.166666666666e-01 0.000000000000e+00 5.000000000000e+04 0.000000000000e+00 -5.000000000000e+04 1.000000000000e-02 9.900000000000e-01 0.000000000000e+00 0.000000000000e+00 0.000000000000e+00 0.000000000000e+00 
1.165517241380e+00 4.166666666666e-01 0.000000000000e+00 5.000000000000e+04 0.000000000000e+00 -5.000000000000e+04 1.000000000000e-02 9.900000000000e-01 0.000000000000e+00 0.000000000000e+00 0.000000000000e+00 0.000000000000e+00 
1.255172413794e+00 4.166666666666e-01 0.000000000000e+00 5.000000000000e+04 0.000000000000e+00 -5.000000000000e+04 1.000000000000e-02 9.900000000000e-01 0.000000000000e+00 0.000000000000e+00 0.000000000000e+00 0.000000000000e+00 
8.068965517241e-01 3.333333333335e-01 0.000000000000e+00 5.000000000000e+04 0.000000000000e+00 -5.000000000000e+04 1.000000000000e-02 9.900000000000e-01 0.000000000000e+00 0.000000000000e+00 0.000000000000e+00 0.000000000000e+00 
8.965517241380e-01 3.333333333334e-01 0.000000000000e+00 5.000000000000e+04 0.000000000000e+00 -5.000000000000e+04 1.000000000000e-02 9.900000000000e-01 0.000000000000e+00 0.000000000000e+00 0.000000000000e+00 0.000000000000e+00 
9.862068965520e-01 3.333333333334e-01 0.000000000000e+00 5.000000000000e+04 0.000000000000e+00 -5.000000000000e+04 1.000000000000e-02 9.900000000000e-01 0.000000000000e+00 0.000000000000e+00 0.000000000000e+00 0.000000000000e+00 
1.075862068966e+00 3.333333333334e-01 0.000000000000e+00 5.000000000000e+04 0.000000000000e+00 -5.000000000000e+04 1.000000000000e-02 9.900000000000e-01 0.000000000000e+00 0.000000000000e+00 0.000000000000e+00 0.000000000000e+00 
1.165517241380e+00 3.333333333334e-01 0.000000000000e+00 5.000000000000e+04 0.000000000000e+00 -5.000000000000e+04 1.000000000000e-02 9.900000000000e-01 0.000000000000e+00 0.000000000000e+00 0.000000000000e+00 0.000000000000e+00 
1.255172413794e+00 3.333333333333e-01 0.000000000000e+00 5.000000000000e+04 0.000000000000e+00 -5.000000000000e+04 1.000000000000e-02 9.900000000000e-01 0.000000000000e+00 0.000000000000e+00 0.000000000000e+00 0.000000000000e+00 
6.275862068963e-01 2.500000000004e-01 0.000000000000e+00 5.000000000000e+04 0.000000000000e+00 -5.000000000000e+04 1.000000000000e-02 9.900000000000e-01 0.000000000000e+00 0.000000000000e+00 0.000000000000e+00 0.000000000000e+00 
7.172413793101e-01 2.500000000004e-01 0.000000000000e+00 5.000000000000e+04 0.000000000000e+00 -5.000000000000e+04 1.000000000000e-02 9.900000000000e-01 0.000000000000e+00 0.000000000000e+00 0.000000000000e+00 0.000000000000e+00 
8.068965517240e-01 2.500000000003e-01 0.000000000000e+00 5.000000000000e+04 0.000000000000e+00 -5.000000000000e+04 1.000000000000e-02 9.900000000000e-01 0.000000000000e+00 0.000000000000e+00 0.000000000000e+00 0.000000000000e+00 
8.965517241378e-01 2.500000000003e-01 0.000000000000e+00 5.000000000000e+04 0.000000000000e+00 -5.000000000000e+04 1.000000000000e-02 9.900000000000e-01 0.000000000000e+00 0.000000000000e+00 0.000000000000e+00 0.000000000000e+00 
9.862068965517e-01 2.500000000002e-01 0.000000000000e+00 5.000000000000e+04 0.000000000000e+00 -5.000000000000e+04 1.000000000000e-02 9.900000000000e-01 0.000000000000e+00 0.000000000000e+00 0.000000000000e+00 0.000000000000e+00 
1.075862068966e+00 2.500000000002e-01 0.000000000000e+00 5.000000000000e+04 0.000000000000e+00 -5.000000000000e+04 1.000000000000e-02 9.900000000000e-01 0.000000000000e+00 0.000000000000e+00 0.000000000000e+00 0.000000000000e+00 
1.165517241379e+00 2.500000000002e-01 0.000000000000e+00 5.000000000000e+04 0.000000000000e+00 -5.000000000000e+04 1.000000000000e-02 9.900000000000e-01 0.000000000000e+00 0.000000000000e+00 0.000000000000e+00 0.000000000000e+00 
1.255172413793e+00 2.500000000001e-01 0.000000000000e+00 5.000000000000e+04 0.000000000000e+00 -5.000000000000e+04 1.000000000000e-02 9.900000000000e-01 0.000000000000e+00 0.000000000000e+00 0.000000000000e+00 0.000000000000e+00 
2.689655172412e-01 1.666666666671e-01 0.000000000000e+00 5.000000000000e+04 0.000000000000e+00 -5.000000000000e+04 1.000000000000e-02 9.900000000000e-01 0.000000000000e+00 0.000000000000e+00 0.000000000000e+00 0.000000000000e+00 
3.586206896549e-01 1.666666666671e-01 0.000000000000e+00 5.000000000000e+04 0.000000000000e+00 -5.000000000000e+04 1.000000000000e-02 9.900000000000e-01 0.000000000000e+00 0.000000000000e+00 0.000000000000e+00 0.000000000000e+00 
6.275862068961e-01 1.666666666670e-01 0.000000000000e+00 5.000000000000e+04 0.000000000000e+00 -5.000000000000e+04 1.000000000000e-02 9.900000000000e-01 0.000000000000e+00 0.000000000000e+00 0.000000000000e+00 0.000000000000e+00 
7.172413793100e-01 1.666666666670e-01 0.000000000000e+00 5.000000000000e+04 0.000000000000e+00 -5.000000000000e+04 1.000000000000e-02 9.900000000000e-01 0.000000000000e+00 0.000000000000e+00 0.000000000000e+00 0.000000000000e+00 
8.068965517238e-01 1.666666666670e-01 0.000000000000e+00 5.000000000000e+04 0.000000000000e+00 -5.000000000000e+04 1.000000000000e-02 9.900000000000e-01 0.000000000000e+00 0.000000000000e+00 0.000000000000e+00 0.000000000000e+00 
8.965517241376e-01 1.666666666669e-01 0.000000000000e+00 5.000000000000e+04 0.000000000000e+00 -5.000000000000e+04 1.000000000000e-02 9.900000000000e-01 0.000000000000e+00 0.000000000000e+00 0.000000000000e+00 0.000000000000e+00 
9.862068965515e-01 1.666666666669e-01 0.000000000000e+00 5.000000000000e+04 0.000000000000e+00 -5.000000000000e+04 1.000000000000e-02 9.900000000000e-01 0.000000000000e+00 0.000000000000e+00 0.000000000000e+00 0.000000000000e+00 
1.075862068965e+00 1.666666666669e-01 0.000000000000e+00 5.000000000000e+04 0.000000000000e+00 -5.000000000000e+04 1.000000000000e-02 9.900000000000e-01 0.000000000000e+00 0.000000000000e+00 0.000000000000e+00 0.000000000000e+00 
1.165517241379e+00 1.666666666668e-01 0.000000000000e+00 5.000000000000e+04 0.000000000000e+00 -5.000000000000e+04 1.000000000000e-02 9.900000000000e-01 0.000000000000e+00 0.000000000000e+00 0.000000000000e+00 0.000000000000e+00 
1.255172413793e+00 1.666666666668e-01 0.000000000000e+00 5.000000000000e+04 0.000000000000e+00 -5.000000000000e+04 1.000000000000e-02 9.900000000000e-01 0.000000000000e+00 0.000000000000e+00 0.000000000000e+00 0.000000000000e+00 
1.344827586207e+00 1.666666666668e-01 0.000000000000e+00 5.000000000000e+04 0.000000000000e+00 -5.000000000000e+04 1.000000000000e-02 9.900000000000e-01 0.000000000000e+00 0.000000000000e+00 0.000000000000e+00 0.000000000000e+00 
6.275862068961e-01 8.333333333355e-02 0.000000000000e+00 5.000000000000e+04 0.000000000000e+00 -5.000000000000e+04 1.000000000000e-02 9.900000000000e-01 0.000000000000e+00 0.000000000000e+00 0.000000000000e+00 0.000000000000e+00 
7.172413793098e-01 8.333333333353e-02 0.000000000000e+00 5.000000000000e+04 0.000000000000e+00 -5.000000000000e+04 1.000000000000e-02 9.900000000000e-01 0.000000000000e+00 0.000000000000e+00 0.000000000000e+00 0.000000000000e+00 
8.068965517236e-01 8.333333333351e-02 0.000000000000e+00 5.000000000000e+04 0.000000000000e+00 -5.000000000000e+04 1.000000000000e-02 9.900000000000e-01 0.000000000000e+00 0.000000000000e+00 0.000000000000e+00 0.000000000000e+00 
8.965517241374e-01 8.333333333349e-02 0.000000000000e+00 5.000000000000e+04 0.000000000000e+00 -5.000000000000e+04 1.000000000000e-02 9.900000000000e-01 0.000000000000e+00 0.000000000000e+00 0.000000000000e+00 0.000000000000e+00 
9.862068965512e-01 8.333333333347e-02 0.000000000000e+00 5.000000000000e+04 0.000000000000e+00 -5.000000000000e+04 1.000000000000e-02 9.900000000000e-01 0.000000000000e+00 0.000000000000e+00 0.000000000000e+00 0.000000000000e+00 
1.075862068965e+00 8.333333333345e-02 0.000000000000e+00 5.000000000000e+04 0.000000000000e+00 -5.000000000000e+04 1.000000000000e-02 9.900000000000e-01 0.000000000000e+00 0.000000000000e+00 0.000000000000e+00 0.000000000000e+00 
1.165517241379e+00 8.333333333344e-02 0.000000000000e+00 5.000000000000e+04 0.000000000000e+00 -5.000000000000e+04 1.000000000000e-02 9.900000000000e-01 0.000000000000e+00 0.000000000000e+00 0.000000000000e+00 0.000000000000e+00 
1.255172413793e+00 8.333333333342e-02 0.000000000000e+00 5.000000000000e+04 0.000000000000e+00 -5.000000000000e+04 1.000000000000e-02 9.900000000000e-01 0.000000000000e+00 0.000000000000e+00 0.000000000000e+00 0.000000000000e+00 
1.344827586206e+00 8.333333333340e-02 0.000000000000e+00 5.000000000000e+04 0.000000000000e+00 -5.000000000000e+04 1.000000000000e-02 9.900000000000e-01 0.000000000000e+00 0.000000000000e+00 0.000000000000e+00 0.000000000000e+00 
6.275862068960e-01 0.000000000000e+00 0.000000000000e+00 5.000000000000e+04 0.000000000000e+00 -5.000000000000e+04 1.000000000000e-02 9.900000000000e-01 0.000000000000e+00 0.000000000000e+00 0.000000000000e+00 0.000000000000e+00 
1.434482758620e+00 0.000000000000e+00 0.000000000000e+00 5.000000000000e+04 0.000000000000e+00 -5.000000000000e+04 1.000000000000e-02 9.900000000000e-01 0.000000000000e+00 0.000000000000e+00 0.000000000000e+00 0.000000000000e+00 
1.434482758620e+00 8.333333333338e-02 0.000000000000e+00 5.000000000000e+04 0.000000000000e+00 -5.000000000000e+04 1.000000000000e-02 9.900000000000e-01 0.000000000000e+00 0.000000000000e+00 0.000000000000e+00 0.000000000000e+00 
1.344827586208e+00 4.166666666666e-01 0.000000000000e+00 5.000000000000e+04 0.000000000000e+00 -5.000000000000e+04 1.000000000000e-02 9.900000000000e-01 0.000000000000e+00 0.000000000000e+00 0.000000000000e+00 0.000000000000e+00 
1.344827586208e+00 5.000000000000e-01 0.000000000000e+00 5.000000000000e+04 0.000000000000e+00 -5.000000000000e+04 1.000000000000e-02 9.900000000000e-01 0.000000000000e+00 0.000000000000e+00 0.000000000000e+00 0.000000000000e+00 
7.172413793105e-01 5.000000000000e-01 0.000000000000e+00 5.000000000000e+04 0.000000000000e+00 -5.000000000000e+04 1.000000000000e-02 9.900000000000e-01 0.000000000000e+00 0.000000000000e+00 0.000000000000e+00 0.000000000000e+00 
7.172413793104e-01 4.166666666667e-01 0.000000000000e+00 5.000000000000e+04 0.000000000000e+00 -5.000000000000e+04 1.000000000000e-02 9.900000000000e-01 0.000000000000e+00 0.000000000000e+00 0.000000000000e+00 0.000000000000e+00 
7.172413793102e-01 3.333333333335e-01 0.000000000000e+00 5.000000000000e+04 0.000000000000e+00 -5.000000000000e+04 1.000000000000e-02 9.900000000000e-01 0.000000000000e+00 0.000000000000e+00 0.000000000000e+00 0.000000000000e+00 
1.344827586208e+00 3.333333333333e-01 0.000000000000e+00 5.000000000000e+04 0.000000000000e+00 -5.000000000000e+04 1.000000000000e-02 9.900000000000e-01 0.000000000000e+00 0.000000000000e+00 0.000000000000e+00 0.000000000000e+00 
1.344827586207e+00 2.500000000001e-01 0.000000000000e+00 5.000000000000e+04 0.000000000000e+00 -5.000000000000e+04 1.000000000000e-02 9.900000000000e-01 0.000000000000e+00 0.000000000000e+00 0.000000000000e+00 0.000000000000e+00 
5.379310344826e-01 3.333333333335e-01 0.000000000000e+00 5.000000000000e+04 0.000000000000e+00 -5.000000000000e+04 1.000000000000e-02 9.900000000000e-01 0.000000000000e+00 0.000000000000e+00 0.000000000000e+00 0.000000000000e+00 
5.379310344825e-01 2.500000000004e-01 0.000000000000e+00 5.000000000000e+04 0.000000000000e+00 -5.000000000000e+04 1.000000000000e-02 9.900000000000e-01 0.000000000000e+00 0.000000000000e+00 0.000000000000e+00 0.000000000000e+00 
6.275862068964e-01 3.333333333335e-01 0.000000000000e+00 5.000000000000e+04 0.000000000000e+00 -5.000000000000e+04 1.000000000000e-02 9.900000000000e-01 0.000000000000e+00 0.000000000000e+00 0.000000000000e+00 0.000000000000e+00 
5.379310344824e-01 1.666666666670e-01 0.000000000000e+00 5.000000000000e+04 0.000000000000e+00 -5.000000000000e+04 1.000000000000e-02 9.900000000000e-01 0.000000000000e+00 0.000000000000e+00 0.000000000000e+00 0.000000000000e+00 
1.793103448275e-01 2.500000000006e-01 0.000000000000e+00 5.000000000000e+04 0.000000000000e+00 -5.000000000000e+04 1.000000000000e-02 9.900000000000e-01 0.000000000000e+00 0.000000000000e+00 0.000000000000e+00 0.000000000000e+00 
1.793103448275e-01 1.666666666672e-01 0.000000000000e+00 5.000000000000e+04 0.000000000000e+00 -5.000000000000e+04 1.000000000000e-02 9.900000000000e-01 0.000000000000e+00 0.000000000000e+00 0.000000000000e+00 0.000000000000e+00 
2.689655172413e-01 2.500000000006e-01 0.000000000000e+00 5.000000000000e+04 0.000000000000e+00 -5.000000000000e+04 1.000000000000e-02 9.900000000000e-01 0.000000000000e+00 0.000000000000e+00 0.000000000000e+00 0.000000000000e+00 
3.586206896550e-01 2.500000000005e-01 0.000000000000e+00 5.000000000000e+04 0.000000000000e+00 -5.000000000000e+04 1.000000000000e-02 9.900000000000e-01 0.000000000000e+00 0.000000000000e+00 0.000000000000e+00 0.000000000000e+00 
1.793103448274e-01 8.333333333364e-02 0.000000000000e+00 5.000000000000e+04 0.000000000000e+00 -5.000000000000e+04 1.000000000000e-02 9.900000000000e-01 0.000000000000e+00 0.000000000000e+00 0.000000000000e+00 0.000000000000e+00 
2.689655172412e-01 8.333333333362e-02 0.000000000000e+00 5.000000000000e+04 0.000000000000e+00 -5.000000000000e+04 1.000000000000e-02 9.900000000000e-01 0.000000000000e+00 0.000000000000e+00 0.000000000000e+00 0.000000000000e+00 
3.586206896549e-01 8.333333333360e-02 0.000000000000e+00 5.000000000000e+04 0.000000000000e+00 -5.000000000000e+04 1.000000000000e-02 9.900000000000e-01 0.000000000000e+00 0.000000000000e+00 0.000000000000e+00 0.000000000000e+00 
4.482758620687e-01 1.666666666671e-01 0.000000000000e+00 5.000000000000e+04 0.000000000000e+00 -5.000000000000e+04 1.000000000000e-02 9.900000000000e-01 0.000000000000e+00 0.000000000000e+00 0.000000000000e+00 0.000000000000e+00 
4.482758620688e-01 2.500000000005e-01 0.000000000000e+00 5.000000000000e+04 0.000000000000e+00 -5.000000000000e+04 1.000000000000e-02 9.900000000000e-01 0.000000000000e+00 0.000000000000e+00 0.000000000000e+00 0.000000000000e+00 
4.482758620686e-01 8.333333333359e-02 0.000000000000e+00 5.000000000000e+04 0.000000000000e+00 -5.000000000000e+04 1.000000000000e-02 9.900000000000e-01 0.000000000000e+00 0.000000000000e+00 0.000000000000e+00 0.000000000000e+00 
5.379310344823e-01 8.333333333357e-02 0.000000000000e+00 5.000000000000e+04 0.000000000000e+00 -5.000000000000e+04 1.000000000000e-02 9.900000000000e-01 0.000000000000e+00 0.000000000000e+00 0.000000000000e+00 0.000000000000e+00 
1.434482758621e+00 1.666666666667e-01 0.000000000000e+00 5.000000000000e+04 0.000000000000e+00 -5.000000000000e+04 1.000000000000e-02 9.900000000000e-01 0.000000000000e+00 0.000000000000e+00 0.000000000000e+00 0.000000000000e+00 
1.434482758621e+00 2.500000000000e-01 0.000000000000e+00 5.000000000000e+04 0.000000000000e+00 -5.000000000000e+04 1.000000000000e-02 9.900000000000e-01 0.000000000000e+00 0.000000000000e+00 0.000000000000e+00 0.000000000000e+00 
5.379310344822e-01 0.000000000000e+00 0.000000000000e+00 5.000000000000e+04 0.000000000000e+00 -5.000000000000e+04 1.000000000000e-02 9.900000000000e-01 0.000000000000e+00 0.000000000000e+00 0.000000000000e+00 0.000000000000e+00 
47  1  2  48  
48  2  3  49  
49  3  4  50  
50  4  5  51  
51  5  6  52  
52  6  7  53  
53  7  8  54  
10  19  20  9  
11  18  19  10  
12  17  18  11  
13  16  17  12  
14  15  16  13  
15  21  22  16  
16  22  23  17  
17  23  24  18  
18  24  25  19  
19  25  26  20  
21  29  30  22  
22  30  31  23  
23  31  32  24  
24  32  33  25  
25  33  34  26  
27  37  38  28  
28  38  39  29  
29  39  40  30  
30  40  41  31  
31  41  42  32  
32  42  43  33  
33  43  44  34  
37  46  47  38  
38  47  48  39  
39  48  49  40  
40  49  50  41  
41  50  51  42  
42  51  52  43  
43  52  53  44  
44  53  54  45  
46  55  1  47  
54  8  56  57  
9  20  58  59  
60  61  15  14  
61  62  21  15  
20  26  63  58  
62  28  29  21  
26  34  64  63  
65  66  27  67  
67  27  28  62  
66  68  37  27  
34  44  45  64  
69  70  35  71  
71  35  36  72  
70  73  74  35  
35  74  75  36  
72  36  76  77  
36  75  78  76  
68  79  46  37  
64  45  80  81  
45  54  57  80  
79  82  55  46  
VARIABLES  = "X","Y","Z", "PRESSURE1", "PRESSURE2", "PRESSURE_W", "SATURATION1", SATURATION2, "VELOCITY_X1", "VELOCITY_Y1", "VELOCITY_X2", "VELOCITY_Y2"
ZONE T="5.000000000000e+02s", N=82, E=59, F=FEPOINT, ET=QUADRILATERAL
STRANDID=1, SOLUTIONTIME=5.000000000000e+02
7.172413793097e-01 0.000000000000e+00 0.000000000000e+00 4.999999986829e+04 2.017407398876e+05 1.517407400194e+05 1.000000005268e-02 9.899999999473e-01 8.894910486304e-16 -2.812961216095e-18 8.717065680161e-08 -2.751931191204e-10 
8.068965517235e-01 0.000000000000e+00 0.000000000000e+00 4.999999986738e+04 2.017406638688e+05 1.517406640014e+05 1.000000005305e-02 9.899999999470e-01 8.268689627702e-16 1.822925165250e-17 8.103371092781e-08 1.786027031030e-09 
8.965517241372e-01 0.000000000000e+00 0.000000000000e+00 4.999999986758e+04 2.017405916208e+05 1.517405917532e+05 1.000000005297e-02 9.899999999470e-01 7.804491626808e-16 1.970533642319e-17 7.648411862412e-08 1.931094319377e-09 
9.862068965510e-01 0.000000000000e+00 0.000000000000e+00 4.999999986748e+04 2.017405239263e+05 1.517405240588e+05 1.000000005301e-02 9.899999999470e-01 7.287246028879e-16 1.960228164896e-17 7.141520879921e-08 1.921026917638e-09 
1.075862068965e+00 0.000000000000e+00 0.000000000000e+00 4.999999986748e+04 2.017404609528e+05 1.517404610853e+05 1.000000005301e-02 9.899999999470e-01 6.772863118149e-16 1.741650344127e-17 6.637419145166e-08 1.706820938740e-09 
1.165517241378e+00 0.000000000000e+00 0.000000000000e+00 4.999999986748e+04 2.017404024819e+05 1.517404026144e+05 1.000000005301e-02 9.899999999470e-01 6.298323869377e-16 1.614825495934e-17 6.172369746187e-08 1.582532680146e-09 
1.255172413792e+00 0.000000000000e+00 0.000000000000e+00 4.999999986748e+04 2.017403480174e+05 1.517403481499e+05 1.000000005301e-02 9.899999999470e-01 5.882616053870e-16 1.469219802604e-17 5.764956154947e-08 1.439838545581e-09 
1.344827586206e+00 0.000000000000e+00 0.000000000000e+00 4.999999986783e+04 2.017402970008e+05 1.517402971330e+05 1.000000005287e-02 9.899999999471e-01 5.640166628274e-16 1.189260099255e-17 5.527355233731e-08 1.165476920247e-09 
1.255172413794e+00 5.000000000000e-01 0.000000000000e+00 4.999999986783e+04 2.017403392687e+05 1.517403394008e+05 1.000000005287e-02 9.899999999471e-01 6.157222833501e-16 -7.158320581341e-18 6.034071284218e-08 -7.015164608592e-10 
1.165517241380e+00 5.000000000000e-01 0.000000000000e+00 4.999999986748e+04 2.017403958192e+05 1.517403959517e+05 1.000000005301e-02 9.899999999470e-01 6.480553183467e-16 -1.085823934084e-17 6.350935717812e-08 -1.064110162349e-09 
1.075862068966e+00 5.000000000000e-01 0.000000000000e+00 4.999999986748e+04 2.017404554713e+05 1.517404556038e+05 1.000000005301e-02 9.899999999470e-01 6.863193555226e-16 -1.235341352657e-17 6.725943213898e-08 -1.210637102065e-09 
9.862068965524e-01 5.000000000000e-01 0.000000000000e+00 4.999999986748e+04 2.017405188834e+05 1.517405190159e+05 1.000000005301e-02 9.899999999470e-01 7.264721829328e-16 -1.129826633801e-17 7.119441730349e-08 -1.107233262737e-09 
8.965517241385e-01 5.000000000000e-01 0.000000000000e+00 4.999999986748e+04 2.017405857353e+05 1.517405858678e+05 1.000000005301e-02 9.899999999470e-01 7.609018207020e-16 -5.631597711278e-18 7.456872005433e-08 -5.518988026381e-10 
8.068965517245e-01 5.000000000000e-01 0.000000000000e+00 4.999999986783e+04 2.017406553213e+05 1.517406554535e+05 1.000000005287e-02 9.899999999471e-01 8.313244412241e-16 -4.619745501162e-19 8.147015054997e-08 -4.527447073724e-11 
8.068965517243e-01 4.166666666667e-01 0.000000000000e+00 4.999999986783e+04 2.017406552828e+05 1.517406554150e+05 1.000000005287e-02 9.899999999471e-01 8.298786991309e-16 1.520539653201e-17 8.132846783381e-08 1.490057251729e-09 
8.965517241383e-01 4.166666666667e-01 0.000000000000e+00 4.999999986748e+04 2.017405852660e+05 1.517405853985e+05 1.000000005301e-02 9.899999999470e-01 7.659379177169e-16 8.167859966001e-18 7.506225859778e-08 8.004514015712e-10 
9.862068965522e-01 4.166666666667e-01 0.000000000000e+00 4.999999986748e+04 2.017405179418e+05 1.517405180744e+05 1.000000005301e-02 9.899999999470e-01 7.295961039395e-16 4.919641462320e-18 7.150056171899e-08 4.821252561338e-10 
1.075862068966e+00 4.166666666666e-01 0.000000000000e+00 4.999999986748e+04 2.017404544419e+05 1.517404545744e+05 1.000000005301e-02 9.899999999470e-01 6.861148557944e-16 4.818842340415e-18 6.723939101003e-08 4.722473598596e-10 
1.165517241380e+00 4.166666666666e-01 0.000000000000e+00 4.999999986748e+04 2.017403949144e+05 1.517403950469e+05 1.000000005301e-02 9.899999999470e-01 6.456409319798e-16 6.489484399262e-18 6.327274660261e-08 6.359705656986e-10 
1.255172413794e+00 4.166666666666e-01 0.000000000000e+00 4.999999986783e+04 2.017403386721e+05 1.517403388043e+05 1.000000005287e-02 9.899999999471e-01 6.080351056925e-16 9.523966562304e-18 5.958736808160e-08 9.333507450662e-10 
8.068965517241e-01 3.333333333335e-01 0.000000000000e+00 4.999999986770e+04 2.017406578554e+05 1.517406579877e+05 1.000000005292e-02 9.899999999471e-01 8.266121909200e-16 2.964054267591e-17 8.100850262222e-08 2.904646862051e-09 
8.965517241380e-01 3.333333333334e-01 0.000000000000e+00 4.999999986748e+04 2.017405870966e+05 1.517405872291e+05 1.000000005301e-02 9.899999999470e-01 7.704622977128e-16 2.154697059151e-17 7.550557985679e-08 2.111607520546e-09 
9.862068965520e-01 3.333333333334e-01 0.000000000000e+00 4.999999986748e+04 2.017405197033e+05 1.517405198358e+05 1.000000005301e-02 9.899999999470e-01 7.295850523533e-16 2.029523191816e-17 7.149947875972e-08 1.988936847596e-09 
1.075862068966e+00 3.333333333334e-01 0.000000000000e+00 4.999999986748e+04 2.017404562745e+05 1.517404564070e+05 1.000000005301e-02 9.899999999470e-01 6.848602065558e-16 2.177019409223e-17 6.711643493265e-08 2.133483110062e-09 
1.165517241380e+00 3.333333333334e-01 0.000000000000e+00 4.999999986748e+04 2.017403969008e+05 1.517403970333e+05 1.000000005301e-02 9.899999999470e-01 6.436819653875e-16 2.441390832602e-17 6.308076747771e-08 2.392568040260e-09 
1.255172413794e+00 3.333333333333e-01 0.000000000000e+00 4.999999986783e+04 2.017403408560e+05 1.517403409882e+05 1.000000005287e-02 9.899999999471e-01 6.089168112017e-16 2.893795473970e-17 5.967377572334e-08 2.835851091611e-09 
6.275862068963e-01 2.500000000004e-01 0.000000000000e+00 4.999999986811e+04 2.017408189656e+05 1.517408190975e+05 1.000000005276e-02 9.899999999472e-01 9.519337555923e-16 1.948267569380e-17 9.327568813219e-08 1.909347424091e-09 
7.172413793101e-01 2.500000000004e-01 0.000000000000e+00 4.999999986776e+04 2.017407368873e+05 1.517407370195e+05 1.000000005290e-02 9.899999999471e-01 8.852943512771e-16 2.767455022543e-17 8.675929648001e-08 2.711739969431e-09 
8.068965517240e-01 2.500000000003e-01 0.000000000000e+00 4.999999986761e+04 2.017406602227e+05 1.517406603550e+05 1.000000005296e-02 9.899999999470e-01 8.255509813975e-16 2.780528748454e-17 8.090431156767e-08 2.724791500310e-09 
8.965517241378e-01 2.500000000003e-01 0.000000000000e+00 4.999999986748e+04 2.017405888572e+05 1.517405889897e+05 1.000000005301e-02 9.899999999470e-01 7.746242637024e-16 1.760856944599e-17 7.591339925584e-08 1.725643305499e-09 
9.862068965517e-01 2.500000000002e-01 0.000000000000e+00 4.999999986748e+04 2.017405213244e+05 1.517405214569e+05 1.000000005301e-02 9.899999999470e-01 7.293886205633e-16 1.611745505790e-17 7.148022860183e-08 1.579513853290e-09 
1.075862068966e+00 2.500000000002e-01 0.000000000000e+00 4.999999986748e+04 2.017404580702e+05 1.517404582028e+05 1.000000005301e-02 9.899999999470e-01 6.822865988246e-16 1.823481408867e-17 6.686422104522e-08 1.787015670431e-09 
1.165517241379e+00 2.500000000002e-01 0.000000000000e+00 4.999999986748e+04 2.017403989833e+05 1.517403991159e+05 1.000000005301e-02 9.899999999470e-01 6.389785903439e-16 2.197248439428e-17 6.261990457133e-08 2.153307835078e-09 
1.255172413793e+00 2.500000000001e-01 0.000000000000e+00 4.999999986770e+04 2.017403434950e+05 1.517403436273e+05 1.000000005292e-02 9.899999999471e-01 6.077953285209e-16 2.914371539757e-17 5.956378584956e-08 2.855957784003e-09 
2.689655172412e-01 1.666666666671e-01 0.000000000000e+00 8.670749474816e+03 2.017335269768e+05 1.930627775020e+05 2.574007344693e-01 7.425992655307e-01 2.248847412194e-05 1.340261226403e-11 -2.853134403540e-05 6.602623814752e-10 
3.586206896549e-01 1.666666666671e-01 0.000000000000e+00 4.114040744947e+04 2.017410895733e+05 1.606006821239e+05 5.536150193685e-03 9.944638498063e-01 -1.923649864445e-06 -1.043648320546e-13 -4.193227769554e-06 1.692890164813e-09 
6.275862068961e-01 1.666666666670e-01 0.000000000000e+00 4.999999986783e+04 2.017408220946e+05 1.517408222268e+05 1.000000005287e-02 9.899999999471e-01 9.437871815495e-16 2.291899923700e-17 9.247754405614e-08 2.246066159977e-09 
7.172413793100e-01 1.666666666670e-01 0.000000000000e+00 4.999999986748e+04 2.017407399291e+05 1.517407400617e+05 1.000000005301e-02 9.899999999470e-01 8.901042610077e-16 1.940557337177e-17 8.723058408442e-08 1.901824385150e-09 
8.068965517238e-01 1.666666666670e-01 0.000000000000e+00 4.999999986748e+04 2.017406624894e+05 1.517406626219e+05 1.000000005301e-02 9.899999999470e-01 8.359683910269e-16 1.276357245115e-17 8.192506685870e-08 1.250922870693e-09 
8.965517241376e-01 1.666666666669e-01 0.000000000000e+00 4.999999986748e+04 2.017405900314e+05 1.517405901639e+05 1.000000005301e-02 9.899999999470e-01 7.813259879633e-16 6.728458138090e-18 7.657010075004e-08 6.594647643580e-10 
9.862068965515e-01 1.666666666669e-01 0.000000000000e+00 4.999999986748e+04 2.017405223896e+05 1.517405225221e+05 1.000000005301e-02 9.899999999470e-01 7.290029657522e-16 5.810269604697e-18 7.144243390673e-08 5.694075871715e-10 