VARIABLES  = "X","Y","Z", "PRESSURE1", "PRESSURE2", "PRESSURE_W", "SATURATION1", SATURATION2, "VELOCITY_X1", "VELOCITY_Y1", "VELOCITY_X2", "VELOCITY_Y2"
ZONE T="0.000000000000e+00s", N=82, E=59, F=FEPOINT, ET=QUADRILATERAL
STRANDID=1, SOLUTIONTIME=0.000000000000e+00
7.172413793097e-01 0.000000000000e+00 0.000000000000e+00 5.000000000000e+04 0.000000000000e+00 -5.000000000000e+04 1.000000000000e-02 9.900000000000e-01 0.000000000000e+00 0.000000000000e+00 0.000000000000e+00 0.000000000000e+00 
8.068965517235e-01 0.000000000000e+00 0.000000000000e+00 5.000000000000e+04 0.000000000000e+00 -5.000000000000e+04 1.000000000000e-02 9.900000000000e-01 0.000000000000e+00 0.000000000000e+00 0.000000000000e+00 0.000000000000e+00 
8.965517241372e-01 0.000000000000e+00 0.000000000000e+00 5.000000000000e+04 0.000000000000e+00 -5.000000000000e+04 1.000000000000e-02 9.900000000000e-01 0.000000000000e+00 0.000000000000e+00 0.000000000000e+00 0.000000000000e+00 
9.862068965510e-01 0.000000000000e+00 0.000000000000e+00 5.000000000000e+04 0.000000000000e+00 -5.000000000000e+04 1.000000000000e-02 9.900000000000e-01 0.000000000000e+00 0.000000000000e+00 0.000000000000e+00 0.000000000000e+00 
1.075862068965e+00 0.000000000000e+00 0.000000000000e+00 5.000000000000e+04 0.000000000000e+00 -5.000000000000e+04 1.000000000000e-02 9.900000000000e-01 0.000000000000e+00 0.000000000000e+00 0.000000000000e+00 0.000000000000e+00 
1.165517241378e+00 0.000000000000e+00 0.000000000000e+00 5.000000000000e+04 0.000000000000e+00 -5.000000000000e+04 1.000000000000e-02 9.900000000000e-01 0.000000000000e+00 0.000000000000e+00 0.000000000000e+00 0.000000000000e+00 
1.255172413792e+00 0.000000000000e+00 0.000000000000e+00 5.000000000000e+04 0.000000000000e+00 -5.000000000000e+04 1.000000000000e-02 9.900000000000e-01 0.000000000000e+00 0.000000000000e+00 0.000000000000e+00 0.000000000000e+00 
1.344827586206e+00 0.000000000000e+00 0.000000000000e+00 5.000000000000e+04 0.000000000000e+00 -5.000000000000e+04 1.000000000000e-02 9.900000000000e-01 0.000000000000e+00 0.000000000000e+00 0.000000000000e+00 0.000000000000e+00 
1.255172413794e+00 5.000000000000e-01 0.000000000000e+00 5.000000000000e+04 0.000000000000e+00 -5.000000000000e+04 1.000000000000e-02 9.900000000000e-01 0.000000000000e+00 0.000000000000e+00 0.000000000000e+00 0.000000000000e+00 
1.165517241380e+00 5.000000000000e-01 0.000000000000e+00 5.000000000000e+04 0.000000000000e+00 -5.000000000000e+04 1.000000000000e-02 9.900000000000e-01 0.000000000000e+00 0.000000000000e+00 0.000000000000e+00 0.000000000000e+00 
1.075862068966e+00 5.000000000000e-01 0.000000000000e+00 5.000000000000e+04 0.000000000000e+00 -5.000000000000e+04 1.000000000000e-02 9.900000000000e-01 0.000000000000e+00 0.000000000000e+00 0.000000000000e+00 0.000000000000e+00 
9.862068965524e-01 5.000000000000e-01 0.000000000000e+00 5.000000000000e+04 0.000000000000e+00 -5.000000000000e+04 1.000000000000e-02 9.900000000000e-01 0.000000000000e+00 0.000000000000e+00 0.000000000000e+00 0.000000000000e+00 
8.965517241385e-01 5.000000000000e-01 0.000000000000e+00 5.000000000000e+04 0.000000000000e+00 -5.000000000000e+04 1.000000000000e-02 9.900000000000e-01 0.000000000000e+00 0.000000000000e+00 0.000000000000e+00 0.000000000000e+00 
8.068965517245e-01 5.000000000000e-01 0.000000000000e+00 5.000000000000e+04 0.000000000000e+00 -5.000000000000e+04 1.000000000000e-02 9.900000000000e-01 0.000000000000e+00 0.000000000000e+00 0.000000000000e+00 0.000000000000e+00 
8.068965517243e-01 4.166666666667e-01 0.000000000000e+00 5.000000000000e+04 0.000000000000e+00 -5.000000000000e+04 1.000000000000e-02 9.900000000000e-01 0.000000000000e+00 0.000000000000e+00 0.000000000000e+00 0.000000000000e+00 
8.965517241383e-01 4.166666666667e-01 0.000000000000e+00 5.000000000000e+04 0.000000000000e+00 -5.000000000000e+04 1.000000000000e-02 9.900000000000e-01 0.000000000000e+00 0.000000000000e+00 0.000000000000e+00 0.000000000000e+00 
9.862068965522e-01 4.166666666667e-01 0.000000000000e+00 5.000000000000e+04 0.000000000000e+00 -5.000000000000e+04 1.000000000000e-02 9.900000000000e-01 0.000000000000e+00 0.000000000000e+00 0.000000000000e+00 0.000000000000e+00 
1.075862068966e+00 4.166666666666e-01 0.000000000000e+00 5.000000000000e+04 0.000000000000e+00 -5.000000000000e+04 1.000000000000e-02 9.900000000000e-01 0.000000000000e+00 0.000000000000e+00 0.000000000000e+00 0.000000000000e+00 
1.165517241380e+00 4.166666666666e-01 0.000000000000e+00 5.000000000000e+04 0.000000000000e+00 -5.000000000000e+04 1.000000000000e-02 9.900000000000e-01 0.000000000000e+00 0.000000000000e+00 0.000000000000e+00 0.000000000000e+00 
1.255172413794e+00 4.166666666666e-01 0.000000000000e+00 5.000000000000e+04 0.000000000000e+00 -5.000000000000e+04 1.000000000000e-02 9.900000000000e-01 0.000000000000e+00 0.000000000000e+00 0.000000000000e+00 0.000000000000e+00 
8.068965517241e-01 3.333333333335e-01 0.000000000000e+00 5.000000000000e+04 0.000000000000e+00 -5.000000000000e+04 1.000000000000e-02 9.900000000000e-01 0.000000000000e+00 0.000000000000e+00 0.000000000000e+00 0.000000000000e+00 
8.965517241380e-01 3.333333333334e-01 0.000000000000e+00 5.000000000000e+04 0.000000000000e+00 -5.000000000000e+04 1.000000000000e-02 9.900000000000e-01 0.000000000000e+00 0.000000000000e+00 0.000000000000e+00 0.000000000000e+00 
9.862068965520e-01 3.333333333334e-01 0.000000000000e+00 5.000000000000e+04 0.000000000000e+00 -5.000000000000e+04 1.000000000000e-02 9.900000000000e-01 0.000000000000e+00 0.000000000000e+00 0.000000000000e+00 0.000000000000e+00 
1.075862068966e+00 3.333333333334e-01 0.000000000000e+00 5.000000000000e+04 0.000000000000e+00 -5.000000000000e+04 1.000000000000e-02 9.900000000000e-01 0.000000000000e+00 0.000000000000e+00 0.000000000000e+00 0.000000000000e+00 
1.165517241380e+00 3.333333333334e-01 0.000000000000e+00 5.000000000000e+04 0.000000000000e+00 -5.000000000000e+04 1.000000000000e-02 9.900000000000e-01 0.000000000000e+00 0.000000000000e+00 0.000000000000e+00 0.000000000000e+00 
1.255172413794e+00 3.333333333333e-01 0.000000000000e+00 5.000000000000e+04 0.000000000000e+00 -5.000000000000e+04 1.000000000000e-02 9.900000000000e-01 0.000000000000e+00 0.000000000000e+00 0.000000000000e+00 0.000000000000e+00 
6.275862068963e-01 2.500000000004e-01 0.000000000000e+00 5.000000000000e+04 0.000000000000e+00 -5.000000000000e+04 1.000000000000e-02 9.900000000000e-01 0.000000000000e+00 0.000000000000e+00 0.000000000000e+00 0.000000000000e+00 
7.172413793101e-01 2.500000000004e-01 0.000000000000e+00 5.000000000000e+04 0.000000000000e+00 -5.000000000000e+04 1.000000000000e-02 9.900000000000e-01 0.000000000000e+00 0.000000000000e+00 0.000000000000e+00 0.000000000000e+00 
8.068965517240e-01 2.500000000003e-01 0.000000000000e+00 5.000000000000e+04 0.000000000000e+00 -5.000000000000e+04 1.000000000000e-02 9.900000000000e-01 0.000000000000e+00 0.000000000000e+00 0.000000000000e+00 0.000000000000e+00 
8.965517241378e-01 2.500000000003e-01 0.000000000000e+00 5.000000000000e+04 0.000000000000e+00 -5.000000000000e+04 1.000000000000e-02 9.900000000000e-01 0.000000000000e+00 0.000000000000e+00 0.000000000000e+00 0.000000000000e+00 
9.862068965517e-01 2.500000000002e-01 0.000000000000e+00 5.000000000000e+04 0.000000000000e+00 -5.000000000000e+04 1.000000000000e-02 9.900000000000e-01 0.000000000000e+00 0.000000000000e+00 0.000000000000e+00 0.000000000000e+00 
1.075862068966e+00 2.500000000002e-01 0.000000000000e+00 5.000000000000e+04 0.000000000000e+00 -5.000000000000e+04 1.000000000000e-02 9.900000000000e-01 0.000000000000e+00 0.000000000000e+00 0.000000000000e+00 0.000000000000e+00 
1.165517241379e+00 2.500000000002e-01 0.000000000000e+00 5.000000000000e+04 0.000000000000e+00 -5.000000000000e+04 1.000000000000e-02 9.900000000000e-01 0.000000000000e+00 0.000000000000e+00 0.000000000000e+00 0.000000000000e+00 
1.255172413793e+00 2.500000000001e-01 0.000000000000e+00 5.000000000000e+04 0.000000000000e+00 -5.000000000000e+04 1.000000000000e-02 9.900000000000e-01 0.000000000000e+00 0.000000000000e+00 0.000000000000e+00 0.000000000000e+00 
2.689655172412e-01 1.666666666671e-01 0.000000000000e+00 5.000000000000e+04 0.000000000000e+00 -5.000000000000e+04 1.000000000000e-02 9.900000000000e-01 0.000000000000e+00 0.000000000000e+00 0.000000000000e+00 0.000000000000e+00 
3.586206896549e-01 1.666666666671e-01 0.000000000000e+00 5.000000000000e+04 0.000000000000e+00 -5.000000000000e+04 1.000000000000e-02 9.900000000000e-01 0.000000000000e+00 0.000000000000e+00 0.000000000000e+00 0.000000000000e+00 
6.275862068961e-01 1.666666666670e-01 0.000000000000e+00 5.000000000000e+04 0.000000000000e+00 -5.000000000000e+04 1.000000000000e-02 9.900000000000e-01 0.000000000000e+00 0.000000000000e+00 0.000000000000e+00 0.000000000000e+00 
7.172413793100e-01 1.666666666670e-01 0.000000000000e+00 5.000000000000e+04 0.000000000000e+00 -5.000000000000e+04 1.000000000000e-02 9.900000000000e-01 0.000000000000e+00 0.000000000000e+00 0.000000000000e+00 0.000000000000e+00 
8.068965517238e-01 1.666666666670e-01 0.000000000000e+00 5.000000000000e+04 0.000000000000e+00 -5.000000000000e+04 1.000000000000e-02 9.900000000000e-01 0.000000000000e+00 0.000000000000e+00 0.000000000000e+00 0.000000000000e+00 
8.965517241376e-01 1.666666666669e-01 0.000000000000e+00 5.000000000000e+04 0.000000000000e+00 -5.000000000000e+04 1.000000000000e-02 9.900000000000e-01 0.000000000000e+00 0.000000000000e+00 0.000000000000e+00 0.000000000000e+00 
9.862068965515e-01 1.666666666669e-01 0.000000000000e+00 5.000000000000e+04 0.000000000000e+00 -5.000000000000e+04 1.000000000000e-02 9.900000000000e-01 0.000000000000e+00 0.000000000000e+00 0.000000000000e+00 0.000000000000e+00 
1.075862068965e+00 1.666666666669e-01 0.000000000000e+00 5.000000000000e+04 0.000000000000e+00 -5.000000000000e+04 1.000000000000e-02 9.900000000000e-01 0.000000000000e+00 0.000000000000e+00 0.000000000000e+00 0.000000000000e+00 
1.165517241379e+00 1.666666666668e-01 0.000000000000e+00 5.000000000000e+04 0.000000000000e+00 -5.000000000000e+04 1.000000000000e-02 9.900000000000e-01 0.000000000000e+00 0.000000000000e+00 0.000000000000e+00 0.000000000000e+00 
1.255172413793e+00 1.666666666668e-01 0.000000000000e+00 5.000000000000e+04 0.000000000000e+00 -5.000000000000e+04 1.000000000000e-02 9.900000000000e-01 0.000000000000e+00 0.000000000000e+00 0.000000000000e+00 0.000000000000e+00 
1.344827586207e+00 1.666666666668e-01 0.000000000000e+00 5.000000000000e+04 0.000000000000e+00 -5.000000000000e+04 1.000000000000e-02 9.900000000000e-01 0.000000000000e+00 0.000000000000e+00 0.000000000000e+00 0.000000000000e+00 
6.275862068961e-01 8.333333333355e-02 0.000000000000e+00 5.000000000000e+04 0.000000000000e+00 -5.000000000000e+04 1.000000000000e-02 9.900000000000e-01 0.000000000000e+00 0.000000000000e+00 0.000000000000e+00 0.000000000000e+00 
7.172413793098e-01 8.333333333353e-02 0.000000000000e+00 5.000000000000e+04 0.000000000000e+00 -5.000000000000e+04 1.000000000000e-02 9.900000000000e-01 0.000000000000e+00 0.000000000000e+00 0.000000000000e+00 0.000000000000e+00 
8.068965517236e-01 8.333333333351e-02 0.000000000000e+00 5.000000000000e+04 0.000000000000e+00 -5.000000000000e+04 1.000000000000e-02 9.900000000000e-01 0.000000000000e+00 0.000000000000e+00 0.000000000000e+00 0.000000000000e+00 
8.965517241374e-01 8.333333333349e-02 0.000000000000e+00 5.000000000000e+04 0.000000000000e+00 -5.000000000000e+04 1.000000000000e-02 9.900000000000e-01 0.000000000000e+00 0.000000000000e+00 0.000000000000e+00 0.000000000000e+00 
9.862068965512e-01 8.333333333347e-02 0.000000000000e+00 5.000000000000e+04 0.000000000000e+00 -5.000000000000e+04 1.000000000000e-02 9.900000000000e-01 0.000000000000e+00 0.000000000000e+00 0.000000000000e+00 0.000000000000e+00 
1.075862068965e+00 8.333333333345e-02 0.000000000000e+00 5.000000000000e+04 0.000000000000e+00 -5.000000000000e+04 1.000000000000e-02 9.900000000000e-01 0.000000000000e+00 0.000000000000e+00 0.000000000000e+00 0.000000000000e+00 
1.165517241379e+00 8.333333333344e-02 0.000000000000e+00 5.000000000000e+04 0.000000000000e+00 -5.000000000000e+04 1.000000000000e-02 9.900000000000e-01 0.000000000000e+00 0.000000000000e+00 0.000000000000e+00 0.000000000000e+00 
1.255172413793e+00 8.333333333342e-02 0.000000000000e+00 5.000000000000e+04 0.000000000000e+00 -5.000000000000e+04 1.000000000000e-02 9.900000000000e-01 0.000000000000e+00 0.000000000000e+00 0.000000000000e+00 0.000000000000e+00 
1.344827586206e+00 8.333333333340e-02 0.000000000000e+00 5.000000000000e+04 0.000000000000e+00 -5.000000000000e+04 1.000000000000e-02 9.900000000000e-01 0.000000000000e+00 0.000000000000e+00 0.000000000000e+00 0.000000000000e+00 
6.275862068960e-01 0.000000000000e+00 0.000000000000e+00 5.000000000000e+04 0.000000000000e+00 -5.000000000000e+04 1.000000000000e-02 9.900000000000e-01 0.000000000000e+00 0.000000000000e+00 0.000000000000e+00 0.000000000000e+00 
1.434482758620e+00 0.000000000000e+00 0.000000000000e+00 5.000000000000e+04 0.000000000000e+00 -5.000000000000e+04 1.000000000000e-02 9.900000000000e-01 0.000000000000e+00 0.000000000000e+00 0.000000000000e+00 0.000000000000e+00 
1.434482758620e+00 8.333333333338e-02 0.000000000000e+00 5.000000000000e+04 0.000000000000e+00 -5.000000000000e+04 1.000000000000e-02 9.900000000000e-01 0.000000000000e+00 0.000000000000e+00 0.000000000000e+00 0.000000000000e+00 
1.344827586208e+00 4.166666666666e-01 0.000000000000e+00 5.000000000000e+04 0.000000000000e+00 -5.000000000000e+04 1.000000000000e-02 9.900000000000e-01 0.000000000000e+00 0.000000000000e+00 0.000000000000e+00 0.000000000000e+00 
1.344827586208e+00 5.000000000000e-01 0.000000000000e+00 5.000000000000e+04 0.000000000000e+00 -5.000000000000e+04 1.000000000000e-02 9.900000000000e-01 0.000000000000e+00 0.000000000000e+00 0.000000000000e+00 0.000000000000e+00 
7.172413793105e-01 5.000000000000e-01 0.000000000000e+00 5.000000000000e+04 0.000000000000e+00 -5.000000000000e+04 1.000000000000e-02 9.900000000000e-01 0.000000000000e+00 0.000000000000e+00 0.000000000000e+00 0.000000000000e+00 
7.172413793104e-01 4.166666666667e-01 0.000000000000e+00 5.000000000000e+04 0.000000000000e+00 -5.000000000000e+04 1.000000000000e-02 9.900000000000e-01 0.000000000000e+00 0.000000000000e+00 0.000000000000e+00 0.000000000000e+00 
7.172413793102e-01 3.333333333335e-01 0.000000000000e+00 5.000000000000e+04 0.000000000000e+00 -5.000000000000e+04 1.000000000000e-02 9.900000000000e-01 0.000000000000e+00 0.000000000000e+00 0.000000000000e+00 0.000000000000e+00 
1.344827586208e+00 3.333333333333e-01 0.000000000000e+00 5.000000000000e+04 0.000000000000e+00 -5.000000000000e+04 1.000000000000e-02 9.900000000000e-01 0.000000000000e+00 0.000000000000e+00 0.000000000000e+00 0.000000000000e+00 
1.344827586207e+00 2.500000000001e-01 0.000000000000e+00 5.000000000000e+04 0.000000000000e+00 -5.000000000000e+04 1.000000000000e-02 9.900000000000e-01 0.000000000000e+00 0.000000000000e+00 0.000000000000e+00 0.000000000000e+00 
5.379310344826e-01 3.333333333335e-01 0.000000000000e+00 5.000000000000e+04 0.000000000000e+00 -5.000000000000e+04 1.000000000000e-02 9.900000000000e-01 0.000000000000e+00 0.000000000000e+00 0.000000000000e+00 0.000000000000e+00 
5.379310344825e-01 2.500000000004e-01 0.000000000000e+00 5.000000000000e+04 0.000000000000e+00 -5.000000000000e+04 1.000000000000e-02 9.900000000000e-01 0.000000000000e+00 0.000000000000e+00 0.000000000000e+00 0.000000000000e+00 
6.275862068964e-01 3.333333333335e-01 0.000000000000e+00 5.000000000000e+04 0.000000000000e+00 -5.000000000000e+04 1.000000000000e-02 9.900000000000e-01 0.000000000000e+00 0.000000000000e+00 0.000000000000e+00 0.000000000000e+00 
5.379310344824e-01 1.666666666670e-01 0.000000000000e+00 5.000000000000e+04 0.000000000000e+00 -5.000000000000e+04 1.000000000000e-02 9.900000000000e-01 0.000000000000e+00 0.000000000000e+00 0.000000000000e+00 0.000000000000e+00 
1.793103448275e-01 2.500000000006e-01 0.000000000000e+00 5.000000000000e+04 0.000000000000e+00 -5.000000000000e+04 1.000000000000e-02 9.900000000000e-01 0.000000000000e+00 0.000000000000e+00 0.000000000000e+00 0.000000000000e+00 
1.793103448275e-01 1.666666666672e-01 0.000000000000e+00 5.000000000000e+04 0.000000000000e+00 -5.000000000000e+04 1.000000000000e-02 9.900000000000e-01 0.000000000000e+00 0.000000000000e+00 0.000000000000e+00 0.000000000000e+00 
2.689655172413e-01 2.500000000006e-01 0.000000000000e+00 5.000000000000e+04 0.000000000000e+00 -5.000000000000e+04 1.000000000000e-02 9.900000000000e-01 0.000000000000e+00 0.000000000000e+00 0.000000000000e+00 0.000000000000e+00 
3.586206896550e-01 2.500000000005e-01 0.000000000000e+00 5.000000000000e+04 0.000000000000e+00 -5.000000000000e+04 1.000000000000e-02 9.900000000000e-01 0.000000000000e+00 0.000000000000e+00 0.000000000000e+00 0.000000000000e+00 
1.793103448274e-01 8.333333333364e-02 0.000000000000e+00 5.000000000000e+04 0.000000000000e+00 -5.000000000000e+04 1.000000000000e-02 9.900000000000e-01 0.000000000000e+00 0.000000000000e+00 0.000000000000e+00 0.000000000000e+00 
2.689655172412e-01 8.333333333362e-02 0.000000000000e+00 5.000000000000e+04 0.000000000000e+00 -5.000000000000e+04 1.000000000000e-02 9.900000000000e-01 0.000000000000e+00 0.000000000000e+00 0.000000000000e+00 0.000000000000e+00 
3.586206896549e-01 8.333333333360e-02 0.000000000000e+00 5.000000000000e+04 0.000000000000e+00 -5.000000000000e+04 1.000000000000e-02 9.900000000000e-01 0.000000000000e+00 0.000000000000e+00 0.000000000000e+00 0.000000000000e+00 
4.482758620687e-01 1.666666666671e-01 0.000000000000e+00 5.000000000000e+04 0.000000000000e+00 -5.000000000000e+04 1.000000000000e-02 9.900000000000e-01 0.000000000000e+00 0.000000000000e+00 0.000000000000e+00 0.000000000000e+00 
4.482758620688e-01 2.500000000005e-01 0.000000000000e+00 5.000000000000e+04 0.000000000000e+00 -5.000000000000e+04 1.000000000000e-02 9.900000000000e-01 0.000000000000e+00 0.000000000000e+00 0.000000000000e+00 0.000000000000e+00 
4.482758620686e-01 8.333333333359e-02 0.000000000000e+00 5.000000000000e+04 0.000000000000e+00 -5.000000000000e+04 1.000000000000e-02 9.900000000000e-01 0.000000000000e+00 0.000000000000e+00 0.000000000000e+00 0.000000000000e+00 
5.379310344823e-01 8.333333333357e-02 0.000000000000e+00 5.000000000000e+04 0.000000000000e+00 -5.000000000000e+04 1.000000000000e-02 9.900000000000e-01 0.000000000000e+00 0.000000000000e+00 0.000000000000e+00 0.000000000000e+00 
1.434482758621e+00 1.666666666667e-01 0.000000000000e+00 5.000000000000e+04 0.000000000000e+00 -5.000000000000e+04 1.000000000000e-02 9.900000000000e-01 0.000000000000e+00 0.000000000000e+00 0.000000000000e+00 0.000000000000e+00 
1.434482758621e+00 2.500000000000e-01 0.000000000000e+00 5.000000000000e+04 0.000000000000e+00 -5.000000000000e+04 1.000000000000e-02 9.900000000000e-01 0.000000000000e+00 0.000000000000e+00 0.000000000000e+00 0.000000000000e+00 
5.379310344822e-01 0.000000000000e+00 0.000000000000e+00 5.000000000000e+04 0.000000000000e+00 -5.000000000000e+04 1.000000000000e-02 9.900000000000e-01 0.000000000000e+00 0.000000000000e+00 0.000000000000e+00 0.000000000000e+00 
47  1  2  48  
48  2  3  49  
49  3  4  50  
50  4  5  51  
51  5  6  52  
52  6  7  53  
53  7  8  54  
10  19  20  9  
11  18  19  10  
12  17  18  11  
13  16  17  12  
14  15  16  13  
15  21  22  16  
16  22  23  17  
17  23  24  18  
18  24  25  19  
19  25  26  20  
21  29  30  22  
22  30  31  23  
23  31  32  24  
24  32  33  25  
25  33  34  26  
27  37  38  28  
28  38  39  29  
29  39  40  30  
30  40  41  31  
31  41  42  32  
32  42  43  33  
33  43  44  34  
37  46  47  38  
38  47  48  39  
39  48  49  40  
40  49  50  41  
41  50  51  42  
42  51  52  43  
43  52  53  44  
44  53  54  45  
46  55  1  47  
54  8  56  57  
9  20  58  59  
60  61  15  14  
61  62  21  15  
20  26  63  58  
62  28  29  21  
26  34  64  63  
65  66  27  67  
67  27  28  62  
66  68  37  27  
34  44  45  64  
69  70  35  71  
71  35  36  72  
70  73  74  35  
35  74  75  36  
72  36  76  77  
36  75  78  76  
68  79  46  37  
64  45  80  81  
45  54  57  80  
79  82  55  46  
VARIABLES  = "X","Y","Z", "PRESSURE1", "PRESSURE2", "PRESSURE_W", "SATURATION1", SATURATION2, "VELOCITY_X1", "VELOCITY_Y1", "VELOCITY_X2", "VELOCITY_Y2"
ZONE T="5.000000000000e+02s", N=82, E=59, F=FEPOINT, ET=QUADRILATERAL
STRANDID=1, SOLUTIONTIME=5.000000000000e+02
7.172413793097e-01 0.000000000000e+00 0.000000000000e+00 4.999999986829e+04 2.017407398879e+05 1.517407400196e+05 1.000000005268e-02 9.899999999473e-01 8.894909820273e-16 -2.813027676711e-18 8.717065029252e-08 -2.751993518261e-10 
8.068965517235e-01 0.000000000000e+00 0.000000000000e+00 4.999999986738e+04 2.017406638690e+05 1.517406640016e+05 1.000000005305e-02 9.899999999470e-01 8.268689010946e-16 1.822926061716e-17 8.103370504751e-08 1.786027685929e-09 
8.965517241372e-01 0.000000000000e+00 0.000000000000e+00 4.999999986758e+04 2.017405916210e+05 1.517405917534e+05 1.000000005297e-02 9.899999999470e-01 7.804491349988e-16 1.970533742308e-17 7.648411573777e-08 1.931094273147e-09 
9.862068965510e-01 0.000000000000e+00 0.000000000000e+00 4.999999986748e+04 2.017405239265e+05 1.517405240590e+05 1.000000005301e-02 9.899999999470e-01 7.287245729300e-16 1.960227585335e-17 7.141520576757e-08 1.921026639589e-09 
1.075862068965e+00 0.000000000000e+00 0.000000000000e+00 4.999999986748e+04 2.017404609531e+05 1.517404610856e+05 1.000000005301e-02 9.899999999470e-01 6.772862853377e-16 1.741650210404e-17 6.637418911700e-08 1.706820643818e-09 
1.165517241378e+00 0.000000000000e+00 0.000000000000e+00 4.999999986748e+04 2.017404024821e+05 1.517404026146e+05 1.000000005301e-02 9.899999999470e-01 6.298323702895e-16 1.614825843665e-17 6.172369609925e-08 1.582532200708e-09 
1.255172413792e+00 0.000000000000e+00 0.000000000000e+00 4.999999986748e+04 2.017403480176e+05 1.517403481501e+05 1.000000005301e-02 9.899999999470e-01 5.882616008214e-16 1.469219230940e-17 5.764956102874e-08 1.439838053527e-09 
1.344827586206e+00 0.000000000000e+00 0.000000000000e+00 4.999999986783e+04 2.017402970010e+05 1.517402971332e+05 1.000000005287e-02 9.899999999471e-01 5.640166495948e-16 1.189260096159e-17 5.527355111835e-08 1.165476464057e-09 
1.255172413794e+00 5.000000000000e-01 0.000000000000e+00 4.999999986783e+04 2.017403392689e+05 1.517403394011e+05 1.000000005287e-02 9.899999999471e-01 6.157222610313e-16 -7.158315634067e-18 6.034071071876e-08 -7.015161288082e-10 
1.165517241380e+00 5.000000000000e-01 0.000000000000e+00 4.999999986748e+04 2.017403958194e+05 1.517403959520e+05 1.000000005301e-02 9.899999999470e-01 6.480553073241e-16 -1.085824556059e-17 6.350935585636e-08 -1.064109995662e-09 
1.075862068966e+00 5.000000000000e-01 0.000000000000e+00 4.999999986748e+04 2.017404554716e+05 1.517404556041e+05 1.000000005301e-02 9.899999999470e-01 6.863193314231e-16 -1.235341466140e-17 6.725942983294e-08 -1.210636956543e-09 
9.862068965524e-01 5.000000000000e-01 0.000000000000e+00 4.999999986748e+04 2.017405188836e+05 1.517405190161e+05 1.000000005301e-02 9.899999999470e-01 7.264721486860e-16 -1.129826830212e-17 7.119441380490e-08 -1.107232724671e-09 
8.965517241385e-01 5.000000000000e-01 0.000000000000e+00 4.999999986748e+04 2.017405857355e+05 1.517405858680e+05 1.000000005301e-02 9.899999999470e-01 7.609017718020e-16 -5.631594491217e-18 7.456871530886e-08 -5.518978867736e-10 
8.068965517245e-01 5.000000000000e-01 0.000000000000e+00 4.999999986783e+04 2.017406553215e+05 1.517406554537e+05 1.000000005287e-02 9.899999999471e-01 8.313244237876e-16 -4.619814305563e-19 8.147014884091e-08 -4.527434762673e-11 
8.068965517243e-01 4.166666666667e-01 0.000000000000e+00 4.999999986783e+04 2.017406552830e+05 1.517406554152e+05 1.000000005287e-02 9.899999999471e-01 8.298786720598e-16 1.520539521537e-17 8.132846513476e-08 1.490057225729e-09 
8.965517241383e-01 4.166666666667e-01 0.000000000000e+00 4.999999986748e+04 2.017405852662e+05 1.517405853987e+05 1.000000005301e-02 9.899999999470e-01 7.659378671859e-16 8.167856892562e-18 7.506225366339e-08 8.004513369103e-10 
9.862068965522e-01 4.166666666667e-01 0.000000000000e+00 4.999999986748e+04 2.017405179421e+05 1.517405180746e+05 1.000000005301e-02 9.899999999470e-01 7.295960715444e-16 4.919636028476e-18 7.150055859866e-08 4.821249838904e-10 
1.075862068966e+00 4.166666666666e-01 0.000000000000e+00 4.999999986748e+04 2.017404544421e+05 1.517404545746e+05 1.000000005301e-02 9.899999999470e-01 6.861148337703e-16 4.818837130941e-18 6.723938881516e-08 4.722469829380e-10 
1.165517241380e+00 4.166666666666e-01 0.000000000000e+00 4.999999986748e+04 2.017403949146e+05 1.517403950471e+05 1.000000005301e-02 9.899999999470e-01 6.456409181761e-16 6.489477969229e-18 6.327274522276e-08 6.359702133939e-10 
1.255172413794e+00 4.166666666666e-01 0.000000000000e+00 4.999999986783e+04 2.017403386724e+05 1.517403388045e+05 1.000000005287e-02 9.899999999471e-01 6.080350881897e-16 9.523963184816e-18 5.958736616958e-08 9.333503788810e-10 
8.068965517241e-01 3.333333333335e-01 0.000000000000e+00 4.999999986770e+04 2.017406578556e+05 1.517406579879e+05 1.000000005292e-02 9.899999999471e-01 8.266121680626e-16 2.964054255762e-17 8.100850022180e-08 2.904646669544e-09 
8.965517241380e-01 3.333333333334e-01 0.000000000000e+00 4.999999986748e+04 2.017405870968e+05 1.517405872294e+05 1.000000005301e-02 9.899999999470e-01 7.704622530576e-16 2.154696078016e-17 7.550557533798e-08 2.111606547625e-09 
9.862068965520e-01 3.333333333334e-01 0.000000000000e+00 4.999999986748e+04 2.017405197035e+05 1.517405198361e+05 1.000000005301e-02 9.899999999470e-01 7.295850198132e-16 2.029522303608e-17 7.149947560377e-08 1.988935774448e-09 
1.075862068966e+00 3.333333333334e-01 0.000000000000e+00 4.999999986748e+04 2.017404562747e+05 1.517404564072e+05 1.000000005301e-02 9.899999999470e-01 6.848601836018e-16 2.177018429177e-17 6.711643268123e-08 2.133482106328e-09 
1.165517241380e+00 3.333333333334e-01 0.000000000000e+00 4.999999986748e+04 2.017403969010e+05 1.517403970335e+05 1.000000005301e-02 9.899999999470e-01 6.436819528006e-16 2.441389943858e-17 6.308076617173e-08 2.392567048240e-09 
1.255172413794e+00 3.333333333333e-01 0.000000000000e+00 4.999999986783e+04 2.017403408562e+05 1.517403409884e+05 1.000000005287e-02 9.899999999471e-01 6.089167914709e-16 2.893794316707e-17 5.967377385859e-08 2.835850010649e-09 
6.275862068963e-01 2.500000000004e-01 0.000000000000e+00 4.999999986811e+04 2.017408189658e+05 1.517408190977e+05 1.000000005276e-02 9.899999999472e-01 9.519337224740e-16 1.948266381004e-17 9.327568477915e-08 1.909346432729e-09 
7.172413793101e-01 2.500000000004e-01 0.000000000000e+00 4.999999986776e+04 2.017407368875e+05 1.517407370197e+05 1.000000005290e-02 9.899999999471e-01 8.852943086139e-16 2.767452193366e-17 8.675929224131e-08 2.711737424188e-09 
8.068965517240e-01 2.500000000003e-01 0.000000000000e+00 4.999999986761e+04 2.017406602229e+05 1.517406603553e+05 1.000000005296e-02 9.899999999470e-01 8.255509330290e-16 2.780528361932e-17 8.090430691014e-08 2.724791289842e-09 
8.965517241378e-01 2.500000000003e-01 0.000000000000e+00 4.999999986748e+04 2.017405888574e+05 1.517405889899e+05 1.000000005301e-02 9.899999999470e-01 7.746242211041e-16 1.760855735394e-17 7.591339516410e-08 1.725642218560e-09 
9.862068965517e-01 2.500000000002e-01 0.000000000000e+00 4.999999986748e+04 2.017405213246e+05 1.517405214571e+05 1.000000005301e-02 9.899999999470e-01 7.293885883631e-16 1.611744243218e-17 7.148022551298e-08 1.579512701420e-09 
1.075862068966e+00 2.500000000002e-01 0.000000000000e+00 4.999999986748e+04 2.017404580705e+05 1.517404582030e+05 1.000000005301e-02 9.899999999470e-01 6.822865771281e-16 1.823480362651e-17 6.686421874921e-08 1.787014561264e-09 
1.165517241379e+00 2.500000000002e-01 0.000000000000e+00 4.999999986748e+04 2.017403989836e+05 1.517403991161e+05 1.000000005301e-02 9.899999999470e-01 6.389785780721e-16 2.197247409250e-17 6.261990323353e-08 2.153306831796e-09 
1.255172413793e+00 2.500000000001e-01 0.000000000000e+00 4.999999986770e+04 2.017403434952e+05 1.517403436275e+05 1.000000005292e-02 9.899999999471e-01 6.077953100611e-16 2.914370428106e-17 5.956378409643e-08 2.855956727358e-09 
2.689655172412e-01 1.666666666671e-01 0.000000000000e+00 8.670749485519e+03 2.017335269771e+05 1.930627774916e+05 2.574007337724e-01 7.425992662276e-01 2.248847393068e-05 1.340245906498e-11 -2.853134409417e-05 6.602626476818e-10 
3.586206896549e-01 1.666666666671e-01 0.000000000000e+00 4.114040752443e+04 2.017410895736e+05 1.606006820491e+05 5.536150166481e-03 9.944638498335e-01 -1.923649845868e-06 -1.043629969660e-13 -4.193227729564e-06 1.692890445958e-09 
6.275862068961e-01 1.666666666670e-01 0.000000000000e+00 4.999999986783e+04 2.017408220948e+05 1.517408222270e+05 1.000000005287e-02 9.899999999471e-01 9.437871399528e-16 2.291901463377e-17 9.247753986631e-08 2.246067677315e-09 
7.172413793100e-01 1.666666666670e-01 0.000000000000e+00 4.999999986748e+04 2.017407399294e+05 1.517407400619e+05 1.000000005301e-02 9.899999999470e-01 8.901042248165e-16 1.940558387162e-17 8.723058056812e-08 1.901825227867e-09 
8.068965517238e-01 1.666666666670e-01 0.000000000000e+00 4.999999986748e+04 2.017406624896e+05 1.517406626221e+05 1.000000005301e-02 9.899999999470e-01 8.359683529557e-16 1.276357140223e-17 8.192506308410e-08 1.250922745001e-09 
8.965517241376e-01 1.666666666669e-01 0.000000000000e+00 4.999999986748e+04 2.017405900316e+05 1.517405901641e+05 1.000000005301e-02 9.899999999470e-01 7.813259515073e-16 6.728449062118e-18 7.657009705808e-08 6.594637859147e-10 
9.862068965515e-01 1.666666666669e-01 0.000000000000e+00 4.999999986748e+04 2.017405223898e+05 1.517405225223e+05 1.000000005301e-02 9.899999999470e-01 7.290029318044e-16 5.810259700233e-18 7.144243079420e-08 5.694066592015e-10 