VARIABLES  = "X","Y","Z", "PRESSURE1", "PRESSURE2", "PRESSURE_W", "SATURATION1", SATURATION2, "VELOCITY_X1", "VELOCITY_Y1", "VELOCITY_X2", "VELOCITY_Y2"
ZONE T="0.000000000000e+00s", N=59, E=44, F=FEPOINT, ET=QUADRILATERAL
STRANDID=1, SOLUTIONTIME=0.000000000000e+00
2.600000000000e+00 0.000000000000e+00 0.000000000000e+00 5.000000000000e+04 0.000000000000e+00 -5.000000000000e+04 1.000000000000e-02 9.900000000000e-01 0.000000000000e+00 0.000000000000e+00 0.000000000000e+00 0.000000000000e+00 
2.600000000000e+00 5.000000000000e-01 0.000000000000e+00 5.000000000000e+04 0.000000000000e+00 -5.000000000000e+04 1.000000000000e-02 9.900000000000e-01 0.000000000000e+00 0.000000000000e+00 0.000000000000e+00 0.000000000000e+00 
2.062068965517e+00 0.000000000000e+00 0.000000000000e+00 5.000000000000e+04 0.000000000000e+00 -5.000000000000e+04 1.000000000000e-02 9.900000000000e-01 0.000000000000e+00 0.000000000000e+00 0.000000000000e+00 0.000000000000e+00 
2.151724137931e+00 0.000000000000e+00 0.000000000000e+00 5.000000000000e+04 0.000000000000e+00 -5.000000000000e+04 1.000000000000e-02 9.900000000000e-01 0.000000000000e+00 0.000000000000e+00 0.000000000000e+00 0.000000000000e+00 
2.241379310345e+00 0.000000000000e+00 0.000000000000e+00 5.000000000000e+04 0.000000000000e+00 -5.000000000000e+04 1.000000000000e-02 9.900000000000e-01 0.000000000000e+00 0.000000000000e+00 0.000000000000e+00 0.000000000000e+00 
2.331034482759e+00 0.000000000000e+00 0.000000000000e+00 5.000000000000e+04 0.000000000000e+00 -5.000000000000e+04 1.000000000000e-02 9.900000000000e-01 0.000000000000e+00 0.000000000000e+00 0.000000000000e+00 0.000000000000e+00 
2.420689655172e+00 0.000000000000e+00 0.000000000000e+00 5.000000000000e+04 0.000000000000e+00 -5.000000000000e+04 1.000000000000e-02 9.900000000000e-01 0.000000000000e+00 0.000000000000e+00 0.000000000000e+00 0.000000000000e+00 
2.510344827586e+00 0.000000000000e+00 0.000000000000e+00 5.000000000000e+04 0.000000000000e+00 -5.000000000000e+04 1.000000000000e-02 9.900000000000e-01 0.000000000000e+00 0.000000000000e+00 0.000000000000e+00 0.000000000000e+00 
2.600000000000e+00 8.333333333313e-02 0.000000000000e+00 5.000000000000e+04 0.000000000000e+00 -5.000000000000e+04 1.000000000000e-02 9.900000000000e-01 0.000000000000e+00 0.000000000000e+00 0.000000000000e+00 0.000000000000e+00 
2.600000000000e+00 1.666666666663e-01 0.000000000000e+00 5.000000000000e+04 0.000000000000e+00 -5.000000000000e+04 1.000000000000e-02 9.900000000000e-01 0.000000000000e+00 0.000000000000e+00 0.000000000000e+00 0.000000000000e+00 
2.600000000000e+00 2.499999999995e-01 0.000000000000e+00 5.000000000000e+04 0.000000000000e+00 -5.000000000000e+04 1.000000000000e-02 9.900000000000e-01 0.000000000000e+00 0.000000000000e+00 0.000000000000e+00 0.000000000000e+00 
2.600000000000e+00 3.333333333329e-01 0.000000000000e+00 5.000000000000e+04 0.000000000000e+00 -5.000000000000e+04 1.000000000000e-02 9.900000000000e-01 0.000000000000e+00 0.000000000000e+00 0.000000000000e+00 0.000000000000e+00 
2.600000000000e+00 4.166666666664e-01 0.000000000000e+00 5.000000000000e+04 0.000000000000e+00 -5.000000000000e+04 1.000000000000e-02 9.900000000000e-01 0.000000000000e+00 0.000000000000e+00 0.000000000000e+00 0.000000000000e+00 
2.510344827586e+00 5.000000000000e-01 0.000000000000e+00 5.000000000000e+04 0.000000000000e+00 -5.000000000000e+04 1.000000000000e-02 9.900000000000e-01 0.000000000000e+00 0.000000000000e+00 0.000000000000e+00 0.000000000000e+00 
2.420689655173e+00 5.000000000000e-01 0.000000000000e+00 5.000000000000e+04 0.000000000000e+00 -5.000000000000e+04 1.000000000000e-02 9.900000000000e-01 0.000000000000e+00 0.000000000000e+00 0.000000000000e+00 0.000000000000e+00 
2.331034482759e+00 5.000000000000e-01 0.000000000000e+00 5.000000000000e+04 0.000000000000e+00 -5.000000000000e+04 1.000000000000e-02 9.900000000000e-01 0.000000000000e+00 0.000000000000e+00 0.000000000000e+00 0.000000000000e+00 
2.241379310346e+00 5.000000000000e-01 0.000000000000e+00 5.000000000000e+04 0.000000000000e+00 -5.000000000000e+04 1.000000000000e-02 9.900000000000e-01 0.000000000000e+00 0.000000000000e+00 0.000000000000e+00 0.000000000000e+00 
2.151724137932e+00 5.000000000000e-01 0.000000000000e+00 5.000000000000e+04 0.000000000000e+00 -5.000000000000e+04 1.000000000000e-02 9.900000000000e-01 0.000000000000e+00 0.000000000000e+00 0.000000000000e+00 0.000000000000e+00 
2.062068965518e+00 5.000000000000e-01 0.000000000000e+00 5.000000000000e+04 0.000000000000e+00 -5.000000000000e+04 1.000000000000e-02 9.900000000000e-01 0.000000000000e+00 0.000000000000e+00 0.000000000000e+00 0.000000000000e+00 
1.972413793105e+00 5.000000000000e-01 0.000000000000e+00 5.000000000000e+04 0.000000000000e+00 -5.000000000000e+04 1.000000000000e-02 9.900000000000e-01 0.000000000000e+00 0.000000000000e+00 0.000000000000e+00 0.000000000000e+00 
1.972413793105e+00 4.166666666665e-01 0.000000000000e+00 5.000000000000e+04 0.000000000000e+00 -5.000000000000e+04 1.000000000000e-02 9.900000000000e-01 0.000000000000e+00 0.000000000000e+00 0.000000000000e+00 0.000000000000e+00 
2.062068965518e+00 4.166666666665e-01 0.000000000000e+00 5.000000000000e+04 0.000000000000e+00 -5.000000000000e+04 1.000000000000e-02 9.900000000000e-01 0.000000000000e+00 0.000000000000e+00 0.000000000000e+00 0.000000000000e+00 
2.151724137932e+00 4.166666666665e-01 0.000000000000e+00 5.000000000000e+04 0.000000000000e+00 -5.000000000000e+04 1.000000000000e-02 9.900000000000e-01 0.000000000000e+00 0.000000000000e+00 0.000000000000e+00 0.000000000000e+00 
2.241379310345e+00 4.166666666665e-01 0.000000000000e+00 5.000000000000e+04 0.000000000000e+00 -5.000000000000e+04 1.000000000000e-02 9.900000000000e-01 0.000000000000e+00 0.000000000000e+00 0.000000000000e+00 0.000000000000e+00 
2.331034482759e+00 4.166666666665e-01 0.000000000000e+00 5.000000000000e+04 0.000000000000e+00 -5.000000000000e+04 1.000000000000e-02 9.900000000000e-01 0.000000000000e+00 0.000000000000e+00 0.000000000000e+00 0.000000000000e+00 
2.420689655173e+00 4.166666666665e-01 0.000000000000e+00 5.000000000000e+04 0.000000000000e+00 -5.000000000000e+04 1.000000000000e-02 9.900000000000e-01 0.000000000000e+00 0.000000000000e+00 0.000000000000e+00 0.000000000000e+00 
2.510344827586e+00 4.166666666665e-01 0.000000000000e+00 5.000000000000e+04 0.000000000000e+00 -5.000000000000e+04 1.000000000000e-02 9.900000000000e-01 0.000000000000e+00 0.000000000000e+00 0.000000000000e+00 0.000000000000e+00 
2.062068965518e+00 3.333333333331e-01 0.000000000000e+00 5.000000000000e+04 0.000000000000e+00 -5.000000000000e+04 1.000000000000e-02 9.900000000000e-01 0.000000000000e+00 0.000000000000e+00 0.000000000000e+00 0.000000000000e+00 
2.151724137932e+00 3.333333333331e-01 0.000000000000e+00 5.000000000000e+04 0.000000000000e+00 -5.000000000000e+04 1.000000000000e-02 9.900000000000e-01 0.000000000000e+00 0.000000000000e+00 0.000000000000e+00 0.000000000000e+00 
2.241379310345e+00 3.333333333330e-01 0.000000000000e+00 5.000000000000e+04 0.000000000000e+00 -5.000000000000e+04 1.000000000000e-02 9.900000000000e-01 0.000000000000e+00 0.000000000000e+00 0.000000000000e+00 0.000000000000e+00 
2.331034482759e+00 3.333333333330e-01 0.000000000000e+00 5.000000000000e+04 0.000000000000e+00 -5.000000000000e+04 1.000000000000e-02 9.900000000000e-01 0.000000000000e+00 0.000000000000e+00 0.000000000000e+00 0.000000000000e+00 
2.420689655173e+00 3.333333333330e-01 0.000000000000e+00 5.000000000000e+04 0.000000000000e+00 -5.000000000000e+04 1.000000000000e-02 9.900000000000e-01 0.000000000000e+00 0.000000000000e+00 0.000000000000e+00 0.000000000000e+00 
2.510344827586e+00 3.333333333330e-01 0.000000000000e+00 5.000000000000e+04 0.000000000000e+00 -5.000000000000e+04 1.000000000000e-02 9.900000000000e-01 0.000000000000e+00 0.000000000000e+00 0.000000000000e+00 0.000000000000e+00 
2.062068965518e+00 2.499999999998e-01 0.000000000000e+00 5.000000000000e+04 0.000000000000e+00 -5.000000000000e+04 1.000000000000e-02 9.900000000000e-01 0.000000000000e+00 0.000000000000e+00 0.000000000000e+00 0.000000000000e+00 
2.151724137932e+00 2.499999999997e-01 0.000000000000e+00 5.000000000000e+04 0.000000000000e+00 -5.000000000000e+04 1.000000000000e-02 9.900000000000e-01 0.000000000000e+00 0.000000000000e+00 0.000000000000e+00 0.000000000000e+00 
2.241379310345e+00 2.499999999997e-01 0.000000000000e+00 5.000000000000e+04 0.000000000000e+00 -5.000000000000e+04 1.000000000000e-02 9.900000000000e-01 0.000000000000e+00 0.000000000000e+00 0.000000000000e+00 0.000000000000e+00 
2.331034482759e+00 2.499999999996e-01 0.000000000000e+00 5.000000000000e+04 0.000000000000e+00 -5.000000000000e+04 1.000000000000e-02 9.900000000000e-01 0.000000000000e+00 0.000000000000e+00 0.000000000000e+00 0.000000000000e+00 
2.420689655173e+00 2.499999999996e-01 0.000000000000e+00 5.000000000000e+04 0.000000000000e+00 -5.000000000000e+04 1.000000000000e-02 9.900000000000e-01 0.000000000000e+00 0.000000000000e+00 0.000000000000e+00 0.000000000000e+00 
2.510344827586e+00 2.499999999996e-01 0.000000000000e+00 5.000000000000e+04 0.000000000000e+00 -5.000000000000e+04 1.000000000000e-02 9.900000000000e-01 0.000000000000e+00 0.000000000000e+00 0.000000000000e+00 0.000000000000e+00 
2.062068965518e+00 1.666666666665e-01 0.000000000000e+00 5.000000000000e+04 0.000000000000e+00 -5.000000000000e+04 1.000000000000e-02 9.900000000000e-01 0.000000000000e+00 0.000000000000e+00 0.000000000000e+00 0.000000000000e+00 
2.151724137931e+00 1.666666666665e-01 0.000000000000e+00 5.000000000000e+04 0.000000000000e+00 -5.000000000000e+04 1.000000000000e-02 9.900000000000e-01 0.000000000000e+00 0.000000000000e+00 0.000000000000e+00 0.000000000000e+00 
2.241379310345e+00 1.666666666664e-01 0.000000000000e+00 5.000000000000e+04 0.000000000000e+00 -5.000000000000e+04 1.000000000000e-02 9.900000000000e-01 0.000000000000e+00 0.000000000000e+00 0.000000000000e+00 0.000000000000e+00 
2.331034482759e+00 1.666666666664e-01 0.000000000000e+00 5.000000000000e+04 0.000000000000e+00 -5.000000000000e+04 1.000000000000e-02 9.900000000000e-01 0.000000000000e+00 0.000000000000e+00 0.000000000000e+00 0.000000000000e+00 
2.420689655173e+00 1.666666666664e-01 0.000000000000e+00 5.000000000000e+04 0.000000000000e+00 -5.000000000000e+04 1.000000000000e-02 9.900000000000e-01 0.000000000000e+00 0.000000000000e+00 0.000000000000e+00 0.000000000000e+00 
2.510344827586e+00 1.666666666663e-01 0.000000000000e+00 5.000000000000e+04 0.000000000000e+00 -5.000000000000e+04 1.000000000000e-02 9.900000000000e-01 0.000000000000e+00 0.000000000000e+00 0.000000000000e+00 0.000000000000e+00 
2.062068965518e+00 8.333333333325e-02 0.000000000000e+00 5.000000000000e+04 0.000000000000e+00 -5.000000000000e+04 1.000000000000e-02 9.900000000000e-01 0.000000000000e+00 0.000000000000e+00 0.000000000000e+00 0.000000000000e+00 
2.151724137931e+00 8.333333333323e-02 0.000000000000e+00 5.000000000000e+04 0.000000000000e+00 -5.000000000000e+04 1.000000000000e-02 9.900000000000e-01 0.000000000000e+00 0.000000000000e+00 0.000000000000e+00 0.000000000000e+00 
2.241379310345e+00 8.333333333321e-02 0.000000000000e+00 5.000000000000e+04 0.000000000000e+00 -5.000000000000e+04 1.000000000000e-02 9.900000000000e-01 0.000000000000e+00 0.000000000000e+00 0.000000000000e+00 0.000000000000e+00 
2.331034482759e+00 8.333333333319e-02 0.000000000000e+00 5.000000000000e+04 0.000000000000e+00 -5.000000000000e+04 1.000000000000e-02 9.900000000000e-01 0.000000000000e+00 0.000000000000e+00 0.000000000000e+00 0.000000000000e+00 
2.420689655173e+00 8.333333333317e-02 0.000000000000e+00 5.000000000000e+04 0.000000000000e+00 -5.000000000000e+04 1.000000000000e-02 9.900000000000e-01 0.000000000000e+00 0.000000000000e+00 0.000000000000e+00 0.000000000000e+00 
2.510344827586e+00 8.333333333315e-02 0.000000000000e+00 5.000000000000e+04 0.000000000000e+00 -5.000000000000e+04 1.000000000000e-02 9.900000000000e-01 0.000000000000e+00 0.000000000000e+00 0.000000000000e+00 0.000000000000e+00 
1.972413793104e+00 8.333333333327e-02 0.000000000000e+00 5.000000000000e+04 0.000000000000e+00 -5.000000000000e+04 1.000000000000e-02 9.900000000000e-01 0.000000000000e+00 0.000000000000e+00 0.000000000000e+00 0.000000000000e+00 
1.972413793104e+00 0.000000000000e+00 0.000000000000e+00 5.000000000000e+04 0.000000000000e+00 -5.000000000000e+04 1.000000000000e-02 9.900000000000e-01 0.000000000000e+00 0.000000000000e+00 0.000000000000e+00 0.000000000000e+00 
1.882758620691e+00 5.000000000000e-01 0.000000000000e+00 5.000000000000e+04 0.000000000000e+00 -5.000000000000e+04 1.000000000000e-02 9.900000000000e-01 0.000000000000e+00 0.000000000000e+00 0.000000000000e+00 0.000000000000e+00 
1.882758620691e+00 4.166666666665e-01 0.000000000000e+00 5.000000000000e+04 0.000000000000e+00 -5.000000000000e+04 1.000000000000e-02 9.900000000000e-01 0.000000000000e+00 0.000000000000e+00 0.000000000000e+00 0.000000000000e+00 
1.882758620691e+00 3.333333333332e-01 0.000000000000e+00 5.000000000000e+04 0.000000000000e+00 -5.000000000000e+04 1.000000000000e-02 9.900000000000e-01 0.000000000000e+00 0.000000000000e+00 0.000000000000e+00 0.000000000000e+00 
1.972413793104e+00 3.333333333331e-01 0.000000000000e+00 5.000000000000e+04 0.000000000000e+00 -5.000000000000e+04 1.000000000000e-02 9.900000000000e-01 0.000000000000e+00 0.000000000000e+00 0.000000000000e+00 0.000000000000e+00 
1.972413793104e+00 2.499999999998e-01 0.000000000000e+00 5.000000000000e+04 0.000000000000e+00 -5.000000000000e+04 1.000000000000e-02 9.900000000000e-01 0.000000000000e+00 0.000000000000e+00 0.000000000000e+00 0.000000000000e+00 
1.972413793104e+00 1.666666666665e-01 0.000000000000e+00 5.000000000000e+04 0.000000000000e+00 -5.000000000000e+04 1.000000000000e-02 9.900000000000e-01 0.000000000000e+00 0.000000000000e+00 0.000000000000e+00 0.000000000000e+00 
51  8  1  9  
14  27  13  2  
46  3  4  47  
47  4  5  48  
48  5  6  49  
49  6  7  50  
50  7  8  51  
45  51  9  10  
39  45  10  11  
33  39  11  12  
27  33  12  13  
15  26  27  14  
16  25  26  15  
17  24  25  16  
18  23  24  17  
19  22  23  18  
20  21  22  19  
22  28  29  23  
23  29  30  24  
24  30  31  25  
25  31  32  26  
26  32  33  27  
28  34  35  29  
29  35  36  30  
30  36  37  31  
31  37  38  32  
32  38  39  33  
34  40  41  35  
35  41  42  36  
36  42  43  37  
37  43  44  38  
38  44  45  39  
40  46  47  41  
41  47  48  42  
42  48  49  43  
43  49  50  44  
44  50  51  45  
52  53  3  46  
54  55  21  20  
55  56  57  21  
21  57  28  22  
57  58  34  28  
58  59  40  34  
59  52  46  40  
VARIABLES  = "X","Y","Z", "PRESSURE1", "PRESSURE2", "PRESSURE_W", "SATURATION1", SATURATION2, "VELOCITY_X1", "VELOCITY_Y1", "VELOCITY_X2", "VELOCITY_Y2"
ZONE T="5.000000000000e+02s", N=59, E=44, F=FEPOINT, ET=QUADRILATERAL
STRANDID=1, SOLUTIONTIME=5.000000000000e+02
2.600000000000e+00 0.000000000000e+00 0.000000000000e+00 4.999999986849e+04 2.017399706063e+05 1.517399707378e+05 1.000000005260e-02 9.899999999474e-01 -3.836950140543e-18 2.030189017333e-18 -3.770178122891e-10 1.999652873498e-10 
2.600000000000e+00 5.000000000000e-01 0.000000000000e+00 4.999999986851e+04 2.017399703486e+05 1.517399704801e+05 1.000000005260e-02 9.899999999474e-01 1.600308378935e-18 1.343165378260e-19 1.558158324301e-10 1.213646520576e-11 
2.062068965517e+00 0.000000000000e+00 0.000000000000e+00 4.999999986783e+04 2.017399924311e+05 1.517399925632e+05 1.000000005287e-02 9.899999999471e-01 1.699373936134e-16 1.334273586472e-17 1.665409014045e-08 1.307590247760e-09 
2.151724137931e+00 0.000000000000e+00 0.000000000000e+00 4.999999986748e+04 2.017399816523e+05 1.517399817848e+05 1.000000005301e-02 9.899999999470e-01 9.904903112287e-17 1.647270422211e-17 9.707016507653e-09 1.614327851457e-09 
2.241379310345e+00 0.000000000000e+00 0.000000000000e+00 4.999999986748e+04 2.017399746702e+05 1.517399748027e+05 1.000000005301e-02 9.899999999470e-01 5.798097713041e-17 1.192499829842e-17 5.682147117928e-09 1.168651886179e-09 
2.331034482759e+00 0.000000000000e+00 0.000000000000e+00 4.999999986748e+04 2.017399712557e+05 1.517399713882e+05 1.000000005301e-02 9.899999999470e-01 2.512496822388e-17 6.547828731579e-18 2.462251731224e-09 6.416881110310e-10 
2.420689655172e+00 0.000000000000e+00 0.000000000000e+00 4.999999986748e+04 2.017399701650e+05 1.517399702976e+05 1.000000005301e-02 9.899999999470e-01 5.545628647543e-18 2.540500472127e-18 5.434186852175e-10 2.489699994688e-10 
2.510344827586e+00 0.000000000000e+00 0.000000000000e+00 4.999999986758e+04 2.017399702614e+05 1.517399703938e+05 1.000000005297e-02 9.899999999470e-01 -2.455222529252e-18 1.875212496982e-19 -2.411642122507e-10 1.834462459073e-11 
2.600000000000e+00 8.333333333313e-02 0.000000000000e+00 4.999999986763e+04 2.017399704363e+05 1.517399705686e+05 1.000000005295e-02 9.899999999471e-01 -2.124213771743e-18 1.962540645647e-18 -2.082036910722e-10 1.929231116415e-10 
2.600000000000e+00 1.666666666663e-01 0.000000000000e+00 4.999999986748e+04 2.017399702782e+05 1.517399704107e+05 1.000000005301e-02 9.899999999470e-01 -1.012254186404e-18 1.038125936290e-18 -9.920147595824e-11 1.018275362463e-10 
2.600000000000e+00 2.499999999995e-01 0.000000000000e+00 4.999999986748e+04 2.017399702631e+05 1.517399703956e+05 1.000000005301e-02 9.899999999470e-01 -2.528775817495e-19 -4.232420405195e-20 -2.478161457975e-11 -4.147726284022e-12 
2.600000000000e+00 3.333333333329e-01 0.000000000000e+00 4.999999986748e+04 2.017399702853e+05 1.517399704178e+05 1.000000005301e-02 9.899999999470e-01 1.404382399906e-20 -5.740621779547e-19 1.376351135639e-12 -5.634897965861e-11 
2.600000000000e+00 4.166666666664e-01 0.000000000000e+00 4.999999986763e+04 2.017399703589e+05 1.517399704913e+05 1.000000005295e-02 9.899999999471e-01 -7.313417491744e-19 -3.738999219756e-19 -7.170244091808e-11 -3.724594820617e-11 
2.510344827586e+00 5.000000000000e-01 0.000000000000e+00 4.999999986758e+04 2.017399704911e+05 1.517399706236e+05 1.000000005297e-02 9.899999999470e-01 4.424965309134e-18 -2.374218213964e-18 4.330861689570e-10 -2.326419192902e-10 
2.420689655173e+00 5.000000000000e-01 0.000000000000e+00 4.999999986748e+04 2.017399711410e+05 1.517399712735e+05 1.000000005301e-02 9.899999999470e-01 1.404651147328e-17 -5.546499167416e-18 1.376507191831e-09 -5.435578402618e-10 
2.331034482759e+00 5.000000000000e-01 0.000000000000e+00 4.999999986748e+04 2.017399730097e+05 1.517399731422e+05 1.000000005301e-02 9.899999999470e-01 3.285992081950e-17 -9.497098457803e-18 3.220278704715e-09 -9.307174578437e-10 
2.241379310346e+00 5.000000000000e-01 0.000000000000e+00 4.999999986748e+04 2.017399770331e+05 1.517399771657e+05 1.000000005301e-02 9.899999999470e-01 6.259051372366e-17 -1.348925979879e-17 6.133882563609e-09 -1.321949383482e-09 
2.151724137932e+00 5.000000000000e-01 0.000000000000e+00 4.999999986748e+04 2.017399842329e+05 1.517399843654e+05 1.000000005301e-02 9.899999999470e-01 1.046918574785e-16 -1.623120799525e-17 1.025982318862e-08 -1.590661248191e-09 
2.062068965518e+00 5.000000000000e-01 0.000000000000e+00 4.999999986748e+04 2.017399958055e+05 1.517399959380e+05 1.000000005301e-02 9.899999999470e-01 1.559795430820e-16 -2.305179473441e-17 1.528621801278e-08 -2.258932065530e-09 
1.972413793105e+00 5.000000000000e-01 0.000000000000e+00 4.999999986783e+04 2.017400122020e+05 1.517400123341e+05 1.000000005287e-02 9.899999999471e-01 2.406425515422e-16 -1.424369725907e-17 2.358320914480e-08 -1.395703499912e-09 
1.972413793105e+00 4.166666666665e-01 0.000000000000e+00 4.999999986799e+04 2.017400110151e+05 1.517400111471e+05 1.000000005281e-02 9.899999999472e-01 2.508490575531e-16 -3.726507187909e-18 2.458331084959e-08 -3.651078155825e-10 
2.062068965518e+00 4.166666666665e-01 0.000000000000e+00 4.999999986761e+04 2.017399938846e+05 1.517399940170e+05 1.000000005296e-02 9.899999999470e-01 1.569032261795e-16 -1.149812785754e-17 1.537682339350e-08 -1.126686962580e-09 
2.151724137932e+00 4.166666666665e-01 0.000000000000e+00 4.999999986748e+04 2.017399828803e+05 1.517399830128e+05 1.000000005301e-02 9.899999999470e-01 1.002477311003e-16 -6.677177316826e-18 9.824366508421e-09 -6.543643253483e-10 
2.241379310345e+00 4.166666666665e-01 0.000000000000e+00 4.999999986748e+04 2.017399759090e+05 1.517399760415e+05 1.000000005301e-02 9.899999999470e-01 5.946087907784e-17 -5.656445569661e-18 5.827177888672e-09 -5.543325585947e-10 
2.331034482759e+00 4.166666666665e-01 0.000000000000e+00 4.999999986748e+04 2.017399722183e+05 1.517399723508e+05 1.000000005301e-02 9.899999999470e-01 2.916857377060e-17 -4.109972254684e-18 2.858526197328e-09 -4.027781405227e-10 
2.420689655173e+00 4.166666666665e-01 0.000000000000e+00 4.999999986748e+04 2.017399706788e+05 1.517399708113e+05 1.000000005301e-02 9.899999999470e-01 1.073619866653e-17 -2.517212403104e-18 1.052081037490e-09 -2.466870853687e-10 
2.510344827586e+00 4.166666666665e-01 0.000000000000e+00 4.999999986760e+04 2.017399702933e+05 1.517399704257e+05 1.000000005296e-02 9.899999999470e-01 1.784842736925e-18 -1.227201244382e-18 1.748308682208e-10 -1.203237574850e-10 
2.062068965518e+00 3.333333333331e-01 0.000000000000e+00 4.999999986770e+04 2.017399938893e+05 1.517399940216e+05 1.000000005292e-02 9.899999999471e-01 1.587221534260e-16 -4.363933786800e-18 1.555507826208e-08 -4.275343313882e-10 
2.151724137932e+00 3.333333333331e-01 0.000000000000e+00 4.999999986748e+04 2.017399831200e+05 1.517399832525e+05 1.000000005301e-02 9.899999999470e-01 9.926208871208e-17 -7.416306623488e-19 9.727827125914e-09 -7.267983847886e-11 
2.241379310345e+00 3.333333333330e-01 0.000000000000e+00 4.999999986748e+04 2.017399760904e+05 1.517399762229e+05 1.000000005301e-02 9.899999999470e-01 6.020432911918e-17 -7.004226379813e-19 5.900036362054e-09 -6.864157262255e-11 
2.331034482759e+00 3.333333333330e-01 0.000000000000e+00 4.999999986748e+04 2.017399723247e+05 1.517399724573e+05 1.000000005301e-02 9.899999999470e-01 2.994204365762e-17 -6.945712509901e-19 2.934326179868e-09 -6.806820264237e-11 
2.420689655173e+00 3.333333333330e-01 0.000000000000e+00 4.999999986748e+04 2.017399707215e+05 1.517399708540e+05 1.000000005301e-02 9.899999999470e-01 1.136701252147e-17 -5.141505415018e-19 1.113969420621e-09 -5.038656487536e-11 
2.510344827586e+00 3.333333333330e-01 0.000000000000e+00 4.999999986748e+04 2.017399702865e+05 1.517399704190e+05 1.000000005301e-02 9.899999999470e-01 2.432783695160e-18 -3.166813800276e-19 2.384132667062e-10 -3.110877455214e-11 
2.062068965518e+00 2.499999999998e-01 0.000000000000e+00 4.999999986783e+04 2.017399931575e+05 1.517399932897e+05 1.000000005287e-02 9.899999999471e-01 1.657662615472e-16 -8.126721682996e-18 1.624531850575e-08 -7.963460973652e-10 
2.151724137932e+00 2.499999999997e-01 0.000000000000e+00 4.999999986748e+04 2.017399827566e+05 1.517399828892e+05 1.000000005301e-02 9.899999999470e-01 9.684254412572e-17 -7.568087541086e-18 9.490780292265e-09 -7.416743045406e-10 
2.241379310345e+00 2.499999999997e-01 0.000000000000e+00 4.999999986748e+04 2.017399757923e+05 1.517399759248e+05 1.000000005301e-02 9.899999999470e-01 5.941713777921e-17 -6.487582491598e-18 5.822891432692e-09 -6.357845254749e-10 
2.331034482759e+00 2.499999999996e-01 0.000000000000e+00 4.999999986748e+04 2.017399721025e+05 1.517399722351e+05 1.000000005301e-02 9.899999999470e-01 2.899543629214e-17 -4.580425662935e-18 2.841558406673e-09 -4.488824656922e-10 
2.420689655173e+00 2.499999999996e-01 0.000000000000e+00 4.999999986748e+04 2.017399705931e+05 1.517399707256e+05 1.000000005301e-02 9.899999999470e-01 1.038495484929e-17 -2.361143090360e-18 1.017727694568e-09 -2.313924255794e-10 
2.510344827586e+00 2.499999999996e-01 0.000000000000e+00 4.999999986748e+04 2.017399702404e+05 1.517399703729e+05 1.000000005301e-02 9.899999999470e-01 1.840529424550e-18 -5.944016318589e-19 1.803727923629e-10 -5.825166252927e-11 
2.062068965518e+00 1.666666666665e-01 0.000000000000e+00 4.999999986783e+04 2.017399925350e+05 1.517399926672e+05 1.000000005287e-02 9.899999999471e-01 1.692870866279e-16 -1.102999809628e-17 1.659035980546e-08 -1.080941901692e-09 
2.151724137931e+00 1.666666666665e-01 0.000000000000e+00 4.999999986748e+04 2.017399818586e+05 1.517399819912e+05 1.000000005301e-02 9.899999999470e-01 9.773852994913e-17 -1.486267351332e-17 9.578587224659e-09 -1.456545035575e-09 
2.241379310345e+00 1.666666666664e-01 0.000000000000e+00 4.999999986748e+04 2.017399750091e+05 1.517399751416e+05 1.000000005301e-02 9.899999999470e-01 5.742733585082e-17 -1.269500518260e-17 5.627890123106e-09 -1.244113085287e-09 
2.331034482759e+00 1.666666666664e-01 0.000000000000e+00 4.999999986748e+04 2.017399715613e+05 1.517399716938e+05 1.000000005301e-02 9.899999999470e-01 2.610657132021e-17 -8.355124989596e-18 2.558448956414e-09 -8.188036720434e-10 
2.420689655173e+00 1.666666666664e-01 0.000000000000e+00 4.999999986748e+04 2.017399703279e+05 1.517399704605e+05 1.000000005301e-02 9.899999999470e-01 7.662054401991e-18 -3.838666167653e-18 7.508830537588e-10 -3.761904482466e-10 
2.510344827586e+00 1.666666666663e-01 0.000000000000e+00 4.999999986748e+04 2.017399701874e+05 1.517399703200e+05 1.000000005301e-02 9.899999999470e-01 2.774711774308e-19 3.147619345976e-20 2.719222723137e-11 3.159123197328e-12 
2.062068965518e+00 8.333333333325e-02 0.000000000000e+00 4.999999986783e+04 2.017399913192e+05 1.517399914513e+05 1.000000005287e-02 9.899999999471e-01 1.736518762957e-16 -6.236118524009e-19 1.701810999768e-08 -6.111410073361e-11 
2.151724137931e+00 8.333333333323e-02 0.000000000000e+00 4.999999986748e+04 2.017399802795e+05 1.517399804121e+05 1.000000005301e-02 9.899999999470e-01 9.839014710823e-17 -1.238291044474e-18 9.642445848713e-09 -1.213528980787e-10 
2.241379310345e+00 8.333333333321e-02 0.000000000000e+00 4.999999986748e+04 2.017399736765e+05 1.517399738090e+05 1.000000005301e-02 9.899999999470e-01 5.336845459079e-17 -2.033530553064e-18 5.230119000168e-09 -1.992862887829e-10 
2.331034482759e+00 8.333333333319e-02 0.000000000000e+00 4.999999986748e+04 2.017399707100e+05 1.517399708425e+05 1.000000005301e-02 9.899999999470e-01 2.076358299805e-17 -1.833932602636e-18 2.034835476975e-09 -1.797259231306e-10 
2.420689655173e+00 8.333333333317e-02 0.000000000000e+00 4.999999986748e+04 2.017399699533e+05 1.517399700859e+05 1.000000005301e-02 9.899999999470e-01 2.589716631413e-18 -9.774609406247e-19 2.537238215954e-10 -9.579138882720e-11 
2.510344827586e+00 8.333333333315e-02 0.000000000000e+00 4.999999986761e+04 2.017399702458e+05 1.517399703782e+05 1.000000005296e-02 9.899999999470e-01 -2.692386646643e-18 4.430492707186e-19 -2.639387991425e-10 4.347708113774e-11 
1.972413793104e+00 8.333333333327e-02 0.000000000000e+00 4.999999986783e+04 2.017400114175e+05 1.517400115496e+05 1.000000005287e-02 9.899999999471e-01 2.241731949727e-16 -5.386503916674e-19 2.196901705961e-08 -5.278784389073e-11 
1.972413793104e+00 0.000000000000e+00 0.000000000000e+00 4.999999986783e+04 2.017400121241e+05 1.517400122563e+05 1.000000005287e-02 9.899999999471e-01 2.196534956139e-16 8.480161982443e-18 2.152608606356e-08 8.310575060158e-10 
1.882758620691e+00 5.000000000000e-01 0.000000000000e+00 4.999999986783e+04 2.017400389555e+05 1.517400390877e+05 1.000000005287e-02 9.899999999471e-01 2.984051458037e-16 -1.090209853060e-18 2.924376315297e-08 -1.069891217739e-10 
1.882758620691e+00 4.166666666665e-01 0.000000000000e+00 4.999999986770e+04 2.017400388645e+05 1.517400389968e+05 1.000000005292e-02 9.899999999471e-01 3.106311440279e-16 8.115508705283e-18 3.044160669918e-08 7.951891836334e-10 
1.882758620691e+00 3.333333333332e-01 0.000000000000e+00 4.999999986761e+04 2.017400403079e+05 1.517400404403e+05 1.000000005296e-02 9.899999999470e-01 3.204191497365e-16 1.732122722023e-17 3.140072551786e-08 1.697367489041e-09 
1.972413793104e+00 3.333333333331e-01 0.000000000000e+00 4.999999986798e+04 2.017400115810e+05 1.517400117130e+05 1.000000005281e-02 9.899999999472e-01 2.383578509973e-16 8.126076388971e-18 2.335918267790e-08 7.962966987204e-10 
1.972413793104e+00 2.499999999998e-01 0.000000000000e+00 4.999999986783e+04 2.017400124806e+05 1.517400126128e+05 1.000000005287e-02 9.899999999471e-01 2.155268110541e-16 3.798322877064e-18 2.112167068277e-08 3.721457894867e-10 
1.972413793104e+00 1.666666666665e-01 0.000000000000e+00 4.999999986783e+04 2.017400122139e+05 1.517400123461e+05 1.000000005287e-02 9.899999999471e-01 2.194955543063e-16 -6.378839862139e-18 2.151060774508e-08 -6.251279236135e-10 
51  8  1  9  
14  27  13  2  
46  3  4  47  
47  4  5  48  
48  5  6  49  
49  6  7  50  
50  7  8  51  
45  51  9  10  
39  45  10  11  
33  39  11  12  
27  33  12  13  
15  26  27  14  
16  25  26  15  
17  24  25  16  
18  23  24  17  
19  22  23  18  
20  21  22  19  
22  28  29  23  
23  29  30  24  
24  30  31  25  
25  31  32  26  
26  32  33  27  
28  34  35  29  
29  35  36  30  
30  36  37  31  
31  37  38  32  
32  38  39  33  
34  40  41  35  
35  41  42  36  
36  42  43  37  
37  43  44  38  
38  44  45  39  
40  46  47  41  
41  47  48  42  
42  48  49  43  
43  49  50  44  
44  50  51  45  
52  53  3  46  
54  55  21  20  
55  56  57  21  
21  57  28  22  
57  58  34  28  
58  59  40  34  
59  52  46  40  
VARIABLES  = "X","Y","Z", "PRESSURE1", "PRESSURE2", "PRESSURE_W", "SATURATION1", SATURATION2, "VELOCITY_X1", "VELOCITY_Y1", "VELOCITY_X2", "VELOCITY_Y2"
ZONE T="1.000000000000e+03s", N=59, E=44, F=FEPOINT, ET=QUADRILATERAL
STRANDID=1, SOLUTIONTIME=1.000000000000e+03
2.600000000000e+00 0.000000000000e+00 0.000000000000e+00 4.999999982345e+04 2.017190827530e+05 1.517190829296e+05 1.000000007062e-02 9.899999999294e-01 6.749297292488e-17 -4.648907328246e-17 6.612850809251e-09 -4.554449519516e-09 
2.600000000000e+00 5.000000000000e-01 0.000000000000e+00 4.999999982348e+04 2.017190961006e+05 1.517190962771e+05 1.000000007061e-02 9.899999999294e-01 1.321588606750e-17 -1.230890407617e-17 1.293647173668e-09 -1.207805609231e-09 