VARIABLES  = "X","Y","Z", "PRESSURE1", "PRESSURE2", "PRESSURE_W", "SATURATION1", SATURATION2, "VELOCITY_X1", "VELOCITY_Y1", "VELOCITY_X2", "VELOCITY_Y2"
ZONE T="0.000000000000e+00s", N=67, E=51, F=FEPOINT, ET=QUADRILATERAL
STRANDID=1, SOLUTIONTIME=0.000000000000e+00
1.434482758620e+00 0.000000000000e+00 0.000000000000e+00 5.000000000000e+04 0.000000000000e+00 -5.000000000000e+04 1.000000000000e-02 9.900000000000e-01 0.000000000000e+00 0.000000000000e+00 0.000000000000e+00 0.000000000000e+00 
1.524137931034e+00 0.000000000000e+00 0.000000000000e+00 5.000000000000e+04 0.000000000000e+00 -5.000000000000e+04 1.000000000000e-02 9.900000000000e-01 0.000000000000e+00 0.000000000000e+00 0.000000000000e+00 0.000000000000e+00 
1.613793103448e+00 0.000000000000e+00 0.000000000000e+00 5.000000000000e+04 0.000000000000e+00 -5.000000000000e+04 1.000000000000e-02 9.900000000000e-01 0.000000000000e+00 0.000000000000e+00 0.000000000000e+00 0.000000000000e+00 
1.703448275862e+00 0.000000000000e+00 0.000000000000e+00 5.000000000000e+04 0.000000000000e+00 -5.000000000000e+04 1.000000000000e-02 9.900000000000e-01 0.000000000000e+00 0.000000000000e+00 0.000000000000e+00 0.000000000000e+00 
1.793103448276e+00 0.000000000000e+00 0.000000000000e+00 5.000000000000e+04 0.000000000000e+00 -5.000000000000e+04 1.000000000000e-02 9.900000000000e-01 0.000000000000e+00 0.000000000000e+00 0.000000000000e+00 0.000000000000e+00 
1.882758620690e+00 0.000000000000e+00 0.000000000000e+00 5.000000000000e+04 0.000000000000e+00 -5.000000000000e+04 1.000000000000e-02 9.900000000000e-01 0.000000000000e+00 0.000000000000e+00 0.000000000000e+00 0.000000000000e+00 
1.972413793104e+00 0.000000000000e+00 0.000000000000e+00 5.000000000000e+04 0.000000000000e+00 -5.000000000000e+04 1.000000000000e-02 9.900000000000e-01 0.000000000000e+00 0.000000000000e+00 0.000000000000e+00 0.000000000000e+00 
1.882758620691e+00 5.000000000000e-01 0.000000000000e+00 5.000000000000e+04 0.000000000000e+00 -5.000000000000e+04 1.000000000000e-02 9.900000000000e-01 0.000000000000e+00 0.000000000000e+00 0.000000000000e+00 0.000000000000e+00 
1.793103448277e+00 5.000000000000e-01 0.000000000000e+00 5.000000000000e+04 0.000000000000e+00 -5.000000000000e+04 1.000000000000e-02 9.900000000000e-01 0.000000000000e+00 0.000000000000e+00 0.000000000000e+00 0.000000000000e+00 
1.703448275863e+00 5.000000000000e-01 0.000000000000e+00 5.000000000000e+04 0.000000000000e+00 -5.000000000000e+04 1.000000000000e-02 9.900000000000e-01 0.000000000000e+00 0.000000000000e+00 0.000000000000e+00 0.000000000000e+00 
1.613793103450e+00 5.000000000000e-01 0.000000000000e+00 5.000000000000e+04 0.000000000000e+00 -5.000000000000e+04 1.000000000000e-02 9.900000000000e-01 0.000000000000e+00 0.000000000000e+00 0.000000000000e+00 0.000000000000e+00 
1.524137931036e+00 5.000000000000e-01 0.000000000000e+00 5.000000000000e+04 0.000000000000e+00 -5.000000000000e+04 1.000000000000e-02 9.900000000000e-01 0.000000000000e+00 0.000000000000e+00 0.000000000000e+00 0.000000000000e+00 
1.434482758622e+00 5.000000000000e-01 0.000000000000e+00 5.000000000000e+04 0.000000000000e+00 -5.000000000000e+04 1.000000000000e-02 9.900000000000e-01 0.000000000000e+00 0.000000000000e+00 0.000000000000e+00 0.000000000000e+00 
1.344827586208e+00 5.000000000000e-01 0.000000000000e+00 5.000000000000e+04 0.000000000000e+00 -5.000000000000e+04 1.000000000000e-02 9.900000000000e-01 0.000000000000e+00 0.000000000000e+00 0.000000000000e+00 0.000000000000e+00 
1.344827586208e+00 4.166666666666e-01 0.000000000000e+00 5.000000000000e+04 0.000000000000e+00 -5.000000000000e+04 1.000000000000e-02 9.900000000000e-01 0.000000000000e+00 0.000000000000e+00 0.000000000000e+00 0.000000000000e+00 
1.434482758622e+00 4.166666666666e-01 0.000000000000e+00 5.000000000000e+04 0.000000000000e+00 -5.000000000000e+04 1.000000000000e-02 9.900000000000e-01 0.000000000000e+00 0.000000000000e+00 0.000000000000e+00 0.000000000000e+00 
1.524137931036e+00 4.166666666666e-01 0.000000000000e+00 5.000000000000e+04 0.000000000000e+00 -5.000000000000e+04 1.000000000000e-02 9.900000000000e-01 0.000000000000e+00 0.000000000000e+00 0.000000000000e+00 0.000000000000e+00 
1.613793103449e+00 4.166666666666e-01 0.000000000000e+00 5.000000000000e+04 0.000000000000e+00 -5.000000000000e+04 1.000000000000e-02 9.900000000000e-01 0.000000000000e+00 0.000000000000e+00 0.000000000000e+00 0.000000000000e+00 
1.703448275863e+00 4.166666666666e-01 0.000000000000e+00 5.000000000000e+04 0.000000000000e+00 -5.000000000000e+04 1.000000000000e-02 9.900000000000e-01 0.000000000000e+00 0.000000000000e+00 0.000000000000e+00 0.000000000000e+00 
1.793103448277e+00 4.166666666666e-01 0.000000000000e+00 5.000000000000e+04 0.000000000000e+00 -5.000000000000e+04 1.000000000000e-02 9.900000000000e-01 0.000000000000e+00 0.000000000000e+00 0.000000000000e+00 0.000000000000e+00 
1.882758620691e+00 4.166666666665e-01 0.000000000000e+00 5.000000000000e+04 0.000000000000e+00 -5.000000000000e+04 1.000000000000e-02 9.900000000000e-01 0.000000000000e+00 0.000000000000e+00 0.000000000000e+00 0.000000000000e+00 
1.344827586208e+00 3.333333333333e-01 0.000000000000e+00 5.000000000000e+04 0.000000000000e+00 -5.000000000000e+04 1.000000000000e-02 9.900000000000e-01 0.000000000000e+00 0.000000000000e+00 0.000000000000e+00 0.000000000000e+00 
1.434482758621e+00 3.333333333333e-01 0.000000000000e+00 5.000000000000e+04 0.000000000000e+00 -5.000000000000e+04 1.000000000000e-02 9.900000000000e-01 0.000000000000e+00 0.000000000000e+00 0.000000000000e+00 0.000000000000e+00 
1.524137931035e+00 3.333333333333e-01 0.000000000000e+00 5.000000000000e+04 0.000000000000e+00 -5.000000000000e+04 1.000000000000e-02 9.900000000000e-01 0.000000000000e+00 0.000000000000e+00 0.000000000000e+00 0.000000000000e+00 
1.613793103449e+00 3.333333333332e-01 0.000000000000e+00 5.000000000000e+04 0.000000000000e+00 -5.000000000000e+04 1.000000000000e-02 9.900000000000e-01 0.000000000000e+00 0.000000000000e+00 0.000000000000e+00 0.000000000000e+00 
1.703448275863e+00 3.333333333332e-01 0.000000000000e+00 5.000000000000e+04 0.000000000000e+00 -5.000000000000e+04 1.000000000000e-02 9.900000000000e-01 0.000000000000e+00 0.000000000000e+00 0.000000000000e+00 0.000000000000e+00 
1.793103448277e+00 3.333333333332e-01 0.000000000000e+00 5.000000000000e+04 0.000000000000e+00 -5.000000000000e+04 1.000000000000e-02 9.900000000000e-01 0.000000000000e+00 0.000000000000e+00 0.000000000000e+00 0.000000000000e+00 
1.882758620691e+00 3.333333333332e-01 0.000000000000e+00 5.000000000000e+04 0.000000000000e+00 -5.000000000000e+04 1.000000000000e-02 9.900000000000e-01 0.000000000000e+00 0.000000000000e+00 0.000000000000e+00 0.000000000000e+00 
1.972413793104e+00 3.333333333331e-01 0.000000000000e+00 5.000000000000e+04 0.000000000000e+00 -5.000000000000e+04 1.000000000000e-02 9.900000000000e-01 0.000000000000e+00 0.000000000000e+00 0.000000000000e+00 0.000000000000e+00 
1.344827586207e+00 2.500000000001e-01 0.000000000000e+00 5.000000000000e+04 0.000000000000e+00 -5.000000000000e+04 1.000000000000e-02 9.900000000000e-01 0.000000000000e+00 0.000000000000e+00 0.000000000000e+00 0.000000000000e+00 
1.434482758621e+00 2.500000000000e-01 0.000000000000e+00 5.000000000000e+04 0.000000000000e+00 -5.000000000000e+04 1.000000000000e-02 9.900000000000e-01 0.000000000000e+00 0.000000000000e+00 0.000000000000e+00 0.000000000000e+00 
1.524137931035e+00 2.500000000000e-01 0.000000000000e+00 5.000000000000e+04 0.000000000000e+00 -5.000000000000e+04 1.000000000000e-02 9.900000000000e-01 0.000000000000e+00 0.000000000000e+00 0.000000000000e+00 0.000000000000e+00 
1.613793103449e+00 2.500000000000e-01 0.000000000000e+00 5.000000000000e+04 0.000000000000e+00 -5.000000000000e+04 1.000000000000e-02 9.900000000000e-01 0.000000000000e+00 0.000000000000e+00 0.000000000000e+00 0.000000000000e+00 
1.703448275863e+00 2.499999999999e-01 0.000000000000e+00 5.000000000000e+04 0.000000000000e+00 -5.000000000000e+04 1.000000000000e-02 9.900000000000e-01 0.000000000000e+00 0.000000000000e+00 0.000000000000e+00 0.000000000000e+00 
1.793103448277e+00 2.499999999999e-01 0.000000000000e+00 5.000000000000e+04 0.000000000000e+00 -5.000000000000e+04 1.000000000000e-02 9.900000000000e-01 0.000000000000e+00 0.000000000000e+00 0.000000000000e+00 0.000000000000e+00 
1.882758620690e+00 2.499999999998e-01 0.000000000000e+00 5.000000000000e+04 0.000000000000e+00 -5.000000000000e+04 1.000000000000e-02 9.900000000000e-01 0.000000000000e+00 0.000000000000e+00 0.000000000000e+00 0.000000000000e+00 
1.972413793104e+00 2.499999999998e-01 0.000000000000e+00 5.000000000000e+04 0.000000000000e+00 -5.000000000000e+04 1.000000000000e-02 9.900000000000e-01 0.000000000000e+00 0.000000000000e+00 0.000000000000e+00 0.000000000000e+00 
1.434482758621e+00 1.666666666667e-01 0.000000000000e+00 5.000000000000e+04 0.000000000000e+00 -5.000000000000e+04 1.000000000000e-02 9.900000000000e-01 0.000000000000e+00 0.000000000000e+00 0.000000000000e+00 0.000000000000e+00 
1.524137931035e+00 1.666666666667e-01 0.000000000000e+00 5.000000000000e+04 0.000000000000e+00 -5.000000000000e+04 1.000000000000e-02 9.900000000000e-01 0.000000000000e+00 0.000000000000e+00 0.000000000000e+00 0.000000000000e+00 
1.613793103449e+00 1.666666666667e-01 0.000000000000e+00 5.000000000000e+04 0.000000000000e+00 -5.000000000000e+04 1.000000000000e-02 9.900000000000e-01 0.000000000000e+00 0.000000000000e+00 0.000000000000e+00 0.000000000000e+00 
1.703448275862e+00 1.666666666666e-01 0.000000000000e+00 5.000000000000e+04 0.000000000000e+00 -5.000000000000e+04 1.000000000000e-02 9.900000000000e-01 0.000000000000e+00 0.000000000000e+00 0.000000000000e+00 0.000000000000e+00 
1.793103448276e+00 1.666666666666e-01 0.000000000000e+00 5.000000000000e+04 0.000000000000e+00 -5.000000000000e+04 1.000000000000e-02 9.900000000000e-01 0.000000000000e+00 0.000000000000e+00 0.000000000000e+00 0.000000000000e+00 
1.882758620690e+00 1.666666666666e-01 0.000000000000e+00 5.000000000000e+04 0.000000000000e+00 -5.000000000000e+04 1.000000000000e-02 9.900000000000e-01 0.000000000000e+00 0.000000000000e+00 0.000000000000e+00 0.000000000000e+00 
1.972413793104e+00 1.666666666665e-01 0.000000000000e+00 5.000000000000e+04 0.000000000000e+00 -5.000000000000e+04 1.000000000000e-02 9.900000000000e-01 0.000000000000e+00 0.000000000000e+00 0.000000000000e+00 0.000000000000e+00 
1.434482758620e+00 8.333333333338e-02 0.000000000000e+00 5.000000000000e+04 0.000000000000e+00 -5.000000000000e+04 1.000000000000e-02 9.900000000000e-01 0.000000000000e+00 0.000000000000e+00 0.000000000000e+00 0.000000000000e+00 
1.524137931034e+00 8.333333333336e-02 0.000000000000e+00 5.000000000000e+04 0.000000000000e+00 -5.000000000000e+04 1.000000000000e-02 9.900000000000e-01 0.000000000000e+00 0.000000000000e+00 0.000000000000e+00 0.000000000000e+00 
1.613793103448e+00 8.333333333334e-02 0.000000000000e+00 5.000000000000e+04 0.000000000000e+00 -5.000000000000e+04 1.000000000000e-02 9.900000000000e-01 0.000000000000e+00 0.000000000000e+00 0.000000000000e+00 0.000000000000e+00 
1.703448275862e+00 8.333333333332e-02 0.000000000000e+00 5.000000000000e+04 0.000000000000e+00 -5.000000000000e+04 1.000000000000e-02 9.900000000000e-01 0.000000000000e+00 0.000000000000e+00 0.000000000000e+00 0.000000000000e+00 
1.793103448276e+00 8.333333333330e-02 0.000000000000e+00 5.000000000000e+04 0.000000000000e+00 -5.000000000000e+04 1.000000000000e-02 9.900000000000e-01 0.000000000000e+00 0.000000000000e+00 0.000000000000e+00 0.000000000000e+00 
1.882758620690e+00 8.333333333328e-02 0.000000000000e+00 5.000000000000e+04 0.000000000000e+00 -5.000000000000e+04 1.000000000000e-02 9.900000000000e-01 0.000000000000e+00 0.000000000000e+00 0.000000000000e+00 0.000000000000e+00 
1.972413793104e+00 8.333333333327e-02 0.000000000000e+00 5.000000000000e+04 0.000000000000e+00 -5.000000000000e+04 1.000000000000e-02 9.900000000000e-01 0.000000000000e+00 0.000000000000e+00 0.000000000000e+00 0.000000000000e+00 
1.344827586206e+00 8.333333333340e-02 0.000000000000e+00 5.000000000000e+04 0.000000000000e+00 -5.000000000000e+04 1.000000000000e-02 9.900000000000e-01 0.000000000000e+00 0.000000000000e+00 0.000000000000e+00 0.000000000000e+00 
1.344827586206e+00 0.000000000000e+00 0.000000000000e+00 5.000000000000e+04 0.000000000000e+00 -5.000000000000e+04 1.000000000000e-02 9.900000000000e-01 0.000000000000e+00 0.000000000000e+00 0.000000000000e+00 0.000000000000e+00 
2.062068965517e+00 0.000000000000e+00 0.000000000000e+00 5.000000000000e+04 0.000000000000e+00 -5.000000000000e+04 1.000000000000e-02 9.900000000000e-01 0.000000000000e+00 0.000000000000e+00 0.000000000000e+00 0.000000000000e+00 
2.062068965518e+00 8.333333333325e-02 0.000000000000e+00 5.000000000000e+04 0.000000000000e+00 -5.000000000000e+04 1.000000000000e-02 9.900000000000e-01 0.000000000000e+00 0.000000000000e+00 0.000000000000e+00 0.000000000000e+00 
1.972413793105e+00 4.166666666665e-01 0.000000000000e+00 5.000000000000e+04 0.000000000000e+00 -5.000000000000e+04 1.000000000000e-02 9.900000000000e-01 0.000000000000e+00 0.000000000000e+00 0.000000000000e+00 0.000000000000e+00 
1.972413793105e+00 5.000000000000e-01 0.000000000000e+00 5.000000000000e+04 0.000000000000e+00 -5.000000000000e+04 1.000000000000e-02 9.900000000000e-01 0.000000000000e+00 0.000000000000e+00 0.000000000000e+00 0.000000000000e+00 
1.255172413794e+00 5.000000000000e-01 0.000000000000e+00 5.000000000000e+04 0.000000000000e+00 -5.000000000000e+04 1.000000000000e-02 9.900000000000e-01 0.000000000000e+00 0.000000000000e+00 0.000000000000e+00 0.000000000000e+00 
1.255172413794e+00 4.166666666666e-01 0.000000000000e+00 5.000000000000e+04 0.000000000000e+00 -5.000000000000e+04 1.000000000000e-02 9.900000000000e-01 0.000000000000e+00 0.000000000000e+00 0.000000000000e+00 0.000000000000e+00 
1.255172413794e+00 3.333333333333e-01 0.000000000000e+00 5.000000000000e+04 0.000000000000e+00 -5.000000000000e+04 1.000000000000e-02 9.900000000000e-01 0.000000000000e+00 0.000000000000e+00 0.000000000000e+00 0.000000000000e+00 
1.255172413793e+00 2.500000000001e-01 0.000000000000e+00 5.000000000000e+04 0.000000000000e+00 -5.000000000000e+04 1.000000000000e-02 9.900000000000e-01 0.000000000000e+00 0.000000000000e+00 0.000000000000e+00 0.000000000000e+00 
2.062068965518e+00 3.333333333331e-01 0.000000000000e+00 5.000000000000e+04 0.000000000000e+00 -5.000000000000e+04 1.000000000000e-02 9.900000000000e-01 0.000000000000e+00 0.000000000000e+00 0.000000000000e+00 0.000000000000e+00 
2.062068965518e+00 4.166666666665e-01 0.000000000000e+00 5.000000000000e+04 0.000000000000e+00 -5.000000000000e+04 1.000000000000e-02 9.900000000000e-01 0.000000000000e+00 0.000000000000e+00 0.000000000000e+00 0.000000000000e+00 
2.062068965518e+00 2.499999999998e-01 0.000000000000e+00 5.000000000000e+04 0.000000000000e+00 -5.000000000000e+04 1.000000000000e-02 9.900000000000e-01 0.000000000000e+00 0.000000000000e+00 0.000000000000e+00 0.000000000000e+00 
1.255172413793e+00 1.666666666668e-01 0.000000000000e+00 5.000000000000e+04 0.000000000000e+00 -5.000000000000e+04 1.000000000000e-02 9.900000000000e-01 0.000000000000e+00 0.000000000000e+00 0.000000000000e+00 0.000000000000e+00 
1.344827586207e+00 1.666666666668e-01 0.000000000000e+00 5.000000000000e+04 0.000000000000e+00 -5.000000000000e+04 1.000000000000e-02 9.900000000000e-01 0.000000000000e+00 0.000000000000e+00 0.000000000000e+00 0.000000000000e+00 
2.062068965518e+00 1.666666666665e-01 0.000000000000e+00 5.000000000000e+04 0.000000000000e+00 -5.000000000000e+04 1.000000000000e-02 9.900000000000e-01 0.000000000000e+00 0.000000000000e+00 0.000000000000e+00 0.000000000000e+00 
45  1  2  46  
46  2  3  47  
47  3  4  48  
48  4  5  49  
49  5  6  50  
50  6  7  51  
9  20  21  8  
10  19  20  9  
11  18  19  10  
12  17  18  11  
13  16  17  12  
14  15  16  13  
15  22  23  16  
16  23  24  17  
17  24  25  18  
18  25  26  19  
19  26  27  20  
20  27  28  21  
22  30  31  23  
23  31  32  24  
24  32  33  25  
25  33  34  26  
26  34  35  27  
27  35  36  28  
28  36  37  29  
31  38  39  32  
32  39  40  33  
33  40  41  34  
34  41  42  35  
35  42  43  36  
36  43  44  37  
38  45  46  39  
39  46  47  40  
40  47  48  41  
41  48  49  42  
42  49  50  43  
43  50  51  44  
52  53  1  45  
51  7  54  55  
8  21  56  57  
58  59  15  14  
59  60  22  15  
21  28  29  56  
60  61  30  22  
56  29  62  63  
29  37  64  62  
61  65  66  30  
30  66  38  31  
37  44  67  64  
66  52  45  38  
44  51  55  67  
VARIABLES  = "X","Y","Z", "PRESSURE1", "PRESSURE2", "PRESSURE_W", "SATURATION1", SATURATION2, "VELOCITY_X1", "VELOCITY_Y1", "VELOCITY_X2", "VELOCITY_Y2"
ZONE T="5.000000000000e+02s", N=67, E=51, F=FEPOINT, ET=QUADRILATERAL
STRANDID=1, SOLUTIONTIME=5.000000000000e+02
1.434482758620e+00 0.000000000000e+00 0.000000000000e+00 4.999999986783e+04 2.017402468837e+05 1.517402470159e+05 1.000000005287e-02 9.899999999471e-01 5.356084426124e-16 7.819575330220e-18 5.248992459154e-08 7.663204401432e-10 
1.524137931034e+00 0.000000000000e+00 0.000000000000e+00 4.999999986748e+04 2.017402009603e+05 1.517402010928e+05 1.000000005301e-02 9.899999999470e-01 5.030107487247e-16 7.837967826023e-18 4.929534418400e-08 7.681226434500e-10 
1.613793103448e+00 0.000000000000e+00 0.000000000000e+00 4.999999986748e+04 2.017401566883e+05 1.517401568208e+05 1.000000005301e-02 9.899999999470e-01 4.806558067209e-16 1.175538950834e-17 4.710436370677e-08 1.152031284122e-09 
1.703448275862e+00 0.000000000000e+00 0.000000000000e+00 4.999999986748e+04 2.017401147738e+05 1.517401149063e+05 1.000000005301e-02 9.899999999470e-01 4.481673840425e-16 1.544674181289e-17 4.392049227873e-08 1.513783859915e-09 
1.793103448276e+00 0.000000000000e+00 0.000000000000e+00 4.999999986748e+04 2.017400763273e+05 1.517400764598e+05 1.000000005301e-02 9.899999999470e-01 4.050556188036e-16 1.949075954234e-17 3.969553051008e-08 1.910098017997e-09 
1.882758620690e+00 0.000000000000e+00 0.000000000000e+00 4.999999986748e+04 2.017400421431e+05 1.517400422756e+05 1.000000005301e-02 9.899999999470e-01 3.580592186296e-16 1.908460636688e-17 3.508968185558e-08 1.870295345600e-09 
1.972413793104e+00 0.000000000000e+00 0.000000000000e+00 4.999999986783e+04 2.017400121239e+05 1.517400122561e+05 1.000000005287e-02 9.899999999471e-01 2.772435447981e-16 8.480158796684e-18 2.716973020914e-08 8.310577152602e-10 
1.882758620691e+00 5.000000000000e-01 0.000000000000e+00 4.999999986783e+04 2.017400389553e+05 1.517400390874e+05 1.000000005287e-02 9.899999999471e-01 3.443182941928e-16 -1.090200365442e-18 3.374306889342e-08 -1.069890563624e-10 
1.793103448277e+00 5.000000000000e-01 0.000000000000e+00 4.999999986748e+04 2.017400739412e+05 1.517400740737e+05 1.000000005301e-02 9.899999999470e-01 4.039225662538e-16 -1.078101259052e-17 3.958429894189e-08 -1.056541839417e-09 
1.703448275863e+00 5.000000000000e-01 0.000000000000e+00 4.999999986748e+04 2.017401113824e+05 1.517401115149e+05 1.000000005301e-02 9.899999999470e-01 4.347017402673e-16 -8.925724292753e-18 4.260085615635e-08 -8.747225069110e-10 
1.613793103450e+00 5.000000000000e-01 0.000000000000e+00 4.999999986748e+04 2.017401518877e+05 1.517401520202e+05 1.000000005301e-02 9.899999999470e-01 4.655725833970e-16 -6.884762108285e-18 4.562620466267e-08 -6.747081597168e-10 
1.524137931036e+00 5.000000000000e-01 0.000000000000e+00 4.999999986748e+04 2.017401948644e+05 1.517401949969e+05 1.000000005301e-02 9.899999999470e-01 4.895640087764e-16 -4.560234229805e-18 4.797736924959e-08 -4.469032679593e-10 
1.434482758622e+00 5.000000000000e-01 0.000000000000e+00 4.999999986748e+04 2.017402396716e+05 1.517402398041e+05 1.000000005301e-02 9.899999999470e-01 5.049873277674e-16 -9.279131875412e-19 4.948904991313e-08 -9.093593878446e-11 
1.344827586208e+00 5.000000000000e-01 0.000000000000e+00 4.999999986783e+04 2.017402854142e+05 1.517402855464e+05 1.000000005287e-02 9.899999999471e-01 5.554432141123e-16 5.682446899691e-18 5.443373590028e-08 5.568799761527e-10 
1.344827586208e+00 4.166666666666e-01 0.000000000000e+00 4.999999986783e+04 2.017402858877e+05 1.517402860199e+05 1.000000005287e-02 9.899999999471e-01 5.525476722687e-16 1.381123384154e-17 5.414997254101e-08 1.353502932261e-09 
1.434482758622e+00 4.166666666666e-01 0.000000000000e+00 4.999999986748e+04 2.017402395943e+05 1.517402397268e+05 1.000000005301e-02 9.899999999470e-01 5.097475478875e-16 9.477456046275e-18 4.995555175471e-08 9.287927170082e-10 
1.524137931036e+00 4.166666666666e-01 0.000000000000e+00 4.999999986748e+04 2.017401944844e+05 1.517401946169e+05 1.000000005301e-02 9.899999999470e-01 4.923324160666e-16 6.962380761487e-18 4.824867364839e-08 6.823148675824e-10 
1.613793103449e+00 4.166666666666e-01 0.000000000000e+00 4.999999986748e+04 2.017401513140e+05 1.517401514465e+05 1.000000005301e-02 9.899999999470e-01 4.676014169415e-16 4.836072055457e-18 4.582503094969e-08 4.739356632267e-10 
1.703448275863e+00 4.166666666666e-01 0.000000000000e+00 4.999999986748e+04 2.017401106386e+05 1.517401107711e+05 1.000000005301e-02 9.899999999470e-01 4.365124976583e-16 2.868071055107e-18 4.277831086988e-08 2.810716778585e-10 
1.793103448277e+00 4.166666666666e-01 0.000000000000e+00 4.999999986748e+04 2.017400730428e+05 1.517400731753e+05 1.000000005301e-02 9.899999999470e-01 4.002810567453e-16 1.849793664002e-18 3.922749973181e-08 1.812799158042e-10 
1.882758620691e+00 4.166666666665e-01 0.000000000000e+00 4.999999986770e+04 2.017400388643e+05 1.517400389966e+05 1.000000005292e-02 9.899999999471e-01 3.459275556505e-16 8.115514605485e-18 3.390069213683e-08 7.951893605451e-10 
1.344827586208e+00 3.333333333333e-01 0.000000000000e+00 4.999999986783e+04 2.017402877161e+05 1.517402878482e+05 1.000000005287e-02 9.899999999471e-01 5.554864452033e-16 2.467187520951e-17 5.443797253800e-08 2.417939211033e-09 
1.434482758621e+00 3.333333333333e-01 0.000000000000e+00 4.999999986748e+04 2.017402412512e+05 1.517402413837e+05 1.000000005301e-02 9.899999999470e-01 5.113532486820e-16 2.082195494395e-17 5.011291061662e-08 2.040630129717e-09 
1.524137931035e+00 3.333333333333e-01 0.000000000000e+00 4.999999986748e+04 2.017401960248e+05 1.517401961573e+05 1.000000005301e-02 9.899999999470e-01 4.938781155342e-16 1.979435894879e-17 4.840015298567e-08 1.939850856474e-09 
1.613793103449e+00 3.333333333332e-01 0.000000000000e+00 4.999999986748e+04 2.017401526937e+05 1.517401528262e+05 1.000000005301e-02 9.899999999470e-01 4.693781918397e-16 1.702192497379e-17 4.599915511046e-08 1.668151956919e-09 
1.703448275863e+00 3.333333333332e-01 0.000000000000e+00 4.999999986748e+04 2.017401118604e+05 1.517401119929e+05 1.000000005301e-02 9.899999999470e-01 4.374774475001e-16 1.419084077573e-17 4.287287588711e-08 1.390705057911e-09 
1.793103448277e+00 3.333333333332e-01 0.000000000000e+00 4.999999986748e+04 2.017400742495e+05 1.517400743820e+05 1.000000005301e-02 9.899999999470e-01 3.990451347183e-16 1.263064847557e-17 3.910643310341e-08 1.237806266894e-09 
1.882758620691e+00 3.333333333332e-01 0.000000000000e+00 4.999999986761e+04 2.017400403076e+05 1.517400404400e+05 1.000000005296e-02 9.899999999470e-01 3.495013937050e-16 1.594828229692e-17 3.425092933695e-08 1.562802968438e-09 
1.972413793104e+00 3.333333333331e-01 0.000000000000e+00 4.999999986798e+04 2.017400115808e+05 1.517400117128e+05 1.000000005281e-02 9.899999999472e-01 2.588731885510e-16 8.793775796358e-18 2.536956946360e-08 8.617011279197e-10 
1.344827586207e+00 2.500000000001e-01 0.000000000000e+00 4.999999986798e+04 2.017402899999e+05 1.517402901319e+05 1.000000005281e-02 9.899999999472e-01 5.600913901259e-16 3.957935689729e-17 5.488912025790e-08 3.878875815979e-09 
1.434482758621e+00 2.500000000000e-01 0.000000000000e+00 4.999999986761e+04 2.017402430647e+05 1.517402431971e+05 1.000000005296e-02 9.899999999470e-01 5.142811368893e-16 2.208736376204e-17 5.039992873983e-08 2.164697994637e-09 
1.524137931035e+00 2.500000000000e-01 0.000000000000e+00 4.999999986748e+04 2.017401977834e+05 1.517401979160e+05 1.000000005301e-02 9.899999999470e-01 4.958644952075e-16 1.976089193635e-17 4.859488731145e-08 1.936571281756e-09 
1.613793103449e+00 2.500000000000e-01 0.000000000000e+00 4.999999986748e+04 2.017401541510e+05 1.517401542835e+05 1.000000005301e-02 9.899999999470e-01 4.728098152212e-16 1.559554844519e-17 4.633545493406e-08 1.528366917135e-09 
1.703448275863e+00 2.499999999999e-01 0.000000000000e+00 4.999999986748e+04 2.017401130037e+05 1.517401131363e+05 1.000000005301e-02 9.899999999470e-01 4.405941329734e-16 1.085731669466e-17 4.317831166284e-08 1.064019021388e-09 
1.793103448277e+00 2.499999999999e-01 0.000000000000e+00 4.999999986748e+04 2.017400751479e+05 1.517400752804e+05 1.000000005301e-02 9.899999999470e-01 3.986475372577e-16 7.304527797397e-18 3.906753693596e-08 7.158452199946e-10 
1.882758620690e+00 2.499999999998e-01 0.000000000000e+00 4.999999986748e+04 2.017400415221e+05 1.517400416546e+05 1.000000005301e-02 9.899999999470e-01 3.494938795684e-16 7.917594248167e-18 3.425027705787e-08 7.758516366317e-10 
1.972413793104e+00 2.499999999998e-01 0.000000000000e+00 4.999999986783e+04 2.017400124804e+05 1.517400126125e+05 1.000000005287e-02 9.899999999471e-01 2.697290184736e-16 3.798324901508e-18 2.643330496913e-08 3.721458800915e-10 
1.434482758621e+00 1.666666666667e-01 0.000000000000e+00 4.999999986770e+04 2.017402449326e+05 1.517402450649e+05 1.000000005292e-02 9.899999999471e-01 5.297742576644e-16 1.900273100607e-17 5.191825779723e-08 1.862403379654e-09 
1.524137931035e+00 1.666666666667e-01 0.000000000000e+00 4.999999986748e+04 2.017401993183e+05 1.517401994508e+05 1.000000005301e-02 9.899999999470e-01 4.999121746780e-16 1.514239841859e-17 4.899161456811e-08 1.483958057503e-09 
1.613793103449e+00 1.666666666667e-01 0.000000000000e+00 4.999999986748e+04 2.017401552930e+05 1.517401554255e+05 1.000000005301e-02 9.899999999470e-01 4.776539509658e-16 9.346441007828e-18 4.681018124870e-08 9.159529321878e-10 
1.703448275862e+00 1.666666666666e-01 0.000000000000e+00 4.999999986748e+04 2.017401136700e+05 1.517401138025e+05 1.000000005301e-02 9.899999999470e-01 4.451838450097e-16 2.896806726072e-18 4.362810435142e-08 2.838876294463e-10 
1.793103448276e+00 1.666666666666e-01 0.000000000000e+00 4.999999986748e+04 2.017400754669e+05 1.517400755994e+05 1.000000005301e-02 9.899999999470e-01 4.017775685757e-16 -2.669017768032e-18 3.937428097345e-08 -2.615644282248e-10 
1.882758620690e+00 1.666666666666e-01 0.000000000000e+00 4.999999986748e+04 2.017400416271e+05 1.517400417596e+05 1.000000005301e-02 9.899999999470e-01 3.527603643851e-16 -5.816337484412e-18 3.457039346810e-08 -5.700026196596e-10 
1.972413793104e+00 1.666666666665e-01 0.000000000000e+00 4.999999986783e+04 2.017400122137e+05 1.517400123458e+05 1.000000005287e-02 9.899999999471e-01 2.737861769394e-16 -6.378840798906e-18 2.683090734688e-08 -6.251280686076e-10 
1.434482758620e+00 8.333333333338e-02 0.000000000000e+00 4.999999986783e+04 2.017402462321e+05 1.517402463642e+05 1.000000005287e-02 9.899999999471e-01 5.337240779170e-16 1.170569748202e-17 5.230525675658e-08 1.147235048907e-09 
1.524137931034e+00 8.333333333336e-02 0.000000000000e+00 4.999999986748e+04 2.017402003072e+05 1.517402004397e+05 1.000000005301e-02 9.899999999470e-01 5.048398930901e-16 9.852351445961e-18 4.947460085019e-08 9.655324352441e-10 
1.613793103448e+00 8.333333333334e-02 0.000000000000e+00 4.999999986748e+04 2.017401557087e+05 1.517401558412e+05 1.000000005301e-02 9.899999999470e-01 4.841919357386e-16 8.372059149911e-18 4.745090499877e-08 8.204638877850e-10 
1.703448275862e+00 8.333333333332e-02 0.000000000000e+00 4.999999986748e+04 2.017401134865e+05 1.517401136191e+05 1.000000005301e-02 9.899999999470e-01 4.517623477054e-16 6.622768751034e-18 4.427279893033e-08 6.490326643110e-10 
1.793103448276e+00 8.333333333330e-02 0.000000000000e+00 4.999999986748e+04 2.017400747030e+05 1.517400748356e+05 1.000000005301e-02 9.899999999470e-01 4.067462931882e-16 5.162182709737e-18 3.986121693235e-08 5.058947750552e-10 
1.882758620690e+00 8.333333333328e-02 0.000000000000e+00 4.999999986748e+04 2.017400405527e+05 1.517400406852e+05 1.000000005301e-02 9.899999999470e-01 3.529421125921e-16 3.096038917035e-18 3.458820479141e-08 3.034125113186e-10 
1.972413793104e+00 8.333333333327e-02 0.000000000000e+00 4.999999986783e+04 2.017400114172e+05 1.517400115494e+05 1.000000005287e-02 9.899999999471e-01 2.745750486233e-16 -5.386535514069e-19 2.690821672786e-08 -5.278787981020e-11 
1.344827586206e+00 8.333333333340e-02 0.000000000000e+00 4.999999986783e+04 2.017402960098e+05 1.517402961419e+05 1.000000005287e-02 9.899999999471e-01 5.552127956761e-16 1.612912951376e-17 5.441096364467e-08 1.580567029813e-09 
1.344827586206e+00 0.000000000000e+00 0.000000000000e+00 4.999999986783e+04 2.017402970008e+05 1.517402971330e+05 1.000000005287e-02 9.899999999471e-01 5.589986208707e-16 1.189260074898e-17 5.478197449452e-08 1.165476895022e-09 
2.062068965517e+00 0.000000000000e+00 0.000000000000e+00 4.999999986783e+04 2.017399924308e+05 1.517399925630e+05 1.000000005287e-02 9.899999999471e-01 2.196535023380e-16 1.334273884560e-17 2.152608693344e-08 1.307590515807e-09 
2.062068965518e+00 8.333333333325e-02 0.000000000000e+00 4.999999986783e+04 2.017399913189e+05 1.517399914511e+05 1.000000005287e-02 9.899999999471e-01 2.241732083465e-16 -6.236120130550e-19 2.196901802182e-08 -6.111418796345e-11 
1.972413793105e+00 4.166666666665e-01 0.000000000000e+00 4.999999986799e+04 2.017400110149e+05 1.517400111469e+05 1.000000005281e-02 9.899999999472e-01 2.707764359182e-16 -2.207761039649e-19 2.653607735727e-08 -2.157598539112e-11 
1.972413793105e+00 5.000000000000e-01 0.000000000000e+00 4.999999986783e+04 2.017400122017e+05 1.517400123339e+05 1.000000005287e-02 9.899999999471e-01 2.984051568787e-16 -1.424369984506e-17 2.924376466313e-08 -1.395703634467e-09 