VARIABLES  = "X","Y","Z", "PRESSURE1", "PRESSURE2", "PRESSURE_W", "SATURATION1", SATURATION2, "VELOCITY_X1", "VELOCITY_Y1", "VELOCITY_X2", "VELOCITY_Y2"
ZONE T="0.000000000000e+00s", N=59, E=44, F=FEPOINT, ET=QUADRILATERAL
STRANDID=1, SOLUTIONTIME=0.000000000000e+00
2.600000000000e+00 0.000000000000e+00 0.000000000000e+00 5.000000000000e+04 0.000000000000e+00 -5.000000000000e+04 1.000000000000e-02 9.900000000000e-01 0.000000000000e+00 0.000000000000e+00 0.000000000000e+00 0.000000000000e+00 
2.600000000000e+00 5.000000000000e-01 0.000000000000e+00 5.000000000000e+04 0.000000000000e+00 -5.000000000000e+04 1.000000000000e-02 9.900000000000e-01 0.000000000000e+00 0.000000000000e+00 0.000000000000e+00 0.000000000000e+00 
2.062068965517e+00 0.000000000000e+00 0.000000000000e+00 5.000000000000e+04 0.000000000000e+00 -5.000000000000e+04 1.000000000000e-02 9.900000000000e-01 0.000000000000e+00 0.000000000000e+00 0.000000000000e+00 0.000000000000e+00 
2.151724137931e+00 0.000000000000e+00 0.000000000000e+00 5.000000000000e+04 0.000000000000e+00 -5.000000000000e+04 1.000000000000e-02 9.900000000000e-01 0.000000000000e+00 0.000000000000e+00 0.000000000000e+00 0.000000000000e+00 
2.241379310345e+00 0.000000000000e+00 0.000000000000e+00 5.000000000000e+04 0.000000000000e+00 -5.000000000000e+04 1.000000000000e-02 9.900000000000e-01 0.000000000000e+00 0.000000000000e+00 0.000000000000e+00 0.000000000000e+00 
2.331034482759e+00 0.000000000000e+00 0.000000000000e+00 5.000000000000e+04 0.000000000000e+00 -5.000000000000e+04 1.000000000000e-02 9.900000000000e-01 0.000000000000e+00 0.000000000000e+00 0.000000000000e+00 0.000000000000e+00 
2.420689655172e+00 0.000000000000e+00 0.000000000000e+00 5.000000000000e+04 0.000000000000e+00 -5.000000000000e+04 1.000000000000e-02 9.900000000000e-01 0.000000000000e+00 0.000000000000e+00 0.000000000000e+00 0.000000000000e+00 
2.510344827586e+00 0.000000000000e+00 0.000000000000e+00 5.000000000000e+04 0.000000000000e+00 -5.000000000000e+04 1.000000000000e-02 9.900000000000e-01 0.000000000000e+00 0.000000000000e+00 0.000000000000e+00 0.000000000000e+00 
2.600000000000e+00 8.333333333313e-02 0.000000000000e+00 5.000000000000e+04 0.000000000000e+00 -5.000000000000e+04 1.000000000000e-02 9.900000000000e-01 0.000000000000e+00 0.000000000000e+00 0.000000000000e+00 0.000000000000e+00 
2.600000000000e+00 1.666666666663e-01 0.000000000000e+00 5.000000000000e+04 0.000000000000e+00 -5.000000000000e+04 1.000000000000e-02 9.900000000000e-01 0.000000000000e+00 0.000000000000e+00 0.000000000000e+00 0.000000000000e+00 
2.600000000000e+00 2.499999999995e-01 0.000000000000e+00 5.000000000000e+04 0.000000000000e+00 -5.000000000000e+04 1.000000000000e-02 9.900000000000e-01 0.000000000000e+00 0.000000000000e+00 0.000000000000e+00 0.000000000000e+00 
2.600000000000e+00 3.333333333329e-01 0.000000000000e+00 5.000000000000e+04 0.000000000000e+00 -5.000000000000e+04 1.000000000000e-02 9.900000000000e-01 0.000000000000e+00 0.000000000000e+00 0.000000000000e+00 0.000000000000e+00 
2.600000000000e+00 4.166666666664e-01 0.000000000000e+00 5.000000000000e+04 0.000000000000e+00 -5.000000000000e+04 1.000000000000e-02 9.900000000000e-01 0.000000000000e+00 0.000000000000e+00 0.000000000000e+00 0.000000000000e+00 
2.510344827586e+00 5.000000000000e-01 0.000000000000e+00 5.000000000000e+04 0.000000000000e+00 -5.000000000000e+04 1.000000000000e-02 9.900000000000e-01 0.000000000000e+00 0.000000000000e+00 0.000000000000e+00 0.000000000000e+00 
2.420689655173e+00 5.000000000000e-01 0.000000000000e+00 5.000000000000e+04 0.000000000000e+00 -5.000000000000e+04 1.000000000000e-02 9.900000000000e-01 0.000000000000e+00 0.000000000000e+00 0.000000000000e+00 0.000000000000e+00 
2.331034482759e+00 5.000000000000e-01 0.000000000000e+00 5.000000000000e+04 0.000000000000e+00 -5.000000000000e+04 1.000000000000e-02 9.900000000000e-01 0.000000000000e+00 0.000000000000e+00 0.000000000000e+00 0.000000000000e+00 
2.241379310346e+00 5.000000000000e-01 0.000000000000e+00 5.000000000000e+04 0.000000000000e+00 -5.000000000000e+04 1.000000000000e-02 9.900000000000e-01 0.000000000000e+00 0.000000000000e+00 0.000000000000e+00 0.000000000000e+00 
2.151724137932e+00 5.000000000000e-01 0.000000000000e+00 5.000000000000e+04 0.000000000000e+00 -5.000000000000e+04 1.000000000000e-02 9.900000000000e-01 0.000000000000e+00 0.000000000000e+00 0.000000000000e+00 0.000000000000e+00 
2.062068965518e+00 5.000000000000e-01 0.000000000000e+00 5.000000000000e+04 0.000000000000e+00 -5.000000000000e+04 1.000000000000e-02 9.900000000000e-01 0.000000000000e+00 0.000000000000e+00 0.000000000000e+00 0.000000000000e+00 
1.972413793105e+00 5.000000000000e-01 0.000000000000e+00 5.000000000000e+04 0.000000000000e+00 -5.000000000000e+04 1.000000000000e-02 9.900000000000e-01 0.000000000000e+00 0.000000000000e+00 0.000000000000e+00 0.000000000000e+00 
1.972413793105e+00 4.166666666665e-01 0.000000000000e+00 5.000000000000e+04 0.000000000000e+00 -5.000000000000e+04 1.000000000000e-02 9.900000000000e-01 0.000000000000e+00 0.000000000000e+00 0.000000000000e+00 0.000000000000e+00 
2.062068965518e+00 4.166666666665e-01 0.000000000000e+00 5.000000000000e+04 0.000000000000e+00 -5.000000000000e+04 1.000000000000e-02 9.900000000000e-01 0.000000000000e+00 0.000000000000e+00 0.000000000000e+00 0.000000000000e+00 
2.151724137932e+00 4.166666666665e-01 0.000000000000e+00 5.000000000000e+04 0.000000000000e+00 -5.000000000000e+04 1.000000000000e-02 9.900000000000e-01 0.000000000000e+00 0.000000000000e+00 0.000000000000e+00 0.000000000000e+00 
2.241379310345e+00 4.166666666665e-01 0.000000000000e+00 5.000000000000e+04 0.000000000000e+00 -5.000000000000e+04 1.000000000000e-02 9.900000000000e-01 0.000000000000e+00 0.000000000000e+00 0.000000000000e+00 0.000000000000e+00 
2.331034482759e+00 4.166666666665e-01 0.000000000000e+00 5.000000000000e+04 0.000000000000e+00 -5.000000000000e+04 1.000000000000e-02 9.900000000000e-01 0.000000000000e+00 0.000000000000e+00 0.000000000000e+00 0.000000000000e+00 
2.420689655173e+00 4.166666666665e-01 0.000000000000e+00 5.000000000000e+04 0.000000000000e+00 -5.000000000000e+04 1.000000000000e-02 9.900000000000e-01 0.000000000000e+00 0.000000000000e+00 0.000000000000e+00 0.000000000000e+00 
2.510344827586e+00 4.166666666665e-01 0.000000000000e+00 5.000000000000e+04 0.000000000000e+00 -5.000000000000e+04 1.000000000000e-02 9.900000000000e-01 0.000000000000e+00 0.000000000000e+00 0.000000000000e+00 0.000000000000e+00 
2.062068965518e+00 3.333333333331e-01 0.000000000000e+00 5.000000000000e+04 0.000000000000e+00 -5.000000000000e+04 1.000000000000e-02 9.900000000000e-01 0.000000000000e+00 0.000000000000e+00 0.000000000000e+00 0.000000000000e+00 
2.151724137932e+00 3.333333333331e-01 0.000000000000e+00 5.000000000000e+04 0.000000000000e+00 -5.000000000000e+04 1.000000000000e-02 9.900000000000e-01 0.000000000000e+00 0.000000000000e+00 0.000000000000e+00 0.000000000000e+00 
2.241379310345e+00 3.333333333330e-01 0.000000000000e+00 5.000000000000e+04 0.000000000000e+00 -5.000000000000e+04 1.000000000000e-02 9.900000000000e-01 0.000000000000e+00 0.000000000000e+00 0.000000000000e+00 0.000000000000e+00 
2.331034482759e+00 3.333333333330e-01 0.000000000000e+00 5.000000000000e+04 0.000000000000e+00 -5.000000000000e+04 1.000000000000e-02 9.900000000000e-01 0.000000000000e+00 0.000000000000e+00 0.000000000000e+00 0.000000000000e+00 
2.420689655173e+00 3.333333333330e-01 0.000000000000e+00 5.000000000000e+04 0.000000000000e+00 -5.000000000000e+04 1.000000000000e-02 9.900000000000e-01 0.000000000000e+00 0.000000000000e+00 0.000000000000e+00 0.000000000000e+00 
2.510344827586e+00 3.333333333330e-01 0.000000000000e+00 5.000000000000e+04 0.000000000000e+00 -5.000000000000e+04 1.000000000000e-02 9.900000000000e-01 0.000000000000e+00 0.000000000000e+00 0.000000000000e+00 0.000000000000e+00 
2.062068965518e+00 2.499999999998e-01 0.000000000000e+00 5.000000000000e+04 0.000000000000e+00 -5.000000000000e+04 1.000000000000e-02 9.900000000000e-01 0.000000000000e+00 0.000000000000e+00 0.000000000000e+00 0.000000000000e+00 
2.151724137932e+00 2.499999999997e-01 0.000000000000e+00 5.000000000000e+04 0.000000000000e+00 -5.000000000000e+04 1.000000000000e-02 9.900000000000e-01 0.000000000000e+00 0.000000000000e+00 0.000000000000e+00 0.000000000000e+00 
2.241379310345e+00 2.499999999997e-01 0.000000000000e+00 5.000000000000e+04 0.000000000000e+00 -5.000000000000e+04 1.000000000000e-02 9.900000000000e-01 0.000000000000e+00 0.000000000000e+00 0.000000000000e+00 0.000000000000e+00 
2.331034482759e+00 2.499999999996e-01 0.000000000000e+00 5.000000000000e+04 0.000000000000e+00 -5.000000000000e+04 1.000000000000e-02 9.900000000000e-01 0.000000000000e+00 0.000000000000e+00 0.000000000000e+00 0.000000000000e+00 
2.420689655173e+00 2.499999999996e-01 0.000000000000e+00 5.000000000000e+04 0.000000000000e+00 -5.000000000000e+04 1.000000000000e-02 9.900000000000e-01 0.000000000000e+00 0.000000000000e+00 0.000000000000e+00 0.000000000000e+00 
2.510344827586e+00 2.499999999996e-01 0.000000000000e+00 5.000000000000e+04 0.000000000000e+00 -5.000000000000e+04 1.000000000000e-02 9.900000000000e-01 0.000000000000e+00 0.000000000000e+00 0.000000000000e+00 0.000000000000e+00 
2.062068965518e+00 1.666666666665e-01 0.000000000000e+00 5.000000000000e+04 0.000000000000e+00 -5.000000000000e+04 1.000000000000e-02 9.900000000000e-01 0.000000000000e+00 0.000000000000e+00 0.000000000000e+00 0.000000000000e+00 
2.151724137931e+00 1.666666666665e-01 0.000000000000e+00 5.000000000000e+04 0.000000000000e+00 -5.000000000000e+04 1.000000000000e-02 9.900000000000e-01 0.000000000000e+00 0.000000000000e+00 0.000000000000e+00 0.000000000000e+00 
2.241379310345e+00 1.666666666664e-01 0.000000000000e+00 5.000000000000e+04 0.000000000000e+00 -5.000000000000e+04 1.000000000000e-02 9.900000000000e-01 0.000000000000e+00 0.000000000000e+00 0.000000000000e+00 0.000000000000e+00 
2.331034482759e+00 1.666666666664e-01 0.000000000000e+00 5.000000000000e+04 0.000000000000e+00 -5.000000000000e+04 1.000000000000e-02 9.900000000000e-01 0.000000000000e+00 0.000000000000e+00 0.000000000000e+00 0.000000000000e+00 
2.420689655173e+00 1.666666666664e-01 0.000000000000e+00 5.000000000000e+04 0.000000000000e+00 -5.000000000000e+04 1.000000000000e-02 9.900000000000e-01 0.000000000000e+00 0.000000000000e+00 0.000000000000e+00 0.000000000000e+00 
2.510344827586e+00 1.666666666663e-01 0.000000000000e+00 5.000000000000e+04 0.000000000000e+00 -5.000000000000e+04 1.000000000000e-02 9.900000000000e-01 0.000000000000e+00 0.000000000000e+00 0.000000000000e+00 0.000000000000e+00 
2.062068965518e+00 8.333333333325e-02 0.000000000000e+00 5.000000000000e+04 0.000000000000e+00 -5.000000000000e+04 1.000000000000e-02 9.900000000000e-01 0.000000000000e+00 0.000000000000e+00 0.000000000000e+00 0.000000000000e+00 
2.151724137931e+00 8.333333333323e-02 0.000000000000e+00 5.000000000000e+04 0.000000000000e+00 -5.000000000000e+04 1.000000000000e-02 9.900000000000e-01 0.000000000000e+00 0.000000000000e+00 0.000000000000e+00 0.000000000000e+00 
2.241379310345e+00 8.333333333321e-02 0.000000000000e+00 5.000000000000e+04 0.000000000000e+00 -5.000000000000e+04 1.000000000000e-02 9.900000000000e-01 0.000000000000e+00 0.000000000000e+00 0.000000000000e+00 0.000000000000e+00 
2.331034482759e+00 8.333333333319e-02 0.000000000000e+00 5.000000000000e+04 0.000000000000e+00 -5.000000000000e+04 1.000000000000e-02 9.900000000000e-01 0.000000000000e+00 0.000000000000e+00 0.000000000000e+00 0.000000000000e+00 
2.420689655173e+00 8.333333333317e-02 0.000000000000e+00 5.000000000000e+04 0.000000000000e+00 -5.000000000000e+04 1.000000000000e-02 9.900000000000e-01 0.000000000000e+00 0.000000000000e+00 0.000000000000e+00 0.000000000000e+00 
2.510344827586e+00 8.333333333315e-02 0.000000000000e+00 5.000000000000e+04 0.000000000000e+00 -5.000000000000e+04 1.000000000000e-02 9.900000000000e-01 0.000000000000e+00 0.000000000000e+00 0.000000000000e+00 0.000000000000e+00 
1.972413793104e+00 8.333333333327e-02 0.000000000000e+00 5.000000000000e+04 0.000000000000e+00 -5.000000000000e+04 1.000000000000e-02 9.900000000000e-01 0.000000000000e+00 0.000000000000e+00 0.000000000000e+00 0.000000000000e+00 
1.972413793104e+00 0.000000000000e+00 0.000000000000e+00 5.000000000000e+04 0.000000000000e+00 -5.000000000000e+04 1.000000000000e-02 9.900000000000e-01 0.000000000000e+00 0.000000000000e+00 0.000000000000e+00 0.000000000000e+00 
1.882758620691e+00 5.000000000000e-01 0.000000000000e+00 5.000000000000e+04 0.000000000000e+00 -5.000000000000e+04 1.000000000000e-02 9.900000000000e-01 0.000000000000e+00 0.000000000000e+00 0.000000000000e+00 0.000000000000e+00 
1.882758620691e+00 4.166666666665e-01 0.000000000000e+00 5.000000000000e+04 0.000000000000e+00 -5.000000000000e+04 1.000000000000e-02 9.900000000000e-01 0.000000000000e+00 0.000000000000e+00 0.000000000000e+00 0.000000000000e+00 
1.882758620691e+00 3.333333333332e-01 0.000000000000e+00 5.000000000000e+04 0.000000000000e+00 -5.000000000000e+04 1.000000000000e-02 9.900000000000e-01 0.000000000000e+00 0.000000000000e+00 0.000000000000e+00 0.000000000000e+00 
1.972413793104e+00 3.333333333331e-01 0.000000000000e+00 5.000000000000e+04 0.000000000000e+00 -5.000000000000e+04 1.000000000000e-02 9.900000000000e-01 0.000000000000e+00 0.000000000000e+00 0.000000000000e+00 0.000000000000e+00 
1.972413793104e+00 2.499999999998e-01 0.000000000000e+00 5.000000000000e+04 0.000000000000e+00 -5.000000000000e+04 1.000000000000e-02 9.900000000000e-01 0.000000000000e+00 0.000000000000e+00 0.000000000000e+00 0.000000000000e+00 
1.972413793104e+00 1.666666666665e-01 0.000000000000e+00 5.000000000000e+04 0.000000000000e+00 -5.000000000000e+04 1.000000000000e-02 9.900000000000e-01 0.000000000000e+00 0.000000000000e+00 0.000000000000e+00 0.000000000000e+00 
51  8  1  9  
14  27  13  2  
46  3  4  47  
47  4  5  48  
48  5  6  49  
49  6  7  50  
50  7  8  51  
45  51  9  10  
39  45  10  11  
33  39  11  12  
27  33  12  13  
15  26  27  14  
16  25  26  15  
17  24  25  16  
18  23  24  17  
19  22  23  18  
20  21  22  19  
22  28  29  23  
23  29  30  24  
24  30  31  25  
25  31  32  26  
26  32  33  27  
28  34  35  29  
29  35  36  30  
30  36  37  31  
31  37  38  32  
32  38  39  33  
34  40  41  35  
35  41  42  36  
36  42  43  37  
37  43  44  38  
38  44  45  39  
40  46  47  41  
41  47  48  42  
42  48  49  43  
43  49  50  44  
44  50  51  45  
52  53  3  46  
54  55  21  20  
55  56  57  21  
21  57  28  22  
57  58  34  28  
58  59  40  34  
59  52  46  40  
VARIABLES  = "X","Y","Z", "PRESSURE1", "PRESSURE2", "PRESSURE_W", "SATURATION1", SATURATION2, "VELOCITY_X1", "VELOCITY_Y1", "VELOCITY_X2", "VELOCITY_Y2"
ZONE T="5.000000000000e+02s", N=59, E=44, F=FEPOINT, ET=QUADRILATERAL
STRANDID=1, SOLUTIONTIME=5.000000000000e+02
2.600000000000e+00 0.000000000000e+00 0.000000000000e+00 4.999999986849e+04 2.017399706061e+05 1.517399707376e+05 1.000000005260e-02 9.899999999474e-01 -3.836961168087e-18 2.030193827356e-18 -3.770188795980e-10 1.999658416351e-10 
2.600000000000e+00 5.000000000000e-01 0.000000000000e+00 4.999999986851e+04 2.017399703484e+05 1.517399704798e+05 1.000000005260e-02 9.899999999474e-01 1.600307507042e-18 1.343213251615e-19 1.558156278350e-10 1.213650240487e-11 
2.062068965517e+00 0.000000000000e+00 0.000000000000e+00 4.999999986783e+04 2.017399924308e+05 1.517399925630e+05 1.000000005287e-02 9.899999999471e-01 1.699373960828e-16 1.334273897666e-17 1.665409035623e-08 1.307590497423e-09 
2.151724137931e+00 0.000000000000e+00 0.000000000000e+00 4.999999986748e+04 2.017399816520e+05 1.517399817845e+05 1.000000005301e-02 9.899999999470e-01 9.904902461853e-17 1.647270625359e-17 9.707015690216e-09 1.614327985622e-09 
2.241379310345e+00 0.000000000000e+00 0.000000000000e+00 4.999999986748e+04 2.017399746700e+05 1.517399748025e+05 1.000000005301e-02 9.899999999470e-01 5.798096207178e-17 1.192499436022e-17 5.682145677070e-09 1.168651989567e-09 
2.331034482759e+00 0.000000000000e+00 0.000000000000e+00 4.999999986748e+04 2.017399712554e+05 1.517399713880e+05 1.000000005301e-02 9.899999999470e-01 2.512494995958e-17 6.547827679988e-18 2.462250008830e-09 6.416880558811e-10 
2.420689655172e+00 0.000000000000e+00 0.000000000000e+00 4.999999986748e+04 2.017399701648e+05 1.517399702973e+05 1.000000005301e-02 9.899999999470e-01 5.545613816515e-18 2.540500350734e-18 5.434171800613e-10 2.489697914484e-10 
2.510344827586e+00 0.000000000000e+00 0.000000000000e+00 4.999999986758e+04 2.017399702611e+05 1.517399703936e+05 1.000000005297e-02 9.899999999470e-01 -2.455233689408e-18 1.875167858693e-19 -2.411654321413e-10 1.834432618514e-11 
2.600000000000e+00 8.333333333313e-02 0.000000000000e+00 4.999999986763e+04 2.017399704360e+05 1.517399705684e+05 1.000000005295e-02 9.899999999471e-01 -2.124216326940e-18 1.962543657346e-18 -2.082040056776e-10 1.929235140760e-10 
2.600000000000e+00 1.666666666663e-01 0.000000000000e+00 4.999999986748e+04 2.017399702780e+05 1.517399704105e+05 1.000000005301e-02 9.899999999470e-01 -1.012261133109e-18 1.038127674119e-18 -9.920164206809e-11 1.018276091954e-10 
2.600000000000e+00 2.499999999995e-01 0.000000000000e+00 4.999999986748e+04 2.017399702628e+05 1.517399703954e+05 1.000000005301e-02 9.899999999470e-01 -2.528765495026e-19 -4.232334481444e-20 -2.478175006986e-11 -4.147976921360e-12 
2.600000000000e+00 3.333333333329e-01 0.000000000000e+00 4.999999986748e+04 2.017399702850e+05 1.517399704175e+05 1.000000005301e-02 9.899999999470e-01 1.404520580499e-20 -5.740687214170e-19 1.376193367657e-12 -5.634932226729e-11 
2.600000000000e+00 4.166666666664e-01 0.000000000000e+00 4.999999986763e+04 2.017399703587e+05 1.517399704910e+05 1.000000005295e-02 9.899999999471e-01 -7.313454227847e-19 -3.739042999408e-19 -7.170265253009e-11 -3.724604017751e-11 
2.510344827586e+00 5.000000000000e-01 0.000000000000e+00 4.999999986758e+04 2.017399704909e+05 1.517399706233e+05 1.000000005297e-02 9.899999999470e-01 4.424959160666e-18 -2.374216763163e-18 4.330854253150e-10 -2.326418484006e-10 
2.420689655173e+00 5.000000000000e-01 0.000000000000e+00 4.999999986748e+04 2.017399711408e+05 1.517399712733e+05 1.000000005301e-02 9.899999999470e-01 1.404649727460e-17 -5.546501754684e-18 1.376505838101e-09 -5.435577228854e-10 
2.331034482759e+00 5.000000000000e-01 0.000000000000e+00 4.999999986748e+04 2.017399730095e+05 1.517399731420e+05 1.000000005301e-02 9.899999999470e-01 3.285990804914e-17 -9.497100788780e-18 3.220277285822e-09 -9.307175945673e-10 
2.241379310346e+00 5.000000000000e-01 0.000000000000e+00 4.999999986748e+04 2.017399770329e+05 1.517399771654e+05 1.000000005301e-02 9.899999999470e-01 6.259049932528e-17 -1.348926854508e-17 6.133881112939e-09 -1.321949672201e-09 
2.151724137932e+00 5.000000000000e-01 0.000000000000e+00 4.999999986748e+04 2.017399842326e+05 1.517399843651e+05 1.000000005301e-02 9.899999999470e-01 1.046918446850e-16 -1.623120907004e-17 1.025982216523e-08 -1.590661552439e-09 
2.062068965518e+00 5.000000000000e-01 0.000000000000e+00 4.999999986748e+04 2.017399958052e+05 1.517399959377e+05 1.000000005301e-02 9.899999999470e-01 1.559795399731e-16 -2.305180229807e-17 1.528621762648e-08 -2.258932429265e-09 
1.972413793105e+00 5.000000000000e-01 0.000000000000e+00 4.999999986783e+04 2.017400122017e+05 1.517400123339e+05 1.000000005287e-02 9.899999999471e-01 2.406425569178e-16 -1.424369997291e-17 2.358320987609e-08 -1.395703636530e-09 
1.972413793105e+00 4.166666666665e-01 0.000000000000e+00 4.999999986799e+04 2.017400110149e+05 1.517400111469e+05 1.000000005281e-02 9.899999999472e-01 2.508490709515e-16 -3.726507027928e-18 2.458331183781e-08 -3.651079134542e-10 
2.062068965518e+00 4.166666666665e-01 0.000000000000e+00 4.999999986761e+04 2.017399938844e+05 1.517399940168e+05 1.000000005296e-02 9.899999999470e-01 1.569032220736e-16 -1.149813022636e-17 1.537682307541e-08 -1.126687123019e-09 
2.151724137932e+00 4.166666666665e-01 0.000000000000e+00 4.999999986748e+04 2.017399828800e+05 1.517399830125e+05 1.000000005301e-02 9.899999999470e-01 1.002477185140e-16 -6.677180099157e-18 9.824365432281e-09 -6.543645917929e-10 
2.241379310345e+00 4.166666666665e-01 0.000000000000e+00 4.999999986748e+04 2.017399759088e+05 1.517399760413e+05 1.000000005301e-02 9.899999999470e-01 5.946086580135e-17 -5.656452548769e-18 5.827176399594e-09 -5.543327440166e-10 
2.331034482759e+00 4.166666666665e-01 0.000000000000e+00 4.999999986748e+04 2.017399722181e+05 1.517399723506e+05 1.000000005301e-02 9.899999999470e-01 2.916855778614e-17 -4.109974936828e-18 2.858524579240e-09 -4.027783213607e-10 
2.420689655173e+00 4.166666666665e-01 0.000000000000e+00 4.999999986748e+04 2.017399706786e+05 1.517399708111e+05 1.000000005301e-02 9.899999999470e-01 1.073618254555e-17 -2.517215715914e-18 1.052079607055e-09 -2.466872611511e-10 
2.510344827586e+00 4.166666666665e-01 0.000000000000e+00 4.999999986760e+04 2.017399702931e+05 1.517399704255e+05 1.000000005296e-02 9.899999999470e-01 1.784833350069e-18 -1.227204249240e-18 1.748301339085e-10 -1.203237957144e-10 
2.062068965518e+00 3.333333333331e-01 0.000000000000e+00 4.999999986770e+04 2.017399938891e+05 1.517399940214e+05 1.000000005292e-02 9.899999999471e-01 1.587221526844e-16 -4.363936932345e-18 1.555507801435e-08 -4.275344901668e-10 
2.151724137932e+00 3.333333333331e-01 0.000000000000e+00 4.999999986748e+04 2.017399831197e+05 1.517399832523e+05 1.000000005301e-02 9.899999999470e-01 9.926208016617e-17 -7.416319757473e-19 9.727826079078e-09 -7.267997767747e-11 
2.241379310345e+00 3.333333333330e-01 0.000000000000e+00 4.999999986748e+04 2.017399760901e+05 1.517399762227e+05 1.000000005301e-02 9.899999999470e-01 6.020431492396e-17 -7.004277028668e-19 5.900034871816e-09 -6.864179272353e-11 
2.331034482759e+00 3.333333333330e-01 0.000000000000e+00 4.999999986748e+04 2.017399723245e+05 1.517399724570e+05 1.000000005301e-02 9.899999999470e-01 2.994202741049e-17 -6.945757319826e-19 2.934324703762e-09 -6.806845646014e-11 
2.420689655173e+00 3.333333333330e-01 0.000000000000e+00 4.999999986748e+04 2.017399707212e+05 1.517399708538e+05 1.000000005301e-02 9.899999999470e-01 1.136699880329e-17 -5.141564598528e-19 1.113967979185e-09 -5.038683674927e-11 
2.510344827586e+00 3.333333333330e-01 0.000000000000e+00 4.999999986748e+04 2.017399702863e+05 1.517399704188e+05 1.000000005301e-02 9.899999999470e-01 2.432778716752e-18 -3.166853247997e-19 2.384125100937e-10 -3.110911081912e-11 
2.062068965518e+00 2.499999999998e-01 0.000000000000e+00 4.999999986783e+04 2.017399931573e+05 1.517399932894e+05 1.000000005287e-02 9.899999999471e-01 1.657662611806e-16 -8.126724153021e-18 1.624531837856e-08 -7.963463466325e-10 
2.151724137932e+00 2.499999999997e-01 0.000000000000e+00 4.999999986748e+04 2.017399827564e+05 1.517399828889e+05 1.000000005301e-02 9.899999999470e-01 9.684253345242e-17 -7.568090821978e-18 9.490779240977e-09 -7.416746063624e-10 
2.241379310345e+00 2.499999999997e-01 0.000000000000e+00 4.999999986748e+04 2.017399757920e+05 1.517399759246e+05 1.000000005301e-02 9.899999999470e-01 5.941712782340e-17 -6.487583467388e-18 5.822890023220e-09 -6.357848525327e-10 
2.331034482759e+00 2.499999999996e-01 0.000000000000e+00 4.999999986748e+04 2.017399721023e+05 1.517399722348e+05 1.000000005301e-02 9.899999999470e-01 2.899542124232e-17 -4.580426244691e-18 2.841556856441e-09 -4.488828337175e-10 
2.420689655173e+00 2.499999999996e-01 0.000000000000e+00 4.999999986748e+04 2.017399705929e+05 1.517399707254e+05 1.000000005301e-02 9.899999999470e-01 1.038493840306e-17 -2.361146320398e-18 1.017726373385e-09 -2.313926786616e-10 
2.510344827586e+00 2.499999999996e-01 0.000000000000e+00 4.999999986748e+04 2.017399702402e+05 1.517399703727e+05 1.000000005301e-02 9.899999999470e-01 1.840520707632e-18 -5.944053657233e-19 1.803721204171e-10 -5.825189711734e-11 
2.062068965518e+00 1.666666666665e-01 0.000000000000e+00 4.999999986783e+04 2.017399925348e+05 1.517399926669e+05 1.000000005287e-02 9.899999999471e-01 1.692870904364e-16 -1.102999775546e-17 1.659035993814e-08 -1.080942191423e-09 
2.151724137931e+00 1.666666666665e-01 0.000000000000e+00 4.999999986748e+04 2.017399818584e+05 1.517399819909e+05 1.000000005301e-02 9.899999999470e-01 9.773852013455e-17 -1.486268057447e-17 9.578586262707e-09 -1.456545514179e-09 
2.241379310345e+00 1.666666666664e-01 0.000000000000e+00 4.999999986748e+04 2.017399750089e+05 1.517399751414e+05 1.000000005301e-02 9.899999999470e-01 5.742731928810e-17 -1.269500544464e-17 5.627888656491e-09 -1.244113512990e-09 
2.331034482759e+00 1.666666666664e-01 0.000000000000e+00 4.999999986748e+04 2.017399715611e+05 1.517399716936e+05 1.000000005301e-02 9.899999999470e-01 2.610655717899e-17 -8.355125008861e-18 2.558447365796e-09 -8.188040275923e-10 
2.420689655173e+00 1.666666666664e-01 0.000000000000e+00 4.999999986748e+04 2.017399703277e+05 1.517399704602e+05 1.000000005301e-02 9.899999999470e-01 7.662043453055e-18 -3.838665203574e-18 7.508815956037e-10 -3.761905641941e-10 
2.510344827586e+00 1.666666666663e-01 0.000000000000e+00 4.999999986748e+04 2.017399701872e+05 1.517399703197e+05 1.000000005301e-02 9.899999999470e-01 2.774622015174e-19 3.147606542402e-20 2.719146471808e-11 3.159117843736e-12 
2.062068965518e+00 8.333333333325e-02 0.000000000000e+00 4.999999986783e+04 2.017399913189e+05 1.517399914511e+05 1.000000005287e-02 9.899999999471e-01 1.736518816163e-16 -6.236120549054e-19 1.701811021779e-08 -6.111419744373e-11 
2.151724137931e+00 8.333333333323e-02 0.000000000000e+00 4.999999986748e+04 2.017399802793e+05 1.517399804118e+05 1.000000005301e-02 9.899999999470e-01 9.839013711040e-17 -1.238292789839e-18 9.642444896560e-09 -1.213530394504e-10 
2.241379310345e+00 8.333333333321e-02 0.000000000000e+00 4.999999986748e+04 2.017399736762e+05 1.517399738087e+05 1.000000005301e-02 9.899999999470e-01 5.336843835980e-17 -2.033534233520e-18 5.230117456320e-09 -1.992865555030e-10 
2.331034482759e+00 8.333333333319e-02 0.000000000000e+00 4.999999986748e+04 2.017399707098e+05 1.517399708423e+05 1.000000005301e-02 9.899999999470e-01 2.076356635489e-17 -1.833936276312e-18 2.034833631024e-09 -1.797261250618e-10 
2.420689655173e+00 8.333333333317e-02 0.000000000000e+00 4.999999986748e+04 2.017399699531e+05 1.517399700856e+05 1.000000005301e-02 9.899999999470e-01 2.589700267029e-18 -9.774602855270e-19 2.537221769306e-10 -9.579149406751e-11 
2.510344827586e+00 8.333333333315e-02 0.000000000000e+00 4.999999986761e+04 2.017399702455e+05 1.517399703779e+05 1.000000005296e-02 9.899999999470e-01 -2.692396005260e-18 4.430502262015e-19 -2.639397061910e-10 4.347695776319e-11 
1.972413793104e+00 8.333333333327e-02 0.000000000000e+00 4.999999986783e+04 2.017400114172e+05 1.517400115494e+05 1.000000005287e-02 9.899999999471e-01 2.241732081501e-16 -5.386535407976e-19 2.196901801914e-08 -5.278786607469e-11 
1.972413793104e+00 0.000000000000e+00 0.000000000000e+00 4.999999986783e+04 2.017400121239e+05 1.517400122561e+05 1.000000005287e-02 9.899999999471e-01 2.196535024247e-16 8.480158576552e-18 2.152608697990e-08 8.310577069815e-10 
1.882758620691e+00 5.000000000000e-01 0.000000000000e+00 4.999999986783e+04 2.017400389553e+05 1.517400390874e+05 1.000000005287e-02 9.899999999471e-01 2.984051569114e-16 -1.090200653913e-18 2.924376466956e-08 -1.069890672662e-10 
1.882758620691e+00 4.166666666665e-01 0.000000000000e+00 4.999999986770e+04 2.017400388643e+05 1.517400389966e+05 1.000000005292e-02 9.899999999471e-01 3.106311659977e-16 8.115514521482e-18 3.044160838994e-08 7.951893303386e-10 
1.882758620691e+00 3.333333333332e-01 0.000000000000e+00 4.999999986761e+04 2.017400403076e+05 1.517400404400e+05 1.000000005296e-02 9.899999999470e-01 3.204191709268e-16 1.732122905232e-17 3.140072753671e-08 1.697367736379e-09 
1.972413793104e+00 3.333333333331e-01 0.000000000000e+00 4.999999986798e+04 2.017400115808e+05 1.517400117128e+05 1.000000005281e-02 9.899999999472e-01 2.383578611139e-16 8.126079085473e-18 2.335918345417e-08 7.962966840219e-10 
1.972413793104e+00 2.499999999998e-01 0.000000000000e+00 4.999999986783e+04 2.017400124804e+05 1.517400126125e+05 1.000000005287e-02 9.899999999471e-01 2.155268268631e-16 3.798324754050e-18 2.112167128783e-08 3.721458618387e-10 
1.972413793104e+00 1.666666666665e-01 0.000000000000e+00 4.999999986783e+04 2.017400122137e+05 1.517400123458e+05 1.000000005287e-02 9.899999999471e-01 2.194955665429e-16 -6.378840915031e-18 2.151060855452e-08 -6.251280831095e-10 
51  8  1  9  
14  27  13  2  
46  3  4  47  
47  4  5  48  
48  5  6  49  
49  6  7  50  
50  7  8  51  
45  51  9  10  
39  45  10  11  
33  39  11  12  
27  33  12  13  
15  26  27  14  
16  25  26  15  
17  24  25  16  
18  23  24  17  
19  22  23  18  
20  21  22  19  
22  28  29  23  
23  29  30  24  
24  30  31  25  
25  31  32  26  
26  32  33  27  
28  34  35  29  
29  35  36  30  
30  36  37  31  
31  37  38  32  
32  38  39  33  
34  40  41  35  
35  41  42  36  
36  42  43  37  
37  43  44  38  
38  44  45  39  
40  46  47  41  
41  47  48  42  
42  48  49  43  
43  49  50  44  
44  50  51  45  
52  53  3  46  
54  55  21  20  
55  56  57  21  
21  57  28  22  
57  58  34  28  
58  59  40  34  
59  52  46  40  
VARIABLES  = "X","Y","Z", "PRESSURE1", "PRESSURE2", "PRESSURE_W", "SATURATION1", SATURATION2, "VELOCITY_X1", "VELOCITY_Y1", "VELOCITY_X2", "VELOCITY_Y2"
ZONE T="1.000000000000e+03s", N=59, E=44, F=FEPOINT, ET=QUADRILATERAL
STRANDID=1, SOLUTIONTIME=1.000000000000e+03
2.600000000000e+00 0.000000000000e+00 0.000000000000e+00 4.999999982345e+04 2.017190827516e+05 1.517190829281e+05 1.000000007062e-02 9.899999999294e-01 6.749294841307e-17 -4.648902893476e-17 6.612848364024e-09 -4.554444904557e-09 
2.600000000000e+00 5.000000000000e-01 0.000000000000e+00 4.999999982348e+04 2.017190960991e+05 1.517190962756e+05 1.000000007061e-02 9.899999999294e-01 1.321587351090e-17 -1.230889818342e-17 1.293645953411e-09 -1.207805255756e-09 