 TITLE = "Time curves in points"
 VARIABLES = "TIME "  "PRESSURE1"  "PRESSURE2"  "PRESSURE_W"  "SATURATION1" SATURATION2  "VELOCITY_X1"  "VELOCITY_Y1"  "VELOCITY_X2"  "VELOCITY_Y2" 
 ZONE T="POINT=POINT0"
0.000000000000e+00 0.000000000000e+00 1.013250000000e+05 1.013250000000e+05 1.000000000000e+00 4.440892098501e-16 0.000000000000e+00 0.000000000000e+00 0.000000000000e+00 0.000000000000e+00 
1.000000000000e-03 0.000000000000e+00 1.013250000000e+05 1.013250000000e+05 1.000000000000e+00 1.332267629550e-14 -2.636024728417e-14 -7.655611261725e-15 -3.330122232014e-19 -9.138720105336e-20 
2.000000000000e-03 0.000000000000e+00 1.013250000000e+05 1.013250000000e+05 9.999999999999e-01 7.105427357601e-14 -1.206642016768e-13 -3.427611663937e-14 -1.649359545429e-18 -4.374471748157e-19 
3.000000000000e-03 0.000000000000e+00 1.013250000000e+05 1.013250000000e+05 9.999999999998e-01 2.036149027163e-13 -2.824064344166e-13 -7.928065024311e-14 -4.297485240085e-18 -1.111795576256e-18 
4.000000000000e-03 0.000000000000e+00 1.013250000000e+05 1.013250000000e+05 9.999999999996e-01 4.383160501220e-13 -5.005907267326e-13 -1.404413022099e-13 -8.526205849290e-18 -2.178236211672e-18 
5.000000000000e-03 0.000000000000e+00 1.013250000000e+05 1.013250000000e+05 9.999999999992e-01 8.024692021991e-13 -7.798011414690e-13 -2.181541174644e-13 -1.467873788265e-17 -3.705750767643e-18 
6.000000000000e-03 0.000000000000e+00 1.013250000000e+05 1.013250000000e+05 9.999999999987e-01 1.319611087069e-12 -1.100612618025e-12 -3.089615609484e-13 -2.290147289160e-17 -5.748085039061e-18 
7.000000000000e-03 0.000000000000e+00 1.013250000000e+05 1.013250000000e+05 9.999999999980e-01 2.015054789695e-12 -1.482533197842e-12 -4.155077040168e-13 -3.360950479085e-17 -8.374180459456e-18 
8.000000000000e-03 0.000000000000e+00 1.013250000000e+05 1.013250000000e+05 9.999999999971e-01 2.910338636752e-12 -1.906685996786e-12 -5.346279591271e-13 -4.692753863536e-17 -1.162504282423e-17 
9.000000000000e-03 0.000000000000e+00 1.013250000000e+05 1.013250000000e+05 9.999999999960e-01 4.026667888013e-12 -2.368828933661e-12 -6.653554737480e-13 -6.306050150487e-17 -1.555414974245e-17 
1.000000000000e-02 0.000000000000e+00 1.013250000000e+05 1.013250000000e+05 9.999999999946e-01 5.385358825549e-12 -2.884791232604e-12 -8.097069337822e-13 -8.235362572888e-17 -2.021298225371e-17 
2.000000000000e-02 0.000000000000e+00 1.013250000000e+05 1.013250000000e+05 9.999999999704e-01 2.962030620779e-11 -5.009389947704e-12 -1.418767450240e-12 -3.676639411455e-16 -8.420901437167e-17 
3.000000000000e-02 0.000000000000e+00 1.013250000000e+05 1.013250000000e+05 9.999999999358e-01 6.424083487389e-11 -7.023098597961e-12 -2.004090416756e-12 -7.565052876886e-16 -1.678124814238e-16 
4.000000000000e-02 0.000000000000e+00 1.013250000000e+05 1.013250000000e+05 9.999999998945e-01 1.055462384159e-10 -8.206048326115e-12 -2.363868941669e-12 -1.197296224189e-15 -2.581193793794e-16 
5.000000000000e-02 0.000000000000e+00 1.013250000000e+05 1.013250000000e+05 9.999999998436e-01 1.564051110847e-10 -9.960220563715e-12 -2.891497591896e-12 -1.729207086543e-15 -3.641566059063e-16 
6.000000000000e-02 0.000000000000e+00 1.013250000000e+05 1.013250000000e+05 9.999999997827e-01 2.173374813452e-10 -1.177506939754e-11 -3.445319270134e-12 -2.350668326404e-15 -4.847209272663e-16 
7.000000000000e-02 0.000000000000e+00 1.013250000000e+05 1.013250000000e+05 9.999999997112e-01 2.887636796345e-10 -1.363123514567e-11 -4.020213052569e-12 -3.062218491066e-15 -6.193067725244e-16 
8.000000000000e-02 0.000000000000e+00 1.013250000000e+05 1.013250000000e+05 9.999999996310e-01 3.689981653565e-10 -1.509127298740e-11 -4.492717277443e-12 -3.837890542716e-15 -7.613604348628e-16 
9.000000000000e-02 0.000000000000e+00 1.013250000000e+05 1.013250000000e+05 9.999999995422e-01 4.577656032012e-10 -1.646018780610e-11 -4.948580071404e-12 -4.673664912587e-15 -9.099128485096e-16 
1.000000000000e-01 0.000000000000e+00 1.013250000000e+05 1.013250000000e+05 9.999999994453e-01 5.547413639562e-10 -1.772996314957e-11 -5.385460368883e-12 -5.563266181406e-15 -1.063480899387e-15 
2.000000000000e-01 0.000000000000e+00 1.013250000000e+05 1.013250000000e+05 9.999999980399e-01 1.960129392131e-09 -2.217415792321e-11 -7.800292081563e-12 -1.523964033905e-14 -2.385560304778e-15 
3.000000000000e-01 0.000000000000e+00 1.013250000000e+05 1.013250000000e+05 9.999999963152e-01 3.684788474345e-09 -2.462934715433e-11 -9.765792570856e-12 -2.474726692177e-14 -3.531228398265e-15 
4.000000000000e-01 0.000000000000e+00 1.013250000000e+05 1.013250000000e+05 9.999999943504e-01 5.649568146637e-09 -2.604518120657e-11 -1.140521730633e-11 -3.368004528751e-14 -4.557253442733e-15 
5.000000000000e-01 0.000000000000e+00 1.013250000000e+05 1.013250000000e+05 9.999999922014e-01 7.798632961631e-09 -2.691284631885e-11 -1.278619441948e-11 -4.190926277310e-14 -5.511453730145e-15 
6.000000000000e-01 0.000000000000e+00 1.013250000000e+05 1.013250000000e+05 9.999999899083e-01 1.009173455913e-08 -2.749081775794e-11 -1.395486377576e-11 -4.943800530291e-14 -6.426591673583e-15 
7.000000000000e-01 0.000000000000e+00 1.013250000000e+05 1.013250000000e+05 9.999999875041e-01 1.249587522345e-08 -2.785814106609e-11 -1.492747076453e-11 -5.629813412348e-14 -7.318007333845e-15 
8.000000000000e-01 0.000000000000e+00 1.013250000000e+05 1.013250000000e+05 9.999999850165e-01 1.498346091644e-08 -2.806049594305e-11 -1.572155703648e-11 -6.253195934354e-14 -8.191507251306e-15 
9.000000000000e-01 0.000000000000e+00 1.013250000000e+05 1.013250000000e+05 9.999999824699e-01 1.753008971317e-08 -2.810025866319e-11 -1.634770265292e-11 -6.817537008712e-14 -9.046553073588e-15 
1.000000000000e+00 0.000000000000e+00 1.013250000000e+05 1.013250000000e+05 9.999999798788e-01 2.012124222794e-08 -2.811301991812e-11 -1.685923286350e-11 -7.331719369609e-14 -9.889462727955e-15 
2.000000000000e+00 0.000000000000e+00 1.013250000000e+05 1.013250000000e+05 9.999999538163e-01 4.618365068154e-08 -2.680529790630e-11 -1.781033896826e-11 -1.034783535487e-13 -1.683746918853e-14 
3.000000000000e+00 0.000000000000e+00 1.013250000000e+05 1.013250000000e+05 9.999999287367e-01 7.126332035590e-08 -2.526027612853e-11 -1.744573876159e-11 -1.234696587195e-13 -2.240186213888e-14 
4.000000000000e+00 0.000000000000e+00 1.013250000000e+05 1.013250000000e+05 9.999999049925e-01 9.500745079549e-08 -2.360658245438e-11 -1.662637739275e-11 -1.375466845947e-13 -2.680172334786e-14 
5.000000000000e+00 0.000000000000e+00 1.013250000000e+05 1.013250000000e+05 9.999998825917e-01 1.174083463784e-07 -2.204789707120e-11 -1.571572222170e-11 -1.479529508226e-13 -3.030678580645e-14 
6.000000000000e+00 0.000000000000e+00 1.013250000000e+05 1.013250000000e+05 9.999998614543e-01 1.385457339964e-07 -2.061944655333e-11 -1.482717658365e-11 -1.558821806206e-13 -3.312835524137e-14 
7.000000000000e+00 0.000000000000e+00 1.013250000000e+05 1.013250000000e+05 9.999998414705e-01 1.585295124062e-07 -1.932719793370e-11 -1.400146391731e-11 -1.620631644015e-13 -3.542681367495e-14 
8.000000000000e+00 0.000000000000e+00 1.013250000000e+05 1.013250000000e+05 9.999998225222e-01 1.774778377595e-07 -1.816804316496e-11 -1.325194284950e-11 -1.669767232245e-13 -3.732134481779e-14 
9.000000000000e+00 0.000000000000e+00 1.013250000000e+05 1.013250000000e+05 9.999998044920e-01 1.955080263238e-07 -1.713976687605e-11 -1.258228211280e-11 -1.709531110307e-13 -3.889985002336e-14 
1.000000000000e+01 0.000000000000e+00 1.013250000000e+05 1.013250000000e+05 9.999997872666e-01 2.127334319812e-07 -1.623546151309e-11 -1.199125708951e-11 -1.742245458764e-13 -4.022683039747e-14 
1.100000000000e+01 0.000000000000e+00 1.013250000000e+05 1.013250000000e+05 9.999997707407e-01 2.292592995445e-07 -1.544548870424e-11 -1.147468225919e-11 -1.769454293699e-13 -4.134763952824e-14 
1.200000000000e+01 0.000000000000e+00 1.013250000000e+05 1.013250000000e+05 9.999997548134e-01 2.451866090158e-07 -1.476895575353e-11 -1.103074711438e-11 -1.792253582348e-13 -4.229447879785e-14 
1.300000000000e+01 0.000000000000e+00 1.013250000000e+05 1.013250000000e+05 9.999997393855e-01 2.606145321771e-07 -1.419648078215e-11 -1.065786620367e-11 -1.811419493100e-13 -4.308958681175e-14 
1.400000000000e+01 0.000000000000e+00 1.013250000000e+05 1.013250000000e+05 9.999997243578e-01 2.756421721983e-07 -1.374061649924e-11 -1.035737851994e-11 -1.827485533125e-13 -4.374757565016e-14 
1.500000000000e+01 0.000000000000e+00 1.013250000000e+05 1.013250000000e+05 9.999997096304e-01 2.903695535128e-07 -1.338939353814e-11 -1.012945126869e-11 -1.840792512814e-13 -4.427718496753e-14 
1.600000000000e+01 0.000000000000e+00 1.013250000000e+05 1.013250000000e+05 9.999996951004e-01 3.048995556032e-07 -1.316379847250e-11 -9.977529394911e-12 -1.851570518289e-13 -4.468327944255e-14 
1.700000000000e+01 0.000000000000e+00 1.013250000000e+05 1.013250000000e+05 9.999996806618e-01 3.193381542532e-07 -1.303571337773e-11 -9.901341313318e-12 -1.859956293183e-13 -4.496795564492e-14 
1.800000000000e+01 0.000000000000e+00 1.013250000000e+05 1.013250000000e+05 9.999996662046e-01 3.337953549121e-07 -1.303989963372e-11 -9.906273214980e-12 -1.866052863529e-13 -4.513200686916e-14 
1.900000000000e+01 0.000000000000e+00 1.013250000000e+05 1.013250000000e+05 9.999996516157e-01 3.483843380447e-07 -1.316126729645e-11 -9.993251705322e-12 -1.869924405035e-13 -4.517551343078e-14 
2.000000000000e+01 0.000000000000e+00 1.013250000000e+05 1.013250000000e+05 9.999996367791e-01 3.632208525062e-07 -1.341204217895e-11 -1.016456879842e-11 -1.871627457055e-13 -4.509866628300e-14 
2.100000000000e+01 0.000000000000e+00 1.013250000000e+05 1.013250000000e+05 9.999996215785e-01 3.784214527291e-07 -1.378669975471e-11 -1.042031626112e-11 -1.871200241409e-13 -4.490197321714e-14 
2.200000000000e+01 0.000000000000e+00 1.013250000000e+05 1.013250000000e+05 9.999996058968e-01 3.941031736510e-07 -1.428488544890e-11 -1.076057202895e-11 -1.868709291431e-13 -4.458712891545e-14 
2.300000000000e+01 0.000000000000e+00 1.013250000000e+05 1.013250000000e+05 9.999995896191e-01 4.103809148059e-07 -1.490486418722e-11 -1.118373179042e-11 -1.864210858994e-13 -4.415661685545e-14 
2.400000000000e+01 0.000000000000e+00 1.013250000000e+05 1.013250000000e+05 9.999995726335e-01 4.273664873100e-07 -1.564332677440e-11 -1.168738908591e-11 -1.857781628355e-13 -4.361416578410e-14 
2.500000000000e+01 0.000000000000e+00 1.013250000000e+05 1.013250000000e+05 9.999995548332e-01 4.451668391692e-07 -1.649274205449e-11 -1.226776198653e-11 -1.849505395246e-13 -4.296453581660e-14 
2.600000000000e+01 0.000000000000e+00 1.013250000000e+05 1.013250000000e+05 9.999995361174e-01 4.638826258674e-07 -1.744552606481e-11 -1.292010799773e-11 -1.839474172928e-13 -4.221346784245e-14 
2.700000000000e+01 0.000000000000e+00 1.013250000000e+05 1.013250000000e+05 9.999995163924e-01 4.836076475945e-07 -1.849065239921e-11 -1.363889505044e-11 -1.827805138476e-13 -4.136782277921e-14 
2.800000000000e+01 0.000000000000e+00 1.013250000000e+05 1.013250000000e+05 9.999994955725e-01 5.044275255273e-07 -1.962394433271e-11 -1.441844020063e-11 -1.814621310776e-13 -4.043519644626e-14 
2.900000000000e+01 0.000000000000e+00 1.013250000000e+05 1.013250000000e+05 9.999994735813e-01 5.264187237231e-07 -2.083094055986e-11 -1.525205216349e-11 -1.800045901141e-13 -3.942369648954e-14 
3.000000000000e+01 0.000000000000e+00 1.013250000000e+05 1.013250000000e+05 9.999994503516e-01 5.496483672651e-07 -2.210344859186e-11 -1.613259709015e-11 -1.784213388253e-13 -3.834192031086e-14 
3.100000000000e+01 0.000000000000e+00 1.013250000000e+05 1.013250000000e+05 9.999994258262e-01 5.741738043907e-07 -2.343080412130e-11 -1.705315990000e-11 -1.767259675743e-13 -3.719869877925e-14 
3.200000000000e+01 0.000000000000e+00 1.013250000000e+05 1.013250000000e+05 9.999993999574e-01 6.000425667452e-07 -2.479959693547e-11 -1.800597433280e-11 -1.749322716986e-13 -3.600296893827e-14 
3.300000000000e+01 0.000000000000e+00 1.013250000000e+05 1.013250000000e+05 9.999993727076e-01 6.272923955830e-07 -2.620168484105e-11 -1.898442328634e-11 -1.730539445887e-13 -3.476362011052e-14 
3.400000000000e+01 0.000000000000e+00 1.013250000000e+05 1.013250000000e+05 9.999993440485e-01 6.559515095539e-07 -2.762315220271e-11 -1.998131759674e-11 -1.711045245399e-13 -3.348938159520e-14 
3.500000000000e+01 0.000000000000e+00 1.013250000000e+05 1.013250000000e+05 9.999993139612e-01 6.860387986585e-07 -2.906186915939e-11 -2.099036957304e-11 -1.690968596008e-13 -3.218865314876e-14 
3.600000000000e+01 0.000000000000e+00 1.013250000000e+05 1.013250000000e+05 9.999992824357e-01 7.175643346180e-07 -3.049816424091e-11 -2.200434730898e-11 -1.670432680828e-13 -3.086947440940e-14 
3.700000000000e+01 0.000000000000e+00 1.013250000000e+05 1.013250000000e+05 9.999992494701e-01 7.505298591504e-07 -3.192928398063e-11 -2.301794128486e-11 -1.649554725948e-13 -2.953944036831e-14 
3.800000000000e+01 0.000000000000e+00 1.013250000000e+05 1.013250000000e+05 9.999992150708e-01 7.849291938644e-07 -3.335093599950e-11 -2.402543336680e-11 -1.628440880293e-13 -2.820560536884e-14 
3.900000000000e+01 0.000000000000e+00 1.013250000000e+05 1.013250000000e+05 9.999991792509e-01 8.207491359880e-07 -3.474714525298e-11 -2.502130910531e-11 -1.607195703559e-13 -2.687460747158e-14 
4.000000000000e+01 0.000000000000e+00 1.013250000000e+05 1.013250000000e+05 9.999991420302e-01 8.579697816646e-07 -3.611577435317e-11 -2.600111142695e-11 -1.585912595156e-13 -2.555250752381e-14 
4.100000000000e+01 0.000000000000e+00 1.013250000000e+05 1.013250000000e+05 9.999991034348e-01 8.965651671078e-07 -3.744901808662e-11 -2.696028267954e-11 -1.564675823392e-13 -2.424481743649e-14 
4.200000000000e+01 0.000000000000e+00 1.013250000000e+05 1.013250000000e+05 9.999990634960e-01 9.365040432030e-07 -3.874230245990e-11 -2.789538670950e-11 -1.543565825664e-13 -2.295657243839e-14 
4.300000000000e+01 0.000000000000e+00 1.013250000000e+05 1.013250000000e+05 9.999990222495e-01 9.777504723640e-07 -3.999271058077e-11 -2.880305777369e-11 -1.522657433355e-13 -2.169231818385e-14 
4.400000000000e+01 0.000000000000e+00 1.013250000000e+05 1.013250000000e+05 9.999989797358e-01 1.020264202456e-06 -4.119401639474e-11 -2.967985469566e-11 -1.502012743693e-13 -2.045601723179e-14 
4.500000000000e+01 0.000000000000e+00 1.013250000000e+05 1.013250000000e+05 9.999989359986e-01 1.064001406315e-06 -4.234313454186e-11 -3.052364387468e-11 -1.481691059139e-13 -1.925122744197e-14 
4.600000000000e+01 0.000000000000e+00 1.013250000000e+05 1.013250000000e+05 9.999988910848e-01 1.108915171244e-06 -4.344029888827e-11 -3.133243378477e-11 -1.461744645945e-13 -1.808104015908e-14 
4.700000000000e+01 0.000000000000e+00 1.013250000000e+05 1.013250000000e+05 9.999988450440e-01 1.154956007499e-06 -4.447255442237e-11 -3.210364198268e-11 -1.442218071074e-13 -1.694805761780e-14 
4.800000000000e+01 0.000000000000e+00 1.013250000000e+05 1.013250000000e+05 9.999987979278e-01 1.202072192896e-06 -4.545123178130e-11 -3.283660966372e-11 -1.423145755804e-13 -1.585435769599e-14 
4.900000000000e+01 0.000000000000e+00 1.013250000000e+05 1.013250000000e+05 9.999987497894e-01 1.250210633463e-06 -4.636705225079e-11 -3.353015374270e-11 -1.404562404347e-13 -1.480172064374e-14 
5.000000000000e+01 0.000000000000e+00 1.013250000000e+05 1.013250000000e+05 9.999987006830e-01 1.299317009984e-06 -4.722136365918e-11 -3.418330990117e-11 -1.386493852897e-13 -1.379148017687e-14 
5.100000000000e+01 0.000000000000e+00 1.013250000000e+05 1.013250000000e+05 9.999986506638e-01 1.349336226419e-06 -4.801739975662e-11 -3.479605049614e-11 -1.368960796678e-13 -1.282462559037e-14 
5.200000000000e+01 0.000000000000e+00 1.013250000000e+05 1.013250000000e+05 9.999985997873e-01 1.400212663372e-06 -4.874915831200e-11 -3.536769410195e-11 -1.351977431676e-13 -1.190186664290e-14 
5.300000000000e+01 0.000000000000e+00 1.013250000000e+05 1.013250000000e+05 9.999985481093e-01 1.451890698556e-06 -4.941596293760e-11 -3.589813512767e-11 -1.335558848393e-13 -1.102366000199e-14 
5.400000000000e+01 0.000000000000e+00 1.013250000000e+05 1.013250000000e+05 9.999984956853e-01 1.504314717238e-06 -5.002365750096e-11 -3.638799846158e-11 -1.319713091612e-13 -1.019020735965e-14 
5.500000000000e+01 0.000000000000e+00 1.013250000000e+05 1.013250000000e+05 9.999984425705e-01 1.557429480270e-06 -5.057206349726e-11 -3.683726149459e-11 -1.304445150859e-13 -9.401483770209e-15 
5.600000000000e+01 0.000000000000e+00 1.013250000000e+05 1.013250000000e+05 9.999983888196e-01 1.611180410643e-06 -5.106343903087e-11 -3.724683829122e-11 -1.289756575378e-13 -8.657175964555e-15 
5.700000000000e+01 0.000000000000e+00 1.013250000000e+05 1.013250000000e+05 9.999983344861e-01 1.665513929661e-06 -5.149155808505e-11 -3.761698410383e-11 -1.275647883894e-13 -7.956852366244e-15 
5.800000000000e+01 0.000000000000e+00 1.013250000000e+05 1.013250000000e+05 9.999982796226e-01 1.720377427628e-06 -5.186617215007e-11 -3.794904047027e-11 -1.262115192354e-13 -7.299853282685e-15 
5.900000000000e+01 0.000000000000e+00 1.013250000000e+05 1.013250000000e+05 9.999982242805e-01 1.775719456809e-06 -5.218541545400e-11 -3.824370143228e-11 -1.249152136010e-13 -6.685414306258e-15 
6.000000000000e+01 0.000000000000e+00 1.013250000000e+05 1.013250000000e+05 9.999981685102e-01 1.831489790938e-06 -5.244980351245e-11 -3.850184459367e-11 -1.236750568636e-13 -6.112712449983e-15 
6.100000000000e+01 0.000000000000e+00 1.013250000000e+05 1.013250000000e+05 9.999981123604e-01 1.887639568432e-06 -5.266239657266e-11 -3.872455626544e-11 -1.224904879681e-13 -5.580921873609e-15 
6.200000000000e+01 0.000000000000e+00 1.013250000000e+05 1.013250000000e+05 9.999980558787e-01 1.944121253317e-06 -5.282550554244e-11 -3.891296299122e-11 -1.213605628287e-13 -5.089039174085e-15 
6.300000000000e+01 0.000000000000e+00 1.013250000000e+05 1.013250000000e+05 9.999979991112e-01 2.000888751796e-06 -5.293678437038e-11 -3.906768588962e-11 -1.202839600797e-13 -4.635938722032e-15 
6.400000000000e+01 0.000000000000e+00 1.013250000000e+05 1.013250000000e+05 9.999979421025e-01 2.057897546592e-06 -5.300760642281e-11 -3.919099436614e-11 -1.192595885774e-13 -4.220543965419e-15 
6.500000000000e+01 0.000000000000e+00 1.013250000000e+05 1.013250000000e+05 9.999978848952e-01 2.115104844269e-06 -5.302801157171e-11 -3.928297771178e-11 -1.182858987018e-13 -3.841512050142e-15 
6.600000000000e+01 0.000000000000e+00 1.013250000000e+05 1.013250000000e+05 9.999978275304e-01 2.172469608430e-06 -5.300901359751e-11 -3.934572176751e-11 -1.173615283096e-13 -3.497593578129e-15 
6.700000000000e+01 0.000000000000e+00 1.013250000000e+05 1.013250000000e+05 9.999977700476e-01 2.229952394295e-06 -5.295066784522e-11 -3.938036438918e-11 -1.164851225116e-13 -3.187529683636e-15 
6.800000000000e+01 0.000000000000e+00 1.013250000000e+05 1.013250000000e+05 9.999977124847e-01 2.287515330934e-06 -5.284667789647e-11 -3.938742611102e-11 -1.156551732883e-13 -2.910181726095e-15 
6.900000000000e+01 0.000000000000e+00 1.013250000000e+05 1.013250000000e+05 9.999976548780e-01 2.345121971725e-06 -5.270975736118e-11 -3.936866462038e-11 -1.148702948413e-13 -2.664336406287e-15 
7.000000000000e+01 0.000000000000e+00 1.013250000000e+05 1.013250000000e+05 9.999975972626e-01 2.402737370844e-06 -5.253735650388e-11 -3.932510461654e-11 -1.141293291171e-13 -2.448932834877e-15 
7.100000000000e+01 0.000000000000e+00 1.013250000000e+05 1.013250000000e+05 9.999975396718e-01 2.460328205611e-06 -5.233121038795e-11 -3.925773559241e-11 -1.134310584400e-13 -2.262764130009e-15 
7.200000000000e+01 0.000000000000e+00 1.013250000000e+05 1.013250000000e+05 9.999974821373e-01 2.517862716100e-06 -5.209266180562e-11 -3.916784375755e-11 -1.127737867692e-13 -2.104568513126e-15 
7.300000000000e+01 0.000000000000e+00 1.013250000000e+05 1.013250000000e+05 9.999974246892e-01 2.575310761310e-06 -5.182386574799e-11 -3.905661348063e-11 -1.121557672609e-13 -1.973017568310e-15 
7.400000000000e+01 0.000000000000e+00 1.013250000000e+05 1.013250000000e+05 9.999973673560e-01 2.632643982370e-06 -5.152439727492e-11 -3.892517003836e-11 -1.115752532340e-13 -1.866761818185e-15 
7.500000000000e+01 0.000000000000e+00 1.013250000000e+05 1.013250000000e+05 9.999973101644e-01 2.689835587377e-06 -5.120259465613e-11 -3.877521704953e-11 -1.110308705881e-13 -1.784490130802e-15 
7.600000000000e+01 0.000000000000e+00 1.013250000000e+05 1.013250000000e+05 9.999972531398e-01 2.746860241487e-06 -5.085616463589e-11 -3.860753655297e-11 -1.105210231556e-13 -1.725112628684e-15 
7.700000000000e+01 0.000000000000e+00 1.013250000000e+05 1.013250000000e+05 9.999971963061e-01 2.803693862630e-06 -5.048180311042e-11 -3.842266667582e-11 -1.100447096693e-13 -1.687618546790e-15 
7.800000000000e+01 0.000000000000e+00 1.013250000000e+05 1.013250000000e+05 9.999971396866e-01 2.860313424780e-06 -5.009220102794e-11 -3.822214884291e-11 -1.096009694106e-13 -1.671204673604e-15 
7.900000000000e+01 0.000000000000e+00 1.013250000000e+05 1.013250000000e+05 9.999970833030e-01 2.916696996147e-06 -4.967555258968e-11 -3.800590008974e-11 -1.091884101056e-13 -1.674952817656e-15 
8.000000000000e+01 0.000000000000e+00 1.013250000000e+05 1.013250000000e+05 9.999970271762e-01 2.972823822667e-06 -4.924187577362e-11 -3.777552973346e-11 -1.088062605448e-13 -1.698003335695e-15 
8.100000000000e+01 0.000000000000e+00 1.013250000000e+05 1.013250000000e+05 9.999969713255e-01 3.028674453009e-06 -4.879067019472e-11 -3.753168779415e-11 -1.084527056980e-13 -1.739148381626e-15 
8.200000000000e+01 0.000000000000e+00 1.013250000000e+05 1.013250000000e+05 9.999969157691e-01 3.084230904449e-06 -4.831953195570e-11 -3.727531095087e-11 -1.081262491182e-13 -1.797265369937e-15 
8.300000000000e+01 0.000000000000e+00 1.013250000000e+05 1.013250000000e+05 9.999968605232e-01 3.139476822067e-06 -4.783768945740e-11 -3.700804623588e-11 -1.078250583191e-13 -1.871055460003e-15 
8.400000000000e+01 0.000000000000e+00 1.013250000000e+05 1.013250000000e+05 9.999968056026e-01 3.194397379613e-06 -4.733959561544e-11 -3.673053486829e-11 -1.075473203252e-13 -1.959123814173e-15 
8.500000000000e+01 0.000000000000e+00 1.013250000000e+05 1.013250000000e+05 9.999967510209e-01 3.248979085102e-06 -4.683158458193e-11 -3.644411584740e-11 -1.072919129553e-13 -2.060442272224e-15 
8.600000000000e+01 0.000000000000e+00 1.013250000000e+05 1.013250000000e+05 9.999966967905e-01 3.303209508143e-06 -4.630840096018e-11 -3.614895891290e-11 -1.070570397080e-13 -2.174048505901e-15 
8.700000000000e+01 0.000000000000e+00 1.013250000000e+05 1.013250000000e+05 9.999966429230e-01 3.357076995725e-06 -4.577948687767e-11 -3.584632510970e-11 -1.068422264212e-13 -2.299366091749e-15 
8.800000000000e+01 0.000000000000e+00 1.013250000000e+05 1.013250000000e+05 9.999965894295e-01 3.410570547979e-06 -4.524477192999e-11 -3.553680284557e-11 -1.066469059312e-13 -2.435868115264e-15 
8.900000000000e+01 0.000000000000e+00 1.013250000000e+05 1.013250000000e+05 9.999965363201e-01 3.463679916660e-06 -4.469706703487e-11 -3.522012558597e-11 -1.064704410445e-13 -2.583012748381e-15 
9.000000000000e+01 0.000000000000e+00 1.013250000000e+05 1.013250000000e+05 9.999964836045e-01 3.516395537195e-06 -4.414114731858e-11 -3.489709170000e-11 -1.063118549293e-13 -2.740154929327e-15 
9.100000000000e+01 0.000000000000e+00 1.013250000000e+05 1.013250000000e+05 9.999964312913e-01 3.568708656254e-06 -4.358374170547e-11 -3.456884907665e-11 -1.061704019574e-13 -2.906704948028e-15 
9.200000000000e+01 0.000000000000e+00 1.013250000000e+05 1.013250000000e+05 9.999963793885e-01 3.620611479738e-06 -4.301209139985e-11 -3.423506832017e-11 -1.060446004599e-13 -3.081664073220e-15 
9.300000000000e+01 0.000000000000e+00 1.013250000000e+05 1.013250000000e+05 9.999963279028e-01 3.672097165341e-06 -4.244445199405e-11 -3.389762150048e-11 -1.059335228719e-13 -3.264360417059e-15 
9.400000000000e+01 0.000000000000e+00 1.013250000000e+05 1.013250000000e+05 9.999962768403e-01 3.723159669011e-06 -4.186794902456e-11 -3.355619053660e-11 -1.058363189791e-13 -3.454168333042e-15 
9.500000000000e+01 0.000000000000e+00 1.013250000000e+05 1.013250000000e+05 9.999962262066e-01 3.773793365025e-06 -4.128799630468e-11 -3.321128462153e-11 -1.057526293563e-13 -3.650666346495e-15 
9.600000000000e+01 0.000000000000e+00 1.013250000000e+05 1.013250000000e+05 9.999961760071e-01 3.823992859253e-06 -4.070605729850e-11 -3.286330231035e-11 -1.056821535178e-13 -3.853678752224e-15 
9.700000000000e+01 0.000000000000e+00 1.013250000000e+05 1.013250000000e+05 9.999961262471e-01 3.873752937533e-06 -4.011805341777e-11 -3.251186768182e-11 -1.056245916461e-13 -4.063058885902e-15 
9.800000000000e+01 0.000000000000e+00 1.013250000000e+05 1.013250000000e+05 9.999960769312e-01 3.923068799594e-06 -3.953346951572e-11 -3.215825057487e-11 -1.055797757265e-13 -4.278550114155e-15 
9.900000000000e+01 0.000000000000e+00 1.013250000000e+05 1.013250000000e+05 9.999960280637e-01 3.971936325842e-06 -3.894336639475e-11 -3.180194557211e-11 -1.055465925818e-13 -4.499424563305e-15 
1.000000000000e+02 0.000000000000e+00 1.013250000000e+05 1.013250000000e+05 9.999959796478e-01 4.020352169620e-06 -3.835190310729e-11 -3.144393334260e-11 -1.055240564599e-13 -4.725140596610e-15 
1.010000000000e+02 0.000000000000e+00 1.013250000000e+05 1.013250000000e+05 9.999959316862e-01 4.068313837591e-06 -3.776396540494e-11 -3.108492801259e-11 -1.055109709584e-13 -4.954804314655e-15 
1.020000000000e+02 0.000000000000e+00 1.013250000000e+05 1.013250000000e+05 9.999958841804e-01 4.115819595585e-06 -3.716848427926e-11 -3.072489187075e-11 -1.055065088509e-13 -5.187873803571e-15 
1.030000000000e+02 0.000000000000e+00 1.013250000000e+05 1.013250000000e+05 9.999958371314e-01 4.162868560087e-06 -3.657973226030e-11 -3.036512366715e-11 -1.055096319086e-13 -5.423567383236e-15 
1.040000000000e+02 0.000000000000e+00 1.013250000000e+05 1.013250000000e+05 9.999957905395e-01 4.209460517268e-06 -3.599961787980e-11 -3.000638907671e-11 -1.055193329686e-13 -5.661202109272e-15 
1.050000000000e+02 0.000000000000e+00 1.013250000000e+05 1.013250000000e+05 9.999957444043e-01 4.255595715819e-06 -3.541147476631e-11 -2.964764834650e-11 -1.055348797132e-13 -5.900381836099e-15 
1.060000000000e+02 0.000000000000e+00 1.013250000000e+05 1.013250000000e+05 9.999956987256e-01 4.301274413754e-06 -3.483230623327e-11 -2.929032972212e-11 -1.055569394397e-13 -6.141355544847e-15 
1.070000000000e+02 0.000000000000e+00 1.013250000000e+05 1.013250000000e+05 9.999956535034e-01 4.346496570884e-06 -3.425087228664e-11 -2.893311307574e-11 -1.055853133315e-13 -6.384087216510e-15 
1.080000000000e+02 0.000000000000e+00 1.013250000000e+05 1.013250000000e+05 9.999956087379e-01 4.391262083847e-06 -3.367188014058e-11 -2.857627500182e-11 -1.056205438400e-13 -6.628850721720e-15 
1.090000000000e+02 0.000000000000e+00 1.013250000000e+05 1.013250000000e+05 9.999955644289e-01 4.435571055561e-06 -3.309699944642e-11 -2.822059249038e-11 -1.056622278593e-13 -6.875277590080e-15 
1.100000000000e+02 0.000000000000e+00 1.013250000000e+05 1.013250000000e+05 9.999955205757e-01 4.479424268622e-06 -3.252465358510e-11 -2.786584551834e-11 -1.057090319940e-13 -7.122852475851e-15 
1.110000000000e+02 0.000000000000e+00 1.013250000000e+05 1.013250000000e+05 9.999954771765e-01 4.522823457753e-06 -3.195453578158e-11 -2.751284753754e-11 -1.057596767179e-13 -7.370675071711e-15 
1.120000000000e+02 0.000000000000e+00 1.013250000000e+05 1.013250000000e+05 9.999954342287e-01 4.565771291487e-06 -3.139344534190e-11 -2.716276528668e-11 -1.058129459927e-13 -7.617890757816e-15 
1.130000000000e+02 0.000000000000e+00 1.013250000000e+05 1.013250000000e+05 9.999953917286e-01 4.608271448325e-06 -3.083907391694e-11 -2.681598600366e-11 -1.058676022855e-13 -7.863634663894e-15 
1.140000000000e+02 0.000000000000e+00 1.013250000000e+05 1.013250000000e+05 9.999953496713e-01 4.650328715883e-06 -3.028686013446e-11 -2.647284915177e-11 -1.059216969943e-13 -8.106858602996e-15 
1.150000000000e+02 0.000000000000e+00 1.013250000000e+05 1.013250000000e+05 9.999953080509e-01 4.691949110347e-06 -2.974737761687e-11 -2.613495522323e-11 -1.059737705809e-13 -8.346368634682e-15 
1.160000000000e+02 0.000000000000e+00 1.013250000000e+05 1.013250000000e+05 9.999952668604e-01 4.733139620239e-06 -2.921461410395e-11 -2.580254561465e-11 -1.060223644447e-13 -8.581321454538e-15 
1.170000000000e+02 0.000000000000e+00 1.013250000000e+05 1.013250000000e+05 9.999952260925e-01 4.773907543720e-06 -2.869402613294e-11 -2.547608299275e-11 -1.060673381786e-13 -8.811612979767e-15 
1.180000000000e+02 0.000000000000e+00 1.013250000000e+05 1.013250000000e+05 9.999951857405e-01 4.814259494168e-06 -2.818169856534e-11 -2.515483185444e-11 -1.061094202951e-13 -9.037653715816e-15 
1.190000000000e+02 0.000000000000e+00 1.013250000000e+05 1.013250000000e+05 9.999951457990e-01 4.854200970406e-06 -2.767747297944e-11 -2.483823396905e-11 -1.061506734039e-13 -9.260637561857e-15 
1.200000000000e+02 0.000000000000e+00 1.013250000000e+05 1.013250000000e+05 9.999951062637e-01 4.893736258005e-06 -2.717825900524e-11 -2.452490131141e-11 -1.061923348415e-13 -9.481544340905e-15 
