 TITLE = "Profiles along polylines"
 VARIABLES = "DIST" "PRESSURE1" "PRESSURE2" "PRESSURE_W" "SATURATION1" SATURATION2 "VELOCITY_X1" "VELOCITY_Y1" "VELOCITY_X2" "VELOCITY_Y2" 
 ZONE T="TIME=0.000000000000e+00"
0.000000000000e+00 0.000000000000e+00 1.013250000000e+05 1.013250000000e+05 1.000000000000e+00 4.440892098501e-16 0.000000000000e+00 0.000000000000e+00 0.000000000000e+00 0.000000000000e+00 
5.000000000000e-02 0.000000000000e+00 1.013250000000e+05 1.013250000000e+05 1.000000000000e+00 3.330669073875e-16 0.000000000000e+00 0.000000000000e+00 0.000000000000e+00 0.000000000000e+00 
1.000000000000e-01 0.000000000000e+00 1.013250000000e+05 1.013250000000e+05 1.000000000000e+00 3.330669073875e-16 0.000000000000e+00 0.000000000000e+00 0.000000000000e+00 0.000000000000e+00 
1.500000000000e-01 0.000000000000e+00 1.013250000000e+05 1.013250000000e+05 1.000000000000e+00 3.330669073875e-16 0.000000000000e+00 0.000000000000e+00 0.000000000000e+00 0.000000000000e+00 
2.000000000000e-01 0.000000000000e+00 1.013250000000e+05 1.013250000000e+05 1.000000000000e+00 3.330669073875e-16 0.000000000000e+00 0.000000000000e+00 0.000000000000e+00 0.000000000000e+00 
2.500000000000e-01 0.000000000000e+00 1.013250000000e+05 1.013250000000e+05 1.000000000000e+00 3.330669073875e-16 0.000000000000e+00 0.000000000000e+00 0.000000000000e+00 0.000000000000e+00 
3.000000000000e-01 0.000000000000e+00 1.013250000000e+05 1.013250000000e+05 1.000000000000e+00 3.330669073875e-16 0.000000000000e+00 0.000000000000e+00 0.000000000000e+00 0.000000000000e+00 
3.500000000000e-01 0.000000000000e+00 1.013250000000e+05 1.013250000000e+05 1.000000000000e+00 3.330669073875e-16 0.000000000000e+00 0.000000000000e+00 0.000000000000e+00 0.000000000000e+00 
4.000000000000e-01 0.000000000000e+00 1.013250000000e+05 1.013250000000e+05 1.000000000000e+00 3.330669073875e-16 0.000000000000e+00 0.000000000000e+00 0.000000000000e+00 0.000000000000e+00 
4.500000000000e-01 0.000000000000e+00 1.013250000000e+05 1.013250000000e+05 1.000000000000e+00 3.330669073875e-16 0.000000000000e+00 0.000000000000e+00 0.000000000000e+00 0.000000000000e+00 
5.000000000000e-01 0.000000000000e+00 1.013250000000e+05 1.013250000000e+05 1.000000000000e+00 3.330669073875e-16 0.000000000000e+00 0.000000000000e+00 0.000000000000e+00 0.000000000000e+00 
5.500000000000e-01 0.000000000000e+00 1.013250000000e+05 1.013250000000e+05 1.000000000000e+00 3.330669073875e-16 0.000000000000e+00 0.000000000000e+00 0.000000000000e+00 0.000000000000e+00 
6.000000000000e-01 0.000000000000e+00 1.013250000000e+05 1.013250000000e+05 1.000000000000e+00 3.330669073875e-16 0.000000000000e+00 0.000000000000e+00 0.000000000000e+00 0.000000000000e+00 
6.500000000000e-01 0.000000000000e+00 1.013250000000e+05 1.013250000000e+05 1.000000000000e+00 3.330669073875e-16 0.000000000000e+00 0.000000000000e+00 0.000000000000e+00 0.000000000000e+00 
7.000000000000e-01 0.000000000000e+00 1.013250000000e+05 1.013250000000e+05 1.000000000000e+00 3.330669073875e-16 0.000000000000e+00 0.000000000000e+00 0.000000000000e+00 0.000000000000e+00 
7.500000000000e-01 0.000000000000e+00 1.013250000000e+05 1.013250000000e+05 1.000000000000e+00 3.330669073875e-16 0.000000000000e+00 0.000000000000e+00 0.000000000000e+00 0.000000000000e+00 
8.000000000000e-01 0.000000000000e+00 1.013250000000e+05 1.013250000000e+05 1.000000000000e+00 2.220446049250e-16 0.000000000000e+00 0.000000000000e+00 0.000000000000e+00 0.000000000000e+00 
8.500000000000e-01 0.000000000000e+00 1.013250000000e+05 1.013250000000e+05 1.000000000000e+00 3.330669073875e-16 0.000000000000e+00 0.000000000000e+00 0.000000000000e+00 0.000000000000e+00 
9.000000000000e-01 0.000000000000e+00 1.013250000000e+05 1.013250000000e+05 1.000000000000e+00 2.220446049250e-16 0.000000000000e+00 0.000000000000e+00 0.000000000000e+00 0.000000000000e+00 
9.500000000000e-01 0.000000000000e+00 1.013250000000e+05 1.013250000000e+05 1.000000000000e+00 3.330669073875e-16 0.000000000000e+00 0.000000000000e+00 0.000000000000e+00 0.000000000000e+00 
1.000000000000e+00 0.000000000000e+00 1.013250000000e+05 1.013250000000e+05 1.000000000000e+00 4.440892098501e-16 0.000000000000e+00 0.000000000000e+00 0.000000000000e+00 0.000000000000e+00 
 TITLE = "Profiles along polylines"
 VARIABLES = "DIST" "PRESSURE1" "PRESSURE2" "PRESSURE_W" "SATURATION1" SATURATION2 "VELOCITY_X1" "VELOCITY_Y1" "VELOCITY_X2" "VELOCITY_Y2" 
 ZONE T="TIME=1.000000000000e-03"
0.000000000000e+00 0.000000000000e+00 1.013250000000e+05 1.013250000000e+05 1.000000000000e+00 1.332267629550e-14 -2.636024728417e-14 -7.655611261725e-15 -3.330122232014e-19 -9.138720105336e-20 
5.000000000000e-02 1.737273734799e-07 1.013185503712e+05 1.013185503710e+05 9.999999999999e-01 6.095124405192e-14 -5.620642332360e-14 3.491927054710e-14 -6.398286111235e-19 2.359772139424e-19 
1.000000000000e-01 1.706102980226e-07 1.013121007404e+05 1.013121007403e+05 9.999999999999e-01 6.483702463811e-14 -4.901317879557e-14 -3.757554804906e-14 -3.300096241168e-19 -2.570117600196e-19 
1.500000000000e-01 1.676204374485e-07 1.013056511079e+05 1.013056511077e+05 9.999999999999e-01 6.394884621841e-14 -3.657914930954e-14 -3.079825546592e-14 -2.469728162397e-19 -2.146180433349e-19 
2.000000000000e-01 1.660301360672e-07 1.012992014736e+05 1.012992014735e+05 9.999999999999e-01 6.328271240363e-14 -3.412691876292e-14 -3.978522727265e-14 -2.330915772965e-19 -2.775899403495e-19 
2.500000000000e-01 1.663777438205e-07 1.012927518377e+05 1.012927518376e+05 9.999999999999e-01 6.317169010117e-14 -2.264999784529e-14 -3.589183324947e-14 -1.537131104882e-19 -2.487606723991e-19 
3.000000000000e-01 1.662228057398e-07 1.012863022000e+05 1.012863021999e+05 9.999999999999e-01 6.317169010117e-14 -3.950495738536e-14 -4.293158417567e-14 -2.696994876443e-19 -2.951958124698e-19 
3.500000000000e-01 1.650192636965e-07 1.012798525607e+05 1.012798525605e+05 9.999999999999e-01 6.283862319378e-14 -4.341721069067e-14 -5.138420965522e-14 -2.933165298297e-19 -3.512774187858e-19 
4.000000000000e-01 1.654381607441e-07 1.012734029195e+05 1.012734029193e+05 9.999999999999e-01 6.328271240363e-14 -9.467097697778e-14 -9.508483344688e-14 -6.383656302275e-19 -6.547647372147e-19 
4.500000000000e-01 1.698100663119e-07 1.012669532762e+05 1.012669532760e+05 9.999999999999e-01 6.450395773072e-14 -2.690947148949e-13 -2.576361293904e-13 -1.801050639954e-18 -1.733366940904e-18 
5.000000000000e-01 1.681033398061e-07 1.012605036296e+05 1.012605036294e+05 9.999999999999e-01 6.383782391595e-14 -6.668060668743e-13 -9.810106130316e-13 -4.459169662664e-18 -6.557491849503e-18 
5.500000000000e-01 1.702233342880e-07 1.012540539745e+05 1.012540539744e+05 9.999999999999e-01 6.494804694057e-14 -4.228156234603e-12 -3.837704658508e-12 -2.827668411406e-17 -2.566694537740e-17 
6.000000000000e-01 1.752814232468e-07 1.012476042823e+05 1.012476042821e+05 9.999999999999e-01 6.639133687258e-14 -2.373073896160e-11 -1.862061320571e-11 -1.586540041267e-16 -1.244917337890e-16 
6.500000000000e-01 1.704886246877e-07 1.012411543968e+05 1.012411543966e+05 9.999999999999e-01 6.494804694057e-14 -1.257391171530e-10 -1.021238886751e-10 -8.405776930724e-16 -6.827000221801e-16 
7.000000000000e-01 1.781126640587e-07 1.012347035303e+05 1.012347035301e+05 9.999999999999e-01 6.739053759475e-14 -6.389505221158e-10 -5.658267338876e-10 -4.271165157148e-15 -3.782350616484e-15 
7.500000000000e-01 1.798017398560e-07 1.012282476881e+05 1.012282476879e+05 9.999999999999e-01 6.805667140952e-14 -3.693467013188e-09 -2.585349624627e-09 -2.468798680269e-14 -1.728107424261e-14 
8.000000000000e-01 1.789381574807e-07 1.012217660816e+05 1.012217660815e+05 9.999999999999e-01 6.794564910706e-14 -2.127156437857e-08 -1.988226995775e-08 -1.421741494199e-13 -1.328883726758e-13 
8.500000000000e-01 2.034569356537e-07 1.012151840802e+05 1.012151840800e+05 9.999999999999e-01 1.226796442211e-13 -5.280633408819e-08 -3.877850347221e-08 -3.529261898914e-13 -2.591736168138e-13 
9.000000000000e-01 3.586528145381e-06 1.012082892855e+05 1.012082892819e+05 9.999999999093e-01 9.072120832343e-11 -2.288295378279e-07 -1.143341194654e-07 -1.525612793969e-12 -7.603764779862e-13 
9.500000000000e-01 1.668453827041e-02 1.012000076126e+05 1.011999909280e+05 9.999991859379e-01 8.140620797459e-07 -8.660550098841e-07 9.203993837067e-07 1.836232907033e-11 3.011631625330e-11 
1.000000000000e+00 1.139465028410e+02 1.013250000000e+05 1.012110534972e+05 9.999652851093e-01 3.471489070694e-05 9.297665847773e-06 1.109358916920e-05 4.648944559320e-11 5.985754475809e-11 
 TITLE = "Profiles along polylines"
 VARIABLES = "DIST" "PRESSURE1" "PRESSURE2" "PRESSURE_W" "SATURATION1" SATURATION2 "VELOCITY_X1" "VELOCITY_Y1" "VELOCITY_X2" "VELOCITY_Y2" 
 ZONE T="TIME=5.000000000000e+00"
0.000000000000e+00 0.000000000000e+00 1.013250000000e+05 1.013250000000e+05 9.999998825917e-01 1.174083463784e-07 -2.204789707120e-11 -1.571572222170e-11 -1.479529508226e-13 -3.030678580645e-14 
5.000000000000e-02 1.952616096190e+00 1.009102931531e+05 1.009083405370e+05 9.999993105660e-01 6.894339570351e-07 -8.753880511001e-11 3.742001353443e-11 -2.626530195217e-13 1.727134452422e-13 
1.000000000000e-01 2.923032061090e+00 1.004946003516e+05 1.004916773196e+05 9.999989031772e-01 1.096822766500e-06 -1.847488156554e-10 -1.274765399505e-10 -1.044160056058e-13 -8.256100008980e-14 
1.500000000000e-01 3.373517262588e+00 1.000783810245e+05 1.000750075072e+05 9.999987264894e-01 1.273510574107e-06 -1.875560318039e-10 -1.404326814770e-10 -3.554069952435e-14 -3.553934510821e-14 
2.000000000000e-01 3.572146039323e+00 9.966190165069e+04 9.965832950465e+04 9.999986481530e-01 1.351846971254e-06 -1.775442167669e-10 -1.992441927469e-10 -1.820333226747e-14 -1.800161274546e-14 
2.500000000000e-01 3.664272247047e+00 9.924530697242e+04 9.924164270018e+04 9.999986120142e-01 1.387985810841e-06 -1.428042182678e-10 -2.064037629445e-10 -5.498012171698e-15 -8.227217623665e-15 
3.000000000000e-01 3.711635806276e+00 9.882865784175e+04 9.882494620595e+04 9.999985934393e-01 1.406560717454e-06 -2.106731274264e-10 -2.353674332559e-10 -2.922581880390e-15 -3.434413058675e-15 
3.500000000000e-01 3.747996863178e+00 9.841198816305e+04 9.840824016619e+04 9.999985791575e-01 1.420842482669e-06 -1.758779132122e-10 -2.499560263730e-10 8.197877803741e-16 1.426303822332e-15 
4.000000000000e-01 3.797338027943e+00 9.799532154686e+04 9.799152420883e+04 9.999985598207e-01 1.440179337897e-06 -2.569604399828e-10 -2.563355774181e-10 8.517549680446e-15 6.379985814567e-15 
4.500000000000e-01 3.899903127902e+00 9.757869819541e+04 9.757479829228e+04 9.999985192733e-01 1.480726725678e-06 -3.092649963936e-10 -1.873103874399e-10 2.687746797780e-14 1.908555777732e-14 
5.000000000000e-01 4.159358422189e+00 9.716222128046e+04 9.715806192204e+04 9.999984156982e-01 1.584301808411e-06 -2.626990550876e-10 -1.796110756500e-10 6.983141117618e-14 3.547268023686e-14 
5.500000000000e-01 4.895106301154e+00 9.674620780499e+04 9.674131269869e+04 9.999981259331e-01 1.874066895780e-06 -3.534358213225e-10 -3.948125254624e-10 1.597992238731e-13 1.967561007302e-13 
6.000000000000e-01 6.900237572156e+00 9.633144706701e+04 9.632454682944e+04 9.999973281677e-01 2.671832258327e-06 -5.842477881405e-10 -6.264373119918e-10 4.683712774174e-13 4.641746074811e-13 
6.500000000000e-01 1.241777299990e+01 9.592016961890e+04 9.590775184590e+04 9.999951533893e-01 4.846610691001e-06 -1.470565095974e-09 -1.643655872162e-09 1.433754382033e-12 1.596435822535e-12 
7.000000000000e-01 2.711094783939e+01 9.551800788215e+04 9.549089693431e+04 9.999893763863e-01 1.062361366644e-05 -3.005113276259e-09 -4.836822173986e-09 3.244030301466e-12 5.133024630361e-12 
7.500000000000e-01 6.332815480145e+01 9.513724325870e+04 9.507391510390e+04 9.999751379174e-01 2.486208263042e-05 -7.072539190567e-09 -8.952160242473e-09 7.992402894606e-12 9.591649493480e-12 
8.000000000000e-01 1.517810844549e+02 9.480841954991e+04 9.465663846546e+04 9.999367895709e-01 6.321042906543e-05 -2.019100120749e-08 -3.172543480104e-08 2.326083980489e-11 3.261548997119e-11 
8.500000000000e-01 3.546493892402e+02 9.459337486954e+04 9.423872548030e+04 9.998639202630e-01 1.360797370347e-04 -3.736904553763e-08 -7.477544377916e-08 4.635704945493e-11 7.339466893832e-11 
9.000000000000e-01 7.486324527690e+02 9.456838022564e+04 9.381974777287e+04 9.997331121141e-01 2.668878858524e-04 -1.063380320989e-07 -2.017131078182e-07 1.333100836155e-10 1.798336402646e-10 
9.500000000000e-01 1.844306385828e+03 9.524113745421e+04 9.339683106838e+04 9.979560553108e-01 2.043944689187e-03 -1.041556282108e-06 -3.765558594428e-07 1.215778873516e-09 1.038317064539e-10 
1.000000000000e+00 8.380026542411e+03 1.013250000000e+05 9.294497345759e+04 9.582183550857e-01 4.178164491429e-02 -1.603475906897e-06 -1.090972810226e-06 2.624811763453e-09 1.200170972570e-09 
 TITLE = "Profiles along polylines"
 VARIABLES = "DIST" "PRESSURE1" "PRESSURE2" "PRESSURE_W" "SATURATION1" SATURATION2 "VELOCITY_X1" "VELOCITY_Y1" "VELOCITY_X2" "VELOCITY_Y2" 
 ZONE T="TIME=1.000000000000e+01"
0.000000000000e+00 0.000000000000e+00 1.013250000000e+05 1.013250000000e+05 9.999997872666e-01 2.127334319812e-07 -1.623546151309e-11 -1.199125708951e-11 -1.742245458764e-13 -4.022683039747e-14 
5.000000000000e-02 3.568164619608e+00 1.008877314817e+05 1.008841633171e+05 9.999987300790e-01 1.269921014679e-06 -6.892915288815e-11 2.508675912739e-11 -3.255703179707e-13 2.114695779594e-13 
1.000000000000e-01 5.813296842463e+00 1.004491370436e+05 1.004433237468e+05 9.999978178755e-01 2.182124492878e-06 -1.548799019529e-10 -1.068847081570e-10 -1.763211037215e-13 -1.334441241864e-13 
1.500000000000e-01 7.159170424986e+00 1.000096377895e+05 1.000024786191e+05 9.999972989626e-01 2.701037411179e-06 -1.758619334549e-10 -1.290562756182e-10 -7.892988238665e-14 -7.206533281478e-14 
2.000000000000e-01 7.941398613270e+00 9.956956733161e+04 9.956162593300e+04 9.999969962275e-01 3.003772481858e-06 -1.760020871283e-10 -2.002197730265e-10 -4.640481489667e-14 -4.615829272276e-14 
2.500000000000e-01 8.423758788882e+00 9.912918818579e+04 9.912076442700e+04 9.999968095994e-01 3.190400550857e-06 -1.556783433510e-10 -2.227371360234e-10 -1.061569301366e-14 -1.826147413054e-14 
3.000000000000e-01 8.787665517114e+00 9.868868014377e+04 9.867989247826e+04 9.999966680164e-01 3.331983554289e-06 -2.481540013700e-10 -2.761299839295e-10 1.188849749180e-14 1.182841948736e-14 
3.500000000000e-01 9.233159865027e+00 9.824824251130e+04 9.823900935144e+04 9.999964923945e-01 3.507605531472e-06 -2.351074358171e-10 -3.420010605170e-10 4.641696885470e-14 7.592638795069e-14 
4.000000000000e-01 1.006458193636e+01 9.780817769918e+04 9.779811311724e+04 9.999961687292e-01 3.831270808941e-06 -4.173418306377e-10 -4.001081175887e-10 1.632631759338e-13 1.415932657979e-13 
4.500000000000e-01 1.181772726432e+01 9.736901879451e+04 9.735720106725e+04 9.999954868497e-01 4.513150278052e-06 -6.261541835751e-10 -3.985245757922e-10 3.608764290066e-13 2.445476929524e-13 
5.000000000000e-01 1.558279728780e+01 9.693185016973e+04 9.691626737245e+04 9.999940185239e-01 5.981476116523e-06 -7.481273797612e-10 -4.581067105922e-10 6.132963580233e-13 3.418990436490e-13 
5.500000000000e-01 2.386247864997e+01 9.649916024077e+04 9.647529776212e+04 9.999908332254e-01 9.166774636804e-06 -1.188872138312e-09 -1.364018180342e-09 1.109994328199e-12 1.303738078165e-12 
6.000000000000e-01 4.085061933052e+01 9.607512077817e+04 9.603427015884e+04 9.999842453400e-01 1.575465998283e-05 -2.036937103082e-09 -2.134271399180e-09 2.140253994493e-12 2.201475983644e-12 
6.500000000000e-01 7.501721793996e+01 9.566815577700e+04 9.559313855906e+04 9.999710911966e-01 2.890880339346e-05 -4.321367059664e-09 -4.549865103809e-09 4.728075122753e-12 4.972157838033e-12 
7.000000000000e-01 1.403269715330e+02 9.529215473755e+04 9.515182776601e+04 9.999459287247e-01 5.407127533352e-05 -6.700928414734e-09 -9.531669442534e-09 7.531558430497e-12 1.065862816098e-11 
7.500000000000e-01 2.565563042615e+02 9.496678818973e+04 9.471023188547e+04 9.999012997856e-01 9.870021435987e-05 -1.004754136125e-08 -1.120835206528e-08 1.158431502239e-11 1.261231066517e-11 
8.000000000000e-01 4.553472414549e+02 9.472352872429e+04 9.426818148283e+04 9.998184800007e-01 1.815199993448e-04 -2.240067244035e-08 -2.980946811567e-08 2.680040360987e-11 3.330788798000e-11 
8.500000000000e-01 7.815991680282e+02 9.460703617118e+04 9.382543700315e+04 9.997079399636e-01 2.920600363889e-04 -5.344299303650e-08 -7.253363566127e-08 6.545108413141e-11 7.932387064065e-11 
9.000000000000e-01 1.289742302528e+03 9.467145546921e+04 9.338171316669e+04 9.991393791594e-01 8.606208405537e-04 -1.176354483047e-07 -1.745148722128e-07 1.460342267183e-10 1.855035589959e-10 
9.500000000000e-01 2.812611416658e+03 9.574514177180e+04 9.293253035514e+04 9.949985089091e-01 5.001491090928e-03 -8.281210041161e-07 -1.354017209837e-07 9.422391301756e-10 -1.600080949535e-11 
1.000000000000e+00 8.866543926217e+03 1.013250000000e+05 9.245845607378e+04 9.480572535488e-01 5.194274645123e-02 -1.509205980111e-06 -7.989418010347e-07 2.032612116200e-09 8.043421262520e-10 
 TITLE = "Profiles along polylines"
 VARIABLES = "DIST" "PRESSURE1" "PRESSURE2" "PRESSURE_W" "SATURATION1" SATURATION2 "VELOCITY_X1" "VELOCITY_Y1" "VELOCITY_X2" "VELOCITY_Y2" 
 ZONE T="TIME=2.000000000000e+01"
0.000000000000e+00 0.000000000000e+00 1.013250000000e+05 1.013250000000e+05 9.999996367791e-01 3.632208525062e-07 -1.341204217895e-11 -1.016456879842e-11 -1.871627457055e-13 -4.509866628300e-14 
5.000000000000e-02 6.127860297937e+00 1.008765637103e+05 1.008704358500e+05 9.999978032071e-01 2.196792895370e-06 -6.025891867633e-11 1.846487100880e-11 -3.559886984472e-13 2.312820015328e-13 
1.000000000000e-01 1.076652142068e+01 1.004266357526e+05 1.004158692312e+05 9.999959506790e-01 4.049321039701e-06 -1.456923306300e-10 -1.017580390334e-10 -2.048376172749e-13 -1.522366846478e-13 
1.500000000000e-01 1.435427050947e+01 9.997565165055e+04 9.996129738004e+04 9.999945767660e-01 5.423234019530e-06 -1.951572891113e-10 -1.399555727182e-10 -6.980623789229e-14 -6.994827773064e-14 
2.000000000000e-01 1.738893140133e+01 9.952410632820e+04 9.950671739680e+04 9.999934116030e-01 6.588397032381e-06 -2.234947188956e-10 -2.629730142646e-10 -2.001320772986e-15 1.503432172671e-14 
2.500000000000e-01 2.049509080726e+01 9.907262114619e+04 9.905212605539e+04 9.999922164970e-01 7.783502970371e-06 -2.610089040056e-10 -3.592701227975e-10 1.056506842062e-13 1.309889316992e-13 
3.000000000000e-01 2.451416187505e+01 9.862203227815e+04 9.859751811627e+04 9.999906726876e-01 9.327312367691e-06 -5.098179795435e-10 -5.605883450715e-10 3.104344425795e-13 3.362238447480e-13 
3.500000000000e-01 3.062716892612e+01 9.817351472663e+04 9.814288755771e+04 9.999882998267e-01 1.170017331020e-05 -6.021805585539e-10 -9.009331355149e-10 4.716004537461e-13 7.269384402336e-13 
4.000000000000e-01 4.076304188804e+01 9.772898673238e+04 9.768822369050e+04 9.999844246274e-01 1.557537255170e-05 -1.245959494568e-09 -1.176999495554e-09 1.133059071823e-12 1.051018363364e-12 
4.500000000000e-01 5.749204608034e+01 9.729100496426e+04 9.723351291818e+04 9.999780353499e-01 2.196465014481e-05 -1.923247045066e-09 -1.226131424664e-09 1.885192209497e-12 1.218611202168e-12 
5.000000000000e-01 8.460562457439e+01 9.686334062552e+04 9.677873500095e+04 9.999676610658e-01 3.233893422849e-05 -2.050805703866e-09 -1.315817010806e-09 2.151786781658e-12 1.351258991406e-12 
5.500000000000e-01 1.285803216678e+02 9.645243489980e+04 9.632385457813e+04 9.999509909385e-01 4.900906149419e-05 -2.851027398873e-09 -3.158488407047e-09 3.076240487976e-12 3.429923779501e-12 
6.000000000000e-01 1.959103204605e+02 9.606474807264e+04 9.586883775218e+04 9.999252776314e-01 7.472236859296e-05 -3.534431559041e-09 -3.962093338261e-09 3.926096797286e-12 4.380397350904e-12 
6.500000000000e-01 2.964704504396e+02 9.571010234982e+04 9.541363189938e+04 9.998870130132e-01 1.129869867560e-04 -5.776351339780e-09 -5.978494502221e-09 6.504070739331e-12 6.734564306535e-12 
7.000000000000e-01 4.405254212796e+02 9.539870854810e+04 9.495818312682e+04 9.998320454930e-01 1.679545069898e-04 -6.582869836348e-09 -8.938458294516e-09 7.507654288842e-12 1.018587835633e-11 
7.500000000000e-01 6.369565807948e+02 9.513940238508e+04 9.450244580429e+04 9.997574470633e-01 2.425529367408e-04 -5.413506306522e-09 -7.449545765172e-09 6.352525106025e-12 8.612459639898e-12 
8.000000000000e-01 8.927725236226e+02 9.493915802816e+04 9.404638550453e+04 9.996598125787e-01 3.401874213057e-04 -2.490395086065e-08 -2.976479944786e-08 2.994625402837e-11 3.500198788801e-11 
8.500000000000e-01 1.301995229794e+03 9.489149688638e+04 9.358950165658e+04 9.990526522402e-01 9.473477598014e-04 -6.539170947426e-08 -7.647220399617e-08 7.870253374474e-11 8.923050530428e-11 
9.000000000000e-01 2.095372715494e+03 9.522594367704e+04 9.313057096155e+04 9.976444905601e-01 2.355509439872e-03 -1.051680084008e-07 -1.366632014631e-07 1.284830322701e-10 1.627298041537e-10 
9.500000000000e-01 3.956718024947e+03 9.662271031675e+04 9.266599229180e+04 9.889783797353e-01 1.102162026471e-02 -5.345952007799e-07 1.916055886173e-08 5.946838621606e-10 -7.274691185617e-11 
1.000000000000e+00 9.142097445713e+03 1.013250000000e+05 9.218290255429e+04 9.389900544450e-01 6.100994555504e-02 -9.828292138988e-07 -3.701930773618e-07 1.252317026074e-09 4.222379648039e-10 
 TITLE = "Profiles along polylines"
 VARIABLES = "DIST" "PRESSURE1" "PRESSURE2" "PRESSURE_W" "SATURATION1" SATURATION2 "VELOCITY_X1" "VELOCITY_Y1" "VELOCITY_X2" "VELOCITY_Y2" 
 ZONE T="TIME=3.000000000000e+01"
0.000000000000e+00 0.000000000000e+00 1.013250000000e+05 1.013250000000e+05 9.999994503516e-01 5.496483672651e-07 -2.210344859186e-11 -1.613259709015e-11 -1.784213388253e-13 -3.834192031086e-14 
5.000000000000e-02 9.306961902056e+00 1.008737934380e+05 1.008644864761e+05 9.999966437908e-01 3.356209198779e-06 -9.793774164695e-11 2.839142580900e-11 -3.141378355103e-13 2.215832905889e-13 
1.000000000000e-01 1.737485816781e+01 1.004213438830e+05 1.004039690248e+05 9.999934473613e-01 6.552638709634e-06 -2.390399952263e-10 -1.677894166593e-10 -9.490316332186e-14 -7.423139459358e-14 
1.500000000000e-01 2.499141457548e+01 9.996843440196e+04 9.994344298738e+04 9.999905358318e-01 9.464168243212e-06 -3.394251446967e-10 -2.417352488288e-10 1.026914527291e-13 5.149783042069e-14 
2.000000000000e-01 3.312277756503e+01 9.951602571912e+04 9.948290294155e+04 9.999874243638e-01 1.257563624535e-05 -4.002933705129e-10 -4.753804847987e-10 2.100836508218e-13 2.697273665044e-13 
2.500000000000e-01 4.300035408910e+01 9.906534276299e+04 9.902234240890e+04 9.999836406011e-01 1.635939888922e-05 -4.802821561525e-10 -6.619546461848e-10 3.693560232856e-13 4.945559776442e-13 
3.000000000000e-01 5.638557130126e+01 9.861813680653e+04 9.856175123523e+04 9.999785325241e-01 2.146747593923e-05 -9.276630954133e-10 -1.020526187803e-09 8.136107145869e-13 8.902681677839e-13 
3.500000000000e-01 7.533503799200e+01 9.817645380930e+04 9.810111877131e+04 9.999712315341e-01 2.876846591759e-05 -1.034884653763e-09 -1.529432446191e-09 9.924674282827e-13 1.485999505713e-12 
4.000000000000e-01 1.028664007793e+02 9.774329501882e+04 9.764042861804e+04 9.999607745311e-01 3.922546887847e-05 -1.968014134045e-09 -1.891291398670e-09 2.005842723344e-12 1.914668897128e-12 
4.500000000000e-01 1.422493300918e+02 9.732191296395e+04 9.717966363386e+04 9.999458241409e-01 5.417585914569e-05 -2.777009251673e-09 -1.737423835944e-09 2.922911610413e-12 1.841426904058e-12 
5.000000000000e-01 1.975413789748e+02 9.691634382790e+04 9.671880244892e+04 9.999247916350e-01 7.520836502739e-05 -2.562409084753e-09 -1.728198176753e-09 2.785989897319e-12 1.857430377938e-12 
5.500000000000e-01 2.749960252147e+02 9.653280740698e+04 9.625781138177e+04 9.998955309405e-01 1.044690595257e-04 -3.225923975316e-09 -3.493676358402e-09 3.560002144784e-12 3.871303146187e-12 
6.000000000000e-01 3.788847443597e+02 9.617555365843e+04 9.579666891407e+04 9.998560036105e-01 1.439963895298e-04 -3.359304726457e-09 -3.955114834541e-09 3.770890200213e-12 4.429622097456e-12 
6.500000000000e-01 5.154383298249e+02 9.585078087111e+04 9.533534254128e+04 9.998041570539e-01 1.958429461492e-04 -4.794862131923e-09 -5.135558350188e-09 5.430969807844e-12 5.829030291355e-12 
7.000000000000e-01 6.893246248940e+02 9.556313343974e+04 9.487380881484e+04 9.997379301979e-01 2.620698021194e-04 -4.118511844011e-09 -6.752199188532e-09 4.696538907538e-12 7.744311375208e-12 
7.500000000000e-01 9.023275797958e+02 9.531438783926e+04 9.441206025946e+04 9.996631381869e-01 3.368618130710e-04 -8.510329509610e-09 -1.498157280906e-08 9.897007927539e-12 1.752745369589e-11 
8.000000000000e-01 1.196472802916e+03 9.514634625127e+04 9.394987344836e+04 9.991875230219e-01 8.124769781447e-04 -3.016375190106e-08 -3.493867662046e-08 3.612537552288e-11 4.141723558571e-11 
8.500000000000e-01 1.755282547836e+03 9.524155646745e+04 9.348627391961e+04 9.982497407501e-01 1.750259249911e-03 -7.354788926739e-08 -7.708457217475e-08 8.877560503874e-11 9.174867575456e-11 
9.000000000000e-01 2.674634482114e+03 9.569540166706e+04 9.302076718494e+04 9.959340169421e-01 4.065983057880e-03 -1.063430669865e-07 -1.284463840470e-07 1.298899353841e-10 1.557906480125e-10 
9.500000000000e-01 4.680032483504e+03 9.722955599856e+04 9.254952351506e+04 9.836841691899e-01 1.631583081009e-02 -3.836665139793e-07 1.626041370506e-09 4.290559445632e-10 -3.150351476280e-11 
1.000000000000e+00 9.261209804369e+03 1.013250000000e+05 9.206379019563e+04 9.339774847006e-01 6.602251529944e-02 -6.635434254290e-07 -2.410273451091e-07 8.337686311470e-10 2.714858862852e-10 
 TITLE = "Profiles along polylines"
 VARIABLES = "DIST" "PRESSURE1" "PRESSURE2" "PRESSURE_W" "SATURATION1" SATURATION2 "VELOCITY_X1" "VELOCITY_Y1" "VELOCITY_X2" "VELOCITY_Y2" 
 ZONE T="TIME=6.000000000000e+01"
0.000000000000e+00 0.000000000000e+00 1.013250000000e+05 1.013250000000e+05 9.999981685102e-01 1.831489790938e-06 -5.244980351245e-11 -3.850184459367e-11 -1.236750568636e-13 -6.112712449983e-15 
5.000000000000e-02 3.116398167957e+01 1.008873411583e+05 1.008561771766e+05 9.999886812305e-01 1.131876954386e-05 -2.303412038781e-10 7.140128795026e-11 -1.160859882724e-13 1.474639834010e-13 
1.000000000000e-01 6.224989825176e+01 1.004495949120e+05 1.003873450138e+05 9.999764770297e-01 2.352297031705e-05 -5.458416067768e-10 -3.795639162709e-10 3.105540136692e-13 2.075915291004e-13 
1.500000000000e-01 9.509076418100e+01 1.000135839884e+05 9.991849322418e+04 9.999639690364e-01 3.603096359717e-05 -7.147396386001e-10 -5.140246300396e-10 5.861688604549e-13 4.034982407075e-13 
2.000000000000e-01 1.315804306854e+02 9.958119188506e+04 9.944961145437e+04 9.999500720975e-01 4.992790253910e-05 -7.823605337498e-10 -9.140504951445e-10 6.997378825882e-13 8.309138753938e-13 
2.500000000000e-01 1.736050626864e+02 9.915429487025e+04 9.898068980757e+04 9.999340637393e-01 6.593626071238e-05 -8.070610097383e-10 -1.138717599996e-09 7.887262673249e-13 1.104629619072e-12 
3.000000000000e-01 2.235715807254e+02 9.873528650506e+04 9.851171492433e+04 9.999150930437e-01 8.490695632934e-05 -1.391131422702e-09 -1.541061881533e-09 1.413772679162e-12 1.563753888917e-12 
3.500000000000e-01 2.833306110310e+02 9.832600810684e+04 9.804267749581e+04 9.998922131765e-01 1.077868235493e-04 -1.334229465396e-09 -1.925603046168e-09 1.393112386979e-12 2.022182262825e-12 
4.000000000000e-01 3.552524631241e+02 9.792881743379e+04 9.757356497067e+04 9.998650285310e-01 1.349714689965e-04 -2.168346489938e-09 -2.137558193895e-09 2.316481950893e-12 2.279002388016e-12 
4.500000000000e-01 4.410591127680e+02 9.754542793621e+04 9.710436882344e+04 9.998325990814e-01 1.674009185948e-04 -2.691509503570e-09 -1.636758356879e-09 2.913142154788e-12 1.777710448750e-12 
5.000000000000e-01 5.424068509514e+02 9.717748773422e+04 9.663508088327e+04 9.997942041872e-01 2.057958127583e-04 -2.075468938855e-09 -1.491157935777e-09 2.280353558587e-12 1.628716266991e-12 
5.500000000000e-01 6.619659358125e+02 9.682765305141e+04 9.616568711560e+04 9.997491020424e-01 2.508979575785e-04 -2.347109088332e-09 -2.458223158830e-09 2.599411608385e-12 2.731011393387e-12 
6.000000000000e-01 8.000191915882e+02 9.649620653090e+04 9.569618733931e+04 9.996966839993e-01 3.033160007330e-04 -2.372724153028e-09 -2.661301026718e-09 2.657117795071e-12 2.980869578830e-12 
6.500000000000e-01 9.583184196013e+02 9.618489130832e+04 9.522657288872e+04 9.996376302097e-01 3.623697902810e-04 -8.246603557614e-09 -8.560457661929e-09 9.527422416709e-12 9.940172406584e-12 
7.000000000000e-01 1.159799660319e+03 9.591652210406e+04 9.475672244374e+04 9.993220376800e-01 6.779623200277e-04 -1.390576759256e-08 -1.874509177708e-08 1.630048018096e-11 2.206460313372e-11 
7.500000000000e-01 1.479453882347e+03 9.576569094023e+04 9.428623705788e+04 9.987411190694e-01 1.258880930587e-03 -1.771007383390e-08 -1.812094080058e-08 2.093199091529e-11 2.156876075808e-11 
8.000000000000e-01 1.960929749185e+03 9.577582006020e+04 9.381489031102e+04 9.978183378607e-01 2.181662139289e-03 -3.264640807570e-08 -3.335000983470e-08 3.954771113127e-11 4.039220740814e-11 
8.500000000000e-01 2.674354359319e+03 9.601667909536e+04 9.334232473604e+04 9.957548102108e-01 4.245189789206e-03 -7.464060755891e-08 -7.415418772290e-08 9.164313986038e-11 9.046457143530e-11 
9.000000000000e-01 3.770392040584e+03 9.663814815898e+04 9.286775611840e+04 9.907525935206e-01 9.247406479397e-03 -9.389794757013e-08 -1.026036931870e-07 1.154667250506e-10 1.256866179105e-10 
9.500000000000e-01 5.865108935110e+03 9.825297246383e+04 9.238786352872e+04 9.722106033198e-01 2.778939668019e-02 -2.024890341497e-07 -2.625786728949e-08 2.306194264655e-10 1.528992784886e-11 
1.000000000000e+00 9.425473279159e+03 1.013250000000e+05 9.189952672084e+04 9.262372774134e-01 7.376272258656e-02 -2.957953454871e-07 -1.154173208570e-07 3.635739557512e-10 1.170280171013e-10 
 ZONE T="TIME=1.200000000000e+02"