 TITLE = "Time curves in points"
 VARIABLES = "TIME "  "PRESSURE1"  "PRESSURE2"  "PRESSURE_W"  "SATURATION1" SATURATION2  "VELOCITY_X1"  "VELOCITY_Y1"  "VELOCITY_X2"  "VELOCITY_Y2" 
 ZONE T="POINT=POINT0"
0.000000000000e+00 0.000000000000e+00 1.013250000000e+05 1.013250000000e+05 1.000000000000e+00 4.440892098501e-16 0.000000000000e+00 0.000000000000e+00 0.000000000000e+00 0.000000000000e+00 
1.000000000000e-03 0.000000000000e+00 1.013250000000e+05 1.013250000000e+05 1.000000000000e+00 1.343369859796e-14 -2.715736627579e-14 -7.781339809298e-15 -3.390379964373e-19 -9.147395057168e-20 
2.000000000000e-03 0.000000000000e+00 1.013250000000e+05 1.013250000000e+05 9.999999999999e-01 7.149836278586e-14 -1.229952089488e-13 -3.464324399828e-14 -1.667754377796e-18 -4.368027540476e-19 
3.000000000000e-03 0.000000000000e+00 1.013250000000e+05 1.013250000000e+05 9.999999999998e-01 2.045030811360e-13 -2.869452349840e-13 -8.000358939165e-14 -4.334709499887e-18 -1.109148273340e-18 
4.000000000000e-03 0.000000000000e+00 1.013250000000e+05 1.013250000000e+05 9.999999999996e-01 4.394262731466e-13 -5.043650977308e-13 -1.410422846673e-13 -8.561256391709e-18 -2.171107161582e-18 
5.000000000000e-03 0.000000000000e+00 1.013250000000e+05 1.013250000000e+05 9.999999999992e-01 8.030243137114e-13 -7.738516665979e-13 -2.172048669303e-13 -1.464001053958e-17 -3.693252517821e-18 
6.000000000000e-03 0.000000000000e+00 1.013250000000e+05 1.013250000000e+05 9.999999999987e-01 1.321165399304e-12 -1.106531918045e-12 -3.098127432154e-13 -2.294591126063e-17 -5.741268078038e-18 
7.000000000000e-03 0.000000000000e+00 1.013250000000e+05 1.013250000000e+05 9.999999999980e-01 2.015831945812e-12 -1.478758826844e-12 -4.149519838365e-13 -3.358124637564e-17 -8.360714021657e-18 
8.000000000000e-03 0.000000000000e+00 1.013250000000e+05 1.013250000000e+05 9.999999999971e-01 2.911226815172e-12 -1.906711142495e-12 -5.346744786897e-13 -4.691989080531e-17 -1.161456947700e-17 
9.000000000000e-03 0.000000000000e+00 1.013250000000e+05 1.013250000000e+05 9.999999999960e-01 4.027889133340e-12 -2.370679657881e-12 -6.656396202655e-13 -6.306157885480e-17 -1.554215972862e-17 
1.000000000000e-02 0.000000000000e+00 1.013250000000e+05 1.013250000000e+05 9.999999999946e-01 5.386580070876e-12 -2.884733397472e-12 -8.097257930643e-13 -8.233526586333e-17 -2.019777381501e-17 
2.000000000000e-02 0.000000000000e+00 1.013250000000e+05 1.013250000000e+05 9.999999999704e-01 2.962141643081e-11 -5.009930580459e-12 -1.418873062220e-12 -3.675506825503e-16 -8.417309196561e-17 
3.000000000000e-02 0.000000000000e+00 1.013250000000e+05 1.013250000000e+05 9.999999999358e-01 6.424238918612e-11 -7.023136316525e-12 -2.004108018752e-12 -7.562583087523e-16 -1.677487287480e-16 
4.000000000000e-02 0.000000000000e+00 1.013250000000e+05 1.013250000000e+05 9.999999998945e-01 1.055480147727e-10 -8.208301381687e-12 -2.364222238888e-12 -1.196902727191e-15 -2.580250451851e-16 
5.000000000000e-02 0.000000000000e+00 1.013250000000e+05 1.013250000000e+05 9.999999998436e-01 1.564068874416e-10 -9.960688273912e-12 -2.891599432020e-12 -1.728620299416e-15 -3.640250559303e-16 
6.000000000000e-02 0.000000000000e+00 1.013250000000e+05 1.013250000000e+05 9.999999997827e-01 2.173394797467e-10 -1.177547675804e-11 -3.445369561553e-12 -2.349869736456e-15 -4.845484149180e-16 
7.000000000000e-02 0.000000000000e+00 1.013250000000e+05 1.013250000000e+05 9.999999997112e-01 2.887659000805e-10 -1.363119742710e-11 -4.020215567140e-12 -3.061178573914e-15 -6.190893021536e-16 
8.000000000000e-02 0.000000000000e+00 1.013250000000e+05 1.013250000000e+05 9.999999996310e-01 3.690003858026e-10 -1.508931162206e-11 -4.492430616355e-12 -3.836588676050e-15 -7.610968289338e-16 
9.000000000000e-02 0.000000000000e+00 1.013250000000e+05 1.013250000000e+05 9.999999995422e-01 4.577678236473e-10 -1.645905122004e-11 -4.948421653434e-12 -4.672093941512e-15 -9.096022660284e-16 
1.000000000000e-01 0.000000000000e+00 1.013250000000e+05 1.013250000000e+05 9.999999994453e-01 5.547441395137e-10 -1.773064962744e-11 -5.385539577868e-12 -5.561403053906e-15 -1.063119412692e-15 
2.000000000000e-01 0.000000000000e+00 1.013250000000e+05 1.013250000000e+05 9.999999980399e-01 1.960134388135e-09 -2.217780153650e-11 -7.800626519496e-12 -1.523449600617e-14 -2.384747846613e-15 
3.000000000000e-01 0.000000000000e+00 1.013250000000e+05 1.013250000000e+05 9.999999963152e-01 3.684795579773e-09 -2.462636990235e-11 -9.765568774045e-12 -2.473889649341e-14 -3.530030785320e-15 
4.000000000000e-01 0.000000000000e+00 1.013250000000e+05 1.013250000000e+05 9.999999943504e-01 5.649578582734e-09 -2.604412257221e-11 -1.140517455862e-11 -3.366869623782e-14 -4.555715374400e-15 
5.000000000000e-01 0.000000000000e+00 1.013250000000e+05 1.013250000000e+05 9.999999922014e-01 7.798645507151e-09 -2.691068127331e-11 -1.278605611809e-11 -4.189515423848e-14 -5.509597448400e-15 
6.000000000000e-01 0.000000000000e+00 1.013250000000e+05 1.013250000000e+05 9.999999899083e-01 1.009174988020e-08 -2.749171294517e-11 -1.395498950430e-11 -4.942134627577e-14 -6.424429105971e-15 
7.000000000000e-01 0.000000000000e+00 1.013250000000e+05 1.013250000000e+05 9.999999875041e-01 1.249589232089e-08 -2.785534234872e-11 -1.492720924916e-11 -5.627913520355e-14 -7.315535580451e-15 
8.000000000000e-01 0.000000000000e+00 1.013250000000e+05 1.013250000000e+05 9.999999850165e-01 1.498348023432e-08 -2.806010115543e-11 -1.572154194905e-11 -6.251082738114e-14 -8.188740409461e-15 
9.000000000000e-01 0.000000000000e+00 1.013250000000e+05 1.013250000000e+05 9.999999824699e-01 1.753011091843e-08 -2.810027375062e-11 -1.634771271120e-11 -6.815233177328e-14 -9.043495732438e-15 
1.000000000000e+00 0.000000000000e+00 1.013250000000e+05 1.013250000000e+05 9.999999798787e-01 2.012126598672e-08 -2.811444567977e-11 -1.685939882517e-11 -7.329238781918e-14 -9.886116329656e-15 
2.000000000000e+00 0.000000000000e+00 1.013250000000e+05 1.013250000000e+05 9.999999538163e-01 4.618370197385e-08 -2.680572789788e-11 -1.781048481335e-11 -1.034433805994e-13 -1.683178630800e-14 
3.000000000000e+00 0.000000000000e+00 1.013250000000e+05 1.013250000000e+05 9.999999287366e-01 7.126339462982e-08 -2.525905153273e-11 -1.744582425700e-11 -1.234279460589e-13 -2.239429004876e-14 
4.000000000000e+00 0.000000000000e+00 1.013250000000e+05 1.013250000000e+05 9.999999049925e-01 9.500754738490e-08 -2.360269241420e-11 -1.662621771759e-11 -1.375002496660e-13 -2.679267869525e-14 
5.000000000000e+00 0.000000000000e+00 1.013250000000e+05 1.013250000000e+05 9.999998825915e-01 1.174084565125e-07 -2.204872185018e-11 -1.571582657634e-11 -1.479029959584e-13 -3.029657683515e-14 
6.000000000000e+00 0.000000000000e+00 1.013250000000e+05 1.013250000000e+05 9.999998614541e-01 1.385458624492e-07 -2.061941889306e-11 -1.482717029722e-11 -1.558295464441e-13 -3.311718119743e-14 
7.000000000000e+00 0.000000000000e+00 1.013250000000e+05 1.013250000000e+05 9.999998414703e-01 1.585296620643e-07 -1.932461798510e-11 -1.400120491668e-11 -1.620084040163e-13 -3.541485062483e-14 
8.000000000000e+00 0.000000000000e+00 1.013250000000e+05 1.013250000000e+05 9.999998225220e-01 1.774780045150e-07 -1.817165660152e-11 -1.325219807821e-11 -1.669202695336e-13 -3.730872338483e-14 
9.000000000000e+00 0.000000000000e+00 1.013250000000e+05 1.013250000000e+05 9.999998044918e-01 1.955082202798e-07 -1.713628671186e-11 -1.258211615131e-11 -1.708953177471e-13 -3.888669577102e-14 
1.000000000000e+01 0.000000000000e+00 1.013250000000e+05 1.013250000000e+05 9.999997872664e-01 2.127336462543e-07 -1.623528549323e-11 -1.199126589050e-11 -1.741656502272e-13 -4.021322356949e-14 
1.100000000000e+01 0.000000000000e+00 1.013250000000e+05 1.013250000000e+05 9.999997707405e-01 2.292595306930e-07 -1.543893070763e-11 -1.147421454954e-11 -1.768856029204e-13 -4.133366920998e-14 
1.200000000000e+01 0.000000000000e+00 1.013250000000e+05 1.013250000000e+05 9.999997548131e-01 2.451868506004e-07 -1.477095483597e-11 -1.103080369210e-11 -1.791647875305e-13 -4.228018389020e-14 
1.300000000000e+01 0.000000000000e+00 1.013250000000e+05 1.013250000000e+05 9.999997393852e-01 2.606147886386e-07 -1.419971451790e-11 -1.065809377203e-11 -1.810807278907e-13 -4.307502290809e-14 
1.400000000000e+01 0.000000000000e+00 1.013250000000e+05 1.013250000000e+05 9.999997243576e-01 2.756424459793e-07 -1.374085035415e-11 -1.035745898613e-11 -1.826868085968e-13 -4.373279525706e-14 
1.500000000000e+01 0.000000000000e+00 1.013250000000e+05 1.013250000000e+05 9.999997096302e-01 2.903698452794e-07 -1.338924266400e-11 -1.012938588989e-11 -1.840170483501e-13 -4.426222623324e-14 
1.600000000000e+01 0.000000000000e+00 1.013250000000e+05 1.013250000000e+05 9.999996951001e-01 3.048998620248e-07 -1.315399165460e-11 -9.976762451911e-12 -1.850944592974e-13 -4.466818176556e-14 
1.700000000000e+01 0.000000000000e+00 1.013250000000e+05 1.013250000000e+05 9.999996806615e-01 3.193384687794e-07 -1.303487099725e-11 -9.901291021979e-12 -1.859327602169e-13 -4.495276699998e-14 
1.800000000000e+01 0.000000000000e+00 1.013250000000e+05 1.013250000000e+05 9.999996662043e-01 3.337956767657e-07 -1.303996501251e-11 -9.906351166595e-12 -1.865422025528e-13 -4.511676274437e-14 
1.900000000000e+01 0.000000000000e+00 1.013250000000e+05 1.013250000000e+05 9.999996516153e-01 3.483846644503e-07 -1.316233850257e-11 -9.993343487002e-12 -1.869292308469e-13 -4.516024720025e-14 
2.000000000000e+01 0.000000000000e+00 1.013250000000e+05 1.013250000000e+05 9.999996367788e-01 3.632211914573e-07 -1.341402365871e-11 -1.016467189559e-11 -1.870995051821e-13 -4.508342545371e-14 
2.100000000000e+01 0.000000000000e+00 1.013250000000e+05 1.013250000000e+05 9.999996215782e-01 3.784218065572e-07 -1.378428828386e-11 -1.042017796000e-11 -1.870567844475e-13 -4.488679684550e-14 
2.200000000000e+01 0.000000000000e+00 1.013250000000e+05 1.013250000000e+05 9.999996058965e-01 3.941035366939e-07 -1.428275812434e-11 -1.076045635895e-11 -1.868077524468e-13 -4.457206138508e-14 
2.300000000000e+01 0.000000000000e+00 1.013250000000e+05 1.013250000000e+05 9.999995896187e-01 4.103812893952e-07 -1.490623211214e-11 -1.118382482933e-11 -1.863580868203e-13 -4.414169629264e-14 
2.400000000000e+01 0.000000000000e+00 1.013250000000e+05 1.013250000000e+05 9.999995726331e-01 4.273668721133e-07 -1.564564772044e-11 -1.168755504722e-11 -1.857153640230e-13 -4.359942180908e-14 
2.500000000000e+01 0.000000000000e+00 1.013250000000e+05 1.013250000000e+05 9.999995548328e-01 4.451672380723e-07 -1.649200277158e-11 -1.226771420978e-11 -1.848880162140e-13 -4.295001395845e-14 
2.600000000000e+01 0.000000000000e+00 1.013250000000e+05 1.013250000000e+05 9.999995361170e-01 4.638830355397e-07 -1.744364013915e-11 -1.291992066257e-11 -1.838852255411e-13 -4.219919837740e-14 
2.700000000000e+01 0.000000000000e+00 1.013250000000e+05 1.013250000000e+05 9.999995163919e-01 4.836080746973e-07 -1.849289287870e-11 -1.363904340973e-11 -1.827187398320e-13 -4.135384013400e-14 
2.800000000000e+01 0.000000000000e+00 1.013250000000e+05 1.013250000000e+05 9.999994955720e-01 5.044279720590e-07 -1.962134175569e-11 -1.441850180774e-11 -1.814007940520e-13 -4.042153294839e-14 
2.900000000000e+01 0.000000000000e+00 1.013250000000e+05 1.013250000000e+05 9.999994735808e-01 5.264191831333e-07 -2.082860704162e-11 -1.525185351286e-11 -1.799437365386e-13 -3.941037338093e-14 
3.000000000000e+01 0.000000000000e+00 1.013250000000e+05 1.013250000000e+05 9.999994503512e-01 5.496488433288e-07 -2.210348631034e-11 -1.613261594938e-11 -1.783610362830e-13 -3.832896477963e-14 
3.100000000000e+01 0.000000000000e+00 1.013250000000e+05 1.013250000000e+05 9.999994258257e-01 5.741742898913e-07 -2.342910678873e-11 -1.705290844345e-11 -1.766662159869e-13 -3.718612725339e-14 
3.200000000000e+01 0.000000000000e+00 1.013250000000e+05 1.013250000000e+05 9.999993999569e-01 6.000430611275e-07 -2.479938571184e-11 -1.800592529874e-11 -1.748731242303e-13 -3.599080160202e-14 
3.300000000000e+01 0.000000000000e+00 1.013250000000e+05 1.013250000000e+05 9.999993727071e-01 6.272929045092e-07 -2.620003528556e-11 -1.898437048058e-11 -1.729954363053e-13 -3.475187345185e-14 
3.400000000000e+01 0.000000000000e+00 1.013250000000e+05 1.013250000000e+05 9.999993440480e-01 6.559520333571e-07 -2.762161580281e-11 -1.998121701422e-11 -1.710466759957e-13 -3.347806556681e-14 
3.500000000000e+01 0.000000000000e+00 1.013250000000e+05 1.013250000000e+05 9.999993139607e-01 6.860393396702e-07 -2.905970160358e-11 -2.099017469438e-11 -1.690396971389e-13 -3.217777998792e-14 
3.600000000000e+01 0.000000000000e+00 1.013250000000e+05 1.013250000000e+05 9.999992824351e-01 7.175648898405e-07 -3.049750542471e-11 -2.200439508578e-11 -1.669868143341e-13 -3.085905115227e-14 
3.700000000000e+01 0.000000000000e+00 1.013250000000e+05 1.013250000000e+05 9.999992494696e-01 7.505304284727e-07 -3.193031746693e-11 -2.301797020219e-11 -1.648997211843e-13 -2.952946571151e-14 
3.800000000000e+01 0.000000000000e+00 1.013250000000e+05 1.013250000000e+05 9.999992150702e-01 7.849297730678e-07 -3.334866283260e-11 -2.402531769705e-11 -1.627890324210e-13 -2.819608722233e-14 
3.900000000000e+01 0.000000000000e+00 1.013250000000e+05 1.013250000000e+05 9.999991792503e-01 8.207497289581e-07 -3.474908649700e-11 -2.502151781391e-11 -1.606652531168e-13 -2.686553866969e-14 
4.000000000000e+01 0.000000000000e+00 1.013250000000e+05 1.013250000000e+05 9.999991420296e-01 8.579703905109e-07 -3.611529407130e-11 -2.600113908719e-11 -1.585376662409e-13 -2.554389351263e-14 
4.100000000000e+01 0.000000000000e+00 1.013250000000e+05 1.013250000000e+05 9.999991034342e-01 8.965657938287e-07 -3.744901557199e-11 -2.696027387852e-11 -1.564147218518e-13 -2.423664668466e-14 
4.200000000000e+01 0.000000000000e+00 1.013250000000e+05 1.013250000000e+05 9.999990634953e-01 9.365046853560e-07 -3.874458568393e-11 -2.789555895675e-11 -1.543044308347e-13 -2.294883684602e-14 
4.300000000000e+01 0.000000000000e+00 1.013250000000e+05 1.013250000000e+05 9.999990222489e-01 9.777511335018e-07 -3.999541625116e-11 -2.880312943826e-11 -1.522142910751e-13 -2.168500557086e-14 
4.400000000000e+01 0.000000000000e+00 1.013250000000e+05 1.013250000000e+05 9.999989797351e-01 1.020264877916e-06 -4.119587717154e-11 -2.967997036522e-11 -1.501505495433e-13 -2.044913882408e-14 
4.500000000000e+01 0.000000000000e+00 1.013250000000e+05 1.013250000000e+05 9.999989359979e-01 1.064002092099e-06 -4.234204322142e-11 -3.052355335053e-11 -1.481190670488e-13 -1.924476507631e-14 
4.600000000000e+01 0.000000000000e+00 1.013250000000e+05 1.013250000000e+05 9.999988910841e-01 1.108915869463e-06 -4.343683633537e-11 -3.133217981447e-11 -1.461250907968e-13 -1.807496195151e-14 
4.700000000000e+01 0.000000000000e+00 1.013250000000e+05 1.013250000000e+05 9.999988450433e-01 1.154956714156e-06 -4.447218981074e-11 -3.210358163317e-11 -1.441731084517e-13 -1.694234825353e-14 
4.800000000000e+01 0.000000000000e+00 1.013250000000e+05 1.013250000000e+05 9.999987979271e-01 1.202072904327e-06 -4.544914469478e-11 -3.283652291167e-11 -1.422665301491e-13 -1.584901576618e-14 
4.900000000000e+01 0.000000000000e+00 1.013250000000e+05 1.013250000000e+05 9.999987497887e-01 1.250211348558e-06 -4.636605145519e-11 -3.353010973800e-11 -1.404088219918e-13 -1.479673803692e-14 
5.000000000000e+01 0.000000000000e+00 1.013250000000e+05 1.013250000000e+05 9.999987006823e-01 1.299317730408e-06 -4.722293023074e-11 -3.418339539585e-11 -1.386025944145e-13 -1.378684518602e-14 
5.100000000000e+01 0.000000000000e+00 1.013250000000e+05 1.013250000000e+05 9.999986506630e-01 1.349336954060e-06 -4.801454572997e-11 -3.479592979777e-11 -1.368498570926e-13 -1.282034308274e-14 
5.200000000000e+01 0.000000000000e+00 1.013250000000e+05 1.013250000000e+05 9.999985997866e-01 1.400213398783e-06 -4.874718689647e-11 -3.536755957332e-11 -1.351520989272e-13 -1.189790558891e-14 
5.300000000000e+01 0.000000000000e+00 1.013250000000e+05 1.013250000000e+05 9.999985481086e-01 1.451891438187e-06 -4.941622193718e-11 -3.589812004016e-11 -1.335107769269e-13 -1.101997928372e-14 
5.400000000000e+01 0.000000000000e+00 1.013250000000e+05 1.013250000000e+05 9.999984956845e-01 1.504315466083e-06 -5.002463566457e-11 -3.638803115054e-11 -1.319267402941e-13 -1.018681368617e-14 
5.500000000000e+01 0.000000000000e+00 1.013250000000e+05 1.013250000000e+05 9.999984425698e-01 1.557430239663e-06 -5.057429139671e-11 -3.683738470736e-11 -1.304004531941e-13 -9.398329778580e-15 
5.600000000000e+01 0.000000000000e+00 1.013250000000e+05 1.013250000000e+05 9.999983888188e-01 1.611181178696e-06 -5.106205350875e-11 -3.724667735968e-11 -1.289320680149e-13 -8.654263657607e-15 
5.700000000000e+01 0.000000000000e+00 1.013250000000e+05 1.013250000000e+05 9.999983344853e-01 1.665514708926e-06 -5.149508601062e-11 -3.761729590812e-11 -1.275217312935e-13 -7.954192609118e-15 
5.800000000000e+01 0.000000000000e+00 1.013250000000e+05 1.013250000000e+05 9.999982796218e-01 1.720378217773e-06 -5.186701704150e-11 -3.794911339215e-11 -1.261689409497e-13 -7.297405196732e-15 
5.900000000000e+01 0.000000000000e+00 1.013250000000e+05 1.013250000000e+05 9.999982242797e-01 1.775720255059e-06 -5.218379859335e-11 -3.824366245702e-11 -1.248730309303e-13 -6.683202153320e-15 
6.000000000000e+01 0.000000000000e+00 1.013250000000e+05 1.013250000000e+05 9.999981685094e-01 1.831490596960e-06 -5.244990158006e-11 -3.850182573436e-11 -1.236332744814e-13 -6.110712714789e-15 
6.100000000000e+01 0.000000000000e+00 1.013250000000e+05 1.013250000000e+05 9.999981123596e-01 1.887640381559e-06 -5.266197915598e-11 -3.872437144547e-11 -1.224490383148e-13 -5.579056838552e-15 
6.200000000000e+01 0.000000000000e+00 1.013250000000e+05 1.013250000000e+05 9.999980558779e-01 1.944122074993e-06 -5.282727830461e-11 -3.891306985923e-11 -1.213195317163e-13 -5.087327025143e-15 
6.300000000000e+01 0.000000000000e+00 1.013250000000e+05 1.013250000000e+05 9.999979991104e-01 2.000889576248e-06 -5.293810954145e-11 -3.906795494669e-11 -1.202434688548e-13 -4.634415526250e-15 
6.400000000000e+01 0.000000000000e+00 1.013250000000e+05 1.013250000000e+05 9.999979421016e-01 2.057898374153e-06 -5.300715883175e-11 -3.919091012854e-11 -1.192193456466e-13 -4.219138052155e-15 
6.500000000000e+01 0.000000000000e+00 1.013250000000e+05 1.013250000000e+05 9.999978848943e-01 2.115105674605e-06 -5.302985725511e-11 -3.928311726890e-11 -1.182459762982e-13 -3.840258292458e-15 
6.600000000000e+01 0.000000000000e+00 1.013250000000e+05 1.013250000000e+05 9.999978275296e-01 2.172470443984e-06 -5.300748223352e-11 -3.934558472468e-11 -1.173219066227e-13 -3.496431016665e-15 
6.700000000000e+01 0.000000000000e+00 1.013250000000e+05 1.013250000000e+05 9.999977700468e-01 2.229953241617e-06 -5.294784902971e-11 -3.938016951210e-11 -1.164457972915e-13 -3.186515689668e-15 
6.800000000000e+01 0.000000000000e+00 1.013250000000e+05 1.013250000000e+05 9.999977124838e-01 2.287516179700e-06 -5.284750266997e-11 -3.938743491154e-11 -1.156161140748e-13 -2.909211462748e-15 
6.900000000000e+01 0.000000000000e+00 1.013250000000e+05 1.013250000000e+05 9.999976548772e-01 2.345122815051e-06 -5.271227945823e-11 -3.936888715737e-11 -1.148315587912e-13 -2.663484952200e-15 
7.000000000000e+01 0.000000000000e+00 1.013250000000e+05 1.013250000000e+05 9.999975972618e-01 2.402738222496e-06 -5.253384367314e-11 -3.932483933239e-11 -1.140908405271e-13 -2.448120080164e-15 
7.100000000000e+01 0.000000000000e+00 1.013250000000e+05 1.013250000000e+05 9.999975396709e-01 2.460329060483e-06 -5.233127576622e-11 -3.925775445144e-11 -1.133928139950e-13 -2.262034947642e-15 
7.200000000000e+01 0.000000000000e+00 1.013250000000e+05 1.013250000000e+05 9.999974821364e-01 2.517863582296e-06 -5.209351423869e-11 -3.916790033454e-11 -1.127357143898e-13 -2.103887059223e-15 
7.300000000000e+01 0.000000000000e+00 1.013250000000e+05 1.013250000000e+05 9.999974246884e-01 2.575311634168e-06 -5.182322705173e-11 -3.905657324796e-11 -1.121178568445e-13 -1.972417444650e-15 
7.400000000000e+01 0.000000000000e+00 1.013250000000e+05 1.013250000000e+05 9.999973673551e-01 2.632644851008e-06 -5.152595629669e-11 -3.892534228442e-11 -1.115377175621e-13 -1.866211796309e-15 
7.500000000000e+01 0.000000000000e+00 1.013250000000e+05 1.013250000000e+05 9.999973101635e-01 2.689836461234e-06 -5.120452080195e-11 -3.877531008698e-11 -1.109934451346e-13 -1.783980692131e-15 
7.600000000000e+01 0.000000000000e+00 1.013250000000e+05 1.013250000000e+05 9.999972531389e-01 2.746861123781e-06 -5.085452011972e-11 -3.860738819507e-11 -1.104837112371e-13 -1.724600346435e-15 
7.700000000000e+01 0.000000000000e+00 1.013250000000e+05 1.013250000000e+05 9.999971963053e-01 2.803694746922e-06 -5.048454648419e-11 -3.842268930536e-11 -1.100075516664e-13 -1.687094967460e-15 
7.800000000000e+01 0.000000000000e+00 1.013250000000e+05 1.013250000000e+05 9.999971396857e-01 2.860314315400e-06 -5.008894217148e-11 -3.822190744748e-11 -1.095638034145e-13 -1.670670978931e-15 
7.900000000000e+01 0.000000000000e+00 1.013250000000e+05 1.013250000000e+05 9.999970833021e-01 2.916697887434e-06 -4.967773521826e-11 -3.800604844705e-11 -1.091515195327e-13 -1.674396588177e-15 
8.000000000000e+01 0.000000000000e+00 1.013250000000e+05 1.013250000000e+05 9.999970271753e-01 2.972824731939e-06 -4.924117672894e-11 -3.777547315633e-11 -1.087693268808e-13 -1.697385344037e-15 
8.100000000000e+01 0.000000000000e+00 1.013250000000e+05 1.013250000000e+05 9.999969713246e-01 3.028675364281e-06 -4.879086632942e-11 -3.753173682767e-11 -1.084160744688e-13 -1.738587786872e-15 
8.200000000000e+01 0.000000000000e+00 1.013250000000e+05 1.013250000000e+05 9.999969157682e-01 3.084231821271e-06 -4.831766867566e-11 -3.727525563166e-11 -1.080897112307e-13 -1.796739752203e-15 
8.300000000000e+01 0.000000000000e+00 1.013250000000e+05 1.013250000000e+05 9.999968605223e-01 3.139477735559e-06 -4.783854943258e-11 -3.700813424453e-11 -1.077886373748e-13 -1.870433800372e-15 
8.400000000000e+01 0.000000000000e+00 1.013250000000e+05 1.013250000000e+05 9.999968056017e-01 3.194398291329e-06 -4.733886891128e-11 -3.673052983950e-11 -1.075110910390e-13 -1.958497659126e-15 
8.500000000000e+01 0.000000000000e+00 1.013250000000e+05 1.013250000000e+05 9.999967510200e-01 3.248980009252e-06 -4.682971627340e-11 -3.644384427710e-11 -1.072553609580e-13 -2.059669696649e-15 
8.600000000000e+01 0.000000000000e+00 1.013250000000e+05 1.013250000000e+05 9.999966967896e-01 3.303210438177e-06 -4.630940929316e-11 -3.614903937778e-11 -1.070207776636e-13 -2.173288442797e-15 
8.700000000000e+01 0.000000000000e+00 1.013250000000e+05 1.013250000000e+05 9.999966429221e-01 3.357077914656e-06 -4.578138535997e-11 -3.584663062607e-11 -1.068062341971e-13 -2.298665641901e-15 
8.800000000000e+01 0.000000000000e+00 1.013250000000e+05 1.013250000000e+05 9.999965894285e-01 3.410571455809e-06 -4.524382394613e-11 -3.553667837592e-11 -1.066109726114e-13 -2.435093423117e-15 
8.900000000000e+01 0.000000000000e+00 1.013250000000e+05 1.013250000000e+05 9.999965363192e-01 3.463680819049e-06 -4.469482908958e-11 -3.521994705437e-11 -1.064345870756e-13 -2.582181068374e-15 
9.000000000000e+01 0.000000000000e+00 1.013250000000e+05 1.013250000000e+05 9.999964836036e-01 3.516396434700e-06 -4.414277171442e-11 -3.489723377082e-11 -1.062761180973e-13 -2.739338903041e-15 
9.100000000000e+01 0.000000000000e+00 1.013250000000e+05 1.013250000000e+05 9.999964312904e-01 3.568709554647e-06 -4.358245174405e-11 -3.456870952001e-11 -1.061345099652e-13 -2.905707962524e-15 
9.200000000000e+01 0.000000000000e+00 1.013250000000e+05 1.013250000000e+05 9.999963793876e-01 3.620612389899e-06 -4.301337633157e-11 -3.423508969291e-11 -1.060087388928e-13 -3.080655129749e-15 
9.300000000000e+01 0.000000000000e+00 1.013250000000e+05 1.013250000000e+05 9.999963279019e-01 3.672098078056e-06 -4.244309414059e-11 -3.389762904488e-11 -1.058977612124e-13 -3.263312018949e-15 
9.400000000000e+01 0.000000000000e+00 1.013250000000e+05 1.013250000000e+05 9.999962768394e-01 3.723160587832e-06 -4.186821053693e-11 -3.355619556544e-11 -1.058005518673e-13 -3.453037357347e-15 
9.500000000000e+01 0.000000000000e+00 1.013250000000e+05 1.013250000000e+05 9.999962262057e-01 3.773794292838e-06 -4.129112188148e-11 -3.321160899573e-11 -1.057168634418e-13 -3.649510358334e-15 
9.600000000000e+01 0.000000000000e+00 1.013250000000e+05 1.013250000000e+05 9.999961760062e-01 3.823993798058e-06 -4.070726427880e-11 -3.286340163398e-11 -1.056464649739e-13 -3.852439991702e-15 
9.700000000000e+01 0.000000000000e+00 1.013250000000e+05 1.013250000000e+05 9.999961262461e-01 3.873753873895e-06 -4.012250164293e-11 -3.251237687399e-11 -1.055889896614e-13 -4.061797623754e-15 
9.800000000000e+01 0.000000000000e+00 1.013250000000e+05 1.013250000000e+05 9.999960769303e-01 3.923069742062e-06 -3.953251147507e-11 -3.215808964462e-11 -1.055440735617e-13 -4.277116826253e-15 
9.900000000000e+01 0.000000000000e+00 1.013250000000e+05 1.013250000000e+05 9.999960280627e-01 3.971937275749e-06 -3.894396234087e-11 -3.180193677072e-11 -1.055108391539e-13 -4.497895380222e-15 
1.000000000000e+02 0.000000000000e+00 1.013250000000e+05 1.013250000000e+05 9.999959796469e-01 4.020353131851e-06 -3.835048742066e-11 -3.144385916445e-11 -1.054883589729e-13 -4.723484387264e-15 
1.010000000000e+02 0.000000000000e+00 1.013250000000e+05 1.013250000000e+05 9.999959316852e-01 4.068314801264e-06 -3.776008043985e-11 -3.108479851625e-11 -1.054755143840e-13 -4.953198351091e-15 
1.020000000000e+02 0.000000000000e+00 1.013250000000e+05 1.013250000000e+05 9.999958841794e-01 4.115820563699e-06 -3.716758910275e-11 -3.072479003232e-11 -1.054710580673e-13 -5.186125484961e-15 
1.030000000000e+02 0.000000000000e+00 1.013250000000e+05 1.013250000000e+05 9.999958371305e-01 4.162869521984e-06 -3.658466578757e-11 -3.036549455854e-11 -1.054741995963e-13 -5.421767843126e-15 
1.040000000000e+02 0.000000000000e+00 1.013250000000e+05 1.013250000000e+05 9.999957905385e-01 4.209461477389e-06 -3.599801108889e-11 -3.000625454979e-11 -1.054837556255e-13 -5.659292157750e-15 
1.050000000000e+02 0.000000000000e+00 1.013250000000e+05 1.013250000000e+05 9.999957444033e-01 4.255596672609e-06 -3.541264654159e-11 -2.964777532990e-11 -1.054993556560e-13 -5.898472953269e-15 
1.060000000000e+02 0.000000000000e+00 1.013250000000e+05 1.013250000000e+05 9.999956987246e-01 4.301275377649e-06 -3.483330953409e-11 -2.929034732309e-11 -1.055212849135e-13 -6.139351166329e-15 
1.070000000000e+02 0.000000000000e+00 1.013250000000e+05 1.013250000000e+05 9.999956535025e-01 4.346497532781e-06 -3.424977594757e-11 -2.893294585950e-11 -1.055497499547e-13 -6.382072248430e-15 
1.080000000000e+02 0.000000000000e+00 1.013250000000e+05 1.013250000000e+05 9.999956087369e-01 4.391263060066e-06 -3.367092713070e-11 -2.857631272056e-11 -1.055850334289e-13 -6.626706051716e-15 
1.090000000000e+02 0.000000000000e+00 1.013250000000e+05 1.013250000000e+05 9.999955644279e-01 4.435572054762e-06 -3.309821396703e-11 -2.822012352759e-11 -1.056265621733e-13 -6.873073355562e-15 
1.100000000000e+02 0.000000000000e+00 1.013250000000e+05 1.013250000000e+05 9.999955205747e-01 4.479425285586e-06 -3.252497796063e-11 -2.786599639042e-11 -1.056734706019e-13 -7.120621422964e-15 
1.110000000000e+02 0.000000000000e+00 1.013250000000e+05 1.013250000000e+05 9.999954771755e-01 4.522824483155e-06 -3.195823718038e-11 -2.751315682299e-11 -1.057240002225e-13 -7.368340797820e-15 
1.120000000000e+02 0.000000000000e+00 1.013250000000e+05 1.013250000000e+05 9.999954342277e-01 4.565772322884e-06 -3.138877584690e-11 -2.716249372000e-11 -1.057773320946e-13 -7.615405716743e-15 
1.130000000000e+02 0.000000000000e+00 1.013250000000e+05 1.013250000000e+05 9.999953917275e-01 4.608272494711e-06 -3.083791722991e-11 -2.681585273391e-11 -1.058318964484e-13 -7.861066465126e-15 
1.140000000000e+02 0.000000000000e+00 1.013250000000e+05 1.013250000000e+05 9.999953496702e-01 4.650329778588e-06 -3.028655084628e-11 -2.647276868671e-11 -1.058860383351e-13 -8.104143023887e-15 
1.150000000000e+02 0.000000000000e+00 1.013250000000e+05 1.013250000000e+05 9.999953080498e-01 4.691950187263e-06 -2.974742790752e-11 -2.613495648038e-11 -1.059380206043e-13 -8.343574321067e-15 
1.160000000000e+02 0.000000000000e+00 1.013250000000e+05 1.013250000000e+05 9.999952668593e-01 4.733140707036e-06 -2.921750581987e-11 -2.580275180438e-11 -1.059866284418e-13 -8.578529443246e-15 
1.170000000000e+02 0.000000000000e+00 1.013250000000e+05 1.013250000000e+05 9.999952260914e-01 4.773908637512e-06 -2.869412419967e-11 -2.547606664808e-11 -1.060314963156e-13 -8.808657635784e-15 
1.180000000000e+02 0.000000000000e+00 1.013250000000e+05 1.013250000000e+05 9.999951857394e-01 4.814260596397e-06 -2.818436900150e-11 -2.515503678698e-11 -1.060737045722e-13 -9.034657138724e-15 
1.190000000000e+02 0.000000000000e+00 1.013250000000e+05 1.013250000000e+05 9.999951457979e-01 4.854202081517e-06 -2.767802366236e-11 -2.483822265308e-11 -1.061148236950e-13 -9.257501481232e-15 
1.200000000000e+02 0.000000000000e+00 1.013250000000e+05 1.013250000000e+05 9.999951062626e-01 4.893737367562e-06 -2.717808801682e-11 -2.452488245246e-11 -1.061565880478e-13 -9.478318402231e-15 
