VARIABLES  = "X","Y","Z", "PRESSURE1", "PRESSURE2", "PRESSURE_W", "SATURATION1", SATURATION2, "VELOCITY_X1", "VELOCITY_Y1", "VELOCITY_X2", "VELOCITY_Y2"
ZONE T="0.000000000000e+00s", N=208, E=608, F=FEPOINT, ET=TETRAHEDRON
STRANDID=1, SOLUTIONTIME=0.000000000000e+00
0.000000000000e+00 0.000000000000e+00 0.000000000000e+00 0.000000000000e+00 1.013250000000e+05 1.013250000000e+05 1.000000000000e+00 4.440892098501e-16 0.000000000000e+00 0.000000000000e+00 0.000000000000e+00 0.000000000000e+00 
1.000000000000e-01 0.000000000000e+00 0.000000000000e+00 0.000000000000e+00 1.013250000000e+05 1.013250000000e+05 1.000000000000e+00 4.440892098501e-16 0.000000000000e+00 0.000000000000e+00 0.000000000000e+00 0.000000000000e+00 
1.000000000000e-01 1.000000000000e-01 0.000000000000e+00 0.000000000000e+00 1.013250000000e+05 1.013250000000e+05 1.000000000000e+00 4.440892098501e-16 0.000000000000e+00 0.000000000000e+00 0.000000000000e+00 0.000000000000e+00 
0.000000000000e+00 1.000000000000e-01 0.000000000000e+00 0.000000000000e+00 1.013250000000e+05 1.013250000000e+05 1.000000000000e+00 4.440892098501e-16 0.000000000000e+00 0.000000000000e+00 0.000000000000e+00 0.000000000000e+00 
0.000000000000e+00 0.000000000000e+00 1.000000000000e+00 0.000000000000e+00 1.013250000000e+05 1.013250000000e+05 1.000000000000e+00 4.440892098501e-16 0.000000000000e+00 0.000000000000e+00 0.000000000000e+00 0.000000000000e+00 
1.000000000000e-01 0.000000000000e+00 1.000000000000e+00 0.000000000000e+00 1.013250000000e+05 1.013250000000e+05 1.000000000000e+00 4.440892098501e-16 0.000000000000e+00 0.000000000000e+00 0.000000000000e+00 0.000000000000e+00 
1.000000000000e-01 1.000000000000e-01 1.000000000000e+00 0.000000000000e+00 1.013250000000e+05 1.013250000000e+05 1.000000000000e+00 4.440892098501e-16 0.000000000000e+00 0.000000000000e+00 0.000000000000e+00 0.000000000000e+00 
0.000000000000e+00 1.000000000000e-01 1.000000000000e+00 0.000000000000e+00 1.013250000000e+05 1.013250000000e+05 1.000000000000e+00 4.440892098501e-16 0.000000000000e+00 0.000000000000e+00 0.000000000000e+00 0.000000000000e+00 
5.000000000000e-02 0.000000000000e+00 1.000000000000e+00 0.000000000000e+00 1.013250000000e+05 1.013250000000e+05 1.000000000000e+00 3.330669073875e-16 0.000000000000e+00 0.000000000000e+00 0.000000000000e+00 0.000000000000e+00 
5.000000000000e-02 1.000000000000e-01 1.000000000000e+00 0.000000000000e+00 1.013250000000e+05 1.013250000000e+05 1.000000000000e+00 4.440892098501e-16 0.000000000000e+00 0.000000000000e+00 0.000000000000e+00 0.000000000000e+00 
5.000000000000e-02 1.000000000000e-01 0.000000000000e+00 0.000000000000e+00 1.013250000000e+05 1.013250000000e+05 1.000000000000e+00 3.330669073875e-16 0.000000000000e+00 0.000000000000e+00 0.000000000000e+00 0.000000000000e+00 
5.000000000000e-02 0.000000000000e+00 0.000000000000e+00 0.000000000000e+00 1.013250000000e+05 1.013250000000e+05 1.000000000000e+00 2.220446049250e-16 0.000000000000e+00 0.000000000000e+00 0.000000000000e+00 0.000000000000e+00 
1.000000000000e-01 5.000000000000e-02 0.000000000000e+00 0.000000000000e+00 1.013250000000e+05 1.013250000000e+05 1.000000000000e+00 4.440892098501e-16 0.000000000000e+00 0.000000000000e+00 0.000000000000e+00 0.000000000000e+00 
0.000000000000e+00 5.000000000000e-02 0.000000000000e+00 0.000000000000e+00 1.013250000000e+05 1.013250000000e+05 1.000000000000e+00 4.440892098501e-16 0.000000000000e+00 0.000000000000e+00 0.000000000000e+00 0.000000000000e+00 
0.000000000000e+00 5.000000000000e-02 1.000000000000e+00 0.000000000000e+00 1.013250000000e+05 1.013250000000e+05 1.000000000000e+00 4.440892098501e-16 0.000000000000e+00 0.000000000000e+00 0.000000000000e+00 0.000000000000e+00 
1.000000000000e-01 5.000000000000e-02 1.000000000000e+00 0.000000000000e+00 1.013250000000e+05 1.013250000000e+05 1.000000000000e+00 4.440892098501e-16 0.000000000000e+00 0.000000000000e+00 0.000000000000e+00 0.000000000000e+00 
0.000000000000e+00 1.000000000000e-01 5.000000000000e-02 0.000000000000e+00 1.013250000000e+05 1.013250000000e+05 1.000000000000e+00 3.330669073875e-16 0.000000000000e+00 0.000000000000e+00 0.000000000000e+00 0.000000000000e+00 
0.000000000000e+00 1.000000000000e-01 1.000000000000e-01 0.000000000000e+00 1.013250000000e+05 1.013250000000e+05 1.000000000000e+00 3.330669073875e-16 0.000000000000e+00 0.000000000000e+00 0.000000000000e+00 0.000000000000e+00 
0.000000000000e+00 1.000000000000e-01 1.500000000000e-01 0.000000000000e+00 1.013250000000e+05 1.013250000000e+05 1.000000000000e+00 3.330669073875e-16 0.000000000000e+00 0.000000000000e+00 0.000000000000e+00 0.000000000000e+00 
0.000000000000e+00 1.000000000000e-01 2.000000000000e-01 0.000000000000e+00 1.013250000000e+05 1.013250000000e+05 1.000000000000e+00 2.220446049250e-16 0.000000000000e+00 0.000000000000e+00 0.000000000000e+00 0.000000000000e+00 
0.000000000000e+00 1.000000000000e-01 2.500000000000e-01 0.000000000000e+00 1.013250000000e+05 1.013250000000e+05 1.000000000000e+00 3.330669073875e-16 0.000000000000e+00 0.000000000000e+00 0.000000000000e+00 0.000000000000e+00 
0.000000000000e+00 1.000000000000e-01 3.000000000000e-01 0.000000000000e+00 1.013250000000e+05 1.013250000000e+05 1.000000000000e+00 3.330669073875e-16 0.000000000000e+00 0.000000000000e+00 0.000000000000e+00 0.000000000000e+00 
0.000000000000e+00 1.000000000000e-01 3.500000000000e-01 0.000000000000e+00 1.013250000000e+05 1.013250000000e+05 1.000000000000e+00 2.220446049250e-16 0.000000000000e+00 0.000000000000e+00 0.000000000000e+00 0.000000000000e+00 
0.000000000000e+00 1.000000000000e-01 4.000000000000e-01 0.000000000000e+00 1.013250000000e+05 1.013250000000e+05 1.000000000000e+00 3.330669073875e-16 0.000000000000e+00 0.000000000000e+00 0.000000000000e+00 0.000000000000e+00 
0.000000000000e+00 1.000000000000e-01 4.500000000000e-01 0.000000000000e+00 1.013250000000e+05 1.013250000000e+05 1.000000000000e+00 2.220446049250e-16 0.000000000000e+00 0.000000000000e+00 0.000000000000e+00 0.000000000000e+00 
0.000000000000e+00 1.000000000000e-01 5.000000000000e-01 0.000000000000e+00 1.013250000000e+05 1.013250000000e+05 1.000000000000e+00 3.330669073875e-16 0.000000000000e+00 0.000000000000e+00 0.000000000000e+00 0.000000000000e+00 
0.000000000000e+00 1.000000000000e-01 5.500000000000e-01 0.000000000000e+00 1.013250000000e+05 1.013250000000e+05 1.000000000000e+00 3.330669073875e-16 0.000000000000e+00 0.000000000000e+00 0.000000000000e+00 0.000000000000e+00 
0.000000000000e+00 1.000000000000e-01 6.000000000000e-01 0.000000000000e+00 1.013250000000e+05 1.013250000000e+05 1.000000000000e+00 3.330669073875e-16 0.000000000000e+00 0.000000000000e+00 0.000000000000e+00 0.000000000000e+00 
0.000000000000e+00 1.000000000000e-01 6.500000000000e-01 0.000000000000e+00 1.013250000000e+05 1.013250000000e+05 1.000000000000e+00 3.330669073875e-16 0.000000000000e+00 0.000000000000e+00 0.000000000000e+00 0.000000000000e+00 
0.000000000000e+00 1.000000000000e-01 7.000000000000e-01 0.000000000000e+00 1.013250000000e+05 1.013250000000e+05 1.000000000000e+00 3.330669073875e-16 0.000000000000e+00 0.000000000000e+00 0.000000000000e+00 0.000000000000e+00 
0.000000000000e+00 1.000000000000e-01 7.500000000000e-01 0.000000000000e+00 1.013250000000e+05 1.013250000000e+05 1.000000000000e+00 3.330669073875e-16 0.000000000000e+00 0.000000000000e+00 0.000000000000e+00 0.000000000000e+00 
0.000000000000e+00 1.000000000000e-01 8.000000000000e-01 0.000000000000e+00 1.013250000000e+05 1.013250000000e+05 1.000000000000e+00 2.220446049250e-16 0.000000000000e+00 0.000000000000e+00 0.000000000000e+00 0.000000000000e+00 
0.000000000000e+00 1.000000000000e-01 8.500000000000e-01 0.000000000000e+00 1.013250000000e+05 1.013250000000e+05 1.000000000000e+00 3.330669073875e-16 0.000000000000e+00 0.000000000000e+00 0.000000000000e+00 0.000000000000e+00 
0.000000000000e+00 1.000000000000e-01 9.000000000000e-01 0.000000000000e+00 1.013250000000e+05 1.013250000000e+05 1.000000000000e+00 3.330669073875e-16 0.000000000000e+00 0.000000000000e+00 0.000000000000e+00 0.000000000000e+00 
0.000000000000e+00 1.000000000000e-01 9.500000000000e-01 0.000000000000e+00 1.013250000000e+05 1.013250000000e+05 1.000000000000e+00 6.661338147751e-16 0.000000000000e+00 0.000000000000e+00 0.000000000000e+00 0.000000000000e+00 
0.000000000000e+00 0.000000000000e+00 9.500000000000e-01 0.000000000000e+00 1.013250000000e+05 1.013250000000e+05 1.000000000000e+00 3.330669073875e-16 0.000000000000e+00 0.000000000000e+00 0.000000000000e+00 0.000000000000e+00 
0.000000000000e+00 0.000000000000e+00 9.000000000000e-01 0.000000000000e+00 1.013250000000e+05 1.013250000000e+05 1.000000000000e+00 2.220446049250e-16 0.000000000000e+00 0.000000000000e+00 0.000000000000e+00 0.000000000000e+00 
0.000000000000e+00 0.000000000000e+00 8.500000000000e-01 0.000000000000e+00 1.013250000000e+05 1.013250000000e+05 1.000000000000e+00 3.330669073875e-16 0.000000000000e+00 0.000000000000e+00 0.000000000000e+00 0.000000000000e+00 
0.000000000000e+00 0.000000000000e+00 8.000000000000e-01 0.000000000000e+00 1.013250000000e+05 1.013250000000e+05 1.000000000000e+00 2.220446049250e-16 0.000000000000e+00 0.000000000000e+00 0.000000000000e+00 0.000000000000e+00 
0.000000000000e+00 0.000000000000e+00 7.500000000000e-01 0.000000000000e+00 1.013250000000e+05 1.013250000000e+05 1.000000000000e+00 3.330669073875e-16 0.000000000000e+00 0.000000000000e+00 0.000000000000e+00 0.000000000000e+00 
0.000000000000e+00 0.000000000000e+00 7.000000000000e-01 0.000000000000e+00 1.013250000000e+05 1.013250000000e+05 1.000000000000e+00 3.330669073875e-16 0.000000000000e+00 0.000000000000e+00 0.000000000000e+00 0.000000000000e+00 
0.000000000000e+00 0.000000000000e+00 6.500000000000e-01 0.000000000000e+00 1.013250000000e+05 1.013250000000e+05 1.000000000000e+00 3.330669073875e-16 0.000000000000e+00 0.000000000000e+00 0.000000000000e+00 0.000000000000e+00 
0.000000000000e+00 0.000000000000e+00 6.000000000000e-01 0.000000000000e+00 1.013250000000e+05 1.013250000000e+05 1.000000000000e+00 3.330669073875e-16 0.000000000000e+00 0.000000000000e+00 0.000000000000e+00 0.000000000000e+00 
0.000000000000e+00 0.000000000000e+00 5.500000000000e-01 0.000000000000e+00 1.013250000000e+05 1.013250000000e+05 1.000000000000e+00 3.330669073875e-16 0.000000000000e+00 0.000000000000e+00 0.000000000000e+00 0.000000000000e+00 
0.000000000000e+00 0.000000000000e+00 5.000000000000e-01 0.000000000000e+00 1.013250000000e+05 1.013250000000e+05 1.000000000000e+00 3.330669073875e-16 0.000000000000e+00 0.000000000000e+00 0.000000000000e+00 0.000000000000e+00 
0.000000000000e+00 0.000000000000e+00 4.500000000000e-01 0.000000000000e+00 1.013250000000e+05 1.013250000000e+05 1.000000000000e+00 3.330669073875e-16 0.000000000000e+00 0.000000000000e+00 0.000000000000e+00 0.000000000000e+00 
0.000000000000e+00 0.000000000000e+00 4.000000000000e-01 0.000000000000e+00 1.013250000000e+05 1.013250000000e+05 1.000000000000e+00 3.330669073875e-16 0.000000000000e+00 0.000000000000e+00 0.000000000000e+00 0.000000000000e+00 
0.000000000000e+00 0.000000000000e+00 3.500000000000e-01 0.000000000000e+00 1.013250000000e+05 1.013250000000e+05 1.000000000000e+00 3.330669073875e-16 0.000000000000e+00 0.000000000000e+00 0.000000000000e+00 0.000000000000e+00 
0.000000000000e+00 0.000000000000e+00 3.000000000000e-01 0.000000000000e+00 1.013250000000e+05 1.013250000000e+05 1.000000000000e+00 3.330669073875e-16 0.000000000000e+00 0.000000000000e+00 0.000000000000e+00 0.000000000000e+00 
0.000000000000e+00 0.000000000000e+00 2.500000000000e-01 0.000000000000e+00 1.013250000000e+05 1.013250000000e+05 1.000000000000e+00 3.330669073875e-16 0.000000000000e+00 0.000000000000e+00 0.000000000000e+00 0.000000000000e+00 
0.000000000000e+00 0.000000000000e+00 2.000000000000e-01 0.000000000000e+00 1.013250000000e+05 1.013250000000e+05 1.000000000000e+00 3.330669073875e-16 0.000000000000e+00 0.000000000000e+00 0.000000000000e+00 0.000000000000e+00 
0.000000000000e+00 0.000000000000e+00 1.500000000000e-01 0.000000000000e+00 1.013250000000e+05 1.013250000000e+05 1.000000000000e+00 3.330669073875e-16 0.000000000000e+00 0.000000000000e+00 0.000000000000e+00 0.000000000000e+00 
0.000000000000e+00 0.000000000000e+00 1.000000000000e-01 0.000000000000e+00 1.013250000000e+05 1.013250000000e+05 1.000000000000e+00 3.330669073875e-16 0.000000000000e+00 0.000000000000e+00 0.000000000000e+00 0.000000000000e+00 
0.000000000000e+00 0.000000000000e+00 5.000000000000e-02 0.000000000000e+00 1.013250000000e+05 1.013250000000e+05 1.000000000000e+00 3.330669073875e-16 0.000000000000e+00 0.000000000000e+00 0.000000000000e+00 0.000000000000e+00 
1.000000000000e-01 0.000000000000e+00 5.000000000000e-02 0.000000000000e+00 1.013250000000e+05 1.013250000000e+05 1.000000000000e+00 2.220446049250e-16 0.000000000000e+00 0.000000000000e+00 0.000000000000e+00 0.000000000000e+00 
1.000000000000e-01 0.000000000000e+00 1.000000000000e-01 0.000000000000e+00 1.013250000000e+05 1.013250000000e+05 1.000000000000e+00 3.330669073875e-16 0.000000000000e+00 0.000000000000e+00 0.000000000000e+00 0.000000000000e+00 
1.000000000000e-01 0.000000000000e+00 1.500000000000e-01 0.000000000000e+00 1.013250000000e+05 1.013250000000e+05 1.000000000000e+00 3.330669073875e-16 0.000000000000e+00 0.000000000000e+00 0.000000000000e+00 0.000000000000e+00 
1.000000000000e-01 0.000000000000e+00 2.000000000000e-01 0.000000000000e+00 1.013250000000e+05 1.013250000000e+05 1.000000000000e+00 3.330669073875e-16 0.000000000000e+00 0.000000000000e+00 0.000000000000e+00 0.000000000000e+00 
1.000000000000e-01 0.000000000000e+00 2.500000000000e-01 0.000000000000e+00 1.013250000000e+05 1.013250000000e+05 1.000000000000e+00 3.330669073875e-16 0.000000000000e+00 0.000000000000e+00 0.000000000000e+00 0.000000000000e+00 
1.000000000000e-01 0.000000000000e+00 3.000000000000e-01 0.000000000000e+00 1.013250000000e+05 1.013250000000e+05 1.000000000000e+00 3.330669073875e-16 0.000000000000e+00 0.000000000000e+00 0.000000000000e+00 0.000000000000e+00 
1.000000000000e-01 0.000000000000e+00 3.500000000000e-01 0.000000000000e+00 1.013250000000e+05 1.013250000000e+05 1.000000000000e+00 3.330669073875e-16 0.000000000000e+00 0.000000000000e+00 0.000000000000e+00 0.000000000000e+00 
1.000000000000e-01 0.000000000000e+00 4.000000000000e-01 0.000000000000e+00 1.013250000000e+05 1.013250000000e+05 1.000000000000e+00 3.330669073875e-16 0.000000000000e+00 0.000000000000e+00 0.000000000000e+00 0.000000000000e+00 
1.000000000000e-01 0.000000000000e+00 4.500000000000e-01 0.000000000000e+00 1.013250000000e+05 1.013250000000e+05 1.000000000000e+00 3.330669073875e-16 0.000000000000e+00 0.000000000000e+00 0.000000000000e+00 0.000000000000e+00 
1.000000000000e-01 0.000000000000e+00 5.000000000000e-01 0.000000000000e+00 1.013250000000e+05 1.013250000000e+05 1.000000000000e+00 3.330669073875e-16 0.000000000000e+00 0.000000000000e+00 0.000000000000e+00 0.000000000000e+00 
1.000000000000e-01 0.000000000000e+00 5.500000000000e-01 0.000000000000e+00 1.013250000000e+05 1.013250000000e+05 1.000000000000e+00 2.220446049250e-16 0.000000000000e+00 0.000000000000e+00 0.000000000000e+00 0.000000000000e+00 
1.000000000000e-01 0.000000000000e+00 6.000000000000e-01 0.000000000000e+00 1.013250000000e+05 1.013250000000e+05 1.000000000000e+00 3.330669073875e-16 0.000000000000e+00 0.000000000000e+00 0.000000000000e+00 0.000000000000e+00 
1.000000000000e-01 0.000000000000e+00 6.500000000000e-01 0.000000000000e+00 1.013250000000e+05 1.013250000000e+05 1.000000000000e+00 3.330669073875e-16 0.000000000000e+00 0.000000000000e+00 0.000000000000e+00 0.000000000000e+00 
1.000000000000e-01 0.000000000000e+00 7.000000000000e-01 0.000000000000e+00 1.013250000000e+05 1.013250000000e+05 1.000000000000e+00 3.330669073875e-16 0.000000000000e+00 0.000000000000e+00 0.000000000000e+00 0.000000000000e+00 
1.000000000000e-01 0.000000000000e+00 7.500000000000e-01 0.000000000000e+00 1.013250000000e+05 1.013250000000e+05 1.000000000000e+00 3.330669073875e-16 0.000000000000e+00 0.000000000000e+00 0.000000000000e+00 0.000000000000e+00 
1.000000000000e-01 0.000000000000e+00 8.000000000000e-01 0.000000000000e+00 1.013250000000e+05 1.013250000000e+05 1.000000000000e+00 2.220446049250e-16 0.000000000000e+00 0.000000000000e+00 0.000000000000e+00 0.000000000000e+00 
1.000000000000e-01 0.000000000000e+00 8.500000000000e-01 0.000000000000e+00 1.013250000000e+05 1.013250000000e+05 1.000000000000e+00 3.330669073875e-16 0.000000000000e+00 0.000000000000e+00 0.000000000000e+00 0.000000000000e+00 
1.000000000000e-01 0.000000000000e+00 9.000000000000e-01 0.000000000000e+00 1.013250000000e+05 1.013250000000e+05 1.000000000000e+00 3.330669073875e-16 0.000000000000e+00 0.000000000000e+00 0.000000000000e+00 0.000000000000e+00 
1.000000000000e-01 0.000000000000e+00 9.500000000000e-01 0.000000000000e+00 1.013250000000e+05 1.013250000000e+05 1.000000000000e+00 2.220446049250e-16 0.000000000000e+00 0.000000000000e+00 0.000000000000e+00 0.000000000000e+00 
1.000000000000e-01 1.000000000000e-01 5.000000000000e-02 0.000000000000e+00 1.013250000000e+05 1.013250000000e+05 1.000000000000e+00 3.330669073875e-16 0.000000000000e+00 0.000000000000e+00 0.000000000000e+00 0.000000000000e+00 
1.000000000000e-01 1.000000000000e-01 1.000000000000e-01 0.000000000000e+00 1.013250000000e+05 1.013250000000e+05 1.000000000000e+00 2.220446049250e-16 0.000000000000e+00 0.000000000000e+00 0.000000000000e+00 0.000000000000e+00 
1.000000000000e-01 1.000000000000e-01 1.500000000000e-01 0.000000000000e+00 1.013250000000e+05 1.013250000000e+05 1.000000000000e+00 3.330669073875e-16 0.000000000000e+00 0.000000000000e+00 0.000000000000e+00 0.000000000000e+00 
1.000000000000e-01 1.000000000000e-01 2.000000000000e-01 0.000000000000e+00 1.013250000000e+05 1.013250000000e+05 1.000000000000e+00 3.330669073875e-16 0.000000000000e+00 0.000000000000e+00 0.000000000000e+00 0.000000000000e+00 
1.000000000000e-01 1.000000000000e-01 2.500000000000e-01 0.000000000000e+00 1.013250000000e+05 1.013250000000e+05 1.000000000000e+00 3.330669073875e-16 0.000000000000e+00 0.000000000000e+00 0.000000000000e+00 0.000000000000e+00 
1.000000000000e-01 1.000000000000e-01 3.000000000000e-01 0.000000000000e+00 1.013250000000e+05 1.013250000000e+05 1.000000000000e+00 2.220446049250e-16 0.000000000000e+00 0.000000000000e+00 0.000000000000e+00 0.000000000000e+00 
1.000000000000e-01 1.000000000000e-01 3.500000000000e-01 0.000000000000e+00 1.013250000000e+05 1.013250000000e+05 1.000000000000e+00 2.220446049250e-16 0.000000000000e+00 0.000000000000e+00 0.000000000000e+00 0.000000000000e+00 
1.000000000000e-01 1.000000000000e-01 4.000000000000e-01 0.000000000000e+00 1.013250000000e+05 1.013250000000e+05 1.000000000000e+00 3.330669073875e-16 0.000000000000e+00 0.000000000000e+00 0.000000000000e+00 0.000000000000e+00 
1.000000000000e-01 1.000000000000e-01 4.500000000000e-01 0.000000000000e+00 1.013250000000e+05 1.013250000000e+05 1.000000000000e+00 2.220446049250e-16 0.000000000000e+00 0.000000000000e+00 0.000000000000e+00 0.000000000000e+00 
1.000000000000e-01 1.000000000000e-01 5.000000000000e-01 0.000000000000e+00 1.013250000000e+05 1.013250000000e+05 1.000000000000e+00 3.330669073875e-16 0.000000000000e+00 0.000000000000e+00 0.000000000000e+00 0.000000000000e+00 
1.000000000000e-01 1.000000000000e-01 5.500000000000e-01 0.000000000000e+00 1.013250000000e+05 1.013250000000e+05 1.000000000000e+00 3.330669073875e-16 0.000000000000e+00 0.000000000000e+00 0.000000000000e+00 0.000000000000e+00 
1.000000000000e-01 1.000000000000e-01 6.000000000000e-01 0.000000000000e+00 1.013250000000e+05 1.013250000000e+05 1.000000000000e+00 3.330669073875e-16 0.000000000000e+00 0.000000000000e+00 0.000000000000e+00 0.000000000000e+00 
1.000000000000e-01 1.000000000000e-01 6.500000000000e-01 0.000000000000e+00 1.013250000000e+05 1.013250000000e+05 1.000000000000e+00 2.220446049250e-16 0.000000000000e+00 0.000000000000e+00 0.000000000000e+00 0.000000000000e+00 
1.000000000000e-01 1.000000000000e-01 7.000000000000e-01 0.000000000000e+00 1.013250000000e+05 1.013250000000e+05 1.000000000000e+00 3.330669073875e-16 0.000000000000e+00 0.000000000000e+00 0.000000000000e+00 0.000000000000e+00 
1.000000000000e-01 1.000000000000e-01 7.500000000000e-01 0.000000000000e+00 1.013250000000e+05 1.013250000000e+05 1.000000000000e+00 3.330669073875e-16 0.000000000000e+00 0.000000000000e+00 0.000000000000e+00 0.000000000000e+00 
1.000000000000e-01 1.000000000000e-01 8.000000000000e-01 0.000000000000e+00 1.013250000000e+05 1.013250000000e+05 1.000000000000e+00 3.330669073875e-16 0.000000000000e+00 0.000000000000e+00 0.000000000000e+00 0.000000000000e+00 
1.000000000000e-01 1.000000000000e-01 8.500000000000e-01 0.000000000000e+00 1.013250000000e+05 1.013250000000e+05 1.000000000000e+00 3.330669073875e-16 0.000000000000e+00 0.000000000000e+00 0.000000000000e+00 0.000000000000e+00 
1.000000000000e-01 1.000000000000e-01 9.000000000000e-01 0.000000000000e+00 1.013250000000e+05 1.013250000000e+05 1.000000000000e+00 3.330669073875e-16 0.000000000000e+00 0.000000000000e+00 0.000000000000e+00 0.000000000000e+00 
1.000000000000e-01 1.000000000000e-01 9.500000000000e-01 0.000000000000e+00 1.013250000000e+05 1.013250000000e+05 1.000000000000e+00 3.330669073875e-16 0.000000000000e+00 0.000000000000e+00 0.000000000000e+00 0.000000000000e+00 
5.000702428887e-02 4.999978054857e-02 1.000000000000e+00 0.000000000000e+00 1.013250000000e+05 1.013250000000e+05 1.000000000000e+00 0.000000000000e+00 0.000000000000e+00 0.000000000000e+00 0.000000000000e+00 0.000000000000e+00 
0.000000000000e+00 4.899553409118e-02 9.236778107913e-01 0.000000000000e+00 1.013250000000e+05 1.013250000000e+05 1.000000000000e+00 4.440892098501e-16 0.000000000000e+00 0.000000000000e+00 0.000000000000e+00 0.000000000000e+00 
0.000000000000e+00 4.994078075686e-02 3.248460868679e-01 0.000000000000e+00 1.013250000000e+05 1.013250000000e+05 1.000000000000e+00 5.551115123126e-16 0.000000000000e+00 0.000000000000e+00 0.000000000000e+00 0.000000000000e+00 
0.000000000000e+00 4.951246719735e-02 1.247066286551e-01 0.000000000000e+00 1.013250000000e+05 1.013250000000e+05 1.000000000000e+00 4.440892098501e-16 0.000000000000e+00 0.000000000000e+00 0.000000000000e+00 0.000000000000e+00 
0.000000000000e+00 4.942655307133e-02 6.245523925368e-01 0.000000000000e+00 1.013250000000e+05 1.013250000000e+05 1.000000000000e+00 5.551115123126e-16 0.000000000000e+00 0.000000000000e+00 0.000000000000e+00 0.000000000000e+00 
0.000000000000e+00 5.063136068611e-02 4.745413620332e-01 0.000000000000e+00 1.013250000000e+05 1.013250000000e+05 1.000000000000e+00 5.551115123126e-16 0.000000000000e+00 0.000000000000e+00 0.000000000000e+00 0.000000000000e+00 
0.000000000000e+00 4.941486067530e-02 7.745368354412e-01 0.000000000000e+00 1.013250000000e+05 1.013250000000e+05 1.000000000000e+00 4.440892098501e-16 0.000000000000e+00 0.000000000000e+00 0.000000000000e+00 0.000000000000e+00 
0.000000000000e+00 5.003913104122e-02 2.250431879436e-01 0.000000000000e+00 1.013250000000e+05 1.013250000000e+05 1.000000000000e+00 4.440892098501e-16 0.000000000000e+00 0.000000000000e+00 0.000000000000e+00 0.000000000000e+00 
0.000000000000e+00 4.997432286086e-02 7.083865836794e-02 0.000000000000e+00 1.013250000000e+05 1.013250000000e+05 1.000000000000e+00 1.110223024625e-16 0.000000000000e+00 0.000000000000e+00 0.000000000000e+00 0.000000000000e+00 
0.000000000000e+00 4.948851322526e-02 4.227492001168e-01 0.000000000000e+00 1.013250000000e+05 1.013250000000e+05 1.000000000000e+00 4.440892098501e-16 0.000000000000e+00 0.000000000000e+00 0.000000000000e+00 0.000000000000e+00 
0.000000000000e+00 5.060847580458e-02 5.727654918725e-01 0.000000000000e+00 1.013250000000e+05 1.013250000000e+05 1.000000000000e+00 5.551115123126e-16 0.000000000000e+00 0.000000000000e+00 0.000000000000e+00 0.000000000000e+00 
0.000000000000e+00 4.938298063034e-02 7.227526946447e-01 0.000000000000e+00 1.013250000000e+05 1.013250000000e+05 1.000000000000e+00 5.551115123126e-16 0.000000000000e+00 0.000000000000e+00 0.000000000000e+00 0.000000000000e+00 
0.000000000000e+00 4.932871983193e-02 8.726969729975e-01 0.000000000000e+00 1.013250000000e+05 1.013250000000e+05 1.000000000000e+00 1.110223024625e-16 0.000000000000e+00 0.000000000000e+00 0.000000000000e+00 0.000000000000e+00 
0.000000000000e+00 4.688534409568e-02 1.750170694282e-01 0.000000000000e+00 1.013250000000e+05 1.013250000000e+05 1.000000000000e+00 5.551115123126e-16 0.000000000000e+00 0.000000000000e+00 0.000000000000e+00 0.000000000000e+00 
0.000000000000e+00 5.316373538444e-02 2.750135621414e-01 0.000000000000e+00 1.013250000000e+05 1.013250000000e+05 1.000000000000e+00 5.551115123126e-16 0.000000000000e+00 0.000000000000e+00 0.000000000000e+00 0.000000000000e+00 
0.000000000000e+00 4.634030423218e-02 3.737852439230e-01 0.000000000000e+00 1.013250000000e+05 1.013250000000e+05 1.000000000000e+00 5.551115123126e-16 0.000000000000e+00 0.000000000000e+00 0.000000000000e+00 0.000000000000e+00 
0.000000000000e+00 4.625356716263e-02 8.237774233629e-01 0.000000000000e+00 1.013250000000e+05 1.013250000000e+05 1.000000000000e+00 3.330669073875e-16 0.000000000000e+00 0.000000000000e+00 0.000000000000e+00 0.000000000000e+00 
0.000000000000e+00 5.379730290626e-02 5.237812683213e-01 0.000000000000e+00 1.013250000000e+05 1.013250000000e+05 1.000000000000e+00 5.551115123126e-16 0.000000000000e+00 0.000000000000e+00 0.000000000000e+00 0.000000000000e+00 
0.000000000000e+00 4.624960510235e-02 6.737828978102e-01 0.000000000000e+00 1.013250000000e+05 1.013250000000e+05 1.000000000000e+00 5.551115123126e-16 0.000000000000e+00 0.000000000000e+00 0.000000000000e+00 0.000000000000e+00 
0.000000000000e+00 3.864202037338e-02 9.636473039846e-01 0.000000000000e+00 1.013250000000e+05 1.013250000000e+05 1.000000000000e+00 6.661338147751e-16 0.000000000000e+00 0.000000000000e+00 0.000000000000e+00 0.000000000000e+00 
5.005132781491e-02 1.000000000000e-01 1.249771091790e-01 0.000000000000e+00 1.013250000000e+05 1.013250000000e+05 1.000000000000e+00 1.110223024625e-16 0.000000000000e+00 0.000000000000e+00 0.000000000000e+00 0.000000000000e+00 
5.006482253079e-02 1.000000000000e-01 4.250671205906e-01 0.000000000000e+00 1.013250000000e+05 1.013250000000e+05 1.000000000000e+00 0.000000000000e+00 0.000000000000e+00 0.000000000000e+00 0.000000000000e+00 0.000000000000e+00 
5.004557991322e-02 1.000000000000e-01 7.750174240522e-01 0.000000000000e+00 1.013250000000e+05 1.013250000000e+05 1.000000000000e+00 4.440892098501e-16 0.000000000000e+00 0.000000000000e+00 0.000000000000e+00 0.000000000000e+00 
5.004530377334e-02 1.000000000000e-01 2.250805193216e-01 0.000000000000e+00 1.013250000000e+05 1.013250000000e+05 1.000000000000e+00 1.110223024625e-16 0.000000000000e+00 0.000000000000e+00 0.000000000000e+00 0.000000000000e+00 
5.004677773653e-02 1.000000000000e-01 6.749912869471e-01 0.000000000000e+00 1.013250000000e+05 1.013250000000e+05 1.000000000000e+00 5.551115123126e-16 0.000000000000e+00 0.000000000000e+00 0.000000000000e+00 0.000000000000e+00 
5.007404270693e-02 1.000000000000e-01 3.250347347559e-01 0.000000000000e+00 1.013250000000e+05 1.013250000000e+05 1.000000000000e+00 4.440892098501e-16 0.000000000000e+00 0.000000000000e+00 0.000000000000e+00 0.000000000000e+00 
5.000777290457e-02 1.000000000000e-01 5.751099948654e-01 0.000000000000e+00 1.013250000000e+05 1.013250000000e+05 1.000000000000e+00 4.440892098501e-16 0.000000000000e+00 0.000000000000e+00 0.000000000000e+00 0.000000000000e+00 
5.005764789888e-02 1.000000000000e-01 8.750370309438e-01 0.000000000000e+00 1.013250000000e+05 1.013250000000e+05 1.000000000000e+00 4.440892098501e-16 0.000000000000e+00 0.000000000000e+00 0.000000000000e+00 0.000000000000e+00 
5.002560765552e-02 1.000000000000e-01 9.292072817129e-01 0.000000000000e+00 1.013250000000e+05 1.013250000000e+05 1.000000000000e+00 1.110223024625e-16 0.000000000000e+00 0.000000000000e+00 0.000000000000e+00 0.000000000000e+00 
5.006260461812e-02 1.000000000000e-01 5.209428287917e-01 0.000000000000e+00 1.013250000000e+05 1.013250000000e+05 1.000000000000e+00 4.440892098501e-16 0.000000000000e+00 0.000000000000e+00 0.000000000000e+00 0.000000000000e+00 
5.002643527778e-02 1.000000000000e-01 7.081554022703e-02 0.000000000000e+00 1.013250000000e+05 1.013250000000e+05 1.000000000000e+00 1.110223024625e-16 0.000000000000e+00 0.000000000000e+00 0.000000000000e+00 0.000000000000e+00 
5.621493288942e-02 1.000000000000e-01 1.750291853461e-01 0.000000000000e+00 1.013250000000e+05 1.013250000000e+05 1.000000000000e+00 3.330669073875e-16 0.000000000000e+00 0.000000000000e+00 0.000000000000e+00 0.000000000000e+00 
4.385745902591e-02 1.000000000000e-01 3.750503551038e-01 0.000000000000e+00 1.013250000000e+05 1.013250000000e+05 1.000000000000e+00 3.330669073875e-16 0.000000000000e+00 0.000000000000e+00 0.000000000000e+00 0.000000000000e+00 
5.623268675010e-02 1.000000000000e-01 7.250044295837e-01 0.000000000000e+00 1.013250000000e+05 1.013250000000e+05 1.000000000000e+00 5.551115123126e-16 0.000000000000e+00 0.000000000000e+00 0.000000000000e+00 0.000000000000e+00 
5.626269458903e-02 1.000000000000e-01 8.250264780926e-01 0.000000000000e+00 1.013250000000e+05 1.013250000000e+05 1.000000000000e+00 5.551115123126e-16 0.000000000000e+00 0.000000000000e+00 0.000000000000e+00 0.000000000000e+00 
4.379982805898e-02 1.000000000000e-01 2.750594268756e-01 0.000000000000e+00 1.013250000000e+05 1.013250000000e+05 1.000000000000e+00 5.551115123126e-16 0.000000000000e+00 0.000000000000e+00 0.000000000000e+00 0.000000000000e+00 
4.372071009278e-02 1.000000000000e-01 6.250531036950e-01 0.000000000000e+00 1.013250000000e+05 1.013250000000e+05 1.000000000000e+00 5.551115123126e-16 0.000000000000e+00 0.000000000000e+00 0.000000000000e+00 0.000000000000e+00 