 TITLE = "Time curves in points"
 VARIABLES = "TIME "  "PRESSURE1"  "PRESSURE2"  "PRESSURE_W"  "SATURATION1" SATURATION2  "VELOCITY_X1"  "VELOCITY_Y1"  "VELOCITY_X2"  "VELOCITY_Y2" 
 ZONE T="POINT=POINT0"
0.000000000000e+00 0.000000000000e+00 1.013250000000e+05 1.013250000000e+05 1.000000000000e+00 4.440892098501e-16 0.000000000000e+00 0.000000000000e+00 0.000000000000e+00 0.000000000000e+00 
1.000000000000e-03 0.000000000000e+00 1.013250000000e+05 1.013250000000e+05 1.000000000000e+00 1.343369859796e-14 -2.715736627579e-14 -7.781339809298e-15 -3.390379964373e-19 -9.147395057168e-20 
2.000000000000e-03 0.000000000000e+00 1.013250000000e+05 1.013250000000e+05 9.999999999999e-01 7.149836278586e-14 -1.229952089488e-13 -3.464324399828e-14 -1.667754377796e-18 -4.368027540476e-19 
3.000000000000e-03 0.000000000000e+00 1.013250000000e+05 1.013250000000e+05 9.999999999998e-01 2.045030811360e-13 -2.869452349840e-13 -8.000358939165e-14 -4.334709499887e-18 -1.109148273340e-18 
4.000000000000e-03 0.000000000000e+00 1.013250000000e+05 1.013250000000e+05 9.999999999996e-01 4.394262731466e-13 -5.043650977308e-13 -1.410422846673e-13 -8.561256391709e-18 -2.171107161582e-18 
5.000000000000e-03 0.000000000000e+00 1.013250000000e+05 1.013250000000e+05 9.999999999992e-01 8.030243137114e-13 -7.738516665979e-13 -2.172048669303e-13 -1.464001053958e-17 -3.693252517821e-18 
6.000000000000e-03 0.000000000000e+00 1.013250000000e+05 1.013250000000e+05 9.999999999987e-01 1.321165399304e-12 -1.106531918045e-12 -3.098127432154e-13 -2.294591126063e-17 -5.741268078038e-18 
7.000000000000e-03 0.000000000000e+00 1.013250000000e+05 1.013250000000e+05 9.999999999980e-01 2.015831945812e-12 -1.478758826844e-12 -4.149519838365e-13 -3.358124637564e-17 -8.360714021657e-18 
8.000000000000e-03 0.000000000000e+00 1.013250000000e+05 1.013250000000e+05 9.999999999971e-01 2.911226815172e-12 -1.906711142495e-12 -5.346744786897e-13 -4.691989080531e-17 -1.161456947700e-17 
9.000000000000e-03 0.000000000000e+00 1.013250000000e+05 1.013250000000e+05 9.999999999960e-01 4.027889133340e-12 -2.370679657881e-12 -6.656396202655e-13 -6.306157885480e-17 -1.554215972862e-17 
1.000000000000e-02 0.000000000000e+00 1.013250000000e+05 1.013250000000e+05 9.999999999946e-01 5.386580070876e-12 -2.884733397472e-12 -8.097257930643e-13 -8.233526586333e-17 -2.019777381501e-17 
2.000000000000e-02 0.000000000000e+00 1.013250000000e+05 1.013250000000e+05 9.999999999704e-01 2.962141643081e-11 -5.009930580459e-12 -1.418873062220e-12 -3.675506825503e-16 -8.417309196561e-17 
3.000000000000e-02 0.000000000000e+00 1.013250000000e+05 1.013250000000e+05 9.999999999358e-01 6.424238918612e-11 -7.023136316525e-12 -2.004108018752e-12 -7.562583087523e-16 -1.677487287480e-16 
4.000000000000e-02 0.000000000000e+00 1.013250000000e+05 1.013250000000e+05 9.999999998945e-01 1.055480147727e-10 -8.208301381687e-12 -2.364222238888e-12 -1.196902727191e-15 -2.580250451851e-16 
5.000000000000e-02 0.000000000000e+00 1.013250000000e+05 1.013250000000e+05 9.999999998436e-01 1.564068874416e-10 -9.960688273912e-12 -2.891599432020e-12 -1.728620299416e-15 -3.640250559303e-16 
6.000000000000e-02 0.000000000000e+00 1.013250000000e+05 1.013250000000e+05 9.999999997827e-01 2.173394797467e-10 -1.177547675804e-11 -3.445369561553e-12 -2.349869736456e-15 -4.845484149180e-16 
7.000000000000e-02 0.000000000000e+00 1.013250000000e+05 1.013250000000e+05 9.999999997112e-01 2.887659000805e-10 -1.363119742710e-11 -4.020215567140e-12 -3.061178573914e-15 -6.190893021536e-16 
8.000000000000e-02 0.000000000000e+00 1.013250000000e+05 1.013250000000e+05 9.999999996310e-01 3.690003858026e-10 -1.508931162206e-11 -4.492430616355e-12 -3.836588676050e-15 -7.610968289338e-16 
9.000000000000e-02 0.000000000000e+00 1.013250000000e+05 1.013250000000e+05 9.999999995422e-01 4.577678236473e-10 -1.645905122004e-11 -4.948421653434e-12 -4.672093941512e-15 -9.096022660284e-16 
1.000000000000e-01 0.000000000000e+00 1.013250000000e+05 1.013250000000e+05 9.999999994453e-01 5.547441395137e-10 -1.773064962744e-11 -5.385539577868e-12 -5.561403053906e-15 -1.063119412692e-15 
2.000000000000e-01 0.000000000000e+00 1.013250000000e+05 1.013250000000e+05 9.999999980399e-01 1.960134388135e-09 -2.217780153650e-11 -7.800626519496e-12 -1.523449600617e-14 -2.384747846613e-15 
3.000000000000e-01 0.000000000000e+00 1.013250000000e+05 1.013250000000e+05 9.999999963152e-01 3.684795579773e-09 -2.462636990235e-11 -9.765568774045e-12 -2.473889649341e-14 -3.530030785320e-15 
4.000000000000e-01 0.000000000000e+00 1.013250000000e+05 1.013250000000e+05 9.999999943504e-01 5.649578582734e-09 -2.604412257221e-11 -1.140517455862e-11 -3.366869623782e-14 -4.555715374400e-15 
5.000000000000e-01 0.000000000000e+00 1.013250000000e+05 1.013250000000e+05 9.999999922014e-01 7.798645507151e-09 -2.691068127331e-11 -1.278605611809e-11 -4.189515423848e-14 -5.509597448400e-15 
6.000000000000e-01 0.000000000000e+00 1.013250000000e+05 1.013250000000e+05 9.999999899083e-01 1.009174988020e-08 -2.749171294517e-11 -1.395498950430e-11 -4.942134627577e-14 -6.424429105971e-15 
7.000000000000e-01 0.000000000000e+00 1.013250000000e+05 1.013250000000e+05 9.999999875041e-01 1.249589232089e-08 -2.785534234872e-11 -1.492720924916e-11 -5.627913520355e-14 -7.315535580451e-15 
8.000000000000e-01 0.000000000000e+00 1.013250000000e+05 1.013250000000e+05 9.999999850165e-01 1.498348023432e-08 -2.806010115543e-11 -1.572154194905e-11 -6.251082738114e-14 -8.188740409461e-15 
9.000000000000e-01 0.000000000000e+00 1.013250000000e+05 1.013250000000e+05 9.999999824699e-01 1.753011091843e-08 -2.810027375062e-11 -1.634771271120e-11 -6.815233177328e-14 -9.043495732438e-15 
1.000000000000e+00 0.000000000000e+00 1.013250000000e+05 1.013250000000e+05 9.999999798787e-01 2.012126598672e-08 -2.811444567977e-11 -1.685939882517e-11 -7.329238781918e-14 -9.886116329656e-15 
2.000000000000e+00 0.000000000000e+00 1.013250000000e+05 1.013250000000e+05 9.999999538163e-01 4.618370197385e-08 -2.680572789788e-11 -1.781048481335e-11 -1.034433805994e-13 -1.683178630800e-14 
3.000000000000e+00 0.000000000000e+00 1.013250000000e+05 1.013250000000e+05 9.999999287366e-01 7.126339462982e-08 -2.525905153273e-11 -1.744582425700e-11 -1.234279460589e-13 -2.239429004876e-14 
4.000000000000e+00 0.000000000000e+00 1.013250000000e+05 1.013250000000e+05 9.999999049925e-01 9.500754738490e-08 -2.360269241420e-11 -1.662621771759e-11 -1.375002496660e-13 -2.679267869525e-14 
5.000000000000e+00 0.000000000000e+00 1.013250000000e+05 1.013250000000e+05 9.999998825915e-01 1.174084565125e-07 -2.204872185018e-11 -1.571582657634e-11 -1.479029959584e-13 -3.029657683515e-14 
6.000000000000e+00 0.000000000000e+00 1.013250000000e+05 1.013250000000e+05 9.999998614541e-01 1.385458624492e-07 -2.061941889306e-11 -1.482717029722e-11 -1.558295464441e-13 -3.311718119743e-14 
7.000000000000e+00 0.000000000000e+00 1.013250000000e+05 1.013250000000e+05 9.999998414703e-01 1.585296620643e-07 -1.932461798510e-11 -1.400120491668e-11 -1.620084040163e-13 -3.541485062483e-14 
8.000000000000e+00 0.000000000000e+00 1.013250000000e+05 1.013250000000e+05 9.999998225220e-01 1.774780038488e-07 -1.817140011542e-11 -1.325220687921e-11 -1.669203086203e-13 -3.730874353100e-14 
9.000000000000e+00 0.000000000000e+00 1.013250000000e+05 1.013250000000e+05 9.999998044918e-01 1.955082187255e-07 -1.713663623701e-11 -1.258210483574e-11 -1.708953598176e-13 -3.888669759945e-14 
1.000000000000e+01 0.000000000000e+00 1.013250000000e+05 1.013250000000e+05 9.999997872664e-01 2.127336400370e-07 -1.623559227069e-11 -1.199130235175e-11 -1.741656839804e-13 -4.021322952824e-14 
1.100000000000e+01 0.000000000000e+00 1.013250000000e+05 1.013250000000e+05 9.999997707405e-01 2.292595232545e-07 -1.544529508242e-11 -1.147482558965e-11 -1.768856333754e-13 -4.133366607708e-14 
1.200000000000e+01 0.000000000000e+00 1.013250000000e+05 1.013250000000e+05 9.999997548132e-01 2.451868410525e-07 -1.476798261527e-11 -1.103066413363e-11 -1.791647768227e-13 -4.228018469235e-14 
1.300000000000e+01 0.000000000000e+00 1.013250000000e+05 1.013250000000e+05 9.999997393852e-01 2.606147784245e-07 -1.419713708466e-11 -1.065791900959e-11 -1.810807203656e-13 -4.307502057834e-14 
1.400000000000e+01 0.000000000000e+00 1.013250000000e+05 1.013250000000e+05 9.999997243576e-01 2.756424334338e-07 -1.374068942174e-11 -1.035744892786e-11 -1.826867932180e-13 -4.373279209399e-14 
1.500000000000e+01 0.000000000000e+00 1.013250000000e+05 1.013250000000e+05 9.999997096302e-01 2.903698277379e-07 -1.338704996003e-11 -1.012937583173e-11 -1.840170157646e-13 -4.426222697745e-14 
1.600000000000e+01 0.000000000000e+00 1.013250000000e+05 1.013250000000e+05 9.999996951002e-01 3.048998438171e-07 -1.314915613902e-11 -9.976466990321e-12 -1.850944182741e-13 -4.466818056860e-14 
1.700000000000e+01 0.000000000000e+00 1.013250000000e+05 1.013250000000e+05 9.999996806615e-01 3.193384567890e-07 -1.303563542610e-11 -9.901368973570e-12 -1.859327669787e-13 -4.495276277939e-14 
1.800000000000e+01 0.000000000000e+00 1.013250000000e+05 1.013250000000e+05 9.999996662043e-01 3.337956677729e-07 -1.303835568868e-11 -9.906186462440e-12 -1.865421948961e-13 -4.511675805342e-14 
1.900000000000e+01 0.000000000000e+00 1.013250000000e+05 1.013250000000e+05 9.999996516153e-01 3.483846600094e-07 -1.316235358998e-11 -9.993401322077e-12 -1.869292479978e-13 -4.516025013023e-14 
2.000000000000e+01 0.000000000000e+00 1.013250000000e+05 1.013250000000e+05 9.999996367788e-01 3.632211873494e-07 -1.341039765130e-11 -1.016448204590e-11 -1.870994865305e-13 -4.508342713107e-14 
2.100000000000e+01 0.000000000000e+00 1.013250000000e+05 1.013250000000e+05 9.999996215782e-01 3.784217963432e-07 -1.378483645971e-11 -1.042018801824e-11 -1.870567565488e-13 -4.488679394289e-14 
2.200000000000e+01 0.000000000000e+00 1.013250000000e+05 1.013250000000e+05 9.999996058965e-01 3.941035195965e-07 -1.428281847395e-11 -1.076030799942e-11 -1.868077202527e-13 -4.457205258664e-14 
2.300000000000e+01 0.000000000000e+00 1.013250000000e+05 1.013250000000e+05 9.999995896187e-01 4.103812711875e-07 -1.490618684992e-11 -1.118380345551e-11 -1.863580560626e-13 -4.414168960040e-14 
2.400000000000e+01 0.000000000000e+00 1.013250000000e+05 1.013250000000e+05 9.999995726331e-01 4.273668554600e-07 -1.564595198313e-11 -1.168754624621e-11 -1.857153570362e-13 -4.359941533283e-14 
2.500000000000e+01 0.000000000000e+00 1.013250000000e+05 1.013250000000e+05 9.999995548328e-01 4.451672197536e-07 -1.648848740604e-11 -1.226756333597e-11 -1.848879950480e-13 -4.295001054152e-14 
2.600000000000e+01 0.000000000000e+00 1.013250000000e+05 1.013250000000e+05 9.999995361170e-01 4.638830173320e-07 -1.744358984780e-11 -1.291987917220e-11 -1.838852185432e-13 -4.219919464154e-14 
2.700000000000e+01 0.000000000000e+00 1.013250000000e+05 1.013250000000e+05 9.999995163919e-01 4.836080568227e-07 -1.849110250674e-11 -1.363893654075e-11 -1.827187281623e-13 -4.135383787679e-14 
2.800000000000e+01 0.000000000000e+00 1.013250000000e+05 1.013250000000e+05 9.999994955720e-01 5.044279524080e-07 -1.962488729540e-11 -1.441859233187e-11 -1.814007965876e-13 -4.042153052826e-14 
2.900000000000e+01 0.000000000000e+00 1.013250000000e+05 1.013250000000e+05 9.999994735808e-01 5.264191637044e-07 -2.082882077982e-11 -1.525186734296e-11 -1.799437293341e-13 -3.941037098789e-14 
3.000000000000e+01 0.000000000000e+00 1.013250000000e+05 1.013250000000e+05 9.999994503512e-01 5.496488277856e-07 -2.210362209696e-11 -1.613265241059e-11 -1.783610405427e-13 -3.832896414720e-14 
3.100000000000e+01 0.000000000000e+00 1.013250000000e+05 1.013250000000e+05 9.999994258257e-01 5.741742816756e-07 -2.343068593661e-11 -1.705304800176e-11 -1.766662377804e-13 -3.718612848319e-14 
3.200000000000e+01 0.000000000000e+00 1.013250000000e+05 1.013250000000e+05 9.999993999569e-01 6.000430603503e-07 -2.479879730329e-11 -1.800590392499e-11 -1.748731442432e-13 -3.599080417630e-14 
3.300000000000e+01 0.000000000000e+00 1.013250000000e+05 1.013250000000e+05 9.999993727071e-01 6.272929076179e-07 -2.619816193368e-11 -1.898423217962e-11 -1.729954495974e-13 -3.475187726576e-14 
3.400000000000e+01 0.000000000000e+00 1.013250000000e+05 1.013250000000e+05 9.999993440480e-01 6.559520384641e-07 -2.762347658169e-11 -1.998132514037e-11 -1.710466977673e-13 -3.347806789186e-14 
3.500000000000e+01 0.000000000000e+00 1.013250000000e+05 1.013250000000e+05 9.999993139607e-01 6.860393433339e-07 -2.905823561170e-11 -2.099010680126e-11 -1.690396934604e-13 -3.217778070251e-14 
3.600000000000e+01 0.000000000000e+00 1.013250000000e+05 1.013250000000e+05 9.999992824351e-01 7.175648963909e-07 -3.049485507252e-11 -2.200406944980e-11 -1.669868100085e-13 -3.085905029383e-14 
3.700000000000e+01 0.000000000000e+00 1.013250000000e+05 1.013250000000e+05 9.999992494696e-01 7.505304362443e-07 -3.193321927536e-11 -2.301816759524e-11 -1.648997390884e-13 -2.952946898552e-14 
3.800000000000e+01 0.000000000000e+00 1.013250000000e+05 1.013250000000e+05 9.999992150702e-01 7.849297870566e-07 -3.334937193997e-11 -2.402537804653e-11 -1.627890385250e-13 -2.819608514417e-14 
3.900000000000e+01 0.000000000000e+00 1.013250000000e+05 1.013250000000e+05 9.999991792503e-01 8.207497477208e-07 -3.474746711722e-11 -2.502134933826e-11 -1.606652647528e-13 -2.686553959993e-14 
4.000000000000e+01 0.000000000000e+00 1.013250000000e+05 1.013250000000e+05 9.999991420296e-01 8.579704117162e-07 -3.611837189831e-11 -2.600131762086e-11 -1.585376908039e-13 -2.554388864648e-14 
4.100000000000e+01 0.000000000000e+00 1.013250000000e+05 1.013250000000e+05 9.999991034342e-01 8.965658180315e-07 -3.744842213486e-11 -2.696034177185e-11 -1.564147200882e-13 -2.423664812993e-14 
4.200000000000e+01 0.000000000000e+00 1.013250000000e+05 1.013250000000e+05 9.999990634953e-01 9.365047122234e-07 -3.874248602302e-11 -2.789542694244e-11 -1.543044260516e-13 -2.294883645249e-14 
4.300000000000e+01 0.000000000000e+00 1.013250000000e+05 1.013250000000e+05 9.999990222488e-01 9.777511593700e-07 -3.999212217277e-11 -2.880293078824e-11 -1.522142695124e-13 -2.168500351584e-14 
4.400000000000e+01 0.000000000000e+00 1.013250000000e+05 1.013250000000e+05 9.999989797351e-01 1.020264905449e-06 -4.119201480221e-11 -2.967966107453e-11 -1.501505129057e-13 -2.044913240881e-14 
4.500000000000e+01 0.000000000000e+00 1.013250000000e+05 1.013250000000e+05 9.999989359979e-01 1.064002123741e-06 -4.234229467771e-11 -3.052354454951e-11 -1.481190313987e-13 -1.924475766885e-14 
4.600000000000e+01 0.000000000000e+00 1.013250000000e+05 1.013250000000e+05 9.999988910841e-01 1.108915906101e-06 -4.343614734521e-11 -3.133217981460e-11 -1.461250864673e-13 -1.807495462654e-14 
4.700000000000e+01 0.000000000000e+00 1.013250000000e+05 1.013250000000e+05 9.999988450432e-01 1.154956758898e-06 -4.447276061640e-11 -3.210365581266e-11 -1.441730765933e-13 -1.694232833492e-14 
4.800000000000e+01 0.000000000000e+00 1.013250000000e+05 1.013250000000e+05 9.999987979270e-01 1.202072956952e-06 -4.545015806329e-11 -3.283664235318e-11 -1.422664660636e-13 -1.584899625253e-14 
4.900000000000e+01 0.000000000000e+00 1.013250000000e+05 1.013250000000e+05 9.999987497886e-01 1.250211406068e-06 -4.636442453377e-11 -3.352993246170e-11 -1.404088170695e-13 -1.479673360966e-14 
5.000000000000e+01 0.000000000000e+00 1.013250000000e+05 1.013250000000e+05 9.999987006822e-01 1.299317793357e-06 -4.722096132934e-11 -3.418339036716e-11 -1.386025273779e-13 -1.378683541087e-14 
5.100000000000e+01 0.000000000000e+00 1.013250000000e+05 1.013250000000e+05 9.999986506630e-01 1.349337019452e-06 -4.801681386392e-11 -3.479614982138e-11 -1.368498739774e-13 -1.282032549699e-14 
5.200000000000e+01 0.000000000000e+00 1.013250000000e+05 1.013250000000e+05 9.999985997865e-01 1.400213472058e-06 -4.874787085694e-11 -3.536764003911e-11 -1.351520501478e-13 -1.189786697729e-14 
5.300000000000e+01 0.000000000000e+00 1.013250000000e+05 1.013250000000e+05 9.999985481085e-01 1.451891514126e-06 -4.941649853877e-11 -3.589812129737e-11 -1.335107925906e-13 -1.101996204319e-14 
5.400000000000e+01 0.000000000000e+00 1.013250000000e+05 1.013250000000e+05 9.999984956845e-01 1.504315549239e-06 -5.002594575013e-11 -3.638805378123e-11 -1.319267200289e-13 -1.018678250843e-14 
5.500000000000e+01 0.000000000000e+00 1.013250000000e+05 1.013250000000e+05 9.999984425697e-01 1.557430331145e-06 -5.057155807071e-11 -3.683721623255e-11 -1.304004003186e-13 -9.398309978852e-15 
5.600000000000e+01 0.000000000000e+00 1.013250000000e+05 1.013250000000e+05 9.999983888187e-01 1.611181281391e-06 -5.106206356704e-11 -3.724676536926e-11 -1.289320484079e-13 -8.654261760059e-15 
5.700000000000e+01 0.000000000000e+00 1.013250000000e+05 1.013250000000e+05 9.999983344852e-01 1.665514819837e-06 -5.149185983196e-11 -3.761701805020e-11 -1.275217325575e-13 -7.954182073714e-15 
5.800000000000e+01 0.000000000000e+00 1.013250000000e+05 1.013250000000e+05 9.999982796217e-01 1.720378334902e-06 -5.186610928605e-11 -3.794911842152e-11 -1.261688866007e-13 -7.297402108602e-15 
5.900000000000e+01 0.000000000000e+00 1.013250000000e+05 1.013250000000e+05 9.999982242796e-01 1.775720378516e-06 -5.218715049870e-11 -3.824382213047e-11 -1.248730339870e-13 -6.683172603988e-15 
6.000000000000e+01 0.000000000000e+00 1.013250000000e+05 1.013250000000e+05 9.999981685093e-01 1.831490731741e-06 -5.244989655096e-11 -3.850187728279e-11 -1.236333052946e-13 -6.110683155361e-15 
6.100000000000e+01 0.000000000000e+00 1.013250000000e+05 1.013250000000e+05 9.999981123595e-01 1.887640525666e-06 -5.266189869026e-11 -3.872451603256e-11 -1.224490944177e-13 -5.579037292845e-15 
6.200000000000e+01 0.000000000000e+00 1.013250000000e+05 1.013250000000e+05 9.999980558778e-01 1.944122229092e-06 -5.282661446167e-11 -3.891300825277e-11 -1.213195595386e-13 -5.087297978274e-15 
6.300000000000e+01 0.000000000000e+00 1.013250000000e+05 1.013250000000e+05 9.999979991103e-01 2.000889743559e-06 -5.293978172111e-11 -3.906799392172e-11 -1.202433710891e-13 -4.634370958973e-15 
6.400000000000e+01 0.000000000000e+00 1.013250000000e+05 1.013250000000e+05 9.999979421014e-01 2.057898556340e-06 -5.300786039277e-11 -3.919099436592e-11 -1.192193193977e-13 -4.219110587608e-15 
6.500000000000e+01 0.000000000000e+00 1.013250000000e+05 1.013250000000e+05 9.999978848941e-01 2.115105868894e-06 -5.302749860232e-11 -3.928294627990e-11 -1.182459906125e-13 -3.840237496919e-15 
6.600000000000e+01 0.000000000000e+00 1.013250000000e+05 1.013250000000e+05 9.999978275293e-01 2.172470650375e-06 -5.300899599552e-11 -3.934576074302e-11 -1.173219640249e-13 -3.496446784309e-15 
6.700000000000e+01 0.000000000000e+00 1.013250000000e+05 1.013250000000e+05 9.999977700465e-01 2.229953458222e-06 -5.294804767946e-11 -3.938017957022e-11 -1.164456793539e-13 -3.186492212685e-15 
6.800000000000e+01 0.000000000000e+00 1.013250000000e+05 1.013250000000e+05 9.999977124836e-01 2.287516405852e-06 -5.284505349448e-11 -3.938729409739e-11 -1.156160756684e-13 -2.909229495698e-15 
6.900000000000e+01 0.000000000000e+00 1.013250000000e+05 1.013250000000e+05 9.999976548769e-01 2.345123058634e-06 -5.271002893284e-11 -3.936871994035e-11 -1.148315032520e-13 -2.663445641999e-15 
7.000000000000e+01 0.000000000000e+00 1.013250000000e+05 1.013250000000e+05 9.999975972615e-01 2.402738475071e-06 -5.253809075319e-11 -3.932513353348e-11 -1.140909061019e-13 -2.448102482476e-15 
7.100000000000e+01 0.000000000000e+00 1.013250000000e+05 1.013250000000e+05 9.999975396707e-01 2.460329327825e-06 -5.233216591774e-11 -3.925776450925e-11 -1.133928291634e-13 -2.262034333155e-15 
7.200000000000e+01 0.000000000000e+00 1.013250000000e+05 1.013250000000e+05 9.999974821361e-01 2.517863867624e-06 -5.208922944172e-11 -3.916758224533e-11 -1.127356564488e-13 -2.103889742180e-15 
7.300000000000e+01 0.000000000000e+00 1.013250000000e+05 1.013250000000e+05 9.999974246881e-01 2.575311937369e-06 -5.182495203431e-11 -3.905680332879e-11 -1.121178881270e-13 -1.972395899933e-15 
7.400000000000e+01 0.000000000000e+00 1.013250000000e+05 1.013250000000e+05 9.999973673548e-01 2.632645172085e-06 -5.152548104645e-11 -3.892531085269e-11 -1.115376909291e-13 -1.866221468400e-15 
7.500000000000e+01 0.000000000000e+00 1.013250000000e+05 1.013250000000e+05 9.999973101632e-01 2.689836789305e-06 -5.120114627460e-11 -3.877507372057e-11 -1.109934054228e-13 -1.783938036646e-15 
7.600000000000e+01 0.000000000000e+00 1.013250000000e+05 1.013250000000e+05 9.999972531385e-01 2.746861462621e-06 -5.085582014230e-11 -3.860750260654e-11 -1.104838210223e-13 -1.724601239298e-15 
7.700000000000e+01 0.000000000000e+00 1.013250000000e+05 1.013250000000e+05 9.999971963049e-01 2.803695096310e-06 -5.048232613655e-11 -3.842260758346e-11 -1.100076320817e-13 -1.687063312402e-15 
7.800000000000e+01 0.000000000000e+00 1.013250000000e+05 1.013250000000e+05 9.999971396853e-01 2.860314679332e-06 -5.009043078484e-11 -3.822203191699e-11 -1.095638866213e-13 -1.670667504389e-15 
7.900000000000e+01 0.000000000000e+00 1.013250000000e+05 1.013250000000e+05 9.999970833017e-01 2.916698262689e-06 -4.967514020340e-11 -3.800583848331e-11 -1.091515265408e-13 -1.674413442491e-15 
8.000000000000e+01 0.000000000000e+00 1.013250000000e+05 1.013250000000e+05 9.999970271749e-01 2.972825095759e-06 -4.924121696170e-11 -3.777550207360e-11 -1.087694897061e-13 -1.697410340447e-15 
8.100000000000e+01 0.000000000000e+00 1.013250000000e+05 1.013250000000e+05 9.999969713243e-01 3.028675737760e-06 -4.878815061706e-11 -3.753149291767e-11 -1.084160968192e-13 -1.738578930032e-15 
8.200000000000e+01 0.000000000000e+00 1.013250000000e+05 1.013250000000e+05 9.999969157678e-01 3.084232199413e-06 -4.831950429550e-11 -3.727530214982e-11 -1.080897756985e-13 -1.796660029000e-15 
8.300000000000e+01 0.000000000000e+00 1.013250000000e+05 1.013250000000e+05 9.999968605219e-01 3.139478119141e-06 -4.783657551274e-11 -3.700801731902e-11 -1.077888008935e-13 -1.870459813833e-15 
8.400000000000e+01 0.000000000000e+00 1.013250000000e+05 1.013250000000e+05 9.999968056013e-01 3.194398685902e-06 -4.733854453463e-11 -3.673048834957e-11 -1.075110604979e-13 -1.958509012553e-15 
8.500000000000e+01 0.000000000000e+00 1.013250000000e+05 1.013250000000e+05 9.999967510196e-01 3.248980405268e-06 -4.683057373401e-11 -3.644406178503e-11 -1.072555656892e-13 -2.059757237987e-15 
8.600000000000e+01 0.000000000000e+00 1.013250000000e+05 1.013250000000e+05 9.999966967892e-01 3.303210843519e-06 -4.631106386456e-11 -3.614913995872e-11 -1.070207701995e-13 -2.173345663066e-15 
8.700000000000e+01 0.000000000000e+00 1.013250000000e+05 1.013250000000e+05 9.999966429217e-01 3.357078333543e-06 -4.578101823611e-11 -3.584653255887e-11 -1.068063051658e-13 -2.298694576049e-15 
8.800000000000e+01 0.000000000000e+00 1.013250000000e+05 1.013250000000e+05 9.999965894281e-01 3.410571887352e-06 -4.524339395880e-11 -3.553665323066e-11 -1.066111000540e-13 -2.435130924509e-15 
8.900000000000e+01 0.000000000000e+00 1.013250000000e+05 1.013250000000e+05 9.999965363187e-01 3.463681277127e-06 -4.469508305861e-11 -3.521998351511e-11 -1.064345656860e-13 -2.582189606211e-15 
9.000000000000e+01 0.000000000000e+00 1.013250000000e+05 1.013250000000e+05 9.999964836031e-01 3.516396910319e-06 -4.414222102912e-11 -3.489722874201e-11 -1.062760213198e-13 -2.739291754115e-15 
9.100000000000e+01 0.000000000000e+00 1.013250000000e+05 1.013250000000e+05 9.999964312900e-01 3.568710035040e-06 -4.358155908090e-11 -3.456873843780e-11 -1.061345905920e-13 -2.905750180006e-15 
9.200000000000e+01 0.000000000000e+00 1.013250000000e+05 1.013250000000e+05 9.999963793871e-01 3.620612864741e-06 -4.301440226560e-11 -3.423524936590e-11 -1.060089243977e-13 -3.080732127943e-15 
9.300000000000e+01 0.000000000000e+00 1.013250000000e+05 1.013250000000e+05 9.999963279014e-01 3.672098558560e-06 -4.244264906608e-11 -3.389744925510e-11 -1.058979156697e-13 -3.263298323779e-15 
9.400000000000e+01 0.000000000000e+00 1.013250000000e+05 1.013250000000e+05 9.999962768389e-01 3.723161075775e-06 -4.186948038124e-11 -3.355630746185e-11 -1.058007043379e-13 -3.453002731838e-15 
9.500000000000e+01 0.000000000000e+00 1.013250000000e+05 1.013250000000e+05 9.999962262052e-01 3.773794781670e-06 -4.128924854705e-11 -3.321148704146e-11 -1.057170391240e-13 -3.649523314279e-15 
9.600000000000e+01 0.000000000000e+00 1.013250000000e+05 1.013250000000e+05 9.999961760057e-01 3.823994287111e-06 -4.070509925769e-11 -3.286324321904e-11 -1.056464619886e-13 -3.852485784903e-15 
9.700000000000e+01 0.000000000000e+00 1.013250000000e+05 1.013250000000e+05 9.999961262456e-01 3.873754371497e-06 -4.012303975498e-11 -3.251248248444e-11 -1.055889032075e-13 -4.061809635060e-15 
9.800000000000e+01 0.000000000000e+00 1.013250000000e+05 1.013250000000e+05 9.999960769298e-01 3.923070238110e-06 -3.953566219595e-11 -3.215841653317e-11 -1.055442074813e-13 -4.277206809464e-15 
9.900000000000e+01 0.000000000000e+00 1.013250000000e+05 1.013250000000e+05 9.999960280622e-01 3.971937780345e-06 -3.894737960258e-11 -3.180222971266e-11 -1.055108886197e-13 -4.497997349652e-15 
1.000000000000e+02 0.000000000000e+00 1.013250000000e+05 1.013250000000e+05 9.999959796464e-01 4.020353645218e-06 -3.835074138909e-11 -3.144379127156e-11 -1.054882386566e-13 -4.723597826368e-15 
1.010000000000e+02 0.000000000000e+00 1.013250000000e+05 1.013250000000e+05 9.999959316847e-01 4.068315323735e-06 -3.776080462726e-11 -3.108471427851e-11 -1.054754650453e-13 -4.953159273919e-15 
1.020000000000e+02 0.000000000000e+00 1.013250000000e+05 1.013250000000e+05 9.999958841789e-01 4.115821088724e-06 -3.716954038604e-11 -3.072498113614e-11 -1.054710715852e-13 -5.186172059360e-15 
1.030000000000e+02 0.000000000000e+00 1.013250000000e+05 1.013250000000e+05 9.999958371299e-01 4.162870066438e-06 -3.658309922902e-11 -3.036531728437e-11 -1.054740557482e-13 -5.421697361963e-15 
1.040000000000e+02 0.000000000000e+00 1.013250000000e+05 1.013250000000e+05 9.999957905380e-01 4.209462029836e-06 -3.599466423703e-11 -3.000620677586e-11 -1.054837529087e-13 -5.659304551984e-15 
1.050000000000e+02 0.000000000000e+00 1.013250000000e+05 1.013250000000e+05 9.999957444028e-01 4.255597240155e-06 -3.541256104721e-11 -2.964777910173e-11 -1.054993518651e-13 -5.898494220651e-15 
1.060000000000e+02 0.000000000000e+00 1.013250000000e+05 1.013250000000e+05 9.999956987241e-01 4.301275949192e-06 -3.482998279906e-11 -2.929008581321e-11 -1.055213724259e-13 -6.139291782019e-15 
1.070000000000e+02 0.000000000000e+00 1.013250000000e+05 1.013250000000e+05 9.999956535019e-01 4.346498108987e-06 -3.424936607773e-11 -2.893292322889e-11 -1.055497692629e-13 -6.382021236516e-15 
1.080000000000e+02 0.000000000000e+00 1.013250000000e+05 1.013250000000e+05 9.999956087364e-01 4.391263645154e-06 -3.367480203398e-11 -2.857656668620e-11 -1.055849280545e-13 -6.626673884372e-15 
1.090000000000e+02 0.000000000000e+00 1.013250000000e+05 1.013250000000e+05 9.999955644274e-01 4.435572646289e-06 -3.309631046278e-11 -2.822048310825e-11 -1.056266172699e-13 -6.873127457671e-15 
1.100000000000e+02 0.000000000000e+00 1.013250000000e+05 1.013250000000e+05 9.999955205741e-01 4.479425885329e-06 -3.252387910727e-11 -2.786572230634e-11 -1.056732584839e-13 -7.120541408343e-15 
1.110000000000e+02 0.000000000000e+00 1.013250000000e+05 1.013250000000e+05 9.999954771749e-01 4.522825089781e-06 -3.195761860421e-11 -2.751313167803e-11 -1.057239691289e-13 -7.368233650585e-15 
1.120000000000e+02 0.000000000000e+00 1.013250000000e+05 1.013250000000e+05 9.999954342271e-01 4.565772934173e-06 -3.139063660403e-11 -2.716256286832e-11 -1.057773323781e-13 -7.615344933101e-15 
1.130000000000e+02 0.000000000000e+00 1.013250000000e+05 1.013250000000e+05 9.999953917269e-01 4.608273103002e-06 -3.083859112579e-11 -2.681596337306e-11 -1.058318917189e-13 -7.860973381896e-15 
1.140000000000e+02 0.000000000000e+00 1.013250000000e+05 1.013250000000e+05 9.999953496696e-01 4.650330386768e-06 -3.028977951101e-11 -2.647308300145e-11 -1.058859360959e-13 -8.104082757497e-15 
1.150000000000e+02 0.000000000000e+00 1.013250000000e+05 1.013250000000e+05 9.999953080492e-01 4.691950795888e-06 -2.974921071373e-11 -2.613521044731e-11 -1.059379576923e-13 -8.343559485653e-15 
1.160000000000e+02 0.000000000000e+00 1.013250000000e+05 1.013250000000e+05 9.999952668587e-01 4.733141318880e-06 -2.921781762248e-11 -2.580288256007e-11 -1.059866375479e-13 -8.578503142795e-15 
1.170000000000e+02 0.000000000000e+00 1.013250000000e+05 1.013250000000e+05 9.999952260907e-01 4.773909259237e-06 -2.869359111815e-11 -2.547603647402e-11 -1.060313899453e-13 -8.808629946267e-15 
1.180000000000e+02 0.000000000000e+00 1.013250000000e+05 1.013250000000e+05 9.999951857388e-01 4.814261211461e-06 -2.818075561464e-11 -2.515480168064e-11 -1.060737741898e-13 -9.034631272179e-15 
1.190000000000e+02 0.000000000000e+00 1.013250000000e+05 1.013250000000e+05 9.999951457973e-01 4.854202701243e-06 -2.767744783382e-11 -2.483816230461e-11 -1.061149158415e-13 -9.257576252060e-15 
1.200000000000e+02 0.000000000000e+00 1.013250000000e+05 1.013250000000e+05 9.999951062620e-01 4.893737996836e-06 -2.718071821981e-11 -2.452506852596e-11 -1.061566411355e-13 -9.478316324715e-15 
