 TITLE = "Profiles along polylines"
 VARIABLES = "DIST" "PRESSURE1" "PRESSURE2" "PRESSURE_W" "SATURATION1" SATURATION2 "VELOCITY_X1" "VELOCITY_Y1" "VELOCITY_X2" "VELOCITY_Y2" 
 ZONE T="TIME=0.000000000000e+00"
0.000000000000e+00 0.000000000000e+00 1.013250000000e+05 1.013250000000e+05 1.000000000000e+00 4.440892098501e-16 0.000000000000e+00 0.000000000000e+00 0.000000000000e+00 0.000000000000e+00 
5.000000000000e-02 0.000000000000e+00 1.013250000000e+05 1.013250000000e+05 1.000000000000e+00 3.330669073875e-16 0.000000000000e+00 0.000000000000e+00 0.000000000000e+00 0.000000000000e+00 
1.000000000000e-01 0.000000000000e+00 1.013250000000e+05 1.013250000000e+05 1.000000000000e+00 3.330669073875e-16 0.000000000000e+00 0.000000000000e+00 0.000000000000e+00 0.000000000000e+00 
1.500000000000e-01 0.000000000000e+00 1.013250000000e+05 1.013250000000e+05 1.000000000000e+00 3.330669073875e-16 0.000000000000e+00 0.000000000000e+00 0.000000000000e+00 0.000000000000e+00 
2.000000000000e-01 0.000000000000e+00 1.013250000000e+05 1.013250000000e+05 1.000000000000e+00 3.330669073875e-16 0.000000000000e+00 0.000000000000e+00 0.000000000000e+00 0.000000000000e+00 
2.500000000000e-01 0.000000000000e+00 1.013250000000e+05 1.013250000000e+05 1.000000000000e+00 3.330669073875e-16 0.000000000000e+00 0.000000000000e+00 0.000000000000e+00 0.000000000000e+00 
3.000000000000e-01 0.000000000000e+00 1.013250000000e+05 1.013250000000e+05 1.000000000000e+00 3.330669073875e-16 0.000000000000e+00 0.000000000000e+00 0.000000000000e+00 0.000000000000e+00 
3.500000000000e-01 0.000000000000e+00 1.013250000000e+05 1.013250000000e+05 1.000000000000e+00 3.330669073875e-16 0.000000000000e+00 0.000000000000e+00 0.000000000000e+00 0.000000000000e+00 
4.000000000000e-01 0.000000000000e+00 1.013250000000e+05 1.013250000000e+05 1.000000000000e+00 3.330669073875e-16 0.000000000000e+00 0.000000000000e+00 0.000000000000e+00 0.000000000000e+00 
4.500000000000e-01 0.000000000000e+00 1.013250000000e+05 1.013250000000e+05 1.000000000000e+00 3.330669073875e-16 0.000000000000e+00 0.000000000000e+00 0.000000000000e+00 0.000000000000e+00 
5.000000000000e-01 0.000000000000e+00 1.013250000000e+05 1.013250000000e+05 1.000000000000e+00 3.330669073875e-16 0.000000000000e+00 0.000000000000e+00 0.000000000000e+00 0.000000000000e+00 
5.500000000000e-01 0.000000000000e+00 1.013250000000e+05 1.013250000000e+05 1.000000000000e+00 3.330669073875e-16 0.000000000000e+00 0.000000000000e+00 0.000000000000e+00 0.000000000000e+00 
6.000000000000e-01 0.000000000000e+00 1.013250000000e+05 1.013250000000e+05 1.000000000000e+00 3.330669073875e-16 0.000000000000e+00 0.000000000000e+00 0.000000000000e+00 0.000000000000e+00 
6.500000000000e-01 0.000000000000e+00 1.013250000000e+05 1.013250000000e+05 1.000000000000e+00 3.330669073875e-16 0.000000000000e+00 0.000000000000e+00 0.000000000000e+00 0.000000000000e+00 
7.000000000000e-01 0.000000000000e+00 1.013250000000e+05 1.013250000000e+05 1.000000000000e+00 3.330669073875e-16 0.000000000000e+00 0.000000000000e+00 0.000000000000e+00 0.000000000000e+00 
7.500000000000e-01 0.000000000000e+00 1.013250000000e+05 1.013250000000e+05 1.000000000000e+00 3.330669073875e-16 0.000000000000e+00 0.000000000000e+00 0.000000000000e+00 0.000000000000e+00 
8.000000000000e-01 0.000000000000e+00 1.013250000000e+05 1.013250000000e+05 1.000000000000e+00 2.220446049250e-16 0.000000000000e+00 0.000000000000e+00 0.000000000000e+00 0.000000000000e+00 
8.500000000000e-01 0.000000000000e+00 1.013250000000e+05 1.013250000000e+05 1.000000000000e+00 3.330669073875e-16 0.000000000000e+00 0.000000000000e+00 0.000000000000e+00 0.000000000000e+00 
9.000000000000e-01 0.000000000000e+00 1.013250000000e+05 1.013250000000e+05 1.000000000000e+00 2.220446049250e-16 0.000000000000e+00 0.000000000000e+00 0.000000000000e+00 0.000000000000e+00 
9.500000000000e-01 0.000000000000e+00 1.013250000000e+05 1.013250000000e+05 1.000000000000e+00 3.330669073875e-16 0.000000000000e+00 0.000000000000e+00 0.000000000000e+00 0.000000000000e+00 
1.000000000000e+00 0.000000000000e+00 1.013250000000e+05 1.013250000000e+05 1.000000000000e+00 4.440892098501e-16 0.000000000000e+00 0.000000000000e+00 0.000000000000e+00 0.000000000000e+00 
 TITLE = "Profiles along polylines"
 VARIABLES = "DIST" "PRESSURE1" "PRESSURE2" "PRESSURE_W" "SATURATION1" SATURATION2 "VELOCITY_X1" "VELOCITY_Y1" "VELOCITY_X2" "VELOCITY_Y2" 
 ZONE T="TIME=1.000000000000e-03"
0.000000000000e+00 0.000000000000e+00 1.013250000000e+05 1.013250000000e+05 1.000000000000e+00 1.343369859796e-14 -2.715736627579e-14 -7.781339809298e-15 -3.390379964373e-19 -9.147395057168e-20 
5.000000000000e-02 1.750180818100e-07 1.013185503701e+05 1.013185503700e+05 9.999999999999e-01 6.139533326177e-14 -5.765701644122e-14 3.534753341227e-14 -6.499825663445e-19 2.395953281917e-19 
1.000000000000e-01 1.729286593751e-07 1.013121007383e+05 1.013121007382e+05 9.999999999999e-01 6.561418075535e-14 -5.040719406679e-14 -3.783748252317e-14 -3.384740394106e-19 -2.568125511583e-19 
1.500000000000e-01 1.709439168266e-07 1.013056511047e+05 1.013056511046e+05 9.999999999999e-01 6.494804694057e-14 -3.838021075353e-14 -3.150233533233e-14 -2.581482910084e-19 -2.163528867085e-19 
2.000000000000e-01 1.698256263558e-07 1.012992014693e+05 1.012992014692e+05 9.999999999999e-01 6.461498003318e-14 -3.512855619192e-14 -4.026351962238e-14 -2.381338869553e-19 -2.769459446027e-19 
2.500000000000e-01 1.698281126408e-07 1.012927518322e+05 1.012927518321e+05 9.999999999999e-01 6.439293542826e-14 -2.457574009895e-14 -3.750534961000e-14 -1.660151120837e-19 -2.568446565574e-19 
3.000000000000e-01 1.697096509784e-07 1.012863021933e+05 1.012863021932e+05 9.999999999999e-01 6.450395773072e-14 -4.059250932186e-14 -4.405528306960e-14 -2.752681299816e-19 -3.001043739603e-19 
3.500000000000e-01 1.693353507883e-07 1.012798525527e+05 1.012798525525e+05 9.999999999999e-01 6.417089082333e-14 -4.431616980582e-14 -5.241518374532e-14 -2.984985347564e-19 -3.551964475377e-19 
4.000000000000e-01 1.689920699075e-07 1.012734029102e+05 1.012734029100e+05 9.999999999999e-01 6.417089082333e-14 -9.545887587591e-14 -9.494705591350e-14 -6.410560334761e-19 -6.456722344922e-19 
4.500000000000e-01 1.711149479294e-07 1.012669532655e+05 1.012669532654e+05 9.999999999999e-01 6.505906924303e-14 -2.708858228288e-13 -2.581332810223e-13 -1.812353428544e-18 -1.732863424790e-18 
5.000000000000e-01 1.713298814016e-07 1.012605036175e+05 1.012605036174e+05 9.999999999999e-01 6.494804694057e-14 -6.692672031931e-13 -9.842832223511e-13 -4.475008864698e-18 -6.580064223776e-18 
5.500000000000e-01 1.725101789530e-07 1.012540539610e+05 1.012540539609e+05 9.999999999999e-01 6.561418075535e-14 -4.226934572216e-12 -3.837414958979e-12 -2.825626732885e-17 -2.565334451503e-17 
6.000000000000e-01 1.749181896238e-07 1.012476042673e+05 1.012476042672e+05 9.999999999999e-01 6.628031457012e-14 -2.372866496443e-11 -1.862007309682e-11 -1.585853005330e-16 -1.244444991806e-16 
6.500000000000e-01 1.736563994050e-07 1.012411543804e+05 1.012411543802e+05 9.999999999999e-01 6.616929226766e-14 -1.257389819948e-10 -1.021293452941e-10 -8.402917639888e-16 -6.825095457345e-16 
7.000000000000e-01 1.768630023656e-07 1.012347035125e+05 1.012347035123e+05 9.999999999999e-01 6.716849298982e-14 -6.389466816326e-10 -5.658405713620e-10 -4.269693100808e-15 -3.781166463594e-15 
7.500000000000e-01 1.786641185945e-07 1.012282476687e+05 1.012282476685e+05 9.999999999999e-01 6.783462680460e-14 -3.693453890271e-09 -2.585394998488e-09 -2.467952934041e-14 -1.727552241460e-14 
8.000000000000e-01 1.804520949279e-07 1.012217660606e+05 1.012217660605e+05 9.999999999999e-01 6.838973831691e-14 -2.127147384734e-08 -1.988256618914e-08 -1.421253561276e-13 -1.328453182790e-13 
8.500000000000e-01 2.033015213827e-07 1.012151840571e+05 1.012151840569e+05 9.999999999999e-01 1.226796442211e-13 -5.280575197235e-08 -3.877949621749e-08 -3.528026851405e-13 -2.590924153880e-13 
9.000000000000e-01 3.588740923208e-06 1.012082892589e+05 1.012082892553e+05 9.999999999093e-01 9.073031215223e-11 -2.288269686106e-07 -1.143377398692e-07 -1.525078213882e-12 -7.601426120246e-13 
9.500000000000e-01 1.668612332511e-02 1.012000075847e+05 1.011999908985e+05 9.999991859378e-01 8.140622024255e-07 -8.660450778961e-07 9.203888564775e-07 1.835619758072e-11 3.010603643979e-11 
1.000000000000e+00 1.139465112193e+02 1.013250000000e+05 1.012110534888e+05 9.999652851078e-01 3.471489224083e-05 9.297680564622e-06 1.109358136460e-05 4.647384156546e-11 5.983724762259e-11 
 TITLE = "Profiles along polylines"
 VARIABLES = "DIST" "PRESSURE1" "PRESSURE2" "PRESSURE_W" "SATURATION1" SATURATION2 "VELOCITY_X1" "VELOCITY_Y1" "VELOCITY_X2" "VELOCITY_Y2" 
 ZONE T="TIME=5.000000000000e+00"
0.000000000000e+00 0.000000000000e+00 1.013250000000e+05 1.013250000000e+05 9.999998825915e-01 1.174084565125e-07 -2.204872185018e-11 -1.571582657634e-11 -1.479029959584e-13 -3.029657683515e-14 
5.000000000000e-02 1.952617911089e+00 1.009102931789e+05 1.009083405610e+05 9.999993105654e-01 6.894345980779e-07 -8.754025989202e-11 3.741996114765e-11 -2.625642713219e-13 1.726549253753e-13 
1.000000000000e-01 2.923034658950e+00 1.004946004022e+05 1.004916773675e+05 9.999989031762e-01 1.096823758151e-06 -1.847507471553e-10 -1.274773886160e-10 -1.043807189577e-13 -8.253376990534e-14 
1.500000000000e-01 3.373520275561e+00 1.000783810994e+05 1.000750075791e+05 9.999987264883e-01 1.273511732847e-06 -1.875582456676e-10 -1.404331749599e-10 -3.552877730944e-14 -3.552824505976e-14 
2.000000000000e-01 3.572149398763e+00 9.966190174984e+04 9.965832960044e+04 9.999986481518e-01 1.351848238240e-06 -1.775462488482e-10 -1.992448512478e-10 -1.819702120704e-14 -1.799561435244e-14 
2.500000000000e-01 3.664275766602e+00 9.924530709562e+04 9.924164281986e+04 9.999986120129e-01 1.387987111467e-06 -1.428075615892e-10 -2.064063812333e-10 -5.495132926218e-15 -8.223937861919e-15 
3.000000000000e-01 3.711639315343e+00 9.882865798880e+04 9.882494634948e+04 9.999985934380e-01 1.406562003647e-06 -2.106748771429e-10 -2.353690121915e-10 -2.920440206282e-15 -3.432714603078e-15 
3.500000000000e-01 3.747999977406e+00 9.841198833352e+04 9.840824033354e+04 9.999985791564e-01 1.420843641076e-06 -1.758788771277e-10 -2.499569211378e-10 8.206537596573e-16 1.426139851807e-15 
4.000000000000e-01 3.797341086898e+00 9.799532174105e+04 9.799152439996e+04 9.999985598195e-01 1.440180454004e-06 -2.569630619383e-10 -2.563361851036e-10 8.516718569099e-15 6.378898051839e-15 
4.500000000000e-01 3.899907072082e+00 9.757869841423e+04 9.757479850715e+04 9.999985192719e-01 1.480728134107e-06 -3.092692051426e-10 -1.873113932645e-10 2.687054634664e-14 1.908116107475e-14 
5.000000000000e-01 4.159363333321e+00 9.716222152395e+04 9.715806216061e+04 9.999984156964e-01 1.584303629398e-06 -2.627031071993e-10 -1.796148443499e-10 6.980866616622e-14 3.546206283381e-14 
5.500000000000e-01 4.895112973424e+00 9.674620807391e+04 9.674131296093e+04 9.999981259306e-01 1.874069443186e-06 -3.534355641020e-10 -3.948148110913e-10 1.597463721000e-13 1.966908694236e-13 
6.000000000000e-01 6.900249432358e+00 9.633144736474e+04 9.632454711531e+04 9.999973281631e-01 2.671836947576e-06 -5.842457686309e-10 -6.264397940623e-10 4.682177058696e-13 4.640150491278e-13 
6.500000000000e-01 1.241780208057e+01 9.592016995742e+04 9.590775215534e+04 9.999951533787e-01 4.846621270760e-06 -1.470556574775e-09 -1.643654208855e-09 1.433283384676e-12 1.595898651374e-12 
7.000000000000e-01 2.711099228811e+01 9.551800825952e+04 9.549089726723e+04 9.999893763680e-01 1.062363200877e-05 -3.005098176473e-09 -4.836808555603e-09 3.242937883737e-12 5.131292486193e-12 
7.500000000000e-01 6.332828867633e+01 9.513724374881e+04 9.507391546013e+04 9.999751378671e-01 2.486213285224e-05 -7.072490771748e-09 -8.952113766314e-09 7.989744055936e-12 9.588437510450e-12 
8.000000000000e-01 1.517813507655e+02 9.480842019575e+04 9.465663884498e+04 9.999367894684e-01 6.321053164815e-05 -2.019077590813e-08 -3.172514680632e-08 2.325297223313e-11 3.260450808151e-11 
8.500000000000e-01 3.546497765069e+02 9.459337566024e+04 9.423872588373e+04 9.998639201120e-01 1.360798880276e-04 -3.736858429090e-08 -7.477480387882e-08 4.634116323691e-11 7.336995016402e-11 
9.000000000000e-01 7.486331726939e+02 9.456838137610e+04 9.381974820340e+04 9.997331116836e-01 2.668883164403e-04 -1.063366424246e-07 -2.017101133594e-07 1.332646571320e-10 1.797733492608e-10 
9.500000000000e-01 1.844308224269e+03 9.524113977155e+04 9.339683154728e+04 9.979560519507e-01 2.043948049297e-03 -1.041557567505e-06 -3.765432181822e-07 1.215366415941e-09 1.037961889835e-10 
1.000000000000e+00 8.380026096688e+03 1.013250000000e+05 9.294497390331e+04 9.582183511692e-01 4.178164883077e-02 -1.603488539290e-06 -1.090968047262e-06 2.623921091154e-09 1.199762420499e-09 
 TITLE = "Profiles along polylines"
 VARIABLES = "DIST" "PRESSURE1" "PRESSURE2" "PRESSURE_W" "SATURATION1" SATURATION2 "VELOCITY_X1" "VELOCITY_Y1" "VELOCITY_X2" "VELOCITY_Y2" 
 ZONE T="TIME=1.000000000000e+01"
0.000000000000e+00 0.000000000000e+00 1.013250000000e+05 1.013250000000e+05 9.999997872664e-01 2.127336462543e-07 -1.623528549323e-11 -1.199126589050e-11 -1.741656502272e-13 -4.021322356949e-14 
5.000000000000e-02 3.568168220523e+00 1.008877314420e+05 1.008841632738e+05 9.999987300777e-01 1.269922294322e-06 -6.892886790394e-11 2.508675257900e-11 -3.254602565472e-13 2.113981938443e-13 
1.000000000000e-01 5.813302706690e+00 1.004491369628e+05 1.004433236601e+05 9.999978178733e-01 2.182126687900e-06 -1.548796363519e-10 -1.068847385407e-10 -1.762613562546e-13 -1.333989800290e-13 
1.500000000000e-01 7.159177547549e+00 1.000096376666e+05 1.000024784890e+05 9.999972989599e-01 2.701040092479e-06 -1.758617270507e-10 -1.290565653153e-10 -7.890302505884e-14 -7.204107593075e-14 
2.000000000000e-01 7.941406190616e+00 9.956956716580e+04 9.956162575961e+04 9.999969962246e-01 3.003775361776e-06 -1.760018765333e-10 -2.002199605692e-10 -4.638921459401e-14 -4.614292702631e-14 
2.500000000000e-01 8.423766884969e+00 9.912918797713e+04 9.912076421025e+04 9.999968095964e-01 3.190403600306e-06 -1.556778472494e-10 -2.227368552301e-10 -1.061164113555e-14 -1.825511333177e-14 
3.000000000000e-01 8.787673837303e+00 9.868867989196e+04 9.867989221813e+04 9.999966680133e-01 3.331986696109e-06 -2.481540998550e-10 -2.761301421350e-10 1.188521817428e-14 1.182439749030e-14 
3.500000000000e-01 9.233168561411e+00 9.824824221648e+04 9.823900904792e+04 9.999964923912e-01 3.507608821840e-06 -2.351073640459e-10 -3.420014968942e-10 4.640185802603e-14 7.590078729123e-14 
4.000000000000e-01 1.006459130790e+01 9.780817736162e+04 9.779811277032e+04 9.999961687256e-01 3.831274368093e-06 -4.173417426252e-10 -4.001090044887e-10 1.632091131140e-13 1.415457778637e-13 
4.500000000000e-01 1.181773905567e+01 9.736901841594e+04 9.735720067689e+04 9.999954868453e-01 4.513154739483e-06 -6.261539687848e-10 -3.985251766602e-10 3.607565589257e-13 2.444660340352e-13 
5.000000000000e-01 1.558281441246e+01 9.693184975304e+04 9.691626693862e+04 9.999940185174e-01 5.981482616879e-06 -7.481275997720e-10 -4.581072223988e-10 6.130911721877e-13 3.417835890290e-13 
5.500000000000e-01 2.386250434392e+01 9.649915978913e+04 9.647529728479e+04 9.999908332154e-01 9.166784611603e-06 -1.188873913120e-09 -1.364019844611e-09 1.109620983085e-12 1.303293289688e-12 
6.000000000000e-01 4.085066516866e+01 9.607512030310e+04 9.603426963793e+04 9.999842453224e-01 1.575467757431e-05 -2.036942123062e-09 -2.134272367173e-09 2.139533225654e-12 2.200726983917e-12 
6.500000000000e-01 7.501729687935e+01 9.566815529134e+04 9.559313799446e+04 9.999710911663e-01 2.890883369633e-05 -4.321378201898e-09 -4.549864903923e-09 4.726477074913e-12 4.970470370541e-12 
7.000000000000e-01 1.403271019183e+02 9.529215425948e+04 9.515182715757e+04 9.999459286745e-01 5.407132546131e-05 -6.700951749630e-09 -9.531669363954e-09 7.529008965883e-12 1.065501305581e-11 
7.500000000000e-01 2.565565132957e+02 9.496678774627e+04 9.471023123298e+04 9.999012997059e-01 9.870029407155e-05 -1.004761450564e-08 -1.120835272737e-08 1.158039484542e-11 1.260804324454e-11 
8.000000000000e-01 4.553475632666e+02 9.472352834913e+04 9.426818078587e+04 9.998184798747e-01 1.815201252596e-04 -2.240103606442e-08 -2.980953834602e-08 2.679132111750e-11 3.329660742281e-11 
8.500000000000e-01 7.815996343102e+02 9.460703589482e+04 9.382543626051e+04 9.997079398274e-01 2.920601725847e-04 -5.344400169359e-08 -7.253361814339e-08 6.542877707086e-11 7.929707702524e-11 
9.000000000000e-01 1.289742781821e+03 9.467145515666e+04 9.338171237484e+04 9.991393781800e-01 8.606218199710e-04 -1.176373617884e-07 -1.745161420782e-07 1.459847254148e-10 1.854405540819e-10 
9.500000000000e-01 2.812612089029e+03 9.574514159385e+04 9.293252950482e+04 9.949985070779e-01 5.001492922135e-03 -8.281096614711e-07 -1.354132586727e-07 9.419240795987e-10 -1.599606730348e-11 
1.000000000000e+00 8.866544739296e+03 1.013250000000e+05 9.245845526070e+04 9.480572471521e-01 5.194275284789e-02 -1.509182998399e-06 -7.989468665221e-07 2.031930358640e-09 8.040705585661e-10 
 TITLE = "Profiles along polylines"
 VARIABLES = "DIST" "PRESSURE1" "PRESSURE2" "PRESSURE_W" "SATURATION1" SATURATION2 "VELOCITY_X1" "VELOCITY_Y1" "VELOCITY_X2" "VELOCITY_Y2" 
 ZONE T="TIME=2.000000000000e+01"
0.000000000000e+00 0.000000000000e+00 1.013250000000e+05 1.013250000000e+05 9.999996367788e-01 3.632211914573e-07 -1.341402365871e-11 -1.016467189559e-11 -1.870995051821e-13 -4.508342545371e-14 
5.000000000000e-02 6.127866018499e+00 1.008765636975e+05 1.008704358314e+05 9.999978032051e-01 2.196794948173e-06 -6.026256688397e-11 1.846536239583e-11 -3.558684224928e-13 2.312037973619e-13 
1.000000000000e-01 1.076653152621e+01 1.004266357255e+05 1.004158691940e+05 9.999959506752e-01 4.049324842659e-06 -1.456957755611e-10 -1.017595655735e-10 -2.047684351379e-13 -1.521852846829e-13 
1.500000000000e-01 1.435428404857e+01 9.997565160835e+04 9.996129732430e+04 9.999945767609e-01 5.423239130886e-06 -1.951611876972e-10 -1.399589306774e-10 -6.978263339078e-14 -6.992464757080e-14 
2.000000000000e-01 1.738894772713e+01 9.952410627012e+04 9.950671732240e+04 9.999934115968e-01 6.588403211438e-06 -2.234976179431e-10 -2.629767232022e-10 -2.000609960333e-15 1.502923574922e-14 
2.500000000000e-01 2.049510978836e+01 9.907262107204e+04 9.905212596226e+04 9.999922164898e-01 7.783510176274e-06 -2.610132625193e-10 -3.592740239795e-10 1.056148921660e-13 1.309446150502e-13 
3.000000000000e-01 2.451418416695e+01 9.862203218852e+04 9.859751800436e+04 9.999906726792e-01 9.327320844021e-06 -5.098217052168e-10 -5.605920471703e-10 3.103292074205e-13 3.361101030440e-13 
3.500000000000e-01 3.062719592816e+01 9.817351462287e+04 9.814288742694e+04 9.999882998164e-01 1.170018360908e-05 -6.021855074077e-10 -9.009394919620e-10 4.714405829223e-13 7.266923837136e-13 
4.000000000000e-01 4.076307590424e+01 9.772898661670e+04 9.768822354080e+04 9.999844246145e-01 1.557538554642e-05 -1.245964846726e-09 -1.177004494116e-09 1.132675119524e-12 1.050662142205e-12 
4.500000000000e-01 5.749209111493e+01 9.729100484058e+04 9.723351274947e+04 9.999780353327e-01 2.196466729698e-05 -1.923251967567e-09 -1.226134054842e-09 1.884554067745e-12 1.218198356974e-12 
5.000000000000e-01 8.460568528555e+01 9.686334049842e+04 9.677873481314e+04 9.999676610427e-01 3.233895733479e-05 -2.050810741988e-09 -1.315819912777e-09 2.151058378376e-12 1.350801886148e-12 
5.500000000000e-01 1.285804048399e+02 9.645243477598e+04 9.632385437114e+04 9.999509909070e-01 4.900909295613e-05 -2.851031675635e-09 -3.158487742643e-09 3.075197723032e-12 3.428764603866e-12 
6.000000000000e-01 1.959104290004e+02 9.606474795492e+04 9.586883752592e+04 9.999252775902e-01 7.472240975614e-05 -3.534437339234e-09 -3.962086157368e-09 3.924757538385e-12 4.378922815359e-12 
6.500000000000e-01 2.964705868428e+02 9.571010224067e+04 9.541363165383e+04 9.998870129611e-01 1.129870389274e-04 -5.776349034219e-09 -5.978474642281e-09 6.501854003328e-12 6.732296181891e-12 
7.000000000000e-01 4.405256089197e+02 9.539870847097e+04 9.495818286205e+04 9.998320454228e-01 1.679545772094e-04 -6.582851837986e-09 -8.938432688655e-09 7.505122041528e-12 1.018243977942e-11 
7.500000000000e-01 6.369567960317e+02 9.513940231636e+04 9.450244552033e+04 9.997574469820e-01 2.425530180271e-04 -5.413512305324e-09 -7.449550300271e-09 6.350350029436e-12 8.609513995027e-12 
8.000000000000e-01 8.927727069225e+02 9.493915790816e+04 9.404638520124e+04 9.996598124650e-01 3.401875350100e-04 -2.490427020210e-08 -2.976500688496e-08 2.993604335518e-11 3.498989515588e-11 
8.500000000000e-01 1.301995349591e+03 9.489149668258e+04 9.358950133299e+04 9.990526520230e-01 9.473479769514e-04 -6.539291987514e-08 -7.647247338395e-08 7.867576068470e-11 8.919977973157e-11 
9.000000000000e-01 2.095372272669e+03 9.522594288681e+04 9.313057061414e+04 9.976444913684e-01 2.355508631630e-03 -1.051701451611e-07 -1.366631373108e-07 1.284392051480e-10 1.626739706665e-10 
9.500000000000e-01 3.956717358526e+03 9.662270927939e+04 9.266599192087e+04 9.889783844359e-01 1.102161556412e-02 -5.345920149393e-07 1.915816066423e-08 5.944852886830e-10 -7.272362672048e-11 
1.000000000000e+00 9.142097736929e+03 1.013250000000e+05 9.218290226307e+04 9.389900531742e-01 6.100994682577e-02 -9.828169172592e-07 -3.701900314372e-07 1.251896613534e-09 4.220935520740e-10 
 TITLE = "Profiles along polylines"
 VARIABLES = "DIST" "PRESSURE1" "PRESSURE2" "PRESSURE_W" "SATURATION1" SATURATION2 "VELOCITY_X1" "VELOCITY_Y1" "VELOCITY_X2" "VELOCITY_Y2" 
 ZONE T="TIME=3.000000000000e+01"
0.000000000000e+00 0.000000000000e+00 1.013250000000e+05 1.013250000000e+05 9.999994503512e-01 5.496488433288e-07 -2.210348631034e-11 -1.613261594938e-11 -1.783610362830e-13 -3.832896477963e-14 
5.000000000000e-02 9.306969958303e+00 1.008737934384e+05 1.008644864684e+05 9.999966437879e-01 3.356212100680e-06 -9.793785375350e-11 2.839146143181e-11 -3.140316781573e-13 2.215083959404e-13 
1.000000000000e-01 1.737487301481e+01 1.004213438825e+05 1.004039690095e+05 9.999934473557e-01 6.552644303381e-06 -2.390401728126e-10 -1.677895235250e-10 -9.487115062592e-14 -7.420635984577e-14 
1.500000000000e-01 2.499143544069e+01 9.996843439981e+04 9.994344296437e+04 9.999905358239e-01 9.464176133789e-06 -3.394253668069e-10 -2.417354216980e-10 1.026566236298e-13 5.148032475944e-14 
2.000000000000e-01 3.312280418141e+01 9.951602571503e+04 9.948290291085e+04 9.999874243537e-01 1.257564633261e-05 -4.002935292323e-10 -4.753807262855e-10 2.100124729892e-13 2.696360089225e-13 
2.500000000000e-01 4.300038677613e+01 9.906534275728e+04 9.902234237050e+04 9.999836405887e-01 1.635941128497e-05 -4.802822205734e-10 -6.619549070451e-10 3.692310433113e-13 4.943884812891e-13 
3.000000000000e-01 5.638561065328e+01 9.861813679978e+04 9.856175118912e+04 9.999785325091e-01 2.146749088217e-05 -9.276631661028e-10 -1.020526607894e-09 8.133353588456e-13 8.899663618623e-13 
3.500000000000e-01 7.533508544397e+01 9.817645380291e+04 9.810111871747e+04 9.999712315160e-01 2.876848396594e-05 -1.034884338373e-09 -1.529432713289e-09 9.921319109249e-13 1.485496247215e-12 
4.000000000000e-01 1.028664591526e+02 9.774329501561e+04 9.764042855646e+04 9.999607745090e-01 3.922549102420e-05 -1.968013503265e-09 -1.891290926091e-09 2.005165184483e-12 1.914021949588e-12 
4.500000000000e-01 1.422494032014e+02 9.732191296772e+04 9.717966356452e+04 9.999458241134e-01 5.417588662571e-05 -2.777007910563e-09 -1.737423490123e-09 2.921924935109e-12 1.840807566496e-12 
5.000000000000e-01 1.975414643243e+02 9.691634383612e+04 9.671880237179e+04 9.999247916026e-01 7.520839739272e-05 -2.562406829154e-09 -1.728200059636e-09 2.785048418624e-12 1.856803676928e-12 
5.500000000000e-01 2.749961284920e+02 9.653280742529e+04 9.625781129679e+04 9.998955309009e-01 1.044690990616e-04 -3.225924673208e-09 -3.493684527070e-09 3.558790649705e-12 3.869982419303e-12 
6.000000000000e-01 3.788848729822e+02 9.617555369421e+04 9.579666882123e+04 9.998560035611e-01 1.439964389101e-04 -3.359303335129e-09 -3.955122999799e-09 3.769599030666e-12 4.428099291879e-12 
6.500000000000e-01 5.154384827596e+02 9.585078092324e+04 9.533534244048e+04 9.998041569961e-01 1.958430038722e-04 -4.794857047311e-09 -5.135570310867e-09 5.429134652842e-12 5.827038098147e-12 
7.000000000000e-01 6.893247820120e+02 9.556313348821e+04 9.487380870620e+04 9.997379301377e-01 2.620698622542e-04 -4.118508091352e-09 -6.752200296231e-09 4.694955440691e-12 7.741680547029e-12 
7.500000000000e-01 9.023277649012e+02 9.531438790801e+04 9.441206014311e+04 9.996631381418e-01 3.368618582155e-04 -8.510385851599e-09 -1.498152477634e-08 9.893621771430e-12 1.752152201829e-11 
8.000000000000e-01 1.196473058817e+03 9.514634638302e+04 9.394987332420e+04 9.991875225676e-01 8.124774324498e-04 -3.016407575593e-08 -3.493878502778e-08 3.611306455524e-11 4.140332056370e-11 
8.500000000000e-01 1.755282798547e+03 9.524155658290e+04 9.348627378436e+04 9.982497403515e-01 1.750259648494e-03 -7.354844608511e-08 -7.708534979324e-08 8.874575637012e-11 9.171762118980e-11 
9.000000000000e-01 2.674634622463e+03 9.569540165631e+04 9.302076703385e+04 9.959340165976e-01 4.065983402390e-03 -1.063457780681e-07 -1.284491372296e-07 1.298464682167e-10 1.557379161902e-10 
9.500000000000e-01 4.680031686425e+03 9.722955502894e+04 9.254952334251e+04 9.836841753952e-01 1.631582460478e-02 -3.836684439272e-07 1.611657155761e-09 4.289120908121e-10 -3.149367124215e-11 
1.000000000000e+00 9.261209980849e+03 1.013250000000e+05 9.206379001915e+04 9.339774880073e-01 6.602251199272e-02 -6.635385500429e-07 -2.410414958105e-07 8.334894136908e-10 2.713941593121e-10 
 TITLE = "Profiles along polylines"
 VARIABLES = "DIST" "PRESSURE1" "PRESSURE2" "PRESSURE_W" "SATURATION1" SATURATION2 "VELOCITY_X1" "VELOCITY_Y1" "VELOCITY_X2" "VELOCITY_Y2" 
 ZONE T="TIME=6.000000000000e+01"
0.000000000000e+00 0.000000000000e+00 1.013250000000e+05 1.013250000000e+05 9.999981685094e-01 1.831490596960e-06 -5.244990158006e-11 -3.850182573436e-11 -1.236332744814e-13 -6.110712714789e-15 
5.000000000000e-02 3.116399536625e+01 1.008873411701e+05 1.008561771747e+05 9.999886812255e-01 1.131877448735e-05 -2.303414464211e-10 7.140131990540e-11 -1.160468248435e-13 1.474141573805e-13 
1.000000000000e-01 6.224992417543e+01 1.004495949342e+05 1.003873450100e+05 9.999764770199e-01 2.352298007402e-05 -5.458421421325e-10 -3.795640660820e-10 3.104486998562e-13 2.075209945831e-13 
1.500000000000e-01 9.509080087506e+01 1.000135840194e+05 9.991849321849e+04 9.999639690225e-01 3.603097748028e-05 -7.147405259450e-10 -5.140252423794e-10 5.859701591286e-13 4.033607574443e-13 
2.000000000000e-01 1.315804775840e+02 9.958119192436e+04 9.944961144677e+04 9.999500720797e-01 4.992792030478e-05 -7.823614152983e-10 -9.140516862612e-10 6.995012276436e-13 8.306306620909e-13 
2.500000000000e-01 1.736051193820e+02 9.915429491743e+04 9.898068979805e+04 9.999340637179e-01 6.593628212315e-05 -8.070629026972e-10 -1.138719336327e-09 7.884603590822e-13 1.104255738176e-12 
3.000000000000e-01 2.235716455200e+02 9.873528655840e+04 9.851171491288e+04 9.999150930190e-01 8.490698098440e-05 -1.391135730675e-09 -1.541064308103e-09 1.413291037307e-12 1.563225409179e-12 
3.500000000000e-01 2.833306867038e+02 9.832600816912e+04 9.804267748242e+04 9.998922131478e-01 1.077868522099e-04 -1.334236081841e-09 -1.925605520246e-09 1.392634302523e-12 2.021500532936e-12 
4.000000000000e-01 3.552525456598e+02 9.792881750099e+04 9.757356495533e+04 9.998650284994e-01 1.349715005785e-04 -2.168352324042e-09 -2.137560309056e-09 2.315690115293e-12 2.278226421019e-12 
4.500000000000e-01 4.410592060036e+02 9.754542801216e+04 9.710436880616e+04 9.998325990461e-01 1.674009539294e-04 -2.691510951890e-09 -1.636758232649e-09 2.912150372052e-12 1.777104328131e-12 
5.000000000000e-01 5.424069480885e+02 9.717748781210e+04 9.663508086402e+04 9.997942041495e-01 2.057958504713e-04 -2.075475821915e-09 -1.491160395194e-09 2.279560098611e-12 1.628154536612e-12 
5.500000000000e-01 6.619660506896e+02 9.682765314511e+04 9.616568709442e+04 9.997491019977e-01 2.508980022905e-04 -2.347118753096e-09 -2.458229091894e-09 2.598500982077e-12 2.730070136667e-12 
6.000000000000e-01 8.000193391583e+02 9.649620665531e+04 9.569618731616e+04 9.996966839430e-01 3.033160570182e-04 -2.372736051554e-09 -2.661305637183e-09 2.656184790194e-12 2.979857521269e-12 
6.500000000000e-01 9.583185914015e+02 9.618489145485e+04 9.522657286345e+04 9.996376301166e-01 3.623698834307e-04 -8.246648268324e-09 -8.560443913056e-09 9.524132825137e-12 9.936823456937e-12 
7.000000000000e-01 1.159799847257e+03 9.591652226329e+04 9.475672241603e+04 9.993220373381e-01 6.779626619262e-04 -1.390585263066e-08 -1.874511098564e-08 1.629491078515e-11 2.205715173394e-11 
7.500000000000e-01 1.479454103985e+03 9.576569113269e+04 9.428623702871e+04 9.987411186856e-01 1.258881314394e-03 -1.770994075418e-08 -1.812094425713e-08 2.092492846375e-11 2.156156666256e-11 
8.000000000000e-01 1.960930010783e+03 9.577582029038e+04 9.381489027960e+04 9.978183374003e-01 2.181662599744e-03 -3.264593251598e-08 -3.335014953003e-08 3.953432248673e-11 4.037856357627e-11 
8.500000000000e-01 2.674354373132e+03 9.601667907370e+04 9.334232470056e+04 9.957548101249e-01 4.245189875056e-03 -7.464053842512e-08 -7.415426912082e-08 9.161190685814e-11 9.043339338574e-11 
9.000000000000e-01 3.770391621002e+03 9.663814769768e+04 9.286775607668e+04 9.907525952172e-01 9.247404782759e-03 -9.389830279819e-08 -1.026025246799e-07 1.154277240849e-10 1.256429910381e-10 
9.500000000000e-01 5.865109133517e+03 9.825297260954e+04 9.238786347602e+04 9.722106019206e-01 2.778939807943e-02 -2.024968130407e-07 -2.625630596453e-08 2.305416353435e-10 1.528474172128e-11 
1.000000000000e+00 9.425473315895e+03 1.013250000000e+05 9.189952668411e+04 9.262372759158e-01 7.376272408419e-02 -2.958022436051e-07 -1.154122185363e-07 3.634501573135e-10 1.169884843901e-10 
 ZONE T="TIME=1.200000000000e+02"