 TITLE = "Profiles along polylines"
 VARIABLES = "DIST" "PRESSURE1" "PRESSURE2" "PRESSURE_W" "SATURATION1" SATURATION2 "VELOCITY_X1" "VELOCITY_Y1" "VELOCITY_X2" "VELOCITY_Y2" 
 ZONE T="TIME=0.000000000000e+00"
0.000000000000e+00 0.000000000000e+00 1.013250000000e+05 1.013250000000e+05 1.000000000000e+00 4.440892098501e-16 0.000000000000e+00 0.000000000000e+00 0.000000000000e+00 0.000000000000e+00 
5.000000000000e-02 0.000000000000e+00 1.013250000000e+05 1.013250000000e+05 1.000000000000e+00 3.330669073875e-16 0.000000000000e+00 0.000000000000e+00 0.000000000000e+00 0.000000000000e+00 
1.000000000000e-01 0.000000000000e+00 1.013250000000e+05 1.013250000000e+05 1.000000000000e+00 3.330669073875e-16 0.000000000000e+00 0.000000000000e+00 0.000000000000e+00 0.000000000000e+00 
1.500000000000e-01 0.000000000000e+00 1.013250000000e+05 1.013250000000e+05 1.000000000000e+00 3.330669073875e-16 0.000000000000e+00 0.000000000000e+00 0.000000000000e+00 0.000000000000e+00 
2.000000000000e-01 0.000000000000e+00 1.013250000000e+05 1.013250000000e+05 1.000000000000e+00 3.330669073875e-16 0.000000000000e+00 0.000000000000e+00 0.000000000000e+00 0.000000000000e+00 
2.500000000000e-01 0.000000000000e+00 1.013250000000e+05 1.013250000000e+05 1.000000000000e+00 3.330669073875e-16 0.000000000000e+00 0.000000000000e+00 0.000000000000e+00 0.000000000000e+00 
3.000000000000e-01 0.000000000000e+00 1.013250000000e+05 1.013250000000e+05 1.000000000000e+00 3.330669073875e-16 0.000000000000e+00 0.000000000000e+00 0.000000000000e+00 0.000000000000e+00 
3.500000000000e-01 0.000000000000e+00 1.013250000000e+05 1.013250000000e+05 1.000000000000e+00 3.330669073875e-16 0.000000000000e+00 0.000000000000e+00 0.000000000000e+00 0.000000000000e+00 
4.000000000000e-01 0.000000000000e+00 1.013250000000e+05 1.013250000000e+05 1.000000000000e+00 3.330669073875e-16 0.000000000000e+00 0.000000000000e+00 0.000000000000e+00 0.000000000000e+00 
4.500000000000e-01 0.000000000000e+00 1.013250000000e+05 1.013250000000e+05 1.000000000000e+00 3.330669073875e-16 0.000000000000e+00 0.000000000000e+00 0.000000000000e+00 0.000000000000e+00 
5.000000000000e-01 0.000000000000e+00 1.013250000000e+05 1.013250000000e+05 1.000000000000e+00 3.330669073875e-16 0.000000000000e+00 0.000000000000e+00 0.000000000000e+00 0.000000000000e+00 
5.500000000000e-01 0.000000000000e+00 1.013250000000e+05 1.013250000000e+05 1.000000000000e+00 3.330669073875e-16 0.000000000000e+00 0.000000000000e+00 0.000000000000e+00 0.000000000000e+00 
6.000000000000e-01 0.000000000000e+00 1.013250000000e+05 1.013250000000e+05 1.000000000000e+00 3.330669073875e-16 0.000000000000e+00 0.000000000000e+00 0.000000000000e+00 0.000000000000e+00 
6.500000000000e-01 0.000000000000e+00 1.013250000000e+05 1.013250000000e+05 1.000000000000e+00 3.330669073875e-16 0.000000000000e+00 0.000000000000e+00 0.000000000000e+00 0.000000000000e+00 
7.000000000000e-01 0.000000000000e+00 1.013250000000e+05 1.013250000000e+05 1.000000000000e+00 3.330669073875e-16 0.000000000000e+00 0.000000000000e+00 0.000000000000e+00 0.000000000000e+00 
7.500000000000e-01 0.000000000000e+00 1.013250000000e+05 1.013250000000e+05 1.000000000000e+00 3.330669073875e-16 0.000000000000e+00 0.000000000000e+00 0.000000000000e+00 0.000000000000e+00 
8.000000000000e-01 0.000000000000e+00 1.013250000000e+05 1.013250000000e+05 1.000000000000e+00 2.220446049250e-16 0.000000000000e+00 0.000000000000e+00 0.000000000000e+00 0.000000000000e+00 
8.500000000000e-01 0.000000000000e+00 1.013250000000e+05 1.013250000000e+05 1.000000000000e+00 3.330669073875e-16 0.000000000000e+00 0.000000000000e+00 0.000000000000e+00 0.000000000000e+00 
9.000000000000e-01 0.000000000000e+00 1.013250000000e+05 1.013250000000e+05 1.000000000000e+00 2.220446049250e-16 0.000000000000e+00 0.000000000000e+00 0.000000000000e+00 0.000000000000e+00 
9.500000000000e-01 0.000000000000e+00 1.013250000000e+05 1.013250000000e+05 1.000000000000e+00 3.330669073875e-16 0.000000000000e+00 0.000000000000e+00 0.000000000000e+00 0.000000000000e+00 
1.000000000000e+00 0.000000000000e+00 1.013250000000e+05 1.013250000000e+05 1.000000000000e+00 4.440892098501e-16 0.000000000000e+00 0.000000000000e+00 0.000000000000e+00 0.000000000000e+00 
 TITLE = "Profiles along polylines"
 VARIABLES = "DIST" "PRESSURE1" "PRESSURE2" "PRESSURE_W" "SATURATION1" SATURATION2 "VELOCITY_X1" "VELOCITY_Y1" "VELOCITY_X2" "VELOCITY_Y2" 
 ZONE T="TIME=1.000000000000e-03"
0.000000000000e+00 0.000000000000e+00 1.013250000000e+05 1.013250000000e+05 1.000000000000e+00 1.343369859796e-14 -2.715736627579e-14 -7.781339809298e-15 -3.390379964373e-19 -9.147395057168e-20 
5.000000000000e-02 1.750180818100e-07 1.013185503701e+05 1.013185503700e+05 9.999999999999e-01 6.139533326177e-14 -5.765701644122e-14 3.534753341227e-14 -6.499825663445e-19 2.395953281917e-19 
1.000000000000e-01 1.729286593751e-07 1.013121007383e+05 1.013121007382e+05 9.999999999999e-01 6.561418075535e-14 -5.040719406679e-14 -3.783748252317e-14 -3.384740394106e-19 -2.568125511583e-19 
1.500000000000e-01 1.709439168266e-07 1.013056511047e+05 1.013056511046e+05 9.999999999999e-01 6.494804694057e-14 -3.838021075353e-14 -3.150233533233e-14 -2.581482910084e-19 -2.163528867085e-19 
2.000000000000e-01 1.698256263558e-07 1.012992014693e+05 1.012992014692e+05 9.999999999999e-01 6.461498003318e-14 -3.512855619192e-14 -4.026351962238e-14 -2.381338869553e-19 -2.769459446027e-19 
2.500000000000e-01 1.698281126408e-07 1.012927518322e+05 1.012927518321e+05 9.999999999999e-01 6.439293542826e-14 -2.457574009895e-14 -3.750534961000e-14 -1.660151120837e-19 -2.568446565574e-19 
3.000000000000e-01 1.697096509784e-07 1.012863021933e+05 1.012863021932e+05 9.999999999999e-01 6.450395773072e-14 -4.059250932186e-14 -4.405528306960e-14 -2.752681299816e-19 -3.001043739603e-19 
3.500000000000e-01 1.693353507883e-07 1.012798525527e+05 1.012798525525e+05 9.999999999999e-01 6.417089082333e-14 -4.431616980582e-14 -5.241518374532e-14 -2.984985347564e-19 -3.551964475377e-19 
4.000000000000e-01 1.689920699075e-07 1.012734029102e+05 1.012734029100e+05 9.999999999999e-01 6.417089082333e-14 -9.545887587591e-14 -9.494705591350e-14 -6.410560334761e-19 -6.456722344922e-19 
4.500000000000e-01 1.711149479294e-07 1.012669532655e+05 1.012669532654e+05 9.999999999999e-01 6.505906924303e-14 -2.708858228288e-13 -2.581332810223e-13 -1.812353428544e-18 -1.732863424790e-18 
5.000000000000e-01 1.713298814016e-07 1.012605036175e+05 1.012605036174e+05 9.999999999999e-01 6.494804694057e-14 -6.692672031931e-13 -9.842832223511e-13 -4.475008864698e-18 -6.580064223776e-18 
5.500000000000e-01 1.725101789530e-07 1.012540539610e+05 1.012540539609e+05 9.999999999999e-01 6.561418075535e-14 -4.226934572216e-12 -3.837414958979e-12 -2.825626732885e-17 -2.565334451503e-17 
6.000000000000e-01 1.749181896238e-07 1.012476042673e+05 1.012476042672e+05 9.999999999999e-01 6.628031457012e-14 -2.372866496443e-11 -1.862007309682e-11 -1.585853005330e-16 -1.244444991806e-16 
6.500000000000e-01 1.736563994050e-07 1.012411543804e+05 1.012411543802e+05 9.999999999999e-01 6.616929226766e-14 -1.257389819948e-10 -1.021293452941e-10 -8.402917639888e-16 -6.825095457345e-16 
7.000000000000e-01 1.768630023656e-07 1.012347035125e+05 1.012347035123e+05 9.999999999999e-01 6.716849298982e-14 -6.389466816326e-10 -5.658405713620e-10 -4.269693100808e-15 -3.781166463594e-15 
7.500000000000e-01 1.786641185945e-07 1.012282476687e+05 1.012282476685e+05 9.999999999999e-01 6.783462680460e-14 -3.693453890271e-09 -2.585394998488e-09 -2.467952934041e-14 -1.727552241460e-14 
8.000000000000e-01 1.804520949279e-07 1.012217660606e+05 1.012217660605e+05 9.999999999999e-01 6.838973831691e-14 -2.127147384734e-08 -1.988256618914e-08 -1.421253561276e-13 -1.328453182790e-13 
8.500000000000e-01 2.033015213827e-07 1.012151840571e+05 1.012151840569e+05 9.999999999999e-01 1.226796442211e-13 -5.280575197235e-08 -3.877949621749e-08 -3.528026851405e-13 -2.590924153880e-13 
9.000000000000e-01 3.588740923208e-06 1.012082892589e+05 1.012082892553e+05 9.999999999093e-01 9.073031215223e-11 -2.288269686106e-07 -1.143377398692e-07 -1.525078213882e-12 -7.601426120246e-13 
9.500000000000e-01 1.668612332511e-02 1.012000075847e+05 1.011999908985e+05 9.999991859378e-01 8.140622024255e-07 -8.660450778961e-07 9.203888564775e-07 1.835619758072e-11 3.010603643979e-11 
1.000000000000e+00 1.139465112193e+02 1.013250000000e+05 1.012110534888e+05 9.999652851078e-01 3.471489224083e-05 9.297680564622e-06 1.109358136460e-05 4.647384156546e-11 5.983724762259e-11 
 TITLE = "Profiles along polylines"
 VARIABLES = "DIST" "PRESSURE1" "PRESSURE2" "PRESSURE_W" "SATURATION1" SATURATION2 "VELOCITY_X1" "VELOCITY_Y1" "VELOCITY_X2" "VELOCITY_Y2" 
 ZONE T="TIME=5.000000000000e+00"
0.000000000000e+00 0.000000000000e+00 1.013250000000e+05 1.013250000000e+05 9.999998825915e-01 1.174084565125e-07 -2.204872185018e-11 -1.571582657634e-11 -1.479029959584e-13 -3.029657683515e-14 
5.000000000000e-02 1.952617911089e+00 1.009102931789e+05 1.009083405610e+05 9.999993105654e-01 6.894345980779e-07 -8.754025989202e-11 3.741996114765e-11 -2.625642713219e-13 1.726549253753e-13 
1.000000000000e-01 2.923034658950e+00 1.004946004022e+05 1.004916773675e+05 9.999989031762e-01 1.096823758151e-06 -1.847507471553e-10 -1.274773886160e-10 -1.043807189577e-13 -8.253376990534e-14 
1.500000000000e-01 3.373520275561e+00 1.000783810994e+05 1.000750075791e+05 9.999987264883e-01 1.273511732847e-06 -1.875582456676e-10 -1.404331749599e-10 -3.552877730944e-14 -3.552824505976e-14 
2.000000000000e-01 3.572149398763e+00 9.966190174984e+04 9.965832960044e+04 9.999986481518e-01 1.351848238240e-06 -1.775462488482e-10 -1.992448512478e-10 -1.819702120704e-14 -1.799561435244e-14 
2.500000000000e-01 3.664275766602e+00 9.924530709562e+04 9.924164281986e+04 9.999986120129e-01 1.387987111467e-06 -1.428075615892e-10 -2.064063812333e-10 -5.495132926218e-15 -8.223937861919e-15 
3.000000000000e-01 3.711639315343e+00 9.882865798880e+04 9.882494634948e+04 9.999985934380e-01 1.406562003647e-06 -2.106748771429e-10 -2.353690121915e-10 -2.920440206282e-15 -3.432714603078e-15 
3.500000000000e-01 3.747999977406e+00 9.841198833352e+04 9.840824033354e+04 9.999985791564e-01 1.420843641076e-06 -1.758788771277e-10 -2.499569211378e-10 8.206537596573e-16 1.426139851807e-15 
4.000000000000e-01 3.797341086898e+00 9.799532174105e+04 9.799152439996e+04 9.999985598195e-01 1.440180454004e-06 -2.569630619383e-10 -2.563361851036e-10 8.516718569099e-15 6.378898051839e-15 
4.500000000000e-01 3.899907072082e+00 9.757869841423e+04 9.757479850715e+04 9.999985192719e-01 1.480728134107e-06 -3.092692051426e-10 -1.873113932645e-10 2.687054634664e-14 1.908116107475e-14 
5.000000000000e-01 4.159363333321e+00 9.716222152395e+04 9.715806216061e+04 9.999984156964e-01 1.584303629398e-06 -2.627031071993e-10 -1.796148443499e-10 6.980866616622e-14 3.546206283381e-14 
5.500000000000e-01 4.895112973424e+00 9.674620807391e+04 9.674131296093e+04 9.999981259306e-01 1.874069443186e-06 -3.534355641020e-10 -3.948148110913e-10 1.597463721000e-13 1.966908694236e-13 
6.000000000000e-01 6.900249432358e+00 9.633144736474e+04 9.632454711531e+04 9.999973281631e-01 2.671836947576e-06 -5.842457686309e-10 -6.264397940623e-10 4.682177058696e-13 4.640150491278e-13 
6.500000000000e-01 1.241780208057e+01 9.592016995742e+04 9.590775215534e+04 9.999951533787e-01 4.846621270760e-06 -1.470556574775e-09 -1.643654208855e-09 1.433283384676e-12 1.595898651374e-12 
7.000000000000e-01 2.711099228811e+01 9.551800825952e+04 9.549089726723e+04 9.999893763680e-01 1.062363200877e-05 -3.005098176473e-09 -4.836808555603e-09 3.242937883737e-12 5.131292486193e-12 
7.500000000000e-01 6.332828867633e+01 9.513724374881e+04 9.507391546013e+04 9.999751378671e-01 2.486213285224e-05 -7.072490771748e-09 -8.952113766314e-09 7.989744055936e-12 9.588437510450e-12 
8.000000000000e-01 1.517813507655e+02 9.480842019575e+04 9.465663884498e+04 9.999367894684e-01 6.321053164815e-05 -2.019077590813e-08 -3.172514680632e-08 2.325297223313e-11 3.260450808151e-11 
8.500000000000e-01 3.546497765069e+02 9.459337566024e+04 9.423872588373e+04 9.998639201120e-01 1.360798880276e-04 -3.736858429090e-08 -7.477480387882e-08 4.634116323691e-11 7.336995016402e-11 
9.000000000000e-01 7.486331726939e+02 9.456838137610e+04 9.381974820340e+04 9.997331116836e-01 2.668883164403e-04 -1.063366424246e-07 -2.017101133594e-07 1.332646571320e-10 1.797733492608e-10 
9.500000000000e-01 1.844308224269e+03 9.524113977155e+04 9.339683154728e+04 9.979560519507e-01 2.043948049297e-03 -1.041557567505e-06 -3.765432181822e-07 1.215366415941e-09 1.037961889835e-10 
1.000000000000e+00 8.380026096688e+03 1.013250000000e+05 9.294497390331e+04 9.582183511692e-01 4.178164883077e-02 -1.603488539290e-06 -1.090968047262e-06 2.623921091154e-09 1.199762420499e-09 
 TITLE = "Profiles along polylines"
 VARIABLES = "DIST" "PRESSURE1" "PRESSURE2" "PRESSURE_W" "SATURATION1" SATURATION2 "VELOCITY_X1" "VELOCITY_Y1" "VELOCITY_X2" "VELOCITY_Y2" 
 ZONE T="TIME=1.000000000000e+01"
0.000000000000e+00 0.000000000000e+00 1.013250000000e+05 1.013250000000e+05 9.999997872664e-01 2.127336400370e-07 -1.623559227069e-11 -1.199130235175e-11 -1.741656839804e-13 -4.021322952824e-14 
5.000000000000e-02 3.568168105599e+00 1.008877314777e+05 1.008841633096e+05 9.999987300777e-01 1.269922255354e-06 -6.892942058433e-11 2.508676960473e-11 -3.254603505851e-13 2.113981256881e-13 
1.000000000000e-01 5.813302495507e+00 1.004491370343e+05 1.004433237318e+05 9.999978178734e-01 2.182126616179e-06 -1.548802393223e-10 -1.068849287043e-10 -1.762615615013e-13 -1.333990340445e-13 
1.500000000000e-01 7.159177365566e+00 1.000096377740e+05 1.000024785966e+05 9.999972989600e-01 2.701040028974e-06 -1.758621608118e-10 -1.290562179922e-10 -7.890323506371e-14 -7.204099373739e-14 
2.000000000000e-01 7.941406198084e+00 9.956956730923e+04 9.956162590303e+04 9.999969962246e-01 3.003775360666e-06 -1.760023223429e-10 -2.002196425828e-10 -4.638940947129e-14 -4.614279535771e-14 
2.500000000000e-01 8.423766846301e+00 9.912918815638e+04 9.912076438953e+04 9.999968095964e-01 3.190403592090e-06 -1.556785560393e-10 -2.227373214703e-10 -1.061192488381e-14 -1.825516227900e-14 
3.000000000000e-01 8.787673634480e+00 9.868868010690e+04 9.867989243327e+04 9.999966680134e-01 3.331986622390e-06 -2.481536205184e-10 -2.761302909128e-10 1.188510327309e-14 1.182404396032e-14 
3.500000000000e-01 9.233167881655e+00 9.824824246680e+04 9.823900929892e+04 9.999964923914e-01 3.507608580144e-06 -2.351065908212e-10 -3.420012496301e-10 4.640207128488e-14 7.590035333879e-14 
4.000000000000e-01 1.006459069758e+01 9.780817764789e+04 9.779811305719e+04 9.999961687259e-01 3.831274149158e-06 -4.173403590987e-10 -4.001078252694e-10 1.632088514593e-13 1.415459007320e-13 
4.500000000000e-01 1.181773905585e+01 9.736901873872e+04 9.735720099966e+04 9.999954868453e-01 4.513154700847e-06 -6.261525611625e-10 -3.985246019814e-10 3.607560565263e-13 2.444665622731e-13 
5.000000000000e-01 1.558281344576e+01 9.693185011075e+04 9.691626729730e+04 9.999940185177e-01 5.981482273709e-06 -7.481260486166e-10 -4.581077289740e-10 6.130900254883e-13 3.417839457793e-13 
5.500000000000e-01 2.386250302273e+01 9.649916018240e+04 9.647529767938e+04 9.999908332159e-01 9.166784099790e-06 -1.188872726580e-09 -1.364021388947e-09 1.109618900450e-12 1.303293577029e-12 
6.000000000000e-01 4.085066130115e+01 9.607512072976e+04 9.603427006846e+04 9.999842453236e-01 1.575467636694e-05 -2.036941941815e-09 -2.134274899478e-09 2.139529516983e-12 2.200722016551e-12 
6.500000000000e-01 7.501729347748e+01 9.566815575440e+04 9.559313846092e+04 9.999710911674e-01 2.890883264905e-05 -4.321375641399e-09 -4.549868828511e-09 4.726473949091e-12 4.970468294160e-12 
7.000000000000e-01 1.403271038957e+02 9.529215476388e+04 9.515182765999e+04 9.999459286740e-01 5.407132597268e-05 -6.700936170043e-09 -9.531669836443e-09 7.529009096346e-12 1.065502026674e-11 
7.500000000000e-01 2.565565163074e+02 9.496678828768e+04 9.471023177137e+04 9.999012997049e-01 9.870029508263e-05 -1.004755454146e-08 -1.120834186532e-08 1.158039695061e-11 1.260804135877e-11 
8.000000000000e-01 4.553475597906e+02 9.472352892036e+04 9.426818136057e+04 9.998184798760e-01 1.815201240363e-04 -2.240070638543e-08 -2.980936453380e-08 2.679133372565e-11 3.329658649941e-11 
8.500000000000e-01 7.815996211084e+02 9.460703649401e+04 9.382543687290e+04 9.997079398327e-01 2.920601672979e-04 -5.344318880579e-08 -7.253326625778e-08 6.542890138608e-11 7.929693715537e-11 
9.000000000000e-01 1.289742852132e+03 9.467145588143e+04 9.338171302930e+04 9.991393781046e-01 8.606218954281e-04 -1.176359521217e-07 -1.745128053677e-07 1.459849376420e-10 1.854408884957e-10 
9.500000000000e-01 2.812612473942e+03 9.574514269967e+04 9.293253022573e+04 9.949985060575e-01 5.001493942538e-03 -8.281207154680e-07 -1.353949980567e-07 9.419232332338e-10 -1.599434322274e-11 
1.000000000000e+00 8.866544096446e+03 1.013250000000e+05 9.245845590355e+04 9.480572556964e-01 5.194274430360e-02 -1.509212545294e-06 -7.989418915451e-07 2.031929076417e-09 8.040717577663e-10 
 TITLE = "Profiles along polylines"
 VARIABLES = "DIST" "PRESSURE1" "PRESSURE2" "PRESSURE_W" "SATURATION1" SATURATION2 "VELOCITY_X1" "VELOCITY_Y1" "VELOCITY_X2" "VELOCITY_Y2" 
 ZONE T="TIME=2.000000000000e+01"
0.000000000000e+00 0.000000000000e+00 1.013250000000e+05 1.013250000000e+05 9.999996367788e-01 3.632211873494e-07 -1.341039765130e-11 -1.016448204590e-11 -1.870994865305e-13 -4.508342713107e-14 
5.000000000000e-02 6.127865945815e+00 1.008765637362e+05 1.008704358703e+05 9.999978032051e-01 2.196794921638e-06 -6.025599026095e-11 1.846451242198e-11 -3.558683746046e-13 2.312037916563e-13 
1.000000000000e-01 1.076653138644e+01 1.004266358032e+05 1.004158692718e+05 9.999959506752e-01 4.049324789035e-06 -1.456898558935e-10 -1.017569577763e-10 -2.047683833477e-13 -1.521852773380e-13 
1.500000000000e-01 1.435428380037e+01 9.997565172481e+04 9.996129744101e+04 9.999945767610e-01 5.423239039848e-06 -1.951545409242e-10 -1.399529256379e-10 -6.978262506293e-14 -6.992465900929e-14 
2.000000000000e-01 1.738894742401e+01 9.952410642557e+04 9.950671747815e+04 9.999934115969e-01 6.588403099528e-06 -2.234929314767e-10 -2.629702079337e-10 -2.000670792757e-15 1.502934553156e-14 
2.500000000000e-01 2.049510952790e+01 9.907262126667e+04 9.905212615714e+04 9.999922164899e-01 7.783510068693e-06 -2.610058373235e-10 -3.592671551236e-10 1.056149071770e-13 1.309448867994e-13 
3.000000000000e-01 2.451418372948e+01 9.862203242219e+04 9.859751823847e+04 9.999906726793e-01 9.327320679486e-06 -5.098156515066e-10 -5.605856230921e-10 3.103293132123e-13 3.361102082452e-13 
3.500000000000e-01 3.062719544227e+01 9.817351489582e+04 9.814288770037e+04 9.999882998166e-01 1.170018342234e-05 -6.021776490448e-10 -9.009287382490e-10 4.714408052774e-13 7.266923350409e-13 
4.000000000000e-01 4.076307530675e+01 9.772898692897e+04 9.768822385366e+04 9.999844246147e-01 1.557538531016e-05 -1.245956681451e-09 -1.176996490183e-09 1.132675246243e-12 1.050662215366e-12 
4.500000000000e-01 5.749209007194e+01 9.729100519195e+04 9.723351310188e+04 9.999780353331e-01 2.196466691085e-05 -1.923244689266e-09 -1.226129627308e-09 1.884553854892e-12 1.218198311109e-12 
5.000000000000e-01 8.460568380634e+01 9.686334088900e+04 9.677873520519e+04 9.999676610432e-01 3.233895678001e-05 -2.050802446573e-09 -1.315811912803e-09 2.151058100566e-12 1.350801366982e-12 
5.500000000000e-01 1.285804023793e+02 9.645243520531e+04 9.632385480293e+04 9.999509909078e-01 4.900909217997e-05 -2.851026030484e-09 -3.158482340546e-09 3.075197783330e-12 3.428764013097e-12 
6.000000000000e-01 1.959104321926e+02 9.606474842974e+04 9.586883799755e+04 9.999252775892e-01 7.472241075313e-05 -3.534425483867e-09 -3.962080714675e-09 3.924767556393e-12 4.378926588208e-12 
6.500000000000e-01 2.964705992725e+02 9.571010276464e+04 9.541363216537e+04 9.998870129568e-01 1.129870432378e-04 -5.776337585098e-09 -5.978468153090e-09 6.501869811590e-12 6.732318327955e-12 
7.000000000000e-01 4.405256466966e+02 9.539870906024e+04 9.495818341355e+04 9.998320454106e-01 1.679545894315e-04 -6.582837975369e-09 -8.938402050991e-09 7.505129095599e-12 1.018251750121e-11 
7.500000000000e-01 6.369568450548e+02 9.513940295675e+04 9.450244611170e+04 9.997574469662e-01 2.425530337835e-04 -5.413475419123e-09 -7.449474202639e-09 6.350343074708e-12 8.609637406388e-12 
8.000000000000e-01 8.927727707274e+02 9.493915860323e+04 9.404638583250e+04 9.996598124206e-01 3.401875793936e-04 -2.490406849520e-08 -2.976484325737e-08 2.993601846156e-11 3.499002382618e-11 
8.500000000000e-01 1.301995506925e+03 9.489149751181e+04 9.358950200488e+04 9.990526517476e-01 9.473482524446e-04 -6.539221777409e-08 -7.647234249716e-08 7.867570764402e-11 8.919999174162e-11 
9.000000000000e-01 2.095372617501e+03 9.522594394616e+04 9.313057132866e+04 9.976444905302e-01 2.355509469831e-03 -1.051675782699e-07 -1.366628605515e-07 1.284393919644e-10 1.626738463774e-10 
9.500000000000e-01 3.956718922524e+03 9.662271162607e+04 9.266599270355e+04 9.889783749828e-01 1.102162501722e-02 -5.345928536006e-07 1.917057349887e-08 5.944866767819e-10 -7.272362447596e-11 
1.000000000000e+00 9.142097092210e+03 1.013250000000e+05 9.218290290779e+04 9.389900563666e-01 6.100994363340e-02 -9.828380709831e-07 -3.701891605766e-07 1.251896943571e-09 4.220929130039e-10 
 TITLE = "Profiles along polylines"
 VARIABLES = "DIST" "PRESSURE1" "PRESSURE2" "PRESSURE_W" "SATURATION1" SATURATION2 "VELOCITY_X1" "VELOCITY_Y1" "VELOCITY_X2" "VELOCITY_Y2" 
 ZONE T="TIME=3.000000000000e+01"
0.000000000000e+00 0.000000000000e+00 1.013250000000e+05 1.013250000000e+05 9.999994503512e-01 5.496488277856e-07 -2.210362209696e-11 -1.613265241059e-11 -1.783610405427e-13 -3.832896414720e-14 
5.000000000000e-02 9.306969694671e+00 1.008737934173e+05 1.008644864476e+05 9.999966437880e-01 3.356212005645e-06 -9.793814345114e-11 2.839149679269e-11 -3.140316821139e-13 2.215083915211e-13 
1.000000000000e-01 1.737487252829e+01 1.004213438404e+05 1.004039689679e+05 9.999934473559e-01 6.552644120750e-06 -2.390403477825e-10 -1.677896906369e-10 -9.487114325344e-14 -7.420634906653e-14 
1.500000000000e-01 2.499143479934e+01 9.996843433678e+04 9.994344290198e+04 9.999905358241e-01 9.464175892759e-06 -3.394253495198e-10 -2.417355385186e-10 1.026566319174e-13 5.148033570329e-14 
2.000000000000e-01 3.312280347490e+01 9.951602563114e+04 9.948290282766e+04 9.999874243539e-01 1.257564606738e-05 -4.002934778948e-10 -4.753808389146e-10 2.100124819756e-13 2.696359903829e-13 
2.500000000000e-01 4.300038610682e+01 9.906534265262e+04 9.902234226652e+04 9.999836405890e-01 1.635941104106e-05 -4.802822305266e-10 -6.619549190940e-10 3.692309482679e-13 4.943884567894e-13 
3.000000000000e-01 5.638561037439e+01 9.861813667471e+04 9.856175106433e+04 9.999785325092e-01 2.146749079102e-05 -9.276638104321e-10 -1.020526694852e-09 8.133349253392e-13 8.899663764634e-13 
3.500000000000e-01 7.533508577607e+01 9.817645365765e+04 9.810111857188e+04 9.999712315159e-01 2.876848413813e-05 -1.034885090079e-09 -1.529432789768e-09 9.921316031802e-13 1.485495629527e-12 
4.000000000000e-01 1.028664611075e+02 9.774329485116e+04 9.764042839005e+04 9.999607745082e-01 3.922549176449e-05 -1.968014131329e-09 -1.891290388645e-09 2.005166403028e-12 1.914021391738e-12 
4.500000000000e-01 1.422494071094e+02 9.732191278439e+04 9.717966337728e+04 9.999458241119e-01 5.417588813794e-05 -2.777009498216e-09 -1.737420910888e-09 2.921923960934e-12 1.840808700874e-12 
5.000000000000e-01 1.975414715971e+02 9.691634363532e+04 9.671880216373e+04 9.999247915996e-01 7.520840039432e-05 -2.562408539306e-09 -1.728195676066e-09 2.785043463190e-12 1.856806154419e-12 
5.500000000000e-01 2.749961481117e+02 9.653280721604e+04 9.625781106793e+04 9.998955308940e-01 1.044691059622e-04 -3.225920195594e-09 -3.493675097878e-09 3.558799965181e-12 3.869999772978e-12 
6.000000000000e-01 3.788849046847e+02 9.617555347622e+04 9.579666857153e+04 9.998560035492e-01 1.439964507798e-04 -3.359301997987e-09 -3.955113913866e-09 3.769614651218e-12 4.428120357777e-12 
6.500000000000e-01 5.154385533152e+02 9.585078072325e+04 9.533534216993e+04 9.998041569707e-01 1.958430293445e-04 -4.794855428320e-09 -5.135557270982e-09 5.429163317045e-12 5.827076415766e-12 
7.000000000000e-01 6.893248923052e+02 9.556313330679e+04 9.487380841448e+04 9.997379300985e-01 2.620699015045e-04 -4.118506752943e-09 -6.752209686419e-09 4.694996451614e-12 7.741690765276e-12 
7.500000000000e-01 9.023278618159e+02 9.531438769161e+04 9.441205982980e+04 9.996631381170e-01 3.368618830193e-04 -8.510353144275e-09 -1.498160456658e-08 9.893685458335e-12 1.752147665896e-11 
8.000000000000e-01 1.196473166307e+03 9.514634615531e+04 9.394987298900e+04 9.991875223433e-01 8.124776567375e-04 -3.016383440725e-08 -3.493904245871e-08 3.611317270920e-11 4.140295359130e-11 
8.500000000000e-01 1.755282911690e+03 9.524155634128e+04 9.348627342959e+04 9.982497400994e-01 1.750259900627e-03 -7.354750615774e-08 -7.708579352719e-08 8.874565118450e-11 9.171691133551e-11 
9.000000000000e-01 2.674634678164e+03 9.569540133916e+04 9.302076666099e+04 9.959340159058e-01 4.065984094174e-03 -1.063420310821e-07 -1.284511096431e-07 1.298465453573e-10 1.557360271452e-10 
9.500000000000e-01 4.680031965355e+03 9.722955491773e+04 9.254952295237e+04 9.836841720798e-01 1.631582792021e-02 -3.836585172825e-07 1.609848944548e-09 4.289149069003e-10 -3.149881545719e-11 
1.000000000000e+00 9.261210295987e+03 1.013250000000e+05 9.206378970401e+04 9.339774826461e-01 6.602251735392e-02 -6.635266745971e-07 -2.410384050387e-07 8.334949904173e-10 2.713921089727e-10 
 TITLE = "Profiles along polylines"
 VARIABLES = "DIST" "PRESSURE1" "PRESSURE2" "PRESSURE_W" "SATURATION1" SATURATION2 "VELOCITY_X1" "VELOCITY_Y1" "VELOCITY_X2" "VELOCITY_Y2" 
 ZONE T="TIME=6.000000000000e+01"
0.000000000000e+00 0.000000000000e+00 1.013250000000e+05 1.013250000000e+05 9.999981685093e-01 1.831490731741e-06 -5.244989655096e-11 -3.850187728279e-11 -1.236333052946e-13 -6.110683155361e-15 
5.000000000000e-02 3.116399765600e+01 1.008873411762e+05 1.008561771786e+05 9.999886812247e-01 1.131877533245e-05 -2.303414055600e-10 7.140127144879e-11 -1.160469084156e-13 1.474140580317e-13 
1.000000000000e-01 6.224992928595e+01 1.004495949470e+05 1.003873450177e+05 9.999764770180e-01 2.352298201946e-05 -5.458419949304e-10 -3.795641142737e-10 3.104484364835e-13 2.075211360022e-13 
1.500000000000e-01 9.509080945127e+01 1.000135840396e+05 9.991849323011e+04 9.999639690193e-01 3.603098073701e-05 -7.147405128438e-10 -5.140248096947e-10 5.859690052507e-13 4.033618216897e-13 
2.000000000000e-01 1.315804899549e+02 9.958119195222e+04 9.944961146227e+04 9.999500720750e-01 4.992792504943e-05 -7.823619118653e-10 -9.140501944325e-10 6.994981300167e-13 8.306330782641e-13 
2.500000000000e-01 1.736051373199e+02 9.915429495474e+04 9.898068981742e+04 9.999340637109e-01 6.593628907903e-05 -8.070626895026e-10 -1.138717629256e-09 7.884547047926e-13 1.104257087473e-12 
3.000000000000e-01 2.235716717678e+02 9.873528660789e+04 9.851171493612e+04 9.999150930088e-01 8.490699120522e-05 -1.391134156705e-09 -1.541065610163e-09 1.413284868880e-12 1.563222703848e-12 
3.500000000000e-01 2.833307242956e+02 9.832600823383e+04 9.804267750953e+04 9.998922131335e-01 1.077868664698e-04 -1.334233676747e-09 -1.925609729566e-09 1.392634770557e-12 2.021499464893e-12 
4.000000000000e-01 3.552525947704e+02 9.792881758110e+04 9.757356498633e+04 9.998650284812e-01 1.349715188083e-04 -2.168351676621e-09 -2.137563950923e-09 2.315693313777e-12 2.278240967944e-12 
4.500000000000e-01 4.410592643499e+02 9.754542810538e+04 9.710436884103e+04 9.998325990243e-01 1.674009756828e-04 -2.691518882410e-09 -1.636762931599e-09 2.912150025367e-12 1.777122323483e-12 
5.000000000000e-01 5.424070158934e+02 9.717748791874e+04 9.663508090285e+04 9.997942041243e-01 2.057958757344e-04 -2.075479273196e-09 -1.491163622317e-09 2.279567173361e-12 1.628168229912e-12 
5.500000000000e-01 6.619661291597e+02 9.682765326642e+04 9.616568713726e+04 9.997491019687e-01 2.508980312835e-04 -2.347111735266e-09 -2.458224884223e-09 2.598512902182e-12 2.730088396168e-12 
6.000000000000e-01 8.000194235668e+02 9.649620678669e+04 9.569618736312e+04 9.996966839112e-01 3.033160888132e-04 -2.372714651034e-09 -2.661288790265e-09 2.656200475618e-12 2.979876501989e-12 
6.500000000000e-01 9.583187007710e+02 9.618489161540e+04 9.522657291463e+04 9.996376300592e-01 3.623699407689e-04 -8.246583819104e-09 -8.560443451770e-09 9.524163610971e-12 9.936852204575e-12 
7.000000000000e-01 1.159799958123e+03 9.591652242990e+04 9.475672247178e+04 9.993220371324e-01 6.779628675526e-04 -1.390571059794e-08 -1.874507632008e-08 1.629488272030e-11 2.205715439619e-11 
7.500000000000e-01 1.479454236507e+03 9.576569132579e+04 9.428623708928e+04 9.987411184332e-01 1.258881566822e-03 -1.770973631208e-08 -1.812087477179e-08 2.092477279957e-11 2.156153445192e-11 
8.000000000000e-01 1.960930076760e+03 9.577582042134e+04 9.381489034458e+04 9.978183371805e-01 2.181662819478e-03 -3.264571396992e-08 -3.335057347793e-08 3.953416806614e-11 4.037861263347e-11 
8.500000000000e-01 2.674354669721e+03 9.601667944299e+04 9.334232477327e+04 9.957548088756e-01 4.245191124431e-03 -7.463949278085e-08 -7.415540974183e-08 9.161206235853e-11 9.043366088132e-11 
9.000000000000e-01 3.770392577405e+03 9.663814873366e+04 9.286775615626e+04 9.907525906037e-01 9.247409396309e-03 -9.389772763796e-08 -1.026062242567e-07 1.154278843258e-10 1.256439780015e-10 
9.500000000000e-01 5.865110024610e+03 9.825297355742e+04 9.238786353281e+04 9.722105923406e-01 2.778940765937e-02 -2.024940285463e-07 -2.626678637073e-08 2.305404965257e-10 1.528600524871e-11 
1.000000000000e+00 9.425473235200e+03 1.013250000000e+05 9.189952676480e+04 9.262372708444e-01 7.376272915564e-02 -2.957930616135e-07 -1.154196753955e-07 3.634475631771e-10 1.169877773185e-10 
 ZONE T="TIME=1.200000000000e+02"