VARIABLES = "X","Y","Z","VX","VY","VZ"
ZONE T="0.000000000000e+00s", I=100, F=POINT, C=BLACK
2.500000000000e-01 5.000000000000e-01 -2.000200000000e+03 0.000000000000e+00 0.000000000000e+00 0.000000000000e+00 
7.500000000000e-01 5.000000000000e-01 -2.000200000000e+03 0.000000000000e+00 0.000000000000e+00 0.000000000000e+00 
1.250000000000e+00 5.000000000000e-01 -2.000200000000e+03 0.000000000000e+00 0.000000000000e+00 0.000000000000e+00 
1.750000000000e+00 5.000000000000e-01 -2.000200000000e+03 0.000000000000e+00 0.000000000000e+00 0.000000000000e+00 
2.250000000000e+00 5.000000000000e-01 -2.000200000000e+03 0.000000000000e+00 0.000000000000e+00 0.000000000000e+00 
2.750000000000e+00 5.000000000000e-01 -2.000200000000e+03 0.000000000000e+00 0.000000000000e+00 0.000000000000e+00 
3.250000000000e+00 5.000000000000e-01 -2.000200000000e+03 0.000000000000e+00 0.000000000000e+00 0.000000000000e+00 
3.750000000000e+00 5.000000000000e-01 -2.000200000000e+03 0.000000000000e+00 0.000000000000e+00 0.000000000000e+00 
4.250000000000e+00 5.000000000000e-01 -2.000200000000e+03 0.000000000000e+00 0.000000000000e+00 0.000000000000e+00 
4.750000000000e+00 5.000000000000e-01 -2.000200000000e+03 0.000000000000e+00 0.000000000000e+00 0.000000000000e+00 
5.250000000000e+00 5.000000000000e-01 -2.000200000000e+03 0.000000000000e+00 0.000000000000e+00 0.000000000000e+00 
5.750000000000e+00 5.000000000000e-01 -2.000200000000e+03 0.000000000000e+00 0.000000000000e+00 0.000000000000e+00 
6.250000000000e+00 5.000000000000e-01 -2.000200000000e+03 0.000000000000e+00 0.000000000000e+00 0.000000000000e+00 
6.750000000000e+00 5.000000000000e-01 -2.000200000000e+03 0.000000000000e+00 0.000000000000e+00 0.000000000000e+00 
7.250000000000e+00 5.000000000000e-01 -2.000200000000e+03 0.000000000000e+00 0.000000000000e+00 0.000000000000e+00 
7.750000000000e+00 5.000000000000e-01 -2.000200000000e+03 0.000000000000e+00 0.000000000000e+00 0.000000000000e+00 
8.250000000000e+00 5.000000000000e-01 -2.000200000000e+03 0.000000000000e+00 0.000000000000e+00 0.000000000000e+00 
8.750000000000e+00 5.000000000000e-01 -2.000200000000e+03 0.000000000000e+00 0.000000000000e+00 0.000000000000e+00 
9.250000000000e+00 5.000000000000e-01 -2.000200000000e+03 0.000000000000e+00 0.000000000000e+00 0.000000000000e+00 
9.750000000000e+00 5.000000000000e-01 -2.000200000000e+03 0.000000000000e+00 0.000000000000e+00 0.000000000000e+00 
2.500000000000e-01 5.000000000000e-01 -2.000600000000e+03 0.000000000000e+00 0.000000000000e+00 0.000000000000e+00 
7.500000000000e-01 5.000000000000e-01 -2.000600000000e+03 0.000000000000e+00 0.000000000000e+00 0.000000000000e+00 
1.250000000000e+00 5.000000000000e-01 -2.000600000000e+03 0.000000000000e+00 0.000000000000e+00 0.000000000000e+00 
1.750000000000e+00 5.000000000000e-01 -2.000600000000e+03 0.000000000000e+00 0.000000000000e+00 0.000000000000e+00 
2.250000000000e+00 5.000000000000e-01 -2.000600000000e+03 0.000000000000e+00 0.000000000000e+00 0.000000000000e+00 
2.750000000000e+00 5.000000000000e-01 -2.000600000000e+03 0.000000000000e+00 0.000000000000e+00 0.000000000000e+00 
3.250000000000e+00 5.000000000000e-01 -2.000600000000e+03 0.000000000000e+00 0.000000000000e+00 0.000000000000e+00 
3.750000000000e+00 5.000000000000e-01 -2.000600000000e+03 0.000000000000e+00 0.000000000000e+00 0.000000000000e+00 
4.250000000000e+00 5.000000000000e-01 -2.000600000000e+03 0.000000000000e+00 0.000000000000e+00 0.000000000000e+00 
4.750000000000e+00 5.000000000000e-01 -2.000600000000e+03 0.000000000000e+00 0.000000000000e+00 0.000000000000e+00 
5.250000000000e+00 5.000000000000e-01 -2.000600000000e+03 0.000000000000e+00 0.000000000000e+00 0.000000000000e+00 
5.750000000000e+00 5.000000000000e-01 -2.000600000000e+03 0.000000000000e+00 0.000000000000e+00 0.000000000000e+00 
6.250000000000e+00 5.000000000000e-01 -2.000600000000e+03 0.000000000000e+00 0.000000000000e+00 0.000000000000e+00 
6.750000000000e+00 5.000000000000e-01 -2.000600000000e+03 0.000000000000e+00 0.000000000000e+00 0.000000000000e+00 
7.250000000000e+00 5.000000000000e-01 -2.000600000000e+03 0.000000000000e+00 0.000000000000e+00 0.000000000000e+00 
7.750000000000e+00 5.000000000000e-01 -2.000600000000e+03 0.000000000000e+00 0.000000000000e+00 0.000000000000e+00 
8.250000000000e+00 5.000000000000e-01 -2.000600000000e+03 0.000000000000e+00 0.000000000000e+00 0.000000000000e+00 
8.750000000000e+00 5.000000000000e-01 -2.000600000000e+03 0.000000000000e+00 0.000000000000e+00 0.000000000000e+00 
9.250000000000e+00 5.000000000000e-01 -2.000600000000e+03 0.000000000000e+00 0.000000000000e+00 0.000000000000e+00 
9.750000000000e+00 5.000000000000e-01 -2.000600000000e+03 0.000000000000e+00 0.000000000000e+00 0.000000000000e+00 
2.500000000000e-01 5.000000000000e-01 -2.001000000000e+03 0.000000000000e+00 0.000000000000e+00 0.000000000000e+00 
7.500000000000e-01 5.000000000000e-01 -2.001000000000e+03 0.000000000000e+00 0.000000000000e+00 0.000000000000e+00 
1.250000000000e+00 5.000000000000e-01 -2.001000000000e+03 0.000000000000e+00 0.000000000000e+00 0.000000000000e+00 
1.750000000000e+00 5.000000000000e-01 -2.001000000000e+03 0.000000000000e+00 0.000000000000e+00 0.000000000000e+00 
2.250000000000e+00 5.000000000000e-01 -2.001000000000e+03 0.000000000000e+00 0.000000000000e+00 0.000000000000e+00 
2.750000000000e+00 5.000000000000e-01 -2.001000000000e+03 0.000000000000e+00 0.000000000000e+00 0.000000000000e+00 
3.250000000000e+00 5.000000000000e-01 -2.001000000000e+03 0.000000000000e+00 0.000000000000e+00 0.000000000000e+00 
3.750000000000e+00 5.000000000000e-01 -2.001000000000e+03 0.000000000000e+00 0.000000000000e+00 0.000000000000e+00 
4.250000000000e+00 5.000000000000e-01 -2.001000000000e+03 0.000000000000e+00 0.000000000000e+00 0.000000000000e+00 
4.750000000000e+00 5.000000000000e-01 -2.001000000000e+03 0.000000000000e+00 0.000000000000e+00 0.000000000000e+00 
5.250000000000e+00 5.000000000000e-01 -2.001000000000e+03 0.000000000000e+00 0.000000000000e+00 0.000000000000e+00 
5.750000000000e+00 5.000000000000e-01 -2.001000000000e+03 0.000000000000e+00 0.000000000000e+00 0.000000000000e+00 
6.250000000000e+00 5.000000000000e-01 -2.001000000000e+03 0.000000000000e+00 0.000000000000e+00 0.000000000000e+00 
6.750000000000e+00 5.000000000000e-01 -2.001000000000e+03 0.000000000000e+00 0.000000000000e+00 0.000000000000e+00 
7.250000000000e+00 5.000000000000e-01 -2.001000000000e+03 0.000000000000e+00 0.000000000000e+00 0.000000000000e+00 
7.750000000000e+00 5.000000000000e-01 -2.001000000000e+03 0.000000000000e+00 0.000000000000e+00 0.000000000000e+00 
8.250000000000e+00 5.000000000000e-01 -2.001000000000e+03 0.000000000000e+00 0.000000000000e+00 0.000000000000e+00 
8.750000000000e+00 5.000000000000e-01 -2.001000000000e+03 0.000000000000e+00 0.000000000000e+00 0.000000000000e+00 
9.250000000000e+00 5.000000000000e-01 -2.001000000000e+03 0.000000000000e+00 0.000000000000e+00 0.000000000000e+00 
9.750000000000e+00 5.000000000000e-01 -2.001000000000e+03 0.000000000000e+00 0.000000000000e+00 0.000000000000e+00 
2.500000000000e-01 5.000000000000e-01 -2.001400000000e+03 0.000000000000e+00 0.000000000000e+00 0.000000000000e+00 
7.500000000000e-01 5.000000000000e-01 -2.001400000000e+03 0.000000000000e+00 0.000000000000e+00 0.000000000000e+00 
1.250000000000e+00 5.000000000000e-01 -2.001400000000e+03 0.000000000000e+00 0.000000000000e+00 0.000000000000e+00 
1.750000000000e+00 5.000000000000e-01 -2.001400000000e+03 0.000000000000e+00 0.000000000000e+00 0.000000000000e+00 
2.250000000000e+00 5.000000000000e-01 -2.001400000000e+03 0.000000000000e+00 0.000000000000e+00 0.000000000000e+00 
2.750000000000e+00 5.000000000000e-01 -2.001400000000e+03 0.000000000000e+00 0.000000000000e+00 0.000000000000e+00 
3.250000000000e+00 5.000000000000e-01 -2.001400000000e+03 0.000000000000e+00 0.000000000000e+00 0.000000000000e+00 
3.750000000000e+00 5.000000000000e-01 -2.001400000000e+03 0.000000000000e+00 0.000000000000e+00 0.000000000000e+00 
4.250000000000e+00 5.000000000000e-01 -2.001400000000e+03 0.000000000000e+00 0.000000000000e+00 0.000000000000e+00 
4.750000000000e+00 5.000000000000e-01 -2.001400000000e+03 0.000000000000e+00 0.000000000000e+00 0.000000000000e+00 
5.250000000000e+00 5.000000000000e-01 -2.001400000000e+03 0.000000000000e+00 0.000000000000e+00 0.000000000000e+00 
5.750000000000e+00 5.000000000000e-01 -2.001400000000e+03 0.000000000000e+00 0.000000000000e+00 0.000000000000e+00 
6.250000000000e+00 5.000000000000e-01 -2.001400000000e+03 0.000000000000e+00 0.000000000000e+00 0.000000000000e+00 
6.750000000000e+00 5.000000000000e-01 -2.001400000000e+03 0.000000000000e+00 0.000000000000e+00 0.000000000000e+00 
7.250000000000e+00 5.000000000000e-01 -2.001400000000e+03 0.000000000000e+00 0.000000000000e+00 0.000000000000e+00 
7.750000000000e+00 5.000000000000e-01 -2.001400000000e+03 0.000000000000e+00 0.000000000000e+00 0.000000000000e+00 
8.250000000000e+00 5.000000000000e-01 -2.001400000000e+03 0.000000000000e+00 0.000000000000e+00 0.000000000000e+00 
8.750000000000e+00 5.000000000000e-01 -2.001400000000e+03 0.000000000000e+00 0.000000000000e+00 0.000000000000e+00 
9.250000000000e+00 5.000000000000e-01 -2.001400000000e+03 0.000000000000e+00 0.000000000000e+00 0.000000000000e+00 
9.750000000000e+00 5.000000000000e-01 -2.001400000000e+03 0.000000000000e+00 0.000000000000e+00 0.000000000000e+00 
2.500000000000e-01 5.000000000000e-01 -2.001800000000e+03 0.000000000000e+00 0.000000000000e+00 0.000000000000e+00 
7.500000000000e-01 5.000000000000e-01 -2.001800000000e+03 0.000000000000e+00 0.000000000000e+00 0.000000000000e+00 
1.250000000000e+00 5.000000000000e-01 -2.001800000000e+03 0.000000000000e+00 0.000000000000e+00 0.000000000000e+00 
1.750000000000e+00 5.000000000000e-01 -2.001800000000e+03 0.000000000000e+00 0.000000000000e+00 0.000000000000e+00 
2.250000000000e+00 5.000000000000e-01 -2.001800000000e+03 0.000000000000e+00 0.000000000000e+00 0.000000000000e+00 
2.750000000000e+00 5.000000000000e-01 -2.001800000000e+03 0.000000000000e+00 0.000000000000e+00 0.000000000000e+00 
3.250000000000e+00 5.000000000000e-01 -2.001800000000e+03 0.000000000000e+00 0.000000000000e+00 0.000000000000e+00 
3.750000000000e+00 5.000000000000e-01 -2.001800000000e+03 0.000000000000e+00 0.000000000000e+00 0.000000000000e+00 
4.250000000000e+00 5.000000000000e-01 -2.001800000000e+03 0.000000000000e+00 0.000000000000e+00 0.000000000000e+00 
4.750000000000e+00 5.000000000000e-01 -2.001800000000e+03 0.000000000000e+00 0.000000000000e+00 0.000000000000e+00 
5.250000000000e+00 5.000000000000e-01 -2.001800000000e+03 0.000000000000e+00 0.000000000000e+00 0.000000000000e+00 
5.750000000000e+00 5.000000000000e-01 -2.001800000000e+03 0.000000000000e+00 0.000000000000e+00 0.000000000000e+00 
6.250000000000e+00 5.000000000000e-01 -2.001800000000e+03 0.000000000000e+00 0.000000000000e+00 0.000000000000e+00 
6.750000000000e+00 5.000000000000e-01 -2.001800000000e+03 0.000000000000e+00 0.000000000000e+00 0.000000000000e+00 
7.250000000000e+00 5.000000000000e-01 -2.001800000000e+03 0.000000000000e+00 0.000000000000e+00 0.000000000000e+00 
7.750000000000e+00 5.000000000000e-01 -2.001800000000e+03 0.000000000000e+00 0.000000000000e+00 0.000000000000e+00 
8.250000000000e+00 5.000000000000e-01 -2.001800000000e+03 0.000000000000e+00 0.000000000000e+00 0.000000000000e+00 
8.750000000000e+00 5.000000000000e-01 -2.001800000000e+03 0.000000000000e+00 0.000000000000e+00 0.000000000000e+00 
9.250000000000e+00 5.000000000000e-01 -2.001800000000e+03 0.000000000000e+00 0.000000000000e+00 0.000000000000e+00 
9.750000000000e+00 5.000000000000e-01 -2.001800000000e+03 0.000000000000e+00 0.000000000000e+00 0.000000000000e+00 
VARIABLES = "X","Y","Z","VX","VY","VZ"
ZONE T="1.000000000000e+00s", I=100, F=POINT, C=BLACK
2.500000000000e-01 5.000000000000e-01 -2.000200000000e+03 8.061835328652e-09 0.000000000000e+00 0.000000000000e+00 
7.500000000000e-01 5.000000000000e-01 -2.000200000000e+03 -6.589172333324e-08 0.000000000000e+00 -3.556075219454e-09 
1.250000000000e+00 5.000000000000e-01 -2.000200000000e+03 1.723327272366e-08 0.000000000000e+00 -6.142464499763e-10 
1.750000000000e+00 5.000000000000e-01 -2.000200000000e+03 1.299609581131e-08 0.000000000000e+00 1.131722514180e-09 
2.250000000000e+00 5.000000000000e-01 -2.000200000000e+03 9.895264112572e-09 0.000000000000e+00 2.246055266817e-09 
2.750000000000e+00 5.000000000000e-01 -2.000200000000e+03 7.534617467111e-09 0.000000000000e+00 2.974646814182e-09 
3.250000000000e+00 5.000000000000e-01 -2.000200000000e+03 5.699215121296e-09 0.000000000000e+00 3.453547384323e-09 
3.750000000000e+00 5.000000000000e-01 -2.000200000000e+03 4.244286545510e-09 0.000000000000e+00 3.766839284219e-09 
4.250000000000e+00 5.000000000000e-01 -2.000200000000e+03 3.063430878556e-09 0.000000000000e+00 3.968218226586e-09 
4.750000000000e+00 5.000000000000e-01 -2.000200000000e+03 2.074355524460e-09 0.000000000000e+00 4.091252318163e-09 
5.250000000000e+00 5.000000000000e-01 -2.000200000000e+03 1.209937899804e-09 0.000000000000e+00 4.154638088880e-09 
5.750000000000e+00 5.000000000000e-01 -2.000200000000e+03 4.111167668678e-10 0.000000000000e+00 4.164145981003e-09 
6.250000000000e+00 5.000000000000e-01 -2.000200000000e+03 -3.801393350300e-10 0.000000000000e+00 4.111339354444e-09 
6.750000000000e+00 5.000000000000e-01 -2.000200000000e+03 -1.229452187803e-09 0.000000000000e+00 3.967962876163e-09 
7.250000000000e+00 5.000000000000e-01 -2.000200000000e+03 -2.222674963686e-09 0.000000000000e+00 3.673188257092e-09 
7.750000000000e+00 5.000000000000e-01 -2.000200000000e+03 -3.486732247794e-09 0.000000000000e+00 3.107168910778e-09 
8.250000000000e+00 5.000000000000e-01 -2.000200000000e+03 -5.226533373646e-09 0.000000000000e+00 2.033235776986e-09 
8.750000000000e+00 5.000000000000e-01 -2.000200000000e+03 -7.794615543480e-09 0.000000000000e+00 -5.271646373019e-11 
9.250000000000e+00 5.000000000000e-01 -2.000200000000e+03 -1.909316419467e-08 0.000000000000e+00 -4.432256500563e-09 
9.750000000000e+00 5.000000000000e-01 -2.000200000000e+03 3.290166301808e-08 0.000000000000e+00 0.000000000000e+00 
2.500000000000e-01 5.000000000000e-01 -2.000600000000e+03 8.704489748507e-09 0.000000000000e+00 0.000000000000e+00 
7.500000000000e-01 5.000000000000e-01 -2.000600000000e+03 -7.065241251415e-08 0.000000000000e+00 -4.295890011406e-09 
1.250000000000e+00 5.000000000000e-01 -2.000600000000e+03 1.505730169057e-08 0.000000000000e+00 -1.140809590765e-09 
1.750000000000e+00 5.000000000000e-01 -2.000600000000e+03 1.171259036874e-08 0.000000000000e+00 1.062138375134e-09 
2.250000000000e+00 5.000000000000e-01 -2.000600000000e+03 9.077861927146e-09 0.000000000000e+00 2.560639647113e-09 
2.750000000000e+00 5.000000000000e-01 -2.000600000000e+03 7.000430416394e-09 0.000000000000e+00 3.567113470306e-09 
3.250000000000e+00 5.000000000000e-01 -2.000600000000e+03 5.347946738320e-09 0.000000000000e+00 4.237066213451e-09 
3.750000000000e+00 5.000000000000e-01 -2.000600000000e+03 4.014128704456e-09 0.000000000000e+00 4.678152129133e-09 
4.250000000000e+00 5.000000000000e-01 -2.000600000000e+03 2.914839345290e-09 0.000000000000e+00 4.962462998611e-09 
4.750000000000e+00 5.000000000000e-01 -2.000600000000e+03 1.982375354403e-09 0.000000000000e+00 5.135938385280e-09 
5.250000000000e+00 5.000000000000e-01 -2.000600000000e+03 1.160199394812e-09 0.000000000000e+00 5.224141188162e-09 
5.750000000000e+00 5.000000000000e-01 -2.000600000000e+03 3.981459341760e-10 0.000000000000e+00 5.234311072636e-09 
6.250000000000e+00 5.000000000000e-01 -2.000600000000e+03 -3.524642240832e-10 0.000000000000e+00 5.153078412628e-09 
6.750000000000e+00 5.000000000000e-01 -2.000600000000e+03 -1.144707786158e-09 0.000000000000e+00 4.938062135668e-09 
7.250000000000e+00 5.000000000000e-01 -2.000600000000e+03 -2.044377097667e-09 0.000000000000e+00 4.499706830549e-09 
7.750000000000e+00 5.000000000000e-01 -2.000600000000e+03 -3.143053852357e-09 0.000000000000e+00 3.666986441617e-09 
8.250000000000e+00 5.000000000000e-01 -2.000600000000e+03 -4.579363017088e-09 0.000000000000e+00 2.129012136193e-09 
8.750000000000e+00 5.000000000000e-01 -2.000600000000e+03 -6.570894859236e-09 0.000000000000e+00 -6.408766220569e-10 
9.250000000000e+00 5.000000000000e-01 -2.000600000000e+03 -1.614317784563e-08 0.000000000000e+00 -5.351895478930e-09 
9.750000000000e+00 5.000000000000e-01 -2.000600000000e+03 3.726004827205e-08 0.000000000000e+00 0.000000000000e+00 
2.500000000000e-01 5.000000000000e-01 -2.001000000000e+03 9.226811733017e-09 0.000000000000e+00 0.000000000000e+00 
7.500000000000e-01 5.000000000000e-01 -2.001000000000e+03 -7.440608554035e-08 0.000000000000e+00 -4.146521971611e-09 
1.250000000000e+00 5.000000000000e-01 -2.001000000000e+03 1.248074924005e-08 0.000000000000e+00 -1.063825175073e-09 
1.750000000000e+00 5.000000000000e-01 -2.001000000000e+03 9.939501571347e-09 0.000000000000e+00 1.054052035380e-09 
2.250000000000e+00 5.000000000000e-01 -2.001000000000e+03 7.877532396595e-09 0.000000000000e+00 2.486352575241e-09 
2.750000000000e+00 5.000000000000e-01 -2.001000000000e+03 6.195494945871e-09 0.000000000000e+00 3.446081121956e-09 
3.250000000000e+00 5.000000000000e-01 -2.001000000000e+03 4.812201463619e-09 0.000000000000e+00 4.084213199085e-09 
3.750000000000e+00 5.000000000000e-01 -2.001000000000e+03 3.660926496262e-09 0.000000000000e+00 4.504114292936e-09 
4.250000000000e+00 5.000000000000e-01 -2.001000000000e+03 2.686152217224e-09 0.000000000000e+00 4.774704051120e-09 
4.750000000000e+00 5.000000000000e-01 -2.001000000000e+03 1.840879483571e-09 0.000000000000e+00 4.939826594660e-09 
5.250000000000e+00 5.000000000000e-01 -2.001000000000e+03 1.084356044032e-09 0.000000000000e+00 5.023878203284e-09 
5.750000000000e+00 5.000000000000e-01 -2.001000000000e+03 3.801093034682e-10 0.000000000000e+00 5.033825194568e-09 
6.250000000000e+00 5.000000000000e-01 -2.001000000000e+03 -3.058121403151e-10 0.000000000000e+00 4.957061684714e-09 
6.750000000000e+00 5.000000000000e-01 -2.001000000000e+03 -1.006476870119e-09 0.000000000000e+00 4.753454268750e-09 
7.250000000000e+00 5.000000000000e-01 -2.001000000000e+03 -1.755666741398e-09 0.000000000000e+00 4.338062866158e-09 
7.750000000000e+00 5.000000000000e-01 -2.001000000000e+03 -2.589511256381e-09 0.000000000000e+00 3.548242016188e-09 
8.250000000000e+00 5.000000000000e-01 -2.001000000000e+03 -3.548251373390e-09 0.000000000000e+00 2.086170956340e-09 
8.750000000000e+00 5.000000000000e-01 -2.001000000000e+03 -4.678269439257e-09 0.000000000000e+00 -5.643732942731e-10 
9.250000000000e+00 5.000000000000e-01 -2.001000000000e+03 -1.233303990454e-08 0.000000000000e+00 -5.166254081135e-09 
9.750000000000e+00 5.000000000000e-01 -2.001000000000e+03 4.043815673875e-08 0.000000000000e+00 0.000000000000e+00 
2.500000000000e-01 5.000000000000e-01 -2.001400000000e+03 9.749673859142e-09 0.000000000000e+00 0.000000000000e+00 
7.500000000000e-01 5.000000000000e-01 -2.001400000000e+03 -7.816378956287e-08 0.000000000000e+00 -2.956354201437e-09 
1.250000000000e+00 5.000000000000e-01 -2.001400000000e+03 9.902569349276e-09 0.000000000000e+00 -4.587268828005e-10 
1.750000000000e+00 5.000000000000e-01 -2.001400000000e+03 8.165553050537e-09 0.000000000000e+00 9.813746002646e-10 
2.250000000000e+00 5.000000000000e-01 -2.001400000000e+03 6.676771771090e-09 0.000000000000e+00 1.888420538100e-09 
2.750000000000e+00 5.000000000000e-01 -2.001400000000e+03 5.390330846565e-09 0.000000000000e+00 2.477960345964e-09 
3.250000000000e+00 5.000000000000e-01 -2.001400000000e+03 4.276327793515e-09 0.000000000000e+00 2.864345129642e-09 
3.750000000000e+00 5.000000000000e-01 -2.001400000000e+03 3.307648126301e-09 0.000000000000e+00 3.116738030520e-09 
4.250000000000e+00 5.000000000000e-01 -2.001400000000e+03 2.457418872642e-09 0.000000000000e+00 3.278865517503e-09 
4.750000000000e+00 5.000000000000e-01 -2.001400000000e+03 1.699355122201e-09 0.000000000000e+00 3.377949172532e-09 
5.250000000000e+00 5.000000000000e-01 -2.001400000000e+03 1.008494740310e-09 0.000000000000e+00 3.429151446219e-09 
5.750000000000e+00 5.000000000000e-01 -2.001400000000e+03 3.620617594342e-10 0.000000000000e+00 3.437240190185e-09 
6.250000000000e+00 5.000000000000e-01 -2.001400000000e+03 -2.591657023885e-10 0.000000000000e+00 3.395616617304e-09 
6.750000000000e+00 5.000000000000e-01 -2.001400000000e+03 -8.682455850202e-10 0.000000000000e+00 3.281860141719e-09 
7.250000000000e+00 5.000000000000e-01 -2.001400000000e+03 -1.466943118889e-09 0.000000000000e+00 3.047476085887e-09 
7.750000000000e+00 5.000000000000e-01 -2.001400000000e+03 -2.035917752181e-09 0.000000000000e+00 2.596192507515e-09 
8.250000000000e+00 5.000000000000e-01 -2.001400000000e+03 -2.516965390186e-09 0.000000000000e+00 1.734354231629e-09 
8.750000000000e+00 5.000000000000e-01 -2.001400000000e+03 -2.785063184445e-09 0.000000000000e+00 3.186166558165e-11 
9.250000000000e+00 5.000000000000e-01 -2.001400000000e+03 -8.520455075840e-09 0.000000000000e+00 -3.685813941148e-09 
9.750000000000e+00 5.000000000000e-01 -2.001400000000e+03 4.361995757791e-08 0.000000000000e+00 0.000000000000e+00 
2.500000000000e-01 5.000000000000e-01 -2.001800000000e+03 1.039419540917e-08 0.000000000000e+00 0.000000000000e+00 
7.500000000000e-01 5.000000000000e-01 -2.001800000000e+03 -8.293873864254e-08 0.000000000000e+00 4.521316816857e-10 
1.250000000000e+00 5.000000000000e-01 -2.001800000000e+03 7.723365695010e-09 0.000000000000e+00 7.792650139213e-11 
1.750000000000e+00 5.000000000000e-01 -2.001800000000e+03 6.880338861084e-09 0.000000000000e+00 -1.441272703287e-10 
2.250000000000e+00 5.000000000000e-01 -2.001800000000e+03 5.858540624426e-09 0.000000000000e+00 -2.858055967159e-10 
2.750000000000e+00 5.000000000000e-01 -2.001800000000e+03 4.855705367519e-09 0.000000000000e+00 -3.784225857414e-10 
3.250000000000e+00 5.000000000000e-01 -2.001800000000e+03 3.924812631429e-09 0.000000000000e+00 -4.392925283527e-10 
3.750000000000e+00 5.000000000000e-01 -2.001800000000e+03 3.077344782122e-09 0.000000000000e+00 -4.791104034744e-10 
4.250000000000e+00 5.000000000000e-01 -2.001800000000e+03 2.308738370205e-09 0.000000000000e+00 -5.047038030796e-10 
4.750000000000e+00 5.000000000000e-01 -2.001800000000e+03 1.607319741390e-09 0.000000000000e+00 -5.203405447100e-10 
5.250000000000e+00 5.000000000000e-01 -2.001800000000e+03 9.587216939337e-10 0.000000000000e+00 -5.283973524696e-10 
5.750000000000e+00 5.000000000000e-01 -2.001800000000e+03 3.490698476461e-10 0.000000000000e+00 -5.296085495026e-10 
6.250000000000e+00 5.000000000000e-01 -2.001800000000e+03 -2.315017010249e-10 0.000000000000e+00 -5.229030135344e-10 
6.750000000000e+00 5.000000000000e-01 -2.001800000000e+03 -7.835013567397e-10 0.000000000000e+00 -5.046912741519e-10 
7.250000000000e+00 5.000000000000e-01 -2.001800000000e+03 -1.288623509245e-09 0.000000000000e+00 -4.672439933900e-10 
7.750000000000e+00 5.000000000000e-01 -2.001800000000e+03 -1.692154495941e-09 0.000000000000e+00 -3.953273760981e-10 
8.250000000000e+00 5.000000000000e-01 -2.001800000000e+03 -1.869506509277e-09 0.000000000000e+00 -2.588405085561e-10 
8.750000000000e+00 5.000000000000e-01 -2.001800000000e+03 -1.560373887503e-09 0.000000000000e+00 6.385200589644e-12 
9.250000000000e+00 5.000000000000e-01 -2.001800000000e+03 -5.565992694377e-09 0.000000000000e+00 5.636287980721e-10 
9.750000000000e+00 5.000000000000e-01 -2.001800000000e+03 4.799169669112e-08 0.000000000000e+00 0.000000000000e+00 
VARIABLES = "X","Y","Z","VX","VY","VZ"
ZONE T="2.000000000000e+00s", I=100, F=POINT, C=BLACK
2.500000000000e-01 5.000000000000e-01 -2.000200000000e+03 4.980319891242e-09 0.000000000000e+00 -1.906815839562e-16 
7.500000000000e-01 5.000000000000e-01 -2.000200000000e+03 -4.006632124219e-08 0.000000000000e+00 -4.883064016438e-09 
1.250000000000e+00 5.000000000000e-01 -2.000200000000e+03 6.141357893441e-09 0.000000000000e+00 -2.107136973578e-09 
1.750000000000e+00 5.000000000000e-01 -2.000200000000e+03 4.251320056655e-09 0.000000000000e+00 -8.714251076913e-10 
2.250000000000e+00 5.000000000000e-01 -2.000200000000e+03 3.357116685660e-09 0.000000000000e+00 -2.914791667433e-10 
2.750000000000e+00 5.000000000000e-01 -2.000200000000e+03 2.826605817865e-09 0.000000000000e+00 -1.609589511721e-11 
3.250000000000e+00 5.000000000000e-01 -2.000200000000e+03 2.391319959775e-09 0.000000000000e+00 1.196045259201e-10 
3.750000000000e+00 5.000000000000e-01 -2.000200000000e+03 1.998028198215e-09 0.000000000000e+00 1.929554118563e-10 
4.250000000000e+00 5.000000000000e-01 -2.000200000000e+03 1.538275989177e-09 0.000000000000e+00 2.331338728397e-10 
4.750000000000e+00 5.000000000000e-01 -2.000200000000e+03 1.081282514726e-09 0.000000000000e+00 2.708520232176e-10 
5.250000000000e+00 5.000000000000e-01 -2.000200000000e+03 5.985712837883e-10 0.000000000000e+00 2.768130634957e-10 
5.750000000000e+00 5.000000000000e-01 -2.000200000000e+03 8.967100022735e-11 0.000000000000e+00 2.533047584571e-10 
6.250000000000e+00 5.000000000000e-01 -2.000200000000e+03 -4.406932002123e-10 0.000000000000e+00 2.306393802788e-10 
6.750000000000e+00 5.000000000000e-01 -2.000200000000e+03 -1.024774411779e-09 0.000000000000e+00 1.507503753667e-10 
7.250000000000e+00 5.000000000000e-01 -2.000200000000e+03 -1.621178257193e-09 0.000000000000e+00 1.654650959559e-11 
7.750000000000e+00 5.000000000000e-01 -2.000200000000e+03 -2.312814126445e-09 0.000000000000e+00 -2.571547799314e-10 
8.250000000000e+00 5.000000000000e-01 -2.000200000000e+03 -3.201968683939e-09 0.000000000000e+00 -8.307243185348e-10 
8.750000000000e+00 5.000000000000e-01 -2.000200000000e+03 -4.564701260124e-09 0.000000000000e+00 -2.091872507127e-09 
9.250000000000e+00 5.000000000000e-01 -2.000200000000e+03 -1.350986365389e-08 0.000000000000e+00 -4.884463538278e-09 
9.750000000000e+00 5.000000000000e-01 -2.000200000000e+03 3.748820307943e-08 0.000000000000e+00 -1.906815839562e-16 
2.500000000000e-01 5.000000000000e-01 -2.000600000000e+03 5.350999751255e-09 0.000000000000e+00 -2.050078871577e-16 
7.500000000000e-01 5.000000000000e-01 -2.000600000000e+03 -4.270260324099e-08 0.000000000000e+00 -6.285248423484e-09 
1.250000000000e+00 5.000000000000e-01 -2.000600000000e+03 4.046154329129e-09 0.000000000000e+00 -2.974454268596e-09 
1.750000000000e+00 5.000000000000e-01 -2.000600000000e+03 3.321691805957e-09 0.000000000000e+00 -1.294051931167e-09 
2.250000000000e+00 5.000000000000e-01 -2.000600000000e+03 2.921151903879e-09 0.000000000000e+00 -4.676823875494e-10 
2.750000000000e+00 5.000000000000e-01 -2.000600000000e+03 2.620096516629e-09 0.000000000000e+00 -4.892083811086e-11 
3.250000000000e+00 5.000000000000e-01 -2.000600000000e+03 2.290220525138e-09 0.000000000000e+00 1.599368976735e-10 
3.750000000000e+00 5.000000000000e-01 -2.000600000000e+03 1.943436243086e-09 0.000000000000e+00 2.809113172187e-10 
4.250000000000e+00 5.000000000000e-01 -2.000600000000e+03 1.509970704418e-09 0.000000000000e+00 3.377487042150e-10 
4.750000000000e+00 5.000000000000e-01 -2.000600000000e+03 1.051717078539e-09 0.000000000000e+00 3.753246691651e-10 
5.250000000000e+00 5.000000000000e-01 -2.000600000000e+03 5.914155136447e-10 0.000000000000e+00 3.852092665386e-10 
5.750000000000e+00 5.000000000000e-01 -2.000600000000e+03 1.061748381077e-10 0.000000000000e+00 3.740363632811e-10 
6.250000000000e+00 5.000000000000e-01 -2.000600000000e+03 -4.306800493899e-10 0.000000000000e+00 3.150646514673e-10 
6.750000000000e+00 5.000000000000e-01 -2.000600000000e+03 -9.745032312801e-10 0.000000000000e+00 2.140904878115e-10 
7.250000000000e+00 5.000000000000e-01 -2.000600000000e+03 -1.541631881566e-09 0.000000000000e+00 1.310519297093e-11 
7.750000000000e+00 5.000000000000e-01 -2.000600000000e+03 -2.152142238876e-09 0.000000000000e+00 -4.053403567374e-10 
8.250000000000e+00 5.000000000000e-01 -2.000600000000e+03 -2.871271980010e-09 0.000000000000e+00 -1.249189180711e-09 
8.750000000000e+00 5.000000000000e-01 -2.000600000000e+03 -3.839567089819e-09 0.000000000000e+00 -2.950937085848e-09 
9.250000000000e+00 5.000000000000e-01 -2.000600000000e+03 -1.164627593309e-08 0.000000000000e+00 -6.294177628998e-09 
9.750000000000e+00 5.000000000000e-01 -2.000600000000e+03 4.040531650006e-08 0.000000000000e+00 -2.050078871577e-16 
2.500000000000e-01 5.000000000000e-01 -2.001000000000e+03 5.691406000421e-09 0.000000000000e+00 -2.002740416893e-16 
7.500000000000e-01 5.000000000000e-01 -2.001000000000e+03 -4.501035899074e-08 0.000000000000e+00 -6.163836095245e-09 
1.250000000000e+00 5.000000000000e-01 -2.001000000000e+03 1.302080363162e-09 0.000000000000e+00 -2.897901151001e-09 
1.750000000000e+00 5.000000000000e-01 -2.001000000000e+03 1.943267496107e-09 0.000000000000e+00 -1.257541820532e-09 
2.250000000000e+00 5.000000000000e-01 -2.001000000000e+03 2.247239749988e-09 0.000000000000e+00 -4.382358395575e-10 
2.750000000000e+00 5.000000000000e-01 -2.001000000000e+03 2.280086238610e-09 0.000000000000e+00 -4.268990617990e-11 
3.250000000000e+00 5.000000000000e-01 -2.001000000000e+03 2.122591646391e-09 0.000000000000e+00 1.676753247750e-10 
3.750000000000e+00 5.000000000000e-01 -2.001000000000e+03 1.845503344123e-09 0.000000000000e+00 2.718246292794e-10 
4.250000000000e+00 5.000000000000e-01 -2.001000000000e+03 1.464727772565e-09 0.000000000000e+00 3.183540847461e-10 
4.750000000000e+00 5.000000000000e-01 -2.001000000000e+03 1.018908165814e-09 0.000000000000e+00 3.690720374666e-10 
5.250000000000e+00 5.000000000000e-01 -2.001000000000e+03 5.814652879209e-10 0.000000000000e+00 3.789393102347e-10 
5.750000000000e+00 5.000000000000e-01 -2.001000000000e+03 1.112174314872e-10 0.000000000000e+00 3.371585773094e-10 
6.250000000000e+00 5.000000000000e-01 -2.001000000000e+03 -3.924923354529e-10 0.000000000000e+00 2.960642746970e-10 
6.750000000000e+00 5.000000000000e-01 -2.001000000000e+03 -9.077640293382e-10 0.000000000000e+00 2.012854421043e-10 
7.250000000000e+00 5.000000000000e-01 -2.001000000000e+03 -1.413263764022e-09 0.000000000000e+00 2.485584072595e-12 