VARIABLES  = "X","Y","Z", "PRESSURE1", "PRESSURE2", "SATURATION1", SATURATION2, "Bac", "C(4)"
ZONE T="0.000000000000e+00s", N=252, E=100, F=FEPOINT, ET=BRICK
STRANDID=1, SOLUTIONTIME=0.000000000000e+00
0.000000000000e+00 0.000000000000e+00 -2.000000000000e+03 0.000000000000e+00 1.000000000000e+00 6.000000000000e-01 4.000000000000e-01 0.000000000000e+00 0.000000000000e+00 
5.000000000000e-01 0.000000000000e+00 -2.000000000000e+03 0.000000000000e+00 1.000000000000e+00 6.000000000000e-01 4.000000000000e-01 0.000000000000e+00 0.000000000000e+00 
0.000000000000e+00 1.000000000000e+00 -2.000000000000e+03 0.000000000000e+00 1.000000000000e+00 6.000000000000e-01 4.000000000000e-01 0.000000000000e+00 0.000000000000e+00 
5.000000000000e-01 1.000000000000e+00 -2.000000000000e+03 0.000000000000e+00 1.000000000000e+00 6.000000000000e-01 4.000000000000e-01 0.000000000000e+00 0.000000000000e+00 
0.000000000000e+00 0.000000000000e+00 -2.000400000000e+03 0.000000000000e+00 1.000000000000e+00 6.000000000000e-01 4.000000000000e-01 0.000000000000e+00 0.000000000000e+00 
5.000000000000e-01 0.000000000000e+00 -2.000400000000e+03 0.000000000000e+00 1.000000000000e+00 6.000000000000e-01 4.000000000000e-01 0.000000000000e+00 0.000000000000e+00 
0.000000000000e+00 1.000000000000e+00 -2.000400000000e+03 0.000000000000e+00 1.000000000000e+00 6.000000000000e-01 4.000000000000e-01 0.000000000000e+00 0.000000000000e+00 
5.000000000000e-01 1.000000000000e+00 -2.000400000000e+03 0.000000000000e+00 1.000000000000e+00 6.000000000000e-01 4.000000000000e-01 0.000000000000e+00 0.000000000000e+00 
1.000000000000e+00 0.000000000000e+00 -2.000000000000e+03 0.000000000000e+00 1.000000000000e+00 6.000000000000e-01 4.000000000000e-01 0.000000000000e+00 0.000000000000e+00 
1.000000000000e+00 1.000000000000e+00 -2.000000000000e+03 0.000000000000e+00 1.000000000000e+00 6.000000000000e-01 4.000000000000e-01 0.000000000000e+00 0.000000000000e+00 
1.000000000000e+00 0.000000000000e+00 -2.000400000000e+03 0.000000000000e+00 1.000000000000e+00 6.000000000000e-01 4.000000000000e-01 0.000000000000e+00 0.000000000000e+00 
1.000000000000e+00 1.000000000000e+00 -2.000400000000e+03 0.000000000000e+00 1.000000000000e+00 6.000000000000e-01 4.000000000000e-01 0.000000000000e+00 0.000000000000e+00 
1.500000000000e+00 0.000000000000e+00 -2.000000000000e+03 0.000000000000e+00 1.000000000000e+00 6.000000000000e-01 4.000000000000e-01 0.000000000000e+00 0.000000000000e+00 
1.500000000000e+00 1.000000000000e+00 -2.000000000000e+03 0.000000000000e+00 1.000000000000e+00 6.000000000000e-01 4.000000000000e-01 0.000000000000e+00 0.000000000000e+00 
1.500000000000e+00 0.000000000000e+00 -2.000400000000e+03 0.000000000000e+00 1.000000000000e+00 6.000000000000e-01 4.000000000000e-01 0.000000000000e+00 0.000000000000e+00 
1.500000000000e+00 1.000000000000e+00 -2.000400000000e+03 0.000000000000e+00 1.000000000000e+00 6.000000000000e-01 4.000000000000e-01 0.000000000000e+00 0.000000000000e+00 
2.000000000000e+00 0.000000000000e+00 -2.000000000000e+03 0.000000000000e+00 1.000000000000e+00 6.000000000000e-01 4.000000000000e-01 0.000000000000e+00 0.000000000000e+00 
2.000000000000e+00 1.000000000000e+00 -2.000000000000e+03 0.000000000000e+00 1.000000000000e+00 6.000000000000e-01 4.000000000000e-01 0.000000000000e+00 0.000000000000e+00 
2.000000000000e+00 0.000000000000e+00 -2.000400000000e+03 0.000000000000e+00 1.000000000000e+00 6.000000000000e-01 4.000000000000e-01 0.000000000000e+00 0.000000000000e+00 
2.000000000000e+00 1.000000000000e+00 -2.000400000000e+03 0.000000000000e+00 1.000000000000e+00 6.000000000000e-01 4.000000000000e-01 0.000000000000e+00 0.000000000000e+00 
2.500000000000e+00 0.000000000000e+00 -2.000000000000e+03 0.000000000000e+00 1.000000000000e+00 6.000000000000e-01 4.000000000000e-01 0.000000000000e+00 0.000000000000e+00 
2.500000000000e+00 1.000000000000e+00 -2.000000000000e+03 0.000000000000e+00 1.000000000000e+00 6.000000000000e-01 4.000000000000e-01 0.000000000000e+00 0.000000000000e+00 
2.500000000000e+00 0.000000000000e+00 -2.000400000000e+03 0.000000000000e+00 1.000000000000e+00 6.000000000000e-01 4.000000000000e-01 0.000000000000e+00 0.000000000000e+00 
2.500000000000e+00 1.000000000000e+00 -2.000400000000e+03 0.000000000000e+00 1.000000000000e+00 6.000000000000e-01 4.000000000000e-01 0.000000000000e+00 0.000000000000e+00 
3.000000000000e+00 0.000000000000e+00 -2.000000000000e+03 0.000000000000e+00 1.000000000000e+00 6.000000000000e-01 4.000000000000e-01 0.000000000000e+00 0.000000000000e+00 
3.000000000000e+00 1.000000000000e+00 -2.000000000000e+03 0.000000000000e+00 1.000000000000e+00 6.000000000000e-01 4.000000000000e-01 0.000000000000e+00 0.000000000000e+00 
3.000000000000e+00 0.000000000000e+00 -2.000400000000e+03 0.000000000000e+00 1.000000000000e+00 6.000000000000e-01 4.000000000000e-01 0.000000000000e+00 0.000000000000e+00 
3.000000000000e+00 1.000000000000e+00 -2.000400000000e+03 0.000000000000e+00 1.000000000000e+00 6.000000000000e-01 4.000000000000e-01 0.000000000000e+00 0.000000000000e+00 
3.500000000000e+00 0.000000000000e+00 -2.000000000000e+03 0.000000000000e+00 1.000000000000e+00 6.000000000000e-01 4.000000000000e-01 0.000000000000e+00 0.000000000000e+00 
3.500000000000e+00 1.000000000000e+00 -2.000000000000e+03 0.000000000000e+00 1.000000000000e+00 6.000000000000e-01 4.000000000000e-01 0.000000000000e+00 0.000000000000e+00 
3.500000000000e+00 0.000000000000e+00 -2.000400000000e+03 0.000000000000e+00 1.000000000000e+00 6.000000000000e-01 4.000000000000e-01 0.000000000000e+00 0.000000000000e+00 
3.500000000000e+00 1.000000000000e+00 -2.000400000000e+03 0.000000000000e+00 1.000000000000e+00 6.000000000000e-01 4.000000000000e-01 0.000000000000e+00 0.000000000000e+00 
4.000000000000e+00 0.000000000000e+00 -2.000000000000e+03 0.000000000000e+00 1.000000000000e+00 6.000000000000e-01 4.000000000000e-01 0.000000000000e+00 0.000000000000e+00 
4.000000000000e+00 1.000000000000e+00 -2.000000000000e+03 0.000000000000e+00 1.000000000000e+00 6.000000000000e-01 4.000000000000e-01 0.000000000000e+00 0.000000000000e+00 
4.000000000000e+00 0.000000000000e+00 -2.000400000000e+03 0.000000000000e+00 1.000000000000e+00 6.000000000000e-01 4.000000000000e-01 0.000000000000e+00 0.000000000000e+00 
4.000000000000e+00 1.000000000000e+00 -2.000400000000e+03 0.000000000000e+00 1.000000000000e+00 6.000000000000e-01 4.000000000000e-01 0.000000000000e+00 0.000000000000e+00 
4.500000000000e+00 0.000000000000e+00 -2.000000000000e+03 0.000000000000e+00 1.000000000000e+00 6.000000000000e-01 4.000000000000e-01 0.000000000000e+00 0.000000000000e+00 
4.500000000000e+00 1.000000000000e+00 -2.000000000000e+03 0.000000000000e+00 1.000000000000e+00 6.000000000000e-01 4.000000000000e-01 0.000000000000e+00 0.000000000000e+00 
4.500000000000e+00 0.000000000000e+00 -2.000400000000e+03 0.000000000000e+00 1.000000000000e+00 6.000000000000e-01 4.000000000000e-01 0.000000000000e+00 0.000000000000e+00 
4.500000000000e+00 1.000000000000e+00 -2.000400000000e+03 0.000000000000e+00 1.000000000000e+00 6.000000000000e-01 4.000000000000e-01 0.000000000000e+00 0.000000000000e+00 
5.000000000000e+00 0.000000000000e+00 -2.000000000000e+03 0.000000000000e+00 1.000000000000e+00 6.000000000000e-01 4.000000000000e-01 0.000000000000e+00 0.000000000000e+00 
5.000000000000e+00 1.000000000000e+00 -2.000000000000e+03 0.000000000000e+00 1.000000000000e+00 6.000000000000e-01 4.000000000000e-01 0.000000000000e+00 0.000000000000e+00 
5.000000000000e+00 0.000000000000e+00 -2.000400000000e+03 0.000000000000e+00 1.000000000000e+00 6.000000000000e-01 4.000000000000e-01 0.000000000000e+00 0.000000000000e+00 
5.000000000000e+00 1.000000000000e+00 -2.000400000000e+03 0.000000000000e+00 1.000000000000e+00 6.000000000000e-01 4.000000000000e-01 0.000000000000e+00 0.000000000000e+00 
5.500000000000e+00 0.000000000000e+00 -2.000000000000e+03 0.000000000000e+00 1.000000000000e+00 6.000000000000e-01 4.000000000000e-01 0.000000000000e+00 0.000000000000e+00 
5.500000000000e+00 1.000000000000e+00 -2.000000000000e+03 0.000000000000e+00 1.000000000000e+00 6.000000000000e-01 4.000000000000e-01 0.000000000000e+00 0.000000000000e+00 
5.500000000000e+00 0.000000000000e+00 -2.000400000000e+03 0.000000000000e+00 1.000000000000e+00 6.000000000000e-01 4.000000000000e-01 0.000000000000e+00 0.000000000000e+00 
5.500000000000e+00 1.000000000000e+00 -2.000400000000e+03 0.000000000000e+00 1.000000000000e+00 6.000000000000e-01 4.000000000000e-01 0.000000000000e+00 0.000000000000e+00 
6.000000000000e+00 0.000000000000e+00 -2.000000000000e+03 0.000000000000e+00 1.000000000000e+00 6.000000000000e-01 4.000000000000e-01 0.000000000000e+00 0.000000000000e+00 
6.000000000000e+00 1.000000000000e+00 -2.000000000000e+03 0.000000000000e+00 1.000000000000e+00 6.000000000000e-01 4.000000000000e-01 0.000000000000e+00 0.000000000000e+00 
6.000000000000e+00 0.000000000000e+00 -2.000400000000e+03 0.000000000000e+00 1.000000000000e+00 6.000000000000e-01 4.000000000000e-01 0.000000000000e+00 0.000000000000e+00 
6.000000000000e+00 1.000000000000e+00 -2.000400000000e+03 0.000000000000e+00 1.000000000000e+00 6.000000000000e-01 4.000000000000e-01 0.000000000000e+00 0.000000000000e+00 
6.500000000000e+00 0.000000000000e+00 -2.000000000000e+03 0.000000000000e+00 1.000000000000e+00 6.000000000000e-01 4.000000000000e-01 0.000000000000e+00 0.000000000000e+00 
6.500000000000e+00 1.000000000000e+00 -2.000000000000e+03 0.000000000000e+00 1.000000000000e+00 6.000000000000e-01 4.000000000000e-01 0.000000000000e+00 0.000000000000e+00 
6.500000000000e+00 0.000000000000e+00 -2.000400000000e+03 0.000000000000e+00 1.000000000000e+00 6.000000000000e-01 4.000000000000e-01 0.000000000000e+00 0.000000000000e+00 
6.500000000000e+00 1.000000000000e+00 -2.000400000000e+03 0.000000000000e+00 1.000000000000e+00 6.000000000000e-01 4.000000000000e-01 0.000000000000e+00 0.000000000000e+00 
7.000000000000e+00 0.000000000000e+00 -2.000000000000e+03 0.000000000000e+00 1.000000000000e+00 6.000000000000e-01 4.000000000000e-01 0.000000000000e+00 0.000000000000e+00 
7.000000000000e+00 1.000000000000e+00 -2.000000000000e+03 0.000000000000e+00 1.000000000000e+00 6.000000000000e-01 4.000000000000e-01 0.000000000000e+00 0.000000000000e+00 
7.000000000000e+00 0.000000000000e+00 -2.000400000000e+03 0.000000000000e+00 1.000000000000e+00 6.000000000000e-01 4.000000000000e-01 0.000000000000e+00 0.000000000000e+00 
7.000000000000e+00 1.000000000000e+00 -2.000400000000e+03 0.000000000000e+00 1.000000000000e+00 6.000000000000e-01 4.000000000000e-01 0.000000000000e+00 0.000000000000e+00 
7.500000000000e+00 0.000000000000e+00 -2.000000000000e+03 0.000000000000e+00 1.000000000000e+00 6.000000000000e-01 4.000000000000e-01 0.000000000000e+00 0.000000000000e+00 
7.500000000000e+00 1.000000000000e+00 -2.000000000000e+03 0.000000000000e+00 1.000000000000e+00 6.000000000000e-01 4.000000000000e-01 0.000000000000e+00 0.000000000000e+00 
7.500000000000e+00 0.000000000000e+00 -2.000400000000e+03 0.000000000000e+00 1.000000000000e+00 6.000000000000e-01 4.000000000000e-01 0.000000000000e+00 0.000000000000e+00 
7.500000000000e+00 1.000000000000e+00 -2.000400000000e+03 0.000000000000e+00 1.000000000000e+00 6.000000000000e-01 4.000000000000e-01 0.000000000000e+00 0.000000000000e+00 
8.000000000000e+00 0.000000000000e+00 -2.000000000000e+03 0.000000000000e+00 1.000000000000e+00 6.000000000000e-01 4.000000000000e-01 0.000000000000e+00 0.000000000000e+00 
8.000000000000e+00 1.000000000000e+00 -2.000000000000e+03 0.000000000000e+00 1.000000000000e+00 6.000000000000e-01 4.000000000000e-01 0.000000000000e+00 0.000000000000e+00 
8.000000000000e+00 0.000000000000e+00 -2.000400000000e+03 0.000000000000e+00 1.000000000000e+00 6.000000000000e-01 4.000000000000e-01 0.000000000000e+00 0.000000000000e+00 
8.000000000000e+00 1.000000000000e+00 -2.000400000000e+03 0.000000000000e+00 1.000000000000e+00 6.000000000000e-01 4.000000000000e-01 0.000000000000e+00 0.000000000000e+00 
8.500000000000e+00 0.000000000000e+00 -2.000000000000e+03 0.000000000000e+00 1.000000000000e+00 6.000000000000e-01 4.000000000000e-01 0.000000000000e+00 0.000000000000e+00 
8.500000000000e+00 1.000000000000e+00 -2.000000000000e+03 0.000000000000e+00 1.000000000000e+00 6.000000000000e-01 4.000000000000e-01 0.000000000000e+00 0.000000000000e+00 
8.500000000000e+00 0.000000000000e+00 -2.000400000000e+03 0.000000000000e+00 1.000000000000e+00 6.000000000000e-01 4.000000000000e-01 0.000000000000e+00 0.000000000000e+00 
8.500000000000e+00 1.000000000000e+00 -2.000400000000e+03 0.000000000000e+00 1.000000000000e+00 6.000000000000e-01 4.000000000000e-01 0.000000000000e+00 0.000000000000e+00 
9.000000000000e+00 0.000000000000e+00 -2.000000000000e+03 0.000000000000e+00 1.000000000000e+00 6.000000000000e-01 4.000000000000e-01 0.000000000000e+00 0.000000000000e+00 
9.000000000000e+00 1.000000000000e+00 -2.000000000000e+03 0.000000000000e+00 1.000000000000e+00 6.000000000000e-01 4.000000000000e-01 0.000000000000e+00 0.000000000000e+00 
9.000000000000e+00 0.000000000000e+00 -2.000400000000e+03 0.000000000000e+00 1.000000000000e+00 6.000000000000e-01 4.000000000000e-01 0.000000000000e+00 0.000000000000e+00 
9.000000000000e+00 1.000000000000e+00 -2.000400000000e+03 0.000000000000e+00 1.000000000000e+00 6.000000000000e-01 4.000000000000e-01 0.000000000000e+00 0.000000000000e+00 
9.500000000000e+00 0.000000000000e+00 -2.000000000000e+03 0.000000000000e+00 1.000000000000e+00 6.000000000000e-01 4.000000000000e-01 0.000000000000e+00 0.000000000000e+00 
9.500000000000e+00 1.000000000000e+00 -2.000000000000e+03 0.000000000000e+00 1.000000000000e+00 6.000000000000e-01 4.000000000000e-01 0.000000000000e+00 0.000000000000e+00 
9.500000000000e+00 0.000000000000e+00 -2.000400000000e+03 0.000000000000e+00 1.000000000000e+00 6.000000000000e-01 4.000000000000e-01 0.000000000000e+00 0.000000000000e+00 
9.500000000000e+00 1.000000000000e+00 -2.000400000000e+03 0.000000000000e+00 1.000000000000e+00 6.000000000000e-01 4.000000000000e-01 0.000000000000e+00 0.000000000000e+00 
1.000000000000e+01 0.000000000000e+00 -2.000000000000e+03 0.000000000000e+00 1.000000000000e+00 6.000000000000e-01 4.000000000000e-01 0.000000000000e+00 0.000000000000e+00 
1.000000000000e+01 1.000000000000e+00 -2.000000000000e+03 0.000000000000e+00 1.000000000000e+00 6.000000000000e-01 4.000000000000e-01 0.000000000000e+00 0.000000000000e+00 
1.000000000000e+01 0.000000000000e+00 -2.000400000000e+03 0.000000000000e+00 1.000000000000e+00 6.000000000000e-01 4.000000000000e-01 0.000000000000e+00 0.000000000000e+00 
1.000000000000e+01 1.000000000000e+00 -2.000400000000e+03 0.000000000000e+00 1.000000000000e+00 6.000000000000e-01 4.000000000000e-01 0.000000000000e+00 0.000000000000e+00 
0.000000000000e+00 0.000000000000e+00 -2.000800000000e+03 0.000000000000e+00 1.000000000000e+00 6.000000000000e-01 4.000000000000e-01 0.000000000000e+00 0.000000000000e+00 
5.000000000000e-01 0.000000000000e+00 -2.000800000000e+03 0.000000000000e+00 1.000000000000e+00 6.000000000000e-01 4.000000000000e-01 0.000000000000e+00 0.000000000000e+00 
0.000000000000e+00 1.000000000000e+00 -2.000800000000e+03 0.000000000000e+00 1.000000000000e+00 6.000000000000e-01 4.000000000000e-01 0.000000000000e+00 0.000000000000e+00 
5.000000000000e-01 1.000000000000e+00 -2.000800000000e+03 0.000000000000e+00 1.000000000000e+00 6.000000000000e-01 4.000000000000e-01 0.000000000000e+00 0.000000000000e+00 
1.000000000000e+00 0.000000000000e+00 -2.000800000000e+03 0.000000000000e+00 1.000000000000e+00 6.000000000000e-01 4.000000000000e-01 0.000000000000e+00 0.000000000000e+00 
1.000000000000e+00 1.000000000000e+00 -2.000800000000e+03 0.000000000000e+00 1.000000000000e+00 6.000000000000e-01 4.000000000000e-01 0.000000000000e+00 0.000000000000e+00 
1.500000000000e+00 0.000000000000e+00 -2.000800000000e+03 0.000000000000e+00 1.000000000000e+00 6.000000000000e-01 4.000000000000e-01 0.000000000000e+00 0.000000000000e+00 
1.500000000000e+00 1.000000000000e+00 -2.000800000000e+03 0.000000000000e+00 1.000000000000e+00 6.000000000000e-01 4.000000000000e-01 0.000000000000e+00 0.000000000000e+00 
2.000000000000e+00 0.000000000000e+00 -2.000800000000e+03 0.000000000000e+00 1.000000000000e+00 6.000000000000e-01 4.000000000000e-01 0.000000000000e+00 0.000000000000e+00 
2.000000000000e+00 1.000000000000e+00 -2.000800000000e+03 0.000000000000e+00 1.000000000000e+00 6.000000000000e-01 4.000000000000e-01 0.000000000000e+00 0.000000000000e+00 
2.500000000000e+00 0.000000000000e+00 -2.000800000000e+03 0.000000000000e+00 1.000000000000e+00 6.000000000000e-01 4.000000000000e-01 0.000000000000e+00 0.000000000000e+00 
2.500000000000e+00 1.000000000000e+00 -2.000800000000e+03 0.000000000000e+00 1.000000000000e+00 6.000000000000e-01 4.000000000000e-01 0.000000000000e+00 0.000000000000e+00 
3.000000000000e+00 0.000000000000e+00 -2.000800000000e+03 0.000000000000e+00 1.000000000000e+00 6.000000000000e-01 4.000000000000e-01 0.000000000000e+00 0.000000000000e+00 
3.000000000000e+00 1.000000000000e+00 -2.000800000000e+03 0.000000000000e+00 1.000000000000e+00 6.000000000000e-01 4.000000000000e-01 0.000000000000e+00 0.000000000000e+00 
3.500000000000e+00 0.000000000000e+00 -2.000800000000e+03 0.000000000000e+00 1.000000000000e+00 6.000000000000e-01 4.000000000000e-01 0.000000000000e+00 0.000000000000e+00 
3.500000000000e+00 1.000000000000e+00 -2.000800000000e+03 0.000000000000e+00 1.000000000000e+00 6.000000000000e-01 4.000000000000e-01 0.000000000000e+00 0.000000000000e+00 
4.000000000000e+00 0.000000000000e+00 -2.000800000000e+03 0.000000000000e+00 1.000000000000e+00 6.000000000000e-01 4.000000000000e-01 0.000000000000e+00 0.000000000000e+00 
4.000000000000e+00 1.000000000000e+00 -2.000800000000e+03 0.000000000000e+00 1.000000000000e+00 6.000000000000e-01 4.000000000000e-01 0.000000000000e+00 0.000000000000e+00 
4.500000000000e+00 0.000000000000e+00 -2.000800000000e+03 0.000000000000e+00 1.000000000000e+00 6.000000000000e-01 4.000000000000e-01 0.000000000000e+00 0.000000000000e+00 
4.500000000000e+00 1.000000000000e+00 -2.000800000000e+03 0.000000000000e+00 1.000000000000e+00 6.000000000000e-01 4.000000000000e-01 0.000000000000e+00 0.000000000000e+00 
5.000000000000e+00 0.000000000000e+00 -2.000800000000e+03 0.000000000000e+00 1.000000000000e+00 6.000000000000e-01 4.000000000000e-01 0.000000000000e+00 0.000000000000e+00 
5.000000000000e+00 1.000000000000e+00 -2.000800000000e+03 0.000000000000e+00 1.000000000000e+00 6.000000000000e-01 4.000000000000e-01 0.000000000000e+00 0.000000000000e+00 
5.500000000000e+00 0.000000000000e+00 -2.000800000000e+03 0.000000000000e+00 1.000000000000e+00 6.000000000000e-01 4.000000000000e-01 0.000000000000e+00 0.000000000000e+00 
5.500000000000e+00 1.000000000000e+00 -2.000800000000e+03 0.000000000000e+00 1.000000000000e+00 6.000000000000e-01 4.000000000000e-01 0.000000000000e+00 0.000000000000e+00 
6.000000000000e+00 0.000000000000e+00 -2.000800000000e+03 0.000000000000e+00 1.000000000000e+00 6.000000000000e-01 4.000000000000e-01 0.000000000000e+00 0.000000000000e+00 
6.000000000000e+00 1.000000000000e+00 -2.000800000000e+03 0.000000000000e+00 1.000000000000e+00 6.000000000000e-01 4.000000000000e-01 0.000000000000e+00 0.000000000000e+00 
6.500000000000e+00 0.000000000000e+00 -2.000800000000e+03 0.000000000000e+00 1.000000000000e+00 6.000000000000e-01 4.000000000000e-01 0.000000000000e+00 0.000000000000e+00 
6.500000000000e+00 1.000000000000e+00 -2.000800000000e+03 0.000000000000e+00 1.000000000000e+00 6.000000000000e-01 4.000000000000e-01 0.000000000000e+00 0.000000000000e+00 
7.000000000000e+00 0.000000000000e+00 -2.000800000000e+03 0.000000000000e+00 1.000000000000e+00 6.000000000000e-01 4.000000000000e-01 0.000000000000e+00 0.000000000000e+00 
7.000000000000e+00 1.000000000000e+00 -2.000800000000e+03 0.000000000000e+00 1.000000000000e+00 6.000000000000e-01 4.000000000000e-01 0.000000000000e+00 0.000000000000e+00 
7.500000000000e+00 0.000000000000e+00 -2.000800000000e+03 0.000000000000e+00 1.000000000000e+00 6.000000000000e-01 4.000000000000e-01 0.000000000000e+00 0.000000000000e+00 
7.500000000000e+00 1.000000000000e+00 -2.000800000000e+03 0.000000000000e+00 1.000000000000e+00 6.000000000000e-01 4.000000000000e-01 0.000000000000e+00 0.000000000000e+00 
8.000000000000e+00 0.000000000000e+00 -2.000800000000e+03 0.000000000000e+00 1.000000000000e+00 6.000000000000e-01 4.000000000000e-01 0.000000000000e+00 0.000000000000e+00 
8.000000000000e+00 1.000000000000e+00 -2.000800000000e+03 0.000000000000e+00 1.000000000000e+00 6.000000000000e-01 4.000000000000e-01 0.000000000000e+00 0.000000000000e+00 
8.500000000000e+00 0.000000000000e+00 -2.000800000000e+03 0.000000000000e+00 1.000000000000e+00 6.000000000000e-01 4.000000000000e-01 0.000000000000e+00 0.000000000000e+00 
8.500000000000e+00 1.000000000000e+00 -2.000800000000e+03 0.000000000000e+00 1.000000000000e+00 6.000000000000e-01 4.000000000000e-01 0.000000000000e+00 0.000000000000e+00 
9.000000000000e+00 0.000000000000e+00 -2.000800000000e+03 0.000000000000e+00 1.000000000000e+00 6.000000000000e-01 4.000000000000e-01 0.000000000000e+00 0.000000000000e+00 
9.000000000000e+00 1.000000000000e+00 -2.000800000000e+03 0.000000000000e+00 1.000000000000e+00 6.000000000000e-01 4.000000000000e-01 0.000000000000e+00 0.000000000000e+00 
9.500000000000e+00 0.000000000000e+00 -2.000800000000e+03 0.000000000000e+00 1.000000000000e+00 6.000000000000e-01 4.000000000000e-01 0.000000000000e+00 0.000000000000e+00 
9.500000000000e+00 1.000000000000e+00 -2.000800000000e+03 0.000000000000e+00 1.000000000000e+00 6.000000000000e-01 4.000000000000e-01 0.000000000000e+00 0.000000000000e+00 
1.000000000000e+01 0.000000000000e+00 -2.000800000000e+03 0.000000000000e+00 1.000000000000e+00 6.000000000000e-01 4.000000000000e-01 0.000000000000e+00 0.000000000000e+00 
1.000000000000e+01 1.000000000000e+00 -2.000800000000e+03 0.000000000000e+00 1.000000000000e+00 6.000000000000e-01 4.000000000000e-01 0.000000000000e+00 0.000000000000e+00 
0.000000000000e+00 0.000000000000e+00 -2.001200000000e+03 0.000000000000e+00 1.000000000000e+00 6.000000000000e-01 4.000000000000e-01 0.000000000000e+00 0.000000000000e+00 
5.000000000000e-01 0.000000000000e+00 -2.001200000000e+03 0.000000000000e+00 1.000000000000e+00 6.000000000000e-01 4.000000000000e-01 0.000000000000e+00 0.000000000000e+00 
0.000000000000e+00 1.000000000000e+00 -2.001200000000e+03 0.000000000000e+00 1.000000000000e+00 6.000000000000e-01 4.000000000000e-01 0.000000000000e+00 0.000000000000e+00 
5.000000000000e-01 1.000000000000e+00 -2.001200000000e+03 0.000000000000e+00 1.000000000000e+00 6.000000000000e-01 4.000000000000e-01 0.000000000000e+00 0.000000000000e+00 
1.000000000000e+00 0.000000000000e+00 -2.001200000000e+03 0.000000000000e+00 1.000000000000e+00 6.000000000000e-01 4.000000000000e-01 0.000000000000e+00 0.000000000000e+00 
1.000000000000e+00 1.000000000000e+00 -2.001200000000e+03 0.000000000000e+00 1.000000000000e+00 6.000000000000e-01 4.000000000000e-01 0.000000000000e+00 0.000000000000e+00 
1.500000000000e+00 0.000000000000e+00 -2.001200000000e+03 0.000000000000e+00 1.000000000000e+00 6.000000000000e-01 4.000000000000e-01 0.000000000000e+00 0.000000000000e+00 
1.500000000000e+00 1.000000000000e+00 -2.001200000000e+03 0.000000000000e+00 1.000000000000e+00 6.000000000000e-01 4.000000000000e-01 0.000000000000e+00 0.000000000000e+00 
2.000000000000e+00 0.000000000000e+00 -2.001200000000e+03 0.000000000000e+00 1.000000000000e+00 6.000000000000e-01 4.000000000000e-01 0.000000000000e+00 0.000000000000e+00 
2.000000000000e+00 1.000000000000e+00 -2.001200000000e+03 0.000000000000e+00 1.000000000000e+00 6.000000000000e-01 4.000000000000e-01 0.000000000000e+00 0.000000000000e+00 
2.500000000000e+00 0.000000000000e+00 -2.001200000000e+03 0.000000000000e+00 1.000000000000e+00 6.000000000000e-01 4.000000000000e-01 0.000000000000e+00 0.000000000000e+00 
2.500000000000e+00 1.000000000000e+00 -2.001200000000e+03 0.000000000000e+00 1.000000000000e+00 6.000000000000e-01 4.000000000000e-01 0.000000000000e+00 0.000000000000e+00 
3.000000000000e+00 0.000000000000e+00 -2.001200000000e+03 0.000000000000e+00 1.000000000000e+00 6.000000000000e-01 4.000000000000e-01 0.000000000000e+00 0.000000000000e+00 
3.000000000000e+00 1.000000000000e+00 -2.001200000000e+03 0.000000000000e+00 1.000000000000e+00 6.000000000000e-01 4.000000000000e-01 0.000000000000e+00 0.000000000000e+00 
3.500000000000e+00 0.000000000000e+00 -2.001200000000e+03 0.000000000000e+00 1.000000000000e+00 6.000000000000e-01 4.000000000000e-01 0.000000000000e+00 0.000000000000e+00 
3.500000000000e+00 1.000000000000e+00 -2.001200000000e+03 0.000000000000e+00 1.000000000000e+00 6.000000000000e-01 4.000000000000e-01 0.000000000000e+00 0.000000000000e+00 
4.000000000000e+00 0.000000000000e+00 -2.001200000000e+03 0.000000000000e+00 1.000000000000e+00 6.000000000000e-01 4.000000000000e-01 0.000000000000e+00 0.000000000000e+00 
4.000000000000e+00 1.000000000000e+00 -2.001200000000e+03 0.000000000000e+00 1.000000000000e+00 6.000000000000e-01 4.000000000000e-01 0.000000000000e+00 0.000000000000e+00 
4.500000000000e+00 0.000000000000e+00 -2.001200000000e+03 0.000000000000e+00 1.000000000000e+00 6.000000000000e-01 4.000000000000e-01 0.000000000000e+00 0.000000000000e+00 
4.500000000000e+00 1.000000000000e+00 -2.001200000000e+03 0.000000000000e+00 1.000000000000e+00 6.000000000000e-01 4.000000000000e-01 0.000000000000e+00 0.000000000000e+00 
5.000000000000e+00 0.000000000000e+00 -2.001200000000e+03 0.000000000000e+00 1.000000000000e+00 6.000000000000e-01 4.000000000000e-01 0.000000000000e+00 0.000000000000e+00 
5.000000000000e+00 1.000000000000e+00 -2.001200000000e+03 0.000000000000e+00 1.000000000000e+00 6.000000000000e-01 4.000000000000e-01 0.000000000000e+00 0.000000000000e+00 
5.500000000000e+00 0.000000000000e+00 -2.001200000000e+03 0.000000000000e+00 1.000000000000e+00 6.000000000000e-01 4.000000000000e-01 0.000000000000e+00 0.000000000000e+00 
5.500000000000e+00 1.000000000000e+00 -2.001200000000e+03 0.000000000000e+00 1.000000000000e+00 6.000000000000e-01 4.000000000000e-01 0.000000000000e+00 0.000000000000e+00 
6.000000000000e+00 0.000000000000e+00 -2.001200000000e+03 0.000000000000e+00 1.000000000000e+00 6.000000000000e-01 4.000000000000e-01 0.000000000000e+00 0.000000000000e+00 
6.000000000000e+00 1.000000000000e+00 -2.001200000000e+03 0.000000000000e+00 1.000000000000e+00 6.000000000000e-01 4.000000000000e-01 0.000000000000e+00 0.000000000000e+00 
6.500000000000e+00 0.000000000000e+00 -2.001200000000e+03 0.000000000000e+00 1.000000000000e+00 6.000000000000e-01 4.000000000000e-01 0.000000000000e+00 0.000000000000e+00 
6.500000000000e+00 1.000000000000e+00 -2.001200000000e+03 0.000000000000e+00 1.000000000000e+00 6.000000000000e-01 4.000000000000e-01 0.000000000000e+00 0.000000000000e+00 
7.000000000000e+00 0.000000000000e+00 -2.001200000000e+03 0.000000000000e+00 1.000000000000e+00 6.000000000000e-01 4.000000000000e-01 0.000000000000e+00 0.000000000000e+00 
7.000000000000e+00 1.000000000000e+00 -2.001200000000e+03 0.000000000000e+00 1.000000000000e+00 6.000000000000e-01 4.000000000000e-01 0.000000000000e+00 0.000000000000e+00 
7.500000000000e+00 0.000000000000e+00 -2.001200000000e+03 0.000000000000e+00 1.000000000000e+00 6.000000000000e-01 4.000000000000e-01 0.000000000000e+00 0.000000000000e+00 
7.500000000000e+00 1.000000000000e+00 -2.001200000000e+03 0.000000000000e+00 1.000000000000e+00 6.000000000000e-01 4.000000000000e-01 0.000000000000e+00 0.000000000000e+00 
8.000000000000e+00 0.000000000000e+00 -2.001200000000e+03 0.000000000000e+00 1.000000000000e+00 6.000000000000e-01 4.000000000000e-01 0.000000000000e+00 0.000000000000e+00 
8.000000000000e+00 1.000000000000e+00 -2.001200000000e+03 0.000000000000e+00 1.000000000000e+00 6.000000000000e-01 4.000000000000e-01 0.000000000000e+00 0.000000000000e+00 
8.500000000000e+00 0.000000000000e+00 -2.001200000000e+03 0.000000000000e+00 1.000000000000e+00 6.000000000000e-01 4.000000000000e-01 0.000000000000e+00 0.000000000000e+00 
8.500000000000e+00 1.000000000000e+00 -2.001200000000e+03 0.000000000000e+00 1.000000000000e+00 6.000000000000e-01 4.000000000000e-01 0.000000000000e+00 0.000000000000e+00 
9.000000000000e+00 0.000000000000e+00 -2.001200000000e+03 0.000000000000e+00 1.000000000000e+00 6.000000000000e-01 4.000000000000e-01 0.000000000000e+00 0.000000000000e+00 
9.000000000000e+00 1.000000000000e+00 -2.001200000000e+03 0.000000000000e+00 1.000000000000e+00 6.000000000000e-01 4.000000000000e-01 0.000000000000e+00 0.000000000000e+00 
9.500000000000e+00 0.000000000000e+00 -2.001200000000e+03 0.000000000000e+00 1.000000000000e+00 6.000000000000e-01 4.000000000000e-01 0.000000000000e+00 0.000000000000e+00 
9.500000000000e+00 1.000000000000e+00 -2.001200000000e+03 0.000000000000e+00 1.000000000000e+00 6.000000000000e-01 4.000000000000e-01 0.000000000000e+00 0.000000000000e+00 
1.000000000000e+01 0.000000000000e+00 -2.001200000000e+03 0.000000000000e+00 1.000000000000e+00 6.000000000000e-01 4.000000000000e-01 0.000000000000e+00 0.000000000000e+00 
1.000000000000e+01 1.000000000000e+00 -2.001200000000e+03 0.000000000000e+00 1.000000000000e+00 6.000000000000e-01 4.000000000000e-01 0.000000000000e+00 0.000000000000e+00 
0.000000000000e+00 0.000000000000e+00 -2.001600000000e+03 0.000000000000e+00 1.000000000000e+00 6.000000000000e-01 4.000000000000e-01 0.000000000000e+00 0.000000000000e+00 
5.000000000000e-01 0.000000000000e+00 -2.001600000000e+03 0.000000000000e+00 1.000000000000e+00 6.000000000000e-01 4.000000000000e-01 0.000000000000e+00 0.000000000000e+00 
0.000000000000e+00 1.000000000000e+00 -2.001600000000e+03 0.000000000000e+00 1.000000000000e+00 6.000000000000e-01 4.000000000000e-01 0.000000000000e+00 0.000000000000e+00 
5.000000000000e-01 1.000000000000e+00 -2.001600000000e+03 0.000000000000e+00 1.000000000000e+00 6.000000000000e-01 4.000000000000e-01 0.000000000000e+00 0.000000000000e+00 