VARIABLES = "X","Y","Z","VX","VY","VZ",POROSITY,PERMEABILITY
ZONE T="0.000000000000e+00s", I=100, F=POINT, C=BLACK
2.500000000000e-01 5.000000000000e-01 -2.000200000000e+03 0.000000000000e+00 0.000000000000e+00 0.000000000000e+00 
7.500000000000e-01 5.000000000000e-01 -2.000200000000e+03 0.000000000000e+00 0.000000000000e+00 0.000000000000e+00 
1.250000000000e+00 5.000000000000e-01 -2.000200000000e+03 0.000000000000e+00 0.000000000000e+00 0.000000000000e+00 
1.750000000000e+00 5.000000000000e-01 -2.000200000000e+03 0.000000000000e+00 0.000000000000e+00 0.000000000000e+00 
2.250000000000e+00 5.000000000000e-01 -2.000200000000e+03 0.000000000000e+00 0.000000000000e+00 0.000000000000e+00 
2.750000000000e+00 5.000000000000e-01 -2.000200000000e+03 0.000000000000e+00 0.000000000000e+00 0.000000000000e+00 
3.250000000000e+00 5.000000000000e-01 -2.000200000000e+03 0.000000000000e+00 0.000000000000e+00 0.000000000000e+00 
3.750000000000e+00 5.000000000000e-01 -2.000200000000e+03 0.000000000000e+00 0.000000000000e+00 0.000000000000e+00 
4.250000000000e+00 5.000000000000e-01 -2.000200000000e+03 0.000000000000e+00 0.000000000000e+00 0.000000000000e+00 
4.750000000000e+00 5.000000000000e-01 -2.000200000000e+03 0.000000000000e+00 0.000000000000e+00 0.000000000000e+00 
5.250000000000e+00 5.000000000000e-01 -2.000200000000e+03 0.000000000000e+00 0.000000000000e+00 0.000000000000e+00 
5.750000000000e+00 5.000000000000e-01 -2.000200000000e+03 0.000000000000e+00 0.000000000000e+00 0.000000000000e+00 
6.250000000000e+00 5.000000000000e-01 -2.000200000000e+03 0.000000000000e+00 0.000000000000e+00 0.000000000000e+00 
6.750000000000e+00 5.000000000000e-01 -2.000200000000e+03 0.000000000000e+00 0.000000000000e+00 0.000000000000e+00 
7.250000000000e+00 5.000000000000e-01 -2.000200000000e+03 0.000000000000e+00 0.000000000000e+00 0.000000000000e+00 
7.750000000000e+00 5.000000000000e-01 -2.000200000000e+03 0.000000000000e+00 0.000000000000e+00 0.000000000000e+00 
8.250000000000e+00 5.000000000000e-01 -2.000200000000e+03 0.000000000000e+00 0.000000000000e+00 0.000000000000e+00 
8.750000000000e+00 5.000000000000e-01 -2.000200000000e+03 0.000000000000e+00 0.000000000000e+00 0.000000000000e+00 
9.250000000000e+00 5.000000000000e-01 -2.000200000000e+03 0.000000000000e+00 0.000000000000e+00 0.000000000000e+00 
9.750000000000e+00 5.000000000000e-01 -2.000200000000e+03 0.000000000000e+00 0.000000000000e+00 0.000000000000e+00 
2.500000000000e-01 5.000000000000e-01 -2.000600000000e+03 0.000000000000e+00 0.000000000000e+00 0.000000000000e+00 
7.500000000000e-01 5.000000000000e-01 -2.000600000000e+03 0.000000000000e+00 0.000000000000e+00 0.000000000000e+00 
1.250000000000e+00 5.000000000000e-01 -2.000600000000e+03 0.000000000000e+00 0.000000000000e+00 0.000000000000e+00 
1.750000000000e+00 5.000000000000e-01 -2.000600000000e+03 0.000000000000e+00 0.000000000000e+00 0.000000000000e+00 
2.250000000000e+00 5.000000000000e-01 -2.000600000000e+03 0.000000000000e+00 0.000000000000e+00 0.000000000000e+00 
2.750000000000e+00 5.000000000000e-01 -2.000600000000e+03 0.000000000000e+00 0.000000000000e+00 0.000000000000e+00 
3.250000000000e+00 5.000000000000e-01 -2.000600000000e+03 0.000000000000e+00 0.000000000000e+00 0.000000000000e+00 
3.750000000000e+00 5.000000000000e-01 -2.000600000000e+03 0.000000000000e+00 0.000000000000e+00 0.000000000000e+00 
4.250000000000e+00 5.000000000000e-01 -2.000600000000e+03 0.000000000000e+00 0.000000000000e+00 0.000000000000e+00 
4.750000000000e+00 5.000000000000e-01 -2.000600000000e+03 0.000000000000e+00 0.000000000000e+00 0.000000000000e+00 
5.250000000000e+00 5.000000000000e-01 -2.000600000000e+03 0.000000000000e+00 0.000000000000e+00 0.000000000000e+00 
5.750000000000e+00 5.000000000000e-01 -2.000600000000e+03 0.000000000000e+00 0.000000000000e+00 0.000000000000e+00 
6.250000000000e+00 5.000000000000e-01 -2.000600000000e+03 0.000000000000e+00 0.000000000000e+00 0.000000000000e+00 
6.750000000000e+00 5.000000000000e-01 -2.000600000000e+03 0.000000000000e+00 0.000000000000e+00 0.000000000000e+00 
7.250000000000e+00 5.000000000000e-01 -2.000600000000e+03 0.000000000000e+00 0.000000000000e+00 0.000000000000e+00 
7.750000000000e+00 5.000000000000e-01 -2.000600000000e+03 0.000000000000e+00 0.000000000000e+00 0.000000000000e+00 
8.250000000000e+00 5.000000000000e-01 -2.000600000000e+03 0.000000000000e+00 0.000000000000e+00 0.000000000000e+00 
8.750000000000e+00 5.000000000000e-01 -2.000600000000e+03 0.000000000000e+00 0.000000000000e+00 0.000000000000e+00 
9.250000000000e+00 5.000000000000e-01 -2.000600000000e+03 0.000000000000e+00 0.000000000000e+00 0.000000000000e+00 
9.750000000000e+00 5.000000000000e-01 -2.000600000000e+03 0.000000000000e+00 0.000000000000e+00 0.000000000000e+00 
2.500000000000e-01 5.000000000000e-01 -2.001000000000e+03 0.000000000000e+00 0.000000000000e+00 0.000000000000e+00 
7.500000000000e-01 5.000000000000e-01 -2.001000000000e+03 0.000000000000e+00 0.000000000000e+00 0.000000000000e+00 
1.250000000000e+00 5.000000000000e-01 -2.001000000000e+03 0.000000000000e+00 0.000000000000e+00 0.000000000000e+00 
1.750000000000e+00 5.000000000000e-01 -2.001000000000e+03 0.000000000000e+00 0.000000000000e+00 0.000000000000e+00 
2.250000000000e+00 5.000000000000e-01 -2.001000000000e+03 0.000000000000e+00 0.000000000000e+00 0.000000000000e+00 
2.750000000000e+00 5.000000000000e-01 -2.001000000000e+03 0.000000000000e+00 0.000000000000e+00 0.000000000000e+00 
3.250000000000e+00 5.000000000000e-01 -2.001000000000e+03 0.000000000000e+00 0.000000000000e+00 0.000000000000e+00 
3.750000000000e+00 5.000000000000e-01 -2.001000000000e+03 0.000000000000e+00 0.000000000000e+00 0.000000000000e+00 
4.250000000000e+00 5.000000000000e-01 -2.001000000000e+03 0.000000000000e+00 0.000000000000e+00 0.000000000000e+00 
4.750000000000e+00 5.000000000000e-01 -2.001000000000e+03 0.000000000000e+00 0.000000000000e+00 0.000000000000e+00 
5.250000000000e+00 5.000000000000e-01 -2.001000000000e+03 0.000000000000e+00 0.000000000000e+00 0.000000000000e+00 
5.750000000000e+00 5.000000000000e-01 -2.001000000000e+03 0.000000000000e+00 0.000000000000e+00 0.000000000000e+00 
6.250000000000e+00 5.000000000000e-01 -2.001000000000e+03 0.000000000000e+00 0.000000000000e+00 0.000000000000e+00 
6.750000000000e+00 5.000000000000e-01 -2.001000000000e+03 0.000000000000e+00 0.000000000000e+00 0.000000000000e+00 
7.250000000000e+00 5.000000000000e-01 -2.001000000000e+03 0.000000000000e+00 0.000000000000e+00 0.000000000000e+00 
7.750000000000e+00 5.000000000000e-01 -2.001000000000e+03 0.000000000000e+00 0.000000000000e+00 0.000000000000e+00 
8.250000000000e+00 5.000000000000e-01 -2.001000000000e+03 0.000000000000e+00 0.000000000000e+00 0.000000000000e+00 
8.750000000000e+00 5.000000000000e-01 -2.001000000000e+03 0.000000000000e+00 0.000000000000e+00 0.000000000000e+00 
9.250000000000e+00 5.000000000000e-01 -2.001000000000e+03 0.000000000000e+00 0.000000000000e+00 0.000000000000e+00 
9.750000000000e+00 5.000000000000e-01 -2.001000000000e+03 0.000000000000e+00 0.000000000000e+00 0.000000000000e+00 
2.500000000000e-01 5.000000000000e-01 -2.001400000000e+03 0.000000000000e+00 0.000000000000e+00 0.000000000000e+00 
7.500000000000e-01 5.000000000000e-01 -2.001400000000e+03 0.000000000000e+00 0.000000000000e+00 0.000000000000e+00 
1.250000000000e+00 5.000000000000e-01 -2.001400000000e+03 0.000000000000e+00 0.000000000000e+00 0.000000000000e+00 
1.750000000000e+00 5.000000000000e-01 -2.001400000000e+03 0.000000000000e+00 0.000000000000e+00 0.000000000000e+00 
2.250000000000e+00 5.000000000000e-01 -2.001400000000e+03 0.000000000000e+00 0.000000000000e+00 0.000000000000e+00 
2.750000000000e+00 5.000000000000e-01 -2.001400000000e+03 0.000000000000e+00 0.000000000000e+00 0.000000000000e+00 
3.250000000000e+00 5.000000000000e-01 -2.001400000000e+03 0.000000000000e+00 0.000000000000e+00 0.000000000000e+00 
3.750000000000e+00 5.000000000000e-01 -2.001400000000e+03 0.000000000000e+00 0.000000000000e+00 0.000000000000e+00 
4.250000000000e+00 5.000000000000e-01 -2.001400000000e+03 0.000000000000e+00 0.000000000000e+00 0.000000000000e+00 
4.750000000000e+00 5.000000000000e-01 -2.001400000000e+03 0.000000000000e+00 0.000000000000e+00 0.000000000000e+00 
5.250000000000e+00 5.000000000000e-01 -2.001400000000e+03 0.000000000000e+00 0.000000000000e+00 0.000000000000e+00 
5.750000000000e+00 5.000000000000e-01 -2.001400000000e+03 0.000000000000e+00 0.000000000000e+00 0.000000000000e+00 
6.250000000000e+00 5.000000000000e-01 -2.001400000000e+03 0.000000000000e+00 0.000000000000e+00 0.000000000000e+00 
6.750000000000e+00 5.000000000000e-01 -2.001400000000e+03 0.000000000000e+00 0.000000000000e+00 0.000000000000e+00 
7.250000000000e+00 5.000000000000e-01 -2.001400000000e+03 0.000000000000e+00 0.000000000000e+00 0.000000000000e+00 
7.750000000000e+00 5.000000000000e-01 -2.001400000000e+03 0.000000000000e+00 0.000000000000e+00 0.000000000000e+00 
8.250000000000e+00 5.000000000000e-01 -2.001400000000e+03 0.000000000000e+00 0.000000000000e+00 0.000000000000e+00 
8.750000000000e+00 5.000000000000e-01 -2.001400000000e+03 0.000000000000e+00 0.000000000000e+00 0.000000000000e+00 
9.250000000000e+00 5.000000000000e-01 -2.001400000000e+03 0.000000000000e+00 0.000000000000e+00 0.000000000000e+00 
9.750000000000e+00 5.000000000000e-01 -2.001400000000e+03 0.000000000000e+00 0.000000000000e+00 0.000000000000e+00 
2.500000000000e-01 5.000000000000e-01 -2.001800000000e+03 0.000000000000e+00 0.000000000000e+00 0.000000000000e+00 
7.500000000000e-01 5.000000000000e-01 -2.001800000000e+03 0.000000000000e+00 0.000000000000e+00 0.000000000000e+00 
1.250000000000e+00 5.000000000000e-01 -2.001800000000e+03 0.000000000000e+00 0.000000000000e+00 0.000000000000e+00 
1.750000000000e+00 5.000000000000e-01 -2.001800000000e+03 0.000000000000e+00 0.000000000000e+00 0.000000000000e+00 
2.250000000000e+00 5.000000000000e-01 -2.001800000000e+03 0.000000000000e+00 0.000000000000e+00 0.000000000000e+00 
2.750000000000e+00 5.000000000000e-01 -2.001800000000e+03 0.000000000000e+00 0.000000000000e+00 0.000000000000e+00 
3.250000000000e+00 5.000000000000e-01 -2.001800000000e+03 0.000000000000e+00 0.000000000000e+00 0.000000000000e+00 
3.750000000000e+00 5.000000000000e-01 -2.001800000000e+03 0.000000000000e+00 0.000000000000e+00 0.000000000000e+00 
4.250000000000e+00 5.000000000000e-01 -2.001800000000e+03 0.000000000000e+00 0.000000000000e+00 0.000000000000e+00 
4.750000000000e+00 5.000000000000e-01 -2.001800000000e+03 0.000000000000e+00 0.000000000000e+00 0.000000000000e+00 
5.250000000000e+00 5.000000000000e-01 -2.001800000000e+03 0.000000000000e+00 0.000000000000e+00 0.000000000000e+00 
5.750000000000e+00 5.000000000000e-01 -2.001800000000e+03 0.000000000000e+00 0.000000000000e+00 0.000000000000e+00 
6.250000000000e+00 5.000000000000e-01 -2.001800000000e+03 0.000000000000e+00 0.000000000000e+00 0.000000000000e+00 
6.750000000000e+00 5.000000000000e-01 -2.001800000000e+03 0.000000000000e+00 0.000000000000e+00 0.000000000000e+00 
7.250000000000e+00 5.000000000000e-01 -2.001800000000e+03 0.000000000000e+00 0.000000000000e+00 0.000000000000e+00 
7.750000000000e+00 5.000000000000e-01 -2.001800000000e+03 0.000000000000e+00 0.000000000000e+00 0.000000000000e+00 
8.250000000000e+00 5.000000000000e-01 -2.001800000000e+03 0.000000000000e+00 0.000000000000e+00 0.000000000000e+00 
8.750000000000e+00 5.000000000000e-01 -2.001800000000e+03 0.000000000000e+00 0.000000000000e+00 0.000000000000e+00 
9.250000000000e+00 5.000000000000e-01 -2.001800000000e+03 0.000000000000e+00 0.000000000000e+00 0.000000000000e+00 
9.750000000000e+00 5.000000000000e-01 -2.001800000000e+03 0.000000000000e+00 0.000000000000e+00 0.000000000000e+00 
VARIABLES = "X","Y","Z","VX","VY","VZ",POROSITY,PERMEABILITY
ZONE T="1.000000000000e+00s", I=100, F=POINT, C=BLACK
2.500000000000e-01 5.000000000000e-01 -2.000200000000e+03 -3.366467962345e-09 0.000000000000e+00 2.203394484180e-07 
7.500000000000e-01 5.000000000000e-01 -2.000200000000e+03 2.650409028741e-08 0.000000000000e+00 4.245106914111e-12 
1.250000000000e+00 5.000000000000e-01 -2.000200000000e+03 4.402231016343e-13 0.000000000000e+00 0.000000000000e+00 
1.750000000000e+00 5.000000000000e-01 -2.000200000000e+03 0.000000000000e+00 0.000000000000e+00 0.000000000000e+00 
2.250000000000e+00 5.000000000000e-01 -2.000200000000e+03 0.000000000000e+00 0.000000000000e+00 0.000000000000e+00 
2.750000000000e+00 5.000000000000e-01 -2.000200000000e+03 0.000000000000e+00 0.000000000000e+00 0.000000000000e+00 
3.250000000000e+00 5.000000000000e-01 -2.000200000000e+03 0.000000000000e+00 0.000000000000e+00 0.000000000000e+00 
3.750000000000e+00 5.000000000000e-01 -2.000200000000e+03 0.000000000000e+00 0.000000000000e+00 0.000000000000e+00 
4.250000000000e+00 5.000000000000e-01 -2.000200000000e+03 0.000000000000e+00 0.000000000000e+00 0.000000000000e+00 
4.750000000000e+00 5.000000000000e-01 -2.000200000000e+03 0.000000000000e+00 0.000000000000e+00 0.000000000000e+00 
5.250000000000e+00 5.000000000000e-01 -2.000200000000e+03 0.000000000000e+00 0.000000000000e+00 0.000000000000e+00 
5.750000000000e+00 5.000000000000e-01 -2.000200000000e+03 0.000000000000e+00 0.000000000000e+00 0.000000000000e+00 
6.250000000000e+00 5.000000000000e-01 -2.000200000000e+03 0.000000000000e+00 0.000000000000e+00 0.000000000000e+00 
6.750000000000e+00 5.000000000000e-01 -2.000200000000e+03 0.000000000000e+00 0.000000000000e+00 0.000000000000e+00 
7.250000000000e+00 5.000000000000e-01 -2.000200000000e+03 0.000000000000e+00 0.000000000000e+00 0.000000000000e+00 
7.750000000000e+00 5.000000000000e-01 -2.000200000000e+03 0.000000000000e+00 0.000000000000e+00 0.000000000000e+00 
8.250000000000e+00 5.000000000000e-01 -2.000200000000e+03 0.000000000000e+00 0.000000000000e+00 0.000000000000e+00 
8.750000000000e+00 5.000000000000e-01 -2.000200000000e+03 9.412324904075e-14 0.000000000000e+00 0.000000000000e+00 
9.250000000000e+00 5.000000000000e-01 -2.000200000000e+03 7.239935075877e-09 0.000000000000e+00 1.037846365029e-11 
9.750000000000e+00 5.000000000000e-01 -2.000200000000e+03 -5.700572240293e-08 0.000000000000e+00 2.203394484180e-07 
2.500000000000e-01 5.000000000000e-01 -2.000600000000e+03 -2.725254537575e-09 0.000000000000e+00 1.923526689815e-07 
7.500000000000e-01 5.000000000000e-01 -2.000600000000e+03 2.145584392196e-08 0.000000000000e+00 2.876189793459e-12 
1.250000000000e+00 5.000000000000e-01 -2.000600000000e+03 3.122940412219e-13 0.000000000000e+00 0.000000000000e+00 
1.750000000000e+00 5.000000000000e-01 -2.000600000000e+03 0.000000000000e+00 0.000000000000e+00 0.000000000000e+00 
2.250000000000e+00 5.000000000000e-01 -2.000600000000e+03 0.000000000000e+00 0.000000000000e+00 0.000000000000e+00 
2.750000000000e+00 5.000000000000e-01 -2.000600000000e+03 0.000000000000e+00 0.000000000000e+00 0.000000000000e+00 
3.250000000000e+00 5.000000000000e-01 -2.000600000000e+03 0.000000000000e+00 0.000000000000e+00 0.000000000000e+00 
3.750000000000e+00 5.000000000000e-01 -2.000600000000e+03 0.000000000000e+00 0.000000000000e+00 0.000000000000e+00 
4.250000000000e+00 5.000000000000e-01 -2.000600000000e+03 0.000000000000e+00 0.000000000000e+00 0.000000000000e+00 
4.750000000000e+00 5.000000000000e-01 -2.000600000000e+03 0.000000000000e+00 0.000000000000e+00 0.000000000000e+00 
5.250000000000e+00 5.000000000000e-01 -2.000600000000e+03 0.000000000000e+00 0.000000000000e+00 0.000000000000e+00 
5.750000000000e+00 5.000000000000e-01 -2.000600000000e+03 0.000000000000e+00 0.000000000000e+00 0.000000000000e+00 
6.250000000000e+00 5.000000000000e-01 -2.000600000000e+03 0.000000000000e+00 0.000000000000e+00 0.000000000000e+00 
6.750000000000e+00 5.000000000000e-01 -2.000600000000e+03 0.000000000000e+00 0.000000000000e+00 0.000000000000e+00 
7.250000000000e+00 5.000000000000e-01 -2.000600000000e+03 0.000000000000e+00 0.000000000000e+00 0.000000000000e+00 
7.750000000000e+00 5.000000000000e-01 -2.000600000000e+03 0.000000000000e+00 0.000000000000e+00 0.000000000000e+00 
8.250000000000e+00 5.000000000000e-01 -2.000600000000e+03 0.000000000000e+00 0.000000000000e+00 0.000000000000e+00 
8.750000000000e+00 5.000000000000e-01 -2.000600000000e+03 6.650675178867e-14 0.000000000000e+00 0.000000000000e+00 
9.250000000000e+00 5.000000000000e-01 -2.000600000000e+03 6.687788033151e-09 0.000000000000e+00 8.371619815307e-12 
9.750000000000e+00 5.000000000000e-01 -2.000600000000e+03 -5.265696615360e-08 0.000000000000e+00 1.923526689815e-07 
2.500000000000e-01 5.000000000000e-01 -2.001000000000e+03 -2.204111013217e-09 0.000000000000e+00 1.923526689815e-07 
7.500000000000e-01 5.000000000000e-01 -2.001000000000e+03 1.735290264005e-08 0.000000000000e+00 2.173175859112e-12 
1.250000000000e+00 5.000000000000e-01 -2.001000000000e+03 2.098952999151e-13 0.000000000000e+00 0.000000000000e+00 
1.750000000000e+00 5.000000000000e-01 -2.001000000000e+03 0.000000000000e+00 0.000000000000e+00 0.000000000000e+00 
2.250000000000e+00 5.000000000000e-01 -2.001000000000e+03 0.000000000000e+00 0.000000000000e+00 0.000000000000e+00 
2.750000000000e+00 5.000000000000e-01 -2.001000000000e+03 0.000000000000e+00 0.000000000000e+00 0.000000000000e+00 
3.250000000000e+00 5.000000000000e-01 -2.001000000000e+03 0.000000000000e+00 0.000000000000e+00 0.000000000000e+00 
3.750000000000e+00 5.000000000000e-01 -2.001000000000e+03 0.000000000000e+00 0.000000000000e+00 0.000000000000e+00 
4.250000000000e+00 5.000000000000e-01 -2.001000000000e+03 0.000000000000e+00 0.000000000000e+00 0.000000000000e+00 
4.750000000000e+00 5.000000000000e-01 -2.001000000000e+03 0.000000000000e+00 0.000000000000e+00 0.000000000000e+00 
5.250000000000e+00 5.000000000000e-01 -2.001000000000e+03 0.000000000000e+00 0.000000000000e+00 0.000000000000e+00 
5.750000000000e+00 5.000000000000e-01 -2.001000000000e+03 0.000000000000e+00 0.000000000000e+00 0.000000000000e+00 
6.250000000000e+00 5.000000000000e-01 -2.001000000000e+03 0.000000000000e+00 0.000000000000e+00 0.000000000000e+00 
6.750000000000e+00 5.000000000000e-01 -2.001000000000e+03 0.000000000000e+00 0.000000000000e+00 0.000000000000e+00 
7.250000000000e+00 5.000000000000e-01 -2.001000000000e+03 0.000000000000e+00 0.000000000000e+00 0.000000000000e+00 
7.750000000000e+00 5.000000000000e-01 -2.001000000000e+03 0.000000000000e+00 0.000000000000e+00 0.000000000000e+00 
8.250000000000e+00 5.000000000000e-01 -2.001000000000e+03 0.000000000000e+00 0.000000000000e+00 0.000000000000e+00 
8.750000000000e+00 5.000000000000e-01 -2.001000000000e+03 3.942717760533e-14 0.000000000000e+00 0.000000000000e+00 
9.250000000000e+00 5.000000000000e-01 -2.001000000000e+03 6.285224413038e-09 0.000000000000e+00 7.837560004036e-12 
9.750000000000e+00 5.000000000000e-01 -2.001000000000e+03 -4.948591097995e-08 0.000000000000e+00 1.923526689815e-07 
2.500000000000e-01 5.000000000000e-01 -2.001400000000e+03 -1.682430715247e-09 0.000000000000e+00 1.923526689815e-07 
7.500000000000e-01 5.000000000000e-01 -2.001400000000e+03 1.324573279293e-08 0.000000000000e+00 1.287701060433e-12 
1.250000000000e+00 5.000000000000e-01 -2.001400000000e+03 1.276160407009e-13 0.000000000000e+00 0.000000000000e+00 
1.750000000000e+00 5.000000000000e-01 -2.001400000000e+03 0.000000000000e+00 0.000000000000e+00 0.000000000000e+00 
2.250000000000e+00 5.000000000000e-01 -2.001400000000e+03 0.000000000000e+00 0.000000000000e+00 0.000000000000e+00 
2.750000000000e+00 5.000000000000e-01 -2.001400000000e+03 0.000000000000e+00 0.000000000000e+00 0.000000000000e+00 
3.250000000000e+00 5.000000000000e-01 -2.001400000000e+03 0.000000000000e+00 0.000000000000e+00 0.000000000000e+00 
3.750000000000e+00 5.000000000000e-01 -2.001400000000e+03 0.000000000000e+00 0.000000000000e+00 0.000000000000e+00 
4.250000000000e+00 5.000000000000e-01 -2.001400000000e+03 0.000000000000e+00 0.000000000000e+00 0.000000000000e+00 
4.750000000000e+00 5.000000000000e-01 -2.001400000000e+03 0.000000000000e+00 0.000000000000e+00 0.000000000000e+00 
5.250000000000e+00 5.000000000000e-01 -2.001400000000e+03 0.000000000000e+00 0.000000000000e+00 0.000000000000e+00 
5.750000000000e+00 5.000000000000e-01 -2.001400000000e+03 0.000000000000e+00 0.000000000000e+00 0.000000000000e+00 
6.250000000000e+00 5.000000000000e-01 -2.001400000000e+03 0.000000000000e+00 0.000000000000e+00 0.000000000000e+00 
6.750000000000e+00 5.000000000000e-01 -2.001400000000e+03 0.000000000000e+00 0.000000000000e+00 0.000000000000e+00 
7.250000000000e+00 5.000000000000e-01 -2.001400000000e+03 0.000000000000e+00 0.000000000000e+00 0.000000000000e+00 
7.750000000000e+00 5.000000000000e-01 -2.001400000000e+03 0.000000000000e+00 0.000000000000e+00 0.000000000000e+00 
8.250000000000e+00 5.000000000000e-01 -2.001400000000e+03 0.000000000000e+00 0.000000000000e+00 0.000000000000e+00 
8.750000000000e+00 5.000000000000e-01 -2.001400000000e+03 1.528874729685e-14 0.000000000000e+00 0.000000000000e+00 
9.250000000000e+00 5.000000000000e-01 -2.001400000000e+03 5.882172012558e-09 0.000000000000e+00 7.114915471133e-12 
9.750000000000e+00 5.000000000000e-01 -2.001400000000e+03 -4.631118995007e-08 0.000000000000e+00 1.923526689815e-07 
2.500000000000e-01 5.000000000000e-01 -2.001800000000e+03 -1.039368936847e-09 0.000000000000e+00 -2.798677943656e-08 
7.500000000000e-01 5.000000000000e-01 -2.001800000000e+03 8.182926451886e-09 0.000000000000e+00 -2.056186039677e-13 
1.250000000000e+00 5.000000000000e-01 -2.001800000000e+03 6.202712681987e-14 0.000000000000e+00 0.000000000000e+00 
1.750000000000e+00 5.000000000000e-01 -2.001800000000e+03 0.000000000000e+00 0.000000000000e+00 0.000000000000e+00 
2.250000000000e+00 5.000000000000e-01 -2.001800000000e+03 0.000000000000e+00 0.000000000000e+00 0.000000000000e+00 
2.750000000000e+00 5.000000000000e-01 -2.001800000000e+03 0.000000000000e+00 0.000000000000e+00 0.000000000000e+00 
3.250000000000e+00 5.000000000000e-01 -2.001800000000e+03 0.000000000000e+00 0.000000000000e+00 0.000000000000e+00 
3.750000000000e+00 5.000000000000e-01 -2.001800000000e+03 0.000000000000e+00 0.000000000000e+00 0.000000000000e+00 
4.250000000000e+00 5.000000000000e-01 -2.001800000000e+03 0.000000000000e+00 0.000000000000e+00 0.000000000000e+00 
4.750000000000e+00 5.000000000000e-01 -2.001800000000e+03 0.000000000000e+00 0.000000000000e+00 0.000000000000e+00 
5.250000000000e+00 5.000000000000e-01 -2.001800000000e+03 0.000000000000e+00 0.000000000000e+00 0.000000000000e+00 
5.750000000000e+00 5.000000000000e-01 -2.001800000000e+03 0.000000000000e+00 0.000000000000e+00 0.000000000000e+00 
6.250000000000e+00 5.000000000000e-01 -2.001800000000e+03 0.000000000000e+00 0.000000000000e+00 0.000000000000e+00 
6.750000000000e+00 5.000000000000e-01 -2.001800000000e+03 0.000000000000e+00 0.000000000000e+00 0.000000000000e+00 
7.250000000000e+00 5.000000000000e-01 -2.001800000000e+03 0.000000000000e+00 0.000000000000e+00 0.000000000000e+00 
7.750000000000e+00 5.000000000000e-01 -2.001800000000e+03 0.000000000000e+00 0.000000000000e+00 0.000000000000e+00 
8.250000000000e+00 5.000000000000e-01 -2.001800000000e+03 0.000000000000e+00 0.000000000000e+00 0.000000000000e+00 
8.750000000000e+00 5.000000000000e-01 -2.001800000000e+03 0.000000000000e+00 0.000000000000e+00 0.000000000000e+00 
9.250000000000e+00 5.000000000000e-01 -2.001800000000e+03 5.328245601997e-09 0.000000000000e+00 -1.050014264844e-12 
9.750000000000e+00 5.000000000000e-01 -2.001800000000e+03 -4.194918888903e-08 0.000000000000e+00 -2.798677943656e-08 
VARIABLES = "X","Y","Z","VX","VY","VZ",POROSITY,PERMEABILITY
ZONE T="2.000000000000e+00s", I=100, F=POINT, C=BLACK
2.500000000000e-01 5.000000000000e-01 -2.000200000000e+03 -6.440853109563e-09 0.000000000000e+00 2.216858743407e-07 
7.500000000000e-01 5.000000000000e-01 -2.000200000000e+03 5.070867159704e-08 0.000000000000e+00 1.362188494817e-11 
1.250000000000e+00 5.000000000000e-01 -2.000200000000e+03 4.540341267197e-13 0.000000000000e+00 5.436812754058e-17 
1.750000000000e+00 5.000000000000e-01 -2.000200000000e+03 1.870624047000e-18 0.000000000000e+00 0.000000000000e+00 
2.250000000000e+00 5.000000000000e-01 -2.000200000000e+03 0.000000000000e+00 0.000000000000e+00 0.000000000000e+00 
2.750000000000e+00 5.000000000000e-01 -2.000200000000e+03 0.000000000000e+00 0.000000000000e+00 0.000000000000e+00 
3.250000000000e+00 5.000000000000e-01 -2.000200000000e+03 0.000000000000e+00 0.000000000000e+00 0.000000000000e+00 
3.750000000000e+00 5.000000000000e-01 -2.000200000000e+03 0.000000000000e+00 0.000000000000e+00 0.000000000000e+00 
4.250000000000e+00 5.000000000000e-01 -2.000200000000e+03 0.000000000000e+00 0.000000000000e+00 0.000000000000e+00 
4.750000000000e+00 5.000000000000e-01 -2.000200000000e+03 0.000000000000e+00 0.000000000000e+00 0.000000000000e+00 
5.250000000000e+00 5.000000000000e-01 -2.000200000000e+03 0.000000000000e+00 0.000000000000e+00 0.000000000000e+00 
5.750000000000e+00 5.000000000000e-01 -2.000200000000e+03 0.000000000000e+00 0.000000000000e+00 0.000000000000e+00 
6.250000000000e+00 5.000000000000e-01 -2.000200000000e+03 0.000000000000e+00 0.000000000000e+00 0.000000000000e+00 
6.750000000000e+00 5.000000000000e-01 -2.000200000000e+03 0.000000000000e+00 0.000000000000e+00 0.000000000000e+00 
7.250000000000e+00 5.000000000000e-01 -2.000200000000e+03 0.000000000000e+00 0.000000000000e+00 0.000000000000e+00 
7.750000000000e+00 5.000000000000e-01 -2.000200000000e+03 0.000000000000e+00 0.000000000000e+00 0.000000000000e+00 
8.250000000000e+00 5.000000000000e-01 -2.000200000000e+03 5.245435957788e-19 0.000000000000e+00 0.000000000000e+00 
8.750000000000e+00 5.000000000000e-01 -2.000200000000e+03 1.060659907144e-13 0.000000000000e+00 1.155859599085e-16 
9.250000000000e+00 5.000000000000e-01 -2.000200000000e+03 6.657866855848e-09 0.000000000000e+00 2.009679501600e-11 
9.750000000000e+00 5.000000000000e-01 -2.000200000000e+03 -5.242384951357e-08 0.000000000000e+00 2.216858743407e-07 
2.500000000000e-01 5.000000000000e-01 -2.000600000000e+03 -6.071055242279e-09 0.000000000000e+00 1.918144602703e-07 
7.500000000000e-01 5.000000000000e-01 -2.000600000000e+03 4.779728213026e-08 0.000000000000e+00 1.044908457677e-11 
1.250000000000e+00 5.000000000000e-01 -2.000600000000e+03 2.730830577436e-13 0.000000000000e+00 1.029402959396e-17 
1.750000000000e+00 5.000000000000e-01 -2.000600000000e+03 8.896159483243e-19 0.000000000000e+00 0.000000000000e+00 
2.250000000000e+00 5.000000000000e-01 -2.000600000000e+03 0.000000000000e+00 0.000000000000e+00 0.000000000000e+00 
2.750000000000e+00 5.000000000000e-01 -2.000600000000e+03 0.000000000000e+00 0.000000000000e+00 0.000000000000e+00 
3.250000000000e+00 5.000000000000e-01 -2.000600000000e+03 0.000000000000e+00 0.000000000000e+00 0.000000000000e+00 
3.750000000000e+00 5.000000000000e-01 -2.000600000000e+03 0.000000000000e+00 0.000000000000e+00 0.000000000000e+00 
4.250000000000e+00 5.000000000000e-01 -2.000600000000e+03 0.000000000000e+00 0.000000000000e+00 0.000000000000e+00 
4.750000000000e+00 5.000000000000e-01 -2.000600000000e+03 0.000000000000e+00 0.000000000000e+00 0.000000000000e+00 
5.250000000000e+00 5.000000000000e-01 -2.000600000000e+03 0.000000000000e+00 0.000000000000e+00 0.000000000000e+00 
5.750000000000e+00 5.000000000000e-01 -2.000600000000e+03 0.000000000000e+00 0.000000000000e+00 0.000000000000e+00 
6.250000000000e+00 5.000000000000e-01 -2.000600000000e+03 0.000000000000e+00 0.000000000000e+00 0.000000000000e+00 
6.750000000000e+00 5.000000000000e-01 -2.000600000000e+03 0.000000000000e+00 0.000000000000e+00 0.000000000000e+00 
7.250000000000e+00 5.000000000000e-01 -2.000600000000e+03 0.000000000000e+00 0.000000000000e+00 0.000000000000e+00 
7.750000000000e+00 5.000000000000e-01 -2.000600000000e+03 0.000000000000e+00 0.000000000000e+00 0.000000000000e+00 
8.250000000000e+00 5.000000000000e-01 -2.000600000000e+03 2.997292752451e-19 0.000000000000e+00 0.000000000000e+00 
8.750000000000e+00 5.000000000000e-01 -2.000600000000e+03 7.373140671700e-14 0.000000000000e+00 4.456240901014e-17 
9.250000000000e+00 5.000000000000e-01 -2.000600000000e+03 6.288465869773e-09 0.000000000000e+00 1.622627227415e-11 
9.750000000000e+00 5.000000000000e-01 -2.000600000000e+03 -4.951355736987e-08 0.000000000000e+00 1.918144602703e-07 
2.500000000000e-01 5.000000000000e-01 -2.001000000000e+03 -5.731455627024e-09 0.000000000000e+00 1.920321180556e-07 
7.500000000000e-01 5.000000000000e-01 -2.001000000000e+03 4.512364367268e-08 0.000000000000e+00 9.323995825263e-12 
1.250000000000e+00 5.000000000000e-01 -2.001000000000e+03 8.682643381597e-14 0.000000000000e+00 -2.184646717869e-18 
1.750000000000e+00 5.000000000000e-01 -2.001000000000e+03 1.716810219616e-19 0.000000000000e+00 0.000000000000e+00 
2.250000000000e+00 5.000000000000e-01 -2.001000000000e+03 0.000000000000e+00 0.000000000000e+00 0.000000000000e+00 
2.750000000000e+00 5.000000000000e-01 -2.001000000000e+03 0.000000000000e+00 0.000000000000e+00 0.000000000000e+00 
3.250000000000e+00 5.000000000000e-01 -2.001000000000e+03 0.000000000000e+00 0.000000000000e+00 0.000000000000e+00 
3.750000000000e+00 5.000000000000e-01 -2.001000000000e+03 0.000000000000e+00 0.000000000000e+00 0.000000000000e+00 
4.250000000000e+00 5.000000000000e-01 -2.001000000000e+03 0.000000000000e+00 0.000000000000e+00 0.000000000000e+00 
4.750000000000e+00 5.000000000000e-01 -2.001000000000e+03 0.000000000000e+00 0.000000000000e+00 0.000000000000e+00 
5.250000000000e+00 5.000000000000e-01 -2.001000000000e+03 0.000000000000e+00 0.000000000000e+00 0.000000000000e+00 
5.750000000000e+00 5.000000000000e-01 -2.001000000000e+03 0.000000000000e+00 0.000000000000e+00 0.000000000000e+00 
6.250000000000e+00 5.000000000000e-01 -2.001000000000e+03 0.000000000000e+00 0.000000000000e+00 0.000000000000e+00 
6.750000000000e+00 5.000000000000e-01 -2.001000000000e+03 0.000000000000e+00 0.000000000000e+00 0.000000000000e+00 
7.250000000000e+00 5.000000000000e-01 -2.001000000000e+03 0.000000000000e+00 0.000000000000e+00 0.000000000000e+00 