 TITLE = "Time curves in points"
 VARIABLES = "TIME "  "HEAD" 
 ZONE T="POINT=POINTOBS"
0.000000000000e+00 0.000000000000e+00 
1.000000000000e-05 -1.493401904197e-05 
2.000000000000e-05 -1.045380927180e-04 
3.000000000000e-05 -3.938304993762e-04 
4.000000000000e-05 -1.065476788195e-03 
5.000000000000e-05 -2.328554591278e-03 
6.000000000000e-05 -4.381373948199e-03 
7.000000000000e-05 -7.383180770256e-03 
8.000000000000e-05 -1.144028166740e-02 
9.000000000000e-05 -1.660485651254e-02 
1.000000000000e-04 -2.288180629429e-02 
1.900000000000e-04 -1.276520921733e-01 
2.800000000000e-04 -2.512879695614e-01 
3.700000000000e-04 -3.784511089619e-01 
4.600000000000e-04 -5.021211901182e-01 
5.500000000000e-04 -6.194729419331e-01 
6.400000000000e-04 -7.296622304971e-01 
7.300000000000e-04 -8.327367099844e-01 
8.200000000000e-04 -9.291168733432e-01 
9.100000000000e-04 -1.019353124330e+00 
1.000000000000e-03 -1.104014700902e+00 
1.900000000000e-03 -1.668631417588e+00 
2.800000000000e-03 -2.077806230487e+00 
3.700000000000e-03 -2.393352314961e+00 
4.600000000000e-03 -2.648030829988e+00 
5.500000000000e-03 -2.860615815130e+00 
6.400000000000e-03 -3.042621688137e+00 
7.300000000000e-03 -3.201524423289e+00 
8.200000000000e-03 -3.342412908787e+00 
9.100000000000e-03 -3.468889737531e+00 
1.000000000000e-02 -3.583590190608e+00 
1.900000000000e-02 -4.270145641625e+00 
2.800000000000e-02 -4.738533973495e+00 
3.700000000000e-02 -5.087117536840e+00 
4.600000000000e-02 -5.362259989011e+00 
5.500000000000e-02 -5.588552377926e+00 
6.400000000000e-02 -5.780299177692e+00 
7.300000000000e-02 -5.946445881447e+00 
8.200000000000e-02 -6.092916610967e+00 
9.100000000000e-02 -6.223819146605e+00 
1.000000000000e-01 -6.342110382409e+00 
1.900000000000e-01 -7.042458737752e+00 
2.800000000000e-01 -7.517308115984e+00 
3.700000000000e-01 -7.869413920698e+00 
4.600000000000e-01 -8.146705182466e+00 
5.500000000000e-01 -8.374421711598e+00 
6.400000000000e-01 -8.567171674922e+00 
7.300000000000e-01 -8.734056783938e+00 
8.200000000000e-01 -8.881087081662e+00 
9.100000000000e-01 -9.012419327821e+00 
1.000000000000e+00 -9.131038140867e+00 
1.900000000000e+00 -9.819527390702e+00 
2.800000000000e+00 -1.026216557663e+01 
3.700000000000e+00 -1.056144211213e+01 
4.600000000000e+00 -1.076856659338e+01 
5.500000000000e+00 -1.091343032307e+01 
6.400000000000e+00 -1.101522497044e+01 
7.300000000000e+00 -1.108690437085e+01 
8.200000000000e+00 -1.113742449968e+01 
9.100000000000e+00 -1.117304598247e+01 
1.000000000000e+01 -1.119816705198e+01 
