# vtk DataFile Version 3.0
Unstructured Grid from OpenGeoSys
ASCII
DATASET UNSTRUCTURED_GRID
FIELD TimesAndCycles 2
TIME 1 1 double
1.000000000000e+04
CYLCE 1 1 long
100
POINTS 101 double
0.000000000000e+00 0.000000000000e+00 0.000000000000e+00
2.000000000000e-05 0.000000000000e+00 0.000000000000e+00
4.000000000000e-05 0.000000000000e+00 0.000000000000e+00
6.000000000000e-05 0.000000000000e+00 0.000000000000e+00
8.000000000000e-05 0.000000000000e+00 0.000000000000e+00
1.000000000000e-04 0.000000000000e+00 0.000000000000e+00
1.200000000000e-04 0.000000000000e+00 0.000000000000e+00
1.400000000000e-04 0.000000000000e+00 0.000000000000e+00
1.600000000000e-04 0.000000000000e+00 0.000000000000e+00
1.800000000000e-04 0.000000000000e+00 0.000000000000e+00
2.000000000000e-04 0.000000000000e+00 0.000000000000e+00
2.200000000000e-04 0.000000000000e+00 0.000000000000e+00
2.400000000000e-04 0.000000000000e+00 0.000000000000e+00
2.600000000000e-04 0.000000000000e+00 0.000000000000e+00
2.800000000000e-04 0.000000000000e+00 0.000000000000e+00
3.000000000000e-04 0.000000000000e+00 0.000000000000e+00
3.200000000000e-04 0.000000000000e+00 0.000000000000e+00
3.400000000000e-04 0.000000000000e+00 0.000000000000e+00
3.600000000000e-04 0.000000000000e+00 0.000000000000e+00
3.800000000000e-04 0.000000000000e+00 0.000000000000e+00
4.000000000000e-04 0.000000000000e+00 0.000000000000e+00
4.200000000000e-04 0.000000000000e+00 0.000000000000e+00
4.400000000000e-04 0.000000000000e+00 0.000000000000e+00
4.600000000000e-04 0.000000000000e+00 0.000000000000e+00
4.800000000000e-04 0.000000000000e+00 0.000000000000e+00
5.000000000000e-04 0.000000000000e+00 0.000000000000e+00
5.200000000000e-04 0.000000000000e+00 0.000000000000e+00
5.400000000000e-04 0.000000000000e+00 0.000000000000e+00
5.600000000000e-04 0.000000000000e+00 0.000000000000e+00
5.800000000000e-04 0.000000000000e+00 0.000000000000e+00
6.000000000000e-04 0.000000000000e+00 0.000000000000e+00
6.200000000000e-04 0.000000000000e+00 0.000000000000e+00
6.400000000000e-04 0.000000000000e+00 0.000000000000e+00
6.600000000000e-04 0.000000000000e+00 0.000000000000e+00
6.800000000000e-04 0.000000000000e+00 0.000000000000e+00
7.000000000000e-04 0.000000000000e+00 0.000000000000e+00
7.200000000000e-04 0.000000000000e+00 0.000000000000e+00
7.400000000000e-04 0.000000000000e+00 0.000000000000e+00
7.600000000000e-04 0.000000000000e+00 0.000000000000e+00
7.800000000000e-04 0.000000000000e+00 0.000000000000e+00
8.000000000000e-04 0.000000000000e+00 0.000000000000e+00
8.200000000000e-04 0.000000000000e+00 0.000000000000e+00
8.400000000000e-04 0.000000000000e+00 0.000000000000e+00
8.600000000000e-04 0.000000000000e+00 0.000000000000e+00
8.800000000000e-04 0.000000000000e+00 0.000000000000e+00
9.000000000000e-04 0.000000000000e+00 0.000000000000e+00
9.200000000000e-04 0.000000000000e+00 0.000000000000e+00
9.400000000000e-04 0.000000000000e+00 0.000000000000e+00
9.600000000000e-04 0.000000000000e+00 0.000000000000e+00
9.800000000000e-04 0.000000000000e+00 0.000000000000e+00
1.000000000000e-03 0.000000000000e+00 0.000000000000e+00
1.020000000000e-03 0.000000000000e+00 0.000000000000e+00
1.040000000000e-03 0.000000000000e+00 0.000000000000e+00
1.060000000000e-03 0.000000000000e+00 0.000000000000e+00
1.080000000000e-03 0.000000000000e+00 0.000000000000e+00
1.100000000000e-03 0.000000000000e+00 0.000000000000e+00
1.120000000000e-03 0.000000000000e+00 0.000000000000e+00
1.140000000000e-03 0.000000000000e+00 0.000000000000e+00
1.160000000000e-03 0.000000000000e+00 0.000000000000e+00
1.180000000000e-03 0.000000000000e+00 0.000000000000e+00
1.200000000000e-03 0.000000000000e+00 0.000000000000e+00
1.220000000000e-03 0.000000000000e+00 0.000000000000e+00
1.240000000000e-03 0.000000000000e+00 0.000000000000e+00
1.260000000000e-03 0.000000000000e+00 0.000000000000e+00
1.280000000000e-03 0.000000000000e+00 0.000000000000e+00
1.300000000000e-03 0.000000000000e+00 0.000000000000e+00
1.320000000000e-03 0.000000000000e+00 0.000000000000e+00
1.340000000000e-03 0.000000000000e+00 0.000000000000e+00
1.360000000000e-03 0.000000000000e+00 0.000000000000e+00
1.380000000000e-03 0.000000000000e+00 0.000000000000e+00
1.400000000000e-03 0.000000000000e+00 0.000000000000e+00
1.420000000000e-03 0.000000000000e+00 0.000000000000e+00
1.440000000000e-03 0.000000000000e+00 0.000000000000e+00
1.460000000000e-03 0.000000000000e+00 0.000000000000e+00
1.480000000000e-03 0.000000000000e+00 0.000000000000e+00
1.500000000000e-03 0.000000000000e+00 0.000000000000e+00
1.520000000000e-03 0.000000000000e+00 0.000000000000e+00
1.540000000000e-03 0.000000000000e+00 0.000000000000e+00
1.560000000000e-03 0.000000000000e+00 0.000000000000e+00
1.580000000000e-03 0.000000000000e+00 0.000000000000e+00
1.600000000000e-03 0.000000000000e+00 0.000000000000e+00
1.620000000000e-03 0.000000000000e+00 0.000000000000e+00
1.640000000000e-03 0.000000000000e+00 0.000000000000e+00
1.660000000000e-03 0.000000000000e+00 0.000000000000e+00
1.680000000000e-03 0.000000000000e+00 0.000000000000e+00
1.700000000000e-03 0.000000000000e+00 0.000000000000e+00
1.720000000000e-03 0.000000000000e+00 0.000000000000e+00
1.740000000000e-03 0.000000000000e+00 0.000000000000e+00
1.760000000000e-03 0.000000000000e+00 0.000000000000e+00
1.780000000000e-03 0.000000000000e+00 0.000000000000e+00
1.800000000000e-03 0.000000000000e+00 0.000000000000e+00
1.820000000000e-03 0.000000000000e+00 0.000000000000e+00
1.840000000000e-03 0.000000000000e+00 0.000000000000e+00
1.860000000000e-03 0.000000000000e+00 0.000000000000e+00
1.880000000000e-03 0.000000000000e+00 0.000000000000e+00
1.900000000000e-03 0.000000000000e+00 0.000000000000e+00
1.920000000000e-03 0.000000000000e+00 0.000000000000e+00
1.940000000000e-03 0.000000000000e+00 0.000000000000e+00
1.960000000000e-03 0.000000000000e+00 0.000000000000e+00
1.980000000000e-03 0.000000000000e+00 0.000000000000e+00
2.000000000000e-03 0.000000000000e+00 0.000000000000e+00
CELLS 100 300
2 0 1
2 1 2
2 2 3
2 3 4
2 4 5
2 5 6
2 6 7
2 7 8
2 8 9
2 9 10
2 10 11
2 11 12
2 12 13
2 13 14
2 14 15
2 15 16
2 16 17
2 17 18
2 18 19
2 19 20
2 20 21
2 21 22
2 22 23
2 23 24
2 24 25
2 25 26
2 26 27
2 27 28
2 28 29
2 29 30
2 30 31
2 31 32
2 32 33
2 33 34
2 34 35
2 35 36
2 36 37
2 37 38
2 38 39
2 39 40
2 40 41
2 41 42
2 42 43
2 43 44
2 44 45
2 45 46
2 46 47
2 47 48
2 48 49
2 49 50
2 50 51
2 51 52
2 52 53
2 53 54
2 54 55
2 55 56
2 56 57
2 57 58
2 58 59
2 59 60
2 60 61
2 61 62
2 62 63
2 63 64
2 64 65
2 65 66
2 66 67
2 67 68
2 68 69
2 69 70
2 70 71
2 71 72
2 72 73
2 73 74
2 74 75
2 75 76
2 76 77
2 77 78
2 78 79
2 79 80
2 80 81
2 81 82
2 82 83
2 83 84
2 84 85
2 85 86
2 86 87
2 87 88
2 88 89
2 89 90
2 90 91
2 91 92
2 92 93
2 93 94
2 94 95
2 95 96
2 96 97
2 97 98
2 98 99
2 99 100

CELL_TYPES 100
3
3
3
3
3
3
3
3
3
3
3
3
3
3
3
3
3
3
3
3
3
3
3
3
3
3
3
3
3
3
3
3
3
3
3
3
3
3
3
3
3
3
3
3
3
3
3
3
3
3
3
3
3
3
3
3
3
3
3
3
3
3
3
3
3
3
3
3
3
3
3
3
3
3
3
3
3
3
3
3
3
3
3
3
3
3
3
3
3
3
3
3
3
3
3
3
3
3
3
3

POINT_DATA 101
SCALARS HEAD double 1
LOOKUP_TABLE default
1.000000000000e+01
1.000000000000e+01
1.000000000000e+01
1.000000000000e+01
1.000000000000e+01
1.000000000000e+01
1.000000000000e+01
1.000000000000e+01
1.000000000000e+01
1.000000000000e+01
1.000000000000e+01
1.000000000000e+01
1.000000000000e+01
1.000000000000e+01
1.000000000000e+01
1.000000000000e+01
1.000000000000e+01
1.000000000000e+01
1.000000000000e+01
1.000000000000e+01
1.000000000000e+01
1.000000000000e+01
1.000000000000e+01
1.000000000000e+01
1.000000000000e+01
1.000000000000e+01
1.000000000000e+01
1.000000000000e+01
1.000000000000e+01
1.000000000000e+01
1.000000000000e+01
1.000000000000e+01
1.000000000000e+01
1.000000000000e+01
1.000000000000e+01
1.000000000000e+01
1.000000000000e+01
1.000000000000e+01
1.000000000000e+01
1.000000000000e+01
1.000000000000e+01
1.000000000000e+01
1.000000000000e+01
1.000000000000e+01
1.000000000000e+01
1.000000000000e+01
1.000000000000e+01
1.000000000000e+01
1.000000000000e+01
1.000000000000e+01
1.000000000000e+01
1.000000000000e+01
1.000000000000e+01
1.000000000000e+01
1.000000000000e+01
1.000000000000e+01
1.000000000000e+01
1.000000000000e+01
1.000000000000e+01
1.000000000000e+01
1.000000000000e+01
1.000000000000e+01
1.000000000000e+01
1.000000000000e+01
1.000000000000e+01
1.000000000000e+01
1.000000000000e+01
1.000000000000e+01
1.000000000000e+01
1.000000000000e+01
1.000000000000e+01
1.000000000000e+01
1.000000000000e+01
1.000000000000e+01
1.000000000000e+01
1.000000000000e+01
1.000000000000e+01
1.000000000000e+01
1.000000000000e+01
1.000000000000e+01
1.000000000000e+01
1.000000000000e+01
1.000000000000e+01
1.000000000000e+01
1.000000000000e+01
1.000000000000e+01
1.000000000000e+01
1.000000000000e+01
1.000000000000e+01
1.000000000000e+01
1.000000000000e+01
1.000000000000e+01
1.000000000000e+01
1.000000000000e+01
1.000000000000e+01
1.000000000000e+01
1.000000000000e+01
1.000000000000e+01
1.000000000000e+01
1.000000000000e+01
1.000000000000e+01
SCALARS 1-Ael double 1
LOOKUP_TABLE default
1.448038379038e+00
1.452808575022e+00
1.444956609813e+00
1.437183055761e+00
1.429491424793e+00
1.421884950248e+00
1.414366578590e+00
1.406938986996e+00
1.399604568576e+00
1.392365439891e+00
1.385223484555e+00
1.378180340075e+00
1.371237396395e+00
1.364395818068e+00
1.357656554990e+00
1.351020363320e+00
1.344487806214e+00
1.338059244150e+00
1.331734876731e+00
1.325514744331e+00
1.319398736292e+00
1.313386603697e+00
1.307477958368e+00
1.301672293854e+00
1.295969001943e+00
1.290367382570e+00
1.284866633911e+00
1.279465861437e+00
1.274164102541e+00
1.268960326393e+00
1.263853431624e+00
1.258842270589e+00
1.253925646711e+00
1.249102320394e+00
1.244371014763e+00
1.239730420855e+00
1.235179202731e+00
1.230716001405e+00
1.226339439261e+00
1.222048124640e+00
1.217840654915e+00
1.213715619994e+00
1.209671599071e+00
1.205707175867e+00
1.201820941767e+00
1.198011484765e+00
1.194277392724e+00
1.190617266786e+00
1.187029723395e+00
1.183513378186e+00
1.180066864650e+00
1.176688835769e+00
1.173377947991e+00
1.170132878759e+00
1.166952322731e+00
1.163834991229e+00
1.160779614395e+00
1.157784931273e+00
1.154849714288e+00
1.151972755663e+00
1.149152857648e+00
1.146388851662e+00
1.143679585106e+00
1.141023925317e+00
1.138420768576e+00
1.135869019217e+00
1.133367601790e+00
1.130915469898e+00
1.128511593242e+00
1.126154961857e+00
1.123844582387e+00
1.121579485027e+00
1.119358720198e+00
1.117181357366e+00
1.115046485769e+00
1.112953213278e+00
1.110900667042e+00
1.108887992347e+00
1.106914353054e+00
1.104978930634e+00
1.103080927557e+00
1.101219557417e+00
1.099394053751e+00
1.097603667317e+00
1.095847664901e+00
1.094125332377e+00
1.092435965861e+00
1.090778879589e+00
1.089153403305e+00
1.087558881304e+00
1.085994675134e+00
1.084460155541e+00
1.082954709606e+00
1.081477740601e+00
1.080028662576e+00
1.078606898146e+00
1.077211889603e+00
1.075843091987e+00
1.074499969586e+00
1.073181999207e+00
1.070357389076e+00
SCALARS 2-Bel double 1
LOOKUP_TABLE default
5.519616209621e-01
5.471914244931e-01
5.550433888276e-01
5.628169420479e-01
5.705085722187e-01
5.781150460022e-01
5.856334169394e-01
5.930610078481e-01
6.003954256254e-01
6.076345537038e-01
6.147765084684e-01
6.218196524189e-01
6.287625956072e-01
6.356041734753e-01
6.423434361324e-01
6.489796274155e-01
6.555121841704e-01
6.619407459186e-01
6.682651130543e-01
6.744852452042e-01
6.806012530234e-01
6.866133854285e-01
6.925220305989e-01
6.983276949794e-01
7.040309867840e-01
7.096326060781e-01
7.151333546832e-01
7.205341271245e-01
7.258358860131e-01
7.310396621750e-01
7.361465569763e-01
7.411577180635e-01
7.460743420117e-01
7.508976684158e-01
7.556289741503e-01
7.602695681766e-01
7.648207864324e-01
7.692839879028e-01
7.736605502036e-01
7.779518649913e-01
7.821593348939e-01
7.862843700021e-01
7.903283911192e-01
7.942928145252e-01
7.981790488338e-01
8.019885060498e-01
8.057225983098e-01
8.093827244724e-01
8.129702680905e-01
8.164866135303e-01
8.199331272990e-01
8.233111564151e-01
8.266220444285e-01
8.298671138978e-01
8.330476701618e-01
8.361650019015e-01
8.392203789712e-01
8.422150623287e-01
8.451502795465e-01
8.480272384029e-01
8.508471366468e-01
8.536111428598e-01
8.563204096406e-01
8.589760696504e-01
8.615792266081e-01
8.641309761813e-01
8.666323938184e-01
8.690845259172e-01
8.714884027757e-01
8.738450343577e-01
8.761554140220e-01
8.784205115708e-01
8.806412765843e-01
8.828186395956e-01
8.849535113679e-01
8.870467840284e-01
8.890993304302e-01
8.911120052849e-01
8.930856447332e-01
8.950210673042e-01
8.969190705267e-01
8.987804408073e-01
9.006059446090e-01
9.023963311740e-01
9.041523337155e-01
9.058746663612e-01
9.075640329932e-01
9.092211193768e-01
9.108465957683e-01
9.124411178720e-01
9.140053241401e-01
9.155398438262e-01
9.170452898504e-01
9.185222589409e-01
9.199713370472e-01
9.213931015533e-01
9.227881101690e-01
9.241569078547e-01
9.255000303211e-01
9.268180007611e-01
9.296426109238e-01
SCALARS 3-H double 1
LOOKUP_TABLE default
1.994509163545e-04
1.994500560635e-04
1.995334812047e-04
1.994500762614e-04
1.994500878878e-04
1.995318237495e-04
1.994500567614e-04
1.994500961475e-04
1.994500878315e-04
1.995317153456e-04
1.995324541715e-04
1.995315268252e-04
1.994500791723e-04
1.995324864204e-04
1.995321541920e-04
1.994501232277e-04
1.995321723261e-04
1.994501061708e-04
1.994501106881e-04
1.994501073062e-04
1.994501138507e-04
1.995319316435e-04
1.995322893004e-04
1.995318408043e-04
1.994501013001e-04
1.995314208549e-04
1.995319150967e-04
1.995315770419e-04
1.994500955785e-04
1.994501202722e-04
1.995317397482e-04
1.994501277363e-04
1.994501413069e-04
1.995317315759e-04
1.995320694505e-04
1.995316505058e-04
1.995314766969e-04
1.995316105566e-04
1.994501347615e-04
1.994501169310e-04
1.994501340890e-04
1.994501418069e-04
1.994501463058e-04
1.995315177009e-04
1.994501379347e-04
1.995316735680e-04
1.994501353190e-04
1.995314421276e-04
1.995315619175e-04
1.994501410573e-04
1.995314403718e-04
1.995315487079e-04
1.995315398034e-04
1.995315855828e-04
1.994501361756e-04
1.994501261753e-04
1.995320084033e-04
1.995314280859e-04
1.994501386568e-04
1.995316074336e-04
1.995315608910e-04
1.995314913122e-04
1.994501275357e-04
1.994501561881e-04
1.994501501742e-04
1.995319495107e-04
1.994501536644e-04
1.994501513149e-04
1.995314879204e-04
1.994501532404e-04
1.995315006901e-04
1.994501508496e-04
1.995317073737e-04
1.994501588815e-04
1.995315039793e-04
1.994501514307e-04
1.995318815315e-04
1.995315041206e-04
1.994501706920e-04
1.994501443973e-04
1.995314256590e-04
1.994501414197e-04
1.994501547144e-04
1.995318014051e-04
1.994501483243e-04
1.994501561747e-04
1.994501547797e-04
1.995314534994e-04
1.995316909155e-04
1.995314253767e-04
1.995314799288e-04
1.994501707035e-04
1.994501379722e-04
1.995314968056e-04
1.995316056699e-04
1.994501363098e-04
1.995314278623e-04
1.995318385620e-04
1.995317630096e-04
1.994501432226e-04
1.994499886698e-04
SCALARS 4-Inrt double 1
LOOKUP_TABLE default
0.000000000000e+00
0.000000000000e+00
0.000000000000e+00
0.000000000000e+00
0.000000000000e+00
0.000000000000e+00
0.000000000000e+00
0.000000000000e+00
0.000000000000e+00
0.000000000000e+00
0.000000000000e+00
0.000000000000e+00
0.000000000000e+00
0.000000000000e+00
0.000000000000e+00
0.000000000000e+00
0.000000000000e+00
0.000000000000e+00
0.000000000000e+00
0.000000000000e+00
0.000000000000e+00
0.000000000000e+00
0.000000000000e+00
0.000000000000e+00
0.000000000000e+00
0.000000000000e+00
0.000000000000e+00
0.000000000000e+00
0.000000000000e+00
0.000000000000e+00
0.000000000000e+00
0.000000000000e+00
0.000000000000e+00
0.000000000000e+00
0.000000000000e+00
0.000000000000e+00
0.000000000000e+00
0.000000000000e+00
0.000000000000e+00
0.000000000000e+00
0.000000000000e+00
0.000000000000e+00
0.000000000000e+00
0.000000000000e+00
0.000000000000e+00
0.000000000000e+00
0.000000000000e+00
0.000000000000e+00
0.000000000000e+00
0.000000000000e+00
0.000000000000e+00
0.000000000000e+00
0.000000000000e+00
0.000000000000e+00
0.000000000000e+00
0.000000000000e+00
0.000000000000e+00
0.000000000000e+00
0.000000000000e+00
0.000000000000e+00
0.000000000000e+00
0.000000000000e+00
0.000000000000e+00
0.000000000000e+00
0.000000000000e+00
0.000000000000e+00
0.000000000000e+00
0.000000000000e+00
0.000000000000e+00
0.000000000000e+00
0.000000000000e+00
0.000000000000e+00
0.000000000000e+00
0.000000000000e+00
0.000000000000e+00
0.000000000000e+00
0.000000000000e+00
0.000000000000e+00
0.000000000000e+00
0.000000000000e+00
0.000000000000e+00
0.000000000000e+00
0.000000000000e+00
0.000000000000e+00
0.000000000000e+00
0.000000000000e+00
0.000000000000e+00
0.000000000000e+00
0.000000000000e+00
0.000000000000e+00
0.000000000000e+00
0.000000000000e+00
0.000000000000e+00
0.000000000000e+00
0.000000000000e+00
0.000000000000e+00
0.000000000000e+00
0.000000000000e+00
0.000000000000e+00
0.000000000000e+00
0.000000000000e+00
SCALARS 5-O double 1
LOOKUP_TABLE default
1.009972554693e-02
1.009059760092e-02
1.007430666697e-02
1.005863083948e-02
1.004371065457e-02
1.002955694571e-02
1.001605510179e-02
1.000333254563e-02
9.991349966312e-03
9.980146744778e-03
9.969637638606e-03
9.959855486247e-03
9.950752038308e-03
9.942438451368e-03
9.934778479763e-03
9.927758159375e-03
9.921484230061e-03
9.915775208518e-03
9.910735634040e-03
9.906304903277e-03
9.902462744084e-03
9.899228980480e-03
9.896500430744e-03
9.894295446430e-03
9.892551520651e-03
9.891368319580e-03
9.890601482960e-03
9.890268438470e-03
9.890306569892e-03
9.890775034104e-03
9.891651783074e-03
9.892792782270e-03
9.894299009643e-03
9.896149618956e-03
9.898242650916e-03
9.900598281498e-03
9.903197608104e-03
9.906021720710e-03
9.909011224229e-03
9.912229962246e-03
9.915619916527e-03
9.919164567301e-03
9.922847925010e-03
9.926695418241e-03
9.930570223440e-03
9.934621078737e-03
9.938671559369e-03
9.942871820178e-03
9.947087581961e-03
9.951307095675e-03
9.955641441974e-03
9.959958238480e-03
9.964288173862e-03
9.968622038778e-03
9.972910345289e-03
9.977226285855e-03
9.981562414521e-03
9.985829470261e-03
9.990021509436e-03
9.994254078963e-03
9.998399320159e-03
1.000249261634e-02
1.000648849589e-02
1.001046378461e-02
1.001437367111e-02
1.001825538167e-02
1.002198291814e-02
1.002567592995e-02
1.002933155796e-02
1.003282545253e-02
1.003631831636e-02
1.003964560511e-02
1.004296869954e-02
1.004612339205e-02
1.004927168615e-02
1.005225003614e-02
1.005522088519e-02
1.005806123308e-02
1.006077161340e-02
1.006343321568e-02
1.006604623997e-02
1.006848924659e-02
1.007088458522e-02
1.007323323294e-02
1.007541345473e-02
1.007754869572e-02
1.007959921062e-02
1.008160676441e-02
1.008349145808e-02
1.008529489133e-02
1.008701881946e-02
1.008862395494e-02
1.009019315383e-02
1.009172797992e-02
1.009314881694e-02
1.009445725399e-02
1.009577706404e-02
1.009698821008e-02
1.009813269427e-02
1.009917179433e-02
1.009972507400e-02
SCALARS 6-Zz double 1
LOOKUP_TABLE default
0.000000000000e+00
0.000000000000e+00
0.000000000000e+00
0.000000000000e+00
0.000000000000e+00
0.000000000000e+00
0.000000000000e+00
0.000000000000e+00
0.000000000000e+00
0.000000000000e+00
0.000000000000e+00
0.000000000000e+00
0.000000000000e+00
0.000000000000e+00
0.000000000000e+00
0.000000000000e+00
0.000000000000e+00
0.000000000000e+00
0.000000000000e+00
0.000000000000e+00
0.000000000000e+00
0.000000000000e+00
0.000000000000e+00
0.000000000000e+00
0.000000000000e+00
0.000000000000e+00
0.000000000000e+00
0.000000000000e+00
0.000000000000e+00
0.000000000000e+00
0.000000000000e+00
0.000000000000e+00
0.000000000000e+00
0.000000000000e+00
0.000000000000e+00
0.000000000000e+00
0.000000000000e+00
0.000000000000e+00
0.000000000000e+00
0.000000000000e+00
0.000000000000e+00
0.000000000000e+00
0.000000000000e+00
0.000000000000e+00
0.000000000000e+00
0.000000000000e+00
0.000000000000e+00
0.000000000000e+00
0.000000000000e+00
0.000000000000e+00
0.000000000000e+00
0.000000000000e+00
0.000000000000e+00
0.000000000000e+00
0.000000000000e+00
0.000000000000e+00
0.000000000000e+00
0.000000000000e+00
0.000000000000e+00
0.000000000000e+00
0.000000000000e+00
0.000000000000e+00
0.000000000000e+00
0.000000000000e+00
0.000000000000e+00
0.000000000000e+00
0.000000000000e+00
0.000000000000e+00
0.000000000000e+00
0.000000000000e+00
0.000000000000e+00
0.000000000000e+00
0.000000000000e+00
0.000000000000e+00
0.000000000000e+00
0.000000000000e+00
0.000000000000e+00
0.000000000000e+00
0.000000000000e+00
0.000000000000e+00
0.000000000000e+00
0.000000000000e+00
0.000000000000e+00
0.000000000000e+00
0.000000000000e+00
0.000000000000e+00
0.000000000000e+00
0.000000000000e+00
0.000000000000e+00
0.000000000000e+00
0.000000000000e+00
0.000000000000e+00
0.000000000000e+00
0.000000000000e+00
0.000000000000e+00
0.000000000000e+00
0.000000000000e+00
0.000000000000e+00
0.000000000000e+00
0.000000000000e+00
0.000000000000e+00
SCALARS Ael double 1
LOOKUP_TABLE default
 1.448038408463e-03
 1.100642025100e-03
 1.164949934578e-03
 1.233249516725e-03
 1.305790440779e-03
 1.382838010726e-03
 1.464674294668e-03
 1.551599330595e-03
 1.643931663856e-03
 1.742010408545e-03
 1.846196112213e-03
 1.956871772448e-03
 2.074444735315e-03
 2.199348073236e-03
 2.332042209735e-03
 2.473016835131e-03
 2.622792195304e-03
 2.781921372954e-03
 2.950992997981e-03
 3.130632042123e-03
 3.321503807046e-03
 3.524314744384e-03
 3.739816593235e-03
 3.968808118178e-03
 4.212139254801e-03
 4.470712929440e-03
 4.745489335316e-03
 5.037489055548e-03
 5.347797996835e-03
 5.677569526442e-03
 6.028030774361e-03
 6.400486112981e-03
 6.796322340120e-03
 7.217013888909e-03
 7.664128381159e-03
 8.139332500092e-03
 8.644398291849e-03
 9.181209742044e-03
 9.751769991635e-03
 1.035820875805e-02
 1.100279039339e-02
 1.168792238569e-02
 1.241616391769e-02
 1.319023743144e-02
 1.401303602266e-02
 1.488763617653e-02
 1.581730833126e-02
 1.680553139857e-02
 1.785600255331e-02
 1.897265266811e-02
 2.015966312621e-02
 2.142147776835e-02
 2.276282133552e-02
 2.418871960913e-02
 2.570451313434e-02
 2.731588337666e-02
 2.902886785042e-02
 3.084988751794e-02
 3.278577213466e-02
 3.484377807461e-02
 3.703162427795e-02
 3.935751804196e-02
 4.183018267423e-02
 4.445889751615e-02
 4.725352677265e-02
 5.022455497915e-02
 5.338313707052e-02
 5.674112878752e-02
 6.031113707899e-02
 6.410656644940e-02
 6.814166784118e-02
 7.243159833850e-02
 7.699246770966e-02
 8.184141135614e-02
 8.699664209812e-02
 9.247753196993e-02
 9.830467145460e-02
 1.044999612469e-01
 1.110866798695e-01
 1.180895869420e-01
 1.255350024032e-01
 1.334509110864e-01
 1.418670759350e-01
 1.508151332221e-01
 1.603287312256e-01
 1.704436395846e-01
 1.811978909842e-01
 1.926319335722e-01
 2.047887629567e-01
 2.177141080445e-01
 2.314565818489e-01
 2.460678732079e-01
 2.616029528518e-01
 2.781202592242e-01
 2.956819325625e-01
 3.143540365238e-01
 3.342068475584e-01
 3.553150424613e-01
 3.777580686904e-01
 4.016203593914e-01
 4.552566468889e-01
SCALARS Bel double 1
LOOKUP_TABLE default
 5.519616321781e-04
 1.018718800435e-03
 1.081187051760e-03
 1.147545418818e-03
 1.218040114659e-03
 1.292933052012e-03
 1.372502696546e-03
 1.457044969235e-03
 1.546874950461e-03
 1.642327202122e-03
 1.743757437261e-03
 1.851544198296e-03
 1.966089823969e-03
 2.087822118221e-03
 2.217195965127e-03
 2.354694857926e-03
 2.500833273088e-03
 2.656158283718e-03
 2.821250990448e-03
 2.996730130224e-03
 3.183252770395e-03
 3.381518467281e-03
 3.592270422479e-03
 3.816299373769e-03
 4.054445434914e-03
 4.307602640071e-03
 4.576721434843e-03
 4.862812748805e-03
 5.166950712889e-03
 5.490278657951e-03
 5.834011463057e-03
 6.199441274127e-03
 6.587942101407e-03
 7.000975009370e-03
 7.440093621538e-03
 7.906950006049e-03
 8.403300876875e-03
 8.931014311561e-03
 9.492076671294e-03
 1.008860021089e-02
 1.072283100284e-02
 1.139715743096e-02
 1.211411970162e-02
 1.287641749392e-02
 1.368692299642e-02
 1.454868989566e-02
 1.546496591268e-02
 1.643920284517e-02
 1.747507289564e-02
 1.857648100749e-02
 1.974757758230e-02
 2.099277793171e-02
 2.231677722187e-02
 2.372456583433e-02
 2.522145339121e-02
 2.681308273731e-02
 2.850545749159e-02
 3.030496003047e-02
 3.221837439747e-02
 3.425291978931e-02
 3.641626916725e-02
 3.871658148042e-02
 4.116253569896e-02
 4.376335638305e-02
 4.652885459905e-02
 4.946946661410e-02
 5.259628268260e-02
 5.592110049133e-02
 5.945646391360e-02
 6.321571146673e-02
 6.721302823477e-02
 7.146349335325e-02
 7.598314744146e-02
 8.078904084541e-02
 8.589931071468e-02
 9.133323623277e-02
 9.711132507944e-02
 1.032553765919e-01
 1.097885788817e-01
 1.167355807291e-01
 1.241225986113e-01
 1.319775101751e-01
 1.403299516058e-01
 1.492114463245e-01
 1.586555044093e-01
 1.686977664084e-01
 1.793761308555e-01
 1.907308880970e-01
 2.028048926620e-01
 2.156437010619e-01
 2.292957651133e-01
 2.438126061372e-01
 2.592489979783e-01
 2.756631949047e-01
 2.931171374448e-01
 3.116766985299e-01
 3.314118915065e-01
 3.523972114647e-01
 3.747118272830e-01
 3.984399645745e-01
 3.954062280259e-01
SCALARS H double 1
LOOKUP_TABLE default
 1.106904901085e+02
 1.001319564357e+01
 1.041871740823e+01
 1.084972103341e+01
 1.130770700159e+01
 1.179423881032e+01
 1.231098216895e+01
 1.285975130378e+01
 1.344235744574e+01
 1.406084934924e+01
 1.471741376183e+01
 1.541428683833e+01
 1.615389237907e+01
 1.693880890478e+01
 1.777177929673e+01
 1.865577985132e+01
 1.959386109416e+01
 2.058925732347e+01
 2.164560758792e+01
 2.276650753452e+01
 2.395606610986e+01
 2.521835516375e+01
 2.655793193610e+01
 2.797947873534e+01
 2.948823265912e+01
 3.108950642081e+01
 3.278902949682e+01
 3.459278564032e+01
 3.650746678460e+01
 3.853973094919e+01
 4.069701063663e+01
 4.298708790132e+01
 4.541823589340e+01
 4.799924880671e+01
 5.073947983909e+01
 5.364886741012e+01
 5.673798881967e+01
 6.001806015149e+01
 6.350104036393e+01
 6.719962407416e+01
 7.112731297719e+01
 7.529845976474e+01
 7.972806304626e+01
 8.443283788760e+01
 8.942979085285e+01
 9.473725338970e+01
 1.003743998569e+02
 1.063625718257e+02
 1.127234966216e+02
 1.194802088370e+02
 1.266583640023e+02
 1.342840732072e+02
 1.423850038063e+02
 1.509919985572e+02
 1.601358900630e+02
 1.698515273962e+02
 1.801737959658e+02
 1.911408390868e+02
 2.027951148746e+02
 2.151780113418e+02
 2.283360751063e+02
 2.423189288560e+02
 2.571769959891e+02
 2.729671079094e+02
 2.897481207757e+02
 3.075796773783e+02
 3.265309324486e+02
 3.466715235638e+02
 3.680764742166e+02
 3.908255759966e+02
 4.150022863618e+02
 4.406993979742e+02
 4.680100092391e+02
 4.970389763537e+02
 5.278915907199e+02
 5.606863598978e+02
 5.955423648885e+02
 6.325935407245e+02
 6.719744642628e+02
 7.138366050188e+02
 7.583345780534e+02
 8.056321747648e+02
 8.559115668817e+02
 9.093556043828e+02
 9.661700757973e+02
 1.026565046343e+03
 1.090763288657e+03
 1.159012156305e+03
 1.231560218379e+03
 1.308687105890e+03
 1.390678302482e+03
 1.477836559843e+03
 1.570498008896e+03
 1.669005825912e+03
 1.773729642976e+03
 1.885049882063e+03
 2.003415860496e+03
 2.129238983529e+03
 2.263020704532e+03
 2.405232554543e+03
 4.708014431404e+04
SCALARS Inrt double 1
LOOKUP_TABLE default
 9.989999999797e-01
 9.989403195872e-01
 9.988769315068e-01
 9.988096025321e-01
 9.987380847221e-01
 9.986621144684e-01
 9.985814115041e-01
 9.984956778498e-01
 9.984045966925e-01
 9.983078311943e-01
 9.982050232248e-01
 9.980957920141e-01
 9.979797327198e-01
 9.978564149036e-01
 9.977253809119e-01
 9.975861441527e-01
 9.974381872650e-01
 9.972809601707e-01
 9.971138780048e-01
 9.969363189128e-01
 9.967476217101e-01
 9.965470833929e-01
 9.963339564908e-01
 9.961074462526e-01
 9.958667076536e-01
 9.956108422137e-01
 9.953388946132e-01
 9.950498490960e-01
 9.947426256433e-01
 9.944160759058e-01
 9.940689788792e-01
 9.937000363042e-01
 9.933078677769e-01
 9.928910055484e-01
 9.924478889961e-01
 9.919768587443e-01
 9.914761504129e-01
 9.909438879703e-01
 9.903780766655e-01
 9.897765955124e-01
 9.891371892986e-01
 9.884574600883e-01
 9.877348581868e-01
 9.869666725337e-01
 9.861500204867e-01
 9.852818369600e-01
 9.843588628740e-01
 9.833776328739e-01
 9.823344622712e-01
 9.812254331577e-01
 9.800463796411e-01
 9.787928721452e-01
 9.774602007164e-01
 9.760433572733e-01
 9.745370167321e-01
 9.729355169377e-01
 9.712328373236e-01
 9.694225762203e-01
 9.674979267283e-01
 9.654516510623e-01
 9.632760532715e-01
 9.609629502328e-01
 9.585036408073e-01
 9.558888730442e-01
 9.531088093078e-01
 9.501529891970e-01
 9.470102901170e-01
 9.436688853540e-01
 9.401161994971e-01
 9.363388610353e-01
 9.323226519553e-01
 9.280524541474e-01
 9.235121924176e-01
 9.186847738924e-01
 9.135520235868e-01
 9.080946158918e-01
 9.022920017262e-01
 8.961223310738e-01
 8.895623706177e-01
 8.825874161578e-01
 8.751711994862e-01
 8.672857893628e-01
 8.589014862233e-01
 8.499867102205e-01
 8.405078821765e-01
 8.304292969976e-01
 8.197129890745e-01
 8.083185891600e-01
 7.962031721855e-01
 7.833210954419e-01
 7.696238265144e-01
 7.550597603232e-01
 7.395740245811e-01
 7.231082729321e-01
 7.056004649933e-01
 6.869846324706e-01
 6.671906304655e-01
 6.461438730355e-01
 6.237650520123e-01
 5.999698380167e-01
 5.746685625425e-01
SCALARS O double 1
LOOKUP_TABLE default
 5.534525505425e+01
 5.006598725569e+00
 5.209359642964e+00
 5.424861492864e+00
 5.653854516631e+00
 5.897120463192e+00
 6.155492187368e+00
 6.429876802467e+00
 6.721179924117e+00
 7.030425929710e+00
 7.358708193214e+00
 7.707144792239e+00
 8.076947627168e+00
 8.469405958598e+00
 8.885891227415e+00
 9.327891582078e+00
 9.796932285668e+00
 1.029463048760e+01
 1.082280571251e+01
 1.138325578425e+01
 1.197803517648e+01
 1.260917981446e+01
 1.327896831858e+01
 1.398974184346e+01
 1.474411893839e+01
 1.554475596056e+01
 1.639451764868e+01
 1.729639587987e+01
 1.825373662139e+01
 1.926986888360e+01
 2.034850891845e+01
 2.149354775384e+01
 2.270912196558e+01
 2.399962865141e+01
 2.536974441108e+01
 2.682443845528e+01
 2.836899943490e+01
 3.000903539285e+01
 3.175052580937e+01
 3.359981799420e+01
 3.556366279608e+01
 3.764923656215e+01
 3.986403859852e+01
 4.221642643961e+01
 4.471490336902e+01
 4.736863511226e+01
 5.018720885044e+01
 5.318129537112e+01
 5.636175833901e+01
 5.974011505237e+01