# vtk DataFile Version 3.0
Unstructured Grid from OpenGeoSys
ASCII
DATASET UNSTRUCTURED_GRID
FIELD TimesAndCycles 2
TIME 1 1 double
1.000000000000e+04
CYLCE 1 1 long
100
POINTS 101 double
0.000000000000e+00 0.000000000000e+00 0.000000000000e+00
2.000000000000e-05 0.000000000000e+00 0.000000000000e+00
4.000000000000e-05 0.000000000000e+00 0.000000000000e+00
6.000000000000e-05 0.000000000000e+00 0.000000000000e+00
8.000000000000e-05 0.000000000000e+00 0.000000000000e+00
1.000000000000e-04 0.000000000000e+00 0.000000000000e+00
1.200000000000e-04 0.000000000000e+00 0.000000000000e+00
1.400000000000e-04 0.000000000000e+00 0.000000000000e+00
1.600000000000e-04 0.000000000000e+00 0.000000000000e+00
1.800000000000e-04 0.000000000000e+00 0.000000000000e+00
2.000000000000e-04 0.000000000000e+00 0.000000000000e+00
2.200000000000e-04 0.000000000000e+00 0.000000000000e+00
2.400000000000e-04 0.000000000000e+00 0.000000000000e+00
2.600000000000e-04 0.000000000000e+00 0.000000000000e+00
2.800000000000e-04 0.000000000000e+00 0.000000000000e+00
3.000000000000e-04 0.000000000000e+00 0.000000000000e+00
3.200000000000e-04 0.000000000000e+00 0.000000000000e+00
3.400000000000e-04 0.000000000000e+00 0.000000000000e+00
3.600000000000e-04 0.000000000000e+00 0.000000000000e+00
3.800000000000e-04 0.000000000000e+00 0.000000000000e+00
4.000000000000e-04 0.000000000000e+00 0.000000000000e+00
4.200000000000e-04 0.000000000000e+00 0.000000000000e+00
4.400000000000e-04 0.000000000000e+00 0.000000000000e+00
4.600000000000e-04 0.000000000000e+00 0.000000000000e+00
4.800000000000e-04 0.000000000000e+00 0.000000000000e+00
5.000000000000e-04 0.000000000000e+00 0.000000000000e+00
5.200000000000e-04 0.000000000000e+00 0.000000000000e+00
5.400000000000e-04 0.000000000000e+00 0.000000000000e+00
5.600000000000e-04 0.000000000000e+00 0.000000000000e+00
5.800000000000e-04 0.000000000000e+00 0.000000000000e+00
6.000000000000e-04 0.000000000000e+00 0.000000000000e+00
6.200000000000e-04 0.000000000000e+00 0.000000000000e+00
6.400000000000e-04 0.000000000000e+00 0.000000000000e+00
6.600000000000e-04 0.000000000000e+00 0.000000000000e+00
6.800000000000e-04 0.000000000000e+00 0.000000000000e+00
7.000000000000e-04 0.000000000000e+00 0.000000000000e+00
7.200000000000e-04 0.000000000000e+00 0.000000000000e+00
7.400000000000e-04 0.000000000000e+00 0.000000000000e+00
7.600000000000e-04 0.000000000000e+00 0.000000000000e+00
7.800000000000e-04 0.000000000000e+00 0.000000000000e+00
8.000000000000e-04 0.000000000000e+00 0.000000000000e+00
8.200000000000e-04 0.000000000000e+00 0.000000000000e+00
8.400000000000e-04 0.000000000000e+00 0.000000000000e+00
8.600000000000e-04 0.000000000000e+00 0.000000000000e+00
8.800000000000e-04 0.000000000000e+00 0.000000000000e+00
9.000000000000e-04 0.000000000000e+00 0.000000000000e+00
9.200000000000e-04 0.000000000000e+00 0.000000000000e+00
9.400000000000e-04 0.000000000000e+00 0.000000000000e+00
9.600000000000e-04 0.000000000000e+00 0.000000000000e+00
9.800000000000e-04 0.000000000000e+00 0.000000000000e+00
1.000000000000e-03 0.000000000000e+00 0.000000000000e+00
1.020000000000e-03 0.000000000000e+00 0.000000000000e+00
1.040000000000e-03 0.000000000000e+00 0.000000000000e+00
1.060000000000e-03 0.000000000000e+00 0.000000000000e+00
1.080000000000e-03 0.000000000000e+00 0.000000000000e+00
1.100000000000e-03 0.000000000000e+00 0.000000000000e+00
1.120000000000e-03 0.000000000000e+00 0.000000000000e+00
1.140000000000e-03 0.000000000000e+00 0.000000000000e+00
1.160000000000e-03 0.000000000000e+00 0.000000000000e+00
1.180000000000e-03 0.000000000000e+00 0.000000000000e+00
1.200000000000e-03 0.000000000000e+00 0.000000000000e+00
1.220000000000e-03 0.000000000000e+00 0.000000000000e+00
1.240000000000e-03 0.000000000000e+00 0.000000000000e+00
1.260000000000e-03 0.000000000000e+00 0.000000000000e+00
1.280000000000e-03 0.000000000000e+00 0.000000000000e+00
1.300000000000e-03 0.000000000000e+00 0.000000000000e+00
1.320000000000e-03 0.000000000000e+00 0.000000000000e+00
1.340000000000e-03 0.000000000000e+00 0.000000000000e+00
1.360000000000e-03 0.000000000000e+00 0.000000000000e+00
1.380000000000e-03 0.000000000000e+00 0.000000000000e+00
1.400000000000e-03 0.000000000000e+00 0.000000000000e+00
1.420000000000e-03 0.000000000000e+00 0.000000000000e+00
1.440000000000e-03 0.000000000000e+00 0.000000000000e+00
1.460000000000e-03 0.000000000000e+00 0.000000000000e+00
1.480000000000e-03 0.000000000000e+00 0.000000000000e+00
1.500000000000e-03 0.000000000000e+00 0.000000000000e+00
1.520000000000e-03 0.000000000000e+00 0.000000000000e+00
1.540000000000e-03 0.000000000000e+00 0.000000000000e+00
1.560000000000e-03 0.000000000000e+00 0.000000000000e+00
1.580000000000e-03 0.000000000000e+00 0.000000000000e+00
1.600000000000e-03 0.000000000000e+00 0.000000000000e+00
1.620000000000e-03 0.000000000000e+00 0.000000000000e+00
1.640000000000e-03 0.000000000000e+00 0.000000000000e+00
1.660000000000e-03 0.000000000000e+00 0.000000000000e+00
1.680000000000e-03 0.000000000000e+00 0.000000000000e+00
1.700000000000e-03 0.000000000000e+00 0.000000000000e+00
1.720000000000e-03 0.000000000000e+00 0.000000000000e+00
1.740000000000e-03 0.000000000000e+00 0.000000000000e+00
1.760000000000e-03 0.000000000000e+00 0.000000000000e+00
1.780000000000e-03 0.000000000000e+00 0.000000000000e+00
1.800000000000e-03 0.000000000000e+00 0.000000000000e+00
1.820000000000e-03 0.000000000000e+00 0.000000000000e+00
1.840000000000e-03 0.000000000000e+00 0.000000000000e+00
1.860000000000e-03 0.000000000000e+00 0.000000000000e+00
1.880000000000e-03 0.000000000000e+00 0.000000000000e+00
1.900000000000e-03 0.000000000000e+00 0.000000000000e+00
1.920000000000e-03 0.000000000000e+00 0.000000000000e+00
1.940000000000e-03 0.000000000000e+00 0.000000000000e+00
1.960000000000e-03 0.000000000000e+00 0.000000000000e+00
1.980000000000e-03 0.000000000000e+00 0.000000000000e+00
2.000000000000e-03 0.000000000000e+00 0.000000000000e+00
CELLS 100 300
2 0 1
2 1 2
2 2 3
2 3 4
2 4 5
2 5 6
2 6 7
2 7 8
2 8 9
2 9 10
2 10 11
2 11 12
2 12 13
2 13 14
2 14 15
2 15 16
2 16 17
2 17 18
2 18 19
2 19 20
2 20 21
2 21 22
2 22 23
2 23 24
2 24 25
2 25 26
2 26 27
2 27 28
2 28 29
2 29 30
2 30 31
2 31 32
2 32 33
2 33 34
2 34 35
2 35 36
2 36 37
2 37 38
2 38 39
2 39 40
2 40 41
2 41 42
2 42 43
2 43 44
2 44 45
2 45 46
2 46 47
2 47 48
2 48 49
2 49 50
2 50 51
2 51 52
2 52 53
2 53 54
2 54 55
2 55 56
2 56 57
2 57 58
2 58 59
2 59 60
2 60 61
2 61 62
2 62 63
2 63 64
2 64 65
2 65 66
2 66 67
2 67 68
2 68 69
2 69 70
2 70 71
2 71 72
2 72 73
2 73 74
2 74 75
2 75 76
2 76 77
2 77 78
2 78 79
2 79 80
2 80 81
2 81 82
2 82 83
2 83 84
2 84 85
2 85 86
2 86 87
2 87 88
2 88 89
2 89 90
2 90 91
2 91 92
2 92 93
2 93 94
2 94 95
2 95 96
2 96 97
2 97 98
2 98 99
2 99 100

CELL_TYPES 100
3
3
3
3
3
3
3
3
3
3
3
3
3
3
3
3
3
3
3
3
3
3
3
3
3
3
3
3
3
3
3
3
3
3
3
3
3
3
3
3
3
3
3
3
3
3
3
3
3
3
3
3
3
3
3
3
3
3
3
3
3
3
3
3
3
3
3
3
3
3
3
3
3
3
3
3
3
3
3
3
3
3
3
3
3
3
3
3
3
3
3
3
3
3
3
3
3
3
3
3

POINT_DATA 101
SCALARS HEAD double 1
LOOKUP_TABLE default
1.000000000000e+01
1.000000000000e+01
1.000000000000e+01
1.000000000000e+01
1.000000000000e+01
1.000000000000e+01
1.000000000000e+01
1.000000000000e+01
1.000000000000e+01
1.000000000000e+01
1.000000000000e+01
1.000000000000e+01
1.000000000000e+01
1.000000000000e+01
1.000000000000e+01
1.000000000000e+01
1.000000000000e+01
1.000000000000e+01
1.000000000000e+01
1.000000000000e+01
1.000000000000e+01
1.000000000000e+01
1.000000000000e+01
1.000000000000e+01
1.000000000000e+01
1.000000000000e+01
1.000000000000e+01
1.000000000000e+01
1.000000000000e+01
1.000000000000e+01
1.000000000000e+01
1.000000000000e+01
1.000000000000e+01
1.000000000000e+01
1.000000000000e+01
1.000000000000e+01
1.000000000000e+01
1.000000000000e+01
1.000000000000e+01
1.000000000000e+01
1.000000000000e+01
1.000000000000e+01
1.000000000000e+01
1.000000000000e+01
1.000000000000e+01
1.000000000000e+01
1.000000000000e+01
1.000000000000e+01
1.000000000000e+01
1.000000000000e+01
1.000000000000e+01
1.000000000000e+01
1.000000000000e+01
1.000000000000e+01
1.000000000000e+01
1.000000000000e+01
1.000000000000e+01
1.000000000000e+01
1.000000000000e+01
1.000000000000e+01
1.000000000000e+01
1.000000000000e+01
1.000000000000e+01
1.000000000000e+01
1.000000000000e+01
1.000000000000e+01
1.000000000000e+01
1.000000000000e+01
1.000000000000e+01
1.000000000000e+01
1.000000000000e+01
1.000000000000e+01
1.000000000000e+01
1.000000000000e+01
1.000000000000e+01
1.000000000000e+01
1.000000000000e+01
1.000000000000e+01
1.000000000000e+01
1.000000000000e+01
1.000000000000e+01
1.000000000000e+01
1.000000000000e+01
1.000000000000e+01
1.000000000000e+01
1.000000000000e+01
1.000000000000e+01
1.000000000000e+01
1.000000000000e+01
1.000000000000e+01
1.000000000000e+01
1.000000000000e+01
1.000000000000e+01
1.000000000000e+01
1.000000000000e+01
1.000000000000e+01
1.000000000000e+01
1.000000000000e+01
1.000000000000e+01
1.000000000000e+01
1.000000000000e+01
SCALARS 1-Ael double 1
LOOKUP_TABLE default
1.448038379038e+00
1.452808577226e+00
1.444956616592e+00
1.437183067064e+00
1.429491440550e+00
1.421884970384e+00
1.414366603014e+00
1.406939015609e+00
1.399604601262e+00
1.392365476532e+00
1.385223525024e+00
1.378180384237e+00
1.371237444108e+00
1.364395869191e+00
1.357656609374e+00
1.351020420816e+00
1.344487856791e+00
1.338059287541e+00
1.331734923221e+00
1.325514793759e+00
1.319398788482e+00
1.313386658323e+00
1.307478015113e+00
1.301672352585e+00
1.295969062863e+00
1.290367445695e+00
1.284866698753e+00
1.279465927665e+00
1.274164162091e+00
1.268960379271e+00
1.263853486310e+00
1.258842327070e+00
1.253925704795e+00
1.249102379909e+00
1.244371075567e+00
1.239730482762e+00
1.235179265714e+00
1.230716065177e+00
1.226339503690e+00
1.222048190002e+00
1.217840708396e+00
1.213715661116e+00
1.209671641341e+00
1.205707219255e+00
1.201820986174e+00
1.198011530107e+00
1.194277438976e+00
1.190617313662e+00
1.187029770660e+00
1.183513425982e+00
1.180066912911e+00
1.176688879154e+00
1.173377986485e+00
1.170132912755e+00
1.166952347323e+00
1.163835007059e+00
1.160779617315e+00
1.157784921749e+00
1.154849697699e+00
1.151972732393e+00
1.149152832335e+00
1.146388824682e+00
1.143679552055e+00
1.141023890584e+00
1.138420732673e+00
1.135868974235e+00
1.133367551816e+00
1.130915423140e+00
1.128511549557e+00
1.126154917516e+00
1.123844537263e+00
1.121579442907e+00
1.119358680902e+00
1.117181320661e+00
1.115046451531e+00
1.112953181446e+00
1.110900637493e+00
1.108887964958e+00
1.106914327716e+00
1.104978907223e+00
1.103080905927e+00
1.101219537474e+00
1.099394035462e+00
1.097603650596e+00
1.095847649668e+00
1.094125318554e+00
1.092435953376e+00
1.090778868372e+00
1.089153393289e+00
1.087558872426e+00
1.085994667334e+00
1.084460148762e+00
1.082954703793e+00
1.081477735701e+00
1.080028658540e+00
1.078606894929e+00
1.077211887158e+00
1.075843090272e+00
1.074499968560e+00
1.073181998833e+00
1.070357389076e+00
SCALARS 2-Bel double 1
LOOKUP_TABLE default
5.519616209621e-01
5.471914222873e-01
5.550433820506e-01
5.628169307490e-01
5.705085564614e-01
5.781150258656e-01
5.856333925142e-01
5.930609792372e-01
6.003953929383e-01
6.076345170620e-01
6.147764679999e-01
6.218196082574e-01
6.287625478917e-01
6.356041223511e-01
6.423433817467e-01
6.489795699194e-01
6.555121335938e-01
6.619407025294e-01
6.682650665648e-01
6.744851957760e-01
6.806012008340e-01
6.866133308030e-01
6.925219738512e-01
6.983276362489e-01
7.040309258649e-01
7.096325429547e-01
7.151332898413e-01
7.205340608972e-01
7.258358264643e-01
7.310396092974e-01
7.361465022901e-01
7.411576615838e-01
7.460742839278e-01
7.508976089015e-01
7.556289133458e-01
7.602695062691e-01
7.648207234486e-01
7.692839241310e-01
7.736604857743e-01
7.779517996295e-01
7.821592814130e-01
7.862843288787e-01
7.903283488488e-01
7.942927711371e-01
7.981790044266e-01
8.019884607073e-01
8.057225520582e-01
8.093826775966e-01
8.129702208263e-01
8.164865657338e-01
8.199330790374e-01
8.233111130295e-01
8.266220059345e-01
8.298670799017e-01
8.330476455704e-01
8.361649860713e-01
8.392203760510e-01
8.422150718522e-01
8.451502961352e-01
8.480272616726e-01
8.508471619605e-01
8.536111698403e-01
8.563204426912e-01
8.589761043833e-01
8.615792625119e-01
8.641310211636e-01
8.666324437931e-01
8.690845726749e-01
8.714884464606e-01
8.738450786990e-01
8.761554591459e-01
8.784205536910e-01
8.806413158800e-01
8.828186763005e-01
8.849535456059e-01
8.870468158610e-01
8.890993599787e-01
8.911120326744e-01
8.930856700712e-01
8.950210907147e-01
8.969190921570e-01
8.987804607499e-01
9.006059628982e-01
9.023963478949e-01
9.041523489488e-01
9.058746801837e-01
9.075640454782e-01
9.092211305941e-01
9.108466057843e-01
9.124411267498e-01
9.140053319401e-01
9.155398506057e-01
9.170452956640e-01
9.185222638406e-01
9.199713410823e-01
9.213931047710e-01
9.227881126140e-01
9.241569095696e-01
9.255000313465e-01
9.268180011354e-01
9.296426109238e-01
SCALARS 3-H double 1
LOOKUP_TABLE default
1.994509163545e-04
1.994500415863e-04
1.995315196908e-04
1.995315170380e-04
1.994500646430e-04
1.995315979985e-04
1.995316116648e-04
1.995314243990e-04
1.994500853630e-04
1.994500858204e-04
1.994500812116e-04
1.994500942302e-04
1.995314728921e-04
1.995317053064e-04
1.994501092771e-04
1.995316816049e-04
1.994501122881e-04
1.995316657314e-04
1.995316482168e-04
1.995315145849e-04
1.994501112669e-04
1.994501008831e-04
1.994501135406e-04
1.995315619222e-04
1.995316669122e-04
1.995316998571e-04
1.995315535831e-04
1.994500912739e-04
1.994501138878e-04
1.994501275666e-04
1.995314358687e-04
1.994501203940e-04
1.995314155595e-04
1.994501384931e-04
1.995317019317e-04
1.995316878186e-04
1.995315262116e-04
1.995316173443e-04
1.995316757518e-04
1.994501562771e-04
1.994501529438e-04
1.995316565317e-04
1.995315472265e-04
1.995315831045e-04
1.995314823947e-04
1.995315941672e-04
1.995314858800e-04
1.995314789461e-04
1.994501649870e-04
1.995316161065e-04
1.994501549262e-04
1.995314441096e-04
1.995315638801e-04
1.994501545351e-04
1.995316350608e-04
1.995316178720e-04
1.994501458435e-04
1.995316222075e-04
1.994501559993e-04
1.994501529206e-04
1.994501502825e-04
1.995316370180e-04
1.994501410918e-04
1.995316507343e-04
1.994501248645e-04
1.995315779441e-04
1.995316363129e-04
1.994501420169e-04
1.995315292171e-04
1.994501536303e-04
1.995314856430e-04
1.995315392922e-04
1.994501724941e-04
1.994501422058e-04
1.995316363944e-04
1.994501577891e-04
1.995315542617e-04
1.994501678439e-04
1.995315851137e-04
1.995316314965e-04
1.995315421717e-04
1.995314799036e-04
1.994501731534e-04
1.995315274211e-04
1.994501371997e-04
1.995315407950e-04
1.994501435224e-04
1.995314638944e-04
1.994501401066e-04
1.995314716493e-04
1.995315408524e-04
1.995314792112e-04
1.994501424564e-04
1.995315757028e-04
1.995316082463e-04
1.994501380244e-04
1.994501362058e-04
1.994501726972e-04
1.995315288648e-04
1.994501524192e-04
1.994499886698e-04
SCALARS 4-Inrt double 1
LOOKUP_TABLE default
0.000000000000e+00
0.000000000000e+00
0.000000000000e+00
0.000000000000e+00
0.000000000000e+00
0.000000000000e+00
0.000000000000e+00
0.000000000000e+00
0.000000000000e+00
0.000000000000e+00
0.000000000000e+00
0.000000000000e+00
0.000000000000e+00
0.000000000000e+00
0.000000000000e+00
0.000000000000e+00
0.000000000000e+00
0.000000000000e+00
0.000000000000e+00
0.000000000000e+00
0.000000000000e+00
0.000000000000e+00
0.000000000000e+00
0.000000000000e+00
0.000000000000e+00
0.000000000000e+00
0.000000000000e+00
0.000000000000e+00
0.000000000000e+00
0.000000000000e+00
0.000000000000e+00
0.000000000000e+00
0.000000000000e+00
0.000000000000e+00
0.000000000000e+00
0.000000000000e+00
0.000000000000e+00
0.000000000000e+00
0.000000000000e+00
0.000000000000e+00
0.000000000000e+00
0.000000000000e+00
0.000000000000e+00
0.000000000000e+00
0.000000000000e+00
0.000000000000e+00
0.000000000000e+00
0.000000000000e+00
0.000000000000e+00
0.000000000000e+00
0.000000000000e+00
0.000000000000e+00
0.000000000000e+00
0.000000000000e+00
0.000000000000e+00
0.000000000000e+00
0.000000000000e+00
0.000000000000e+00
0.000000000000e+00
0.000000000000e+00
0.000000000000e+00
0.000000000000e+00
0.000000000000e+00
0.000000000000e+00
0.000000000000e+00
0.000000000000e+00
0.000000000000e+00
0.000000000000e+00
0.000000000000e+00
0.000000000000e+00
0.000000000000e+00
0.000000000000e+00
0.000000000000e+00
0.000000000000e+00
0.000000000000e+00
0.000000000000e+00
0.000000000000e+00
0.000000000000e+00
0.000000000000e+00
0.000000000000e+00
0.000000000000e+00
0.000000000000e+00
0.000000000000e+00
0.000000000000e+00
0.000000000000e+00
0.000000000000e+00
0.000000000000e+00
0.000000000000e+00
0.000000000000e+00
0.000000000000e+00
0.000000000000e+00
0.000000000000e+00
0.000000000000e+00
0.000000000000e+00
0.000000000000e+00
0.000000000000e+00
0.000000000000e+00
0.000000000000e+00
0.000000000000e+00
0.000000000000e+00
0.000000000000e+00
SCALARS 5-O double 1
LOOKUP_TABLE default
1.009972554693e-02
1.009060910213e-02
1.007433781113e-02
1.005872347804e-02
1.004378136872e-02
1.002964544600e-02
1.001620147755e-02
1.000349490083e-02
9.991486802878e-03
9.980256996464e-03
9.969760722546e-03
9.959991411971e-03
9.950980830044e-03
9.942636681433e-03
9.934945802704e-03
9.928016089093e-03
9.921668331762e-03
9.916048288504e-03
9.911015084526e-03
9.906589907259e-03
9.902711888957e-03
9.899441397311e-03
9.896716098328e-03
9.894554889770e-03
9.892854013762e-03
9.891631755721e-03
9.890865586800e-03
9.890492431872e-03
9.890571223707e-03
9.891039088850e-03
9.891914692164e-03
9.893054334568e-03
9.894599363877e-03
9.896366223345e-03
9.898497215920e-03
9.900850095251e-03
9.903446181713e-03
9.906266713778e-03
9.909293220627e-03
9.912467114011e-03
9.915852808194e-03
9.919433743835e-03
9.923112444293e-03
9.926914461779e-03
9.930824955851e-03
9.934830051411e-03
9.938916104497e-03
9.943070446103e-03
9.947240183777e-03
9.951535715188e-03
9.955783272514e-03
9.960135250946e-03
9.964459776440e-03
9.968747425822e-03
9.973111746811e-03
9.977422264203e-03
9.981671287686e-03
9.985974005942e-03
9.990160615989e-03
9.994347134835e-03
9.998487179634e-03
1.000261607679e-02
1.000660679372e-02
1.001061778277e-02
1.001448198353e-02
1.001835866207e-02
1.002212236178e-02
1.002576995053e-02
1.002942104063e-02
1.003291041715e-02
1.003639887021e-02
1.003976260358e-02
1.004300007329e-02
1.004619147881e-02
1.004933588451e-02
1.005231036292e-02
1.005527732245e-02
1.005807356920e-02
1.006086187326e-02
1.006352006474e-02
1.006608917897e-02
1.006856958151e-02
1.007092122152e-02
1.007326677969e-02
1.007544433433e-02
1.007761759853e-02
1.007962479591e-02
1.008162984023e-02
1.008347137723e-02
1.008531328594e-02
1.008703507062e-02
1.008867873029e-02
1.009020526220e-02
1.009173823649e-02
1.009315726104e-02
1.009446396159e-02
1.009574148054e-02
1.009695086927e-02
1.009813465929e-02
1.009917249784e-02
1.009972507400e-02
SCALARS 6-Zz double 1
LOOKUP_TABLE default
0.000000000000e+00
0.000000000000e+00
0.000000000000e+00
0.000000000000e+00
0.000000000000e+00
0.000000000000e+00
0.000000000000e+00
0.000000000000e+00
0.000000000000e+00
0.000000000000e+00
0.000000000000e+00
0.000000000000e+00
0.000000000000e+00
0.000000000000e+00
0.000000000000e+00
0.000000000000e+00
0.000000000000e+00
0.000000000000e+00
0.000000000000e+00
0.000000000000e+00
0.000000000000e+00
0.000000000000e+00
0.000000000000e+00
0.000000000000e+00
0.000000000000e+00
0.000000000000e+00
0.000000000000e+00
0.000000000000e+00
0.000000000000e+00
0.000000000000e+00
0.000000000000e+00
0.000000000000e+00
0.000000000000e+00
0.000000000000e+00
0.000000000000e+00
0.000000000000e+00
0.000000000000e+00
0.000000000000e+00
0.000000000000e+00
0.000000000000e+00
0.000000000000e+00
0.000000000000e+00
0.000000000000e+00
0.000000000000e+00
0.000000000000e+00
0.000000000000e+00
0.000000000000e+00
0.000000000000e+00
0.000000000000e+00
0.000000000000e+00
0.000000000000e+00
0.000000000000e+00
0.000000000000e+00
0.000000000000e+00
0.000000000000e+00
0.000000000000e+00
0.000000000000e+00
0.000000000000e+00
0.000000000000e+00
0.000000000000e+00
0.000000000000e+00
0.000000000000e+00
0.000000000000e+00
0.000000000000e+00
0.000000000000e+00
0.000000000000e+00
0.000000000000e+00
0.000000000000e+00
0.000000000000e+00
0.000000000000e+00
0.000000000000e+00
0.000000000000e+00
0.000000000000e+00
0.000000000000e+00
0.000000000000e+00
0.000000000000e+00
0.000000000000e+00
0.000000000000e+00
0.000000000000e+00
0.000000000000e+00
0.000000000000e+00
0.000000000000e+00
0.000000000000e+00
0.000000000000e+00
0.000000000000e+00
0.000000000000e+00
0.000000000000e+00
0.000000000000e+00
0.000000000000e+00
0.000000000000e+00
0.000000000000e+00
0.000000000000e+00
0.000000000000e+00
0.000000000000e+00
0.000000000000e+00
0.000000000000e+00
0.000000000000e+00
0.000000000000e+00
0.000000000000e+00
0.000000000000e+00
0.000000000000e+00
SCALARS Ael double 1
LOOKUP_TABLE default
 1.448038408463e-03
 1.100642028273e-03
 1.164949938923e-03
 1.233249522253e-03
 1.305790447502e-03
 1.382838018660e-03
 1.464674303832e-03
 1.551599341009e-03
 1.643931675544e-03
 1.742010421532e-03
 1.846196126529e-03
 1.956871788124e-03
 2.074444752384e-03
 2.199348091735e-03
 2.332042229704e-03
 2.473016856612e-03
 2.622792024234e-03
 2.781921392047e-03
 2.950993018643e-03
 3.130632064403e-03
 3.321503830615e-03
 3.524314765903e-03
 3.739816616018e-03
 3.968808142919e-03
 4.212139290784e-03
 4.470712962384e-03
 4.745489365392e-03
 5.037489086102e-03
 5.347797744462e-03
 5.677569560592e-03
 6.028030810666e-03
 6.400486157058e-03
 6.796322378893e-03
 7.217013937059e-03
 7.664128423909e-03
 8.139332551053e-03
 8.644398344468e-03
 9.181209788798e-03
 9.751770048811e-03
 1.035820883442e-02
 1.100278956086e-02
 1.168792242828e-02
 1.241616396579e-02
 1.319023748636e-02
 1.401303607781e-02
 1.488763624047e-02
 1.581730840054e-02
 1.680553145054e-02
 1.785600261477e-02
 1.897265275150e-02
 2.015966319552e-02
 2.142147715314e-02
 2.276282140751e-02
 2.418871891024e-02
 2.570451242336e-02
 2.731588261467e-02
 2.902886621270e-02
 3.084988665206e-02
 3.278577121903e-02
 3.484377710354e-02
 3.703162424151e-02
 3.935751697736e-02
 4.183018151009e-02
 4.445889745139e-02
 4.725352554115e-02
 5.022455246066e-02
 5.338313693742e-02
 5.674112866019e-02
 6.031113695511e-02
 6.410656488976e-02
 6.814166770701e-02
 7.243159822196e-02
 7.699246756674e-02
 8.184141120192e-02
 8.699664196403e-02
 9.247753185483e-02
 9.830467132646e-02
 1.044999611358e-01
 1.110866797498e-01
 1.180895868271e-01
 1.255350022537e-01
 1.334509109818e-01
 1.418670758358e-01
 1.508151331292e-01
 1.603287311393e-01
 1.704436395054e-01
 1.811978909126e-01
 1.926319335087e-01
 2.047887629018e-01
 2.177141079988e-01
 2.314565818130e-01
 2.460678731824e-01
 2.616029528374e-01
 2.781202592216e-01
 2.956819325725e-01
 3.143540365471e-01
 3.342068475959e-01
 3.553150425138e-01
 3.777580687589e-01
 4.016203594768e-01
 4.552566468889e-01
SCALARS Bel double 1
LOOKUP_TABLE default
 5.519616321781e-04
 1.018718797263e-03
 1.081187047415e-03
 1.147545413290e-03
 1.218040107936e-03
 1.292933044078e-03
 1.372502687382e-03
 1.457044958821e-03
 1.546874938773e-03
 1.642327189135e-03
 1.743757422945e-03
 1.851544182620e-03
 1.966089806899e-03
 2.087822099721e-03
 2.217195945158e-03
 2.354694836445e-03
 2.500833444158e-03
 2.656158264625e-03
 2.821250969786e-03
 2.996730107944e-03
 3.183252746826e-03
 3.381518445762e-03
 3.592270399695e-03
 3.816299349029e-03
 4.054445398931e-03
 4.307602607127e-03
 4.576721404767e-03
 4.862812718251e-03
 5.166950965261e-03
 5.490278623801e-03
 5.834011426752e-03
 6.199441230050e-03
 6.587942062634e-03
 7.000974961220e-03
 7.440093578788e-03
 7.906949955088e-03
 8.403300824256e-03
 8.931014264806e-03
 9.492076614118e-03
 1.008860013452e-02
 1.072283183537e-02
 1.139715738837e-02
 1.211411965352e-02
 1.287641743901e-02
 1.368692294127e-02
 1.454868983172e-02
 1.546496584340e-02
 1.643920279320e-02
 1.747507283418e-02
 1.857648092410e-02
 1.974757751299e-02
 2.099277854691e-02
 2.231677714987e-02
 2.372456653321e-02
 2.522145410218e-02
 2.681308349930e-02
 2.850545912930e-02
 3.030496089635e-02
 3.221837531311e-02
 3.425292076038e-02
 3.641626920370e-02
 3.871658254502e-02
 4.116253686311e-02
 4.376335644781e-02
 4.652885583056e-02
 4.946946913259e-02
 5.259628281570e-02
 5.592110061866e-02
 5.945646403748e-02
 6.321571302637e-02
 6.721302836893e-02
 7.146349346979e-02
 7.598314758438e-02
 8.078904099963e-02
 8.589931084878e-02
 9.133323634787e-02
 9.711132520758e-02
 1.032553767030e-01
 1.097885790014e-01
 1.167355808439e-01
 1.241225987607e-01
 1.319775102797e-01
 1.403299517049e-01
 1.492114464175e-01
 1.586555044956e-01
 1.686977664876e-01
 1.793761309271e-01
 1.907308881605e-01
 2.028048927169e-01
 2.156437011076e-01
 2.292957651492e-01
 2.438126061627e-01
 2.592489979927e-01
 2.756631949073e-01
 2.931171374349e-01
 3.116766985066e-01
 3.314118914690e-01
 3.523972114122e-01
 3.747118272145e-01
 3.984399644891e-01
 3.954062280259e-01
SCALARS H double 1
LOOKUP_TABLE default
 1.106904901085e+02
 1.001319637038e+01
 1.041871833038e+01
 1.084972215247e+01
 1.130770831942e+01
 1.179424032911e+01
 1.231098389124e+01
 1.285975323240e+01
 1.344235958376e+01
 1.406085170006e+01
 1.471741632931e+01
 1.541428962650e+01
 1.615389539234e+01
 1.693881214776e+01
 1.777178277447e+01
 1.865578356928e+01
 1.959380324928e+01
 2.058926093239e+01
 2.164561144883e+01
 2.276651165372e+01
 2.395607036347e+01
 2.521835836857e+01
 2.655793523652e+01
 2.797948236598e+01
 2.948824004691e+01
 3.108951222052e+01
 3.278903371976e+01
 3.459278954416e+01
 3.650735696243e+01
 3.853973742624e+01
 4.069701743210e+01
 4.298709737033e+01
 4.541824240580e+01
 4.799925873447e+01
 5.073948657790e+01
 5.364887708619e+01
 5.673799839015e+01
 6.001806599306e+01
 6.350105024946e+01
 6.719964236413e+01
 7.112687248367e+01
 7.529846733695e+01
 7.972807236721e+01
 8.443284962895e+01
 8.942980142623e+01
 9.473726743825e+01
 1.003744154368e+02
 1.063625758494e+02
 1.127235045080e+02
 1.194802280167e+02
 1.266583726626e+02
 1.342836548241e+02
 1.423850181589e+02
 1.509915136830e+02
 1.601353950963e+02
 1.698509961675e+02
 1.801726651905e+02
 1.911402431863e+02
 2.027944820771e+02
 2.151773370062e+02
 2.283360868113e+02
 2.423181685262e+02
 2.571761582906e+02
 2.729671243104e+02
 2.897472111377e+02
 3.075777274321e+02
 3.265309443353e+02
 3.466715397246e+02
 3.680764926380e+02
 3.908243449047e+02
 4.150023176574e+02
 4.406994445496e+02
 4.680100307746e+02
 4.970389863631e+02
 5.278916188027e+02
 5.606864051165e+02
 5.955423956712e+02
 6.325935868530e+02
 6.719744995640e+02
 7.138366430881e+02
 7.583345767133e+02
 8.056322190724e+02
 8.559116139403e+02
 9.093556547600e+02
 9.661701296861e+02
 1.026565103956e+03
 1.090763350221e+03
 1.159012222059e+03
 1.231560288575e+03
 1.308687180805e+03
 1.390678382405e+03
 1.477836645078e+03
 1.570498099774e+03
 1.669005922782e+03
 1.773729746209e+03
 1.885049992045e+03
 2.003415977652e+03
 2.129239108306e+03
 2.263020837406e+03
 2.405232696013e+03
 4.708014431404e+04
SCALARS Inrt double 1
LOOKUP_TABLE default
 9.989999999797e-01
 9.989403195872e-01
 9.988769315068e-01
 9.988096025321e-01
 9.987380847221e-01
 9.986621144684e-01
 9.985814115041e-01
 9.984956778498e-01
 9.984045966925e-01
 9.983078311943e-01
 9.982050232248e-01
 9.980957920141e-01
 9.979797327198e-01
 9.978564149036e-01
 9.977253809119e-01
 9.975861441527e-01
 9.974381872650e-01
 9.972809601707e-01
 9.971138780048e-01
 9.969363189128e-01
 9.967476217101e-01
 9.965470833929e-01
 9.963339564908e-01
 9.961074462526e-01
 9.958667076536e-01
 9.956108422137e-01
 9.953388946132e-01
 9.950498490960e-01
 9.947426256433e-01
 9.944160759058e-01
 9.940689788792e-01
 9.937000363042e-01
 9.933078677769e-01
 9.928910055484e-01
 9.924478889961e-01
 9.919768587443e-01
 9.914761504129e-01
 9.909438879703e-01
 9.903780766655e-01
 9.897765955124e-01
 9.891371892986e-01
 9.884574600883e-01
 9.877348581868e-01
 9.869666725337e-01
 9.861500204867e-01
 9.852818369600e-01
 9.843588628740e-01
 9.833776328739e-01
 9.823344622712e-01
 9.812254331577e-01
 9.800463796411e-01
 9.787928721452e-01
 9.774602007164e-01
 9.760433572733e-01
 9.745370167321e-01
 9.729355169377e-01
 9.712328373236e-01
 9.694225762203e-01
 9.674979267283e-01
 9.654516510623e-01
 9.632760532715e-01
 9.609629502328e-01
 9.585036408073e-01
 9.558888730442e-01
 9.531088093078e-01
 9.501529891970e-01
 9.470102901170e-01
 9.436688853540e-01
 9.401161994971e-01
 9.363388610353e-01
 9.323226519553e-01
 9.280524541474e-01
 9.235121924176e-01
 9.186847738924e-01
 9.135520235868e-01
 9.080946158918e-01
 9.022920017262e-01
 8.961223310738e-01
 8.895623706177e-01
 8.825874161578e-01
 8.751711994862e-01
 8.672857893628e-01
 8.589014862233e-01
 8.499867102205e-01
 8.405078821765e-01
 8.304292969976e-01
 8.197129890745e-01
 8.083185891600e-01
 7.962031721855e-01
 7.833210954419e-01
 7.696238265144e-01
 7.550597603232e-01
 7.395740245811e-01
 7.231082729321e-01
 7.056004649933e-01
 6.869846324706e-01
 6.671906304655e-01
 6.461438730355e-01
 6.237650520123e-01
 5.999698380167e-01
 5.746685625425e-01
SCALARS O double 1
LOOKUP_TABLE default
 5.534525505425e+01
 5.006599088977e+00
 5.209360104046e+00
 5.424862052399e+00
 5.653855175556e+00
 5.897121222599e+00
 6.155493048523e+00
 6.429877766790e+00
 6.721180993144e+00
 7.030427105142e+00
 7.358709476974e+00
 7.707146186350e+00
 8.076949133831e+00
 8.469407580121e+00
 8.885892966315e+00
 9.327893441092e+00
 9.796903363264e+00
 1.029463229210e+01
 1.082280764301e+01
 1.138325784390e+01
 1.197803730334e+01
 1.260918141693e+01
 1.327896996885e+01
 1.398974365884e+01
 1.474412263236e+01
 1.554475886049e+01
 1.639451976022e+01
 1.729639783187e+01
 1.825368171038e+01
 1.926987212222e+01
 2.034851231628e+01
 2.149355248845e+01
 2.270912522189e+01
 2.399963361540e+01
 2.536974778060e+01
 2.682444329343e+01
 2.836900422027e+01
 3.000903831376e+01
 3.175053075227e+01
 3.359982713933e+01
 3.556344254943e+01
 3.764924034841e+01
 3.986404325916e+01
 4.221643231046e+01
 4.471490865589e+01
 4.736864213671e+01
 5.018721664059e+01
 5.318129738313e+01
 5.636176228239e+01
 5.974012464243e+01