 TITLE = "Time curves in points"
 VARIABLES = "TIME "  "PRESSURE1"  "TEMPERATURE1"  "VELOCITY_X1"  "VELOCITY_Y1"  "VELOCITY_Z1" 
 ZONE T="POINT=POINT17"
0.000000000000e+00 1.750000000000e+06 6.000000000000e+01 0.000000000000e+00 0.000000000000e+00 0.000000000000e+00 
1.000000000000e+00 1.753836364093e+06 5.999999999811e+01 -3.810119051407e-03 -2.742129719512e-04 -2.055476565860e-02 
3.710000000000e+00 1.769939411949e+06 5.999999999811e+01 -3.047653880164e-03 -6.100740523295e-04 -1.504073481691e-02 
1.091860000000e+01 1.794165085870e+06 5.999999999811e+01 -1.766924231693e-03 -7.415442079953e-04 -7.435544025145e-03 
2.973304600000e+01 1.814117786606e+06 5.999999999811e+01 -7.380408160510e-04 -4.803771617573e-04 -2.565876782154e-03 
7.789802776000e+01 1.828151585592e+06 5.999999999812e+01 -2.864984428418e-04 -2.034547220278e-04 -9.580369492425e-04 
1.987921319600e+02 1.839158169061e+06 5.999999999813e+01 -1.466911559102e-04 -8.742432573559e-05 -5.521029461954e-04 
4.961916283600e+02 1.846370810979e+06 5.999999999814e+01 -9.059238915965e-05 -4.869066669515e-05 -3.658222564830e-04 
1.212924414660e+03 1.848459941785e+06 5.999999999816e+01 -5.513519177032e-05 -2.799794003652e-05 -2.369226244280e-04 
2.904413790660e+03 1.843365336424e+06 5.999999999819e+01 -2.888206835186e-05 -9.405692421534e-06 -1.455222053485e-04 
6.811754248660e+03 1.826854455227e+06 5.999999999824e+01 -9.746431848717e-06 9.454903369898e-06 -8.210911984827e-05 
1.564234368266e+04 1.792576771788e+06 5.999999999831e+01 3.314087659672e-06 2.578145466929e-05 -3.993645894237e-05 
3.515794633266e+04 1.736214046345e+06 5.999999999845e+01 1.081983409209e-05 3.660629103451e-05 -1.493452872844e-05 
7.731164805266e+04 1.662488802298e+06 5.999999999881e+01 1.293321001264e-05 4.142745601992e-05 -3.571598421864e-06 
1.662559586927e+05 1.585481768500e+06 5.999999999927e+01 1.206220287944e-05 4.253409275929e-05 -2.594230695357e-07 
3.494812385927e+05 1.524679171995e+06 6.000000000006e+01 1.123547873143e-05 4.247835941592e-05 1.569282579818e-07 
7.177640511927e+05 1.492693032555e+06 6.000000000000e+01 1.107707884917e-05 4.236004646850e-05 7.099534242844e-08 
1.439598363893e+06 1.482688994750e+06 5.999999999857e+01 1.109485655678e-05 4.232340817235e-05 2.132120590706e-08 
2.818301900893e+06 1.480938285192e+06 6.000000000542e+01 1.110398668513e-05 4.231753847366e-05 1.164532797580e-08 
5.382690479893e+06 1.480770124857e+06 5.999999981086e+01 1.110511506554e-05 4.231700631364e-05 1.069023701512e-08 
1.002423380889e+07 1.480761225176e+06 5.999985302054e+01 1.110518015440e-05 4.231697892561e-05 1.063927808304e-08 
1.819335006789e+07 1.480760961533e+06 5.999374024910e+01 1.110518214444e-05 4.231697812399e-05 1.063776466026e-08 
3.216253886789e+07 1.480760957063e+06 5.992506836573e+01 1.110518217837e-05 4.231697811086e-05 1.063773864141e-08 
5.535139227789e+07 1.480760957020e+06 5.961987447325e+01 1.110518217875e-05 4.231697811046e-05 1.063773818031e-08 
9.268544626789e+07 1.480760957017e+06 5.890421766647e+01 1.110518217952e-05 4.231697811093e-05 1.063773830834e-08 
1.509265704979e+08 1.480760957019e+06 5.784660215981e+01 1.110518217900e-05 4.231697811069e-05 1.063773844123e-08 
2.388706680779e+08 1.480760957022e+06 5.676954664790e+01 1.110518217951e-05 4.231697811092e-05 1.063773886235e-08 
3.672690505779e+08 1.480760957018e+06 5.597541744962e+01 1.110518217871e-05 4.231697811052e-05 1.063773841910e-08 
5.483107698779e+08 1.480760957020e+06 5.552901813798e+01 1.110518217874e-05 4.231697811026e-05 1.063773838069e-08 
7.945275080779e+08 1.480760957017e+06 5.531979597480e+01 1.110518217859e-05 4.231697811028e-05 1.063773832219e-08 
1.117071435178e+09 1.480760957019e+06 5.522070160541e+01 1.110518217894e-05 4.231697811075e-05 1.063773811148e-08 
1.523476783278e+09 1.480760957019e+06 5.516049283019e+01 1.110518217943e-05 4.231697811107e-05 1.063773864938e-08 
2.015227254478e+09 1.480760957019e+06 5.511510830655e+01 1.110518217923e-05 4.231697811087e-05 1.063773848038e-08 
2.585657801078e+09 1.480760957019e+06 5.508029143928e+01 1.110518217946e-05 4.231697811089e-05 1.063773867255e-08 
3.218835707878e+09 1.480760957018e+06 5.505563718873e+01 1.110518217907e-05 4.231697811032e-05 1.063773849996e-08 
3.890004289078e+09 1.480760957019e+06 5.503935700637e+01 1.110518217888e-05 4.231697811051e-05 1.063773819888e-08 
4.567884556078e+09 1.480760957022e+06 5.502902423907e+01 1.110518217923e-05 4.231697811084e-05 1.063773848921e-08 
