 TITLE = "Time curves in points"
 VARIABLES = "TIME "  "PRESSURE1"  "TEMPERATURE1"  "VELOCITY_X1"  "VELOCITY_Y1"  "VELOCITY_Z1" 
 ZONE T="POINT=POINT15"
0.000000000000e+00 1.750000000000e+06 6.000000000000e+01 0.000000000000e+00 0.000000000000e+00 0.000000000000e+00 
1.000000000000e+00 1.745330941369e+06 5.991846564667e+01 -2.761646219230e-03 1.707151060895e-03 -1.930835120712e-02 
3.710000000000e+00 1.745564329616e+06 5.991866047942e+01 -1.692012880012e-03 1.002769587911e-03 -1.165033219792e-02 
1.091860000000e+01 1.750989600882e+06 5.991886314652e+01 -6.447093638034e-04 3.665504281746e-04 -4.374528678704e-03 
2.973304600000e+01 1.761688777851e+06 5.991902056914e+01 -2.013876445762e-04 9.814881743070e-05 -1.298422871755e-03 
7.789802776000e+01 1.775922146057e+06 5.991919591512e+01 -9.753538184353e-05 3.850634687226e-05 -5.912311777033e-04 
1.987921319600e+02 1.788288224359e+06 5.991949019397e+01 -6.611137742569e-05 2.526445901455e-05 -3.972611012916e-04 
4.961916283600e+02 1.795892583239e+06 5.991999191515e+01 -4.647963356762e-05 1.724369703034e-05 -2.771758739805e-04 
1.212924414660e+03 1.798012470446e+06 5.992078743672e+01 -3.211564240995e-05 1.013640348941e-05 -1.841892455851e-04 
2.904413790660e+03 1.793001287284e+06 5.992194430292e+01 -2.113513505328e-05 4.668682517477e-06 -1.129710112344e-04 
6.811754248660e+03 1.776793021959e+06 5.992344230106e+01 -1.231044286827e-05 1.781049038573e-06 -6.197848806080e-05 
1.564234368266e+04 1.743013807681e+06 5.992554174503e+01 -5.302461087957e-06 1.531652811852e-06 -2.994522199385e-05 
3.515794633266e+04 1.687197612262e+06 5.992851766972e+01 -5.502578766347e-08 3.466862061455e-06 -1.474013905563e-05 
7.731164805266e+04 1.613905086883e+06 5.993333404869e+01 3.717068094721e-06 6.824425335863e-06 -1.193809627952e-05 
1.662559586927e+05 1.537190347999e+06 5.994469968360e+01 6.437537474858e-06 1.059804753167e-05 -1.549890291784e-05 
3.494812385927e+05 1.476586260270e+06 5.997367044725e+01 8.275727907526e-06 1.365844726628e-05 -2.001192566928e-05 
7.177640511927e+05 1.444708018613e+06 6.004186772369e+01 9.206990431739e-06 1.529039712502e-05 -2.263530549742e-05 
1.439598363893e+06 1.434739435913e+06 6.010605447898e+01 9.497491294391e-06 1.580458109674e-05 -2.347497647252e-05 
2.818301900893e+06 1.432995108376e+06 6.015152658724e+01 9.548455266785e-06 1.589488900034e-05 -2.362273179888e-05 
5.382690479893e+06 1.432827568949e+06 5.995408327048e+01 9.553359154600e-06 1.590357719406e-05 -2.363694436354e-05 
1.002423380889e+07 1.432818702304e+06 5.907654230746e+01 9.553618907260e-06 1.590403731007e-05 -2.363769685598e-05 
1.819335006789e+07 1.432818439642e+06 5.704330913955e+01 9.553626605058e-06 1.590405094420e-05 -2.363771915048e-05 
3.216253886789e+07 1.432818435188e+06 5.387386268812e+01 9.553626735586e-06 1.590405117542e-05 -2.363771952865e-05 
5.535139227789e+07 1.432818435145e+06 5.050163887372e+01 9.553626736195e-06 1.590405117730e-05 -2.363771953374e-05 
9.268544626789e+07 1.432818435142e+06 4.787395561602e+01 9.553626736613e-06 1.590405117761e-05 -2.363771953315e-05 
1.509265704979e+08 1.432818435145e+06 4.619993311679e+01 9.553626736824e-06 1.590405117760e-05 -2.363771953221e-05 
2.388706680779e+08 1.432818435147e+06 4.527778497513e+01 9.553626736786e-06 1.590405117741e-05 -2.363771953157e-05 
3.672690505779e+08 1.432818435143e+06 4.480125210651e+01 9.553626736662e-06 1.590405117755e-05 -2.363771953268e-05 
5.483107698779e+08 1.432818435145e+06 4.456038380526e+01 9.553626736597e-06 1.590405117745e-05 -2.363771953256e-05 
7.945275080779e+08 1.432818435142e+06 4.443814561314e+01 9.553626736846e-06 1.590405117754e-05 -2.363771953185e-05 
1.117071435178e+09 1.432818435145e+06 4.437201319979e+01 9.553626737004e-06 1.590405117770e-05 -2.363771953181e-05 
1.523476783278e+09 1.432818435144e+06 4.433376858048e+01 9.553626736791e-06 1.590405117751e-05 -2.363771953198e-05 
2.015227254478e+09 1.432818435144e+06 4.431093978399e+01 9.553626736580e-06 1.590405117741e-05 -2.363771953248e-05 
2.585657801078e+09 1.432818435145e+06 4.429740352907e+01 9.553626736677e-06 1.590405117749e-05 -2.363771953240e-05 
3.218835707878e+09 1.432818435143e+06 4.428947408625e+01 9.553626736638e-06 1.590405117754e-05 -2.363771953278e-05 
3.890004289078e+09 1.432818435144e+06 4.428489040623e+01 9.553626736533e-06 1.590405117743e-05 -2.363771953276e-05 
4.567884556078e+09 1.432818435147e+06 4.428210032168e+01 9.553626736680e-06 1.590405117740e-05 -2.363771953198e-05 
