VARIABLES  = "X","Y","Z", "PRESSURE1", "SorbFr", "ConsTracer"
ZONE T="0.000000000000e+00s", N=101, E=100, F=FEPOINT, ET=QUADRILATERAL
STRANDID=1, SOLUTIONTIME=0.000000000000e+00
0.000000000000e+00 0.000000000000e+00 0.000000000000e+00 2.000000000000e+04 0.000000000000e+00 0.000000000000e+00 
1.000000000000e+00 0.000000000000e+00 0.000000000000e+00 2.000000000000e+04 0.000000000000e+00 0.000000000000e+00 
2.000000000000e+00 0.000000000000e+00 0.000000000000e+00 2.000000000000e+04 0.000000000000e+00 0.000000000000e+00 
3.000000000000e+00 0.000000000000e+00 0.000000000000e+00 2.000000000000e+04 0.000000000000e+00 0.000000000000e+00 
4.000000000000e+00 0.000000000000e+00 0.000000000000e+00 2.000000000000e+04 0.000000000000e+00 0.000000000000e+00 
5.000000000000e+00 0.000000000000e+00 0.000000000000e+00 2.000000000000e+04 0.000000000000e+00 0.000000000000e+00 
6.000000000000e+00 0.000000000000e+00 0.000000000000e+00 2.000000000000e+04 0.000000000000e+00 0.000000000000e+00 
7.000000000000e+00 0.000000000000e+00 0.000000000000e+00 2.000000000000e+04 0.000000000000e+00 0.000000000000e+00 
8.000000000000e+00 0.000000000000e+00 0.000000000000e+00 2.000000000000e+04 0.000000000000e+00 0.000000000000e+00 
9.000000000000e+00 0.000000000000e+00 0.000000000000e+00 2.000000000000e+04 0.000000000000e+00 0.000000000000e+00 
1.000000000000e+01 0.000000000000e+00 0.000000000000e+00 2.000000000000e+04 0.000000000000e+00 0.000000000000e+00 
1.100000000000e+01 0.000000000000e+00 0.000000000000e+00 2.000000000000e+04 0.000000000000e+00 0.000000000000e+00 
1.200000000000e+01 0.000000000000e+00 0.000000000000e+00 2.000000000000e+04 0.000000000000e+00 0.000000000000e+00 
1.300000000000e+01 0.000000000000e+00 0.000000000000e+00 2.000000000000e+04 0.000000000000e+00 0.000000000000e+00 
1.400000000000e+01 0.000000000000e+00 0.000000000000e+00 2.000000000000e+04 0.000000000000e+00 0.000000000000e+00 
1.500000000000e+01 0.000000000000e+00 0.000000000000e+00 2.000000000000e+04 0.000000000000e+00 0.000000000000e+00 
1.600000000000e+01 0.000000000000e+00 0.000000000000e+00 2.000000000000e+04 0.000000000000e+00 0.000000000000e+00 
1.700000000000e+01 0.000000000000e+00 0.000000000000e+00 2.000000000000e+04 0.000000000000e+00 0.000000000000e+00 
1.800000000000e+01 0.000000000000e+00 0.000000000000e+00 2.000000000000e+04 0.000000000000e+00 0.000000000000e+00 
1.900000000000e+01 0.000000000000e+00 0.000000000000e+00 2.000000000000e+04 0.000000000000e+00 0.000000000000e+00 
2.000000000000e+01 0.000000000000e+00 0.000000000000e+00 2.000000000000e+04 0.000000000000e+00 0.000000000000e+00 
2.100000000000e+01 0.000000000000e+00 0.000000000000e+00 2.000000000000e+04 0.000000000000e+00 0.000000000000e+00 
2.200000000000e+01 0.000000000000e+00 0.000000000000e+00 2.000000000000e+04 0.000000000000e+00 0.000000000000e+00 
2.300000000000e+01 0.000000000000e+00 0.000000000000e+00 2.000000000000e+04 0.000000000000e+00 0.000000000000e+00 
2.400000000000e+01 0.000000000000e+00 0.000000000000e+00 2.000000000000e+04 0.000000000000e+00 0.000000000000e+00 
2.500000000000e+01 0.000000000000e+00 0.000000000000e+00 2.000000000000e+04 0.000000000000e+00 0.000000000000e+00 
2.600000000000e+01 0.000000000000e+00 0.000000000000e+00 2.000000000000e+04 0.000000000000e+00 0.000000000000e+00 
2.700000000000e+01 0.000000000000e+00 0.000000000000e+00 2.000000000000e+04 0.000000000000e+00 0.000000000000e+00 
2.800000000000e+01 0.000000000000e+00 0.000000000000e+00 2.000000000000e+04 0.000000000000e+00 0.000000000000e+00 
2.900000000000e+01 0.000000000000e+00 0.000000000000e+00 2.000000000000e+04 0.000000000000e+00 0.000000000000e+00 
3.000000000000e+01 0.000000000000e+00 0.000000000000e+00 2.000000000000e+04 0.000000000000e+00 0.000000000000e+00 
3.100000000000e+01 0.000000000000e+00 0.000000000000e+00 2.000000000000e+04 0.000000000000e+00 0.000000000000e+00 
3.200000000000e+01 0.000000000000e+00 0.000000000000e+00 2.000000000000e+04 0.000000000000e+00 0.000000000000e+00 
3.300000000000e+01 0.000000000000e+00 0.000000000000e+00 2.000000000000e+04 0.000000000000e+00 0.000000000000e+00 
3.400000000000e+01 0.000000000000e+00 0.000000000000e+00 2.000000000000e+04 0.000000000000e+00 0.000000000000e+00 
3.500000000000e+01 0.000000000000e+00 0.000000000000e+00 2.000000000000e+04 0.000000000000e+00 0.000000000000e+00 
3.600000000000e+01 0.000000000000e+00 0.000000000000e+00 2.000000000000e+04 0.000000000000e+00 0.000000000000e+00 
3.700000000000e+01 0.000000000000e+00 0.000000000000e+00 2.000000000000e+04 0.000000000000e+00 0.000000000000e+00 
3.800000000000e+01 0.000000000000e+00 0.000000000000e+00 2.000000000000e+04 0.000000000000e+00 0.000000000000e+00 
3.900000000000e+01 0.000000000000e+00 0.000000000000e+00 2.000000000000e+04 0.000000000000e+00 0.000000000000e+00 
4.000000000000e+01 0.000000000000e+00 0.000000000000e+00 2.000000000000e+04 0.000000000000e+00 0.000000000000e+00 
4.100000000000e+01 0.000000000000e+00 0.000000000000e+00 2.000000000000e+04 0.000000000000e+00 0.000000000000e+00 
4.200000000000e+01 0.000000000000e+00 0.000000000000e+00 2.000000000000e+04 0.000000000000e+00 0.000000000000e+00 
4.300000000000e+01 0.000000000000e+00 0.000000000000e+00 2.000000000000e+04 0.000000000000e+00 0.000000000000e+00 
4.400000000000e+01 0.000000000000e+00 0.000000000000e+00 2.000000000000e+04 0.000000000000e+00 0.000000000000e+00 
4.500000000000e+01 0.000000000000e+00 0.000000000000e+00 2.000000000000e+04 0.000000000000e+00 0.000000000000e+00 
4.600000000000e+01 0.000000000000e+00 0.000000000000e+00 2.000000000000e+04 0.000000000000e+00 0.000000000000e+00 
4.700000000000e+01 0.000000000000e+00 0.000000000000e+00 2.000000000000e+04 0.000000000000e+00 0.000000000000e+00 
4.800000000000e+01 0.000000000000e+00 0.000000000000e+00 2.000000000000e+04 0.000000000000e+00 0.000000000000e+00 
4.900000000000e+01 0.000000000000e+00 0.000000000000e+00 2.000000000000e+04 0.000000000000e+00 0.000000000000e+00 
5.000000000000e+01 0.000000000000e+00 0.000000000000e+00 2.000000000000e+04 0.000000000000e+00 0.000000000000e+00 
5.100000000000e+01 0.000000000000e+00 0.000000000000e+00 2.000000000000e+04 0.000000000000e+00 0.000000000000e+00 
5.200000000000e+01 0.000000000000e+00 0.000000000000e+00 2.000000000000e+04 0.000000000000e+00 0.000000000000e+00 
5.300000000000e+01 0.000000000000e+00 0.000000000000e+00 2.000000000000e+04 0.000000000000e+00 0.000000000000e+00 
5.400000000000e+01 0.000000000000e+00 0.000000000000e+00 2.000000000000e+04 0.000000000000e+00 0.000000000000e+00 
5.500000000000e+01 0.000000000000e+00 0.000000000000e+00 2.000000000000e+04 0.000000000000e+00 0.000000000000e+00 
5.600000000000e+01 0.000000000000e+00 0.000000000000e+00 2.000000000000e+04 0.000000000000e+00 0.000000000000e+00 
5.700000000000e+01 0.000000000000e+00 0.000000000000e+00 2.000000000000e+04 0.000000000000e+00 0.000000000000e+00 
5.800000000000e+01 0.000000000000e+00 0.000000000000e+00 2.000000000000e+04 0.000000000000e+00 0.000000000000e+00 
5.900000000000e+01 0.000000000000e+00 0.000000000000e+00 2.000000000000e+04 0.000000000000e+00 0.000000000000e+00 
6.000000000000e+01 0.000000000000e+00 0.000000000000e+00 2.000000000000e+04 0.000000000000e+00 0.000000000000e+00 
6.100000000000e+01 0.000000000000e+00 0.000000000000e+00 2.000000000000e+04 0.000000000000e+00 0.000000000000e+00 
6.200000000000e+01 0.000000000000e+00 0.000000000000e+00 2.000000000000e+04 0.000000000000e+00 0.000000000000e+00 
6.300000000000e+01 0.000000000000e+00 0.000000000000e+00 2.000000000000e+04 0.000000000000e+00 0.000000000000e+00 
6.400000000000e+01 0.000000000000e+00 0.000000000000e+00 2.000000000000e+04 0.000000000000e+00 0.000000000000e+00 
6.500000000000e+01 0.000000000000e+00 0.000000000000e+00 2.000000000000e+04 0.000000000000e+00 0.000000000000e+00 
6.600000000000e+01 0.000000000000e+00 0.000000000000e+00 2.000000000000e+04 0.000000000000e+00 0.000000000000e+00 
6.700000000000e+01 0.000000000000e+00 0.000000000000e+00 2.000000000000e+04 0.000000000000e+00 0.000000000000e+00 
6.800000000000e+01 0.000000000000e+00 0.000000000000e+00 2.000000000000e+04 0.000000000000e+00 0.000000000000e+00 
6.900000000000e+01 0.000000000000e+00 0.000000000000e+00 2.000000000000e+04 0.000000000000e+00 0.000000000000e+00 
7.000000000000e+01 0.000000000000e+00 0.000000000000e+00 2.000000000000e+04 0.000000000000e+00 0.000000000000e+00 
7.100000000000e+01 0.000000000000e+00 0.000000000000e+00 2.000000000000e+04 0.000000000000e+00 0.000000000000e+00 
7.200000000000e+01 0.000000000000e+00 0.000000000000e+00 2.000000000000e+04 0.000000000000e+00 0.000000000000e+00 
7.300000000000e+01 0.000000000000e+00 0.000000000000e+00 2.000000000000e+04 0.000000000000e+00 0.000000000000e+00 
7.400000000000e+01 0.000000000000e+00 0.000000000000e+00 2.000000000000e+04 0.000000000000e+00 0.000000000000e+00 
7.500000000000e+01 0.000000000000e+00 0.000000000000e+00 2.000000000000e+04 0.000000000000e+00 0.000000000000e+00 
7.600000000000e+01 0.000000000000e+00 0.000000000000e+00 2.000000000000e+04 0.000000000000e+00 0.000000000000e+00 
7.700000000000e+01 0.000000000000e+00 0.000000000000e+00 2.000000000000e+04 0.000000000000e+00 0.000000000000e+00 
7.800000000000e+01 0.000000000000e+00 0.000000000000e+00 2.000000000000e+04 0.000000000000e+00 0.000000000000e+00 
7.900000000000e+01 0.000000000000e+00 0.000000000000e+00 2.000000000000e+04 0.000000000000e+00 0.000000000000e+00 
8.000000000000e+01 0.000000000000e+00 0.000000000000e+00 2.000000000000e+04 0.000000000000e+00 0.000000000000e+00 
8.100000000000e+01 0.000000000000e+00 0.000000000000e+00 2.000000000000e+04 0.000000000000e+00 0.000000000000e+00 
8.200000000000e+01 0.000000000000e+00 0.000000000000e+00 2.000000000000e+04 0.000000000000e+00 0.000000000000e+00 
8.300000000000e+01 0.000000000000e+00 0.000000000000e+00 2.000000000000e+04 0.000000000000e+00 0.000000000000e+00 
8.400000000000e+01 0.000000000000e+00 0.000000000000e+00 2.000000000000e+04 0.000000000000e+00 0.000000000000e+00 
8.500000000000e+01 0.000000000000e+00 0.000000000000e+00 2.000000000000e+04 0.000000000000e+00 0.000000000000e+00 
8.600000000000e+01 0.000000000000e+00 0.000000000000e+00 2.000000000000e+04 0.000000000000e+00 0.000000000000e+00 
8.700000000000e+01 0.000000000000e+00 0.000000000000e+00 2.000000000000e+04 0.000000000000e+00 0.000000000000e+00 
8.800000000000e+01 0.000000000000e+00 0.000000000000e+00 2.000000000000e+04 0.000000000000e+00 0.000000000000e+00 
8.900000000000e+01 0.000000000000e+00 0.000000000000e+00 2.000000000000e+04 0.000000000000e+00 0.000000000000e+00 
9.000000000000e+01 0.000000000000e+00 0.000000000000e+00 2.000000000000e+04 0.000000000000e+00 0.000000000000e+00 
9.100000000000e+01 0.000000000000e+00 0.000000000000e+00 2.000000000000e+04 0.000000000000e+00 0.000000000000e+00 
9.200000000000e+01 0.000000000000e+00 0.000000000000e+00 2.000000000000e+04 0.000000000000e+00 0.000000000000e+00 
9.300000000000e+01 0.000000000000e+00 0.000000000000e+00 2.000000000000e+04 0.000000000000e+00 0.000000000000e+00 
9.400000000000e+01 0.000000000000e+00 0.000000000000e+00 2.000000000000e+04 0.000000000000e+00 0.000000000000e+00 
9.500000000000e+01 0.000000000000e+00 0.000000000000e+00 2.000000000000e+04 0.000000000000e+00 0.000000000000e+00 
9.600000000000e+01 0.000000000000e+00 0.000000000000e+00 2.000000000000e+04 0.000000000000e+00 0.000000000000e+00 
9.700000000000e+01 0.000000000000e+00 0.000000000000e+00 2.000000000000e+04 0.000000000000e+00 0.000000000000e+00 
9.800000000000e+01 0.000000000000e+00 0.000000000000e+00 2.000000000000e+04 0.000000000000e+00 0.000000000000e+00 
9.900000000000e+01 0.000000000000e+00 0.000000000000e+00 2.000000000000e+04 0.000000000000e+00 0.000000000000e+00 
1.000000000000e+02 0.000000000000e+00 0.000000000000e+00 2.000000000000e+04 0.000000000000e+00 0.000000000000e+00 
1  2  2  1
2  3  3  2
3  4  4  3
4  5  5  4
5  6  6  5
6  7  7  6
7  8  8  7
8  9  9  8
9  10  10  9
10  11  11  10
11  12  12  11
12  13  13  12
13  14  14  13
14  15  15  14
15  16  16  15
16  17  17  16
17  18  18  17
18  19  19  18
19  20  20  19
20  21  21  20
21  22  22  21
22  23  23  22
23  24  24  23
24  25  25  24
25  26  26  25
26  27  27  26
27  28  28  27
28  29  29  28
29  30  30  29
30  31  31  30
31  32  32  31
32  33  33  32
33  34  34  33
34  35  35  34
35  36  36  35
36  37  37  36
37  38  38  37
38  39  39  38
39  40  40  39
40  41  41  40
41  42  42  41
42  43  43  42
43  44  44  43
44  45  45  44
45  46  46  45
46  47  47  46
47  48  48  47
48  49  49  48
49  50  50  49
50  51  51  50
51  52  52  51
52  53  53  52
53  54  54  53
54  55  55  54
55  56  56  55
56  57  57  56
57  58  58  57
58  59  59  58
59  60  60  59
60  61  61  60
61  62  62  61
62  63  63  62
63  64  64  63
64  65  65  64
65  66  66  65
66  67  67  66
67  68  68  67
68  69  69  68
69  70  70  69
70  71  71  70
71  72  72  71
72  73  73  72
73  74  74  73
74  75  75  74
75  76  76  75
76  77  77  76
77  78  78  77
78  79  79  78
79  80  80  79
80  81  81  80
81  82  82  81
82  83  83  82
83  84  84  83
84  85  85  84
85  86  86  85
86  87  87  86
87  88  88  87
88  89  89  88
89  90  90  89
90  91  91  90
91  92  92  91
92  93  93  92
93  94  94  93
94  95  95  94
95  96  96  95
96  97  97  96
97  98  98  97
98  99  99  98
99  100  100  99
100  101  101  100
VARIABLES  = "X","Y","Z", "PRESSURE1", "SorbFr", "ConsTracer"
ZONE T="8.640000000000e+04s", N=101, E=100, F=FEPOINT, ET=QUADRILATERAL
STRANDID=1, SOLUTIONTIME=8.640000000000e+04
0.000000000000e+00 0.000000000000e+00 0.000000000000e+00 1.400000000000e+05 1.000000000000e+00 1.000000000000e+00 
1.000000000000e+00 0.000000000000e+00 0.000000000000e+00 1.388000000000e+05 4.366572952182e-01 4.478735292628e-01 
2.000000000000e+00 0.000000000000e+00 0.000000000000e+00 1.376000000000e+05 1.906695934673e-01 2.005906982143e-01 
3.000000000000e+00 0.000000000000e+00 0.000000000000e+00 1.364000000000e+05 8.325726896380e-02 8.983926394654e-02 
4.000000000000e+00 0.000000000000e+00 0.000000000000e+00 1.352000000000e+05 3.635489387299e-02 4.023662821011e-02 
5.000000000000e+00 0.000000000000e+00 0.000000000000e+00 1.340000000000e+05 1.587462962653e-02 1.802092068210e-02 
6.000000000000e+00 0.000000000000e+00 0.000000000000e+00 1.328000000001e+05 6.931772835310e-03 8.071093346456e-03 
7.000000000000e+00 0.000000000000e+00 0.000000000000e+00 1.316000000001e+05 3.026809177334e-03 3.614829062087e-03 
8.000000000000e+00 0.000000000000e+00 0.000000000000e+00 1.304000000001e+05 1.321678308516e-03 1.618986249719e-03 
9.000000000000e+00 0.000000000000e+00 0.000000000000e+00 1.292000000001e+05 5.771204753454e-04 7.251010854895e-04 
1.000000000000e+01 0.000000000000e+00 0.000000000000e+00 1.280000000001e+05 2.520038657794e-04 3.247535822305e-04 
1.100000000000e+01 0.000000000000e+00 0.000000000000e+00 1.268000000001e+05 1.100393264158e-04 1.454485330143e-04 
1.200000000000e+01 0.000000000000e+00 0.000000000000e+00 1.256000000001e+05 4.804947464032e-05 6.514254780720e-05 
1.300000000000e+01 0.000000000000e+00 0.000000000000e+00 1.244000000001e+05 2.098115363307e-05 2.917562279156e-05 
1.400000000000e+01 0.000000000000e+00 0.000000000000e+00 1.232000000001e+05 9.161573795894e-06 1.306698914805e-05 
1.500000000000e+01 0.000000000000e+00 0.000000000000e+00 1.220000000001e+05 4.000468033555e-06 5.852358546502e-06 
1.600000000000e+01 0.000000000000e+00 0.000000000000e+00 1.208000000001e+05 1.746833550909e-06 2.621116476584e-06 
1.700000000000e+01 0.000000000000e+00 0.000000000000e+00 1.196000000002e+05 7.627676132736e-07 1.173928686781e-06 
1.800000000000e+01 0.000000000000e+00 0.000000000000e+00 1.184000000002e+05 3.330680423289e-07 5.257715836691e-07 
1.900000000000e+01 0.000000000000e+00 0.000000000000e+00 1.172000000002e+05 1.454365899131e-07 2.354791743101e-07 
2.000000000000e+01 0.000000000000e+00 0.000000000000e+00 1.160000000002e+05 6.350594680358e-08 1.054648880307e-07 
2.100000000000e+01 0.000000000000e+00 0.000000000000e+00 1.148000000002e+05 2.773033389022e-08 4.723493071373e-08 
2.200000000000e+01 0.000000000000e+00 0.000000000000e+00 1.136000000002e+05 1.210865049887e-08 2.115527355339e-08 
2.300000000000e+01 0.000000000000e+00 0.000000000000e+00 1.124000000002e+05 5.287328860146e-09 9.474885485396e-09 
2.400000000000e+01 0.000000000000e+00 0.000000000000e+00 1.112000000002e+05 2.308747513650e-09 4.243547857720e-09 
2.500000000000e+01 0.000000000000e+00 0.000000000000e+00 1.100000000002e+05 1.008129084955e-09 1.900570475919e-09 
2.600000000000e+01 0.000000000000e+00 0.000000000000e+00 1.088000000002e+05 4.402026983156e-10 8.512116442349e-10 
2.700000000000e+01 0.000000000000e+00 0.000000000000e+00 1.076000000002e+05 1.922149314078e-10 3.812322554107e-10 
2.800000000000e+01 0.000000000000e+00 0.000000000000e+00 1.064000000002e+05 8.392727227740e-11 1.707395227511e-10 
2.900000000000e+01 0.000000000000e+00 0.000000000000e+00 1.052000000003e+05 3.664463095588e-11 7.646651216584e-11 
3.000000000000e+01 0.000000000000e+00 0.000000000000e+00 1.040000000003e+05 1.599650036034e-11 3.424281668718e-11 
3.100000000000e+01 0.000000000000e+00 0.000000000000e+00 1.028000000003e+05 6.982543970803e-12 1.533341896592e-11 
3.200000000000e+01 0.000000000000e+00 0.000000000000e+00 1.016000000003e+05 3.045119169436e-12 6.863369640410e-12 
3.300000000000e+01 0.000000000000e+00 0.000000000000e+00 1.004000000003e+05 1.327877069971e-12 3.071459187144e-12 
3.400000000000e+01 0.000000000000e+00 0.000000000000e+00 9.920000000029e+04 5.771018196136e-13 1.372486033231e-12 
3.500000000000e+01 0.000000000000e+00 0.000000000000e+00 9.800000000030e+04 2.508845778314e-13 6.129970943362e-13 
3.600000000000e+01 0.000000000000e+00 0.000000000000e+00 9.680000000030e+04 1.079294624278e-13 2.724783227866e-13 
3.700000000000e+01 0.000000000000e+00 0.000000000000e+00 9.560000000031e+04 4.655687685032e-14 1.210417745172e-13 
3.800000000000e+01 0.000000000000e+00 0.000000000000e+00 9.440000000032e+04 1.952724144435e-14 5.306260178700e-14 
3.900000000000e+01 0.000000000000e+00 0.000000000000e+00 9.320000000032e+04 8.286799785177e-15 2.328189658142e-14 
4.000000000000e+01 0.000000000000e+00 0.000000000000e+00 9.200000000033e+04 3.294095354368e-15 9.895213387412e-15 
4.100000000000e+01 0.000000000000e+00 0.000000000000e+00 9.080000000034e+04 1.358176327824e-15 4.239386693844e-15 
4.200000000000e+01 0.000000000000e+00 0.000000000000e+00 8.960000000034e+04 4.885425940139e-16 1.696975356544e-15 
4.300000000000e+01 0.000000000000e+00 0.000000000000e+00 8.840000000035e+04 1.927754919635e-16 6.989419626157e-16 
4.400000000000e+01 0.000000000000e+00 0.000000000000e+00 8.720000000035e+04 5.836058385985e-17 2.520427225205e-16 
4.500000000000e+01 0.000000000000e+00 0.000000000000e+00 8.600000000036e+04 2.169301955408e-17 9.799858081666e-17 
4.600000000000e+01 0.000000000000e+00 0.000000000000e+00 8.480000000036e+04 4.878761391805e-18 2.974121614954e-17 
4.700000000000e+01 0.000000000000e+00 0.000000000000e+00 8.360000000037e+04 1.681938003696e-18 1.070533035208e-17 
4.800000000000e+01 0.000000000000e+00 0.000000000000e+00 8.240000000037e+04 2.099651512170e-19 2.428984677429e-18 
4.900000000000e+01 0.000000000000e+00 0.000000000000e+00 8.120000000037e+04 6.611816819524e-20 7.928719354492e-19 
5.000000000000e+01 0.000000000000e+00 0.000000000000e+00 8.000000000038e+04 0.000000000000e+00 1.012967082158e-19 
5.100000000000e+01 0.000000000000e+00 0.000000000000e+00 7.880000000038e+04 0.000000000000e+00 2.931070884313e-20 
5.200000000000e+01 0.000000000000e+00 0.000000000000e+00 7.760000000038e+04 0.000000000000e+00 0.000000000000e+00 
5.300000000000e+01 0.000000000000e+00 0.000000000000e+00 7.640000000039e+04 0.000000000000e+00 0.000000000000e+00 
5.400000000000e+01 0.000000000000e+00 0.000000000000e+00 7.520000000039e+04 0.000000000000e+00 0.000000000000e+00 
5.500000000000e+01 0.000000000000e+00 0.000000000000e+00 7.400000000039e+04 0.000000000000e+00 0.000000000000e+00 
5.600000000000e+01 0.000000000000e+00 0.000000000000e+00 7.280000000039e+04 0.000000000000e+00 0.000000000000e+00 
5.700000000000e+01 0.000000000000e+00 0.000000000000e+00 7.160000000039e+04 0.000000000000e+00 0.000000000000e+00 
5.800000000000e+01 0.000000000000e+00 0.000000000000e+00 7.040000000039e+04 0.000000000000e+00 0.000000000000e+00 
5.900000000000e+01 0.000000000000e+00 0.000000000000e+00 6.920000000039e+04 0.000000000000e+00 0.000000000000e+00 
6.000000000000e+01 0.000000000000e+00 0.000000000000e+00 6.800000000039e+04 0.000000000000e+00 0.000000000000e+00 
6.100000000000e+01 0.000000000000e+00 0.000000000000e+00 6.680000000039e+04 0.000000000000e+00 0.000000000000e+00 
6.200000000000e+01 0.000000000000e+00 0.000000000000e+00 6.560000000039e+04 0.000000000000e+00 0.000000000000e+00 
6.300000000000e+01 0.000000000000e+00 0.000000000000e+00 6.440000000038e+04 0.000000000000e+00 0.000000000000e+00 
6.400000000000e+01 0.000000000000e+00 0.000000000000e+00 6.320000000038e+04 0.000000000000e+00 0.000000000000e+00 
6.500000000000e+01 0.000000000000e+00 0.000000000000e+00 6.200000000038e+04 0.000000000000e+00 0.000000000000e+00 
6.600000000000e+01 0.000000000000e+00 0.000000000000e+00 6.080000000037e+04 0.000000000000e+00 0.000000000000e+00 
6.700000000000e+01 0.000000000000e+00 0.000000000000e+00 5.960000000037e+04 0.000000000000e+00 0.000000000000e+00 
6.800000000000e+01 0.000000000000e+00 0.000000000000e+00 5.840000000037e+04 0.000000000000e+00 0.000000000000e+00 
6.900000000000e+01 0.000000000000e+00 0.000000000000e+00 5.720000000036e+04 0.000000000000e+00 0.000000000000e+00 
7.000000000000e+01 0.000000000000e+00 0.000000000000e+00 5.600000000035e+04 0.000000000000e+00 0.000000000000e+00 
7.100000000000e+01 0.000000000000e+00 0.000000000000e+00 5.480000000035e+04 0.000000000000e+00 0.000000000000e+00 
7.200000000000e+01 0.000000000000e+00 0.000000000000e+00 5.360000000034e+04 0.000000000000e+00 0.000000000000e+00 
7.300000000000e+01 0.000000000000e+00 0.000000000000e+00 5.240000000033e+04 0.000000000000e+00 0.000000000000e+00 
7.400000000000e+01 0.000000000000e+00 0.000000000000e+00 5.120000000033e+04 0.000000000000e+00 0.000000000000e+00 
7.500000000000e+01 0.000000000000e+00 0.000000000000e+00 5.000000000032e+04 0.000000000000e+00 0.000000000000e+00 
7.600000000000e+01 0.000000000000e+00 0.000000000000e+00 4.880000000031e+04 0.000000000000e+00 0.000000000000e+00 
7.700000000000e+01 0.000000000000e+00 0.000000000000e+00 4.760000000030e+04 0.000000000000e+00 0.000000000000e+00 
7.800000000000e+01 0.000000000000e+00 0.000000000000e+00 4.640000000029e+04 0.000000000000e+00 0.000000000000e+00 
7.900000000000e+01 0.000000000000e+00 0.000000000000e+00 4.520000000028e+04 0.000000000000e+00 0.000000000000e+00 
8.000000000000e+01 0.000000000000e+00 0.000000000000e+00 4.400000000027e+04 0.000000000000e+00 0.000000000000e+00 
8.100000000000e+01 0.000000000000e+00 0.000000000000e+00 4.280000000026e+04 0.000000000000e+00 0.000000000000e+00 
8.200000000000e+01 0.000000000000e+00 0.000000000000e+00 4.160000000025e+04 0.000000000000e+00 0.000000000000e+00 
8.300000000000e+01 0.000000000000e+00 0.000000000000e+00 4.040000000024e+04 0.000000000000e+00 0.000000000000e+00 
8.400000000000e+01 0.000000000000e+00 0.000000000000e+00 3.920000000023e+04 0.000000000000e+00 0.000000000000e+00 
8.500000000000e+01 0.000000000000e+00 0.000000000000e+00 3.800000000021e+04 0.000000000000e+00 0.000000000000e+00 
8.600000000000e+01 0.000000000000e+00 0.000000000000e+00 3.680000000020e+04 0.000000000000e+00 0.000000000000e+00 
8.700000000000e+01 0.000000000000e+00 0.000000000000e+00 3.560000000019e+04 0.000000000000e+00 0.000000000000e+00 
8.800000000000e+01 0.000000000000e+00 0.000000000000e+00 3.440000000017e+04 0.000000000000e+00 0.000000000000e+00 
8.900000000000e+01 0.000000000000e+00 0.000000000000e+00 3.320000000016e+04 0.000000000000e+00 0.000000000000e+00 
9.000000000000e+01 0.000000000000e+00 0.000000000000e+00 3.200000000015e+04 0.000000000000e+00 0.000000000000e+00 
9.100000000000e+01 0.000000000000e+00 0.000000000000e+00 3.080000000013e+04 0.000000000000e+00 0.000000000000e+00 
9.200000000000e+01 0.000000000000e+00 0.000000000000e+00 2.960000000012e+04 0.000000000000e+00 0.000000000000e+00 
9.300000000000e+01 0.000000000000e+00 0.000000000000e+00 2.840000000010e+04 0.000000000000e+00 0.000000000000e+00 
9.400000000000e+01 0.000000000000e+00 0.000000000000e+00 2.720000000009e+04 0.000000000000e+00 0.000000000000e+00 
9.500000000000e+01 0.000000000000e+00 0.000000000000e+00 2.600000000008e+04 0.000000000000e+00 0.000000000000e+00 
9.600000000000e+01 0.000000000000e+00 0.000000000000e+00 2.480000000006e+04 0.000000000000e+00 0.000000000000e+00 
9.700000000000e+01 0.000000000000e+00 0.000000000000e+00 2.360000000005e+04 0.000000000000e+00 0.000000000000e+00 
9.800000000000e+01 0.000000000000e+00 0.000000000000e+00 2.240000000003e+04 0.000000000000e+00 0.000000000000e+00 
9.900000000000e+01 0.000000000000e+00 0.000000000000e+00 2.120000000002e+04 0.000000000000e+00 0.000000000000e+00 
1.000000000000e+02 0.000000000000e+00 0.000000000000e+00 2.000000000000e+04 0.000000000000e+00 0.000000000000e+00 
1  2  2  1
2  3  3  2
3  4  4  3
4  5  5  4
5  6  6  5
6  7  7  6
7  8  8  7
8  9  9  8
9  10  10  9
10  11  11  10
11  12  12  11
12  13  13  12
13  14  14  13
14  15  15  14
15  16  16  15
16  17  17  16
17  18  18  17
18  19  19  18
19  20  20  19
20  21  21  20
21  22  22  21
22  23  23  22
23  24  24  23
24  25  25  24
25  26  26  25
26  27  27  26
27  28  28  27
28  29  29  28
29  30  30  29
30  31  31  30
31  32  32  31
32  33  33  32
33  34  34  33
34  35  35  34
35  36  36  35
36  37  37  36
37  38  38  37
38  39  39  38
39  40  40  39
40  41  41  40
41  42  42  41
42  43  43  42
43  44  44  43
44  45  45  44
45  46  46  45
46  47  47  46
47  48  48  47
48  49  49  48
49  50  50  49
50  51  51  50
51  52  52  51
52  53  53  52
53  54  54  53
54  55  55  54
55  56  56  55
56  57  57  56
57  58  58  57
58  59  59  58
59  60  60  59
60  61  61  60
61  62  62  61
62  63  63  62
63  64  64  63
64  65  65  64
65  66  66  65
66  67  67  66
67  68  68  67
68  69  69  68
69  70  70  69
70  71  71  70
71  72  72  71
72  73  73  72
73  74  74  73
74  75  75  74
75  76  76  75
76  77  77  76
77  78  78  77
78  79  79  78
79  80  80  79
80  81  81  80
81  82  82  81
82  83  83  82
83  84  84  83
84  85  85  84
85  86  86  85
86  87  87  86
87  88  88  87
88  89  89  88
89  90  90  89
90  91  91  90
91  92  92  91
92  93  93  92
93  94  94  93
94  95  95  94
95  96  96  95
96  97  97  96
97  98  98  97
98  99  99  98
99  100  100  99
100  101  101  100
VARIABLES  = "X","Y","Z", "PRESSURE1", "SorbFr", "ConsTracer"
ZONE T="1.728000000000e+05s", N=101, E=100, F=FEPOINT, ET=QUADRILATERAL
STRANDID=1, SOLUTIONTIME=1.728000000000e+05
0.000000000000e+00 0.000000000000e+00 0.000000000000e+00 1.400000000000e+05 1.000000000000e+00 1.000000000000e+00 
1.000000000000e+00 0.000000000000e+00 0.000000000000e+00 1.388000000000e+05 8.615266543771e-01 8.699195393196e-01 
2.000000000000e+00 0.000000000000e+00 0.000000000000e+00 1.376000000000e+05 5.616510254223e-01 5.786371702851e-01 
3.000000000000e+00 0.000000000000e+00 0.000000000000e+00 1.364000000000e+05 3.261693785122e-01 3.438147754541e-01 
4.000000000000e+00 0.000000000000e+00 0.000000000000e+00 1.352000000000e+05 1.777166889411e-01 1.919018397904e-01 
5.000000000000e+00 0.000000000000e+00 0.000000000000e+00 1.340000000000e+05 9.298700445808e-02 1.029294626532e-01 
6.000000000000e+00 0.000000000000e+00 0.000000000000e+00 1.328000000001e+05 4.730789934973e-02 5.370503937503e-02 
7.000000000000e+00 0.000000000000e+00 0.000000000000e+00 1.316000000001e+05 2.357755249330e-02 2.745943826776e-02 
8.000000000000e+00 0.000000000000e+00 0.000000000000e+00 1.304000000001e+05 1.156667423228e-02 1.382397971125e-02 
9.000000000000e+00 0.000000000000e+00 0.000000000000e+00 1.292000000001e+05 5.603928363354e-03 6.874681268765e-03 
1.000000000000e+01 0.000000000000e+00 0.000000000000e+00 1.280000000001e+05 2.687642612381e-03 3.385013782417e-03 
1.100000000000e+01 0.000000000000e+00 0.000000000000e+00 1.268000000001e+05 1.278201743254e-03 1.653119022966e-03 
1.200000000000e+01 0.000000000000e+00 0.000000000000e+00 1.256000000001e+05 6.035999075844e-04 8.017742241347e-04 
1.300000000000e+01 0.000000000000e+00 0.000000000000e+00 1.244000000001e+05 2.833128592214e-04 3.865866038221e-04 
1.400000000000e+01 0.000000000000e+00 0.000000000000e+00 1.232000000001e+05 1.322829885173e-04 1.854553618096e-04 
1.500000000000e+01 0.000000000000e+00 0.000000000000e+00 1.220000000001e+05 6.148187049444e-05 8.857541804765e-05 
1.600000000000e+01 0.000000000000e+00 0.000000000000e+00 1.208000000001e+05 2.845957622895e-05 4.214054966071e-05 
1.700000000000e+01 0.000000000000e+00 0.000000000000e+00 1.196000000002e+05 1.312625955891e-05 1.997986845219e-05 
1.800000000000e+01 0.000000000000e+00 0.000000000000e+00 1.184000000002e+05 6.034569767092e-06 9.443906115753e-06 
1.900000000000e+01 0.000000000000e+00 0.000000000000e+00 1.172000000002e+05 2.766183877024e-06 4.451575360586e-06 
2.000000000000e+01 0.000000000000e+00 0.000000000000e+00 1.160000000002e+05 1.264625015383e-06 2.093125812465e-06 
2.100000000000e+01 0.000000000000e+00 0.000000000000e+00 1.148000000002e+05 5.767515004867e-07 9.819666788412e-07 
2.200000000000e+01 0.000000000000e+00 0.000000000000e+00 1.136000000002e+05 2.624513219524e-07 4.597321941923e-07 
2.300000000000e+01 0.000000000000e+00 0.000000000000e+00 1.124000000002e+05 1.191838869175e-07 2.148303770802e-07 
2.400000000000e+01 0.000000000000e+00 0.000000000000e+00 1.112000000002e+05 5.402085088906e-08 1.002156736490e-07 
2.500000000000e+01 0.000000000000e+00 0.000000000000e+00 1.100000000002e+05 2.444211976166e-08 4.667491675951e-08 
2.600000000000e+01 0.000000000000e+00 0.000000000000e+00 1.088000000002e+05 1.104082715854e-08 2.170658339335e-08 
2.700000000000e+01 0.000000000000e+00 0.000000000000e+00 1.076000000002e+05 4.979613266120e-09 1.008105039460e-08 