VARIABLES  = "X","Y","Z", "PRESSURE1", "PRESSURE2", "PRESSURE_W", "SATURATION1", SATURATION2, "VELOCITY_X1", "VELOCITY_Y1", "VELOCITY_X2", "VELOCITY_Y2"
ZONE T="0.000000000000e+00s", N=451, E=400, F=FEPOINT, ET=QUADRILATERAL
STRANDID=1, SOLUTIONTIME=0.000000000000e+00
0.000000000000e+00 0.000000000000e+00 0.000000000000e+00 1.875000000000e+06 1.013250000000e+05 -1.773675000000e+06 9.000000000000e-01 1.000000000000e-01 0.000000000000e+00 0.000000000000e+00 0.000000000000e+00 0.000000000000e+00 
5.000000000000e-03 0.000000000000e+00 0.000000000000e+00 1.875000000000e+06 1.013250000000e+05 -1.773675000000e+06 9.500000000000e-01 5.000000000000e-02 0.000000000000e+00 0.000000000000e+00 0.000000000000e+00 0.000000000000e+00 
5.000000000000e-03 5.000000000000e-03 0.000000000000e+00 1.875000000000e+06 1.013250000000e+05 -1.773675000000e+06 1.000000000000e+00 0.000000000000e+00 0.000000000000e+00 0.000000000000e+00 0.000000000000e+00 0.000000000000e+00 
0.000000000000e+00 5.000000000000e-03 0.000000000000e+00 1.875000000000e+06 1.013250000000e+05 -1.773675000000e+06 9.500000000000e-01 5.000000000000e-02 0.000000000000e+00 0.000000000000e+00 0.000000000000e+00 0.000000000000e+00 
5.000000000000e-03 1.000000000000e-02 0.000000000000e+00 1.875000000000e+06 1.013250000000e+05 -1.773675000000e+06 1.000000000000e+00 0.000000000000e+00 0.000000000000e+00 0.000000000000e+00 0.000000000000e+00 0.000000000000e+00 
0.000000000000e+00 1.000000000000e-02 0.000000000000e+00 1.875000000000e+06 1.013250000000e+05 -1.773675000000e+06 9.500000000000e-01 5.000000000000e-02 0.000000000000e+00 0.000000000000e+00 0.000000000000e+00 0.000000000000e+00 
5.000000000000e-03 1.500000000000e-02 0.000000000000e+00 1.875000000000e+06 1.013250000000e+05 -1.773675000000e+06 1.000000000000e+00 0.000000000000e+00 0.000000000000e+00 0.000000000000e+00 0.000000000000e+00 0.000000000000e+00 
0.000000000000e+00 1.500000000000e-02 0.000000000000e+00 1.875000000000e+06 1.013250000000e+05 -1.773675000000e+06 9.500000000000e-01 5.000000000000e-02 0.000000000000e+00 0.000000000000e+00 0.000000000000e+00 0.000000000000e+00 
5.000000000000e-03 2.000000000000e-02 0.000000000000e+00 1.875000000000e+06 1.013250000000e+05 -1.773675000000e+06 1.000000000000e+00 0.000000000000e+00 0.000000000000e+00 0.000000000000e+00 0.000000000000e+00 0.000000000000e+00 
0.000000000000e+00 2.000000000000e-02 0.000000000000e+00 1.875000000000e+06 1.013250000000e+05 -1.773675000000e+06 9.500000000000e-01 5.000000000000e-02 0.000000000000e+00 0.000000000000e+00 0.000000000000e+00 0.000000000000e+00 
5.000000000000e-03 2.500000000000e-02 0.000000000000e+00 1.875000000000e+06 1.013250000000e+05 -1.773675000000e+06 1.000000000000e+00 0.000000000000e+00 0.000000000000e+00 0.000000000000e+00 0.000000000000e+00 0.000000000000e+00 
0.000000000000e+00 2.500000000000e-02 0.000000000000e+00 1.875000000000e+06 1.013250000000e+05 -1.773675000000e+06 9.500000000000e-01 5.000000000000e-02 0.000000000000e+00 0.000000000000e+00 0.000000000000e+00 0.000000000000e+00 
5.000000000000e-03 3.000000000000e-02 0.000000000000e+00 1.875000000000e+06 1.013250000000e+05 -1.773675000000e+06 1.000000000000e+00 0.000000000000e+00 0.000000000000e+00 0.000000000000e+00 0.000000000000e+00 0.000000000000e+00 
0.000000000000e+00 3.000000000000e-02 0.000000000000e+00 1.875000000000e+06 1.013250000000e+05 -1.773675000000e+06 9.500000000000e-01 5.000000000000e-02 0.000000000000e+00 0.000000000000e+00 0.000000000000e+00 0.000000000000e+00 
5.000000000000e-03 3.500000000000e-02 0.000000000000e+00 1.875000000000e+06 1.013250000000e+05 -1.773675000000e+06 1.000000000000e+00 0.000000000000e+00 0.000000000000e+00 0.000000000000e+00 0.000000000000e+00 0.000000000000e+00 
0.000000000000e+00 3.500000000000e-02 0.000000000000e+00 1.875000000000e+06 1.013250000000e+05 -1.773675000000e+06 9.500000000000e-01 5.000000000000e-02 0.000000000000e+00 0.000000000000e+00 0.000000000000e+00 0.000000000000e+00 
5.000000000000e-03 4.000000000000e-02 0.000000000000e+00 1.875000000000e+06 1.013250000000e+05 -1.773675000000e+06 1.000000000000e+00 0.000000000000e+00 0.000000000000e+00 0.000000000000e+00 0.000000000000e+00 0.000000000000e+00 
0.000000000000e+00 4.000000000000e-02 0.000000000000e+00 1.875000000000e+06 1.013250000000e+05 -1.773675000000e+06 9.500000000000e-01 5.000000000000e-02 0.000000000000e+00 0.000000000000e+00 0.000000000000e+00 0.000000000000e+00 
5.000000000000e-03 4.500000000000e-02 0.000000000000e+00 1.875000000000e+06 1.013250000000e+05 -1.773675000000e+06 1.000000000000e+00 0.000000000000e+00 0.000000000000e+00 0.000000000000e+00 0.000000000000e+00 0.000000000000e+00 
0.000000000000e+00 4.500000000000e-02 0.000000000000e+00 1.875000000000e+06 1.013250000000e+05 -1.773675000000e+06 9.500000000000e-01 5.000000000000e-02 0.000000000000e+00 0.000000000000e+00 0.000000000000e+00 0.000000000000e+00 
5.000000000000e-03 5.000000000000e-02 0.000000000000e+00 1.875000000000e+06 1.013250000000e+05 -1.773675000000e+06 1.000000000000e+00 0.000000000000e+00 0.000000000000e+00 0.000000000000e+00 0.000000000000e+00 0.000000000000e+00 
0.000000000000e+00 5.000000000000e-02 0.000000000000e+00 1.875000000000e+06 1.013250000000e+05 -1.773675000000e+06 9.500000000000e-01 5.000000000000e-02 0.000000000000e+00 0.000000000000e+00 0.000000000000e+00 0.000000000000e+00 
5.000000000000e-03 5.500000000000e-02 0.000000000000e+00 1.875000000000e+06 1.013250000000e+05 -1.773675000000e+06 1.000000000000e+00 0.000000000000e+00 0.000000000000e+00 0.000000000000e+00 0.000000000000e+00 0.000000000000e+00 
0.000000000000e+00 5.500000000000e-02 0.000000000000e+00 1.875000000000e+06 1.013250000000e+05 -1.773675000000e+06 9.500000000000e-01 5.000000000000e-02 0.000000000000e+00 0.000000000000e+00 0.000000000000e+00 0.000000000000e+00 
5.000000000000e-03 6.000000000000e-02 0.000000000000e+00 1.875000000000e+06 1.013250000000e+05 -1.773675000000e+06 1.000000000000e+00 0.000000000000e+00 0.000000000000e+00 0.000000000000e+00 0.000000000000e+00 0.000000000000e+00 
0.000000000000e+00 6.000000000000e-02 0.000000000000e+00 1.875000000000e+06 1.013250000000e+05 -1.773675000000e+06 9.500000000000e-01 5.000000000000e-02 0.000000000000e+00 0.000000000000e+00 0.000000000000e+00 0.000000000000e+00 
5.000000000000e-03 6.500000000000e-02 0.000000000000e+00 1.875000000000e+06 1.013250000000e+05 -1.773675000000e+06 1.000000000000e+00 0.000000000000e+00 0.000000000000e+00 0.000000000000e+00 0.000000000000e+00 0.000000000000e+00 
0.000000000000e+00 6.500000000000e-02 0.000000000000e+00 1.875000000000e+06 1.013250000000e+05 -1.773675000000e+06 9.500000000000e-01 5.000000000000e-02 0.000000000000e+00 0.000000000000e+00 0.000000000000e+00 0.000000000000e+00 
5.000000000000e-03 7.000000000000e-02 0.000000000000e+00 1.875000000000e+06 1.013250000000e+05 -1.773675000000e+06 1.000000000000e+00 0.000000000000e+00 0.000000000000e+00 0.000000000000e+00 0.000000000000e+00 0.000000000000e+00 
0.000000000000e+00 7.000000000000e-02 0.000000000000e+00 1.875000000000e+06 1.013250000000e+05 -1.773675000000e+06 9.500000000000e-01 5.000000000000e-02 0.000000000000e+00 0.000000000000e+00 0.000000000000e+00 0.000000000000e+00 
5.000000000000e-03 7.500000000000e-02 0.000000000000e+00 1.875000000000e+06 1.013250000000e+05 -1.773675000000e+06 1.000000000000e+00 0.000000000000e+00 0.000000000000e+00 0.000000000000e+00 0.000000000000e+00 0.000000000000e+00 
0.000000000000e+00 7.500000000000e-02 0.000000000000e+00 1.875000000000e+06 1.013250000000e+05 -1.773675000000e+06 9.500000000000e-01 5.000000000000e-02 0.000000000000e+00 0.000000000000e+00 0.000000000000e+00 0.000000000000e+00 
5.000000000000e-03 8.000000000000e-02 0.000000000000e+00 1.875000000000e+06 1.013250000000e+05 -1.773675000000e+06 1.000000000000e+00 0.000000000000e+00 0.000000000000e+00 0.000000000000e+00 0.000000000000e+00 0.000000000000e+00 
0.000000000000e+00 8.000000000000e-02 0.000000000000e+00 1.875000000000e+06 1.013250000000e+05 -1.773675000000e+06 9.500000000000e-01 5.000000000000e-02 0.000000000000e+00 0.000000000000e+00 0.000000000000e+00 0.000000000000e+00 
5.000000000000e-03 8.500000000000e-02 0.000000000000e+00 1.875000000000e+06 1.013250000000e+05 -1.773675000000e+06 1.000000000000e+00 0.000000000000e+00 0.000000000000e+00 0.000000000000e+00 0.000000000000e+00 0.000000000000e+00 
0.000000000000e+00 8.500000000000e-02 0.000000000000e+00 1.875000000000e+06 1.013250000000e+05 -1.773675000000e+06 9.500000000000e-01 5.000000000000e-02 0.000000000000e+00 0.000000000000e+00 0.000000000000e+00 0.000000000000e+00 
5.000000000000e-03 9.000000000000e-02 0.000000000000e+00 1.875000000000e+06 1.013250000000e+05 -1.773675000000e+06 1.000000000000e+00 0.000000000000e+00 0.000000000000e+00 0.000000000000e+00 0.000000000000e+00 0.000000000000e+00 
0.000000000000e+00 9.000000000000e-02 0.000000000000e+00 1.875000000000e+06 1.013250000000e+05 -1.773675000000e+06 9.500000000000e-01 5.000000000000e-02 0.000000000000e+00 0.000000000000e+00 0.000000000000e+00 0.000000000000e+00 
5.000000000000e-03 9.500000000000e-02 0.000000000000e+00 1.875000000000e+06 1.013250000000e+05 -1.773675000000e+06 1.000000000000e+00 0.000000000000e+00 0.000000000000e+00 0.000000000000e+00 0.000000000000e+00 0.000000000000e+00 
0.000000000000e+00 9.500000000000e-02 0.000000000000e+00 1.875000000000e+06 1.013250000000e+05 -1.773675000000e+06 9.500000000000e-01 5.000000000000e-02 0.000000000000e+00 0.000000000000e+00 0.000000000000e+00 0.000000000000e+00 
5.000000000000e-03 1.000000000000e-01 0.000000000000e+00 1.875000000000e+06 1.013250000000e+05 -1.773675000000e+06 1.000000000000e+00 0.000000000000e+00 0.000000000000e+00 0.000000000000e+00 0.000000000000e+00 0.000000000000e+00 
0.000000000000e+00 1.000000000000e-01 0.000000000000e+00 1.875000000000e+06 1.013250000000e+05 -1.773675000000e+06 9.500000000000e-01 5.000000000000e-02 0.000000000000e+00 0.000000000000e+00 0.000000000000e+00 0.000000000000e+00 
5.000000000000e-03 1.050000000000e-01 0.000000000000e+00 1.875000000000e+06 1.013250000000e+05 -1.773675000000e+06 1.000000000000e+00 0.000000000000e+00 0.000000000000e+00 0.000000000000e+00 0.000000000000e+00 0.000000000000e+00 
0.000000000000e+00 1.050000000000e-01 0.000000000000e+00 1.875000000000e+06 1.013250000000e+05 -1.773675000000e+06 9.500000000000e-01 5.000000000000e-02 0.000000000000e+00 0.000000000000e+00 0.000000000000e+00 0.000000000000e+00 
5.000000000000e-03 1.100000000000e-01 0.000000000000e+00 1.875000000000e+06 1.013250000000e+05 -1.773675000000e+06 1.000000000000e+00 0.000000000000e+00 0.000000000000e+00 0.000000000000e+00 0.000000000000e+00 0.000000000000e+00 
0.000000000000e+00 1.100000000000e-01 0.000000000000e+00 1.875000000000e+06 1.013250000000e+05 -1.773675000000e+06 9.500000000000e-01 5.000000000000e-02 0.000000000000e+00 0.000000000000e+00 0.000000000000e+00 0.000000000000e+00 
5.000000000000e-03 1.150000000000e-01 0.000000000000e+00 1.875000000000e+06 1.013250000000e+05 -1.773675000000e+06 1.000000000000e+00 0.000000000000e+00 0.000000000000e+00 0.000000000000e+00 0.000000000000e+00 0.000000000000e+00 
0.000000000000e+00 1.150000000000e-01 0.000000000000e+00 1.875000000000e+06 1.013250000000e+05 -1.773675000000e+06 9.500000000000e-01 5.000000000000e-02 0.000000000000e+00 0.000000000000e+00 0.000000000000e+00 0.000000000000e+00 
5.000000000000e-03 1.200000000000e-01 0.000000000000e+00 1.875000000000e+06 1.013250000000e+05 -1.773675000000e+06 1.000000000000e+00 0.000000000000e+00 0.000000000000e+00 0.000000000000e+00 0.000000000000e+00 0.000000000000e+00 
0.000000000000e+00 1.200000000000e-01 0.000000000000e+00 1.875000000000e+06 1.013250000000e+05 -1.773675000000e+06 9.500000000000e-01 5.000000000000e-02 0.000000000000e+00 0.000000000000e+00 0.000000000000e+00 0.000000000000e+00 
5.000000000000e-03 1.250000000000e-01 0.000000000000e+00 1.875000000000e+06 1.013250000000e+05 -1.773675000000e+06 1.000000000000e+00 0.000000000000e+00 0.000000000000e+00 0.000000000000e+00 0.000000000000e+00 0.000000000000e+00 
0.000000000000e+00 1.250000000000e-01 0.000000000000e+00 1.875000000000e+06 1.013250000000e+05 -1.773675000000e+06 9.500000000000e-01 5.000000000000e-02 0.000000000000e+00 0.000000000000e+00 0.000000000000e+00 0.000000000000e+00 
5.000000000000e-03 1.300000000000e-01 0.000000000000e+00 1.875000000000e+06 1.013250000000e+05 -1.773675000000e+06 1.000000000000e+00 0.000000000000e+00 0.000000000000e+00 0.000000000000e+00 0.000000000000e+00 0.000000000000e+00 
0.000000000000e+00 1.300000000000e-01 0.000000000000e+00 1.875000000000e+06 1.013250000000e+05 -1.773675000000e+06 9.500000000000e-01 5.000000000000e-02 0.000000000000e+00 0.000000000000e+00 0.000000000000e+00 0.000000000000e+00 
5.000000000000e-03 1.350000000000e-01 0.000000000000e+00 1.875000000000e+06 1.013250000000e+05 -1.773675000000e+06 1.000000000000e+00 0.000000000000e+00 0.000000000000e+00 0.000000000000e+00 0.000000000000e+00 0.000000000000e+00 
0.000000000000e+00 1.350000000000e-01 0.000000000000e+00 1.875000000000e+06 1.013250000000e+05 -1.773675000000e+06 9.500000000000e-01 5.000000000000e-02 0.000000000000e+00 0.000000000000e+00 0.000000000000e+00 0.000000000000e+00 
5.000000000000e-03 1.400000000000e-01 0.000000000000e+00 1.875000000000e+06 1.013250000000e+05 -1.773675000000e+06 1.000000000000e+00 0.000000000000e+00 0.000000000000e+00 0.000000000000e+00 0.000000000000e+00 0.000000000000e+00 
0.000000000000e+00 1.400000000000e-01 0.000000000000e+00 1.875000000000e+06 1.013250000000e+05 -1.773675000000e+06 9.500000000000e-01 5.000000000000e-02 0.000000000000e+00 0.000000000000e+00 0.000000000000e+00 0.000000000000e+00 
5.000000000000e-03 1.450000000000e-01 0.000000000000e+00 1.875000000000e+06 1.013250000000e+05 -1.773675000000e+06 1.000000000000e+00 0.000000000000e+00 0.000000000000e+00 0.000000000000e+00 0.000000000000e+00 0.000000000000e+00 
0.000000000000e+00 1.450000000000e-01 0.000000000000e+00 1.875000000000e+06 1.013250000000e+05 -1.773675000000e+06 9.500000000000e-01 5.000000000000e-02 0.000000000000e+00 0.000000000000e+00 0.000000000000e+00 0.000000000000e+00 
5.000000000000e-03 1.500000000000e-01 0.000000000000e+00 1.875000000000e+06 1.013250000000e+05 -1.773675000000e+06 1.000000000000e+00 0.000000000000e+00 0.000000000000e+00 0.000000000000e+00 0.000000000000e+00 0.000000000000e+00 
0.000000000000e+00 1.500000000000e-01 0.000000000000e+00 1.875000000000e+06 1.013250000000e+05 -1.773675000000e+06 9.500000000000e-01 5.000000000000e-02 0.000000000000e+00 0.000000000000e+00 0.000000000000e+00 0.000000000000e+00 
5.000000000000e-03 1.550000000000e-01 0.000000000000e+00 1.875000000000e+06 1.013250000000e+05 -1.773675000000e+06 1.000000000000e+00 0.000000000000e+00 0.000000000000e+00 0.000000000000e+00 0.000000000000e+00 0.000000000000e+00 
0.000000000000e+00 1.550000000000e-01 0.000000000000e+00 1.875000000000e+06 1.013250000000e+05 -1.773675000000e+06 9.500000000000e-01 5.000000000000e-02 0.000000000000e+00 0.000000000000e+00 0.000000000000e+00 0.000000000000e+00 
5.000000000000e-03 1.600000000000e-01 0.000000000000e+00 1.875000000000e+06 1.013250000000e+05 -1.773675000000e+06 1.000000000000e+00 0.000000000000e+00 0.000000000000e+00 0.000000000000e+00 0.000000000000e+00 0.000000000000e+00 
0.000000000000e+00 1.600000000000e-01 0.000000000000e+00 1.875000000000e+06 1.013250000000e+05 -1.773675000000e+06 9.500000000000e-01 5.000000000000e-02 0.000000000000e+00 0.000000000000e+00 0.000000000000e+00 0.000000000000e+00 
5.000000000000e-03 1.650000000000e-01 0.000000000000e+00 1.875000000000e+06 1.013250000000e+05 -1.773675000000e+06 1.000000000000e+00 0.000000000000e+00 0.000000000000e+00 0.000000000000e+00 0.000000000000e+00 0.000000000000e+00 
0.000000000000e+00 1.650000000000e-01 0.000000000000e+00 1.875000000000e+06 1.013250000000e+05 -1.773675000000e+06 9.500000000000e-01 5.000000000000e-02 0.000000000000e+00 0.000000000000e+00 0.000000000000e+00 0.000000000000e+00 
5.000000000000e-03 1.700000000000e-01 0.000000000000e+00 1.875000000000e+06 1.013250000000e+05 -1.773675000000e+06 1.000000000000e+00 0.000000000000e+00 0.000000000000e+00 0.000000000000e+00 0.000000000000e+00 0.000000000000e+00 
0.000000000000e+00 1.700000000000e-01 0.000000000000e+00 1.875000000000e+06 1.013250000000e+05 -1.773675000000e+06 9.500000000000e-01 5.000000000000e-02 0.000000000000e+00 0.000000000000e+00 0.000000000000e+00 0.000000000000e+00 
5.000000000000e-03 1.750000000000e-01 0.000000000000e+00 1.875000000000e+06 1.013250000000e+05 -1.773675000000e+06 1.000000000000e+00 0.000000000000e+00 0.000000000000e+00 0.000000000000e+00 0.000000000000e+00 0.000000000000e+00 
0.000000000000e+00 1.750000000000e-01 0.000000000000e+00 1.875000000000e+06 1.013250000000e+05 -1.773675000000e+06 9.500000000000e-01 5.000000000000e-02 0.000000000000e+00 0.000000000000e+00 0.000000000000e+00 0.000000000000e+00 
5.000000000000e-03 1.800000000000e-01 0.000000000000e+00 1.875000000000e+06 1.013250000000e+05 -1.773675000000e+06 1.000000000000e+00 0.000000000000e+00 0.000000000000e+00 0.000000000000e+00 0.000000000000e+00 0.000000000000e+00 
0.000000000000e+00 1.800000000000e-01 0.000000000000e+00 1.875000000000e+06 1.013250000000e+05 -1.773675000000e+06 9.500000000000e-01 5.000000000000e-02 0.000000000000e+00 0.000000000000e+00 0.000000000000e+00 0.000000000000e+00 
5.000000000000e-03 1.850000000000e-01 0.000000000000e+00 1.875000000000e+06 1.013250000000e+05 -1.773675000000e+06 1.000000000000e+00 0.000000000000e+00 0.000000000000e+00 0.000000000000e+00 0.000000000000e+00 0.000000000000e+00 
0.000000000000e+00 1.850000000000e-01 0.000000000000e+00 1.875000000000e+06 1.013250000000e+05 -1.773675000000e+06 9.500000000000e-01 5.000000000000e-02 0.000000000000e+00 0.000000000000e+00 0.000000000000e+00 0.000000000000e+00 
5.000000000000e-03 1.900000000000e-01 0.000000000000e+00 1.875000000000e+06 1.013250000000e+05 -1.773675000000e+06 1.000000000000e+00 0.000000000000e+00 0.000000000000e+00 0.000000000000e+00 0.000000000000e+00 0.000000000000e+00 
0.000000000000e+00 1.900000000000e-01 0.000000000000e+00 1.875000000000e+06 1.013250000000e+05 -1.773675000000e+06 9.500000000000e-01 5.000000000000e-02 0.000000000000e+00 0.000000000000e+00 0.000000000000e+00 0.000000000000e+00 
5.000000000000e-03 1.950000000000e-01 0.000000000000e+00 1.875000000000e+06 1.013250000000e+05 -1.773675000000e+06 1.000000000000e+00 0.000000000000e+00 0.000000000000e+00 0.000000000000e+00 0.000000000000e+00 0.000000000000e+00 
0.000000000000e+00 1.950000000000e-01 0.000000000000e+00 1.875000000000e+06 1.013250000000e+05 -1.773675000000e+06 9.500000000000e-01 5.000000000000e-02 0.000000000000e+00 0.000000000000e+00 0.000000000000e+00 0.000000000000e+00 
5.000000000000e-03 2.000000000000e-01 0.000000000000e+00 1.875000000000e+06 1.013250000000e+05 -1.773675000000e+06 9.500000000000e-01 5.000000000000e-02 0.000000000000e+00 0.000000000000e+00 0.000000000000e+00 0.000000000000e+00 
0.000000000000e+00 2.000000000000e-01 0.000000000000e+00 1.875000000000e+06 1.013250000000e+05 -1.773675000000e+06 9.000000000000e-01 1.000000000000e-01 0.000000000000e+00 0.000000000000e+00 0.000000000000e+00 0.000000000000e+00 
1.000000000000e-02 0.000000000000e+00 0.000000000000e+00 1.875000000000e+06 1.013250000000e+05 -1.773675000000e+06 9.500000000000e-01 5.000000000000e-02 0.000000000000e+00 0.000000000000e+00 0.000000000000e+00 0.000000000000e+00 
1.000000000000e-02 5.000000000000e-03 0.000000000000e+00 1.875000000000e+06 1.013250000000e+05 -1.773675000000e+06 1.000000000000e+00 0.000000000000e+00 0.000000000000e+00 0.000000000000e+00 0.000000000000e+00 0.000000000000e+00 
1.000000000000e-02 1.000000000000e-02 0.000000000000e+00 1.875000000000e+06 1.013250000000e+05 -1.773675000000e+06 1.000000000000e+00 0.000000000000e+00 0.000000000000e+00 0.000000000000e+00 0.000000000000e+00 0.000000000000e+00 
1.000000000000e-02 1.500000000000e-02 0.000000000000e+00 1.875000000000e+06 1.013250000000e+05 -1.773675000000e+06 1.000000000000e+00 0.000000000000e+00 0.000000000000e+00 0.000000000000e+00 0.000000000000e+00 0.000000000000e+00 
1.000000000000e-02 2.000000000000e-02 0.000000000000e+00 1.875000000000e+06 1.013250000000e+05 -1.773675000000e+06 1.000000000000e+00 0.000000000000e+00 0.000000000000e+00 0.000000000000e+00 0.000000000000e+00 0.000000000000e+00 
1.000000000000e-02 2.500000000000e-02 0.000000000000e+00 1.875000000000e+06 1.013250000000e+05 -1.773675000000e+06 1.000000000000e+00 0.000000000000e+00 0.000000000000e+00 0.000000000000e+00 0.000000000000e+00 0.000000000000e+00 
1.000000000000e-02 3.000000000000e-02 0.000000000000e+00 1.875000000000e+06 1.013250000000e+05 -1.773675000000e+06 1.000000000000e+00 0.000000000000e+00 0.000000000000e+00 0.000000000000e+00 0.000000000000e+00 0.000000000000e+00 
1.000000000000e-02 3.500000000000e-02 0.000000000000e+00 1.875000000000e+06 1.013250000000e+05 -1.773675000000e+06 1.000000000000e+00 0.000000000000e+00 0.000000000000e+00 0.000000000000e+00 0.000000000000e+00 0.000000000000e+00 
1.000000000000e-02 4.000000000000e-02 0.000000000000e+00 1.875000000000e+06 1.013250000000e+05 -1.773675000000e+06 1.000000000000e+00 0.000000000000e+00 0.000000000000e+00 0.000000000000e+00 0.000000000000e+00 0.000000000000e+00 
1.000000000000e-02 4.500000000000e-02 0.000000000000e+00 1.875000000000e+06 1.013250000000e+05 -1.773675000000e+06 1.000000000000e+00 0.000000000000e+00 0.000000000000e+00 0.000000000000e+00 0.000000000000e+00 0.000000000000e+00 
1.000000000000e-02 5.000000000000e-02 0.000000000000e+00 1.875000000000e+06 1.013250000000e+05 -1.773675000000e+06 1.000000000000e+00 0.000000000000e+00 0.000000000000e+00 0.000000000000e+00 0.000000000000e+00 0.000000000000e+00 
1.000000000000e-02 5.500000000000e-02 0.000000000000e+00 1.875000000000e+06 1.013250000000e+05 -1.773675000000e+06 1.000000000000e+00 0.000000000000e+00 0.000000000000e+00 0.000000000000e+00 0.000000000000e+00 0.000000000000e+00 
1.000000000000e-02 6.000000000000e-02 0.000000000000e+00 1.875000000000e+06 1.013250000000e+05 -1.773675000000e+06 1.000000000000e+00 0.000000000000e+00 0.000000000000e+00 0.000000000000e+00 0.000000000000e+00 0.000000000000e+00 
1.000000000000e-02 6.500000000000e-02 0.000000000000e+00 1.875000000000e+06 1.013250000000e+05 -1.773675000000e+06 1.000000000000e+00 0.000000000000e+00 0.000000000000e+00 0.000000000000e+00 0.000000000000e+00 0.000000000000e+00 
1.000000000000e-02 7.000000000000e-02 0.000000000000e+00 1.875000000000e+06 1.013250000000e+05 -1.773675000000e+06 1.000000000000e+00 0.000000000000e+00 0.000000000000e+00 0.000000000000e+00 0.000000000000e+00 0.000000000000e+00 
1.000000000000e-02 7.500000000000e-02 0.000000000000e+00 1.875000000000e+06 1.013250000000e+05 -1.773675000000e+06 1.000000000000e+00 0.000000000000e+00 0.000000000000e+00 0.000000000000e+00 0.000000000000e+00 0.000000000000e+00 
1.000000000000e-02 8.000000000000e-02 0.000000000000e+00 1.875000000000e+06 1.013250000000e+05 -1.773675000000e+06 1.000000000000e+00 0.000000000000e+00 0.000000000000e+00 0.000000000000e+00 0.000000000000e+00 0.000000000000e+00 
1.000000000000e-02 8.500000000000e-02 0.000000000000e+00 1.875000000000e+06 1.013250000000e+05 -1.773675000000e+06 1.000000000000e+00 0.000000000000e+00 0.000000000000e+00 0.000000000000e+00 0.000000000000e+00 0.000000000000e+00 
1.000000000000e-02 9.000000000000e-02 0.000000000000e+00 1.875000000000e+06 1.013250000000e+05 -1.773675000000e+06 1.000000000000e+00 0.000000000000e+00 0.000000000000e+00 0.000000000000e+00 0.000000000000e+00 0.000000000000e+00 
1.000000000000e-02 9.500000000000e-02 0.000000000000e+00 1.875000000000e+06 1.013250000000e+05 -1.773675000000e+06 1.000000000000e+00 0.000000000000e+00 0.000000000000e+00 0.000000000000e+00 0.000000000000e+00 0.000000000000e+00 
1.000000000000e-02 1.000000000000e-01 0.000000000000e+00 1.875000000000e+06 1.013250000000e+05 -1.773675000000e+06 1.000000000000e+00 0.000000000000e+00 0.000000000000e+00 0.000000000000e+00 0.000000000000e+00 0.000000000000e+00 
1.000000000000e-02 1.050000000000e-01 0.000000000000e+00 1.875000000000e+06 1.013250000000e+05 -1.773675000000e+06 1.000000000000e+00 0.000000000000e+00 0.000000000000e+00 0.000000000000e+00 0.000000000000e+00 0.000000000000e+00 
1.000000000000e-02 1.100000000000e-01 0.000000000000e+00 1.875000000000e+06 1.013250000000e+05 -1.773675000000e+06 1.000000000000e+00 0.000000000000e+00 0.000000000000e+00 0.000000000000e+00 0.000000000000e+00 0.000000000000e+00 
1.000000000000e-02 1.150000000000e-01 0.000000000000e+00 1.875000000000e+06 1.013250000000e+05 -1.773675000000e+06 1.000000000000e+00 0.000000000000e+00 0.000000000000e+00 0.000000000000e+00 0.000000000000e+00 0.000000000000e+00 
1.000000000000e-02 1.200000000000e-01 0.000000000000e+00 1.875000000000e+06 1.013250000000e+05 -1.773675000000e+06 1.000000000000e+00 0.000000000000e+00 0.000000000000e+00 0.000000000000e+00 0.000000000000e+00 0.000000000000e+00 
1.000000000000e-02 1.250000000000e-01 0.000000000000e+00 1.875000000000e+06 1.013250000000e+05 -1.773675000000e+06 1.000000000000e+00 0.000000000000e+00 0.000000000000e+00 0.000000000000e+00 0.000000000000e+00 0.000000000000e+00 
1.000000000000e-02 1.300000000000e-01 0.000000000000e+00 1.875000000000e+06 1.013250000000e+05 -1.773675000000e+06 1.000000000000e+00 0.000000000000e+00 0.000000000000e+00 0.000000000000e+00 0.000000000000e+00 0.000000000000e+00 
1.000000000000e-02 1.350000000000e-01 0.000000000000e+00 1.875000000000e+06 1.013250000000e+05 -1.773675000000e+06 1.000000000000e+00 0.000000000000e+00 0.000000000000e+00 0.000000000000e+00 0.000000000000e+00 0.000000000000e+00 
1.000000000000e-02 1.400000000000e-01 0.000000000000e+00 1.875000000000e+06 1.013250000000e+05 -1.773675000000e+06 1.000000000000e+00 0.000000000000e+00 0.000000000000e+00 0.000000000000e+00 0.000000000000e+00 0.000000000000e+00 
1.000000000000e-02 1.450000000000e-01 0.000000000000e+00 1.875000000000e+06 1.013250000000e+05 -1.773675000000e+06 1.000000000000e+00 0.000000000000e+00 0.000000000000e+00 0.000000000000e+00 0.000000000000e+00 0.000000000000e+00 
1.000000000000e-02 1.500000000000e-01 0.000000000000e+00 1.875000000000e+06 1.013250000000e+05 -1.773675000000e+06 1.000000000000e+00 0.000000000000e+00 0.000000000000e+00 0.000000000000e+00 0.000000000000e+00 0.000000000000e+00 
1.000000000000e-02 1.550000000000e-01 0.000000000000e+00 1.875000000000e+06 1.013250000000e+05 -1.773675000000e+06 1.000000000000e+00 0.000000000000e+00 0.000000000000e+00 0.000000000000e+00 0.000000000000e+00 0.000000000000e+00 
1.000000000000e-02 1.600000000000e-01 0.000000000000e+00 1.875000000000e+06 1.013250000000e+05 -1.773675000000e+06 1.000000000000e+00 0.000000000000e+00 0.000000000000e+00 0.000000000000e+00 0.000000000000e+00 0.000000000000e+00 
1.000000000000e-02 1.650000000000e-01 0.000000000000e+00 1.875000000000e+06 1.013250000000e+05 -1.773675000000e+06 1.000000000000e+00 0.000000000000e+00 0.000000000000e+00 0.000000000000e+00 0.000000000000e+00 0.000000000000e+00 
1.000000000000e-02 1.700000000000e-01 0.000000000000e+00 1.875000000000e+06 1.013250000000e+05 -1.773675000000e+06 1.000000000000e+00 0.000000000000e+00 0.000000000000e+00 0.000000000000e+00 0.000000000000e+00 0.000000000000e+00 
1.000000000000e-02 1.750000000000e-01 0.000000000000e+00 1.875000000000e+06 1.013250000000e+05 -1.773675000000e+06 1.000000000000e+00 0.000000000000e+00 0.000000000000e+00 0.000000000000e+00 0.000000000000e+00 0.000000000000e+00 
1.000000000000e-02 1.800000000000e-01 0.000000000000e+00 1.875000000000e+06 1.013250000000e+05 -1.773675000000e+06 1.000000000000e+00 0.000000000000e+00 0.000000000000e+00 0.000000000000e+00 0.000000000000e+00 0.000000000000e+00 
1.000000000000e-02 1.850000000000e-01 0.000000000000e+00 1.875000000000e+06 1.013250000000e+05 -1.773675000000e+06 1.000000000000e+00 0.000000000000e+00 0.000000000000e+00 0.000000000000e+00 0.000000000000e+00 0.000000000000e+00 
1.000000000000e-02 1.900000000000e-01 0.000000000000e+00 1.875000000000e+06 1.013250000000e+05 -1.773675000000e+06 1.000000000000e+00 0.000000000000e+00 0.000000000000e+00 0.000000000000e+00 0.000000000000e+00 0.000000000000e+00 
1.000000000000e-02 1.950000000000e-01 0.000000000000e+00 1.875000000000e+06 1.013250000000e+05 -1.773675000000e+06 1.000000000000e+00 0.000000000000e+00 0.000000000000e+00 0.000000000000e+00 0.000000000000e+00 0.000000000000e+00 
1.000000000000e-02 2.000000000000e-01 0.000000000000e+00 1.875000000000e+06 1.013250000000e+05 -1.773675000000e+06 9.500000000000e-01 5.000000000000e-02 0.000000000000e+00 0.000000000000e+00 0.000000000000e+00 0.000000000000e+00 
1.500000000000e-02 0.000000000000e+00 0.000000000000e+00 1.875000000000e+06 1.013250000000e+05 -1.773675000000e+06 9.500000000000e-01 5.000000000000e-02 0.000000000000e+00 0.000000000000e+00 0.000000000000e+00 0.000000000000e+00 
1.500000000000e-02 5.000000000000e-03 0.000000000000e+00 1.875000000000e+06 1.013250000000e+05 -1.773675000000e+06 1.000000000000e+00 0.000000000000e+00 0.000000000000e+00 0.000000000000e+00 0.000000000000e+00 0.000000000000e+00 
1.500000000000e-02 1.000000000000e-02 0.000000000000e+00 1.875000000000e+06 1.013250000000e+05 -1.773675000000e+06 1.000000000000e+00 0.000000000000e+00 0.000000000000e+00 0.000000000000e+00 0.000000000000e+00 0.000000000000e+00 
1.500000000000e-02 1.500000000000e-02 0.000000000000e+00 1.875000000000e+06 1.013250000000e+05 -1.773675000000e+06 1.000000000000e+00 0.000000000000e+00 0.000000000000e+00 0.000000000000e+00 0.000000000000e+00 0.000000000000e+00 
1.500000000000e-02 2.000000000000e-02 0.000000000000e+00 1.875000000000e+06 1.013250000000e+05 -1.773675000000e+06 1.000000000000e+00 0.000000000000e+00 0.000000000000e+00 0.000000000000e+00 0.000000000000e+00 0.000000000000e+00 
1.500000000000e-02 2.500000000000e-02 0.000000000000e+00 1.875000000000e+06 1.013250000000e+05 -1.773675000000e+06 1.000000000000e+00 0.000000000000e+00 0.000000000000e+00 0.000000000000e+00 0.000000000000e+00 0.000000000000e+00 