# vtk DataFile Version 3.0
Unstructured Grid from OpenGeoSys-GEM
ASCII
DATASET UNSTRUCTURED_GRID
FIELD TimesAndCycles 2
TIME 1 1 double
11.4359
CYCLE 1 1 long
8
POINTS 1915 double
0 0 -0.00125 
0 0 -0.00375 
0 0 -0.00625 
0 0 -0.00875 
0 0 -0.01125 
0 0 -0.01375 
0 0 -0.01625 
0 0 -0.01875 
0 0 -0.02125 
0 0 -0.005 
0 0 -0.0025 
0 0 -0.0225 
0 0 -0.0175 
0 0 -0.0125 
0 0 -0.0075 
0 0 0 
0 0 -0.02 
0 0 -0.015 
0 0 -0.01 
0 0 0.005 
0.005 0 0.005 
0.01 0 0.005 
0.015 0 0.005 
0.02 0 0.005 
0.025 0 0.005 
0.005 0 0 
0.01 0 0 
0.015 0 0 
0.02 0 0 
0.025 0 0 
0.0025 0 0.005 
0.005 0 0.0025 
0.0025 0 0 
0 0 0.0025 
0.0025 0 0.0025 
0.0075 0 0.005 
0.01 0 0.0025 
0.0075 0 0 
0.0075 0 0.0025 
0.0125 0 0.005 
0.015 0 0.0025 
0.0125 0 0 
0.0125 0 0.0025 
0.0175 0 0.005 
0.02 0 0.0025 
0.0175 0 0 
0.0175 0 0.0025 
0.0225 0 0.005 
0.025 0 0.0025 
0.0225 0 0 
0.0225 0 0.0025 
0.00125 0 0.005 
0.0025 0 0.00375 
0.00125 0 0.0025 
0 0 0.00375 
0.00125 0 0.00375 
0.00375 0 0.005 
0.005 0 0.00375 
0.00375 0 0.0025 
0.00375 0 0.00375 
0.005 0 0.00125 
0.00375 0 0 
0.0025 0 0.00125 
0.00375 0 0.00125 
0.00125 0 0 
0 0 0.00125 
0.00125 0 0.00125 
0.00625 0 0.005 
0.0075 0 0.00375 
0.00625 0 0.0025 
0.00625 0 0.00375 
0.00875 0 0.005 
0.01 0 0.00375 
0.00875 0 0.0025 
0.00875 0 0.00375 
0.01 0 0.00125 
0.00875 0 0 
0.0075 0 0.00125 
0.00875 0 0.00125 
0.00625 0 0 
0.00625 0 0.00125 
0.01125 0 0.005 
0.0125 0 0.00375 
0.01125 0 0.0025 
0.01125 0 0.00375 
0.01375 0 0.005 
0.015 0 0.00375 
0.01375 0 0.0025 
0.01375 0 0.00375 
0.015 0 0.00125 
0.01375 0 0 
0.0125 0 0.00125 
0.01375 0 0.00125 
0.01125 0 0 
0.01125 0 0.00125 
0.01625 0 0.005 
0.0175 0 0.00375 
0.01625 0 0.0025 
0.01625 0 0.00375 
0.01875 0 0.005 
0.02 0 0.00375 
0.01875 0 0.0025 
0.01875 0 0.00375 
0.02 0 0.00125 
0.01875 0 0 
0.0175 0 0.00125 
0.01875 0 0.00125 
0.01625 0 0 
0.01625 0 0.00125 
0.02125 0 0.005 
0.0225 0 0.00375 
0.02125 0 0.0025 
0.02125 0 0.00375 
0.02375 0 0.005 
0.025 0 0.00375 
0.02375 0 0.0025 
0.02375 0 0.00375 
0.025 0 0.00125 
0.02375 0 0 
0.0225 0 0.00125 
0.02375 0 0.00125 
0.02125 0 0 
0.02125 0 0.00125 
0.005 0 -0.005 
0.01 0 -0.005 
0.015 0 -0.005 
0.02 0 -0.005 
0.025 0 -0.005 
0.005 0 -0.01 
0.01 0 -0.01 
0.015 0 -0.01 
0.02 0 -0.01 
0.025 0 -0.01 
0.005 0 -0.015 
0.01 0 -0.015 
0.015 0 -0.015 
0.02 0 -0.015 
0.025 0 -0.015 
0.005 0 -0.02 
0.01 0 -0.02 
0.015 0 -0.02 
0.02 0 -0.02 
0.025 0 -0.02 
0.005 0 -0.0025 
0.0025 0 -0.005 
0.0025 0 -0.0025 
0.01 0 -0.0025 
0.0075 0 -0.005 
0.0075 0 -0.0025 
0.015 0 -0.0025 
0.0125 0 -0.005 
0.0125 0 -0.0025 
0.02 0 -0.0025 
0.0175 0 -0.005 
0.0175 0 -0.0025 
0.025 0 -0.0025 
0.0225 0 -0.005 
0.0225 0 -0.0025 
0.005 0 -0.0075 
0.0025 0 -0.01 
0.0025 0 -0.0075 
0.01 0 -0.0075 
0.0075 0 -0.01 
0.0075 0 -0.0075 
0.015 0 -0.0075 
0.0125 0 -0.01 
0.0125 0 -0.0075 
0.02 0 -0.0075 
0.0175 0 -0.01 
0.0175 0 -0.0075 
0.025 0 -0.0075 
0.0225 0 -0.01 
0.0225 0 -0.0075 
0.005 0 -0.0125 
0.0025 0 -0.015 
0.0025 0 -0.0125 
0.01 0 -0.0125 
0.0075 0 -0.015 
0.0075 0 -0.0125 
0.015 0 -0.0125 
0.0125 0 -0.015 
0.0125 0 -0.0125 
0.02 0 -0.0125 
0.0175 0 -0.015 
0.0175 0 -0.0125 
0.025 0 -0.0125 
0.0225 0 -0.015 
0.0225 0 -0.0125 
0.005 0 -0.0175 
0.0025 0 -0.02 
0.0025 0 -0.0175 
0.01 0 -0.0175 
0.0075 0 -0.02 
0.0075 0 -0.0175 
0.015 0 -0.0175 
0.0125 0 -0.02 
0.0125 0 -0.0175 
0.02 0 -0.0175 
0.0175 0 -0.02 
0.0175 0 -0.0175 
0.025 0 -0.0175 
0.0225 0 -0.02 
0.0225 0 -0.0175 
0.0025 0 -0.0225 
0.0025 0 -0.00125 
0.00125 0 -0.0025 
0.00125 0 -0.00125 
0.005 0 -0.00125 
0.00375 0 -0.0025 
0.00375 0 -0.00125 
0.005 0 -0.00375 
0.00375 0 -0.005 
0.0025 0 -0.00375 
0.00375 0 -0.00375 
0.00125 0 -0.005 
0.00125 0 -0.00375 
0.0075 0 -0.00125 
0.00625 0 -0.0025 
0.00625 0 -0.00125 
0.01 0 -0.00125 
0.00875 0 -0.0025 
0.00875 0 -0.00125 
0.01 0 -0.00375 
0.00875 0 -0.005 
0.0075 0 -0.00375 
0.00875 0 -0.00375 
0.00625 0 -0.005 
0.00625 0 -0.00375 
0.0125 0 -0.00125 
0.01125 0 -0.0025 
0.01125 0 -0.00125 
0.015 0 -0.00125 
0.01375 0 -0.0025 
0.01375 0 -0.00125 
0.015 0 -0.00375 
0.01375 0 -0.005 
0.0125 0 -0.00375 
0.01375 0 -0.00375 
0.01125 0 -0.005 
0.01125 0 -0.00375 
0.0175 0 -0.00125 
0.01625 0 -0.0025 
0.01625 0 -0.00125 
0.02 0 -0.00125 
0.01875 0 -0.0025 
0.01875 0 -0.00125 
0.02 0 -0.00375 
0.01875 0 -0.005 
0.0175 0 -0.00375 
0.01875 0 -0.00375 
0.01625 0 -0.005 
0.01625 0 -0.00375 
0.0225 0 -0.00125 
0.02125 0 -0.0025 
0.02125 0 -0.00125 
0.025 0 -0.00125 
0.02375 0 -0.0025 
0.02375 0 -0.00125 
0.025 0 -0.00375 
0.02375 0 -0.005 
0.0225 0 -0.00375 
0.02375 0 -0.00375 
0.02125 0 -0.005 
0.02125 0 -0.00375 
0.0025 0 -0.00625 
0.00125 0 -0.0075 
0.00125 0 -0.00625 
0.005 0 -0.00625 
0.00375 0 -0.0075 
0.00375 0 -0.00625 
0.005 0 -0.00875 
0.00375 0 -0.01 
0.0025 0 -0.00875 
0.00375 0 -0.00875 
0.00125 0 -0.01 
0.00125 0 -0.00875 
0.0075 0 -0.00625 
0.00625 0 -0.0075 
0.00625 0 -0.00625 
0.01 0 -0.00625 
0.00875 0 -0.0075 
0.00875 0 -0.00625 
0.01 0 -0.00875 
0.00875 0 -0.01 
0.0075 0 -0.00875 
0.00875 0 -0.00875 
0.00625 0 -0.01 
0.00625 0 -0.00875 
0.0125 0 -0.00625 
0.01125 0 -0.0075 
0.01125 0 -0.00625 
0.015 0 -0.00625 
0.01375 0 -0.0075 
0.01375 0 -0.00625 
0.015 0 -0.00875 
0.01375 0 -0.01 
0.0125 0 -0.00875 
0.01375 0 -0.00875 
0.01125 0 -0.01 
0.01125 0 -0.00875 
0.0175 0 -0.00625 
0.01625 0 -0.0075 
0.01625 0 -0.00625 
0.02 0 -0.00625 
0.01875 0 -0.0075 
0.01875 0 -0.00625 
0.02 0 -0.00875 
0.01875 0 -0.01 
0.0175 0 -0.00875 
0.01875 0 -0.00875 
0.01625 0 -0.01 
0.01625 0 -0.00875 
0.0225 0 -0.00625 
0.02125 0 -0.0075 
0.02125 0 -0.00625 
0.025 0 -0.00625 
0.02375 0 -0.0075 
0.02375 0 -0.00625 
0.025 0 -0.00875 
0.02375 0 -0.01 
0.0225 0 -0.00875 
0.02375 0 -0.00875 
0.02125 0 -0.01 
0.02125 0 -0.00875 
0.0025 0 -0.01125 
0.00125 0 -0.0125 
0.00125 0 -0.01125 
0.005 0 -0.01125 
0.00375 0 -0.0125 
0.00375 0 -0.01125 
0.005 0 -0.01375 
0.00375 0 -0.015 
0.0025 0 -0.01375 
0.00375 0 -0.01375 
0.00125 0 -0.015 
0.00125 0 -0.01375 
0.0075 0 -0.01125 
0.00625 0 -0.0125 
0.00625 0 -0.01125 
0.01 0 -0.01125 
0.00875 0 -0.0125 
0.00875 0 -0.01125 
0.01 0 -0.01375 
0.00875 0 -0.015 
0.0075 0 -0.01375 
0.00875 0 -0.01375 
0.00625 0 -0.015 
0.00625 0 -0.01375 
0.0125 0 -0.01125 
0.01125 0 -0.0125 
0.01125 0 -0.01125 
0.015 0 -0.01125 
0.01375 0 -0.0125 
0.01375 0 -0.01125 
0.015 0 -0.01375 
0.01375 0 -0.015 
0.0125 0 -0.01375 
0.01375 0 -0.01375 
0.01125 0 -0.015 
0.01125 0 -0.01375 
0.0175 0 -0.01125 
0.01625 0 -0.0125 
0.01625 0 -0.01125 
0.02 0 -0.01125 
0.01875 0 -0.0125 
0.01875 0 -0.01125 
0.02 0 -0.01375 
0.01875 0 -0.015 
0.0175 0 -0.01375 
0.01875 0 -0.01375 
0.01625 0 -0.015 
0.01625 0 -0.01375 
0.0225 0 -0.01125 
0.02125 0 -0.0125 
0.02125 0 -0.01125 
0.025 0 -0.01125 
0.02375 0 -0.0125 
0.02375 0 -0.01125 
0.025 0 -0.01375 
0.02375 0 -0.015 
0.0225 0 -0.01375 
0.02375 0 -0.01375 
0.02125 0 -0.015 
0.02125 0 -0.01375 
0.0025 0 -0.01625 
0.00125 0 -0.0175 
0.00125 0 -0.01625 
0.005 0 -0.01625 
0.00375 0 -0.0175 
0.00375 0 -0.01625 
0.005 0 -0.01875 
0.00375 0 -0.02 
0.0025 0 -0.01875 
0.00375 0 -0.01875 
0.00125 0 -0.02 
0.00125 0 -0.01875 
0.0075 0 -0.01625 
0.00625 0 -0.0175 
0.00625 0 -0.01625 
0.01 0 -0.01625 
0.00875 0 -0.0175 
0.00875 0 -0.01625 
0.01 0 -0.01875 
0.00875 0 -0.02 
0.0075 0 -0.01875 
0.00875 0 -0.01875 
0.00625 0 -0.02 
0.00625 0 -0.01875 
0.0125 0 -0.01625 
0.01125 0 -0.0175 
0.01125 0 -0.01625 
0.015 0 -0.01625 
0.01375 0 -0.0175 
0.01375 0 -0.01625 
0.015 0 -0.01875 
0.01375 0 -0.02 
0.0125 0 -0.01875 
0.01375 0 -0.01875 
0.01125 0 -0.02 
0.01125 0 -0.01875 
0.0175 0 -0.01625 
0.01625 0 -0.0175 
0.01625 0 -0.01625 
0.02 0 -0.01625 
0.01875 0 -0.0175 
0.01875 0 -0.01625 
0.02 0 -0.01875 
0.01875 0 -0.02 
0.0175 0 -0.01875 
0.01875 0 -0.01875 
0.01625 0 -0.02 
0.01625 0 -0.01875 
0.0225 0 -0.01625 
0.02125 0 -0.0175 
0.02125 0 -0.01625 
0.025 0 -0.01625 
0.02375 0 -0.0175 
0.02375 0 -0.01625 
0.025 0 -0.01875 
0.02375 0 -0.02 
0.0225 0 -0.01875 
0.02375 0 -0.01875 
0.02125 0 -0.02 
0.02125 0 -0.01875 
0.0025 0 -0.02125 
0.00125 0 -0.0225 
0.00125 0 -0.02125 
0.00375 0 -0.02125 
0 0 -0.02375 
0.00125 0 -0.02375 
0.005 0 -0.02125 
0.00625 0 -0.02125 
0.01 0 -0.02125 
0.00875 0 -0.02125 
0.01125 0 -0.02125 
0.015 0 -0.02125 
0.01375 0 -0.02125 
0.01625 0 -0.02125 
0.02 0 -0.02125 
0.01875 0 -0.02125 
0.02125 0 -0.02125 
0.025 0 -0.02125 
0.02375 0 -0.02125 
0.0075 0 -0.02125 
0.0125 0 -0.02125 
0.0175 0 -0.02125 
0.0225 0 -0.02125 
0.00375 0 -0.0225 
0.00375 0 -0.02375 
0.0025 0 -0.02375 
0.005 0 -0.0225 
0 0 -0.02625 
0 0 -0.02375 
0 0 -0.02875 
0 0 -0.03125 
0 0 -0.03375 
0 0 -0.03625 
0 0 -0.03875 
0 0 -0.04125 
0 0 -0.04375 
0 0 -0.04625 
0 0 -0.0425 
0 0 -0.0375 
0 0 -0.0325 
0 0 -0.0275 
0 0 -0.045 
0 0 -0.04 
0 0 -0.035 
0 0 -0.03 
0 0 -0.025 
0.005 0 -0.025 
0.01 0 -0.025 
0.015 0 -0.025 
0.02 0 -0.025 
0.025 0 -0.025 
0.005 0 -0.03 
0.01 0 -0.03 
0.015 0 -0.03 
0.02 0 -0.03 
0.025 0 -0.03 
0.005 0 -0.035 
0.01 0 -0.035 
0.015 0 -0.035 
0.02 0 -0.035 
0.025 0 -0.035 
0.005 0 -0.04 
0.01 0 -0.04 
0.015 0 -0.04 
0.02 0 -0.04 
0.025 0 -0.04 
0.005 0 -0.045 
0.01 0 -0.045 
0.015 0 -0.045 
0.02 0 -0.045 
0.025 0 -0.045 
0.005 0 -0.0225 
0.0025 0 -0.025 
0.01 0 -0.0225 
0.0075 0 -0.025 
0.0075 0 -0.0225 
0.015 0 -0.0225 
0.0125 0 -0.025 
0.0125 0 -0.0225 
0.02 0 -0.0225 
0.0175 0 -0.025 
0.0175 0 -0.0225 
0.025 0 -0.0225 
0.0225 0 -0.025 
0.0225 0 -0.0225 
0.005 0 -0.0275 
0.0025 0 -0.03 
0.0025 0 -0.0275 
0.01 0 -0.0275 
0.0075 0 -0.03 
0.0075 0 -0.0275 
0.015 0 -0.0275 
0.0125 0 -0.03 
0.0125 0 -0.0275 
0.02 0 -0.0275 
0.0175 0 -0.03 
0.0175 0 -0.0275 
0.025 0 -0.0275 
0.0225 0 -0.03 
0.0225 0 -0.0275 
0.005 0 -0.0325 
0.0025 0 -0.035 
0.0025 0 -0.0325 
0.01 0 -0.0325 
0.0075 0 -0.035 
0.0075 0 -0.0325 
0.015 0 -0.0325 
0.0125 0 -0.035 
0.0125 0 -0.0325 
0.02 0 -0.0325 
0.0175 0 -0.035 
0.0175 0 -0.0325 
0.025 0 -0.0325 
0.0225 0 -0.035 
0.0225 0 -0.0325 
0.005 0 -0.0375 
0.0025 0 -0.04 
0.0025 0 -0.0375 
0.01 0 -0.0375 
0.0075 0 -0.04 
0.0075 0 -0.0375 
0.015 0 -0.0375 
0.0125 0 -0.04 
[...]
POINT_DATA 1915
SCALARS 1-Al double 1
LOOKUP_TABLE default
0.00741108
0.00741371
0.00741394
0.00741393
0.00741393
0.00741393
0.00741393
0.00741393
0.00741393
0.00741397
0.00741478
0.00741393
0.00741393
0.00741393
0.00741393
0.00741145
0.00741393
0.00741393
0.00741393
9.99971e-08
9.99971e-08
9.99971e-08
9.99971e-08
9.99971e-08
9.99971e-08
0.00741409
0.00741409
0.00741409
0.00741409
0.00741409
9.99971e-08
8.29878e-08
0.00741409
3.45819e-06
4.07835e-07
9.99971e-08
3.13742e-06
0.00741409
3.49348e-08
9.99971e-08
4.52502e-08
0.00741409
3.61615e-08
9.99971e-08
7.89742e-08
0.00741409
6.19727e-08
9.99971e-08
9.25107e-08
0.00741408
8.75456e-08
9.99971e-08
3.32282e-06
5.81505e-07
4.22681e-07
1.08847e-06
9.99971e-08
2.35034e-07
6.7218e-08
5.02746e-07
4.57081e-06
0.00741409
5.06242e-06
1.09108e-05
0.00741409
0.000112253
8.07153e-05
9.99971e-08
1.30321e-07
3.33444e-06
1.43151e-07
9.99971e-08
1.43585e-07
4.46932e-08
1.373e-07
3.4209e-06
0.00741409
3.92296e-06
3.59776e-06
0.00741409
4.95919e-06
9.99971e-08
1.16342e-07
3.33444e-06
1.32329e-07
9.99971e-08
1.12351e-07
4.07336e-08
1.13416e-07
2.72586e-06
0.00741409
2.95263e-06
2.82816e-06
0.00741409
3.11626e-06
9.99971e-08
1.08948e-07
5.34382e-08
1.10729e-07
9.99971e-08
1.05213e-07
7.20176e-08
1.06847e-07
2.61842e-06
0.00741409
2.70816e-06
2.65927e-06
0.00741409
2.77017e-06
9.99971e-08
1.03034e-07
8.3452e-08
1.04068e-07
9.99971e-08
1.0184e-07
9.09766e-08
1.02256e-07
2.5674e-06
0.00741409
2.5792e-06
2.57063e-06
0.00741409
2.46329e-06
0.00741409
0.00741409
0.00741409
0.00740729
0.00741409
0.00741421
0.00741409
0.00741266
0.00741409
0.00741409
0.00741409
0.00741408
0.00741409
0.00741409
0.00741409
0.00741409
0.00741409
0.00741409
0.00741409
0.00741409
0.00741409
0.00741409
0.00741409
0.00741409
0.00741409
0.00741409
0.00741409
0.00741409
0.00741409
0.00741409
0.00741409
0.00741409
0.00741409
0.00741409
0.00741409
0.00741409
0.00741409
0.00741409
0.00741409
0.00741409
0.00741409
0.00741409
0.00741409
0.00741409
0.00741409
0.0074126
0.00741409
0.00741409
0.00741409
0.00741409
0.00741409
0.00741409
0.00741409
0.00741732
0.00741409
0.00741409
0.00741409
0.00741409
0.00741408
0.00741409
0.00741409
0.00741409
0.00741409
0.00741761
0.00741409
0.00741409
0.00741409
0.00741409
0.00741409
0.00741409
0.00741409
0.00741409
0.00741409
0.00741409
0.00741409
0.00741409
0.00741409
0.00741409
0.00741409
0.00741409
0.00741409
0.00741409
0.00741409
0.00741409
0.00741409
0.00741409
0.00741409
0.00741409
0.00741409
0.00741409
0.00741362
0.00741409
0.00741409
0.00741409
0.00741409
0.00741409
0.00741409
0.00741409
0.00741409
0.00741409
0.00741409
0.00741409
0.00741409
0.00741409
0.00741409
0.00741409
0.00741408
0.00741409
0.00741409
0.00741635
0.00741409
0.00741409
0.00741409
0.00741409
0.00741409
0.00741409
0.00741409
0.00741409
0.00741408
0.00741409
0.00741409
0.00741409
0.00741409
0.00741409
0.0074141
0.00741409
0.00741409
0.00741409
0.00741408
0.00741409
0.00741409
0.00741409
0.00741409
0.00741409
0.00741409
0.00741409
0.00741409
0.00741409
0.00741409
0.00741409
0.00741409
0.00741409
0.00741409
0.00741409
0.00741409
0.00741409
0.00741409
0.00741409
0.00741409
0.00741408
0.00741409
0.00741409
0.00741409
0.00741409
0.00741409
0.00741409
0.00741409
0.00741409
0.00741409
0.00741409
0.00741409
0.00741409
0.00741409
0.00741409
0.00741611
0.00741409
0.00741409
0.00741376
0.00741409
0.00741409
0.00741409
0.00741409
0.00741409
0.00741409
0.00741409
0.00741409
0.00741409
0.00741409
0.00741042
0.00741409
0.00741409
0.00741409
0.00741409
0.00741409
0.00741409
0.00741409
0.00741409
0.00741409
0.00741409
0.00741409
0.00741409
0.00741409
0.00741409
0.00741409
0.00741409
0.00741409
0.00741409
0.00741409
0.00741409
0.00741409
0.00741409
0.00741409
0.00741409
0.00741409
0.00741409
0.00741409
0.00741409
0.00741409
0.00741409
0.00741409
0.00741409
0.00741409
0.00741409
0.00741409
0.00741409
0.00741409
0.00741409
0.00741409
0.00741409
0.00741409
0.00741409
0.00741409
0.00741409
0.00741409
0.00741409
0.00741409
0.00741409
0.00741409
0.00741435
0.00741409
0.00741409
0.00741409
0.00741377
0.00741409
0.00741409
0.00741409
0.00741409
0.00741409
0.00741409
0.00741409
0.00741409
0.00741409
0.00741409
0.00741397
0.00741409
0.00741409
0.00741409
0.00741409
0.00741409
0.00741296
0.00741409
0.00741409
0.00741643
0.00741409
0.00741409
0.00741409
0.00741409
0.00741409
0.00741409
0.00741409
0.00741409
0.00741409
0.00741409
0.00741409
0.00741409
0.00741403
0.00741409
0.00741409
0.00741409
0.00741409
0.00741409
0.00741409
0.00741409
0.00741409
0.00741371
0.00741409
0.00741409
0.00741409
0.00741409
0.00741409
0.00741409
0.00741409
0.00741409
0.00741409
0.00741409
0.00741409
0.00741409
0.00741409
0.00741409
0.00741409
0.00741409
0.00741409
0.00741409
0.00741409
0.00741409
0.00741409
0.00741409
0.00741409
0.00741409
0.00741409
0.00741409
0.00741409
0.00741409
0.00741409
0.00741409
0.00741409
0.00741409
0.00741409
0.00741409
0.00741409
0.00741409
0.00741132
0.00741409
0.00741409
0.00741409
0.00741409
0.00741409
0.00741409
0.00741409
0.00741409
0.00741409
0.00741409
0.00741409
0.00741409
0.00741409
0.00741393
0.00741409
0.00741409
0.00741409
0.00741303
0.00741409
0.00741409
0.00741409
0.00741409
0.00741409
0.00741409
0.00741409
0.00741409
0.00741409
0.00741294
0.00741409
0.00741409
0.00741409
0.00741409
0.00741409
0.00741409
0.00741409
0.00741409
0.00741393
0.00741393
0.00741393
0.00741393
0.00741393
0.00741393
0.00741393
0.00741393
0.00741393
0.00741393
0.00741393
0.00741393
0.00741393
0.00741393
0.00741393
0.00741393
0.00741393
0.00741393
0.00741393
0.00741409
0.00741409
0.00741409
0.00741409
0.00741409
0.00741409
0.00741409
0.00741409
0.00741409
0.00741409
0.00741409
0.00741409
0.00741409
0.00741409
0.00741409
0.00741409
0.00741409
0.00741409
0.00741409
0.00741409
0.00741409
0.00741409
0.00741409
0.00741409
0.00741409
0.00741409
0.00741409
0.00741409
0.00741409
0.00741409
0.00741409
0.00741409
0.00741409
0.00741409
0.00741409
0.00741409
0.00741409
0.00741409
0.00741409
0.00741409
0.00741405
0.00741409
0.00741409
0.00741409
0.00741409
0.00741409
0.00741409
0.00741409
0.00741409
0.00741409
0.00741409
0.00741409
0.00741409
0.00741408
0.00741409
0.00741409
0.00741408
0.00741409
0.00741409
0.00741409
0.00741409
0.00741409
0.00741409
0.00741409
0.00741409
0.00741135
0.00741409
0.00741409
0.00741409
0.00741409
0.00741409
0.00741594
0.00741409
0.00741409
0.00741272
0.00741409
0.00741408
0.00741409
0.00741409
0.00741409
0.00741409
0.00741409
0.00741409
0.00741409
0.00741409
0.00741409
0.00741409
0.00741409
0.00741409
0.00741858
0.00741409
0.00741409
0.00741409
0.00741409
0.00741409
0.00741409
0.00741409
0.00741409
0.00741409
0.00741409
0.00741409
0.00741409
0.00741409
0.00741409
0.00741409
0.00741409
0.00741409
0.00741409
0.00741409
0.00741409
0.00741303
0.00741409
0.00741409
0.00741409
0.00741409
0.00741409
0.00741409
0.00741409
0.00741409
0.00741409
0.00741409
0.00741409
0.00741409
0.00741409
0.00741409
0.00741409
0.00741409
0.00741409
0.00741409
0.00741409
0.00741409
0.00741409
0.00741409
0.00741409
0.00741409
0.00741409
0.00741409
0.00741409
0.00741409
0.00741409
0.00741409
0.00741408
0.00741409
0.00741409
0.00741409
0.00741409
0.00741409
0.00741409
0.00741294
0.00741409
0.00741409
0.00741409
0.00741409
0.00741409
0.00741409
0.00741409
0.00741409
0.00741409
0.00741409
0.00741306
0.00741409
0.00741409
0.00741409
0.00741409
0.00741409
0.00741409
0.00741409
0.00741409
0.00741409
0.00741409
0.00741409
0.00741409
0.00741409
0.00741409
0.00741409
0.00741409
0.00741409
0.00740989
0.00741409
0.00741409
0.00741409
0.00741409
0.00741409
0.00741409
0.00741409
0.00741409
0.00741409
0.00741409
0.00741409
0.00741409
0.00741409
0.00741409
0.00741409
0.00741409
0.00741409
0.00741409
0.00741409
0.00741409
0.00741409
0.00741471
0.00741409
0.00741409
0.00741409
0.00741409
0.00741409
0.00741408
0.00741409
0.00741465
0.00741409
0.00741409
0.00741409
0.00741409
0.00741409
0.00741409
0.00741409
0.00741409
0.00741409
0.00741409
0.00741409
0.00741409
0.00741411
0.00741409
0.00741409
0.00741409
0.00741409
0.00741409
0.00741408
0.00741409
0.00741409
0.00741409
0.00741409
0.00741409
0.00741409
0.00741409
0.00741409
0.00741558
0.00741409
0.00741409
0.00741409
0.00741409
0.00741409
0.00741409
0.00741409
0.00741409
0.00741409
0.00741389
0.00741409
0.00741409
0.00741409
0.00741409
0.00741409
0.00741409
0.00741409
0.00741409
0.00741409
0.00741409
0.00741409
0.00741409
0.00741409
0.00741409
0.00741409
0.00741409
0.00741409
0.00741409
0.00741409
0.00741409
0.00741409
0.00741409
0.00741409
0.00741409
0.00741409
0.00741409
0.00741409
0.00741409
0.00741409
0.00741409
0.00741409
0.00741409
0.00741409
0.00741409
0.00741409
0.00741409
0.00741409
0.00741425
0.00741409
0.00741409
0.00741409
0.00741409
0.00741409
0.00741409
0.00741409
0.00741409
0.00741409
0.00740952
0.00741409
0.00741409
0.00741409
0.00741409
0.00741409
0.00741409
0.00741409
0.00741409
0.00741409
0.00741409
0.00741409
0.00741409
0.00741409
0.00741409
0.00741315
0.00741409
0.00741409
0.00741409
0.00741409
0.00741409
0.00741409
0.00741409
0.00741409
0.00741409
0.00741409
0.00741409
0.00741409
0.00741409
0.00741409
0.00741409
0.00741409
0.00741409
0.00741409
0.00741409
0.00741409
0.00741409
0.00741409
0.00741409
0.00741409
0.00741409
0.00741409
0.00741409
0.00741409
0.00741409
0.00741409
0.00741409
0.00741409
0.00741409
0.00741409
0.00741409
0.00741409
0.00741409
0.00741409
0.00741409
0.00741409
0.00741409
0.00741409
0.00741409
0.00741409
0.00741409
0.00741401
0.00741409
0.00741409
0.00741409
0.00741409
0.00741409
0.00741409
0.00741409
0.00741409
0.00741408
0.00741409
0.00741409
0.00741409
0.00741409
0.00741409
0.00741409
0.00741409
0.00741409
0.00741409
0.00741409
0.00741408
0.00741409
0.00741409
0.00741409
0.00741409
0.00741409
0.00741409
0.00741409
0.00741409
0.00741409
0.00741409
0.00741409
0.00741407
0.00741409
0.00741409
0.00741409
0.00741409
0.00741409
0.00741409
0.00741409
0.00741409
0.00741409
0.00741409
0.00741409
0.00741409
0.00741409
0.00741409
0.00741409
0.00741409
0.00741409
0.00741409
0.00741409
0.00741409
0.00741409
0.00741409
0.00741409
0.00741409
0.00741409
0.00741409
0.00741409
0.00741409
0.00741393
0.00741409
0.00741393
0.00741409
0.00741409
0.00741409
0.00741409
0.00741409
0.00741409
0.00741409
0.00741409
0.00741409
0.00741409
0.00741409
0.00741409
0.00741409
0.00741409
0.00741409
0.00741409
0.00741409
0.00741409
0.00741409
0.00741409
0.00741409
0.00741409
0.00741409
0.00741409
0.00741409
0.00741409
0.00741409
0.00741409
0.00741409
0.00741409
0.00741409
0.00741409
0.00741409
0.00741409
0.00741409
0.00741409
0.00741409
0.00741409
0.00741409
0.00741409
0.00741409
0.00741393
0.00741393
0.00741393
0.00741409
0.00741408
0.00741409
0.00741408
0.00741409
0.00741308
0.00741409
0.00741409
0.00741409
0.00741409
0.00741408
0.00741409
0.00741409
0.00741409
0.00741409
0.00741409
0.00741409
0.00741409
0.00741409
0.00741408
0.00741409
0.00741409
0.00741382
0.00741409
0.00741409
0.00741409
0.00741409
0.00741409
0.00741409
0.00741409
0.00741409
0.00741409
0.00741409
0.00741409
0.00741409
0.00741409
0.00741409
0.00741409
0.00741409
0.00741409
0.00741409
0.00741409
0.00741409
0.00741409
0.00741408
0.00741409
0.00741409
0.00741409
0.00741409
0.00741409
0.00741409
0.00741409
0.00741409
0.00741409
0.00741409
0.00741409
0.00741409
0.00741409
0.00741409
0.00741409
0.00741409
0.00741409
0.00741409
0.00741409
0.00741409
0.00741409
0.00741409
0.00741409
0.00741409
0.00741409
0.00741409
0.00741409
0.00741409
0.00741409
0.00741409
0.00741409
0.00741416
0.00741409
0.0074172
0.00741409
0.00741409
0.00741408
0.00741409
0.00741409
0.00741409
0.00741409
0.00741409
0.00741409
0.00741409
0.00741409
0.00741409
0.00741409
0.00741408
0.00741409
0.00741409
0.00741409
0.00741409
0.00741409
0.00741409
0.00741409
0.00741409
0.00741409
0.00741409
0.00741409
0.00741409
0.00741409
0.00741409
0.00741409
0.00741409
0.00741409
0.00741409
0.00741409
0.00741409
0.00741408
0.00741409
0.00741409
0.00741409
0.00741409
0.00741409
0.00741409
0.00741409
0.00741409
0.00741409
0.00741409
0.00741409
0.00741409
0.00741409
0.00741409
0.00741409
0.00741409
0.00741409
0.00741028
0.00741409
0.00741409
0.00741409
0.00741409
0.00741409
0.00741409
0.00741409
0.00741409
0.00741409
0.00741409
0.00741409
0.00741409
0.00741409
0.00741409
0.00741409
0.00741409
0.00741409
0.00741409
0.00741409
0.00741409
0.00741409
0.00741409
0.00741673
0.00741409
0.00741409
0.00741409
0.00741409
0.00741409
0.00741409
0.00741409
0.00741409
0.0074122
0.00741409
0.00741409
0.00741409
0.00741409
0.00741409
0.00741409
0.00741341
0.00741409
0.00741332
0.00741409
0.00741409
0.00741409
0.00741409
0.00741409
0.00741409
0.00741409
0.00741409
0.00741409
0.00741409
0.00741409
0.00741409
0.00741409
0.00741409
0.00741409
0.00741409
0.00741409
0.00741409
0.00741409
0.00741409
0.00741409
0.00741409
0.00741409
0.00741409
0.00741409
0.00741409
0.00741409
0.00741409
0.00741409
0.00741408
0.00741546
0.00741409
0.00741409
0.00741409
0.00741409
0.00741409
0.00741409
0.00741409
0.00741409
0.00741409
0.00741409
0.00741409
0.00741409
0.00741409
0.00741409
0.00741409
0.00741409
0.00741409
0.00741754
0.00741409
0.00741501
0.00741409
0.00741409
0.00741408
0.00741409
0.00741409
0.00741409
0.00741409
0.00741506
0.00741408
0.00741409
0.00741409
0.00741409
0.00741409
0.00741409
0.00741409
0.00741409
0.00741409
0.00741409
0.00741409
0.00741409
0.00741409
0.00740958
0.00741409
0.00741409
0.00741409
0.00741409
0.00741409
0.00741409
0.00741409
0.00741409
0.00741409
0.00741409
0.00740952
0.00741409
0.00741409
0.00741409
0.00741409
0.00741409
0.00741409
0.00741409
0.00741409
0.00741409
0.00741409
0.00741409
0.00741409
0.00741409
0.00741948
0.00741409
0.00741408
0.00741409
0.00741409
0.00741409
0.00741409
0.00741409
0.00741409
0.00741409
0.00741409
0.00741409
0.00741409
0.00741409
0.00741409
0.00741409
0.00741409
0.00741409
0.00741409
0.00741409
0.00741409
0.00741409
0.00741409
0.00741409
0.00741409
0.00741409
0.00741409
0.00741409
0.00741409
0.00740755
0.00741409
0.00741409
0.00741409
0.00741409
0.00741409
0.00741409
0.00741409
0.00741409
0.00741409
0.00741409
0.00741409
0.00741441
0.00741409
0.00741409
0.00741409
0.00741409
0.00741409
0.00741409
0.00741409
0.00741409
0.00741409
0.00741409
0.00741409
0.00741409
0.00741409
0.00741457
0.00741409
0.00741409
0.00741409
0.00741409
0.00741409
0.00741409
0.00741409
0.00741409
0.00741409
0.00741409
0.00741409
0.00741409
0.00741409
0.00741409
0.00741409
0.00741409
0.00741409
0.00741409
0.00741409
0.00741409
0.00741409
0.00741409
0.00741409
0.00741409
0.00741409
0.00741409
0.00741409
0.00741409
0.00741409
0.00741409
0.00741409
0.00741409
0.00741618
0.00741409
0.00741409
0.00741409
0.00741409
0.00741409
0.00741409
0.00741409
0.00741409
0.00741409
0.00741409
0.00741409
0.00741409
0.00741409
0.00741409
0.00741409
0.00741409
0.00741409
0.00741378
0.00741409
0.00741409
0.00741409
0.00741409
0.00741409
0.00741409
0.00741409
0.00741409
0.00741406
0.00741409
0.00741409
0.00741409
0.00741409
0.00741409
0.00741409
0.00741409
0.00741409
0.00741409
0.00741409
0.00741408
0.00741409
0.00741409
0.00741409
0.00741409
0.00741438
0.00741409
0.00741409
0.00741409
0.00741409
0.00741409
0.00741409
0.00741409
0.00741409
0.00741409
0.00741409
0.00741409
0.00741409
0.00741409
0.00741409
0.00741553
0.00741409
0.00741409
0.00741409
0.00741409
0.00741409
0.00741409
0.00741409
0.00741409
0.0074138
0.00741409
0.00741409
0.00741409
0.00741409
0.00741409
0.00741409
0.00741409
0.00741409
0.00741409
0.00741409
0.00741409
0.00741409
0.00741393
0.00741409
0.00741409
0.00741409
0.00741409
0.00741409
0.00741409
0.00741409
0.00741409
0.00741409
0.00741409
0.00741409
0.00741409
0.00741409
0.00741409
0.00741409
0.00741409
0.00741409
0.00741409
0.00741409
0.00741409
0.00741409
0.00741409
0.00741409
0.00741409
0.00741409
0.00741409
0.00741409
0.00741409
0.00741409
0.00741409
0.00741409
0.00741409
0.00741409
0.00741409
0.00741409
0.00741409
0.00741409
0.00741409
0.00741409
0.00741409
0.00741409
0.00741409
0.00741409
0.00741409
0.00741409
0.00741408
0.00741409
0.00741409
0.00741409
0.00741409
0.00741409
0.00741409
0.00741409
0.00741409
0.00741409
0.00741409
0.00741409
0.00741409
0.00741409
0.00741409
0.00741409
0.00741408
0.00741408
0.00741409
0.00741409
0.00741409
0.00741447
0.00741409
0.00741409
0.00741409
0.00741409
0.00741409
0.00741409
0.00741409
0.00741409
0.00741301
0.00741409
0.00741409
0.00741173
0.00741409
0.00741409
0.00741409
0.00741409
0.00741409
0.00741409
0.00741409
0.00741409
0.00741409
0.00741409
0.00741409
0.00741409
0.00741409
0.00741409
0.00741409
0.00741409
0.00741409
0.00741409
0.00741409
0.00741409
0.00741409
0.00741409
0.00741409
0.00741409
0.00741409
0.00741409
0.00741409
0.00741409
0.00741409
0.00741409
0.00741409
0.00741409
0.00741409
0.00741409
0.00741409
0.00741409
0.00741409
0.00741409
0.00741409
0.00741409
0.00741409
0.00741409
0.00741409
0.00741409
0.00741409
0.00741409
0.00741409
0.00741409
0.00741409
0.00741175
0.00741409
0.00741409
0.00741409
0.00741409
0.00741409
0.00741409
0.00741409
0.00741342
0.00741408
0.0074144
0.00741409
0.00741409
0.00741409
0.00741409
0.00741409
0.00741409
0.00741409
0.00741409
0.00741409
0.00741409
0.00741195
0.00741409
0.00741409
0.00741409
0.00741409
0.00741409
0.00741409
0.00741409
0.00741409
0.00741409
0.00741409
0.00741409
0.00741409
0.00741409
0.00741409
0.00741409
0.00741409
0.00741409
0.00741409
0.00741409
0.00741409
0.00741409
0.00741409
0.00741409
0.00741409
0.00741409
0.00741409
0.00741409
0.00741409
0.00741409
0.00741409
0.00741409
0.00741409
0.00741408
0.00741409
0.00741409
0.00741409
0.00741409
0.00741409
0.00741409
0.00741409
0.00741409
0.00741409
0.00741409
0.00741409
0.00741409
0.00741409
0.00741409
0.00741409
0.00741409
0.00741409
0.00741409
0.00741409
0.00741409
0.00741409
0.00741409
0.00741409
0.00741409
0.00741409
0.00741409
0.00741409
0.00741409
0.00741409
0.00741409
0.00741409
0.00741409
0.00741409
0.00741409
0.00741409
0.00741409
0.00741409
0.00741409
0.00741409
0.00741409
0.00741409
0.00741409
0.00741409
0.00741409
0.00741409
0.00741409
0.00741408
0.00741409
0.00741409
0.00741409
0.00741305
0.00741409
0.00741409
0.00741409
0.00741409
0.00741409
0.00741409
0.00741409
0.00741409
0.00741409
0.00741409
0.00741409
0.00741409
0.00741409
0.00741409
0.00741409
0.00741409
0.00741449
0.00741409
0.00741409
0.00741409
0.00741409
0.00741409
0.00741409
0.00741409
0.00741409
0.00741314
0.00741409
0.00741409
0.00741409
0.00741409
0.00741409
0.00741408
0.00741409
0.00741409
0.00741409
0.00741409
0.00741409
0.00741409
0.00741409
0.00741409
0.00741409
0.00741409
0.00741409
0.00741409
0.00741409
0.00741409
0.00741409
0.00741409
0.00741409
0.00741409
0.00741409
0.00741409
0.00741409
0.00741409
0.0074141
0.00741409
0.00741409
0.00741409
0.00741409
0.00741409
0.00741409
0.00741464
0.00741409
0.00741409
0.00741409
0.00741409
0.00741409
0.00741409
0.00741409
0.00741409
0.00741409
0.00741409
0.00741409
0.00741409
0.00741409
0.00741409
0.00741373
0.00741409
0.00741409
0.00741409
0.00741409
0.00741409
0.00741409
0.00741409
0.00741409
0.00741409
0.00741409
0.00741409
0.00741409
0.00741409
0.00741409
0.00741409
0.00741409
0.00741399
0.00741409
0.00741409
0.00741409
0.00741409
0.00741409
0.00741409
0.00741409
0.00741409
0.00741409
0.00741409
0.00741409
0.00741413
0.00741409
0.00741409
0.00741409
0.00741409
0.00741409
0.00741409
0.00741409
0.00741409
0.00741409
0.00741409
0.00741409
0.00741409
0.00741409
0.00741409
0.00741409
0.00741409
0.00741409
0.00741408
0.00741409
0.00741409
0.00741409
0.00741409
0.00741409
0.00741409
0.00741409
0.00741409
0.00741409
0.00741409
0.00741408
0.00741409
0.00741409
0.0074163
0.00741409
0.00741409
0.00741409
0.00741409
0.00741408
0.00741409
0.00741409
0.00741409
0.00741409
0.00741409
0.00741409
0.00741409
0.00741409
0.00741409
0.00741409
0.00741409
0.00741409
0.00741409
0.00742037
0.00741409
0.00741409
0.00741409
0.00741409
0.00741409
0.00741409
0.00741409
0.00741409
0.00741409
0.00741409
0.00741079
0.00741409
0.00741408
0.00741409
0.00741409
0.00741409
0.00741409
0.00741409
0.00741409
0.00741409
0.00741409
0.00741409
0.00741408
0.00741409