# vtk DataFile Version 3.0
Unstructured Grid from OpenGeoSys-GEM
ASCII
DATASET UNSTRUCTURED_GRID
FIELD TimesAndCycles 2
TIME 1 1 double
10
CYCLE 1 1 long
10
POINTS 1915 double
0 0 -0.00125 
0 0 -0.00375 
0 0 -0.00625 
0 0 -0.00875 
0 0 -0.01125 
0 0 -0.01375 
0 0 -0.01625 
0 0 -0.01875 
0 0 -0.02125 
0 0 -0.005 
0 0 -0.0025 
0 0 -0.0225 
0 0 -0.0175 
0 0 -0.0125 
0 0 -0.0075 
0 0 0 
0 0 -0.02 
0 0 -0.015 
0 0 -0.01 
0 0 0.005 
0.005 0 0.005 
0.01 0 0.005 
0.015 0 0.005 
0.02 0 0.005 
0.025 0 0.005 
0.005 0 0 
0.01 0 0 
0.015 0 0 
0.02 0 0 
0.025 0 0 
0.0025 0 0.005 
0.005 0 0.0025 
0.0025 0 0 
0 0 0.0025 
0.0025 0 0.0025 
0.0075 0 0.005 
0.01 0 0.0025 
0.0075 0 0 
0.0075 0 0.0025 
0.0125 0 0.005 
0.015 0 0.0025 
0.0125 0 0 
0.0125 0 0.0025 
0.0175 0 0.005 
0.02 0 0.0025 
0.0175 0 0 
0.0175 0 0.0025 
0.0225 0 0.005 
0.025 0 0.0025 
0.0225 0 0 
0.0225 0 0.0025 
0.00125 0 0.005 
0.0025 0 0.00375 
0.00125 0 0.0025 
0 0 0.00375 
0.00125 0 0.00375 
0.00375 0 0.005 
0.005 0 0.00375 
0.00375 0 0.0025 
0.00375 0 0.00375 
0.005 0 0.00125 
0.00375 0 0 
0.0025 0 0.00125 
0.00375 0 0.00125 
0.00125 0 0 
0 0 0.00125 
0.00125 0 0.00125 
0.00625 0 0.005 
0.0075 0 0.00375 
0.00625 0 0.0025 
0.00625 0 0.00375 
0.00875 0 0.005 
0.01 0 0.00375 
0.00875 0 0.0025 
0.00875 0 0.00375 
0.01 0 0.00125 
0.00875 0 0 
0.0075 0 0.00125 
0.00875 0 0.00125 
0.00625 0 0 
0.00625 0 0.00125 
0.01125 0 0.005 
0.0125 0 0.00375 
0.01125 0 0.0025 
0.01125 0 0.00375 
0.01375 0 0.005 
0.015 0 0.00375 
0.01375 0 0.0025 
0.01375 0 0.00375 
0.015 0 0.00125 
0.01375 0 0 
0.0125 0 0.00125 
0.01375 0 0.00125 
0.01125 0 0 
0.01125 0 0.00125 
0.01625 0 0.005 
0.0175 0 0.00375 
0.01625 0 0.0025 
0.01625 0 0.00375 
0.01875 0 0.005 
0.02 0 0.00375 
0.01875 0 0.0025 
0.01875 0 0.00375 
0.02 0 0.00125 
0.01875 0 0 
0.0175 0 0.00125 
0.01875 0 0.00125 
0.01625 0 0 
0.01625 0 0.00125 
0.02125 0 0.005 
0.0225 0 0.00375 
0.02125 0 0.0025 
0.02125 0 0.00375 
0.02375 0 0.005 
0.025 0 0.00375 
0.02375 0 0.0025 
0.02375 0 0.00375 
0.025 0 0.00125 
0.02375 0 0 
0.0225 0 0.00125 
0.02375 0 0.00125 
0.02125 0 0 
0.02125 0 0.00125 
0.005 0 -0.005 
0.01 0 -0.005 
0.015 0 -0.005 
0.02 0 -0.005 
0.025 0 -0.005 
0.005 0 -0.01 
0.01 0 -0.01 
0.015 0 -0.01 
0.02 0 -0.01 
0.025 0 -0.01 
0.005 0 -0.015 
0.01 0 -0.015 
0.015 0 -0.015 
0.02 0 -0.015 
0.025 0 -0.015 
0.005 0 -0.02 
0.01 0 -0.02 
0.015 0 -0.02 
0.02 0 -0.02 
0.025 0 -0.02 
0.005 0 -0.0025 
0.0025 0 -0.005 
0.0025 0 -0.0025 
0.01 0 -0.0025 
0.0075 0 -0.005 
0.0075 0 -0.0025 
0.015 0 -0.0025 
0.0125 0 -0.005 
0.0125 0 -0.0025 
0.02 0 -0.0025 
0.0175 0 -0.005 
0.0175 0 -0.0025 
0.025 0 -0.0025 
0.0225 0 -0.005 
0.0225 0 -0.0025 
0.005 0 -0.0075 
0.0025 0 -0.01 
0.0025 0 -0.0075 
0.01 0 -0.0075 
0.0075 0 -0.01 
0.0075 0 -0.0075 
0.015 0 -0.0075 
0.0125 0 -0.01 
0.0125 0 -0.0075 
0.02 0 -0.0075 
0.0175 0 -0.01 
0.0175 0 -0.0075 
0.025 0 -0.0075 
0.0225 0 -0.01 
0.0225 0 -0.0075 
0.005 0 -0.0125 
0.0025 0 -0.015 
0.0025 0 -0.0125 
0.01 0 -0.0125 
0.0075 0 -0.015 
0.0075 0 -0.0125 
0.015 0 -0.0125 
0.0125 0 -0.015 
0.0125 0 -0.0125 
0.02 0 -0.0125 
0.0175 0 -0.015 
0.0175 0 -0.0125 
0.025 0 -0.0125 
0.0225 0 -0.015 
0.0225 0 -0.0125 
0.005 0 -0.0175 
0.0025 0 -0.02 
0.0025 0 -0.0175 
0.01 0 -0.0175 
0.0075 0 -0.02 
0.0075 0 -0.0175 
0.015 0 -0.0175 
0.0125 0 -0.02 
0.0125 0 -0.0175 
0.02 0 -0.0175 
0.0175 0 -0.02 
0.0175 0 -0.0175 
0.025 0 -0.0175 
0.0225 0 -0.02 
0.0225 0 -0.0175 
0.0025 0 -0.0225 
0.0025 0 -0.00125 
0.00125 0 -0.0025 
0.00125 0 -0.00125 
0.005 0 -0.00125 
0.00375 0 -0.0025 
0.00375 0 -0.00125 
0.005 0 -0.00375 
0.00375 0 -0.005 
0.0025 0 -0.00375 
0.00375 0 -0.00375 
0.00125 0 -0.005 
0.00125 0 -0.00375 
0.0075 0 -0.00125 
0.00625 0 -0.0025 
0.00625 0 -0.00125 
0.01 0 -0.00125 
0.00875 0 -0.0025 
0.00875 0 -0.00125 
0.01 0 -0.00375 
0.00875 0 -0.005 
0.0075 0 -0.00375 
0.00875 0 -0.00375 
0.00625 0 -0.005 
0.00625 0 -0.00375 
0.0125 0 -0.00125 
0.01125 0 -0.0025 
0.01125 0 -0.00125 
0.015 0 -0.00125 
0.01375 0 -0.0025 
0.01375 0 -0.00125 
0.015 0 -0.00375 
0.01375 0 -0.005 
0.0125 0 -0.00375 
0.01375 0 -0.00375 
0.01125 0 -0.005 
0.01125 0 -0.00375 
0.0175 0 -0.00125 
0.01625 0 -0.0025 
0.01625 0 -0.00125 
0.02 0 -0.00125 
0.01875 0 -0.0025 
0.01875 0 -0.00125 
0.02 0 -0.00375 
0.01875 0 -0.005 
0.0175 0 -0.00375 
0.01875 0 -0.00375 
0.01625 0 -0.005 
0.01625 0 -0.00375 
0.0225 0 -0.00125 
0.02125 0 -0.0025 
0.02125 0 -0.00125 
0.025 0 -0.00125 
0.02375 0 -0.0025 
0.02375 0 -0.00125 
0.025 0 -0.00375 
0.02375 0 -0.005 
0.0225 0 -0.00375 
0.02375 0 -0.00375 
0.02125 0 -0.005 
0.02125 0 -0.00375 
0.0025 0 -0.00625 
0.00125 0 -0.0075 
0.00125 0 -0.00625 
0.005 0 -0.00625 
0.00375 0 -0.0075 
0.00375 0 -0.00625 
0.005 0 -0.00875 
0.00375 0 -0.01 
0.0025 0 -0.00875 
0.00375 0 -0.00875 
0.00125 0 -0.01 
0.00125 0 -0.00875 
0.0075 0 -0.00625 
0.00625 0 -0.0075 
0.00625 0 -0.00625 
0.01 0 -0.00625 
0.00875 0 -0.0075 
0.00875 0 -0.00625 
0.01 0 -0.00875 
0.00875 0 -0.01 
0.0075 0 -0.00875 
0.00875 0 -0.00875 
0.00625 0 -0.01 
0.00625 0 -0.00875 
0.0125 0 -0.00625 
0.01125 0 -0.0075 
0.01125 0 -0.00625 
0.015 0 -0.00625 
0.01375 0 -0.0075 
0.01375 0 -0.00625 
0.015 0 -0.00875 
0.01375 0 -0.01 
0.0125 0 -0.00875 
0.01375 0 -0.00875 
0.01125 0 -0.01 
0.01125 0 -0.00875 
0.0175 0 -0.00625 
0.01625 0 -0.0075 
0.01625 0 -0.00625 
0.02 0 -0.00625 
0.01875 0 -0.0075 
0.01875 0 -0.00625 
0.02 0 -0.00875 
0.01875 0 -0.01 
0.0175 0 -0.00875 
0.01875 0 -0.00875 
0.01625 0 -0.01 
0.01625 0 -0.00875 
0.0225 0 -0.00625 
0.02125 0 -0.0075 
0.02125 0 -0.00625 
0.025 0 -0.00625 
0.02375 0 -0.0075 
0.02375 0 -0.00625 
0.025 0 -0.00875 
0.02375 0 -0.01 
0.0225 0 -0.00875 
0.02375 0 -0.00875 
0.02125 0 -0.01 
0.02125 0 -0.00875 
0.0025 0 -0.01125 
0.00125 0 -0.0125 
0.00125 0 -0.01125 
0.005 0 -0.01125 
0.00375 0 -0.0125 
0.00375 0 -0.01125 
0.005 0 -0.01375 
0.00375 0 -0.015 
0.0025 0 -0.01375 
0.00375 0 -0.01375 
0.00125 0 -0.015 
0.00125 0 -0.01375 
0.0075 0 -0.01125 
0.00625 0 -0.0125 
0.00625 0 -0.01125 
0.01 0 -0.01125 
0.00875 0 -0.0125 
0.00875 0 -0.01125 
0.01 0 -0.01375 
0.00875 0 -0.015 
0.0075 0 -0.01375 
0.00875 0 -0.01375 
0.00625 0 -0.015 
0.00625 0 -0.01375 
0.0125 0 -0.01125 
0.01125 0 -0.0125 
0.01125 0 -0.01125 
0.015 0 -0.01125 
0.01375 0 -0.0125 
0.01375 0 -0.01125 
0.015 0 -0.01375 
0.01375 0 -0.015 
0.0125 0 -0.01375 
0.01375 0 -0.01375 
0.01125 0 -0.015 
0.01125 0 -0.01375 
0.0175 0 -0.01125 
0.01625 0 -0.0125 
0.01625 0 -0.01125 
0.02 0 -0.01125 
0.01875 0 -0.0125 
0.01875 0 -0.01125 
0.02 0 -0.01375 
0.01875 0 -0.015 
0.0175 0 -0.01375 
0.01875 0 -0.01375 
0.01625 0 -0.015 
0.01625 0 -0.01375 
0.0225 0 -0.01125 
0.02125 0 -0.0125 
0.02125 0 -0.01125 
0.025 0 -0.01125 
0.02375 0 -0.0125 
0.02375 0 -0.01125 
0.025 0 -0.01375 
0.02375 0 -0.015 
0.0225 0 -0.01375 
0.02375 0 -0.01375 
0.02125 0 -0.015 
0.02125 0 -0.01375 
0.0025 0 -0.01625 
0.00125 0 -0.0175 
0.00125 0 -0.01625 
0.005 0 -0.01625 
0.00375 0 -0.0175 
0.00375 0 -0.01625 
0.005 0 -0.01875 
0.00375 0 -0.02 
0.0025 0 -0.01875 
0.00375 0 -0.01875 
0.00125 0 -0.02 
0.00125 0 -0.01875 
0.0075 0 -0.01625 
0.00625 0 -0.0175 
0.00625 0 -0.01625 
0.01 0 -0.01625 
0.00875 0 -0.0175 
0.00875 0 -0.01625 
0.01 0 -0.01875 
0.00875 0 -0.02 
0.0075 0 -0.01875 
0.00875 0 -0.01875 
0.00625 0 -0.02 
0.00625 0 -0.01875 
0.0125 0 -0.01625 
0.01125 0 -0.0175 
0.01125 0 -0.01625 
0.015 0 -0.01625 
0.01375 0 -0.0175 
0.01375 0 -0.01625 
0.015 0 -0.01875 
0.01375 0 -0.02 
0.0125 0 -0.01875 
0.01375 0 -0.01875 
0.01125 0 -0.02 
0.01125 0 -0.01875 
0.0175 0 -0.01625 
0.01625 0 -0.0175 
0.01625 0 -0.01625 
0.02 0 -0.01625 
0.01875 0 -0.0175 
0.01875 0 -0.01625 
0.02 0 -0.01875 
0.01875 0 -0.02 
0.0175 0 -0.01875 
0.01875 0 -0.01875 
0.01625 0 -0.02 
0.01625 0 -0.01875 
0.0225 0 -0.01625 
0.02125 0 -0.0175 
0.02125 0 -0.01625 
0.025 0 -0.01625 
0.02375 0 -0.0175 
0.02375 0 -0.01625 
0.025 0 -0.01875 
0.02375 0 -0.02 
0.0225 0 -0.01875 
0.02375 0 -0.01875 
0.02125 0 -0.02 
0.02125 0 -0.01875 
0.0025 0 -0.02125 
0.00125 0 -0.0225 
0.00125 0 -0.02125 
0.00375 0 -0.02125 
0 0 -0.02375 
0.00125 0 -0.02375 
0.005 0 -0.02125 
0.00625 0 -0.02125 
0.01 0 -0.02125 
0.00875 0 -0.02125 
0.01125 0 -0.02125 
0.015 0 -0.02125 
0.01375 0 -0.02125 
0.01625 0 -0.02125 
0.02 0 -0.02125 
0.01875 0 -0.02125 
0.02125 0 -0.02125 
0.025 0 -0.02125 
0.02375 0 -0.02125 
0.0075 0 -0.02125 
0.0125 0 -0.02125 
0.0175 0 -0.02125 
0.0225 0 -0.02125 
0.00375 0 -0.0225 
0.00375 0 -0.02375 
0.0025 0 -0.02375 
0.005 0 -0.0225 
0 0 -0.02625 
0 0 -0.02375 
0 0 -0.02875 
0 0 -0.03125 
0 0 -0.03375 
0 0 -0.03625 
0 0 -0.03875 
0 0 -0.04125 
0 0 -0.04375 
0 0 -0.04625 
0 0 -0.0425 
0 0 -0.0375 
0 0 -0.0325 
0 0 -0.0275 
0 0 -0.045 
0 0 -0.04 
0 0 -0.035 
0 0 -0.03 
0 0 -0.025 
0.005 0 -0.025 
0.01 0 -0.025 
0.015 0 -0.025 
0.02 0 -0.025 
0.025 0 -0.025 
0.005 0 -0.03 
0.01 0 -0.03 
0.015 0 -0.03 
0.02 0 -0.03 
0.025 0 -0.03 
0.005 0 -0.035 
0.01 0 -0.035 
0.015 0 -0.035 
0.02 0 -0.035 
0.025 0 -0.035 
0.005 0 -0.04 
0.01 0 -0.04 
0.015 0 -0.04 
0.02 0 -0.04 
0.025 0 -0.04 
0.005 0 -0.045 
0.01 0 -0.045 
0.015 0 -0.045 
0.02 0 -0.045 
0.025 0 -0.045 
0.005 0 -0.0225 
0.0025 0 -0.025 
0.01 0 -0.0225 
0.0075 0 -0.025 
0.0075 0 -0.0225 
0.015 0 -0.0225 
0.0125 0 -0.025 
0.0125 0 -0.0225 
0.02 0 -0.0225 
0.0175 0 -0.025 
0.0175 0 -0.0225 
0.025 0 -0.0225 
0.0225 0 -0.025 
0.0225 0 -0.0225 
0.005 0 -0.0275 
0.0025 0 -0.03 
0.0025 0 -0.0275 
0.01 0 -0.0275 
0.0075 0 -0.03 
0.0075 0 -0.0275 
0.015 0 -0.0275 
0.0125 0 -0.03 
0.0125 0 -0.0275 
0.02 0 -0.0275 
0.0175 0 -0.03 
0.0175 0 -0.0275 
0.025 0 -0.0275 
0.0225 0 -0.03 
0.0225 0 -0.0275 
0.005 0 -0.0325 
0.0025 0 -0.035 
0.0025 0 -0.0325 
0.01 0 -0.0325 
0.0075 0 -0.035 
0.0075 0 -0.0325 
0.015 0 -0.0325 
0.0125 0 -0.035 
0.0125 0 -0.0325 
0.02 0 -0.0325 
0.0175 0 -0.035 
0.0175 0 -0.0325 
0.025 0 -0.0325 
0.0225 0 -0.035 
0.0225 0 -0.0325 
0.005 0 -0.0375 
0.0025 0 -0.04 
0.0025 0 -0.0375 
0.01 0 -0.0375 
0.0075 0 -0.04 
0.0075 0 -0.0375 
0.015 0 -0.0375 
0.0125 0 -0.04 
[...]
POINT_DATA 1915
SCALARS 1-Al double 1
LOOKUP_TABLE default
0.00741411
0.00741394
0.00741393
0.00741393
0.00741393
0.00741393
0.00741393
0.00741393
0.00741393
0.00741393
0.00741397
0.00741393
0.00741393
0.00741393
0.00741393
0.00741365
0.00741393
0.00741393
0.00741393
9.99971e-08
9.99971e-08
9.99971e-08
9.99971e-08
9.99971e-08
9.99971e-08
0.00741409
0.00741409
0.00741409
0.00741409
0.00741409
9.99971e-08
4.29985e-08
0.00741409
4.57976e-08
3.8167e-08
9.99971e-08
9.84917e-08
0.00741409
9.42931e-08
9.99971e-08
9.86624e-08
0.00741409
9.86918e-08
9.99971e-08
9.9242e-08
0.00741409
9.89683e-08
9.99971e-08
9.90602e-08
0.00741409
9.87364e-08
9.99971e-08
4.11784e-08
3.83531e-08
2.46716e-09
7.72495e-09
9.99971e-08
1.3348e-08
4.21754e-08
4.32534e-09
8.72026e-07
0.00741408
7.41157e-07
1.32804e-08
0.00741409
6.29904e-07
1.5921e-07
9.99971e-08
2.12481e-08
1.01917e-07
1.50041e-09
9.99971e-08
1.27301e-08
1.01792e-07
1.00811e-08
6.48095e-07
0.00741409
2.69665e-07
4.23694e-09
0.00741409
2.25304e-08
9.99971e-08
2.13122e-08
1.23744e-07
1.11533e-08
9.99971e-08
1.28953e-08
1.03139e-07
1.16655e-08
7.06794e-07
0.00741409
2.11667e-07
3.79861e-08
0.00741409
2.69778e-09
9.99971e-08
1.32104e-08
1.23998e-07
1.15779e-08
9.99971e-08
1.37381e-08
1.06111e-07
1.19644e-08
7.02017e-07
0.00741409
1.68194e-07
1.2077e-08
0.00741409
3.30955e-08
9.99971e-08
2.7163e-08
1.24058e-07
1.19608e-08
9.99971e-08
1.28153e-08
1.05972e-07
1.19222e-08
7.21146e-07
0.00741409
3.82293e-07
1.64592e-08
0.00741409
6.74623e-09
0.00741409
0.00741409
0.00741409
0.00741409
0.00741409
0.00741409
0.00741562
0.00741409
0.00741409
0.00741409
0.00741409
0.00741409
0.00741409
0.00741409
0.00741409
0.00741409
0.00741409
0.00741409
0.00741409
0.00741409
0.00741409
0.00741409
0.00741409
0.00741409
0.00741409
0.00741409
0.00741409
0.00741409
0.00741409
0.00741409
0.00741409
0.00741409
0.00741409
0.00741409
0.00741409
0.00741409
0.00741409
0.00741409
0.00741409
0.00741409
0.00741409
0.00741409
0.00741409
0.00741409
0.00741409
0.00741409
0.00741409
0.00741409
0.00741409
0.00741409
0.00741409
0.00741409
0.00741409
0.00741564
0.00741409
0.00741409
0.00741409
0.00741408
0.00741409
0.00741409
0.00741409
0.00741409
0.00741409
0.00741409
0.00741409
0.00741409
0.00741409
0.00741409
0.00741409
0.00741409
0.00741409
0.00741409
0.00741409
0.00741409
0.00741409
0.00741409
0.00741409
0.00741409
0.00741409
0.00741409
0.00741409
0.00741409
0.00741409
0.00741409
0.00741409
0.00741409
0.00741409
0.00741409
0.00741409
0.00741409
0.00741409
0.00741408
0.00741409
0.00741409
0.00741409
0.00741409
0.00741409
0.00741409
0.00741409
0.00741081
0.00741409
0.00741409
0.00741409
0.00741409
0.00741409
0.00741409
0.00741371
0.00741409
0.00741409
0.00741409
0.00741409
0.00741409
0.00741409
0.00741409
0.00741409
0.00741409
0.00741409
0.00741409
0.00741409
0.00741409
0.00741409
0.00741409
0.00741409
0.00741409
0.00741409
0.00741409
0.00741409
0.00741409
0.00741409
0.00741409
0.00741408
0.00741409
0.00741409
0.00741409
0.00741408
0.00741409
0.00741409
0.00741409
0.00741409
0.00741409
0.00741409
0.00741409
0.00741409
0.00741409
0.00741409
0.00741409
0.00741409
0.00741409
0.00741409
0.00741409
0.00741409
0.00741409
0.00741097
0.00741447
0.00741409
0.00741409
0.00741409
0.00741409
0.00741409
0.00741409
0.00741409
0.00741409
0.00741409
0.00741409
0.00741409
0.00741409
0.00741409
0.00741409
0.00741409
0.00741409
0.00741409
0.00741409
0.00741409
0.00741409
0.00741409
0.00741409
0.00741409
0.00741409
0.00741409
0.00741409
0.00741409
0.00741409
0.00741409
0.00741409
0.00741409
0.00741409
0.00741409
0.00741409
0.00741409
0.00741409
0.00741409
0.00741409
0.00741409
0.00741409
0.00741409
0.00741409
0.00741409
0.00741409
0.00741409
0.00741409
0.00741409
0.00741409
0.00741409
0.00741409
0.00741409
0.00741409
0.00741409
0.00741409
0.00741409
0.00741409
0.00741409
0.00741409
0.00741409
0.00741777
0.00741334
0.00741409
0.00741409
0.00741409
0.00741409
0.00741409
0.00741409
0.00741409
0.00741409
0.00741409
0.0074161
0.00741409
0.00741409
0.00741409
0.00741409
0.00741409
0.00741409
0.00741409
0.00741409
0.00741409
0.00741409
0.00741409
0.00741409
0.00741409
0.00741409
0.00741409
0.00741409
0.00741409
0.00741415
0.00741408
0.00741409
0.00741409
0.00741409
0.00741409
0.00741409
0.00741409
0.00741409
0.00741409
0.00741409
0.00741409
0.00741409
0.00741409
0.00741409
0.00741409
0.00741409
0.00741409
0.00741409
0.00741409
0.00741409
0.00741409
0.00741409
0.00741409
0.00741409
0.00741409
0.00741409
0.00741409
0.00741409
0.00741409
0.00741409
0.00741409
0.00741409
0.00741409
0.00741409
0.00741409
0.00741409
0.00741421
0.00741409
0.00741409
0.00741409
0.00741409
0.00741409
0.00741409
0.00741409
0.00741409
0.00741409
0.00741409
0.00741409
0.00741409
0.00741409
0.00741409
0.00741409
0.00741409
0.00741409
0.00741409
0.00741409
0.00741409
0.00741409
0.00741409
0.00741409
0.00741409
0.00741409
0.00741409
0.00741409
0.00741381
0.00741409
0.00741409
0.00741409
0.00741409
0.00741409
0.00741409
0.00741409
0.00741409
0.00741409
0.00741409
0.00741409
0.00741409
0.00741409
0.00741409
0.00741409
0.00741409
0.00741409
0.00741393
0.00741409
0.00741409
0.00741409
0.00741409
0.00741409
0.00741409
0.00741409
0.00741409
0.00741409
0.00741409
0.00741409
0.00741409
0.00741409
0.00741409
0.00741409
0.00741409
0.00741409
0.00741409
0.00741409
0.00741409
0.00741409
0.00741409
0.00741393
0.00741393
0.00741393
0.00741393
0.00741393
0.00741393
0.00741393
0.00741393
0.00741393
0.00741393
0.00741393
0.00741393
0.00741393
0.00741393
0.00741393
0.00741393
0.00741393
0.00741393
0.00741393
0.00741409
0.00741409
0.00741409
0.00741409
0.00741409
0.00741408
0.00741409
0.00741409
0.00741409
0.00741409
0.00741409
0.00741409
0.00741409
0.00741409
0.00741392
0.00741409
0.00741409
0.00741409
0.00741409
0.00741409
0.00741425
0.00741409
0.00741409
0.00741409
0.00741409
0.00741409
0.00741409
0.00741409
0.00741409
0.00741409
0.00741409
0.00741409
0.00741278
0.00741408
0.00741408
0.00741409
0.00741409
0.00741408
0.00741409
0.00741409
0.00741409
0.00741409
0.00741409
0.00741409
0.00741409
0.00741409
0.00741409
0.00741408
0.00741409
0.00741409
0.00741409
0.00741409
0.00741409
0.00741409
0.00741409
0.00741409
0.00741409
0.00741409
0.00741409
0.00741402
0.00741409
0.00741409
0.00741409
0.00741409
0.00741409
0.00741409
0.00741409
0.00741409
0.00741409
0.00741409
0.00741409
0.00741409
0.00741409
0.00741409
0.00741409
0.00741409
0.00741409
0.00741409
0.00741409
0.00741409
0.00741409
0.00741409
0.00741409
0.00741409
0.00741409
0.00741409
0.00741409
0.00741409
0.00741409
0.00741409
0.00741409
0.00741409
0.00741409
0.00741409
0.00741409
0.00741409
0.00741409
0.00741409
0.00741409
0.00741409
0.00741409
0.00741398
0.00741409
0.00741409
0.00741409
0.00741409
0.00741409
0.00741409
0.00741409
0.00741409
0.00741409
0.00741409
0.00741409
0.00741409
0.00741413
0.00741409
0.00741409
0.00741409
0.00741409
0.00741409
0.00741408
0.00741409
0.00741409
0.00741409
0.00741409
0.00741409
0.00741409
0.00741409
0.00741409
0.00741408
0.00741409
0.00741409
0.00741409
0.00741409
0.00741409
0.00741409
0.00741409
0.00741409
0.00741409
0.00741409
0.00741409
0.00741534
0.00741409
0.00741409
0.00741409
0.00741409
0.00741409
0.00741409
0.00741409
0.00741409
0.00741408
0.00741409
0.00741409
0.00741409
0.00741598
0.00741409
0.00741408
0.00741409
0.00741409
0.00741409
0.00741409
0.00741409
0.00741409
0.00741409
0.00741409
0.00741409
0.00741409
0.00741409
0.00741409
0.00741409
0.00741409
0.00741409
0.00741409
0.00741409
0.00741334
0.00741409
0.00741409
0.00741409
0.00741409
0.00741409
0.00741409
0.00741409
0.00741409
0.00741409
0.00741409
0.00741409
0.00741409
0.00741409
0.00741409
0.00741409
0.00741409
0.00741409
0.00741409
0.00741409
0.00741409
0.00741409
0.00741409
0.00741409
0.00741409
0.00741409
0.00741409
0.00741409
0.00741409
0.00741409
0.00741409
0.00741409
0.00741409
0.00741409
0.00741409
0.00741409
0.00741409
0.00741409
0.00741409
0.00741409
0.00741409
0.00741409
0.00741409
0.00741409
0.00741409
0.00741409
0.00741409
0.00741409
0.00741409
0.00741409
0.00741409
0.00741409
0.00741409
0.00741409
0.00741409
0.00741409
0.00741409
0.00741409
0.00741409
0.00741409
0.00741409
0.00741408
0.00741409
0.00741408
0.00741409
0.00741409
0.00741366
0.00741409
0.00741409
0.00741409
0.00741409
0.00741409
0.00741409
0.00741409
0.00741409
0.00741409
0.00741409
0.00741409
0.00741409
0.00741409
0.00741409
0.00741409
0.00741409
0.00741408
0.00741409
0.00741409
0.00741409
0.00741409
0.00741409
0.00741409
0.00741409
0.00741409
0.00741409
0.00741409
0.00741409
0.00741409
0.00741409
0.00741409
0.00741409
0.00741409
0.00741409
0.00741412
0.00741409
0.00741409
0.00741409
0.00741409
0.00741409
0.00741409
0.00741409
0.00741409
0.00741409
0.00741409
0.00741409
0.00741409
0.00741409
0.00741432
0.00741409
0.00741409
0.00741409
0.00741408
0.00741409
0.00741409
0.00741409
0.00741409
0.00741409
0.00741409
0.00741409
0.00741409
0.00741409
0.00741409
0.00741409
0.00741409
0.00741409
0.00741409
0.00741409
0.00741329
0.00741409
0.00741409
0.00741409
0.00741409
0.00741409
0.00741409
0.00741409
0.00741409
0.00741409
0.00741409
0.00741409
0.00741409
0.00741409
0.00741409
0.00741409
0.00741441
0.00741409
0.00741409
0.00741409
0.00741409
0.00741409
0.00741409
0.00741438
0.00741409
0.00741409
0.00741409
0.00741409
0.00741409
0.00741409
0.00741409
0.00741408
0.00741409
0.00741409
0.00741409
0.00741409
0.00741411
0.00741409
0.00741409
0.00741409
0.00741791
0.00741409
0.00741409
0.00741409
0.00741409
0.00741409
0.00741409
0.00741409
0.00741409
0.00741409
0.00741409
0.00741409
0.00741409
0.00741409
0.00741409
0.00741409
0.00741409
0.00741409
0.00741408
0.00741409
0.00741409
0.00741409
0.00741409
0.00741409
0.00741409
0.0074103
0.00741409
0.00741409
0.00741332
0.00741409
0.00741409
0.00741409
0.00741409
0.00741409
0.00741409
0.00741409
0.00741409
0.00741409
0.00741409
0.00741409
0.00741409
0.00741409
0.00741409
0.00741409
0.00741409
0.00741409
0.00741409
0.0074077
0.00741409
0.00741409
0.00741409
0.00741409
0.00741409
0.00741409
0.00741409
0.00741409
0.00741409
0.00741409
0.00741409
0.00741409
0.00741409
0.00741409
0.00741409
0.00741409
0.00741409
0.00741409
0.00741393
0.00741409
0.00741393
0.00741409
0.00741409
0.00741409
0.00741409
0.00741409
0.00741409
0.00741409
0.00741409
0.00741409
0.00741409
0.00741409
0.00741409
0.00741409
0.00741409
0.00741381
0.00741409
0.00741409
0.00741409
0.00741409
0.00741409
0.00741409
0.00741409
0.00741409
0.00741409
0.00741409
0.00741409
0.00741409
0.00741409
0.00741409
0.00741409
0.00741409
0.00741409
0.00741409
0.00741409
0.00741409
0.00741409
0.00741511
0.00741409
0.00741409
0.00741409
0.00741409
0.00741393
0.00741393
0.00741393
0.00741409
0.00741409
0.00741409
0.00741409
0.00741409
0.00741409
0.00741409
0.00741409
0.00741409
0.00741409
0.00741409
0.00741409
0.00741409
0.00741409
0.00741409
0.00741409
0.00741409
0.00741409
0.00741409
0.00741409
0.00741408
0.00741409
0.00741409
0.00741409
0.00741409
0.00741409
0.00741409
0.00741409
0.00741409
0.00741409
0.00741409
0.00741409
0.00741409
0.00741409
0.00741409
0.00741409
0.00741409
0.00741409
0.00741511
0.00742109
0.00741409
0.00741409
0.00741409
0.00741409
0.00741409
0.00741409
0.00741409
0.00741409
0.00741409
0.00741409
0.00741409
0.00741409
0.00741409
0.00741409
0.00741409
0.00741409
0.00741409
0.00741409
0.00741409
0.00741409
0.00741409
0.00741409
0.00741409
0.00741409
0.00741409
0.00741417
0.00741409
0.00741409
0.00741409
0.00741409
0.00741409
0.00741409
0.00741409
0.00741409
0.00741409
0.00741409
0.00741409
0.00741409
0.00741409
0.00741408
0.00741409
0.00741409
0.00741409
0.00741409
0.00741409
0.00741409
0.00741409
0.00741409
0.00741409
0.00741409
0.00741409
0.00741409
0.00741409
0.00741409
0.00741409
0.00741409
0.00741409
0.00741409
0.00741409
0.00741409
0.00741591
0.00741409
0.00741409
0.00741409
0.00741409
0.00741408
0.00741409
0.00741409
0.00741408
0.00741409
0.00741409
0.00741409
0.00741409
0.00741409
0.00741409
0.00741409
0.00741409
0.00741409
0.00741409
0.00741409
0.00741409
0.00741409
0.00741409
0.00741409
0.00741409
0.00741409
0.00741409
0.00741409
0.00741409
0.00741409
0.00741275
0.00741408
0.00741409
0.00741409
0.00741409
0.00741409
0.00741409
0.00741409
0.00741409
0.00741409
0.00741409
0.00741409
0.00741409
0.00741409
0.00741409
0.00741409
0.00741409
0.00741409
0.00741409
0.00741409
0.00741425
0.00741409
0.00741409
0.00741409
0.00741409
0.00741409
0.00741409
0.00741409
0.0074175
0.00741409
0.00741409
0.00741409
0.00741409
0.00741409
0.00741409
0.00741409
0.00741409
0.00741409
0.00741409
0.00741409
0.00741409
0.00741409
0.00741409
0.00741409
0.00741409
0.00741409
0.00741409
0.00741409
0.00741409
0.00741409
0.00741409
0.00741409
0.00741409
0.00741409
0.00741409
0.00741409
0.00741409
0.00741409
0.00741409
0.00741409
0.0074142
0.00741409
0.00741409
0.00741409
0.00741409
0.00741409
0.00741409
0.00741409
0.00741409
0.00741409
0.00741409
0.00741409
0.00741458
0.00741408
0.00741409
0.00741409
0.00741409
0.00741409
0.00741409
0.00741409
0.00741408
0.00741409
0.00741409
0.00741773
0.00741409
0.00741409
0.00741409
0.00741409
0.00741409
0.00741409
0.00741409
0.00741408
0.00741409
0.00741409
0.00741409
0.00741409
0.00741409
0.0074098
0.00741409
0.00741403
0.00741409
0.00741409
0.00741409
0.00741409
0.00741409
0.00741408
0.00741409
0.00741409
0.00741409
0.00741409
0.00741409
0.00741409
0.00741409
0.00741409
0.00741409
0.00741409
0.00741409
0.00741409
0.00741409
0.00741409
0.00741409
0.00741409
0.00741409
0.00741409
0.00741409
0.00741409
0.00741409
0.00741409
0.00741409
0.00741409
0.00741409
0.00741409
0.00741409
0.00741409
0.00741386
0.00741409
0.00741409
0.00741409
0.00741409
0.00741409
0.00741409
0.00741409
0.00741409
0.00741409
0.00741409
0.00741409
0.00741409
0.00741409
0.00741409
0.00741409
0.00741409
0.00741713
0.00741409
0.00741409
0.00741409
0.00741409
0.00741409
0.00741407
0.00741409
0.00741409
0.00741409
0.00741409
0.00741409
0.00741409
0.00741409
0.00741409
0.00741409
0.00741409
0.00741409
0.00741409
0.00741409
0.00741409
0.00741409
0.00741409
0.00741409
0.00741409
0.00741409
0.00741409
0.00741409
0.00741408
0.00741409
0.00741409
0.00741409
0.00741409
0.00741424
0.00741409
0.00741408
0.00741409
0.00741409
0.00741409
0.00741409
0.00741409
0.00741409
0.00741409
0.00741409
0.00741409
0.00741409
0.00741409
0.00741409
0.00741409
0.00741409
0.00741409
0.00741409
0.00741409
0.00741409
0.00741409
0.00741409
0.00741409
0.00741409
0.00741409
0.00741409
0.00741409
0.00741409
0.00741409
0.00741409
0.00741409
0.00741409
0.00741409
0.00741409
0.00741409
0.00741409
0.00741409
0.00741409
0.00741409
0.00741409
0.00741409
0.00741409
0.00741409
0.00741409
0.00741409
0.00741409
0.00741409
0.00741409
0.00741409
0.00741409
0.00741409
0.00741409
0.00741404
0.00741409
0.00741409
0.00741409
0.00741409
0.00741409
0.00741409
0.00741409
0.00741409
0.00741409
0.00741409
0.00741409
0.00741409
0.00741409
0.00741409
0.00741409
0.00741409
0.00741409
0.00741409
0.00741409
0.00741409
0.00741409
0.00741409
0.00741409
0.00741409
0.00741409
0.00741409
0.00741409
0.00741409
0.00741409
0.00741409
0.00741409
0.00741409
0.00741409
0.00741409
0.00741409
0.00741432
0.00741409
0.00741409
0.00741409
0.00741409
0.00741409
0.00741409
0.00741409
0.00741409
0.00741409
0.00741409
0.00741409
0.00741409
0.00741409
0.00741409
0.00741409
0.00741409
0.00741409
0.00741409
0.00741409
0.00741409
0.00741409
0.00741409
0.00741408
0.00741409
0.00741409
0.00741409
0.00741409
0.00741409
0.00741409
0.00741409
0.00741409
0.00741409
0.00741409
0.00741409
0.00741393
0.0074077
0.00741409
0.00741409
0.00741409
0.00741409
0.00741409
0.00741409
0.00741409
0.00741409
0.00741409
0.00741409
0.00741409
0.00741409
0.00741409
0.00741409
0.00741409
0.00741409
0.00741409
0.00741409
0.00741409
0.00741409
0.00741409
0.00741409
0.00741409
0.00741409
0.00741409
0.00741409
0.00741409
0.00741409
0.00741409
0.00741409
0.00741378
0.00741409
0.00741409
0.00741409
0.00741409
0.00741053
0.00741409
0.0074157
0.00741409
0.00741408
0.00741409
0.00741409
0.00741409
0.00741409
0.00741409
0.00741409
0.00741409
0.00741409
0.00741409
0.00741409
0.00741409
0.00741409
0.00741409
0.00741409
0.00741409
0.00741409
0.00741409
0.00741452
0.00741409
0.00741409
0.00741409
0.00741409
0.00741409
0.00741409
0.00741409
0.00741409
0.00741426
0.00741409
0.00741409
0.00741409
0.00741409
0.00741656
0.00741409
0.00741409
0.00741409
0.00741409
0.00741409
0.00741409
0.00741409
0.00741409
0.00741409
0.00741409
0.00741409
0.00741409
0.00741409
0.00741409
0.00741409
0.00741415
0.00741409
0.00741409
0.00741409
0.00741409
0.00741409
0.00741409
0.00741409
0.00741409
0.00741409
0.00741409
0.00741409
0.00741409
0.00741409
0.00741409
0.00741409
0.00741409
0.00741409
0.00741408
0.00741409
0.00741409
0.00741409
0.00741409
0.00741408
0.00741409
0.00741409
0.00741409
0.00741409
0.00741409
0.00741409
0.00741409
0.00741409
0.00741409
0.00741409
0.00741409
0.00741475
0.00741409
0.00741409
0.00741255
0.00741409
0.00741409
0.00741409
0.00741409
0.00741409
0.00741409
0.00741409
0.00741409
0.00741409
0.00741409
0.00741409
0.00741409
0.00741409
0.00741409
0.00741409
0.00741409
0.00741409
0.00741409
0.00741409
0.00741409
0.00741409
0.00741409
0.00741409
0.00741409
0.00741409
0.00741209
0.00741409
0.00741409
0.00741409
0.00741408
0.00741409
0.00741409
0.00741409
0.00741409
0.00741861
0.00741409
0.00741409
0.00741409
0.00741409
0.00741409
0.00741409
0.00741409
0.00741409
0.00741409
0.00741409
0.00741409
0.00741409
0.00741409
0.00741409
0.00741409
0.00741409
0.00741378
0.00741409
0.00741409
0.00741409
0.00741409
0.00741409
0.00741409
0.00741409
0.00741409
0.0074157
0.00741409
0.00741408
0.00741409
0.00741409
0.00741053
0.00741376
0.00741409
0.00741409
0.00741409
0.00741409
0.00741409
0.00741409
0.00741409
0.00741409
0.00741409
0.00741409
0.00741409
0.00741409
0.00741409
0.00741409
0.00741409
0.00741409
0.00741409
0.00741408
0.00741409
0.00741409
0.00741409
0.00741409
0.00741423
0.00741409
0.00741409
0.00741409
0.00741409
0.00741409
0.00741409
0.00741409
0.00741409
0.00741409
0.00741409
0.00741409
0.00741409
0.00741409
0.00741409
0.00741409
0.00741409
0.00741481
0.00741409
0.00741409
0.00741409
0.00741409
0.00741409
0.00741183
0.00741409
0.00741408
0.00741409
0.00741409
0.00741409
0.00741409
0.00741409
0.00741409
0.00741409
0.00741409
0.00741409
0.00741408
0.00741409
0.00741409
0.00741365
0.00741409
0.00741409
0.00741409
0.00741409
0.00741409
0.00741409
0.00741409
0.00741408
0.00741409
0.00741409
0.00740971
0.00741409
0.00741409
0.00741409
0.00741409
0.00741409
0.00741409
0.00741409
0.00741409
0.00741409
0.00741409
0.00741409
0.00741409
0.00741409
0.00741409
0.00741409
0.00741409
0.00741409
0.00741409
0.00741409
0.00741409
0.00741409
0.00741409
0.00741409
0.00741409
0.00741409
0.00741409
0.00741409
0.00741409
0.00741409
0.00741409
0.00741409
0.00741409
0.00741408
0.00741409
0.00741409
0.00741408
0.00741409
0.00741409
0.00741409
0.00741409
0.00741414
0.00741314
0.00741409
0.00741409
0.00741409
0.00741409
0.00741409
0.00741409
0.00741409
0.00741408
0.00741409
0.00741409
0.00741409
0.00741409
0.00741409
0.00741409
0.00741409
0.00741409
0.00741237
0.00741409
0.00741409
0.00741414
0.00741409
0.00741409
0.00741409
0.00741409
0.00741409
0.00741409
0.00740941
0.00741409
0.00741409
0.00741409
0.00741409
0.00741409
0.00741409
0.00741409
0.00741409
0.00741409
0.00741409
0.00741409
0.00741409
0.00741409
0.00741409
0.00741409
0.00741409
0.00741409
0.00741409
0.00740966
0.00741409
0.00741409
0.00741409
0.00741396
0.00741409
0.00741409
0.00741409
0.00741409
0.00741409
0.00741481
0.00741409
0.00741409
0.00741409
0.00741409
0.00741409
0.00741409
0.00741409
0.00741409
0.00741409
0.00741409
0.00741409
0.00741409
0.00741409
0.00741533
0.00741409
0.00741409
0.00741409
0.00741409
0.00741409
0.00741409
0.00741409
0.00741409
0.00741409
0.00741409
0.00740928
0.00741409
0.00741409
0.00741409
0.00741409
0.00741409
0.00741409
0.00741409
0.00741409
0.00741409
0.00741348
0.00741423
0.00741409
0.00741409
0.00741409
0.00741409
0.00741409
0.00741409
0.00741409
0.00741408
0.00741409
0.00741409
0.00741409
0.00741409
0.00741409
0.00741409
0.00741409