# vtk DataFile Version 3.0
Unstructured Grid from OpenGeoSys-GEM
ASCII
DATASET UNSTRUCTURED_GRID
FIELD TimesAndCycles 2
TIME 1 1 double
11.4359
CYCLE 1 1 long
8
POINTS 1915 double
0 0 -0.00125 
0 0 -0.00375 
0 0 -0.00625 
0 0 -0.00875 
0 0 -0.01125 
0 0 -0.01375 
0 0 -0.01625 
0 0 -0.01875 
0 0 -0.02125 
0 0 -0.005 
0 0 -0.0025 
0 0 -0.0225 
0 0 -0.0175 
0 0 -0.0125 
0 0 -0.0075 
0 0 0 
0 0 -0.02 
0 0 -0.015 
0 0 -0.01 
0 0 0.005 
0.005 0 0.005 
0.01 0 0.005 
0.015 0 0.005 
0.02 0 0.005 
0.025 0 0.005 
0.005 0 0 
0.01 0 0 
0.015 0 0 
0.02 0 0 
0.025 0 0 
0.0025 0 0.005 
0.005 0 0.0025 
0.0025 0 0 
0 0 0.0025 
0.0025 0 0.0025 
0.0075 0 0.005 
0.01 0 0.0025 
0.0075 0 0 
0.0075 0 0.0025 
0.0125 0 0.005 
0.015 0 0.0025 
0.0125 0 0 
0.0125 0 0.0025 
0.0175 0 0.005 
0.02 0 0.0025 
0.0175 0 0 
0.0175 0 0.0025 
0.0225 0 0.005 
0.025 0 0.0025 
0.0225 0 0 
0.0225 0 0.0025 
0.00125 0 0.005 
0.0025 0 0.00375 
0.00125 0 0.0025 
0 0 0.00375 
0.00125 0 0.00375 
0.00375 0 0.005 
0.005 0 0.00375 
0.00375 0 0.0025 
0.00375 0 0.00375 
0.005 0 0.00125 
0.00375 0 0 
0.0025 0 0.00125 
0.00375 0 0.00125 
0.00125 0 0 
0 0 0.00125 
0.00125 0 0.00125 
0.00625 0 0.005 
0.0075 0 0.00375 
0.00625 0 0.0025 
0.00625 0 0.00375 
0.00875 0 0.005 
0.01 0 0.00375 
0.00875 0 0.0025 
0.00875 0 0.00375 
0.01 0 0.00125 
0.00875 0 0 
0.0075 0 0.00125 
0.00875 0 0.00125 
0.00625 0 0 
0.00625 0 0.00125 
0.01125 0 0.005 
0.0125 0 0.00375 
0.01125 0 0.0025 
0.01125 0 0.00375 
0.01375 0 0.005 
0.015 0 0.00375 
0.01375 0 0.0025 
0.01375 0 0.00375 
0.015 0 0.00125 
0.01375 0 0 
0.0125 0 0.00125 
0.01375 0 0.00125 
0.01125 0 0 
0.01125 0 0.00125 
0.01625 0 0.005 
0.0175 0 0.00375 
0.01625 0 0.0025 
0.01625 0 0.00375 
0.01875 0 0.005 
0.02 0 0.00375 
0.01875 0 0.0025 
0.01875 0 0.00375 
0.02 0 0.00125 
0.01875 0 0 
0.0175 0 0.00125 
0.01875 0 0.00125 
0.01625 0 0 
0.01625 0 0.00125 
0.02125 0 0.005 
0.0225 0 0.00375 
0.02125 0 0.0025 
0.02125 0 0.00375 
0.02375 0 0.005 
0.025 0 0.00375 
0.02375 0 0.0025 
0.02375 0 0.00375 
0.025 0 0.00125 
0.02375 0 0 
0.0225 0 0.00125 
0.02375 0 0.00125 
0.02125 0 0 
0.02125 0 0.00125 
0.005 0 -0.005 
0.01 0 -0.005 
0.015 0 -0.005 
0.02 0 -0.005 
0.025 0 -0.005 
0.005 0 -0.01 
0.01 0 -0.01 
0.015 0 -0.01 
0.02 0 -0.01 
0.025 0 -0.01 
0.005 0 -0.015 
0.01 0 -0.015 
0.015 0 -0.015 
0.02 0 -0.015 
0.025 0 -0.015 
0.005 0 -0.02 
0.01 0 -0.02 
0.015 0 -0.02 
0.02 0 -0.02 
0.025 0 -0.02 
0.005 0 -0.0025 
0.0025 0 -0.005 
0.0025 0 -0.0025 
0.01 0 -0.0025 
0.0075 0 -0.005 
0.0075 0 -0.0025 
0.015 0 -0.0025 
0.0125 0 -0.005 
0.0125 0 -0.0025 
0.02 0 -0.0025 
0.0175 0 -0.005 
0.0175 0 -0.0025 
0.025 0 -0.0025 
0.0225 0 -0.005 
0.0225 0 -0.0025 
0.005 0 -0.0075 
0.0025 0 -0.01 
0.0025 0 -0.0075 
0.01 0 -0.0075 
0.0075 0 -0.01 
0.0075 0 -0.0075 
0.015 0 -0.0075 
0.0125 0 -0.01 
0.0125 0 -0.0075 
0.02 0 -0.0075 
0.0175 0 -0.01 
0.0175 0 -0.0075 
0.025 0 -0.0075 
0.0225 0 -0.01 
0.0225 0 -0.0075 
0.005 0 -0.0125 
0.0025 0 -0.015 
0.0025 0 -0.0125 
0.01 0 -0.0125 
0.0075 0 -0.015 
0.0075 0 -0.0125 
0.015 0 -0.0125 
0.0125 0 -0.015 
0.0125 0 -0.0125 
0.02 0 -0.0125 
0.0175 0 -0.015 
0.0175 0 -0.0125 
0.025 0 -0.0125 
0.0225 0 -0.015 
0.0225 0 -0.0125 
0.005 0 -0.0175 
0.0025 0 -0.02 
0.0025 0 -0.0175 
0.01 0 -0.0175 
0.0075 0 -0.02 
0.0075 0 -0.0175 
0.015 0 -0.0175 
0.0125 0 -0.02 
0.0125 0 -0.0175 
0.02 0 -0.0175 
0.0175 0 -0.02 
0.0175 0 -0.0175 
0.025 0 -0.0175 
0.0225 0 -0.02 
0.0225 0 -0.0175 
0.0025 0 -0.0225 
0.0025 0 -0.00125 
0.00125 0 -0.0025 
0.00125 0 -0.00125 
0.005 0 -0.00125 
0.00375 0 -0.0025 
0.00375 0 -0.00125 
0.005 0 -0.00375 
0.00375 0 -0.005 
0.0025 0 -0.00375 
0.00375 0 -0.00375 
0.00125 0 -0.005 
0.00125 0 -0.00375 
0.0075 0 -0.00125 
0.00625 0 -0.0025 
0.00625 0 -0.00125 
0.01 0 -0.00125 
0.00875 0 -0.0025 
0.00875 0 -0.00125 
0.01 0 -0.00375 
0.00875 0 -0.005 
0.0075 0 -0.00375 
0.00875 0 -0.00375 
0.00625 0 -0.005 
0.00625 0 -0.00375 
0.0125 0 -0.00125 
0.01125 0 -0.0025 
0.01125 0 -0.00125 
0.015 0 -0.00125 
0.01375 0 -0.0025 
0.01375 0 -0.00125 
0.015 0 -0.00375 
0.01375 0 -0.005 
0.0125 0 -0.00375 
0.01375 0 -0.00375 
0.01125 0 -0.005 
0.01125 0 -0.00375 
0.0175 0 -0.00125 
0.01625 0 -0.0025 
0.01625 0 -0.00125 
0.02 0 -0.00125 
0.01875 0 -0.0025 
0.01875 0 -0.00125 
0.02 0 -0.00375 
0.01875 0 -0.005 
0.0175 0 -0.00375 
0.01875 0 -0.00375 
0.01625 0 -0.005 
0.01625 0 -0.00375 
0.0225 0 -0.00125 
0.02125 0 -0.0025 
0.02125 0 -0.00125 
0.025 0 -0.00125 
0.02375 0 -0.0025 
0.02375 0 -0.00125 
0.025 0 -0.00375 
0.02375 0 -0.005 
0.0225 0 -0.00375 
0.02375 0 -0.00375 
0.02125 0 -0.005 
0.02125 0 -0.00375 
0.0025 0 -0.00625 
0.00125 0 -0.0075 
0.00125 0 -0.00625 
0.005 0 -0.00625 
0.00375 0 -0.0075 
0.00375 0 -0.00625 
0.005 0 -0.00875 
0.00375 0 -0.01 
0.0025 0 -0.00875 
0.00375 0 -0.00875 
0.00125 0 -0.01 
0.00125 0 -0.00875 
0.0075 0 -0.00625 
0.00625 0 -0.0075 
0.00625 0 -0.00625 
0.01 0 -0.00625 
0.00875 0 -0.0075 
0.00875 0 -0.00625 
0.01 0 -0.00875 
0.00875 0 -0.01 
0.0075 0 -0.00875 
0.00875 0 -0.00875 
0.00625 0 -0.01 
0.00625 0 -0.00875 
0.0125 0 -0.00625 
0.01125 0 -0.0075 
0.01125 0 -0.00625 
0.015 0 -0.00625 
0.01375 0 -0.0075 
0.01375 0 -0.00625 
0.015 0 -0.00875 
0.01375 0 -0.01 
0.0125 0 -0.00875 
0.01375 0 -0.00875 
0.01125 0 -0.01 
0.01125 0 -0.00875 
0.0175 0 -0.00625 
0.01625 0 -0.0075 
0.01625 0 -0.00625 
0.02 0 -0.00625 
0.01875 0 -0.0075 
0.01875 0 -0.00625 
0.02 0 -0.00875 
0.01875 0 -0.01 
0.0175 0 -0.00875 
0.01875 0 -0.00875 
0.01625 0 -0.01 
0.01625 0 -0.00875 
0.0225 0 -0.00625 
0.02125 0 -0.0075 
0.02125 0 -0.00625 
0.025 0 -0.00625 
0.02375 0 -0.0075 
0.02375 0 -0.00625 
0.025 0 -0.00875 
0.02375 0 -0.01 
0.0225 0 -0.00875 
0.02375 0 -0.00875 
0.02125 0 -0.01 
0.02125 0 -0.00875 
0.0025 0 -0.01125 
0.00125 0 -0.0125 
0.00125 0 -0.01125 
0.005 0 -0.01125 
0.00375 0 -0.0125 
0.00375 0 -0.01125 
0.005 0 -0.01375 
0.00375 0 -0.015 
0.0025 0 -0.01375 
0.00375 0 -0.01375 
0.00125 0 -0.015 
0.00125 0 -0.01375 
0.0075 0 -0.01125 
0.00625 0 -0.0125 
0.00625 0 -0.01125 
0.01 0 -0.01125 
0.00875 0 -0.0125 
0.00875 0 -0.01125 
0.01 0 -0.01375 
0.00875 0 -0.015 
0.0075 0 -0.01375 
0.00875 0 -0.01375 
0.00625 0 -0.015 
0.00625 0 -0.01375 
0.0125 0 -0.01125 
0.01125 0 -0.0125 
0.01125 0 -0.01125 
0.015 0 -0.01125 
0.01375 0 -0.0125 
0.01375 0 -0.01125 
0.015 0 -0.01375 
0.01375 0 -0.015 
0.0125 0 -0.01375 
0.01375 0 -0.01375 
0.01125 0 -0.015 
0.01125 0 -0.01375 
0.0175 0 -0.01125 
0.01625 0 -0.0125 
0.01625 0 -0.01125 
0.02 0 -0.01125 
0.01875 0 -0.0125 
0.01875 0 -0.01125 
0.02 0 -0.01375 
0.01875 0 -0.015 
0.0175 0 -0.01375 
0.01875 0 -0.01375 
0.01625 0 -0.015 
0.01625 0 -0.01375 
0.0225 0 -0.01125 
0.02125 0 -0.0125 
0.02125 0 -0.01125 
0.025 0 -0.01125 
0.02375 0 -0.0125 
0.02375 0 -0.01125 
0.025 0 -0.01375 
0.02375 0 -0.015 
0.0225 0 -0.01375 
0.02375 0 -0.01375 
0.02125 0 -0.015 
0.02125 0 -0.01375 
0.0025 0 -0.01625 
0.00125 0 -0.0175 
0.00125 0 -0.01625 
0.005 0 -0.01625 
0.00375 0 -0.0175 
0.00375 0 -0.01625 
0.005 0 -0.01875 
0.00375 0 -0.02 
0.0025 0 -0.01875 
0.00375 0 -0.01875 
0.00125 0 -0.02 
0.00125 0 -0.01875 
0.0075 0 -0.01625 
0.00625 0 -0.0175 
0.00625 0 -0.01625 
0.01 0 -0.01625 
0.00875 0 -0.0175 
0.00875 0 -0.01625 
0.01 0 -0.01875 
0.00875 0 -0.02 
0.0075 0 -0.01875 
0.00875 0 -0.01875 
0.00625 0 -0.02 
0.00625 0 -0.01875 
0.0125 0 -0.01625 
0.01125 0 -0.0175 
0.01125 0 -0.01625 
0.015 0 -0.01625 
0.01375 0 -0.0175 
0.01375 0 -0.01625 
0.015 0 -0.01875 
0.01375 0 -0.02 
0.0125 0 -0.01875 
0.01375 0 -0.01875 
0.01125 0 -0.02 
0.01125 0 -0.01875 
0.0175 0 -0.01625 
0.01625 0 -0.0175 
0.01625 0 -0.01625 
0.02 0 -0.01625 
0.01875 0 -0.0175 
0.01875 0 -0.01625 
0.02 0 -0.01875 
0.01875 0 -0.02 
0.0175 0 -0.01875 
0.01875 0 -0.01875 
0.01625 0 -0.02 
0.01625 0 -0.01875 
0.0225 0 -0.01625 
0.02125 0 -0.0175 
0.02125 0 -0.01625 
0.025 0 -0.01625 
0.02375 0 -0.0175 
0.02375 0 -0.01625 
0.025 0 -0.01875 
0.02375 0 -0.02 
0.0225 0 -0.01875 
0.02375 0 -0.01875 
0.02125 0 -0.02 
0.02125 0 -0.01875 
0.0025 0 -0.02125 
0.00125 0 -0.0225 
0.00125 0 -0.02125 
0.00375 0 -0.02125 
0 0 -0.02375 
0.00125 0 -0.02375 
0.005 0 -0.02125 
0.00625 0 -0.02125 
0.01 0 -0.02125 
0.00875 0 -0.02125 
0.01125 0 -0.02125 
0.015 0 -0.02125 
0.01375 0 -0.02125 
0.01625 0 -0.02125 
0.02 0 -0.02125 
0.01875 0 -0.02125 
0.02125 0 -0.02125 
0.025 0 -0.02125 
0.02375 0 -0.02125 
0.0075 0 -0.02125 
0.0125 0 -0.02125 
0.0175 0 -0.02125 
0.0225 0 -0.02125 
0.00375 0 -0.0225 
0.00375 0 -0.02375 
0.0025 0 -0.02375 
0.005 0 -0.0225 
0 0 -0.02625 
0 0 -0.02375 
0 0 -0.02875 
0 0 -0.03125 
0 0 -0.03375 
0 0 -0.03625 
0 0 -0.03875 
0 0 -0.04125 
0 0 -0.04375 
0 0 -0.04625 
0 0 -0.0425 
0 0 -0.0375 
0 0 -0.0325 
0 0 -0.0275 
0 0 -0.045 
0 0 -0.04 
0 0 -0.035 
0 0 -0.03 
0 0 -0.025 
0.005 0 -0.025 
0.01 0 -0.025 
0.015 0 -0.025 
0.02 0 -0.025 
0.025 0 -0.025 
0.005 0 -0.03 
0.01 0 -0.03 
0.015 0 -0.03 
0.02 0 -0.03 
0.025 0 -0.03 
0.005 0 -0.035 
0.01 0 -0.035 
0.015 0 -0.035 
0.02 0 -0.035 
0.025 0 -0.035 
0.005 0 -0.04 
0.01 0 -0.04 
0.015 0 -0.04 
0.02 0 -0.04 
0.025 0 -0.04 
0.005 0 -0.045 
0.01 0 -0.045 
0.015 0 -0.045 
0.02 0 -0.045 
0.025 0 -0.045 
0.005 0 -0.0225 
0.0025 0 -0.025 
0.01 0 -0.0225 
0.0075 0 -0.025 
0.0075 0 -0.0225 
0.015 0 -0.0225 
0.0125 0 -0.025 
0.0125 0 -0.0225 
0.02 0 -0.0225 
0.0175 0 -0.025 
0.0175 0 -0.0225 
0.025 0 -0.0225 
0.0225 0 -0.025 
0.0225 0 -0.0225 
0.005 0 -0.0275 
0.0025 0 -0.03 
0.0025 0 -0.0275 
0.01 0 -0.0275 
0.0075 0 -0.03 
0.0075 0 -0.0275 
0.015 0 -0.0275 
0.0125 0 -0.03 
0.0125 0 -0.0275 
0.02 0 -0.0275 
0.0175 0 -0.03 
0.0175 0 -0.0275 
0.025 0 -0.0275 
0.0225 0 -0.03 
0.0225 0 -0.0275 
0.005 0 -0.0325 
0.0025 0 -0.035 
0.0025 0 -0.0325 
0.01 0 -0.0325 
0.0075 0 -0.035 
0.0075 0 -0.0325 
0.015 0 -0.0325 
0.0125 0 -0.035 
0.0125 0 -0.0325 
0.02 0 -0.0325 
0.0175 0 -0.035 
0.0175 0 -0.0325 
0.025 0 -0.0325 
0.0225 0 -0.035 
0.0225 0 -0.0325 
0.005 0 -0.0375 
0.0025 0 -0.04 
0.0025 0 -0.0375 
0.01 0 -0.0375 
0.0075 0 -0.04 
0.0075 0 -0.0375 
0.015 0 -0.0375 
0.0125 0 -0.04 
[...]
POINT_DATA 1915
SCALARS 1-Al double 1
LOOKUP_TABLE default
0.007413
0.00741375
0.00741394
0.00741393
0.00741393
0.00741393
0.00741393
0.00741393
0.00741393
0.00741398
0.0074146
0.00741393
0.00741393
0.00741393
0.00741393
0.00740898
0.00741393
0.00741393
0.00741393
9.99971e-08
9.99971e-08
9.99971e-08
9.99971e-08
9.99971e-08
9.99971e-08
0.00741409
0.00741409
0.00741409
0.00741409
0.00741377
9.99971e-08
7.89517e-08
0.00741409
4.22669e-06
1.50748e-07
9.99971e-08
3.05238e-06
0.00741409
3.33444e-06
9.99971e-08
4.83964e-08
0.00741409
3.88738e-08
9.99971e-08
8.04027e-08
0.00741409
6.3481e-08
9.99971e-08
9.29252e-08
0.00741409
8.82944e-08
9.99971e-08
3.39335e-06
6.68634e-07
3.68011e-07
1.48282e-07
9.99971e-08
2.45398e-07
3.34132e-06
4.77118e-07
4.4294e-06
0.00741409
5.93626e-06
1.06197e-05
0.00741409
0.000108769
8.21575e-05
9.99971e-08
1.34918e-07
3.32962e-06
1.49982e-07
9.99971e-08
1.48447e-07
3.86823e-08
1.50468e-07
3.35496e-06
0.00741409
3.65223e-06
3.59808e-06
0.00741409
4.0137e-06
9.99971e-08
1.21757e-07
3.4649e-08
1.46818e-07
9.99971e-08
1.11807e-07
4.40065e-08
1.13802e-07
2.73412e-06
0.00741409
2.93973e-06
2.82646e-06
0.00741409
3.15106e-06
9.99971e-08
1.08549e-07
5.22323e-08
1.1067e-07
9.99971e-08
1.04831e-07
7.41169e-08
1.06382e-07
2.5885e-06
0.00741409
2.67476e-06
2.62457e-06
0.00741409
2.65563e-06
9.99971e-08
1.02941e-07
8.51461e-08
1.03751e-07
9.99971e-08
1.01816e-07
9.15407e-08
1.02195e-07
2.5361e-06
0.00741409
2.54646e-06
2.53739e-06
0.00741409
2.56324e-06
0.00741409
0.00741409
0.00741409
0.00741409
0.00741409
0.00741409
0.00741409
0.00741409
0.00741409
0.00741409
0.00741409
0.00741409
0.00741409
0.00741409
0.00741409
0.00741409
0.00741409
0.00741409
0.00741409
0.00741409
0.00741409
0.00741409
0.00741409
0.00741409
0.00741409
0.00741409
0.00741409
0.00741409
0.00741409
0.00741409
0.00741409
0.00741409
0.00741409
0.00741409
0.00741409
0.00741409
0.00741409
0.00741409
0.00741409
0.00741409
0.00741409
0.00741409
0.00741409
0.00741409
0.00741409
0.00741409
0.00741409
0.00741409
0.00741409
0.00741409
0.00741409
0.00741409
0.00741409
0.00741409
0.00741409
0.00741409
0.00741409
0.00741409
0.00741409
0.00741409
0.00741409
0.00741409
0.00741409
0.00741409
0.00741409
0.00741409
0.00741409
0.00741409
0.00741409
0.00741409
0.0074121
0.00741409
0.00741388
0.00741408
0.00741409
0.00741409
0.00741409
0.00741409
0.00741409
0.00741409
0.00741409
0.00741409
0.00741409
0.00741409
0.00741409
0.00741409
0.00741409
0.00741409
0.00741409
0.00741409
0.00741409
0.00741409
0.00741409
0.00741409
0.00741409
0.00741409
0.00741409
0.00741409
0.00741409
0.00741409
0.00741409
0.00741409
0.00741409
0.00741409
0.00741744
0.00741409
0.00741409
0.00741409
0.00741409
0.00741409
0.00741528
0.00741408
0.00741409
0.00741409
0.00741409
0.00741409
0.00741409
0.00741408
0.00741409
0.00741986
0.00741409
0.00741409
0.00741475
0.00741409
0.00741409
0.00741409
0.00741409
0.00741409
0.00741409
0.00741409
0.00741409
0.00741409
0.00741409
0.00741409
0.00741408
0.00741409
0.00741409
0.00741409
0.00741409
0.00741409
0.00741409
0.00741409
0.00741409
0.00741409
0.00741409
0.00741409
0.00741409
0.00741409
0.00741409
0.00741409
0.00741409
0.00741409
0.00741443
0.00741409
0.00741409
0.00741409
0.00741409
0.00741409
0.00741408
0.00741409
0.00741409
0.00741409
0.00741409
0.00741409
0.00741409
0.00741409
0.00741409
0.00741409
0.00741409
0.00741409
0.00741409
0.00741409
0.00741409
0.00741409
0.00741409
0.00741409
0.00741409
0.00741409
0.00741409
0.00741409
0.00741409
0.00741409
0.00741409
0.00741409
0.00741535
0.00741409
0.00741409
0.00741409
0.00741409
0.00741409
0.00741409
0.00740777
0.00741409
0.00741409
0.00741409
0.00741409
0.00741535
0.00741409
0.00741409
0.0074137
0.00741409
0.00741409
0.00741406
0.00741409
0.00741409
0.00741409
0.00741409
0.00741409
0.00741409
0.00741409
0.00741409
0.00741409
0.00741409
0.00741409
0.00741409
0.00741409
0.00741409
0.00741409
0.00741409
0.00741409
0.00741409
0.00741409
0.00741409
0.00741409
0.00741409
0.00741409
0.00741409
0.00741409
0.00741409
0.00741409
0.00741409
0.00741409
0.00741409
0.00741409
0.00741409
0.00741409
0.0074118
0.00741409
0.00741409
0.00741409
0.00741409
0.00741409
0.00741409
0.00741409
0.00741409
0.00741409
0.00741409
0.00741408
0.00741409
0.00741409
0.00741409
0.00741409
0.00741487
0.00741409
0.00741409
0.00741409
0.00741409
0.00741409
0.00741409
0.00741409
0.00741409
0.00741409
0.00741409
0.00741408
0.00741409
0.00741409
0.00741409
0.00741409
0.00741409
0.00741409
0.00741409
0.00741409
0.00741409
0.00741409
0.00741409
0.00741409
0.00741409
0.00741409
0.00741722
0.00741409
0.00741409
0.00741409
0.00741409
0.00741409
0.00741409
0.00741409
0.00741409
0.00741409
0.00741409
0.00741409
0.00741409
0.00741409
0.00741409
0.00741409
0.00741409
0.00741409
0.00741409
0.00741409
0.00741378
0.00741409
0.00741409
0.00741409
0.00741409
0.00741409
0.00741409
0.00741409
0.00741409
0.00741409
0.00741409
0.00741409
0.00741409
0.00741409
0.00741409
0.00741409
0.00741409
0.00741409
0.00741409
0.00741409
0.00741409
0.00741409
0.00741409
0.00741409
0.00741409
0.00741409
0.00741409
0.00741393
0.00741409
0.00741409
0.00741409
0.00741409
0.00741409
0.00741409
0.00741409
0.00741409
0.00741409
0.00741409
0.00741409
0.00741409
0.00741409
0.00741409
0.00741409
0.00741409
0.00741267
0.00741409
0.00741409
0.00741409
0.00741409
0.00741409
0.00741393
0.00741393
0.00741393
0.00741393
0.00741393
0.00741393
0.00741393
0.00741393
0.00741393
0.00741393
0.00741393
0.00741393
0.00741393
0.00741393
0.00741393
0.00741393
0.00741393
0.00741393
0.00741393
0.00741409
0.00741409
0.00741409
0.00741409
0.00741409
0.00741408
0.00741409
0.00741409
0.00741409
0.00741408
0.00741409
0.00741409
0.00741409
0.00741428
0.00741409
0.00741409
0.00741409
0.00741408
0.00741405
0.00741409
0.00741409
0.00741409
0.00741418
0.00741409
0.00741409
0.00741409
0.00741169
0.00741409
0.00741409
0.00741589
0.00741409
0.00741409
0.00741409
0.00741409
0.00741409
0.00741409
0.00741409
0.00741409
0.00741409
0.00741409
0.00741409
0.00741409
0.00741409
0.00741409
0.00741408
0.00741414
0.00741409
0.00741409
0.00741409
0.00741409
0.00741409
0.00741409
0.00741409
0.00741409
0.00741409
0.00741409
0.00741409
0.00741409
0.00741409
0.00741409
0.00741409
0.00741409
0.00741409
0.00741409
0.00741409
0.00741409
0.00741409
0.00741409
0.00741345
0.00741409
0.00741409
0.00741409
0.00741409
0.00741409
0.00741409
0.00741409
0.00741409
0.00741526
0.00741409
0.00741409
0.00741409
0.00741406
0.00741413
0.00741569
0.00741409
0.00741409
0.00741409
0.00741409
0.00741408
0.00741409
0.00741409
0.00741409
0.00741409
0.00741409
0.00741409
0.00741409
0.00741409
0.00741409
0.00741409
0.00741409
0.00741409
0.00741032
0.00741409
0.00741409
0.00741409
0.00741409
0.00741409
0.00741409
0.00741409
0.00741409
0.00741409
0.00741409
0.00741409
0.00741409
0.00741409
0.00741408
0.00741409
0.00741409
0.00741408
0.00741409
0.00741588
0.00741409
0.00741409
0.00741409
0.00741409
0.00741409
0.00741409
0.00741409
0.00741409
0.00741409
0.00741409
0.00741267
0.00741409
0.00741409
0.00741409
0.00741409
0.00741409
0.00741409
0.00741409
0.00741409
0.00741409
0.00741409
0.00740924
0.00741409
0.00741409
0.00741409
0.00741409
0.00741409
0.00741409
0.00741409
0.00741409
0.00741409
0.00741409
0.00741409
0.00741409
0.00741409
0.00741409
0.00741409
0.00741409
0.00741409
0.00741409
0.00741409
0.00741409
0.00741409
0.00741409
0.00741408
0.00741409
0.00741409
0.00741337
0.00741409
0.00741409
0.00741409
0.00741409
0.00741409
0.00741409
0.00741409
0.00741409
0.00741409
0.00741409
0.00741409
0.00741409
0.00741409
0.00741409
0.00741409
0.00741409
0.00741409
0.00741409
0.00741409
0.00741409
0.0074141
0.00741409
0.00741409
0.00741409
0.00741409
0.00741409
0.00741806
0.00741409
0.00741409
0.00741409
0.00741409
0.00741409
0.00741409
0.00741409
0.00741409
0.00741409
0.00741409
0.00741409
0.00741409
0.00741409
0.00741409
0.00741334
0.00741409
0.00741409
0.00741409
0.00741409
0.00741409
0.00741409
0.00741409
0.00741687
0.00741409
0.00741409
0.00741409
0.00741409
0.00741409
0.00741409
0.00741409
0.00741409
0.00741409
0.00741409
0.00741409
0.00741409
0.00741409
0.00741409
0.00741382
0.00741408
0.00741409
0.00741409
0.00741409
0.00741409
0.00741409
0.00741409
0.00741409
0.00741409
0.00741409
0.00741409
0.00741409
0.00741409
0.00741409
0.00741408
0.00741409
0.00741409
0.00741064
0.00741409
0.00741409
0.00741409
0.00741409
0.00741409
0.00741409
0.00741409
0.00741409
0.00741409
0.00741409
0.00741409
0.00741409
0.00741409
0.00741409
0.00741409
0.00741409
0.00741409
0.00741409
0.00741409
0.00741409
0.00741409
0.00741445
0.00741409
0.00741409
0.00741409
0.00741409
0.00741409
0.00741409
0.00741409
0.00741409
0.00741409
0.00741409
0.00741288
0.00741409
0.00741409
0.00741409
0.00741409
0.00741409
0.00741409
0.00741409
0.00741409
0.00741409
0.00741409
0.00741409
0.00741409
0.00741409
0.00741409
0.00741409
0.00741409
0.00741409
0.00741409
0.00741134
0.00741409
0.00741641
0.00741761
0.00741409
0.00741409
0.00741409
0.00741408
0.00741472
0.00741409
0.00741409
0.00741409
0.00741409
0.00741409
0.00741409
0.00741409
0.00741409
0.00741409
0.00741409
0.00741409
0.00741409
0.00741409
0.00741409
0.00741399
0.00741409
0.00741409
0.00741409
0.00741409
0.00741409
0.00741409
0.00741408
0.00741409
0.00741409
0.00741409
0.00741409
0.00741409
0.00741409
0.00741408
0.00741409
0.00741409
0.00741409
0.00741409
0.00741409
0.00741409
0.00741409
0.00741409
0.00741409
0.00741409
0.00741409
0.00741409
0.00741409
0.00741409
0.00741408
0.00741409
0.00741409
0.00741409
0.00741409
0.00741409
0.00741409
0.00741409
0.00741409
0.00741409
0.00741409
0.00741409
0.00741409
0.00741409
0.00741409
0.00741409
0.00741409
0.00741409
0.00741409
0.00741409
0.00741409
0.00741409
0.00741409
0.00741409
0.00741409
0.00741409
0.00741409
0.00741409
0.00741409
0.00741409
0.00741409
0.00741409
0.00741409
0.00741409
0.00741409
0.00741409
0.00741409
0.00741638
0.00741409
0.00741409
0.00741409
0.00741409
0.00741409
0.00741409
0.00741409
0.00741409
0.00741409
0.00741409
0.00741409
0.00741409
0.00741409
0.00741409
0.00741408
0.00741168
0.00741409
0.00741409
0.00741409
0.00741409
0.00741409
0.00741409
0.00741393
0.00741409
0.00741393
0.00741409
0.00741409
0.00741409
0.00741409
0.00741409
0.00741409
0.00741409
0.00741409
0.00741409
0.00741409
0.00741409
0.00741388
0.00741409
0.00741409
0.00741409
0.00741409
0.00741409
0.00741409
0.00741409
0.00741409
0.00741409
0.00741409
0.00741409
0.00741409
0.00741409
0.00741409
0.00741409
0.00741409
0.00741409
0.00741409
0.00741409
0.00741409
0.00741409
0.00741409
0.00741409
0.00741409
0.00741409
0.00741409
0.00741408
0.00741409
0.00741409
0.00741393
0.00741393
0.00741393
0.00741409
0.00741409
0.00741409
0.00741409
0.00741409
0.00741409
0.00741409
0.00741408
0.00741409
0.00741409
0.00741409
0.00741409
0.00741409
0.00741409
0.00741409
0.00741409
0.00741409
0.00741409
0.00741409
0.00741409
0.00741409
0.00741409
0.00741409
0.00741409
0.0074141
0.00741409
0.00741409
0.00741409
0.00741409
0.00741409
0.00741409
0.00741409
0.00741409
0.00741409
0.00741409
0.00741409
0.00741409
0.00741409
0.00741409
0.00741409
0.00741409
0.00741409
0.00741409
0.00741408
0.00741409
0.00741409
0.00741409
0.00741409
0.00741409
0.00741409
0.00741409
0.00741409
0.00741409
0.00741409
0.00741409
0.00741409
0.00741409
0.00741409
0.00741409
0.00741409
0.00741409
0.00741409
0.00741409
0.00741068
0.00741409
0.00741409
0.00741409
0.00741409
0.00741409
0.00741409
0.00741409
0.00741409
0.00741409
0.00741409
0.00741409
0.00741252
0.00741409
0.00741409
0.00741409
0.00741409
0.00741409
0.00741409
0.00741409
0.00741409
0.00741409
0.00741409
0.00741409
0.00741409
0.00741409
0.00741409
0.00741409
0.00741409
0.00741409
0.00741409
0.00741409
0.00741409
0.00741409
0.00741409
0.00741409
0.00741409
0.00741409
0.00741374
0.00741409
0.00741409
0.00741394
0.00741409
0.00741409
0.00741409
0.00741409
0.00741409
0.00741409
0.00741409
0.00741409
0.00741409
0.00741409
0.00741356
0.00741409
0.00741409
0.00741409
0.00741409
0.00741409
0.00741409
0.00741409
0.00741409
0.00741409
0.00741409
0.00741409
0.00741409
0.00741409
0.00741409
0.00741409
0.00741409
0.00741409
0.00741409
0.00741409
0.00741409
0.00741409
0.00741409
0.00741409
0.00741409
0.00741409
0.00741407
0.00741409
0.00741409
0.00741409
0.00741409
0.00741409
0.00741409
0.00741409
0.00741409
0.00741409
0.00741409
0.00741409
0.00741409
0.00741409
0.00741604
0.00741409
0.00741409
0.00741409
0.00741409
0.00741409
0.00741393
0.00741409
0.00741409
0.00741409
0.00741409
0.00741409
0.00741409
0.00741409
0.00741409
0.00741409
0.00741409
0.00741409
0.00741409
0.00741409
0.00741409
0.00741409
0.00741409
0.00741409
0.0074135
0.00741409
0.00741409
0.00741409
0.00741409
0.00741409
0.00741409
0.00741409
0.00741409
0.00741409
0.00741408
0.00741409
0.00741409
0.00741409
0.00741409
0.00741409
0.00741409
0.00741409
0.00741409
0.00741409
0.00741409
0.00741409
0.00741409
0.00741408
0.00741409
0.00741409
0.00741409
0.00741409
0.00741409
0.00741409
0.00741409
0.00741409
0.00741409
0.00741409
0.00741409
0.00741409
0.00741409
0.00741409
0.00741409
0.00741409
0.00741409
0.00741409
0.00741409
0.00741409
0.00741409
0.00741112
0.00741409
0.00741409
0.00741409
0.00741409
0.00741409
0.00741409
0.00741701
0.00741409
0.00741409
0.00741409
0.00741409
0.00741409
0.00741409
0.00741409
0.00741409
0.00741409
0.00741409
0.00741409
0.00741409
0.00741409
0.00741409
0.00741409
0.00741409
0.00741409
0.00741409
0.00741409
0.00741409
0.00741409
0.00741409
0.00741409
0.00741409
0.00741409
0.00741492
0.00741409
0.00741409
0.00741409
0.00741409
0.00741391
0.00741409
0.00741409
0.00741409
0.00741409
0.00741409
0.00741409
0.00741409
0.00741409
0.00741409
0.00741409
0.00741467
0.00741409
0.00741409
0.00741409
0.00741409
0.00741409
0.00741409
0.00741409
0.00741409
0.00741409
0.00741409
0.00741368
0.00741409
0.00741409
0.00741409
0.00741409
0.00741409
0.00741409
0.00741409
0.00741408
0.00741116
0.00741409
0.00741409
0.00741409
0.00741409
0.00741409
0.00741409
0.00741409
0.00741409
0.00741409
0.00741409
0.00741409
0.00741409
0.00741409
0.00741409
0.00741409
0.00741409
0.00741409
0.00741409
0.00741409
0.00741409
0.00741409
0.00741409
0.00741409
0.00741409
0.00741409
0.00741409
0.00741783
0.00741473
0.00741409
0.00741408
0.00741409
0.00741475
0.00741409
0.00741409
0.00741409
0.00741441
0.00741409
0.00741409
0.00741409
0.00741409
0.00741409
0.00741442
0.00741409
0.00741409
0.00741409
0.00741409
0.00741409
0.00741409
0.00741409
0.00741409
0.00741409
0.00741409
0.00741409
0.00741409
0.00741409
0.00741409
0.00741409
0.00741409
0.00741409
0.00741409
0.00741166
0.00741409
0.00741409
0.00741409
0.00741409
0.00741409
0.00741409
0.00741409
0.00741409
0.00741409
0.00741408
0.00741409
0.00741409
0.00741409
0.00741409
0.00741409
0.00741048
0.00741409
0.00741409
0.00741409
0.00741409
0.00741409
0.00741409
0.00741409
0.00741409
0.00741409
0.00741409
0.00741409
0.00741409
0.00741409
0.00741409
0.00741409
0.00741409
0.00741409
0.00741409
0.00741409
0.00741409
0.00741409
0.00741409
0.00741409
0.00741409
0.00741409
0.00741409
0.00741409
0.00741409
0.00741409
0.00741409
0.00741409
0.00741409
0.00741409
0.00741409
0.00741409
0.00741409
0.00741409
0.00741409
0.00741409
0.00741409
0.00741409
0.00741409
0.00741409
0.00741409
0.00741409
0.00741409
0.00741409
0.00741409
0.00741409
0.00741409
0.00741409
0.00741409
0.00741409
0.00741409
0.00741409
0.00741409
0.00741409
0.00741409
0.00741832
0.00741409
0.00741409
0.00741408
0.00741409
0.00741407
0.00741409
0.00741409
0.00741409
0.00741393
0.00741409
0.00741409
0.00741409
0.00741409
0.00741409
0.00741409
0.00741409
0.00741409
0.00741409
0.00741409
0.00741409
0.00741168
0.00741409
0.00741409
0.00741409
0.00741409
0.00741408
0.00741409
0.00741409
0.00741409
0.00741409
0.00741409
0.00741409
0.00741409
0.00741409
0.00741409
0.00741409
0.00741409
0.00741409
0.00741409
0.00741409
0.00741409
0.00741409
0.00741409
0.00741409
0.00741409
0.00741409
0.00741409
0.00741409
0.00741409
0.00741409
0.00741409
0.00741409
0.00741409
0.00741409
0.00741409
0.00741409
0.00741409
0.00741409
0.00741409
0.00741409
0.00741409
0.00741409
0.00741409
0.00741409
0.00741409
0.00741409
0.00741409
0.00741409
0.00741408
0.00741409
0.00741409
0.00741409
0.00741409
0.00741409
0.00741409
0.00741409
0.00741409
0.00741409
0.00741409
0.00741409
0.00741409
0.00741409
0.00741409
0.00741384
0.0074141
0.00741409
0.00741409
0.00741409
0.00741409
0.00741409
0.00741409
0.00741409
0.00741409
0.00741472
0.00741409
0.00741409
0.00741409
0.00741409
0.00741409
0.00741409
0.00741409
0.00741409
0.00741409
0.00741409
0.00741763
0.00741409
0.00741409
0.00741409
0.00741409
0.00741409
0.00741409
0.00741409
0.00741409
0.00741408
0.00741409
0.00741409
0.00741409
0.00741408
0.00741409
0.00741409
0.00741409
0.00741409
0.00741409
0.00741409
0.00741409
0.00741409
0.00741409
0.0074136
0.00741409
0.00741409
0.00741409
0.00741409
0.00741409
0.00741409
0.00741409
0.00741409
0.00741409
0.00741409
0.00741409
0.00741409
0.00741409
0.00741409
0.00741409
0.00741409
0.00741409
0.00741409
0.00741409
0.00741409
0.00741409
0.00741388
0.00741409
0.00741409
0.00741405
0.00741409
0.00741409
0.00741409
0.00741409
0.00741409
0.00741409
0.00741409
0.00741409
0.00741408
0.00741409
0.00741409
0.00741409
0.00741409
0.00741409
0.00741409
0.00741409
0.00741409
0.00741409
0.00741409
0.00741409
0.00741409
0.00741409
0.00741409
0.00741409
0.00741409
0.00741409
0.00741409
0.00741409
0.00741409
0.00741409
0.00741409
0.00741409
0.00741409
0.00741409
0.00741409
0.00741409
0.00741409
0.00741409
0.00741409
0.00741409
0.00741409
0.00741408
0.00741409
0.00741409
0.00741409
0.00741409
0.00741409
0.00741409
0.00741409
0.00741409
0.00741409
0.00741409
0.00741409
0.00741409
0.00741409
0.00741409
0.00741409
0.00741409
0.00741409
0.00741409
0.00741409
0.00741408
0.00741409
0.00741034
0.00741409
0.00741408
0.00741409
0.00741409
0.00741409
0.00741409
0.00741409
0.00741409
0.00741409
0.00741409
0.00741409
0.00741497
0.00741409
0.00741409
0.00741409
0.00741409
0.00741409
0.00741409
0.00741409
0.00741409
0.00741409
0.00741409
0.00741409
0.00741409
0.00741409
0.00741409
0.00741409
0.00741409
0.00741409
0.00741409
0.00741409
0.00741426
0.00741411
0.00741408
0.00741409
0.00741409
0.00741409
0.00741409
0.00741409
0.00741409
0.00741409
0.00741409
0.00741409
0.00741409
0.00741409
0.00741409
0.00741409
0.00741409
0.00741409
0.00741408
0.00741204
0.00741409
0.00741409
0.00741409
0.00741409
0.00741409
0.00741409
0.00741409
0.00741409
0.00741409
0.00741409
0.00741409
0.00741409
0.00741409
0.00741409
0.00741409
0.00741409
0.00741438
0.00741408
0.00741409
0.00741409
0.00741409
0.00741409
0.00741447
0.00741409
0.00741409
0.00741409
0.00741074
0.00741409
0.00741409
0.00741404
0.00741409
0.00741409
0.00741409
0.00741409
0.00741409
0.00741409
0.00741409
0.00741409
0.00741598
0.00741409
0.00741408
0.00741409
0.00741409
0.00741409
0.00741409
0.00741409
0.00741409
0.00741409
0.00741272
0.00741409
0.00741409
0.00741409
0.00741409
0.00741409
0.00741409
0.00741409
0.00741513
0.00741409
0.0074119
0.00741409
0.00741409
0.00741409
0.00741409
0.00741409
0.00741408
0.00741409
0.00741409
0.00741409
0.00741409
0.00741409
0.00741409
0.00741409
0.00741409
0.00741409
0.00741409
0.00741408
0.00741409
0.00741409
0.00741409
0.00741409
0.00741409
0.00741409
0.00741409
0.00741409
0.00741409
0.00741409
0.00741409
0.00741409
0.00741099
0.00741409
0.00741409
0.00741409
0.00741409
0.00741409
0.00741409
0.00741409
0.00741409
0.00741409
0.00741409
0.00741409
0.00741409
0.00741409
0.00741409
0.00741409
0.00741409
0.00741409
0.00741409
0.00741409
0.00741409
0.00741409
0.00741409
0.00741409
0.00741409
0.00741409
0.00741409
0.00741409
0.00741409
0.00741409
0.00741409
0.00741409
0.00741409
0.00741409
0.00741409
0.00741409
0.00741409
0.00741409
0.00741409
0.00741409
0.00741409
0.00741409
0.00741409
0.00741409
0.00741408
0.00741409
0.00741409
0.00741409
0.00741409
0.00741409
0.00741409
0.00741409
0.00741409
0.00741409
0.00741409
0.00741409
0.00741409
0.00741409
0.00741409
0.00741409
0.00741409
0.00741409
0.00741409
0.00741409
0.00741409
0.00741409
0.00741409
0.00741409