VARIABLES  = "X","Y","Z", "PRESSURE1"
ZONE T="0.000000000000e+00s", N=401, E=400, F=FEPOINT, ET=QUADRILATERAL
STRANDID=1, SOLUTIONTIME=0.000000000000e+00
0.000000000000e+00 0.000000000000e+00 0.000000000000e+00 0.000000000000e+00 
5.700000000000e-01 0.000000000000e+00 0.000000000000e+00 0.000000000000e+00 
1.144884694460e+00 0.000000000000e+00 0.000000000000e+00 0.000000000000e+00 
1.724695943451e+00 0.000000000000e+00 0.000000000000e+00 0.000000000000e+00 
2.309475965768e+00 0.000000000000e+00 0.000000000000e+00 0.000000000000e+00 
2.899267342006e+00 0.000000000000e+00 0.000000000000e+00 0.000000000000e+00 
3.494113017663e+00 0.000000000000e+00 0.000000000000e+00 0.000000000000e+00 
4.094056306261e+00 0.000000000000e+00 0.000000000000e+00 0.000000000000e+00 
4.699140892505e+00 0.000000000000e+00 0.000000000000e+00 0.000000000000e+00 
5.309410835462e+00 0.000000000000e+00 0.000000000000e+00 0.000000000000e+00 
5.924910571769e+00 0.000000000000e+00 0.000000000000e+00 0.000000000000e+00 
6.545684918870e+00 0.000000000000e+00 0.000000000000e+00 0.000000000000e+00 
7.171779078276e+00 0.000000000000e+00 0.000000000000e+00 0.000000000000e+00 
7.803238638862e+00 0.000000000000e+00 0.000000000000e+00 0.000000000000e+00 
8.440109580180e+00 0.000000000000e+00 0.000000000000e+00 0.000000000000e+00 
9.082438275812e+00 0.000000000000e+00 0.000000000000e+00 0.000000000000e+00 
9.639000000000e+00 0.000000000000e+00 0.000000000000e+00 0.000000000000e+00 
1.038365641477e+01 0.000000000000e+00 0.000000000000e+00 0.000000000000e+00 
1.104264060594e+01 0.000000000000e+00 0.000000000000e+00 0.000000000000e+00 
1.170727205400e+01 0.000000000000e+00 0.000000000000e+00 0.000000000000e+00 
1.237759915391e+01 0.000000000000e+00 0.000000000000e+00 0.000000000000e+00 
1.305367071534e+01 0.000000000000e+00 0.000000000000e+00 0.000000000000e+00 
1.373553596627e+01 0.000000000000e+00 0.000000000000e+00 0.000000000000e+00 
1.442324455652e+01 0.000000000000e+00 0.000000000000e+00 0.000000000000e+00 
1.511684656141e+01 0.000000000000e+00 0.000000000000e+00 0.000000000000e+00 
1.581639248536e+01 0.000000000000e+00 0.000000000000e+00 0.000000000000e+00 
1.652193326563e+01 0.000000000000e+00 0.000000000000e+00 0.000000000000e+00 
1.723352027598e+01 0.000000000000e+00 0.000000000000e+00 0.000000000000e+00 
1.795120533040e+01 0.000000000000e+00 0.000000000000e+00 0.000000000000e+00 
1.867504068695e+01 0.000000000000e+00 0.000000000000e+00 0.000000000000e+00 
1.940507905149e+01 0.000000000000e+00 0.000000000000e+00 0.000000000000e+00 
2.014137358157e+01 0.000000000000e+00 0.000000000000e+00 0.000000000000e+00 
2.088397789026e+01 0.000000000000e+00 0.000000000000e+00 0.000000000000e+00 
2.163294605010e+01 0.000000000000e+00 0.000000000000e+00 0.000000000000e+00 
2.238833259699e+01 0.000000000000e+00 0.000000000000e+00 0.000000000000e+00 
2.315019253421e+01 0.000000000000e+00 0.000000000000e+00 0.000000000000e+00 
2.391858133636e+01 0.000000000000e+00 0.000000000000e+00 0.000000000000e+00 
2.469355495346e+01 0.000000000000e+00 0.000000000000e+00 0.000000000000e+00 
2.547516981501e+01 0.000000000000e+00 0.000000000000e+00 0.000000000000e+00 
2.626348283408e+01 0.000000000000e+00 0.000000000000e+00 0.000000000000e+00 
2.705855141146e+01 0.000000000000e+00 0.000000000000e+00 0.000000000000e+00 
2.786043343985e+01 0.000000000000e+00 0.000000000000e+00 0.000000000000e+00 
2.866918730807e+01 0.000000000000e+00 0.000000000000e+00 0.000000000000e+00 
2.948487190530e+01 0.000000000000e+00 0.000000000000e+00 0.000000000000e+00 
3.030754662540e+01 0.000000000000e+00 0.000000000000e+00 0.000000000000e+00 
3.113727137120e+01 0.000000000000e+00 0.000000000000e+00 0.000000000000e+00 
3.197410655887e+01 0.000000000000e+00 0.000000000000e+00 0.000000000000e+00 
3.281811312235e+01 0.000000000000e+00 0.000000000000e+00 0.000000000000e+00 
3.366935251772e+01 0.000000000000e+00 0.000000000000e+00 0.000000000000e+00 
3.452788672776e+01 0.000000000000e+00 0.000000000000e+00 0.000000000000e+00 
3.539377826640e+01 0.000000000000e+00 0.000000000000e+00 0.000000000000e+00 
3.626709018329e+01 0.000000000000e+00 0.000000000000e+00 0.000000000000e+00 
3.714788606839e+01 0.000000000000e+00 0.000000000000e+00 0.000000000000e+00 
3.803623005661e+01 0.000000000000e+00 0.000000000000e+00 0.000000000000e+00 
3.893218683248e+01 0.000000000000e+00 0.000000000000e+00 0.000000000000e+00 
3.983582163484e+01 0.000000000000e+00 0.000000000000e+00 0.000000000000e+00 
4.074720026161e+01 0.000000000000e+00 0.000000000000e+00 0.000000000000e+00 
4.166638907458e+01 0.000000000000e+00 0.000000000000e+00 0.000000000000e+00 
4.259345500421e+01 0.000000000000e+00 0.000000000000e+00 0.000000000000e+00 
4.352846555456e+01 0.000000000000e+00 0.000000000000e+00 0.000000000000e+00 
4.447148880817e+01 0.000000000000e+00 0.000000000000e+00 0.000000000000e+00 
4.542259343101e+01 0.000000000000e+00 0.000000000000e+00 0.000000000000e+00 
4.638184867751e+01 0.000000000000e+00 0.000000000000e+00 0.000000000000e+00 
4.734932439556e+01 0.000000000000e+00 0.000000000000e+00 0.000000000000e+00 
4.832509103165e+01 0.000000000000e+00 0.000000000000e+00 0.000000000000e+00 
4.930921963596e+01 0.000000000000e+00 0.000000000000e+00 0.000000000000e+00 
5.030178186753e+01 0.000000000000e+00 0.000000000000e+00 0.000000000000e+00 
5.130284999951e+01 0.000000000000e+00 0.000000000000e+00 0.000000000000e+00 
5.231249692440e+01 0.000000000000e+00 0.000000000000e+00 0.000000000000e+00 
5.333079615936e+01 0.000000000000e+00 0.000000000000e+00 0.000000000000e+00 
5.435782185157e+01 0.000000000000e+00 0.000000000000e+00 0.000000000000e+00 
5.539364878362e+01 0.000000000000e+00 0.000000000000e+00 0.000000000000e+00 
5.643835237896e+01 0.000000000000e+00 0.000000000000e+00 0.000000000000e+00 
5.749200870740e+01 0.000000000000e+00 0.000000000000e+00 0.000000000000e+00 
5.855469449063e+01 0.000000000000e+00 0.000000000000e+00 0.000000000000e+00 
5.962648710783e+01 0.000000000000e+00 0.000000000000e+00 0.000000000000e+00 
6.070746460126e+01 0.000000000000e+00 0.000000000000e+00 0.000000000000e+00 
6.179770568202e+01 0.000000000000e+00 0.000000000000e+00 0.000000000000e+00 
6.289728973571e+01 0.000000000000e+00 0.000000000000e+00 0.000000000000e+00 
6.400629682823e+01 0.000000000000e+00 0.000000000000e+00 0.000000000000e+00 
6.512480771163e+01 0.000000000000e+00 0.000000000000e+00 0.000000000000e+00 
6.625290382997e+01 0.000000000000e+00 0.000000000000e+00 0.000000000000e+00 
6.739066732525e+01 0.000000000000e+00 0.000000000000e+00 0.000000000000e+00 
6.853818104342e+01 0.000000000000e+00 0.000000000000e+00 0.000000000000e+00 
6.969552854037e+01 0.000000000000e+00 0.000000000000e+00 0.000000000000e+00 
7.086279408802e+01 0.000000000000e+00 0.000000000000e+00 0.000000000000e+00 
7.204006268051e+01 0.000000000000e+00 0.000000000000e+00 0.000000000000e+00 
7.322742004032e+01 0.000000000000e+00 0.000000000000e+00 0.000000000000e+00 
7.442495262455e+01 0.000000000000e+00 0.000000000000e+00 0.000000000000e+00 
7.563274763120e+01 0.000000000000e+00 0.000000000000e+00 0.000000000000e+00 
7.685089300552e+01 0.000000000000e+00 0.000000000000e+00 0.000000000000e+00 
7.807947744645e+01 0.000000000000e+00 0.000000000000e+00 0.000000000000e+00 
7.931859041302e+01 0.000000000000e+00 0.000000000000e+00 0.000000000000e+00 
8.056832213088e+01 0.000000000000e+00 0.000000000000e+00 0.000000000000e+00 
8.182876359893e+01 0.000000000000e+00 0.000000000000e+00 0.000000000000e+00 
8.310000659584e+01 0.000000000000e+00 0.000000000000e+00 0.000000000000e+00 
8.438214368683e+01 0.000000000000e+00 0.000000000000e+00 0.000000000000e+00 
8.567526823036e+01 0.000000000000e+00 0.000000000000e+00 0.000000000000e+00 
8.697947438493e+01 0.000000000000e+00 0.000000000000e+00 0.000000000000e+00 
8.829485711595e+01 0.000000000000e+00 0.000000000000e+00 0.000000000000e+00 
8.962151220265e+01 0.000000000000e+00 0.000000000000e+00 0.000000000000e+00 
9.095953624507e+01 0.000000000000e+00 0.000000000000e+00 0.000000000000e+00 
9.230902667104e+01 0.000000000000e+00 0.000000000000e+00 0.000000000000e+00 
9.367008174334e+01 0.000000000000e+00 0.000000000000e+00 0.000000000000e+00 
9.504280056681e+01 0.000000000000e+00 0.000000000000e+00 0.000000000000e+00 
9.642728309561e+01 0.000000000000e+00 0.000000000000e+00 0.000000000000e+00 
9.782363014044e+01 0.000000000000e+00 0.000000000000e+00 0.000000000000e+00 
9.923194337593e+01 0.000000000000e+00 0.000000000000e+00 0.000000000000e+00 
1.006523253480e+02 0.000000000000e+00 0.000000000000e+00 0.000000000000e+00 
1.020848794814e+02 0.000000000000e+00 0.000000000000e+00 0.000000000000e+00 
1.035297100872e+02 0.000000000000e+00 0.000000000000e+00 0.000000000000e+00 
1.049869223702e+02 0.000000000000e+00 0.000000000000e+00 0.000000000000e+00 
1.064566224370e+02 0.000000000000e+00 0.000000000000e+00 0.000000000000e+00 
1.079389173035e+02 0.000000000000e+00 0.000000000000e+00 0.000000000000e+00 
1.094339149024e+02 0.000000000000e+00 0.000000000000e+00 0.000000000000e+00 
1.109417240917e+02 0.000000000000e+00 0.000000000000e+00 0.000000000000e+00 
1.124624546620e+02 0.000000000000e+00 0.000000000000e+00 0.000000000000e+00 
1.139962173450e+02 0.000000000000e+00 0.000000000000e+00 0.000000000000e+00 
1.155431238210e+02 0.000000000000e+00 0.000000000000e+00 0.000000000000e+00 
1.171032867278e+02 0.000000000000e+00 0.000000000000e+00 0.000000000000e+00 
1.186768196680e+02 0.000000000000e+00 0.000000000000e+00 0.000000000000e+00 
1.202638372182e+02 0.000000000000e+00 0.000000000000e+00 0.000000000000e+00 
1.218644549365e+02 0.000000000000e+00 0.000000000000e+00 0.000000000000e+00 
1.234787893715e+02 0.000000000000e+00 0.000000000000e+00 0.000000000000e+00 
1.251069580704e+02 0.000000000000e+00 0.000000000000e+00 0.000000000000e+00 
1.267490795880e+02 0.000000000000e+00 0.000000000000e+00 0.000000000000e+00 
1.284052734948e+02 0.000000000000e+00 0.000000000000e+00 0.000000000000e+00 
1.300756603863e+02 0.000000000000e+00 0.000000000000e+00 0.000000000000e+00 
1.317603618910e+02 0.000000000000e+00 0.000000000000e+00 0.000000000000e+00 
1.334595006801e+02 0.000000000000e+00 0.000000000000e+00 0.000000000000e+00 
1.351732004760e+02 0.000000000000e+00 0.000000000000e+00 0.000000000000e+00 
1.369015860611e+02 0.000000000000e+00 0.000000000000e+00 0.000000000000e+00 
1.386447832875e+02 0.000000000000e+00 0.000000000000e+00 0.000000000000e+00 
1.404029190855e+02 0.000000000000e+00 0.000000000000e+00 0.000000000000e+00 
1.421761214734e+02 0.000000000000e+00 0.000000000000e+00 0.000000000000e+00 
1.439645195662e+02 0.000000000000e+00 0.000000000000e+00 0.000000000000e+00 
1.457682435859e+02 0.000000000000e+00 0.000000000000e+00 0.000000000000e+00 
1.475874248700e+02 0.000000000000e+00 0.000000000000e+00 0.000000000000e+00 
1.494221958816e+02 0.000000000000e+00 0.000000000000e+00 0.000000000000e+00 
1.512726902193e+02 0.000000000000e+00 0.000000000000e+00 0.000000000000e+00 
1.531390426261e+02 0.000000000000e+00 0.000000000000e+00 0.000000000000e+00 
1.550213890001e+02 0.000000000000e+00 0.000000000000e+00 0.000000000000e+00 
1.569198664037e+02 0.000000000000e+00 0.000000000000e+00 0.000000000000e+00 
1.588346130741e+02 0.000000000000e+00 0.000000000000e+00 0.000000000000e+00 
1.607657684330e+02 0.000000000000e+00 0.000000000000e+00 0.000000000000e+00 
1.627134730970e+02 0.000000000000e+00 0.000000000000e+00 0.000000000000e+00 
1.646778688876e+02 0.000000000000e+00 0.000000000000e+00 0.000000000000e+00 
1.666590988418e+02 0.000000000000e+00 0.000000000000e+00 0.000000000000e+00 
1.686573072222e+02 0.000000000000e+00 0.000000000000e+00 0.000000000000e+00 
1.706726395280e+02 0.000000000000e+00 0.000000000000e+00 0.000000000000e+00 
1.727052425048e+02 0.000000000000e+00 0.000000000000e+00 0.000000000000e+00 
1.747552641563e+02 0.000000000000e+00 0.000000000000e+00 0.000000000000e+00 
1.768228537540e+02 0.000000000000e+00 0.000000000000e+00 0.000000000000e+00 
1.789081618491e+02 0.000000000000e+00 0.000000000000e+00 0.000000000000e+00 
1.810113402826e+02 0.000000000000e+00 0.000000000000e+00 0.000000000000e+00 
1.831325421968e+02 0.000000000000e+00 0.000000000000e+00 0.000000000000e+00 
1.852719220466e+02 0.000000000000e+00 0.000000000000e+00 0.000000000000e+00 
1.874296356102e+02 0.000000000000e+00 0.000000000000e+00 0.000000000000e+00 
1.896058400010e+02 0.000000000000e+00 0.000000000000e+00 0.000000000000e+00 
1.918006936786e+02 0.000000000000e+00 0.000000000000e+00 0.000000000000e+00 
1.940143564609e+02 0.000000000000e+00 0.000000000000e+00 0.000000000000e+00 
1.962469895350e+02 0.000000000000e+00 0.000000000000e+00 0.000000000000e+00 
1.984987554694e+02 0.000000000000e+00 0.000000000000e+00 0.000000000000e+00 
2.007698182259e+02 0.000000000000e+00 0.000000000000e+00 0.000000000000e+00 
2.030603431713e+02 0.000000000000e+00 0.000000000000e+00 0.000000000000e+00 
2.053704970895e+02 0.000000000000e+00 0.000000000000e+00 0.000000000000e+00 
2.077004481937e+02 0.000000000000e+00 0.000000000000e+00 0.000000000000e+00 
2.100503661388e+02 0.000000000000e+00 0.000000000000e+00 0.000000000000e+00 
2.124204220333e+02 0.000000000000e+00 0.000000000000e+00 0.000000000000e+00 
2.148107884521e+02 0.000000000000e+00 0.000000000000e+00 0.000000000000e+00 
2.172216394492e+02 0.000000000000e+00 0.000000000000e+00 0.000000000000e+00 
2.196531505701e+02 0.000000000000e+00 0.000000000000e+00 0.000000000000e+00 
2.221054988644e+02 0.000000000000e+00 0.000000000000e+00 0.000000000000e+00 
2.245788628993e+02 0.000000000000e+00 0.000000000000e+00 0.000000000000e+00 
2.270734227721e+02 0.000000000000e+00 0.000000000000e+00 0.000000000000e+00 
2.295893601234e+02 0.000000000000e+00 0.000000000000e+00 0.000000000000e+00 
2.321268581507e+02 0.000000000000e+00 0.000000000000e+00 0.000000000000e+00 
2.346861016210e+02 0.000000000000e+00 0.000000000000e+00 0.000000000000e+00 
2.372672768850e+02 0.000000000000e+00 0.000000000000e+00 0.000000000000e+00 
2.398705718903e+02 0.000000000000e+00 0.000000000000e+00 0.000000000000e+00 
2.424961761950e+02 0.000000000000e+00 0.000000000000e+00 0.000000000000e+00 
2.451442809818e+02 0.000000000000e+00 0.000000000000e+00 0.000000000000e+00 
2.478150790718e+02 0.000000000000e+00 0.000000000000e+00 0.000000000000e+00 
2.505087649383e+02 0.000000000000e+00 0.000000000000e+00 0.000000000000e+00 
2.532255347213e+02 0.000000000000e+00 0.000000000000e+00 0.000000000000e+00 
2.559655862417e+02 0.000000000000e+00 0.000000000000e+00 0.000000000000e+00 
2.587291190157e+02 0.000000000000e+00 0.000000000000e+00 0.000000000000e+00 
2.615163342689e+02 0.000000000000e+00 0.000000000000e+00 0.000000000000e+00 
2.643274349518e+02 0.000000000000e+00 0.000000000000e+00 0.000000000000e+00 
2.671626257539e+02 0.000000000000e+00 0.000000000000e+00 0.000000000000e+00 
2.700221131189e+02 0.000000000000e+00 0.000000000000e+00 0.000000000000e+00 
2.729061052594e+02 0.000000000000e+00 0.000000000000e+00 0.000000000000e+00 
2.758148121726e+02 0.000000000000e+00 0.000000000000e+00 0.000000000000e+00 
2.787484456552e+02 0.000000000000e+00 0.000000000000e+00 0.000000000000e+00 
2.817072193188e+02 0.000000000000e+00 0.000000000000e+00 0.000000000000e+00 
2.846913486059e+02 0.000000000000e+00 0.000000000000e+00 0.000000000000e+00 
2.877010508049e+02 0.000000000000e+00 0.000000000000e+00 0.000000000000e+00 
2.907365450664e+02 0.000000000000e+00 0.000000000000e+00 0.000000000000e+00 
2.937980524192e+02 0.000000000000e+00 0.000000000000e+00 0.000000000000e+00 
2.968857957860e+02 0.000000000000e+00 0.000000000000e+00 0.000000000000e+00 
3.000000000000e+02 0.000000000000e+00 0.000000000000e+00 0.000000000000e+00 
3.035000000000e+02 0.000000000000e+00 0.000000000000e+00 0.000000000000e+00 
3.070000000000e+02 0.000000000000e+00 0.000000000000e+00 0.000000000000e+00 
3.105000000000e+02 0.000000000000e+00 0.000000000000e+00 0.000000000000e+00 
3.140000000000e+02 0.000000000000e+00 0.000000000000e+00 0.000000000000e+00 
3.175000000000e+02 0.000000000000e+00 0.000000000000e+00 0.000000000000e+00 
3.210000000000e+02 0.000000000000e+00 0.000000000000e+00 0.000000000000e+00 
3.245000000000e+02 0.000000000000e+00 0.000000000000e+00 0.000000000000e+00 
3.280000000000e+02 0.000000000000e+00 0.000000000000e+00 0.000000000000e+00 
3.315000000000e+02 0.000000000000e+00 0.000000000000e+00 0.000000000000e+00 
3.350000000000e+02 0.000000000000e+00 0.000000000000e+00 0.000000000000e+00 
3.385000000000e+02 0.000000000000e+00 0.000000000000e+00 0.000000000000e+00 
3.420000000000e+02 0.000000000000e+00 0.000000000000e+00 0.000000000000e+00 
3.455000000000e+02 0.000000000000e+00 0.000000000000e+00 0.000000000000e+00 
3.490000000000e+02 0.000000000000e+00 0.000000000000e+00 0.000000000000e+00 
3.525000000000e+02 0.000000000000e+00 0.000000000000e+00 0.000000000000e+00 
3.560000000000e+02 0.000000000000e+00 0.000000000000e+00 0.000000000000e+00 
3.595000000000e+02 0.000000000000e+00 0.000000000000e+00 0.000000000000e+00 
3.630000000000e+02 0.000000000000e+00 0.000000000000e+00 0.000000000000e+00 
3.665000000000e+02 0.000000000000e+00 0.000000000000e+00 0.000000000000e+00 
3.700000000000e+02 0.000000000000e+00 0.000000000000e+00 0.000000000000e+00 
3.735000000000e+02 0.000000000000e+00 0.000000000000e+00 0.000000000000e+00 
3.770000000000e+02 0.000000000000e+00 0.000000000000e+00 0.000000000000e+00 
3.805000000000e+02 0.000000000000e+00 0.000000000000e+00 0.000000000000e+00 
3.840000000000e+02 0.000000000000e+00 0.000000000000e+00 0.000000000000e+00 
3.875000000000e+02 0.000000000000e+00 0.000000000000e+00 0.000000000000e+00 
3.910000000000e+02 0.000000000000e+00 0.000000000000e+00 0.000000000000e+00 
3.945000000000e+02 0.000000000000e+00 0.000000000000e+00 0.000000000000e+00 
3.980000000000e+02 0.000000000000e+00 0.000000000000e+00 0.000000000000e+00 
4.015000000000e+02 0.000000000000e+00 0.000000000000e+00 0.000000000000e+00 
4.050000000000e+02 0.000000000000e+00 0.000000000000e+00 0.000000000000e+00 
4.085000000000e+02 0.000000000000e+00 0.000000000000e+00 0.000000000000e+00 
4.120000000000e+02 0.000000000000e+00 0.000000000000e+00 0.000000000000e+00 
4.155000000000e+02 0.000000000000e+00 0.000000000000e+00 0.000000000000e+00 
4.190000000000e+02 0.000000000000e+00 0.000000000000e+00 0.000000000000e+00 
4.225000000000e+02 0.000000000000e+00 0.000000000000e+00 0.000000000000e+00 
4.260000000000e+02 0.000000000000e+00 0.000000000000e+00 0.000000000000e+00 
4.295000000000e+02 0.000000000000e+00 0.000000000000e+00 0.000000000000e+00 
4.330000000000e+02 0.000000000000e+00 0.000000000000e+00 0.000000000000e+00 
4.365000000000e+02 0.000000000000e+00 0.000000000000e+00 0.000000000000e+00 
4.400000000000e+02 0.000000000000e+00 0.000000000000e+00 0.000000000000e+00 
4.435000000000e+02 0.000000000000e+00 0.000000000000e+00 0.000000000000e+00 
4.470000000000e+02 0.000000000000e+00 0.000000000000e+00 0.000000000000e+00 
4.505000000000e+02 0.000000000000e+00 0.000000000000e+00 0.000000000000e+00 
4.540000000000e+02 0.000000000000e+00 0.000000000000e+00 0.000000000000e+00 
4.575000000000e+02 0.000000000000e+00 0.000000000000e+00 0.000000000000e+00 
4.610000000000e+02 0.000000000000e+00 0.000000000000e+00 0.000000000000e+00 
4.645000000000e+02 0.000000000000e+00 0.000000000000e+00 0.000000000000e+00 
4.680000000000e+02 0.000000000000e+00 0.000000000000e+00 0.000000000000e+00 
4.715000000000e+02 0.000000000000e+00 0.000000000000e+00 0.000000000000e+00 
4.750000000000e+02 0.000000000000e+00 0.000000000000e+00 0.000000000000e+00 
4.785000000000e+02 0.000000000000e+00 0.000000000000e+00 0.000000000000e+00 
4.820000000000e+02 0.000000000000e+00 0.000000000000e+00 0.000000000000e+00 
4.855000000000e+02 0.000000000000e+00 0.000000000000e+00 0.000000000000e+00 
4.890000000000e+02 0.000000000000e+00 0.000000000000e+00 0.000000000000e+00 
4.925000000000e+02 0.000000000000e+00 0.000000000000e+00 0.000000000000e+00 
4.960000000000e+02 0.000000000000e+00 0.000000000000e+00 0.000000000000e+00 
4.995000000000e+02 0.000000000000e+00 0.000000000000e+00 0.000000000000e+00 
5.030000000000e+02 0.000000000000e+00 0.000000000000e+00 0.000000000000e+00 
5.065000000000e+02 0.000000000000e+00 0.000000000000e+00 0.000000000000e+00 
5.100000000000e+02 0.000000000000e+00 0.000000000000e+00 0.000000000000e+00 
5.135000000000e+02 0.000000000000e+00 0.000000000000e+00 0.000000000000e+00 
5.170000000000e+02 0.000000000000e+00 0.000000000000e+00 0.000000000000e+00 
5.205000000000e+02 0.000000000000e+00 0.000000000000e+00 0.000000000000e+00 
5.240000000000e+02 0.000000000000e+00 0.000000000000e+00 0.000000000000e+00 
5.275000000000e+02 0.000000000000e+00 0.000000000000e+00 0.000000000000e+00 
5.310000000000e+02 0.000000000000e+00 0.000000000000e+00 0.000000000000e+00 
5.345000000000e+02 0.000000000000e+00 0.000000000000e+00 0.000000000000e+00 
5.380000000000e+02 0.000000000000e+00 0.000000000000e+00 0.000000000000e+00 
5.415000000000e+02 0.000000000000e+00 0.000000000000e+00 0.000000000000e+00 
5.450000000000e+02 0.000000000000e+00 0.000000000000e+00 0.000000000000e+00 
5.485000000000e+02 0.000000000000e+00 0.000000000000e+00 0.000000000000e+00 
5.520000000000e+02 0.000000000000e+00 0.000000000000e+00 0.000000000000e+00 
5.555000000000e+02 0.000000000000e+00 0.000000000000e+00 0.000000000000e+00 
5.590000000000e+02 0.000000000000e+00 0.000000000000e+00 0.000000000000e+00 
5.625000000000e+02 0.000000000000e+00 0.000000000000e+00 0.000000000000e+00 
5.660000000000e+02 0.000000000000e+00 0.000000000000e+00 0.000000000000e+00 
5.695000000000e+02 0.000000000000e+00 0.000000000000e+00 0.000000000000e+00 
5.730000000000e+02 0.000000000000e+00 0.000000000000e+00 0.000000000000e+00 
5.765000000000e+02 0.000000000000e+00 0.000000000000e+00 0.000000000000e+00 
5.800000000000e+02 0.000000000000e+00 0.000000000000e+00 0.000000000000e+00 
5.835000000000e+02 0.000000000000e+00 0.000000000000e+00 0.000000000000e+00 
5.870000000000e+02 0.000000000000e+00 0.000000000000e+00 0.000000000000e+00 
5.905000000000e+02 0.000000000000e+00 0.000000000000e+00 0.000000000000e+00 
5.940000000000e+02 0.000000000000e+00 0.000000000000e+00 0.000000000000e+00 
5.975000000000e+02 0.000000000000e+00 0.000000000000e+00 0.000000000000e+00 
6.010000000000e+02 0.000000000000e+00 0.000000000000e+00 0.000000000000e+00 
6.045000000000e+02 0.000000000000e+00 0.000000000000e+00 0.000000000000e+00 
6.080000000000e+02 0.000000000000e+00 0.000000000000e+00 0.000000000000e+00 
6.115000000000e+02 0.000000000000e+00 0.000000000000e+00 0.000000000000e+00 
6.150000000000e+02 0.000000000000e+00 0.000000000000e+00 0.000000000000e+00 
6.185000000000e+02 0.000000000000e+00 0.000000000000e+00 0.000000000000e+00 
6.220000000000e+02 0.000000000000e+00 0.000000000000e+00 0.000000000000e+00 
6.255000000000e+02 0.000000000000e+00 0.000000000000e+00 0.000000000000e+00 
6.290000000000e+02 0.000000000000e+00 0.000000000000e+00 0.000000000000e+00 
6.325000000000e+02 0.000000000000e+00 0.000000000000e+00 0.000000000000e+00 
6.360000000000e+02 0.000000000000e+00 0.000000000000e+00 0.000000000000e+00 
6.395000000000e+02 0.000000000000e+00 0.000000000000e+00 0.000000000000e+00 
6.430000000000e+02 0.000000000000e+00 0.000000000000e+00 0.000000000000e+00 
6.465000000000e+02 0.000000000000e+00 0.000000000000e+00 0.000000000000e+00 
6.500000000000e+02 0.000000000000e+00 0.000000000000e+00 0.000000000000e+00 
6.535000000000e+02 0.000000000000e+00 0.000000000000e+00 0.000000000000e+00 
6.570000000000e+02 0.000000000000e+00 0.000000000000e+00 0.000000000000e+00 
6.605000000000e+02 0.000000000000e+00 0.000000000000e+00 0.000000000000e+00 
6.640000000000e+02 0.000000000000e+00 0.000000000000e+00 0.000000000000e+00 
6.675000000000e+02 0.000000000000e+00 0.000000000000e+00 0.000000000000e+00 
6.710000000000e+02 0.000000000000e+00 0.000000000000e+00 0.000000000000e+00 
6.745000000000e+02 0.000000000000e+00 0.000000000000e+00 0.000000000000e+00 
6.780000000000e+02 0.000000000000e+00 0.000000000000e+00 0.000000000000e+00 
6.815000000000e+02 0.000000000000e+00 0.000000000000e+00 0.000000000000e+00 
6.850000000000e+02 0.000000000000e+00 0.000000000000e+00 0.000000000000e+00 
6.885000000000e+02 0.000000000000e+00 0.000000000000e+00 0.000000000000e+00 
6.920000000000e+02 0.000000000000e+00 0.000000000000e+00 0.000000000000e+00 
6.955000000000e+02 0.000000000000e+00 0.000000000000e+00 0.000000000000e+00 
6.990000000000e+02 0.000000000000e+00 0.000000000000e+00 0.000000000000e+00 
7.025000000000e+02 0.000000000000e+00 0.000000000000e+00 0.000000000000e+00 
7.060000000000e+02 0.000000000000e+00 0.000000000000e+00 0.000000000000e+00 
7.095000000000e+02 0.000000000000e+00 0.000000000000e+00 0.000000000000e+00 
7.130000000000e+02 0.000000000000e+00 0.000000000000e+00 0.000000000000e+00 
7.165000000000e+02 0.000000000000e+00 0.000000000000e+00 0.000000000000e+00 
7.200000000000e+02 0.000000000000e+00 0.000000000000e+00 0.000000000000e+00 
7.235000000000e+02 0.000000000000e+00 0.000000000000e+00 0.000000000000e+00 
7.270000000000e+02 0.000000000000e+00 0.000000000000e+00 0.000000000000e+00 
7.305000000000e+02 0.000000000000e+00 0.000000000000e+00 0.000000000000e+00 
7.340000000000e+02 0.000000000000e+00 0.000000000000e+00 0.000000000000e+00 
7.375000000000e+02 0.000000000000e+00 0.000000000000e+00 0.000000000000e+00 
7.410000000000e+02 0.000000000000e+00 0.000000000000e+00 0.000000000000e+00 
7.445000000000e+02 0.000000000000e+00 0.000000000000e+00 0.000000000000e+00 
7.480000000000e+02 0.000000000000e+00 0.000000000000e+00 0.000000000000e+00 
7.515000000000e+02 0.000000000000e+00 0.000000000000e+00 0.000000000000e+00 
7.550000000000e+02 0.000000000000e+00 0.000000000000e+00 0.000000000000e+00 
7.585000000000e+02 0.000000000000e+00 0.000000000000e+00 0.000000000000e+00 
7.620000000000e+02 0.000000000000e+00 0.000000000000e+00 0.000000000000e+00 
7.655000000000e+02 0.000000000000e+00 0.000000000000e+00 0.000000000000e+00 
7.690000000000e+02 0.000000000000e+00 0.000000000000e+00 0.000000000000e+00 
7.725000000000e+02 0.000000000000e+00 0.000000000000e+00 0.000000000000e+00 
7.760000000000e+02 0.000000000000e+00 0.000000000000e+00 0.000000000000e+00 
7.795000000000e+02 0.000000000000e+00 0.000000000000e+00 0.000000000000e+00 
7.830000000000e+02 0.000000000000e+00 0.000000000000e+00 0.000000000000e+00 
7.865000000000e+02 0.000000000000e+00 0.000000000000e+00 0.000000000000e+00 
7.900000000000e+02 0.000000000000e+00 0.000000000000e+00 0.000000000000e+00 
7.935000000000e+02 0.000000000000e+00 0.000000000000e+00 0.000000000000e+00 
7.970000000000e+02 0.000000000000e+00 0.000000000000e+00 0.000000000000e+00 
8.005000000000e+02 0.000000000000e+00 0.000000000000e+00 0.000000000000e+00 
8.040000000000e+02 0.000000000000e+00 0.000000000000e+00 0.000000000000e+00 
8.075000000000e+02 0.000000000000e+00 0.000000000000e+00 0.000000000000e+00 
8.110000000000e+02 0.000000000000e+00 0.000000000000e+00 0.000000000000e+00 
8.145000000000e+02 0.000000000000e+00 0.000000000000e+00 0.000000000000e+00 
8.180000000000e+02 0.000000000000e+00 0.000000000000e+00 0.000000000000e+00 
8.215000000000e+02 0.000000000000e+00 0.000000000000e+00 0.000000000000e+00 
8.250000000000e+02 0.000000000000e+00 0.000000000000e+00 0.000000000000e+00 
8.285000000000e+02 0.000000000000e+00 0.000000000000e+00 0.000000000000e+00 
8.320000000000e+02 0.000000000000e+00 0.000000000000e+00 0.000000000000e+00 
8.355000000000e+02 0.000000000000e+00 0.000000000000e+00 0.000000000000e+00 
8.390000000000e+02 0.000000000000e+00 0.000000000000e+00 0.000000000000e+00 
8.425000000000e+02 0.000000000000e+00 0.000000000000e+00 0.000000000000e+00 
8.460000000000e+02 0.000000000000e+00 0.000000000000e+00 0.000000000000e+00 
8.495000000000e+02 0.000000000000e+00 0.000000000000e+00 0.000000000000e+00 
8.530000000000e+02 0.000000000000e+00 0.000000000000e+00 0.000000000000e+00 
8.565000000000e+02 0.000000000000e+00 0.000000000000e+00 0.000000000000e+00 
8.600000000000e+02 0.000000000000e+00 0.000000000000e+00 0.000000000000e+00 
8.635000000000e+02 0.000000000000e+00 0.000000000000e+00 0.000000000000e+00 
8.670000000000e+02 0.000000000000e+00 0.000000000000e+00 0.000000000000e+00 
8.705000000000e+02 0.000000000000e+00 0.000000000000e+00 0.000000000000e+00 
8.740000000000e+02 0.000000000000e+00 0.000000000000e+00 0.000000000000e+00 
8.775000000000e+02 0.000000000000e+00 0.000000000000e+00 0.000000000000e+00 
8.810000000000e+02 0.000000000000e+00 0.000000000000e+00 0.000000000000e+00 
8.845000000000e+02 0.000000000000e+00 0.000000000000e+00 0.000000000000e+00 
8.880000000000e+02 0.000000000000e+00 0.000000000000e+00 0.000000000000e+00 
8.915000000000e+02 0.000000000000e+00 0.000000000000e+00 0.000000000000e+00 
8.950000000000e+02 0.000000000000e+00 0.000000000000e+00 0.000000000000e+00 
8.985000000000e+02 0.000000000000e+00 0.000000000000e+00 0.000000000000e+00 
9.020000000000e+02 0.000000000000e+00 0.000000000000e+00 0.000000000000e+00 
9.055000000000e+02 0.000000000000e+00 0.000000000000e+00 0.000000000000e+00 
9.090000000000e+02 0.000000000000e+00 0.000000000000e+00 0.000000000000e+00 
9.125000000000e+02 0.000000000000e+00 0.000000000000e+00 0.000000000000e+00 
9.160000000000e+02 0.000000000000e+00 0.000000000000e+00 0.000000000000e+00 
9.195000000000e+02 0.000000000000e+00 0.000000000000e+00 0.000000000000e+00 
9.230000000000e+02 0.000000000000e+00 0.000000000000e+00 0.000000000000e+00 
9.265000000000e+02 0.000000000000e+00 0.000000000000e+00 0.000000000000e+00 
9.300000000000e+02 0.000000000000e+00 0.000000000000e+00 0.000000000000e+00 
9.335000000000e+02 0.000000000000e+00 0.000000000000e+00 0.000000000000e+00 
9.370000000000e+02 0.000000000000e+00 0.000000000000e+00 0.000000000000e+00 
9.405000000000e+02 0.000000000000e+00 0.000000000000e+00 0.000000000000e+00 
9.440000000000e+02 0.000000000000e+00 0.000000000000e+00 0.000000000000e+00 
9.475000000000e+02 0.000000000000e+00 0.000000000000e+00 0.000000000000e+00 
9.510000000000e+02 0.000000000000e+00 0.000000000000e+00 0.000000000000e+00 