 TITLE = "Time curves in points"
 VARIABLES = "TIME "  "PRESSURE1" 
 ZONE T="POINT=POINTOBS"
0.000000000000e+00 0.000000000000e+00 
8.640000000000e-01 -1.461629303248e-01 
1.728000000000e+00 -1.023287137035e+00 
2.592000000000e+00 -3.855568311723e+00 
3.456000000000e+00 -1.043213654727e+01 
4.320000000000e+00 -2.280134543250e+01 
5.184000000000e+00 -4.290661196544e+01 
6.048000000000e+00 -7.230908062880e+01 
6.912000000000e+00 -1.120514747323e+02 
7.776000000000e+00 -1.626462523209e+02 
8.640000000000e+00 -2.241425413775e+02 
1.641600000000e+01 -1.250936698576e+03 
2.419200000000e+01 -2.462786836935e+03 
3.196800000000e+01 -3.709312023344e+03 
3.974400000000e+01 -4.921662504622e+03 
4.752000000000e+01 -6.072118385523e+03 
5.529600000000e+01 -7.152388152286e+03 
6.307200000000e+01 -8.162928103790e+03 
7.084800000000e+01 -9.107853293556e+03 
7.862400000000e+01 -9.992554780483e+03 
8.640000000000e+01 -1.082260986224e+04 
1.641600000000e+02 -1.635853564200e+04 
2.419200000000e+02 -2.037047370544e+04 
3.196800000000e+02 -2.346442383834e+04 
3.974400000000e+02 -2.596158219604e+04 
4.752000000000e+02 -2.804601805876e+04 
5.529600000000e+02 -2.983062622931e+04 
6.307200000000e+02 -3.138870698786e+04 
7.084800000000e+02 -3.277015625174e+04 
7.862400000000e+02 -3.401029725773e+04 
8.640000000000e+02 -3.513496894751e+04 
1.641600000000e+03 -4.186687238835e+04 
2.419200000000e+03 -4.645958475359e+04 
3.196800000000e+03 -4.987757348719e+04 
3.974400000000e+03 -5.257544749311e+04 
4.752000000000e+03 -5.479432961617e+04 
5.529600000000e+03 -5.667447989867e+04 
6.307200000000e+03 -5.830361193162e+04 
7.084800000000e+03 -5.973981378890e+04 
7.862400000000e+03 -6.102336371293e+04 
8.640000000000e+03 -6.218325511347e+04 
1.641600000000e+04 -6.905044467385e+04 
2.419200000000e+04 -7.370652955114e+04 
3.196800000000e+04 -7.715906585759e+04 
3.974400000000e+04 -7.987801627853e+04 
4.752000000000e+04 -8.211086698759e+04 
5.529600000000e+04 -8.400085679312e+04 
6.307200000000e+04 -8.563723158510e+04 
7.084800000000e+04 -8.707892225962e+04 
7.862400000000e+04 -8.836668757083e+04 
8.640000000000e+04 -8.952979299554e+04 
1.641600000000e+05 -9.628084983807e+04 
2.419200000000e+05 -1.006213834399e+05 
3.196800000000e+05 -1.035562943674e+05 
3.974400000000e+05 -1.055876548299e+05 
4.752000000000e+05 -1.070085155805e+05 
5.529600000000e+05 -1.080070307851e+05 
6.307200000000e+05 -1.087102047902e+05 
7.084800000000e+05 -1.092058512497e+05 
7.862400000000e+05 -1.095553606588e+05 
8.640000000000e+05 -1.098018649152e+05 
