VARIABLES  = "X","Y","Z", "PRESSURE1", "ConsTracer", "VELOCITY_X1", "VELOCITY_Y1"
ZONE T="0.000000000000e+00s", N=2888, E=1369, F=FEPOINT, ET=BRICK
STRANDID=1, SOLUTIONTIME=0.000000000000e+00
0.000000000000e+00 0.000000000000e+00 5.000000000000e+01 4.806900000000e+05 0.000000000000e+00 0.000000000000e+00 0.000000000000e+00 
1.000000000000e+01 0.000000000000e+00 5.000000000000e+01 4.806900000000e+05 0.000000000000e+00 0.000000000000e+00 0.000000000000e+00 
2.000000000000e+01 0.000000000000e+00 5.000000000000e+01 4.806900000000e+05 0.000000000000e+00 0.000000000000e+00 0.000000000000e+00 
3.000000000000e+01 0.000000000000e+00 5.000000000000e+01 4.806900000000e+05 0.000000000000e+00 0.000000000000e+00 0.000000000000e+00 
4.000000000000e+01 0.000000000000e+00 5.000000000000e+01 4.806900000000e+05 0.000000000000e+00 0.000000000000e+00 0.000000000000e+00 
5.000000000000e+01 0.000000000000e+00 5.000000000000e+01 4.806900000000e+05 0.000000000000e+00 0.000000000000e+00 0.000000000000e+00 
6.000000000000e+01 0.000000000000e+00 5.000000000000e+01 4.806900000000e+05 0.000000000000e+00 0.000000000000e+00 0.000000000000e+00 
7.000000000000e+01 0.000000000000e+00 5.000000000000e+01 4.806900000000e+05 0.000000000000e+00 0.000000000000e+00 0.000000000000e+00 
8.000000000000e+01 0.000000000000e+00 5.000000000000e+01 4.806900000000e+05 0.000000000000e+00 0.000000000000e+00 0.000000000000e+00 
9.000000000000e+01 0.000000000000e+00 5.000000000000e+01 4.806900000000e+05 0.000000000000e+00 0.000000000000e+00 0.000000000000e+00 
1.000000000000e+02 0.000000000000e+00 5.000000000000e+01 4.806900000000e+05 0.000000000000e+00 0.000000000000e+00 0.000000000000e+00 
1.100000000000e+02 0.000000000000e+00 5.000000000000e+01 4.806900000000e+05 0.000000000000e+00 0.000000000000e+00 0.000000000000e+00 
1.200000000000e+02 0.000000000000e+00 5.000000000000e+01 4.806900000000e+05 0.000000000000e+00 0.000000000000e+00 0.000000000000e+00 
1.300000000000e+02 0.000000000000e+00 5.000000000000e+01 4.806900000000e+05 0.000000000000e+00 0.000000000000e+00 0.000000000000e+00 
1.350000000000e+02 0.000000000000e+00 5.000000000000e+01 4.806900000000e+05 0.000000000000e+00 0.000000000000e+00 0.000000000000e+00 
1.400000000000e+02 0.000000000000e+00 5.000000000000e+01 4.806900000000e+05 0.000000000000e+00 0.000000000000e+00 0.000000000000e+00 
1.450000000000e+02 0.000000000000e+00 5.000000000000e+01 4.806900000000e+05 0.000000000000e+00 0.000000000000e+00 0.000000000000e+00 
1.475000000000e+02 0.000000000000e+00 5.000000000000e+01 4.806900000000e+05 0.000000000000e+00 0.000000000000e+00 0.000000000000e+00 
1.495000000000e+02 0.000000000000e+00 5.000000000000e+01 4.806900000000e+05 0.000000000000e+00 0.000000000000e+00 0.000000000000e+00 
1.505000000000e+02 0.000000000000e+00 5.000000000000e+01 4.806900000000e+05 0.000000000000e+00 0.000000000000e+00 0.000000000000e+00 
1.525000000000e+02 0.000000000000e+00 5.000000000000e+01 4.806900000000e+05 0.000000000000e+00 0.000000000000e+00 0.000000000000e+00 
1.550000000000e+02 0.000000000000e+00 5.000000000000e+01 4.806900000000e+05 0.000000000000e+00 0.000000000000e+00 0.000000000000e+00 
1.600000000000e+02 0.000000000000e+00 5.000000000000e+01 4.806900000000e+05 0.000000000000e+00 0.000000000000e+00 0.000000000000e+00 
1.650000000000e+02 0.000000000000e+00 5.000000000000e+01 4.806900000000e+05 0.000000000000e+00 0.000000000000e+00 0.000000000000e+00 
1.700000000000e+02 0.000000000000e+00 5.000000000000e+01 4.806900000000e+05 0.000000000000e+00 0.000000000000e+00 0.000000000000e+00 
1.800000000000e+02 0.000000000000e+00 5.000000000000e+01 4.806900000000e+05 0.000000000000e+00 0.000000000000e+00 0.000000000000e+00 
1.900000000000e+02 0.000000000000e+00 5.000000000000e+01 4.806900000000e+05 0.000000000000e+00 0.000000000000e+00 0.000000000000e+00 
2.000000000000e+02 0.000000000000e+00 5.000000000000e+01 4.806900000000e+05 0.000000000000e+00 0.000000000000e+00 0.000000000000e+00 
2.100000000000e+02 0.000000000000e+00 5.000000000000e+01 4.806900000000e+05 0.000000000000e+00 0.000000000000e+00 0.000000000000e+00 
2.200000000000e+02 0.000000000000e+00 5.000000000000e+01 4.806900000000e+05 0.000000000000e+00 0.000000000000e+00 0.000000000000e+00 
2.300000000000e+02 0.000000000000e+00 5.000000000000e+01 4.806900000000e+05 0.000000000000e+00 0.000000000000e+00 0.000000000000e+00 
2.400000000000e+02 0.000000000000e+00 5.000000000000e+01 4.806900000000e+05 0.000000000000e+00 0.000000000000e+00 0.000000000000e+00 
2.500000000000e+02 0.000000000000e+00 5.000000000000e+01 4.806900000000e+05 0.000000000000e+00 0.000000000000e+00 0.000000000000e+00 
2.600000000000e+02 0.000000000000e+00 5.000000000000e+01 4.806900000000e+05 0.000000000000e+00 0.000000000000e+00 0.000000000000e+00 
2.700000000000e+02 0.000000000000e+00 5.000000000000e+01 4.806900000000e+05 0.000000000000e+00 0.000000000000e+00 0.000000000000e+00 
2.800000000000e+02 0.000000000000e+00 5.000000000000e+01 4.806900000000e+05 0.000000000000e+00 0.000000000000e+00 0.000000000000e+00 
2.900000000000e+02 0.000000000000e+00 5.000000000000e+01 4.806900000000e+05 0.000000000000e+00 0.000000000000e+00 0.000000000000e+00 
3.000000000000e+02 0.000000000000e+00 5.000000000000e+01 4.806900000000e+05 0.000000000000e+00 0.000000000000e+00 0.000000000000e+00 
0.000000000000e+00 1.000000000000e+01 5.000000000000e+01 4.806900000000e+05 0.000000000000e+00 0.000000000000e+00 0.000000000000e+00 
1.000000000000e+01 1.000000000000e+01 5.000000000000e+01 4.806900000000e+05 0.000000000000e+00 0.000000000000e+00 0.000000000000e+00 
2.000000000000e+01 1.000000000000e+01 5.000000000000e+01 4.806900000000e+05 0.000000000000e+00 0.000000000000e+00 0.000000000000e+00 
3.000000000000e+01 1.000000000000e+01 5.000000000000e+01 4.806900000000e+05 0.000000000000e+00 0.000000000000e+00 0.000000000000e+00 
4.000000000000e+01 1.000000000000e+01 5.000000000000e+01 4.806900000000e+05 0.000000000000e+00 0.000000000000e+00 0.000000000000e+00 
5.000000000000e+01 1.000000000000e+01 5.000000000000e+01 4.806900000000e+05 0.000000000000e+00 0.000000000000e+00 0.000000000000e+00 
6.000000000000e+01 1.000000000000e+01 5.000000000000e+01 4.806900000000e+05 0.000000000000e+00 0.000000000000e+00 0.000000000000e+00 
7.000000000000e+01 1.000000000000e+01 5.000000000000e+01 4.806900000000e+05 0.000000000000e+00 0.000000000000e+00 0.000000000000e+00 
8.000000000000e+01 1.000000000000e+01 5.000000000000e+01 4.806900000000e+05 0.000000000000e+00 0.000000000000e+00 0.000000000000e+00 
9.000000000000e+01 1.000000000000e+01 5.000000000000e+01 4.806900000000e+05 0.000000000000e+00 0.000000000000e+00 0.000000000000e+00 
1.000000000000e+02 1.000000000000e+01 5.000000000000e+01 4.806900000000e+05 0.000000000000e+00 0.000000000000e+00 0.000000000000e+00 
1.100000000000e+02 1.000000000000e+01 5.000000000000e+01 4.806900000000e+05 0.000000000000e+00 0.000000000000e+00 0.000000000000e+00 
1.200000000000e+02 1.000000000000e+01 5.000000000000e+01 4.806900000000e+05 0.000000000000e+00 0.000000000000e+00 0.000000000000e+00 
1.300000000000e+02 1.000000000000e+01 5.000000000000e+01 4.806900000000e+05 0.000000000000e+00 0.000000000000e+00 0.000000000000e+00 
1.350000000000e+02 1.000000000000e+01 5.000000000000e+01 4.806900000000e+05 0.000000000000e+00 0.000000000000e+00 0.000000000000e+00 
1.400000000000e+02 1.000000000000e+01 5.000000000000e+01 4.806900000000e+05 0.000000000000e+00 0.000000000000e+00 0.000000000000e+00 
1.450000000000e+02 1.000000000000e+01 5.000000000000e+01 4.806900000000e+05 0.000000000000e+00 0.000000000000e+00 0.000000000000e+00 
1.475000000000e+02 1.000000000000e+01 5.000000000000e+01 4.806900000000e+05 0.000000000000e+00 0.000000000000e+00 0.000000000000e+00 
1.495000000000e+02 1.000000000000e+01 5.000000000000e+01 4.806900000000e+05 0.000000000000e+00 0.000000000000e+00 0.000000000000e+00 
1.505000000000e+02 1.000000000000e+01 5.000000000000e+01 4.806900000000e+05 0.000000000000e+00 0.000000000000e+00 0.000000000000e+00 
1.525000000000e+02 1.000000000000e+01 5.000000000000e+01 4.806900000000e+05 0.000000000000e+00 0.000000000000e+00 0.000000000000e+00 
1.550000000000e+02 1.000000000000e+01 5.000000000000e+01 4.806900000000e+05 0.000000000000e+00 0.000000000000e+00 0.000000000000e+00 
1.600000000000e+02 1.000000000000e+01 5.000000000000e+01 4.806900000000e+05 0.000000000000e+00 0.000000000000e+00 0.000000000000e+00 
1.650000000000e+02 1.000000000000e+01 5.000000000000e+01 4.806900000000e+05 0.000000000000e+00 0.000000000000e+00 0.000000000000e+00 
1.700000000000e+02 1.000000000000e+01 5.000000000000e+01 4.806900000000e+05 0.000000000000e+00 0.000000000000e+00 0.000000000000e+00 
1.800000000000e+02 1.000000000000e+01 5.000000000000e+01 4.806900000000e+05 0.000000000000e+00 0.000000000000e+00 0.000000000000e+00 
1.900000000000e+02 1.000000000000e+01 5.000000000000e+01 4.806900000000e+05 0.000000000000e+00 0.000000000000e+00 0.000000000000e+00 
2.000000000000e+02 1.000000000000e+01 5.000000000000e+01 4.806900000000e+05 0.000000000000e+00 0.000000000000e+00 0.000000000000e+00 
2.100000000000e+02 1.000000000000e+01 5.000000000000e+01 4.806900000000e+05 0.000000000000e+00 0.000000000000e+00 0.000000000000e+00 
2.200000000000e+02 1.000000000000e+01 5.000000000000e+01 4.806900000000e+05 0.000000000000e+00 0.000000000000e+00 0.000000000000e+00 
2.300000000000e+02 1.000000000000e+01 5.000000000000e+01 4.806900000000e+05 0.000000000000e+00 0.000000000000e+00 0.000000000000e+00 
2.400000000000e+02 1.000000000000e+01 5.000000000000e+01 4.806900000000e+05 0.000000000000e+00 0.000000000000e+00 0.000000000000e+00 
2.500000000000e+02 1.000000000000e+01 5.000000000000e+01 4.806900000000e+05 0.000000000000e+00 0.000000000000e+00 0.000000000000e+00 
2.600000000000e+02 1.000000000000e+01 5.000000000000e+01 4.806900000000e+05 0.000000000000e+00 0.000000000000e+00 0.000000000000e+00 
2.700000000000e+02 1.000000000000e+01 5.000000000000e+01 4.806900000000e+05 0.000000000000e+00 0.000000000000e+00 0.000000000000e+00 
2.800000000000e+02 1.000000000000e+01 5.000000000000e+01 4.806900000000e+05 0.000000000000e+00 0.000000000000e+00 0.000000000000e+00 
2.900000000000e+02 1.000000000000e+01 5.000000000000e+01 4.806900000000e+05 0.000000000000e+00 0.000000000000e+00 0.000000000000e+00 
3.000000000000e+02 1.000000000000e+01 5.000000000000e+01 4.806900000000e+05 0.000000000000e+00 0.000000000000e+00 0.000000000000e+00 
0.000000000000e+00 2.000000000000e+01 5.000000000000e+01 4.806900000000e+05 0.000000000000e+00 0.000000000000e+00 0.000000000000e+00 
1.000000000000e+01 2.000000000000e+01 5.000000000000e+01 4.806900000000e+05 0.000000000000e+00 0.000000000000e+00 0.000000000000e+00 
2.000000000000e+01 2.000000000000e+01 5.000000000000e+01 4.806900000000e+05 0.000000000000e+00 0.000000000000e+00 0.000000000000e+00 
3.000000000000e+01 2.000000000000e+01 5.000000000000e+01 4.806900000000e+05 0.000000000000e+00 0.000000000000e+00 0.000000000000e+00 
4.000000000000e+01 2.000000000000e+01 5.000000000000e+01 4.806900000000e+05 0.000000000000e+00 0.000000000000e+00 0.000000000000e+00 
5.000000000000e+01 2.000000000000e+01 5.000000000000e+01 4.806900000000e+05 0.000000000000e+00 0.000000000000e+00 0.000000000000e+00 
6.000000000000e+01 2.000000000000e+01 5.000000000000e+01 4.806900000000e+05 0.000000000000e+00 0.000000000000e+00 0.000000000000e+00 
7.000000000000e+01 2.000000000000e+01 5.000000000000e+01 4.806900000000e+05 0.000000000000e+00 0.000000000000e+00 0.000000000000e+00 
8.000000000000e+01 2.000000000000e+01 5.000000000000e+01 4.806900000000e+05 0.000000000000e+00 0.000000000000e+00 0.000000000000e+00 
9.000000000000e+01 2.000000000000e+01 5.000000000000e+01 4.806900000000e+05 0.000000000000e+00 0.000000000000e+00 0.000000000000e+00 
1.000000000000e+02 2.000000000000e+01 5.000000000000e+01 4.806900000000e+05 0.000000000000e+00 0.000000000000e+00 0.000000000000e+00 
1.100000000000e+02 2.000000000000e+01 5.000000000000e+01 4.806900000000e+05 0.000000000000e+00 0.000000000000e+00 0.000000000000e+00 
1.200000000000e+02 2.000000000000e+01 5.000000000000e+01 4.806900000000e+05 0.000000000000e+00 0.000000000000e+00 0.000000000000e+00 
1.300000000000e+02 2.000000000000e+01 5.000000000000e+01 4.806900000000e+05 0.000000000000e+00 0.000000000000e+00 0.000000000000e+00 
1.350000000000e+02 2.000000000000e+01 5.000000000000e+01 4.806900000000e+05 0.000000000000e+00 0.000000000000e+00 0.000000000000e+00 
1.400000000000e+02 2.000000000000e+01 5.000000000000e+01 4.806900000000e+05 0.000000000000e+00 0.000000000000e+00 0.000000000000e+00 
1.450000000000e+02 2.000000000000e+01 5.000000000000e+01 4.806900000000e+05 0.000000000000e+00 0.000000000000e+00 0.000000000000e+00 
1.475000000000e+02 2.000000000000e+01 5.000000000000e+01 4.806900000000e+05 0.000000000000e+00 0.000000000000e+00 0.000000000000e+00 
1.495000000000e+02 2.000000000000e+01 5.000000000000e+01 4.806900000000e+05 0.000000000000e+00 0.000000000000e+00 0.000000000000e+00 
1.505000000000e+02 2.000000000000e+01 5.000000000000e+01 4.806900000000e+05 0.000000000000e+00 0.000000000000e+00 0.000000000000e+00 
1.525000000000e+02 2.000000000000e+01 5.000000000000e+01 4.806900000000e+05 0.000000000000e+00 0.000000000000e+00 0.000000000000e+00 
1.550000000000e+02 2.000000000000e+01 5.000000000000e+01 4.806900000000e+05 0.000000000000e+00 0.000000000000e+00 0.000000000000e+00 
1.600000000000e+02 2.000000000000e+01 5.000000000000e+01 4.806900000000e+05 0.000000000000e+00 0.000000000000e+00 0.000000000000e+00 
1.650000000000e+02 2.000000000000e+01 5.000000000000e+01 4.806900000000e+05 0.000000000000e+00 0.000000000000e+00 0.000000000000e+00 
1.700000000000e+02 2.000000000000e+01 5.000000000000e+01 4.806900000000e+05 0.000000000000e+00 0.000000000000e+00 0.000000000000e+00 
1.800000000000e+02 2.000000000000e+01 5.000000000000e+01 4.806900000000e+05 0.000000000000e+00 0.000000000000e+00 0.000000000000e+00 
1.900000000000e+02 2.000000000000e+01 5.000000000000e+01 4.806900000000e+05 0.000000000000e+00 0.000000000000e+00 0.000000000000e+00 
2.000000000000e+02 2.000000000000e+01 5.000000000000e+01 4.806900000000e+05 0.000000000000e+00 0.000000000000e+00 0.000000000000e+00 
2.100000000000e+02 2.000000000000e+01 5.000000000000e+01 4.806900000000e+05 0.000000000000e+00 0.000000000000e+00 0.000000000000e+00 
2.200000000000e+02 2.000000000000e+01 5.000000000000e+01 4.806900000000e+05 0.000000000000e+00 0.000000000000e+00 0.000000000000e+00 
2.300000000000e+02 2.000000000000e+01 5.000000000000e+01 4.806900000000e+05 0.000000000000e+00 0.000000000000e+00 0.000000000000e+00 
2.400000000000e+02 2.000000000000e+01 5.000000000000e+01 4.806900000000e+05 0.000000000000e+00 0.000000000000e+00 0.000000000000e+00 
2.500000000000e+02 2.000000000000e+01 5.000000000000e+01 4.806900000000e+05 0.000000000000e+00 0.000000000000e+00 0.000000000000e+00 
2.600000000000e+02 2.000000000000e+01 5.000000000000e+01 4.806900000000e+05 0.000000000000e+00 0.000000000000e+00 0.000000000000e+00 
2.700000000000e+02 2.000000000000e+01 5.000000000000e+01 4.806900000000e+05 0.000000000000e+00 0.000000000000e+00 0.000000000000e+00 
2.800000000000e+02 2.000000000000e+01 5.000000000000e+01 4.806900000000e+05 0.000000000000e+00 0.000000000000e+00 0.000000000000e+00 
2.900000000000e+02 2.000000000000e+01 5.000000000000e+01 4.806900000000e+05 0.000000000000e+00 0.000000000000e+00 0.000000000000e+00 
3.000000000000e+02 2.000000000000e+01 5.000000000000e+01 4.806900000000e+05 0.000000000000e+00 0.000000000000e+00 0.000000000000e+00 
0.000000000000e+00 3.000000000000e+01 5.000000000000e+01 4.806900000000e+05 0.000000000000e+00 0.000000000000e+00 0.000000000000e+00 
1.000000000000e+01 3.000000000000e+01 5.000000000000e+01 4.806900000000e+05 0.000000000000e+00 0.000000000000e+00 0.000000000000e+00 
2.000000000000e+01 3.000000000000e+01 5.000000000000e+01 4.806900000000e+05 0.000000000000e+00 0.000000000000e+00 0.000000000000e+00 
3.000000000000e+01 3.000000000000e+01 5.000000000000e+01 4.806900000000e+05 0.000000000000e+00 0.000000000000e+00 0.000000000000e+00 
4.000000000000e+01 3.000000000000e+01 5.000000000000e+01 4.806900000000e+05 0.000000000000e+00 0.000000000000e+00 0.000000000000e+00 
5.000000000000e+01 3.000000000000e+01 5.000000000000e+01 4.806900000000e+05 0.000000000000e+00 0.000000000000e+00 0.000000000000e+00 
6.000000000000e+01 3.000000000000e+01 5.000000000000e+01 4.806900000000e+05 0.000000000000e+00 0.000000000000e+00 0.000000000000e+00 
7.000000000000e+01 3.000000000000e+01 5.000000000000e+01 4.806900000000e+05 0.000000000000e+00 0.000000000000e+00 0.000000000000e+00 
8.000000000000e+01 3.000000000000e+01 5.000000000000e+01 4.806900000000e+05 0.000000000000e+00 0.000000000000e+00 0.000000000000e+00 
9.000000000000e+01 3.000000000000e+01 5.000000000000e+01 4.806900000000e+05 0.000000000000e+00 0.000000000000e+00 0.000000000000e+00 
1.000000000000e+02 3.000000000000e+01 5.000000000000e+01 4.806900000000e+05 0.000000000000e+00 0.000000000000e+00 0.000000000000e+00 
1.100000000000e+02 3.000000000000e+01 5.000000000000e+01 4.806900000000e+05 0.000000000000e+00 0.000000000000e+00 0.000000000000e+00 
1.200000000000e+02 3.000000000000e+01 5.000000000000e+01 4.806900000000e+05 0.000000000000e+00 0.000000000000e+00 0.000000000000e+00 
1.300000000000e+02 3.000000000000e+01 5.000000000000e+01 4.806900000000e+05 0.000000000000e+00 0.000000000000e+00 0.000000000000e+00 
1.350000000000e+02 3.000000000000e+01 5.000000000000e+01 4.806900000000e+05 0.000000000000e+00 0.000000000000e+00 0.000000000000e+00 
1.400000000000e+02 3.000000000000e+01 5.000000000000e+01 4.806900000000e+05 0.000000000000e+00 0.000000000000e+00 0.000000000000e+00 
1.450000000000e+02 3.000000000000e+01 5.000000000000e+01 4.806900000000e+05 0.000000000000e+00 0.000000000000e+00 0.000000000000e+00 
1.475000000000e+02 3.000000000000e+01 5.000000000000e+01 4.806900000000e+05 0.000000000000e+00 0.000000000000e+00 0.000000000000e+00 
1.495000000000e+02 3.000000000000e+01 5.000000000000e+01 4.806900000000e+05 0.000000000000e+00 0.000000000000e+00 0.000000000000e+00 
1.505000000000e+02 3.000000000000e+01 5.000000000000e+01 4.806900000000e+05 0.000000000000e+00 0.000000000000e+00 0.000000000000e+00 
1.525000000000e+02 3.000000000000e+01 5.000000000000e+01 4.806900000000e+05 0.000000000000e+00 0.000000000000e+00 0.000000000000e+00 
1.550000000000e+02 3.000000000000e+01 5.000000000000e+01 4.806900000000e+05 0.000000000000e+00 0.000000000000e+00 0.000000000000e+00 
1.600000000000e+02 3.000000000000e+01 5.000000000000e+01 4.806900000000e+05 0.000000000000e+00 0.000000000000e+00 0.000000000000e+00 
1.650000000000e+02 3.000000000000e+01 5.000000000000e+01 4.806900000000e+05 0.000000000000e+00 0.000000000000e+00 0.000000000000e+00 
1.700000000000e+02 3.000000000000e+01 5.000000000000e+01 4.806900000000e+05 0.000000000000e+00 0.000000000000e+00 0.000000000000e+00 
1.800000000000e+02 3.000000000000e+01 5.000000000000e+01 4.806900000000e+05 0.000000000000e+00 0.000000000000e+00 0.000000000000e+00 
1.900000000000e+02 3.000000000000e+01 5.000000000000e+01 4.806900000000e+05 0.000000000000e+00 0.000000000000e+00 0.000000000000e+00 
2.000000000000e+02 3.000000000000e+01 5.000000000000e+01 4.806900000000e+05 0.000000000000e+00 0.000000000000e+00 0.000000000000e+00 
2.100000000000e+02 3.000000000000e+01 5.000000000000e+01 4.806900000000e+05 0.000000000000e+00 0.000000000000e+00 0.000000000000e+00 
2.200000000000e+02 3.000000000000e+01 5.000000000000e+01 4.806900000000e+05 0.000000000000e+00 0.000000000000e+00 0.000000000000e+00 
2.300000000000e+02 3.000000000000e+01 5.000000000000e+01 4.806900000000e+05 0.000000000000e+00 0.000000000000e+00 0.000000000000e+00 
2.400000000000e+02 3.000000000000e+01 5.000000000000e+01 4.806900000000e+05 0.000000000000e+00 0.000000000000e+00 0.000000000000e+00 
2.500000000000e+02 3.000000000000e+01 5.000000000000e+01 4.806900000000e+05 0.000000000000e+00 0.000000000000e+00 0.000000000000e+00 
2.600000000000e+02 3.000000000000e+01 5.000000000000e+01 4.806900000000e+05 0.000000000000e+00 0.000000000000e+00 0.000000000000e+00 
2.700000000000e+02 3.000000000000e+01 5.000000000000e+01 4.806900000000e+05 0.000000000000e+00 0.000000000000e+00 0.000000000000e+00 
2.800000000000e+02 3.000000000000e+01 5.000000000000e+01 4.806900000000e+05 0.000000000000e+00 0.000000000000e+00 0.000000000000e+00 
2.900000000000e+02 3.000000000000e+01 5.000000000000e+01 4.806900000000e+05 0.000000000000e+00 0.000000000000e+00 0.000000000000e+00 
3.000000000000e+02 3.000000000000e+01 5.000000000000e+01 4.806900000000e+05 0.000000000000e+00 0.000000000000e+00 0.000000000000e+00 
0.000000000000e+00 4.000000000000e+01 5.000000000000e+01 4.806900000000e+05 0.000000000000e+00 0.000000000000e+00 0.000000000000e+00 
1.000000000000e+01 4.000000000000e+01 5.000000000000e+01 4.806900000000e+05 0.000000000000e+00 0.000000000000e+00 0.000000000000e+00 
2.000000000000e+01 4.000000000000e+01 5.000000000000e+01 4.806900000000e+05 0.000000000000e+00 0.000000000000e+00 0.000000000000e+00 
3.000000000000e+01 4.000000000000e+01 5.000000000000e+01 4.806900000000e+05 0.000000000000e+00 0.000000000000e+00 0.000000000000e+00 
4.000000000000e+01 4.000000000000e+01 5.000000000000e+01 4.806900000000e+05 0.000000000000e+00 0.000000000000e+00 0.000000000000e+00 
5.000000000000e+01 4.000000000000e+01 5.000000000000e+01 4.806900000000e+05 0.000000000000e+00 0.000000000000e+00 0.000000000000e+00 
6.000000000000e+01 4.000000000000e+01 5.000000000000e+01 4.806900000000e+05 0.000000000000e+00 0.000000000000e+00 0.000000000000e+00 
7.000000000000e+01 4.000000000000e+01 5.000000000000e+01 4.806900000000e+05 0.000000000000e+00 0.000000000000e+00 0.000000000000e+00 
8.000000000000e+01 4.000000000000e+01 5.000000000000e+01 4.806900000000e+05 0.000000000000e+00 0.000000000000e+00 0.000000000000e+00 
9.000000000000e+01 4.000000000000e+01 5.000000000000e+01 4.806900000000e+05 0.000000000000e+00 0.000000000000e+00 0.000000000000e+00 
1.000000000000e+02 4.000000000000e+01 5.000000000000e+01 4.806900000000e+05 0.000000000000e+00 0.000000000000e+00 0.000000000000e+00 
1.100000000000e+02 4.000000000000e+01 5.000000000000e+01 4.806900000000e+05 0.000000000000e+00 0.000000000000e+00 0.000000000000e+00 
1.200000000000e+02 4.000000000000e+01 5.000000000000e+01 4.806900000000e+05 0.000000000000e+00 0.000000000000e+00 0.000000000000e+00 
1.300000000000e+02 4.000000000000e+01 5.000000000000e+01 4.806900000000e+05 0.000000000000e+00 0.000000000000e+00 0.000000000000e+00 
1.350000000000e+02 4.000000000000e+01 5.000000000000e+01 4.806900000000e+05 0.000000000000e+00 0.000000000000e+00 0.000000000000e+00 
1.400000000000e+02 4.000000000000e+01 5.000000000000e+01 4.806900000000e+05 0.000000000000e+00 0.000000000000e+00 0.000000000000e+00 
1.450000000000e+02 4.000000000000e+01 5.000000000000e+01 4.806900000000e+05 0.000000000000e+00 0.000000000000e+00 0.000000000000e+00 
1.475000000000e+02 4.000000000000e+01 5.000000000000e+01 4.806900000000e+05 0.000000000000e+00 0.000000000000e+00 0.000000000000e+00 
1.495000000000e+02 4.000000000000e+01 5.000000000000e+01 4.806900000000e+05 0.000000000000e+00 0.000000000000e+00 0.000000000000e+00 
1.505000000000e+02 4.000000000000e+01 5.000000000000e+01 4.806900000000e+05 0.000000000000e+00 0.000000000000e+00 0.000000000000e+00 
1.525000000000e+02 4.000000000000e+01 5.000000000000e+01 4.806900000000e+05 0.000000000000e+00 0.000000000000e+00 0.000000000000e+00 
1.550000000000e+02 4.000000000000e+01 5.000000000000e+01 4.806900000000e+05 0.000000000000e+00 0.000000000000e+00 0.000000000000e+00 
1.600000000000e+02 4.000000000000e+01 5.000000000000e+01 4.806900000000e+05 0.000000000000e+00 0.000000000000e+00 0.000000000000e+00 
1.650000000000e+02 4.000000000000e+01 5.000000000000e+01 4.806900000000e+05 0.000000000000e+00 0.000000000000e+00 0.000000000000e+00 
1.700000000000e+02 4.000000000000e+01 5.000000000000e+01 4.806900000000e+05 0.000000000000e+00 0.000000000000e+00 0.000000000000e+00 
1.800000000000e+02 4.000000000000e+01 5.000000000000e+01 4.806900000000e+05 0.000000000000e+00 0.000000000000e+00 0.000000000000e+00 
1.900000000000e+02 4.000000000000e+01 5.000000000000e+01 4.806900000000e+05 0.000000000000e+00 0.000000000000e+00 0.000000000000e+00 
2.000000000000e+02 4.000000000000e+01 5.000000000000e+01 4.806900000000e+05 0.000000000000e+00 0.000000000000e+00 0.000000000000e+00 
2.100000000000e+02 4.000000000000e+01 5.000000000000e+01 4.806900000000e+05 0.000000000000e+00 0.000000000000e+00 0.000000000000e+00 
2.200000000000e+02 4.000000000000e+01 5.000000000000e+01 4.806900000000e+05 0.000000000000e+00 0.000000000000e+00 0.000000000000e+00 
2.300000000000e+02 4.000000000000e+01 5.000000000000e+01 4.806900000000e+05 0.000000000000e+00 0.000000000000e+00 0.000000000000e+00 
2.400000000000e+02 4.000000000000e+01 5.000000000000e+01 4.806900000000e+05 0.000000000000e+00 0.000000000000e+00 0.000000000000e+00 
2.500000000000e+02 4.000000000000e+01 5.000000000000e+01 4.806900000000e+05 0.000000000000e+00 0.000000000000e+00 0.000000000000e+00 
2.600000000000e+02 4.000000000000e+01 5.000000000000e+01 4.806900000000e+05 0.000000000000e+00 0.000000000000e+00 0.000000000000e+00 
2.700000000000e+02 4.000000000000e+01 5.000000000000e+01 4.806900000000e+05 0.000000000000e+00 0.000000000000e+00 0.000000000000e+00 
2.800000000000e+02 4.000000000000e+01 5.000000000000e+01 4.806900000000e+05 0.000000000000e+00 0.000000000000e+00 0.000000000000e+00 
2.900000000000e+02 4.000000000000e+01 5.000000000000e+01 4.806900000000e+05 0.000000000000e+00 0.000000000000e+00 0.000000000000e+00 
3.000000000000e+02 4.000000000000e+01 5.000000000000e+01 4.806900000000e+05 0.000000000000e+00 0.000000000000e+00 0.000000000000e+00 
0.000000000000e+00 5.000000000000e+01 5.000000000000e+01 4.806900000000e+05 0.000000000000e+00 0.000000000000e+00 0.000000000000e+00 
1.000000000000e+01 5.000000000000e+01 5.000000000000e+01 4.806900000000e+05 0.000000000000e+00 0.000000000000e+00 0.000000000000e+00 
2.000000000000e+01 5.000000000000e+01 5.000000000000e+01 4.806900000000e+05 0.000000000000e+00 0.000000000000e+00 0.000000000000e+00 
3.000000000000e+01 5.000000000000e+01 5.000000000000e+01 4.806900000000e+05 0.000000000000e+00 0.000000000000e+00 0.000000000000e+00 
4.000000000000e+01 5.000000000000e+01 5.000000000000e+01 4.806900000000e+05 0.000000000000e+00 0.000000000000e+00 0.000000000000e+00 
5.000000000000e+01 5.000000000000e+01 5.000000000000e+01 4.806900000000e+05 0.000000000000e+00 0.000000000000e+00 0.000000000000e+00 
6.000000000000e+01 5.000000000000e+01 5.000000000000e+01 4.806900000000e+05 0.000000000000e+00 0.000000000000e+00 0.000000000000e+00 
7.000000000000e+01 5.000000000000e+01 5.000000000000e+01 4.806900000000e+05 0.000000000000e+00 0.000000000000e+00 0.000000000000e+00 
8.000000000000e+01 5.000000000000e+01 5.000000000000e+01 4.806900000000e+05 0.000000000000e+00 0.000000000000e+00 0.000000000000e+00 
9.000000000000e+01 5.000000000000e+01 5.000000000000e+01 4.806900000000e+05 0.000000000000e+00 0.000000000000e+00 0.000000000000e+00 
1.000000000000e+02 5.000000000000e+01 5.000000000000e+01 4.806900000000e+05 0.000000000000e+00 0.000000000000e+00 0.000000000000e+00 
1.100000000000e+02 5.000000000000e+01 5.000000000000e+01 4.806900000000e+05 0.000000000000e+00 0.000000000000e+00 0.000000000000e+00 
1.200000000000e+02 5.000000000000e+01 5.000000000000e+01 4.806900000000e+05 0.000000000000e+00 0.000000000000e+00 0.000000000000e+00 
1.300000000000e+02 5.000000000000e+01 5.000000000000e+01 4.806900000000e+05 0.000000000000e+00 0.000000000000e+00 0.000000000000e+00 
1.350000000000e+02 5.000000000000e+01 5.000000000000e+01 4.806900000000e+05 0.000000000000e+00 0.000000000000e+00 0.000000000000e+00 
1.400000000000e+02 5.000000000000e+01 5.000000000000e+01 4.806900000000e+05 0.000000000000e+00 0.000000000000e+00 0.000000000000e+00 
1.450000000000e+02 5.000000000000e+01 5.000000000000e+01 4.806900000000e+05 0.000000000000e+00 0.000000000000e+00 0.000000000000e+00 
1.475000000000e+02 5.000000000000e+01 5.000000000000e+01 4.806900000000e+05 0.000000000000e+00 0.000000000000e+00 0.000000000000e+00 
1.495000000000e+02 5.000000000000e+01 5.000000000000e+01 4.806900000000e+05 0.000000000000e+00 0.000000000000e+00 0.000000000000e+00 
1.505000000000e+02 5.000000000000e+01 5.000000000000e+01 4.806900000000e+05 0.000000000000e+00 0.000000000000e+00 0.000000000000e+00 
1.525000000000e+02 5.000000000000e+01 5.000000000000e+01 4.806900000000e+05 0.000000000000e+00 0.000000000000e+00 0.000000000000e+00 
1.550000000000e+02 5.000000000000e+01 5.000000000000e+01 4.806900000000e+05 0.000000000000e+00 0.000000000000e+00 0.000000000000e+00 
1.600000000000e+02 5.000000000000e+01 5.000000000000e+01 4.806900000000e+05 0.000000000000e+00 0.000000000000e+00 0.000000000000e+00 
1.650000000000e+02 5.000000000000e+01 5.000000000000e+01 4.806900000000e+05 0.000000000000e+00 0.000000000000e+00 0.000000000000e+00 
1.700000000000e+02 5.000000000000e+01 5.000000000000e+01 4.806900000000e+05 0.000000000000e+00 0.000000000000e+00 0.000000000000e+00 
1.800000000000e+02 5.000000000000e+01 5.000000000000e+01 4.806900000000e+05 0.000000000000e+00 0.000000000000e+00 0.000000000000e+00 
1.900000000000e+02 5.000000000000e+01 5.000000000000e+01 4.806900000000e+05 0.000000000000e+00 0.000000000000e+00 0.000000000000e+00 
2.000000000000e+02 5.000000000000e+01 5.000000000000e+01 4.806900000000e+05 0.000000000000e+00 0.000000000000e+00 0.000000000000e+00 
2.100000000000e+02 5.000000000000e+01 5.000000000000e+01 4.806900000000e+05 0.000000000000e+00 0.000000000000e+00 0.000000000000e+00 
2.200000000000e+02 5.000000000000e+01 5.000000000000e+01 4.806900000000e+05 0.000000000000e+00 0.000000000000e+00 0.000000000000e+00 
2.300000000000e+02 5.000000000000e+01 5.000000000000e+01 4.806900000000e+05 0.000000000000e+00 0.000000000000e+00 0.000000000000e+00 
2.400000000000e+02 5.000000000000e+01 5.000000000000e+01 4.806900000000e+05 0.000000000000e+00 0.000000000000e+00 0.000000000000e+00 