<?xml version="1.0"?>
<!-- Time step: 30 | Time: 3.000000000000e+08 -->
<VTKFile type="UnstructuredGrid" version="0.1" byte_order="LittleEndian">
  <UnstructuredGrid>
    <Piece NumberOfPoints="409" NumberOfCells="736">
      <Points>
        <DataArray type="Float64" NumberOfComponents="3" format="ascii">
          0.000000000000e+00 1.000000000000e+00 0.000000000000e+00
          3.500000000000e-01 1.000000000000e+00 0.000000000000e+00
          0.000000000000e+00 6.500000000000e-01 0.000000000000e+00
          6.500000000000e-01 1.000000000000e+00 0.000000000000e+00
          0.000000000000e+00 3.500000000000e-01 0.000000000000e+00
          1.000000000000e+00 1.000000000000e+00 0.000000000000e+00
          0.000000000000e+00 0.000000000000e+00 0.000000000000e+00
          1.000000000000e+00 7.000000000000e-01 0.000000000000e+00
          3.000000000000e-01 0.000000000000e+00 0.000000000000e+00
          1.000000000000e+00 4.500000000000e-01 0.000000000000e+00
          5.500000000000e-01 0.000000000000e+00 0.000000000000e+00
          1.000000000000e+00 1.500000000000e-01 0.000000000000e+00
          8.500000000000e-01 0.000000000000e+00 0.000000000000e+00
          1.000000000000e+00 0.000000000000e+00 0.000000000000e+00
          5.000000000000e-02 1.000000000000e+00 0.000000000000e+00
          1.000000000000e-01 1.000000000000e+00 0.000000000000e+00
          1.500000000000e-01 1.000000000000e+00 0.000000000000e+00
          2.000000000000e-01 1.000000000000e+00 0.000000000000e+00
          2.500000000000e-01 1.000000000000e+00 0.000000000000e+00
          3.000000000000e-01 1.000000000000e+00 0.000000000000e+00
          3.146447000000e-01 9.646447000000e-01 0.000000000000e+00
          2.792893000000e-01 9.292893000000e-01 0.000000000000e+00
          2.439340000000e-01 8.939340000000e-01 0.000000000000e+00
          2.085786000000e-01 8.585786000000e-01 0.000000000000e+00
          1.732233000000e-01 8.232233000000e-01 0.000000000000e+00
          1.378680000000e-01 7.878680000000e-01 0.000000000000e+00
          1.025126000000e-01 7.525126000000e-01 0.000000000000e+00
          6.715730000000e-02 7.171573000000e-01 0.000000000000e+00
          0.000000000000e+00 7.000000000000e-01 0.000000000000e+00
          0.000000000000e+00 7.500000000000e-01 0.000000000000e+00
          0.000000000000e+00 8.000000000000e-01 0.000000000000e+00
          0.000000000000e+00 8.500000000000e-01 0.000000000000e+00
          0.000000000000e+00 9.000000000000e-01 0.000000000000e+00
          0.000000000000e+00 9.500000000000e-01 0.000000000000e+00
          4.000000000000e-01 1.000000000000e+00 0.000000000000e+00
          4.500000000000e-01 1.000000000000e+00 0.000000000000e+00
          5.000000000000e-01 1.000000000000e+00 0.000000000000e+00
          5.500000000000e-01 1.000000000000e+00 0.000000000000e+00
          6.000000000000e-01 1.000000000000e+00 0.000000000000e+00
          6.146447000000e-01 9.646447000000e-01 0.000000000000e+00
          5.792893000000e-01 9.292893000000e-01 0.000000000000e+00
          5.439340000000e-01 8.939340000000e-01 0.000000000000e+00
          5.085786000000e-01 8.585786000000e-01 0.000000000000e+00
          4.732233000000e-01 8.232233000000e-01 0.000000000000e+00
          4.378680000000e-01 7.878680000000e-01 0.000000000000e+00
          4.025126000000e-01 7.525126000000e-01 0.000000000000e+00
          3.671573000000e-01 7.171573000000e-01 0.000000000000e+00
          3.318019000000e-01 6.818019000000e-01 0.000000000000e+00
          2.964466000000e-01 6.464466000000e-01 0.000000000000e+00
          2.610913000000e-01 6.110913000000e-01 0.000000000000e+00
          2.257359000000e-01 5.757359000000e-01 0.000000000000e+00
          1.903806000000e-01 5.403806000000e-01 0.000000000000e+00
          1.550253000000e-01 5.050253000000e-01 0.000000000000e+00
          1.196699000000e-01 4.696699000000e-01 0.000000000000e+00
          8.431460000000e-02 4.343146000000e-01 0.000000000000e+00
          4.895920000000e-02 3.989592000000e-01 0.000000000000e+00
          0.000000000000e+00 4.000000000000e-01 0.000000000000e+00
          0.000000000000e+00 4.500000000000e-01 0.000000000000e+00
          0.000000000000e+00 5.000000000000e-01 0.000000000000e+00
          0.000000000000e+00 5.500000000000e-01 0.000000000000e+00
          0.000000000000e+00 6.000000000000e-01 0.000000000000e+00
          7.000000000000e-01 1.000000000000e+00 0.000000000000e+00
          7.500000000000e-01 1.000000000000e+00 0.000000000000e+00
          8.000000000000e-01 1.000000000000e+00 0.000000000000e+00
          8.500000000000e-01 1.000000000000e+00 0.000000000000e+00
          9.000000000000e-01 1.000000000000e+00 0.000000000000e+00
          9.500000000000e-01 1.000000000000e+00 0.000000000000e+00
          9.646447000000e-01 9.646447000000e-01 0.000000000000e+00
          9.292893000000e-01 9.292893000000e-01 0.000000000000e+00
          8.939340000000e-01 8.939340000000e-01 0.000000000000e+00
          8.585786000000e-01 8.585786000000e-01 0.000000000000e+00
          8.232233000000e-01 8.232233000000e-01 0.000000000000e+00
          7.878680000000e-01 7.878680000000e-01 0.000000000000e+00
          7.525126000000e-01 7.525126000000e-01 0.000000000000e+00
          7.171573000000e-01 7.171573000000e-01 0.000000000000e+00
          6.818019000000e-01 6.818019000000e-01 0.000000000000e+00
          6.464466000000e-01 6.464466000000e-01 0.000000000000e+00
          6.110913000000e-01 6.110913000000e-01 0.000000000000e+00
          5.757359000000e-01 5.757359000000e-01 0.000000000000e+00
          5.403806000000e-01 5.403806000000e-01 0.000000000000e+00
          5.050253000000e-01 5.050253000000e-01 0.000000000000e+00
          4.696699000000e-01 4.696699000000e-01 0.000000000000e+00
          4.343146000000e-01 4.343146000000e-01 0.000000000000e+00
          3.989592000000e-01 3.989592000000e-01 0.000000000000e+00
          3.636039000000e-01 3.636039000000e-01 0.000000000000e+00
          3.282486000000e-01 3.282486000000e-01 0.000000000000e+00
          2.928932000000e-01 2.928932000000e-01 0.000000000000e+00
          2.575379000000e-01 2.575379000000e-01 0.000000000000e+00
          2.221825000000e-01 2.221825000000e-01 0.000000000000e+00
          1.868272000000e-01 1.868272000000e-01 0.000000000000e+00
          1.514719000000e-01 1.514719000000e-01 0.000000000000e+00
          1.161165000000e-01 1.161165000000e-01 0.000000000000e+00
          8.076120000000e-02 8.076120000000e-02 0.000000000000e+00
          4.540580000000e-02 4.540580000000e-02 0.000000000000e+00
          0.000000000000e+00 5.000000000000e-02 0.000000000000e+00
          0.000000000000e+00 1.000000000000e-01 0.000000000000e+00
          0.000000000000e+00 1.500000000000e-01 0.000000000000e+00
          0.000000000000e+00 2.000000000000e-01 0.000000000000e+00
          0.000000000000e+00 2.500000000000e-01 0.000000000000e+00
          0.000000000000e+00 3.000000000000e-01 0.000000000000e+00
          1.000000000000e+00 9.500000000000e-01 0.000000000000e+00
          1.000000000000e+00 9.000000000000e-01 0.000000000000e+00
          1.000000000000e+00 8.500000000000e-01 0.000000000000e+00
          1.000000000000e+00 8.000000000000e-01 0.000000000000e+00
          1.000000000000e+00 7.500000000000e-01 0.000000000000e+00
          9.646447000000e-01 6.646447000000e-01 0.000000000000e+00
          9.292893000000e-01 6.292893000000e-01 0.000000000000e+00
          8.939340000000e-01 5.939340000000e-01 0.000000000000e+00
          8.585786000000e-01 5.585786000000e-01 0.000000000000e+00
          8.232233000000e-01 5.232233000000e-01 0.000000000000e+00
          7.878680000000e-01 4.878680000000e-01 0.000000000000e+00
          7.525126000000e-01 4.525126000000e-01 0.000000000000e+00
          7.171573000000e-01 4.171573000000e-01 0.000000000000e+00
          6.818019000000e-01 3.818019000000e-01 0.000000000000e+00
          6.464466000000e-01 3.464466000000e-01 0.000000000000e+00
          6.110913000000e-01 3.110913000000e-01 0.000000000000e+00
          5.757359000000e-01 2.757359000000e-01 0.000000000000e+00
          5.403806000000e-01 2.403806000000e-01 0.000000000000e+00
          5.050253000000e-01 2.050253000000e-01 0.000000000000e+00
          4.696699000000e-01 1.696699000000e-01 0.000000000000e+00
          4.343146000000e-01 1.343146000000e-01 0.000000000000e+00
          3.989592000000e-01 9.895920000000e-02 0.000000000000e+00
          3.636039000000e-01 6.360390000000e-02 0.000000000000e+00
          2.500000000000e-01 0.000000000000e+00 0.000000000000e+00
          2.000000000000e-01 0.000000000000e+00 0.000000000000e+00
          1.500000000000e-01 0.000000000000e+00 0.000000000000e+00
          1.000000000000e-01 0.000000000000e+00 0.000000000000e+00
          5.000000000000e-02 0.000000000000e+00 0.000000000000e+00
          1.000000000000e+00 6.500000000000e-01 0.000000000000e+00
          1.000000000000e+00 6.000000000000e-01 0.000000000000e+00
          1.000000000000e+00 5.500000000000e-01 0.000000000000e+00
          1.000000000000e+00 5.000000000000e-01 0.000000000000e+00
          9.646447000000e-01 4.146447000000e-01 0.000000000000e+00
          9.292893000000e-01 3.792893000000e-01 0.000000000000e+00
          8.939340000000e-01 3.439340000000e-01 0.000000000000e+00
          8.585786000000e-01 3.085786000000e-01 0.000000000000e+00
          8.232233000000e-01 2.732233000000e-01 0.000000000000e+00
          7.878680000000e-01 2.378680000000e-01 0.000000000000e+00
          7.525126000000e-01 2.025126000000e-01 0.000000000000e+00
          7.171573000000e-01 1.671573000000e-01 0.000000000000e+00
          6.818019000000e-01 1.318019000000e-01 0.000000000000e+00
          6.464466000000e-01 9.644660000000e-02 0.000000000000e+00
          6.110913000000e-01 6.109130000000e-02 0.000000000000e+00
          5.000000000000e-01 0.000000000000e+00 0.000000000000e+00
[...]
      <PointData Scalars="PRESSURE1">
        <DataArray type="Float64" Name="PRESSURE1" format="ascii">
          1.000000000000e+00 5.907190416497e-01 5.908417723184e-01 5.249865100100e-01 5.249722958508e-01 5.005467915247e-01 5.005819916626e-01 4.826733877288e-01 4.827189440119e-01 4.384451031730e-01 4.383733876113e-01 3.126846485546e-01 3.123015507016e-01 0.000000000000e+00 8.186736702529e-01 7.391244500149e-01 6.892144139850e-01 6.554661831239e-01 6.292673717650e-01 6.084204454640e-01 6.018538569754e-01 6.127289934509e-01 6.215296418212e-01 6.277185689124e-01 6.297830248533e-01 6.273823902162e-01 6.207996558030e-01 6.117592545259e-01 6.083721355814e-01 6.292323876569e-01 6.554904784718e-01 6.883537233697e-01 7.382734029561e-01 8.199442393082e-01 5.757287961199e-01 5.626828899865e-01 5.512332793155e-01 5.412876374997e-01 5.325457084927e-01 5.298120439076e-01 5.348868751045e-01 5.396003472167e-01 5.440863707297e-01 5.482557490973e-01 5.517674465409e-01 5.546494070038e-01 5.564148376153e-01 5.572940860294e-01 5.569088269836e-01 5.555003159474e-01 5.529950721233e-01 5.497451450942e-01 5.457677833306e-01 5.414101771923e-01 5.366692540404e-01 5.318157345437e-01 5.325587279465e-01 5.413391274258e-01 5.513312842245e-01 5.627032583789e-01 5.757823110291e-01 5.184232400804e-01 5.129456528366e-01 5.085613375277e-01 5.050767543466e-01 5.025660014623e-01 5.010981380837e-01 5.005372770071e-01 5.006025495726e-01 5.005628021941e-01 5.005269342906e-01 5.006053150590e-01 5.005730561620e-01 5.005494198170e-01 5.005460251934e-01 5.005904170690e-01 5.005701412782e-01 5.005497150580e-01 5.005540993672e-01 5.005535458442e-01 5.005618941809e-01 5.005700963406e-01 5.005675647075e-01 5.005565941627e-01 5.005769406285e-01 5.005801433543e-01 5.005563537280e-01 5.005571685899e-01 5.005599633647e-01 5.006341093831e-01 5.005687802055e-01 5.005699080127e-01 5.005232643628e-01 5.005974382403e-01 5.010974959964e-01 5.025917906018e-01 5.050617438629e-01 5.085292346952e-01 5.129794056476e-01 5.184550359548e-01 5.000144741444e-01 4.985763795980e-01 4.960384434863e-01 4.926292223521e-01 4.881611905405e-01 4.785290895873e-01 4.742667698021e-01 4.701855382398e-01 4.661959751017e-01 4.625553094325e-01 4.593144071901e-01 4.566295057281e-01 4.545338137034e-01 4.532657379168e-01 4.528923455212e-01 4.534381527382e-01 4.548597389987e-01 4.570362984521e-01 4.599282920334e-01 4.633000255205e-01 4.670922536927e-01 4.710086240174e-01 4.750921568423e-01 4.882056666231e-01 4.926535415783e-01 4.960907375721e-01 4.984902184389e-01 5.000626577835e-01 4.761667710588e-01 4.685822538405e-01 4.597593205403e-01 4.497695902893e-01 4.299801989689e-01 4.216046183914e-01 4.138817158123e-01 4.075085484132e-01 4.029737417238e-01 4.005689253586e-01 4.009454735639e-01 4.039940726129e-01 4.093549636419e-01 4.160087293189e-01 4.238237718820e-01 4.498374914250e-01 4.598471788278e-01 4.685743380251e-01 4.761554179896e-01 4.253832694289e-01 4.103765233206e-01 3.926569198137e-01 3.719530361166e-01 3.459206801148e-01 2.886764397391e-01 2.756344503691e-01 2.839783584382e-01 3.454969473788e-01 3.717989391344e-01 3.928028842956e-01 4.103756611707e-01 4.253794392034e-01 2.615508156105e-01 1.827645172429e-01 1.786175731961e-01 2.664004425930e-01 6.757023083981e-01 5.875902315501e-01 5.738514894265e-01 5.243205559628e-01 5.210022101973e-01 4.842108943584e-01 4.432128233428e-01 6.535743919982e-01 6.357153116103e-01 5.837258032127e-01 6.568999887807e-01 7.029486541623e-01 5.558461570420e-01 7.471998594336e-01 6.351029803795e-01 5.450176028529e-01 6.861045565764e-01 5.585157730748e-01 5.628565001168e-01 6.546699106521e-01 6.929711009316e-01 5.927226276029e-01 6.082517367710e-01 6.028878222023e-01 6.072721588567e-01 5.187197983441e-01 5.685307329676e-01 5.115449750535e-01 5.089726153171e-01 6.023174970126e-01 5.025290648372e-01 5.763310815908e-01 5.842981637561e-01 5.254428663281e-01 5.447872071894e-01 5.686577151639e-01 5.775674592519e-01 5.700514606191e-01 5.683847015694e-01 5.041070119777e-01 5.132147355494e-01 5.612194373923e-01 5.298228271314e-01 5.122780157975e-01 5.555989838473e-01 5.438594373110e-01 5.109748199478e-01 5.131908568651e-01 5.206907923893e-01 5.484833922759e-01 5.667340020954e-01 5.602747720224e-01 5.914001017918e-01 5.270750199156e-01 5.377945830597e-01 5.217234813242e-01 5.065468798396e-01 5.334047732106e-01 5.408225198848e-01 5.389586534472e-01 4.989942583514e-01 5.459169875581e-01 4.940792527697e-01 5.062982726208e-01 5.202750726412e-01 4.875703499022e-01 4.935036435985e-01 5.373012802314e-01 4.859056423146e-01 4.808180813947e-01 5.070703944085e-01 5.110570105388e-01 4.889796726209e-01 4.741085704599e-01 5.230264486847e-01 5.334704506478e-01 4.785421478483e-01 4.907852314778e-01 5.316010611141e-01 4.758348621843e-01 5.248925287701e-01 5.226636773192e-01 4.855723952215e-01 4.794455506828e-01 5.231135691084e-01 5.111947223474e-01 4.706873245220e-01 4.680815550334e-01 5.121216957348e-01 5.135955027445e-01 4.660383285684e-01 4.754590199675e-01 5.241579745845e-01 5.167235955257e-01 4.682334204392e-01 4.809894057893e-01 5.157032765102e-01 5.054348376603e-01 4.778849172966e-01 4.925061070614e-01 5.026067778102e-01 4.943688228979e-01 4.978090340343e-01 5.032804545850e-01 5.062673155733e-01 4.974093054277e-01 4.963219566704e-01 4.902600237613e-01 4.885651618743e-01 4.684037445781e-01 4.813624027562e-01 4.649772509692e-01 4.475512738425e-01 4.766132641150e-01 4.805098102397e-01 4.375584942347e-01 4.458104894592e-01 4.899465594094e-01 4.268501559392e-01 4.280953448994e-01 4.915517469774e-01 4.408413890382e-01 4.441723181346e-01 4.651013312564e-01 4.716482070996e-01 4.347966512108e-01 4.659120502685e-01 4.871508460088e-01 4.153087223229e-01 4.350690253173e-01 4.701736078364e-01 4.930023594564e-01 4.271892204575e-01 4.544206746332e-01 4.742961838425e-01 4.949922135042e-01 4.657259910645e-01 4.815940374609e-01 4.899237169466e-01 4.582358886196e-01 4.116049185073e-01 4.261100438355e-01 3.794088645579e-01 4.434858413127e-01 4.153930373531e-01 3.532054832736e-01 4.468408705818e-01 3.312778287452e-01 3.402636621567e-01 3.824035318923e-01 3.853268387828e-01 4.445721424958e-01 4.339112628893e-01 4.553218779976e-01 3.979123593730e-01 3.885977054515e-01 3.578592391512e-01 3.781455191468e-01 3.168408541175e-01 3.636893784266e-01 2.299839206310e-01 5.726015431409e-01 5.065732112546e-01 5.496591375385e-01 5.196957719165e-01 5.181009723081e-01 5.895229838947e-01 5.154626747765e-01 5.106143183433e-01 5.257030000821e-01 5.372120621232e-01 5.289129173754e-01 5.332045841893e-01 5.238962658364e-01 4.948131786032e-01 4.917434696632e-01 5.356218403136e-01 4.899052654159e-01 5.341963715734e-01 5.183216907166e-01 5.241274705655e-01 4.969665324617e-01 5.067012615957e-01 4.551730962993e-01 4.853362116504e-01 4.786103699024e-01 4.507848047951e-01 4.419816195492e-01 4.844015840143e-01 4.204973477909e-01 4.167295846668e-01 3.992205483377e-01 4.054490945275e-01 3.813599196587e-01 5.119723751104e-01 5.127945575191e-01 4.818213430324e-01 5.583865778351e-01 5.938251472226e-01 6.514768176574e-01 5.786099094097e-01 5.774484501043e-01 5.147703092231e-01 5.823665617451e-01 5.974470790108e-01 5.079130590444e-01 5.848274578643e-01 5.201879600303e-01 5.447640744132e-01 5.088698811744e-01 5.417500187617e-01 4.930494458573e-01 5.317373388140e-01 4.888069311698e-01 5.297706437747e-01 5.071725555793e-01 4.796054693975e-01 4.834943936861e-01 5.156276012365e-01 4.878735533609e-01 4.913549717579e-01 5.081567679896e-01 5.101800375906e-01 5.246309525949e-01 4.908452937365e-01 4.959136362578e-01 5.109755920869e-01 4.773244235080e-01 4.816190623427e-01 4.441777733504e-01 4.406122072032e-01 4.288598407209e-01 4.899555154085e-01 4.499426179504e-01 4.625025656922e-01 4.415923777368e-01 3.769132582266e-01 3.651533034748e-01 4.409899505824e-01 4.871183633774e-01 5.053265788220e-01 4.308020449972e-01 5.663786574167e-01 4.939737850942e-01 3.521330577161e-01 
        </DataArray>
        <DataArray type="Float64" Name="Tracer" format="ascii">
          0.000000000000e+00 1.000000000000e+00 1.000000000000e+00 4.158052882879e-02 4.194970542258e-02 -3.087383573171e-04 -5.049049024711e-04 1.185524247141e-02 1.129009400809e-02 4.491047532568e-02 4.374659290118e-02 3.012939506737e-02 2.965518277942e-02 2.056917902446e-02 4.312255488835e-01 7.274027119119e-01 9.070055011102e-01 9.786237633833e-01 9.973002110754e-01 1.000048275943e+00 1.000000000000e+00 1.000000000000e+00 1.000000000000e+00 1.000000000000e+00 1.000000000000e+00 1.000000000000e+00 1.000000000000e+00 1.000000000000e+00 9.998829049786e-01 9.992861651917e-01 9.908423346795e-01 8.958136820135e-01 7.274179842046e-01 4.032925863997e-01 6.264137517102e-01 3.832121073907e-01 2.328675805012e-01 1.374907234596e-01 8.024404118005e-02 9.250622678204e-02 1.787209167689e-01 3.084034153635e-01 4.486925011644e-01 5.544154158141e-01 6.085322639676e-01 6.215013213032e-01 6.274141463801e-01 6.298290533618e-01 6.287142331928e-01 6.234260304233e-01 6.093420196320e-01 5.772671477625e-01 5.021040261826e-01 3.500594359893e-01 2.099884964314e-01 1.125514444716e-01 8.109719960597e-02 1.307523376684e-01 2.171371570857e-01 3.571503005283e-01 5.842338043242e-01 2.439739199922e-02 8.803892650480e-03 4.097296361013e-03 1.296893401872e-03 5.013659625322e-04 -1.029826532069e-04 5.968690926000e-05 8.202096689208e-04 3.939462026085e-03 1.094360060303e-02 2.536531860751e-02 5.278641435570e-02 9.290786796193e-02 1.419023612673e-01 1.961060987992e-01 2.425152094819e-01 2.729880323887e-01 2.876912985055e-01 2.937141917780e-01 2.957812275405e-01 2.954676525342e-01 2.887458893025e-01 2.758842909503e-01 2.523449981591e-01 2.095539839376e-01 1.532037429674e-01 9.932517294779e-02 5.904752603082e-02 3.116959258366e-02 1.443512879990e-02 4.566857002985e-03 7.724717149450e-04 -3.763905218440e-04 -4.364971226409e-04 -2.374690310375e-04 2.944478660510e-04 2.242495325506e-03 8.143181350739e-03 1.955601996979e-02 -8.070410480924e-05 3.828829582710e-04 9.495556884020e-04 3.432735513158e-03 6.838538147179e-03 2.098591955056e-02 3.437000421671e-02 5.090174237696e-02 6.982128811144e-02 9.016676565838e-02 1.072902590243e-01 1.174342595868e-01 1.236000732373e-01 1.261364323854e-01 1.270609411968e-01 1.260518697427e-01 1.223751410415e-01 1.148881120157e-01 1.025260864072e-01 8.497794537969e-02 6.457246165550e-02 4.539857522362e-02 2.919950614507e-02 6.040545881681e-03 2.520588311623e-03 4.649145422320e-04 -4.079790346443e-04 -4.381608773244e-04 1.813298829584e-02 2.612362213020e-02 3.261207530245e-02 3.996872098896e-02 4.911994047746e-02 5.215804900069e-02 5.426057478991e-02 5.517390752610e-02 5.525426659926e-02 5.543873409146e-02 5.535547040981e-02 5.514422892632e-02 5.458070266076e-02 5.320874783293e-02 5.057223271796e-02 3.837932467320e-02 3.163893539572e-02 2.465380899943e-02 1.824720130645e-02 4.730766124160e-02 4.665724982072e-02 4.370939446577e-02 4.010681501058e-02 3.511249437410e-02 2.437040235908e-02 2.275303495739e-02 2.378987967764e-02 3.460246862518e-02 3.971118434886e-02 4.375209085474e-02 4.620302791519e-02 4.542856700051e-02 2.511405783967e-02 2.054609617592e-02 2.126924679657e-02 2.495326813912e-02 8.208156386696e-01 8.080816488325e-01 7.853795963460e-01 3.765235670060e-01 1.926825371475e-01 1.578995803735e-02 4.885524978391e-02 8.892045554190e-01 9.833607881819e-01 8.920789120572e-01 9.138731491724e-01 7.496234401419e-01 3.958323812596e-01 5.276855465217e-01 9.908098856914e-01 2.610107554223e-01 7.308535204341e-01 6.227751374477e-01 6.909960705085e-01 9.144386255485e-01 8.105907974402e-01 8.950380281642e-01 9.369837410703e-01 8.881703125115e-01 9.038574076274e-01 7.204668569558e-02 6.613744719055e-01 5.861639890682e-02 1.289491868272e-02 8.956133378283e-01 1.123716296789e-03 7.858599754796e-01 8.011031620409e-01 4.318559418185e-01 5.522740421606e-01 7.112519281747e-01 8.241697520312e-01 7.118301273918e-01 7.137342825956e-01 6.741820840484e-03 2.934608375928e-02 6.408972495505e-01 2.818619283890e-01 2.460624610619e-01 3.891024683856e-01 2.219904354344e-01 2.948473886083e-01 3.620684047740e-01 4.049128887820e-01 3.916173564955e-01 5.649089961200e-01 6.606098087244e-01 9.074119490332e-01 1.703455241890e-01 4.098947291462e-01 2.788740718384e-01 4.670916443445e-03 4.704914614684e-01 5.288687960526e-01 5.159988195900e-01 7.571581300961e-04 5.591383662679e-01 5.947633865628e-03 2.113679703823e-02 3.941874350489e-01 3.400051658251e-02 5.796654281930e-02 4.961851739531e-01 6.590350049987e-02 1.263529310349e-01 1.557048705897e-01 3.293234571462e-01 1.755768491373e-01 1.470725140428e-01 3.641457809061e-01 3.368061201275e-01 1.939716510177e-01 2.463465288299e-01 2.097161984098e-01 1.910315702250e-01 4.300791282753e-01 5.999996858274e-02 1.593008927619e-02 4.876680613925e-02 3.999835892626e-01 3.445648557593e-01 1.057302938641e-01 1.530364862704e-01 4.233547936237e-02 2.596852880861e-01 1.568035977830e-01 1.886022679807e-01 3.031856252710e-01 1.092011492662e-01 1.502462632400e-01 1.224180428119e-01 2.956958682635e-02 4.857162136663e-03 6.245693064869e-02 1.402231512936e-02 8.519574374758e-04 4.533223875202e-03 1.669547771846e-03 1.359475458008e-02 4.953946652534e-02 4.124108441761e-03 1.265012424346e-02 8.973888984328e-03 2.408079024792e-01 3.330858687268e-02 2.925100767420e-02 1.571812071949e-01 5.776670571897e-02 7.910901060247e-02 1.813627502079e-01 7.707897792252e-02 9.284735070308e-02 2.324277561198e-01 7.436072304826e-02 8.247051232366e-02 2.101867314980e-01 1.028085333087e-01 4.844850252196e-02 1.578496571856e-01 1.158884766173e-01 5.707792618211e-02 1.549652657736e-01 5.948978969724e-02 6.840504153964e-02 8.313658883191e-02 1.373039980287e-01 9.728067686807e-02 6.715207882112e-02 5.946360396611e-02 8.865602375985e-02 5.218651215607e-02 3.508116408235e-02 3.885297439262e-02 9.086898430282e-03 4.697782225374e-02 4.755238865687e-02 6.330173424947e-02 4.021277191519e-02 1.023609885641e-01 6.735344476493e-02 3.327102455830e-02 1.004018333830e-01 2.903264666801e-02 3.013728273181e-02 4.135823832283e-02 4.116951394950e-02 8.505329054241e-02 6.366202479323e-02 4.290367355495e-02 4.585558047797e-02 4.481702911522e-02 3.521507833160e-02 4.233610504691e-02 2.630277614828e-02 3.617093389285e-02 2.128486381805e-02 7.211821433514e-01 8.660257146412e-02 4.306778755612e-01 4.019365717792e-02 1.180996880725e-01 8.150609080381e-01 3.699967813104e-01 3.475047928230e-01 1.010739243247e-01 4.734090747543e-01 4.508096876380e-01 4.799936240991e-01 4.219107809667e-01 2.980579743806e-02 1.414587967242e-01 4.462792622043e-01 2.320763589130e-01 4.864156337677e-01 6.884146682514e-02 2.031569894786e-01 8.260271304366e-03 2.277136258705e-02 6.815717956180e-02 1.007601942281e-01 1.917976331883e-01 8.475496618921e-02 6.860804601428e-02 9.333678525042e-02 6.793350960677e-02 6.850240647006e-02 4.666205761481e-02 4.597840848030e-02 4.317996061609e-02 3.053527743323e-01 1.264151172751e-01 2.548643470443e-02 5.448091790863e-01 8.635557079569e-01 8.805912425886e-01 7.893626959259e-01 7.536180824398e-01 1.972939755506e-01 7.895272672064e-01 9.030566028895e-01 3.296178199357e-01 8.191678388477e-01 3.831850120723e-01 5.536435734657e-01 3.176027139624e-01 5.354461949053e-01 9.714237670863e-02 4.670787923167e-01 2.073491951095e-01 3.663960696652e-01 1.709611390607e-01 1.844433605867e-01 2.176060618662e-01 1.865047819825e-01 2.358944113244e-01 1.608370514992e-02 1.026125572852e-01 1.411683347038e-02 1.191178198840e-01 1.526548338093e-01 2.268123905472e-02 7.628167282817e-02 1.966529826658e-01 1.574204271165e-01 9.929494664629e-02 9.875904156399e-02 8.438660867252e-02 3.273044465596e-02 7.543400924974e-02 4.905633366192e-02 1.035766570849e-01 4.096833028843e-02 3.638604551143e-02 5.817518178318e-02 2.094192062262e-02 4.464139671677e-02 8.414268679564e-02 6.851099596506e-01 2.639117129063e-01 3.309241591489e-02 
        </DataArray>
      </PointData>
      <CellData>
        <DataArray type="Int32" Name="MatGroup" format="ascii">
          0 0 0 0 0 0 0 0 0 0 0 0 0 0 0 0 0 0 0 0 0 0 0 0 0 0 0 0 0 0 0 0 0 0 0 0 0 0 0 0 0 0 0 1 1 1 1 1 1 1 1 1 1 1 1 1 1 1 1 1 1 1 1 1 1 1 1 1 1 1 1 1 1 1 1 1 1 1 1 1 1 1 1 1 1 1 1 1 1 1 1 1 1 1 1 1 1 1 1 1 1 1 1 1 1 1 1 1 1 1 1 1 1 1 1 1 1 1 1 1 1 1 1 1 1 1 1 1 1 1 1 1 1 1 1 1 1 1 1 1 1 1 1 1 1 1 1 1 1 1 1 1 1 1 2 2 2 2 2 2 2 2 2 2 2 2 2 2 2 2 2 2 2 2 2 2 2 2 2 2 2 2 2 2 2 2 2 2 2 2 2 2 2 2 2 2 2 2 2 2 2 2 2 2 2 2 2 2 2 2 2 2 2 2 2 2 2 2 2 2 2 2 2 2 2 2 2 2 2 2 2 2 2 2 2 2 2 2 2 2 2 2 2 2 2 2 2 2 2 2 2 2 2 2 2 2 2 2 2 2 2 2 2 2 2 2 2 2 2 2 2 2 2 2 2 2 2 2 2 2 2 2 2 2 2 2 2 2 2 2 2 2 2 2 2 2 2 2 2 2 2 2 2 2 2 2 2 2 2 2 2 2 2 2 2 2 2 2 2 2 2 2 2 2 2 2 2 2 2 2 2 2 2 2 2 2 2 2 2 2 2 2 2 2 2 2 2 2 2 2 2 2 2 2 2 2 2 2 2 2 2 2 2 2 3 3 3 3 3 3 3 3 3 3 3 3 3 3 3 3 3 3 3 3 3 3 3 3 3 3 3 3 3 3 3 3 3 3 3 3 3 3 3 3 3 3 3 3 3 3 3 3 3 3 3 3 3 3 3 3 3 3 3 3 3 3 3 3 3 3 3 3 3 3 3 3 3 3 3 3 3 3 3 3 3 3 3 3 3 3 3 3 3 3 3 3 3 3 3 3 3 3 3 3 3 3 3 3 3 3 3 3 3 3 3 3 3 3 3 3 3 3 3 3 3 3 3 3 3 3 3 3 3 3 3 3 3 3 3 3 3 3 3 3 3 3 3 3 3 3 3 3 3 3 3 3 3 3 3 3 3 3 3 3 3 3 3 3 3 3 3 3 3 3 3 3 3 3 3 3 3 3 3 3 3 3 3 3 3 3 3 4 4 4 4 4 4 4 4 4 4 4 4 4 4 4 4 4 4 4 4 4 4 4 4 4 4 4 4 4 4 4 4 4 4 4 4 4 4 4 4 4 4 4 4 4 4 4 4 4 4 4 4 4 4 4 4 4 4 4 4 4 4 4 4 4 4 4 4 4 4 4 4 4 4 4 4 4 4 4 4 4 4 4 4 4 4 4 4 4 4 4 4 4 4 4 4 4 4 4 4 4 4 4 4 4 4 4 4 4 4 4 5 5 5 5 5 5 5 5 5 5 5 5 5 5 5 5 5 5 5 5 5 5 5 5 5 5 5 5 5 5 5 5 5 5 5 5 5 5 5 5 5 5 5 5 5 5 5 5 5 5 5 5 5 5 5 5 5 5 5 5 5 5 5 5 6 6 6 6 6 6 6 6 6 6 
        </DataArray>
      </CellData>
    </Piece>
  </UnstructuredGrid>
</VTKFile>
