 TITLE = "Time curves in points"
 VARIABLES = "TIME "  "PRESSURE1"  "DISPLACEMENT_X1"  "DISPLACEMENT_Y1"  "STRESS_XX"  "STRESS_XY"  "STRESS_YY"  "STRESS_ZZ"  "STRAIN_XX"  "STRAIN_XY"  "STRAIN_YY"  "STRAIN_ZZ"  "STRAIN_PLS"  p_(1st_Invariant)  q_(2nd_Invariant)   Effective_Strain
 ZONE T="POINT=POINT2"
0.000000000000e+00 0.000000000000e+00 0.000000000000e+00 0.000000000000e+00 -5.000000000000e+01 0.000000000000e+00 -5.000000000000e+01 -5.000000000000e+01 0.000000000000e+00 0.000000000000e+00 0.000000000000e+00 0.000000000000e+00 0.000000000000e+00 5.000000000000e+01 1.507288760336e-14  0.000000000000e+00
2.000000000000e+06 1.977090112528e-01 7.442973659276e-04 -1.090909090918e-02 -4.829652982485e+01 -2.677205131284e-05 -4.829601761716e+01 -7.501457047617e+01 1.488362454080e-03 -2.472445897077e-08 1.488598962004e-03 -1.084840988154e-02 7.705719153075e-03 5.720237263939e+01 2.671829675889e+01  1.233689059136e-02
4.000000000000e+06 2.129225378606e-01 1.346584379732e-03 -2.181818181819e-02 -5.019255911553e+01 1.416526060224e-05 -5.019071339092e+01 -8.313873105303e+01 2.692116954496e-03 -2.613545377657e-09 2.693183040697e-03 -2.176861109483e-02 1.887888416925e-02 6.117400118649e+01 3.294709483859e+01  2.446126110985e-02
6.000000000000e+06 1.759076795126e-01 2.323179590838e-03 -3.272727272726e-02 -5.031576081882e+01 5.993751268215e-05 -5.031132315671e+01 -8.984134814620e+01 4.643609540771e-03 4.681503637672e-08 4.646390619756e-03 -3.271483491643e-02 3.082968895721e-02 6.348947737391e+01 3.952780634540e+01  3.735983507442e-02
8.000000000000e+06 1.510908605480e-01 3.546648710716e-03 -4.363636363675e-02 -5.026963987923e+01 7.379845753947e-05 -5.026262940209e+01 -9.557578355747e+01 7.088261911666e-03 9.165331249781e-08 7.093348175840e-03 -4.365173795570e-02 4.340436227983e-02 6.536935094627e+01 4.530964932375e+01  5.074254319089e-02
1.000000000000e+07 1.344200493170e-01 4.936098454281e-03 -5.454545454545e-02 -5.057494585435e+01 7.435676205357e-05 -5.056565126590e+01 -1.008636930312e+02 9.864462378046e-03 1.303334487123e-07 9.872268446227e-03 -5.458376345531e-02 5.643336604343e-02 6.733476338382e+01 5.029339511538e+01  6.445212922237e-02
1.200000000000e+07 1.175293381438e-01 6.494205692306e-03 -6.545454545455e-02 -5.055455768218e+01 6.936379697692e-05 -5.054287125541e+01 -1.054508601673e+02 1.297752200776e-02 1.629403417088e-07 1.298850570064e-02 -6.551379329863e-02 6.986373915654e-02 6.884942970164e+01 5.490214663149e+01  7.849680772968e-02
1.400000000000e+07 1.037612993482e-01 8.189525165867e-03 -7.636363636170e-02 -5.048671836593e+01 6.184449698955e-05 -5.047305112538e+01 -1.095354536357e+02 1.636473764508e-02 1.898175043339e-07 1.637916813857e-02 -7.644115219322e-02 8.363604530785e-02 7.016507437565e+01 5.905557007623e+01  9.281310592699e-02
1.600000000000e+07 9.557834852611e-02 9.966130800536e-03 -8.727272727276e-02 -5.093108122925e+01 5.043335918803e-05 -5.091604269074e+01 -1.136339884243e+02 1.991443721592e-02 2.093985715923e-07 1.993240311135e-02 -8.736579960012e-02 9.764048617962e-02 7.182703744811e+01 6.271042781680e+01  1.072892208925e-01
1.800000000000e+07 8.479067266117e-02 1.185056171077e-02 -9.818181818155e-02 -5.099622181516e+01 4.112637532413e-05 -5.097974281249e+01 -1.171615077013e+02 2.367959198736e-02 2.247598750125e-07 2.370128963014e-02 -9.829017417454e-02 1.118936211165e-01 7.304582410965e+01 6.617352692641e+01  1.219806164312e-01
2.000000000000e+07 7.541008695393e-02 1.382844710502e-02 -1.090909090829e-01 -5.093549887328e+01 3.150840262692e-05 -5.091794620315e+01 -1.202767084205e+02 2.763158857561e-02 2.355158775043e-07 2.765708527691e-02 -1.092130363773e-01 1.263737562588e-01 7.404338449898e+01 6.934998754829e+01  1.368573750855e-01
2.200000000000e+07 6.724098009818e-02 1.588774975850e-02 -1.199999999711e-01 -5.084178521349e+01 1.138253859232e-05 -5.082334023228e+01 -1.230659902616e+02 3.174635936406e-02 2.351695700785e-07 3.177571547581e-02 -1.201347698114e-01 1.410559308276e-01 7.491037190246e+01 7.223342930497e+01  1.518958093594e-01
2.400000000000e+07 6.519598496137e-02 1.796702484497e-02 -1.309090909091e-01 -5.154236920748e+01 1.121974555690e-05 -5.152348483098e+01 -1.263304257593e+02 3.590115286804e-02 2.395579774868e-07 3.593428991173e-02 -1.310544013210e-01 1.558182687873e-01 7.646542659926e+01 7.479750052802e+01  1.669721251775e-01
2.600000000000e+07 5.328126780601e-02 2.016582128707e-02 -1.418181818180e-01 -5.093834847975e+01 -2.486150457664e-06 -5.091845673209e+01 -1.282482491585e+02 4.029478868382e-02 2.352947901464e-07 4.033190946085e-02 -1.419759639234e-01 1.708320814083e-01 7.670168479011e+01 7.731984847162e+01  1.822893158309e-01
2.800000000000e+07 5.230884815368e-02 2.237358815413e-02 -1.527272727170e-01 -5.139416474573e+01 -1.590333755824e-05 -5.137390691032e+01 -1.308731444167e+02 4.470646505494e-02 2.260387845605e-07 4.474747075466e-02 -1.528942108144e-01 1.859032855949e-01 7.788040535760e+01 7.948911052474e+01  1.976211819103e-01
3.000000000000e+07 4.758584470412e-02 2.462857869839e-02 -1.636363636347e-01 -5.161757339889e+01 -8.289963009512e-06 -5.159751659237e+01 -1.331614232046e+02 4.921276038616e-02 2.247572060627e-07 4.925747600827e-02 -1.638128509116e-01 2.010852134717e-01 7.879217106529e+01 8.155388005872e+01  2.130479726286e-01
3.200000000000e+07 4.292254688648e-02 2.692998846540e-02 -1.745454545452e-01 -5.168809401087e+01 -6.741722582035e-07 -5.166863374560e+01 -1.351563910390e+02 5.381210681457e-02 2.262984481827e-07 5.386031754625e-02 -1.747310484333e-01 2.163785294027e-01 7.950437293182e+01 8.347802886196e+01  2.285672644274e-01
3.400000000000e+07 3.848114072071e-02 2.927569861007e-02 -1.854545454633e-01 -5.166192172889e+01 -1.026728798876e-05 -5.164219909568e+01 -1.368965820489e+02 5.849995514234e-02 2.203510558356e-07 5.855175982652e-02 -1.856487476565e-01 2.317799186239e-01 8.006690095782e+01 8.524452334776e+01  2.441746092628e-01
3.600000000000e+07 3.434860055856e-02 3.166241289304e-02 -1.963636364466e-01 -5.157809484333e+01 -1.758240647865e-05 -5.155915049744e+01 -1.384176373503e+02 6.327011294647e-02 2.123774302861e-07 6.332520899425e-02 -1.965656768699e-01 2.472826118163e-01 8.051829423037e+01 8.684901622957e+01  2.598633422210e-01
3.800000000000e+07 3.056732899292e-02 3.408698373370e-02 -2.072727272727e-01 -5.146328211206e+01 -1.927049373053e-05 -5.144372546080e+01 -1.397489936412e+02 6.811575145532e-02 2.051789259478e-07 6.817437286905e-02 -2.074825771276e-01 2.628799067108e-01 8.088533373802e+01 8.829549147915e+01  2.756276439654e-01
4.000000000000e+07 2.714283418054e-02 3.654547788760e-02 -2.181818181817e-01 -5.133475609623e+01 -4.382317786472e-05 -5.131500820602e+01 -1.409172385938e+02 7.302928402906e-02 1.841866242236e-07 7.309138402493e-02 -2.183983082929e-01 2.785616737372e-01 8.118900096534e+01 8.959235807499e+01  2.914586472818e-01
4.200000000000e+07 2.407103760438e-02 3.903486353005e-02 -2.290909090909e-01 -5.120394647600e+01 -4.154516232634e-05 -5.118373900775e+01 -1.419447867721e+02 7.800451700730e-02 1.702787099514e-07 7.807017914229e-02 -2.293147618229e-01 2.943221720738e-01 8.144415741863e+01 9.075094571762e+01  3.073521151583e-01
4.400000000000e+07 2.132296723954e-02 4.155050319339e-02 -2.400000000001e-01 -5.107719972340e+01 -4.104545600911e-05 -5.106057531775e+01 -1.428520433539e+02 8.303335563134e-02 1.562399216161e-07 8.310147375522e-02 -2.402278412784e-01 3.101471101630e-01 8.166327279834e+01 9.178315696250e+01  3.232952613540e-01
4.600000000000e+07 1.888419348063e-02 4.409069494939e-02 -2.509090909091e-01 -5.095878385049e+01 -4.072761333053e-05 -5.094337932717e+01 -1.436526912551e+02 8.811125427733e-02 1.423526697000e-07 8.818187310480e-02 -2.511416388622e-01 3.260350688812e-01 8.185161814424e+01 9.270161062619e+01  3.392882080653e-01
4.800000000000e+07 1.671841673446e-02 4.665197423492e-02 -2.618181818122e-01 -5.085019916834e+01 -4.624032651103e-05 -5.083695473043e+01 -1.443613453816e+02 9.323181319706e-02 1.253314593731e-07 9.330444307003e-02 -2.620538681239e-01 3.419757122814e-01 8.201616642679e+01 9.351776913564e+01  3.553220018248e-01
5.000000000000e+07 1.480424643504e-02 4.923311589161e-02 -2.727272727273e-01 -5.075231723465e+01 -3.863115678359e-05 -5.073812855902e+01 -1.449878751911e+02 9.839159577403e-02 1.139550458203e-07 9.846674107690e-02 -2.729683772725e-01 3.579686395906e-01 8.215944032827e+01 9.424265309539e+01  3.713975513996e-01
5.200000000000e+07 1.310605735254e-02 5.183007640239e-02 -2.836363636364e-01 -5.066449660500e+01 -5.586752397935e-05 -5.065280149165e+01 -1.455446501779e+02 1.035838354660e-01 9.115455788365e-08 1.036606727368e-01 -2.838793433283e-01 3.739994469927e-01 8.228731609153e+01 9.488600167022e+01  3.875016031432e-01
5.400000000000e+07 1.160732390256e-02 5.444194336101e-02 -2.945454545455e-01 -5.058655588755e+01 -5.775453981751e-05 -5.057616976262e+01 -1.460384526107e+02 1.088059790222e-01 7.128249183337e-08 1.088844157609e-01 -2.947901411422e-01 3.900682374270e-01 8.240039275363e+01 9.545709020946e+01  4.036353442496e-01
5.600000000000e+07 1.028273805803e-02 5.706712647027e-02 -3.054545454547e-01 -5.051763215194e+01 -6.061502857469e-05 -5.050753685841e+01 -1.464765401586e+02 1.140546942446e-01 5.029099576421e-08 1.141347919395e-01 -3.057011433281e-01 4.061711911211e-01 8.250056972300e+01 9.596395605178e+01  4.197958921512e-01
5.800000000000e+07 9.112312563940e-03 5.970437427557e-02 -3.163636363649e-01 -5.045683487135e+01 -6.474177638940e-05 -5.044579979317e+01 -1.468650851994e+02 1.193272492145e-01 2.768600208696e-08 1.194093002835e-01 -3.166131741055e-01 4.223056833051e-01 8.258923995464e+01 9.641376834082e+01  4.359814546453e-01
6.000000000000e+07 8.075109321557e-03 6.235087589880e-02 -3.272727272727e-01 -5.040315123134e+01 -6.751137573829e-05 -5.039537067350e+01 -1.472123716224e+02 1.246193281439e-01 4.526845769454e-09 1.247023083796e-01 -3.275221445451e-01 4.384618892564e-01 8.267029784240e+01 9.681311090450e+01  4.521829685172e-01
6.200000000000e+07 7.158860825566e-03 6.500602189016e-02 -3.381818181741e-01 -5.035599716894e+01 -6.120827162623e-05 -5.035152538123e+01 -1.475216309858e+02 1.299292509120e-01 -1.442287191243e-08 1.300126004980e-01 -3.384298222538e-01 4.546394511370e-01 8.274305117867e+01 9.716786978799e+01  4.684007535207e-01
6.400000000000e+07 6.351670759123e-03 6.767146594014e-02 -3.490909091003e-01 -5.031475470584e+01 -4.616464904868e-05 -5.030619222029e+01 -1.477932586402e+02 1.352582643323e-01 -2.636516302764e-08 1.353435011586e-01 -3.493442750311e-01 4.708481763964e-01 8.280473518878e+01 9.748278545921e+01  4.846451633981e-01
6.600000000000e+07 5.631726008900e-03 7.034199728637e-02 -3.600000000000e-01 -5.027809886059e+01 -6.015384026782e-05 -5.027282777538e+01 -1.480379117855e+02 1.405988270205e-01 -4.948884150370e-08 1.406845654363e-01 -3.602521477838e-01 4.870651881859e-01 8.286294614050e+01 9.776244857417e+01  5.008938495156e-01
6.800000000000e+07 4.996691743957e-03 7.301871553885e-02 -3.709090909091e-01 -5.024593288170e+01 -6.389284211551e-05 -5.024277941801e+01 -1.482553694924e+02 1.459519805484e-01 -7.149738415465e-08 1.460380015129e-01 -3.711596455162e-01 5.032978418583e-01 8.291469393070e+01 9.801101338064e+01  5.171546419125e-01
7.000000000000e+07 4.435612556078e-03 7.570240058138e-02 -3.818181818311e-01 -5.021771434662e+01 -5.663711552088e-05 -5.021233040534e+01 -1.484467531571e+02 1.513182133320e-01 -8.859699890803e-08 1.514053775183e-01 -3.820713113428e-01 5.195513362831e-01 8.295893263637e+01 9.823173089186e+01  5.334331121090e-01
7.200000000000e+07 3.935235681156e-03 7.838883285548e-02 -3.927272727305e-01 -5.019263747840e+01 -6.615645570655e-05 -5.019247057623e+01 -1.486206418390e+02 1.566916337432e-01 -1.126002745286e-07 1.567782353592e-01 -3.929763053791e-01 5.358072580864e-01 8.300191663121e+01 9.842808781185e+01  5.497112450466e-01
7.400000000000e+07 3.494236379184e-03 8.108067031472e-02 -4.036363636364e-01 -5.017071615140e+01 -6.309969804334e-05 -5.016955295353e+01 -1.487726981350e+02 1.620750036150e-01 -1.327332012650e-07 1.621619098392e-01 -4.038840039582e-01 5.520787497190e-01 8.303765574666e+01 9.860256358780e+01  5.660024656893e-01
7.600000000000e+07 3.101832934096e-03 8.377495445112e-02 -4.145454545454e-01 -5.015127840060e+01 -5.292253175795e-05 -5.015532038856e+01 -1.489112881576e+02 1.674648139932e-01 -1.478737247758e-07 1.675504656853e-01 -4.147879518848e-01 5.683543109133e-01 8.307262898224e+01 9.875798882506e+01  5.822955964487e-01
7.800000000000e+07 2.754081035075e-03 8.647187834257e-02 -4.254545454532e-01 -5.013422310128e+01 -4.192397126105e-05 -5.014323499731e+01 -1.490353029656e+02 1.728606879957e-01 -1.591894324505e-07 1.729442944805e-01 -4.256896180119e-01 5.846351669232e-01 8.310425368807e+01 9.889657422430e+01  5.985921136291e-01
8.000000000000e+07 2.446787981519e-03 8.917362069388e-02 -4.363636363636e-01 -5.011924497713e+01 -4.198483738343e-05 -5.012442648318e+01 -1.491413801606e+02 1.782645863012e-01 -1.730214973158e-07 1.783477728116e-01 -4.365958523152e-01 6.009311963447e-01 8.312835054030e+01 9.901954453213e+01  6.149020360919e-01
8.200000000000e+07 2.173812007251e-03 9.187899867456e-02 -4.472727272727e-01 -5.010583207281e+01 -4.318385274443e-05 -5.010723962977e+01 -1.492350726322e+02 1.836751465345e-01 -1.874999092060e-07 1.837585277948e-01 -4.475047191931e-01 6.172384092220e-01 8.314938144494e+01 9.912853678848e+01  6.312215604882e-01
8.400000000000e+07 1.931097159216e-03 9.458708749375e-02 -4.581818181811e-01 -5.009384982570e+01 -3.985610316731e-05 -5.009248703796e+01 -1.493183167561e+02 1.890907888956e-01 -1.998541663895e-07 1.891747071048e-01 -4.584141433189e-01 6.335528328968e-01 8.316821787325e+01 9.922514833130e+01  6.475468953974e-01
8.600000000000e+07 1.714680460310e-03 9.729475473536e-02 -4.690909090905e-01 -5.008315837476e+01 -2.951249965188e-05 -5.008924362808e+01 -1.493977884753e+02 1.945079469644e-01 -2.072102223940e-07 1.945900248180e-01 -4.693165748633e-01 6.498617413887e-01 8.319006349271e+01 9.931158761370e+01  6.638655645601e-01
8.800000000000e+07 1.523895346181e-03 1.000057071249e-01 -4.800000000000e-01 -5.007394027412e+01 -2.487863335713e-05 -5.007894031175e+01 -1.494648533055e+02 1.999305422483e-01 -2.143336979196e-07 2.000119216122e-01 -4.802228335078e-01 6.661815723897e-01 8.320591129712e+01 9.938841310690e+01  6.801940690893e-01
9.000000000000e+07 1.354804171738e-03 1.027211078343e-01 -4.909090909091e-01 -5.006570261574e+01 -2.615753205332e-05 -5.006136468738e+01 -1.495194701164e+02 2.053595880878e-01 -2.232159526268e-07 2.054427341076e-01 -4.911364988283e-01 6.825175443900e-01 8.321551247319e+01 9.945593653584e+01  6.965376636481e-01
9.200000000000e+07 1.203342407274e-03 1.054359765111e-01 -5.018181818182e-01 -5.005813383115e+01 -2.773432997581e-05 -5.005674817528e+01 -1.495735638169e+02 2.107894288218e-01 -2.326743520845e-07 2.108724689832e-01 -5.020446098832e-01 6.988486494316e-01 8.322948194110e+01 9.951612282090e+01  7.128755624132e-01
9.400000000000e+07 1.069261169342e-03 1.081519222500e-01 -5.127272727273e-01 -5.005161261390e+01 -5.316080619631e-06 -5.005238565285e+01 -1.496218180352e+02 2.162216859025e-01 -2.293576887175e-07 2.163043556121e-01 -5.129520449731e-01 7.151820958995e-01 8.324193876732e+01 9.956981890408e+01  7.292150692451e-01
9.600000000000e+07 9.504209007869e-04 1.108699942758e-01 -5.236363636364e-01 -5.004584924345e+01 -1.562286592609e-05 -5.004437588622e+01 -1.496624858494e+02 2.216573372202e-01 -2.368093434232e-07 2.217405021230e-01 -5.238619541739e-01 7.315225373008e-01 8.325090365968e+01 9.961737329271e+01  7.455608773244e-01
9.800000000000e+07 8.445469249708e-04 1.135886608015e-01 -5.345454545455e-01 -5.004068163609e+01 -1.536837307731e-05 -5.003996350041e+01 -1.497000226490e+02 2.270946364300e-01 -2.417917045244e-07 2.271778338617e-01 -5.347706449187e-01 7.478637670931e-01 8.326022259516e+01 9.965970008267e+01  7.619068834716e-01
1.000000000000e+08 7.505363117644e-04 1.163079571372e-01 -5.454545454546e-01 -5.003620972180e+01 1.933913934796e-05 -5.003691829598e+01 -1.497340348258e+02 2.325335025711e-01 -2.276188672450e-07 2.326164228678e-01 -5.456785440108e-01 7.642061317988e-01 8.326905428120e+01 9.969747081883e+01  7.782535100434e-01
