VARIABLES  = "X","Y","Z", "PRESSURE1", "DISPLACEMENT_X1", "DISPLACEMENT_Y1", "STRESS_XX", "STRESS_XY", "STRESS_YY", "STRESS_ZZ", "STRAIN_XX", "STRAIN_XY", "STRAIN_YY", "STRAIN_ZZ", "STRAIN_PLS"
ZONE T="0.000000000000e+00s", N=69, E=110, F=FEPOINT, ET=QUADRILATERAL
STRANDID=1, SOLUTIONTIME=0.000000000000e+00
0.000000000000e+00 0.000000000000e+00 0.000000000000e+00 0.000000000000e+00 0.000000000000e+00 0.000000000000e+00 -5.000000000000e+01 0.000000000000e+00 -5.000000000000e+01 -5.000000000000e+01 0.000000000000e+00 0.000000000000e+00 0.000000000000e+00 0.000000000000e+00 0.000000000000e+00 
5.000000000000e-01 0.000000000000e+00 0.000000000000e+00 0.000000000000e+00 0.000000000000e+00 0.000000000000e+00 -5.000000000000e+01 0.000000000000e+00 -5.000000000000e+01 -5.000000000000e+01 0.000000000000e+00 0.000000000000e+00 0.000000000000e+00 0.000000000000e+00 0.000000000000e+00 
5.000000000000e-01 1.000000000000e+00 0.000000000000e+00 0.000000000000e+00 0.000000000000e+00 0.000000000000e+00 -5.000000000000e+01 0.000000000000e+00 -5.000000000000e+01 -5.000000000000e+01 0.000000000000e+00 0.000000000000e+00 0.000000000000e+00 0.000000000000e+00 0.000000000000e+00 
0.000000000000e+00 1.000000000000e+00 0.000000000000e+00 0.000000000000e+00 0.000000000000e+00 0.000000000000e+00 -5.000000000000e+01 0.000000000000e+00 -5.000000000000e+01 -5.000000000000e+01 0.000000000000e+00 0.000000000000e+00 0.000000000000e+00 0.000000000000e+00 0.000000000000e+00 
1.250000000000e-01 0.000000000000e+00 0.000000000000e+00 0.000000000000e+00 0.000000000000e+00 0.000000000000e+00 -5.000000000000e+01 0.000000000000e+00 -5.000000000000e+01 -5.000000000000e+01 0.000000000000e+00 0.000000000000e+00 0.000000000000e+00 0.000000000000e+00 0.000000000000e+00 
2.500000000000e-01 0.000000000000e+00 0.000000000000e+00 0.000000000000e+00 0.000000000000e+00 0.000000000000e+00 -5.000000000000e+01 0.000000000000e+00 -5.000000000000e+01 -5.000000000000e+01 0.000000000000e+00 0.000000000000e+00 0.000000000000e+00 0.000000000000e+00 0.000000000000e+00 
3.750000000000e-01 0.000000000000e+00 0.000000000000e+00 0.000000000000e+00 0.000000000000e+00 0.000000000000e+00 -5.000000000000e+01 0.000000000000e+00 -5.000000000000e+01 -5.000000000000e+01 0.000000000000e+00 0.000000000000e+00 0.000000000000e+00 0.000000000000e+00 0.000000000000e+00 
5.000000000000e-01 1.111111111111e-01 0.000000000000e+00 0.000000000000e+00 0.000000000000e+00 0.000000000000e+00 -5.000000000000e+01 0.000000000000e+00 -5.000000000000e+01 -5.000000000000e+01 0.000000000000e+00 0.000000000000e+00 0.000000000000e+00 0.000000000000e+00 0.000000000000e+00 
5.000000000000e-01 2.222222222222e-01 0.000000000000e+00 0.000000000000e+00 0.000000000000e+00 0.000000000000e+00 -5.000000000000e+01 0.000000000000e+00 -5.000000000000e+01 -5.000000000000e+01 0.000000000000e+00 0.000000000000e+00 0.000000000000e+00 0.000000000000e+00 0.000000000000e+00 
5.000000000000e-01 3.333333333333e-01 0.000000000000e+00 0.000000000000e+00 0.000000000000e+00 0.000000000000e+00 -5.000000000000e+01 0.000000000000e+00 -5.000000000000e+01 -5.000000000000e+01 0.000000000000e+00 0.000000000000e+00 0.000000000000e+00 0.000000000000e+00 0.000000000000e+00 
5.000000000000e-01 4.444444444444e-01 0.000000000000e+00 0.000000000000e+00 0.000000000000e+00 0.000000000000e+00 -5.000000000000e+01 0.000000000000e+00 -5.000000000000e+01 -5.000000000000e+01 0.000000000000e+00 0.000000000000e+00 0.000000000000e+00 0.000000000000e+00 0.000000000000e+00 
5.000000000000e-01 5.555555555555e-01 0.000000000000e+00 0.000000000000e+00 0.000000000000e+00 0.000000000000e+00 -5.000000000000e+01 0.000000000000e+00 -5.000000000000e+01 -5.000000000000e+01 0.000000000000e+00 0.000000000000e+00 0.000000000000e+00 0.000000000000e+00 0.000000000000e+00 
5.000000000000e-01 6.666666666667e-01 0.000000000000e+00 0.000000000000e+00 0.000000000000e+00 0.000000000000e+00 -5.000000000000e+01 0.000000000000e+00 -5.000000000000e+01 -5.000000000000e+01 0.000000000000e+00 0.000000000000e+00 0.000000000000e+00 0.000000000000e+00 0.000000000000e+00 
5.000000000000e-01 7.777777777778e-01 0.000000000000e+00 0.000000000000e+00 0.000000000000e+00 0.000000000000e+00 -5.000000000000e+01 0.000000000000e+00 -5.000000000000e+01 -5.000000000000e+01 0.000000000000e+00 0.000000000000e+00 0.000000000000e+00 0.000000000000e+00 0.000000000000e+00 
5.000000000000e-01 8.888888888889e-01 0.000000000000e+00 0.000000000000e+00 0.000000000000e+00 0.000000000000e+00 -5.000000000000e+01 0.000000000000e+00 -5.000000000000e+01 -5.000000000000e+01 0.000000000000e+00 0.000000000000e+00 0.000000000000e+00 0.000000000000e+00 0.000000000000e+00 
3.750000000000e-01 1.000000000000e+00 0.000000000000e+00 0.000000000000e+00 0.000000000000e+00 0.000000000000e+00 -5.000000000000e+01 0.000000000000e+00 -5.000000000000e+01 -5.000000000000e+01 0.000000000000e+00 0.000000000000e+00 0.000000000000e+00 0.000000000000e+00 0.000000000000e+00 
2.500000000000e-01 1.000000000000e+00 0.000000000000e+00 0.000000000000e+00 0.000000000000e+00 0.000000000000e+00 -5.000000000000e+01 0.000000000000e+00 -5.000000000000e+01 -5.000000000000e+01 0.000000000000e+00 0.000000000000e+00 0.000000000000e+00 0.000000000000e+00 0.000000000000e+00 
1.250000000000e-01 1.000000000000e+00 0.000000000000e+00 0.000000000000e+00 0.000000000000e+00 0.000000000000e+00 -5.000000000000e+01 0.000000000000e+00 -5.000000000000e+01 -5.000000000000e+01 0.000000000000e+00 0.000000000000e+00 0.000000000000e+00 0.000000000000e+00 0.000000000000e+00 
0.000000000000e+00 8.888888888889e-01 0.000000000000e+00 0.000000000000e+00 0.000000000000e+00 0.000000000000e+00 -5.000000000000e+01 0.000000000000e+00 -5.000000000000e+01 -5.000000000000e+01 0.000000000000e+00 0.000000000000e+00 0.000000000000e+00 0.000000000000e+00 0.000000000000e+00 
0.000000000000e+00 7.777777777778e-01 0.000000000000e+00 0.000000000000e+00 0.000000000000e+00 0.000000000000e+00 -5.000000000000e+01 0.000000000000e+00 -5.000000000000e+01 -5.000000000000e+01 0.000000000000e+00 0.000000000000e+00 0.000000000000e+00 0.000000000000e+00 0.000000000000e+00 
0.000000000000e+00 6.666666666667e-01 0.000000000000e+00 0.000000000000e+00 0.000000000000e+00 0.000000000000e+00 -5.000000000000e+01 0.000000000000e+00 -5.000000000000e+01 -5.000000000000e+01 0.000000000000e+00 0.000000000000e+00 0.000000000000e+00 0.000000000000e+00 0.000000000000e+00 
0.000000000000e+00 5.555555555556e-01 0.000000000000e+00 0.000000000000e+00 0.000000000000e+00 0.000000000000e+00 -5.000000000000e+01 0.000000000000e+00 -5.000000000000e+01 -5.000000000000e+01 0.000000000000e+00 0.000000000000e+00 0.000000000000e+00 0.000000000000e+00 0.000000000000e+00 
0.000000000000e+00 4.444444444445e-01 0.000000000000e+00 0.000000000000e+00 0.000000000000e+00 0.000000000000e+00 -5.000000000000e+01 0.000000000000e+00 -5.000000000000e+01 -5.000000000000e+01 0.000000000000e+00 0.000000000000e+00 0.000000000000e+00 0.000000000000e+00 0.000000000000e+00 
0.000000000000e+00 3.333333333333e-01 0.000000000000e+00 0.000000000000e+00 0.000000000000e+00 0.000000000000e+00 -5.000000000000e+01 0.000000000000e+00 -5.000000000000e+01 -5.000000000000e+01 0.000000000000e+00 0.000000000000e+00 0.000000000000e+00 0.000000000000e+00 0.000000000000e+00 
0.000000000000e+00 2.222222222222e-01 0.000000000000e+00 0.000000000000e+00 0.000000000000e+00 0.000000000000e+00 -5.000000000000e+01 0.000000000000e+00 -5.000000000000e+01 -5.000000000000e+01 0.000000000000e+00 0.000000000000e+00 0.000000000000e+00 0.000000000000e+00 0.000000000000e+00 
0.000000000000e+00 1.111111111111e-01 0.000000000000e+00 0.000000000000e+00 0.000000000000e+00 0.000000000000e+00 -5.000000000000e+01 0.000000000000e+00 -5.000000000000e+01 -5.000000000000e+01 0.000000000000e+00 0.000000000000e+00 0.000000000000e+00 0.000000000000e+00 0.000000000000e+00 
2.589514675558e-01 6.131170471200e-01 0.000000000000e+00 0.000000000000e+00 0.000000000000e+00 0.000000000000e+00 -5.000000000000e+01 0.000000000000e+00 -5.000000000000e+01 -5.000000000000e+01 0.000000000000e+00 0.000000000000e+00 0.000000000000e+00 0.000000000000e+00 0.000000000000e+00 
2.516254322439e-01 2.879687005322e-01 0.000000000000e+00 0.000000000000e+00 0.000000000000e+00 0.000000000000e+00 -5.000000000000e+01 0.000000000000e+00 -5.000000000000e+01 -5.000000000000e+01 0.000000000000e+00 0.000000000000e+00 0.000000000000e+00 0.000000000000e+00 0.000000000000e+00 
3.093333177154e-01 8.001865036853e-01 0.000000000000e+00 0.000000000000e+00 0.000000000000e+00 0.000000000000e+00 -5.000000000000e+01 0.000000000000e+00 -5.000000000000e+01 -5.000000000000e+01 0.000000000000e+00 0.000000000000e+00 0.000000000000e+00 0.000000000000e+00 0.000000000000e+00 
3.261818190709e-01 4.447451429167e-01 0.000000000000e+00 0.000000000000e+00 0.000000000000e+00 0.000000000000e+00 -5.000000000000e+01 0.000000000000e+00 -5.000000000000e+01 -5.000000000000e+01 0.000000000000e+00 0.000000000000e+00 0.000000000000e+00 0.000000000000e+00 0.000000000000e+00 
1.589842504896e-01 4.638345688453e-01 0.000000000000e+00 0.000000000000e+00 0.000000000000e+00 0.000000000000e+00 -5.000000000000e+01 0.000000000000e+00 -5.000000000000e+01 -5.000000000000e+01 0.000000000000e+00 0.000000000000e+00 0.000000000000e+00 0.000000000000e+00 0.000000000000e+00 
1.588983955413e-01 7.429917284633e-01 0.000000000000e+00 0.000000000000e+00 0.000000000000e+00 0.000000000000e+00 -5.000000000000e+01 0.000000000000e+00 -5.000000000000e+01 -5.000000000000e+01 0.000000000000e+00 0.000000000000e+00 0.000000000000e+00 0.000000000000e+00 0.000000000000e+00 
3.470792484928e-01 1.535052867898e-01 0.000000000000e+00 0.000000000000e+00 0.000000000000e+00 0.000000000000e+00 -5.000000000000e+01 0.000000000000e+00 -5.000000000000e+01 -5.000000000000e+01 0.000000000000e+00 0.000000000000e+00 0.000000000000e+00 0.000000000000e+00 0.000000000000e+00 
1.565681204010e-01 1.566396714438e-01 0.000000000000e+00 0.000000000000e+00 0.000000000000e+00 0.000000000000e+00 -5.000000000000e+01 0.000000000000e+00 -5.000000000000e+01 -5.000000000000e+01 0.000000000000e+00 0.000000000000e+00 0.000000000000e+00 0.000000000000e+00 0.000000000000e+00 
1.783719353894e-01 8.923817557881e-01 0.000000000000e+00 0.000000000000e+00 0.000000000000e+00 0.000000000000e+00 -5.000000000000e+01 0.000000000000e+00 -5.000000000000e+01 -5.000000000000e+01 0.000000000000e+00 0.000000000000e+00 0.000000000000e+00 0.000000000000e+00 0.000000000000e+00 
3.625072912338e-01 6.824903560187e-01 0.000000000000e+00 0.000000000000e+00 0.000000000000e+00 0.000000000000e+00 -5.000000000000e+01 0.000000000000e+00 -5.000000000000e+01 -5.000000000000e+01 0.000000000000e+00 0.000000000000e+00 0.000000000000e+00 0.000000000000e+00 0.000000000000e+00 
1.387636923039e-01 3.407863315826e-01 0.000000000000e+00 0.000000000000e+00 0.000000000000e+00 0.000000000000e+00 -5.000000000000e+01 0.000000000000e+00 -5.000000000000e+01 -5.000000000000e+01 0.000000000000e+00 0.000000000000e+00 0.000000000000e+00 0.000000000000e+00 0.000000000000e+00 
1.015037729946e-01 6.108346079851e-01 0.000000000000e+00 0.000000000000e+00 0.000000000000e+00 0.000000000000e+00 -5.000000000000e+01 0.000000000000e+00 -5.000000000000e+01 -5.000000000000e+01 0.000000000000e+00 0.000000000000e+00 0.000000000000e+00 0.000000000000e+00 0.000000000000e+00 
3.795262269175e-01 2.719490921430e-01 0.000000000000e+00 0.000000000000e+00 0.000000000000e+00 0.000000000000e+00 -5.000000000000e+01 0.000000000000e+00 -5.000000000000e+01 -5.000000000000e+01 0.000000000000e+00 0.000000000000e+00 0.000000000000e+00 0.000000000000e+00 0.000000000000e+00 
3.680342521626e-01 5.588926803418e-01 0.000000000000e+00 0.000000000000e+00 0.000000000000e+00 0.000000000000e+00 -5.000000000000e+01 0.000000000000e+00 -5.000000000000e+01 -5.000000000000e+01 0.000000000000e+00 0.000000000000e+00 0.000000000000e+00 0.000000000000e+00 0.000000000000e+00 
3.845787850981e-01 8.860969553038e-01 0.000000000000e+00 0.000000000000e+00 0.000000000000e+00 0.000000000000e+00 -5.000000000000e+01 0.000000000000e+00 -5.000000000000e+01 -5.000000000000e+01 0.000000000000e+00 0.000000000000e+00 0.000000000000e+00 0.000000000000e+00 0.000000000000e+00 
2.520794258593e-01 1.083160548780e-01 0.000000000000e+00 0.000000000000e+00 0.000000000000e+00 0.000000000000e+00 -5.000000000000e+01 0.000000000000e+00 -5.000000000000e+01 -5.000000000000e+01 0.000000000000e+00 0.000000000000e+00 0.000000000000e+00 0.000000000000e+00 0.000000000000e+00 
2.368267847428e-01 3.918035843481e-01 0.000000000000e+00 0.000000000000e+00 0.000000000000e+00 0.000000000000e+00 -5.000000000000e+01 0.000000000000e+00 -5.000000000000e+01 -5.000000000000e+01 0.000000000000e+00 0.000000000000e+00 0.000000000000e+00 0.000000000000e+00 0.000000000000e+00 
4.068113047681e-01 3.859031984473e-01 0.000000000000e+00 0.000000000000e+00 0.000000000000e+00 0.000000000000e+00 -5.000000000000e+01 0.000000000000e+00 -5.000000000000e+01 -5.000000000000e+01 0.000000000000e+00 0.000000000000e+00 0.000000000000e+00 0.000000000000e+00 0.000000000000e+00 
9.579358895840e-02 2.440971713883e-01 0.000000000000e+00 0.000000000000e+00 0.000000000000e+00 0.000000000000e+00 -5.000000000000e+01 0.000000000000e+00 -5.000000000000e+01 -5.000000000000e+01 0.000000000000e+00 0.000000000000e+00 0.000000000000e+00 0.000000000000e+00 0.000000000000e+00 
9.407212767522e-02 8.270271821957e-01 0.000000000000e+00 0.000000000000e+00 0.000000000000e+00 0.000000000000e+00 -5.000000000000e+01 0.000000000000e+00 -5.000000000000e+01 -5.000000000000e+01 0.000000000000e+00 0.000000000000e+00 0.000000000000e+00 0.000000000000e+00 0.000000000000e+00 
2.516227021218e-01 7.152247998494e-01 0.000000000000e+00 0.000000000000e+00 0.000000000000e+00 0.000000000000e+00 -5.000000000000e+01 0.000000000000e+00 -5.000000000000e+01 -5.000000000000e+01 0.000000000000e+00 0.000000000000e+00 0.000000000000e+00 0.000000000000e+00 0.000000000000e+00 
4.124958646476e-01 7.820047072787e-01 0.000000000000e+00 0.000000000000e+00 0.000000000000e+00 0.000000000000e+00 -5.000000000000e+01 0.000000000000e+00 -5.000000000000e+01 -5.000000000000e+01 0.000000000000e+00 0.000000000000e+00 0.000000000000e+00 0.000000000000e+00 0.000000000000e+00 
2.857446172640e-01 9.008439229498e-01 0.000000000000e+00 0.000000000000e+00 0.000000000000e+00 0.000000000000e+00 -5.000000000000e+01 0.000000000000e+00 -5.000000000000e+01 -5.000000000000e+01 0.000000000000e+00 0.000000000000e+00 0.000000000000e+00 0.000000000000e+00 0.000000000000e+00 
2.523874927360e-01 5.091066351283e-01 0.000000000000e+00 0.000000000000e+00 0.000000000000e+00 0.000000000000e+00 -5.000000000000e+01 0.000000000000e+00 -5.000000000000e+01 -5.000000000000e+01 0.000000000000e+00 0.000000000000e+00 0.000000000000e+00 0.000000000000e+00 0.000000000000e+00 
4.121435150797e-01 8.492070391443e-02 0.000000000000e+00 0.000000000000e+00 0.000000000000e+00 0.000000000000e+00 -5.000000000000e+01 0.000000000000e+00 -5.000000000000e+01 -5.000000000000e+01 0.000000000000e+00 0.000000000000e+00 0.000000000000e+00 0.000000000000e+00 0.000000000000e+00 
8.819769196411e-02 8.516946377990e-02 0.000000000000e+00 0.000000000000e+00 0.000000000000e+00 0.000000000000e+00 -5.000000000000e+01 0.000000000000e+00 -5.000000000000e+01 -5.000000000000e+01 0.000000000000e+00 0.000000000000e+00 0.000000000000e+00 0.000000000000e+00 0.000000000000e+00 
3.200817255356e-01 3.543019263054e-01 0.000000000000e+00 0.000000000000e+00 0.000000000000e+00 0.000000000000e+00 -5.000000000000e+01 0.000000000000e+00 -5.000000000000e+01 -5.000000000000e+01 0.000000000000e+00 0.000000000000e+00 0.000000000000e+00 0.000000000000e+00 0.000000000000e+00 
4.169885634503e-01 4.771072683468e-01 0.000000000000e+00 0.000000000000e+00 0.000000000000e+00 0.000000000000e+00 -5.000000000000e+01 0.000000000000e+00 -5.000000000000e+01 -5.000000000000e+01 0.000000000000e+00 0.000000000000e+00 0.000000000000e+00 0.000000000000e+00 0.000000000000e+00 
7.948018467492e-02 5.037032300856e-01 0.000000000000e+00 0.000000000000e+00 0.000000000000e+00 0.000000000000e+00 -5.000000000000e+01 0.000000000000e+00 -5.000000000000e+01 -5.000000000000e+01 0.000000000000e+00 0.000000000000e+00 0.000000000000e+00 0.000000000000e+00 0.000000000000e+00 
8.096421638074e-02 9.218906870101e-01 0.000000000000e+00 0.000000000000e+00 0.000000000000e+00 0.000000000000e+00 -5.000000000000e+01 0.000000000000e+00 -5.000000000000e+01 -5.000000000000e+01 0.000000000000e+00 0.000000000000e+00 0.000000000000e+00 0.000000000000e+00 0.000000000000e+00 
7.930525409953e-02 7.184286874229e-01 0.000000000000e+00 0.000000000000e+00 0.000000000000e+00 0.000000000000e+00 -5.000000000000e+01 0.000000000000e+00 -5.000000000000e+01 -5.000000000000e+01 0.000000000000e+00 0.000000000000e+00 0.000000000000e+00 0.000000000000e+00 0.000000000000e+00 
2.661218122358e-01 1.976628741899e-01 0.000000000000e+00 0.000000000000e+00 0.000000000000e+00 0.000000000000e+00 -5.000000000000e+01 0.000000000000e+00 -5.000000000000e+01 -5.000000000000e+01 0.000000000000e+00 0.000000000000e+00 0.000000000000e+00 0.000000000000e+00 0.000000000000e+00 
7.835622335767e-02 4.154782256902e-01 0.000000000000e+00 0.000000000000e+00 0.000000000000e+00 0.000000000000e+00 -5.000000000000e+01 0.000000000000e+00 -5.000000000000e+01 -5.000000000000e+01 0.000000000000e+00 0.000000000000e+00 0.000000000000e+00 0.000000000000e+00 0.000000000000e+00 
1.740323197534e-01 7.026941424429e-02 0.000000000000e+00 0.000000000000e+00 0.000000000000e+00 0.000000000000e+00 -5.000000000000e+01 0.000000000000e+00 -5.000000000000e+01 -5.000000000000e+01 0.000000000000e+00 0.000000000000e+00 0.000000000000e+00 0.000000000000e+00 0.000000000000e+00 
4.306180309316e-01 1.685748948279e-01 0.000000000000e+00 0.000000000000e+00 0.000000000000e+00 0.000000000000e+00 -5.000000000000e+01 0.000000000000e+00 -5.000000000000e+01 -5.000000000000e+01 0.000000000000e+00 0.000000000000e+00 0.000000000000e+00 0.000000000000e+00 0.000000000000e+00 
3.268453678584e-01 6.992358094798e-02 0.000000000000e+00 0.000000000000e+00 0.000000000000e+00 0.000000000000e+00 -5.000000000000e+01 0.000000000000e+00 -5.000000000000e+01 -5.000000000000e+01 0.000000000000e+00 0.000000000000e+00 0.000000000000e+00 0.000000000000e+00 0.000000000000e+00 
6.711119462000e-02 1.659726929805e-01 0.000000000000e+00 0.000000000000e+00 0.000000000000e+00 0.000000000000e+00 -5.000000000000e+01 0.000000000000e+00 -5.000000000000e+01 -5.000000000000e+01 0.000000000000e+00 0.000000000000e+00 0.000000000000e+00 0.000000000000e+00 0.000000000000e+00 
4.291549386527e-01 6.209332067955e-01 0.000000000000e+00 0.000000000000e+00 0.000000000000e+00 0.000000000000e+00 -5.000000000000e+01 0.000000000000e+00 -5.000000000000e+01 -5.000000000000e+01 0.000000000000e+00 0.000000000000e+00 0.000000000000e+00 0.000000000000e+00 0.000000000000e+00 
2.149486320640e-01 8.055071588067e-01 0.000000000000e+00 0.000000000000e+00 0.000000000000e+00 0.000000000000e+00 -5.000000000000e+01 0.000000000000e+00 -5.000000000000e+01 -5.000000000000e+01 0.000000000000e+00 0.000000000000e+00 0.000000000000e+00 0.000000000000e+00 0.000000000000e+00 
1.780310917010e-01 6.608091874072e-01 0.000000000000e+00 0.000000000000e+00 0.000000000000e+00 0.000000000000e+00 -5.000000000000e+01 0.000000000000e+00 -5.000000000000e+01 -5.000000000000e+01 0.000000000000e+00 0.000000000000e+00 0.000000000000e+00 0.000000000000e+00 0.000000000000e+00 
1.819089548864e-01 2.385757522978e-01 0.000000000000e+00 0.000000000000e+00 0.000000000000e+00 0.000000000000e+00 -5.000000000000e+01 0.000000000000e+00 -5.000000000000e+01 -5.000000000000e+01 0.000000000000e+00 0.000000000000e+00 0.000000000000e+00 0.000000000000e+00 0.000000000000e+00 
1.755160443574e-01 5.579723222393e-01 0.000000000000e+00 0.000000000000e+00 0.000000000000e+00 0.000000000000e+00 -5.000000000000e+01 0.000000000000e+00 -5.000000000000e+01 -5.000000000000e+01 0.000000000000e+00 0.000000000000e+00 0.000000000000e+00 0.000000000000e+00 0.000000000000e+00 
4.386893289369e-01 9.456122625178e-01 0.000000000000e+00 0.000000000000e+00 0.000000000000e+00 0.000000000000e+00 -5.000000000000e+01 0.000000000000e+00 -5.000000000000e+01 -5.000000000000e+01 0.000000000000e+00 0.000000000000e+00 0.000000000000e+00 0.000000000000e+00 0.000000000000e+00 
18  35  17  18
13  48  36  13
27  40  36  27
14  48  13  14
41  48  15  41
15  48  14  15
10  39  9  10
24  45  37  24
22  38  21  22
39  58  33  39
28  58  39  28
27  50  40  27
35  49  17  35
36  64  13  36
37  43  31  37
40  50  30  40
29  47  36  29
36  47  27  36
17  49  16  17
39  61  9  39
18  56  35  18
25  45  24  25
36  48  29  36
28  43  37  28
43  50  31  43
37  67  28  37
33  61  39  33
22  55  38  22
16  49  41  16
38  57  21  38
32  65  46  32
37  59  24  37
10  44  39  10
46  65  35  46
2  51  7  2
5  52  1  5
31  59  37  31
38  66  57  38
30  50  43  30
40  54  12  40
57  66  32  57
39  53  28  39
4  56  18  4
35  65  49  35
8  51  2  8
1  52  26  1
55  68  38  55
49  65  29  49
42  58  34  42
30  54  40  30
40  64  36  40
12  64  40  12
11  44  10  11
6  60  5  6
7  62  6  7
58  67  34  58
12  54  11  12
29  48  41  29
45  67  37  45
46  57  32  46
41  49  29  41
20  46  19  20
19  56  4  19
24  59  23  24
31  68  55  31
20  57  46  20
35  56  46  35
13  64  12  13
42  60  6  42
6  62  42  6
28  53  43  28
15  69  41  15
41  69  16  41
44  54  30  44
11  54  44  11
23  55  22  23
21  57  20  21
43  53  30  43
30  53  44  30
44  53  39  44
9  61  8  9
26  63  25  26
3  69  15  3
33  58  42  33
42  62  33  42
34  60  42  34
66  68  27  66
46  56  19  46
29  65  47  29
47  65  32  47
38  68  66  38
45  63  34  45
55  59  31  55
25  63  45  25
47  66  27  47
32  66  47  32
34  67  45  34
27  68  50  27
28  67  58  28
8  61  51  8
33  62  51  33
52  60  34  52
52  63  26  52
50  68  31  50
34  63  52  34
51  61  33  51
51  62  7  51
5  60  52  5
23  59  55  23
16  69  3  16
VARIABLES  = "X","Y","Z", "PRESSURE1", "DISPLACEMENT_X1", "DISPLACEMENT_Y1", "STRESS_XX", "STRESS_XY", "STRESS_YY", "STRESS_ZZ", "STRAIN_XX", "STRAIN_XY", "STRAIN_YY", "STRAIN_ZZ", "STRAIN_PLS"
ZONE T="2.000000000000e+06s", N=69, E=110, F=FEPOINT, ET=QUADRILATERAL
STRANDID=1, SOLUTIONTIME=2.000000000000e+06
0.000000000000e+00 0.000000000000e+00 0.000000000000e+00 0.000000000000e+00 0.000000000000e+00 0.000000000000e+00 -4.845783174428e+01 -2.131351331479e-04 -4.845794940546e+01 -7.518998626080e+01 1.479961448339e-03 -1.992503047745e-07 1.479906429980e-03 -1.102171961442e-02 7.868090301457e-03 
5.000000000000e-01 0.000000000000e+00 0.000000000000e+00 0.000000000000e+00 7.398395024990e-04 0.000000000000e+00 -4.846801981429e+01 3.614383334314e-04 -4.846808303792e+01 -7.520214575581e+01 1.479627623074e-03 3.385927012038e-07 1.479597877470e-03 -1.103424734445e-02 7.879950414211e-03 
5.000000000000e-01 1.000000000000e+00 0.000000000000e+00 1.977090112528e-01 7.442973659276e-04 -1.090909090918e-02 -4.829652982485e+01 -2.677205131284e-05 -4.829601761716e+01 -7.501457047617e+01 1.488362454080e-03 -2.472445897077e-08 1.488598962004e-03 -1.084840988154e-02 7.705719153075e-03 
0.000000000000e+00 1.000000000000e+00 0.000000000000e+00 1.973703277679e-01 0.000000000000e+00 -1.090909090918e-02 -4.829678177980e+01 6.921232721305e-05 -4.829677761464e+01 -7.501634574792e+01 1.488698776173e-03 6.392994438660e-08 1.488700699898e-03 -1.085075828365e-02 7.708066572937e-03 
1.250000000000e-01 0.000000000000e+00 0.000000000000e+00 0.000000000000e+00 1.849903435555e-04 0.000000000000e+00 -4.845912349899e+01 2.633110420417e-05 -4.845907657358e+01 -7.519152826988e+01 1.479903592283e-03 2.469451235741e-08 1.479925536625e-03 -1.102334939355e-02 7.869643063754e-03 
2.500000000000e-01 0.000000000000e+00 0.000000000000e+00 0.000000000000e+00 3.699647902098e-04 0.000000000000e+00 -4.846154403897e+01 9.585578751531e-05 -4.846108389035e+01 -7.519352281378e+01 1.479605716484e-03 8.991769437518e-08 1.479820912930e-03 -1.102511754691e-02 7.871247993573e-03 
3.750000000000e-01 0.000000000000e+00 0.000000000000e+00 0.000000000000e+00 5.549107212265e-04 0.000000000000e+00 -4.846451967598e+01 2.560700304529e-06 -4.846385704487e+01 -7.519666439480e+01 1.479407379444e-03 2.705761585063e-09 1.479717310869e-03 -1.102822257215e-02 7.874155735200e-03 
5.000000000000e-01 1.111111111111e-01 0.000000000000e+00 4.167951667400e-02 7.403018724352e-04 -1.223911063436e-03 -4.843450535248e+01 3.394215568915e-04 -4.843594636851e+01 -7.516383184360e+01 1.481178424840e-03 3.168928314068e-07 1.480505827266e-03 -1.099518985930e-02 7.843073623606e-03 
5.000000000000e-01 2.222222222222e-01 0.000000000000e+00 7.830032924164e-02 7.411141621680e-04 -2.443408707084e-03 -4.840346479270e+01 1.534769037815e-04 -4.840455076579e+01 -7.512904350791e+01 1.482582434820e-03 1.429267915170e-07 1.482076919767e-03 -1.096043152915e-02 7.810421683289e-03 
5.000000000000e-01 3.333333333333e-01 0.000000000000e+00 1.100678721488e-01 7.419496349960e-04 -3.659235760609e-03 -4.837483169913e+01 9.950365727393e-05 -4.837511731576e+01 -7.509753620577e+01 1.483937369288e-03 9.239621941775e-08 1.483804750974e-03 -1.092931684215e-02 7.781277207582e-03 
5.000000000000e-01 4.444444444444e-01 0.000000000000e+00 1.369023673620e-01 7.426906439746e-04 -4.872017051349e-03 -4.835123430385e+01 3.224869940002e-05 -4.835097555828e+01 -7.507218940029e+01 1.485181280943e-03 2.988468335257e-08 1.485301285101e-03 -1.090453152480e-02 7.758118166611e-03 
5.000000000000e-01 5.555555555555e-01 0.000000000000e+00 1.588417135212e-01 7.432894488813e-04 -6.082335126556e-03 -4.833137637550e+01 1.484454764331e-05 -4.833085137489e+01 -7.505116312794e+01 1.486301795443e-03 1.373166075692e-08 1.486544865386e-03 -1.088405475348e-02 7.739002881141e-03 
5.000000000000e-01 6.666666666667e-01 0.000000000000e+00 1.758962577136e-01 7.437393410535e-04 -7.290704247188e-03 -4.831585505453e+01 9.019585950693e-07 -4.831528239313e+01 -7.503486910583e+01 1.487217563008e-03 8.332230806275e-10 1.487482376355e-03 -1.086820458799e-02 7.724209159419e-03 
5.000000000000e-01 7.777777777778e-01 0.000000000000e+00 1.877333399639e-01 7.440455346941e-04 -8.497645688849e-03 -4.830588460161e+01 7.699036821278e-06 -4.830525925975e+01 -7.502429107732e+01 1.487779728270e-03 7.115995494823e-09 1.488068674172e-03 -1.085786046308e-02 7.714540013780e-03 
5.000000000000e-01 8.888888888889e-01 0.000000000000e+00 1.953470103692e-01 7.442350161600e-04 -9.703619455163e-03 -4.829885969020e+01 1.335703179996e-05 -4.829836860654e+01 -7.501707841917e+01 1.488239584762e-03 1.233637396435e-08 1.488466379658e-03 -1.085087900535e-02 7.708031514940e-03 
3.750000000000e-01 1.000000000000e+00 0.000000000000e+00 1.977510479142e-01 5.582407188157e-04 -1.090909090918e-02 -4.829655400881e+01 2.273382371366e-05 -4.829626499734e+01 -7.501527266509e+01 1.488517911807e-03 2.099620411411e-08 1.488651369247e-03 -1.084937234258e-02 7.706687368706e-03 
2.500000000000e-01 1.000000000000e+00 0.000000000000e+00 1.975433305322e-01 3.721685417296e-04 -1.090909090918e-02 -4.829661515622e+01 4.783363640457e-06 -4.829653574283e+01 -7.501590549427e+01 1.488648261283e-03 4.418045501924e-09 1.488684933713e-03 -1.085021700542e-02 7.707533061858e-03 
1.250000000000e-01 1.000000000000e+00 0.000000000000e+00 1.974253199070e-01 1.860866175746e-04 -1.090909090918e-02 -4.829686103652e+01 -1.219524690360e-05 -4.829683552796e+01 -7.501639360733e+01 1.488684975243e-03 -1.126468753278e-08 1.488696755535e-03 -1.085079290855e-02 7.708095917596e-03 
0.000000000000e+00 8.888888888889e-01 0.000000000000e+00 1.948931202675e-01 0.000000000000e+00 -9.703343316952e-03 -4.829859584971e+01 7.493414689846e-05 -4.829858998769e+01 -7.501826705575e+01 1.488595105240e-03 6.924016291609e-08 1.488597812988e-03 -1.085263926653e-02 7.709825542071e-03 
0.000000000000e+00 7.777777777778e-01 0.000000000000e+00 1.876137933519e-01 0.000000000000e+00 -8.497111108105e-03 -4.830490093239e+01 3.472899514093e-05 -4.830489843252e+01 -7.502491493193e+01 1.488229304333e-03 3.213926942500e-08 1.488230459876e-03 -1.085912944946e-02 7.715890021981e-03 
0.000000000000e+00 6.666666666667e-01 0.000000000000e+00 1.754385320317e-01 0.000000000000e+00 -7.289893065754e-03 -4.831500403828e+01 3.328207576422e-05 -4.831499847952e+01 -7.503567576112e+01 1.487662922932e-03 3.084145333796e-08 1.487665493674e-03 -1.086968795897e-02 7.725768587186e-03 
0.000000000000e+00 5.555555555556e-01 0.000000000000e+00 1.583789857824e-01 0.000000000000e+00 -6.081183491402e-03 -4.833029011840e+01 2.938789245031e-05 -4.833028380201e+01 -7.505169289450e+01 1.486750812502e-03 2.728878014066e-08 1.486753737861e-03 -1.088526635596e-02 7.740308269491e-03 
0.000000000000e+00 4.444444444445e-01 0.000000000000e+00 1.365231357387e-01 0.000000000000e+00 -4.870542461094e-03 -4.834961738947e+01 -2.502351118152e-05 -4.834961175622e+01 -7.507140760533e+01 1.485485656017e-03 -2.316540948457e-08 1.485488268236e-03 -1.090416116888e-02 7.757870672196e-03 
0.000000000000e+00 3.333333333333e-01 0.000000000000e+00 1.098234226503e-01 0.000000000000e+00 -3.657548174692e-03 -4.837449785631e+01 2.042444782906e-05 -4.837449972426e+01 -7.509612239919e+01 1.483716967208e-03 1.896322648360e-08 1.483716098198e-03 -1.092748717461e-02 7.779455614679e-03 
0.000000000000e+00 2.222222222222e-01 0.000000000000e+00 7.802449462017e-02 0.000000000000e+00 -2.441830307325e-03 -4.840177628720e+01 1.107461736898e-04 -4.840179667756e+01 -7.512359194734e+01 1.481843515811e-03 1.031198112580e-07 1.481834026059e-03 -1.095358243536e-02 7.803641592315e-03 
0.000000000000e+00 1.111111111111e-01 0.000000000000e+00 4.143852912478e-02 0.000000000000e+00 -1.222899675184e-03 -4.842911541345e+01 5.430720593357e-05 -4.842913262334e+01 -7.515372041165e+01 1.480473881188e-03 5.075604929210e-08 1.480465853552e-03 -1.098353246609e-02 7.831738958468e-03 