 TITLE = "Profiles along polylines"
 VARIABLES = "DIST" "PRESSURE1" "PRESSURE_RATE1" "DISPLACEMENT_X1" "DISPLACEMENT_Y1" "ACCELERATION_X1" "ACCELERATION_Y1" "VELOCITY_DM_X" "VELOCITY_DM_Y" "STRESS_XX" "STRESS_XY" "STRESS_YY" "STRESS_ZZ"  p_(1st_Invariant)  q_(2nd_Invariant)   Effective_Strain
 ZONE T="TIME=0.000000000000e+00"
0.000000000000e+00 0.000000000000e+00 0.000000000000e+00 0.000000000000e+00 0.000000000000e+00 0.000000000000e+00 0.000000000000e+00 0.000000000000e+00 0.000000000000e+00 0.000000000000e+00 0.000000000000e+00 0.000000000000e+00 0.000000000000e+00 -0.000000000000e+00 0.000000000000e+00  0.000000000000e+00
4.365028099238e-01 0.000000000000e+00 0.000000000000e+00 0.000000000000e+00 0.000000000000e+00 0.000000000000e+00 0.000000000000e+00 0.000000000000e+00 0.000000000000e+00 0.000000000000e+00 0.000000000000e+00 0.000000000000e+00 0.000000000000e+00 -0.000000000000e+00 0.000000000000e+00  0.000000000000e+00
1.000000000000e+00 0.000000000000e+00 0.000000000000e+00 0.000000000000e+00 0.000000000000e+00 0.000000000000e+00 0.000000000000e+00 0.000000000000e+00 0.000000000000e+00 0.000000000000e+00 0.000000000000e+00 0.000000000000e+00 0.000000000000e+00 -0.000000000000e+00 0.000000000000e+00  0.000000000000e+00
1.571428571429e+00 0.000000000000e+00 0.000000000000e+00 0.000000000000e+00 0.000000000000e+00 0.000000000000e+00 0.000000000000e+00 0.000000000000e+00 0.000000000000e+00 0.000000000000e+00 0.000000000000e+00 0.000000000000e+00 0.000000000000e+00 -0.000000000000e+00 0.000000000000e+00  0.000000000000e+00
2.142857142857e+00 0.000000000000e+00 0.000000000000e+00 0.000000000000e+00 0.000000000000e+00 0.000000000000e+00 0.000000000000e+00 0.000000000000e+00 0.000000000000e+00 0.000000000000e+00 0.000000000000e+00 0.000000000000e+00 0.000000000000e+00 -0.000000000000e+00 0.000000000000e+00  0.000000000000e+00
2.714285714286e+00 0.000000000000e+00 0.000000000000e+00 0.000000000000e+00 0.000000000000e+00 0.000000000000e+00 0.000000000000e+00 0.000000000000e+00 0.000000000000e+00 0.000000000000e+00 0.000000000000e+00 0.000000000000e+00 0.000000000000e+00 -0.000000000000e+00 0.000000000000e+00  0.000000000000e+00
3.285714285714e+00 0.000000000000e+00 0.000000000000e+00 0.000000000000e+00 0.000000000000e+00 0.000000000000e+00 0.000000000000e+00 0.000000000000e+00 0.000000000000e+00 0.000000000000e+00 0.000000000000e+00 0.000000000000e+00 0.000000000000e+00 -0.000000000000e+00 0.000000000000e+00  0.000000000000e+00
3.857142857143e+00 0.000000000000e+00 0.000000000000e+00 0.000000000000e+00 0.000000000000e+00 0.000000000000e+00 0.000000000000e+00 0.000000000000e+00 0.000000000000e+00 0.000000000000e+00 0.000000000000e+00 0.000000000000e+00 0.000000000000e+00 -0.000000000000e+00 0.000000000000e+00  0.000000000000e+00
4.428571428571e+00 0.000000000000e+00 0.000000000000e+00 0.000000000000e+00 0.000000000000e+00 0.000000000000e+00 0.000000000000e+00 0.000000000000e+00 0.000000000000e+00 0.000000000000e+00 0.000000000000e+00 0.000000000000e+00 0.000000000000e+00 -0.000000000000e+00 0.000000000000e+00  0.000000000000e+00
5.000000000000e+00 0.000000000000e+00 0.000000000000e+00 0.000000000000e+00 0.000000000000e+00 0.000000000000e+00 0.000000000000e+00 0.000000000000e+00 0.000000000000e+00 0.000000000000e+00 0.000000000000e+00 0.000000000000e+00 0.000000000000e+00 -0.000000000000e+00 0.000000000000e+00  0.000000000000e+00
 TITLE = "Profiles along polylines"
 VARIABLES = "DIST" "PRESSURE1" "PRESSURE_RATE1" "DISPLACEMENT_X1" "DISPLACEMENT_Y1" "ACCELERATION_X1" "ACCELERATION_Y1" "VELOCITY_DM_X" "VELOCITY_DM_Y" "STRESS_XX" "STRESS_XY" "STRESS_YY" "STRESS_ZZ"  p_(1st_Invariant)  q_(2nd_Invariant)   Effective_Strain
 ZONE T="TIME=1.000000000000e+00"
0.000000000000e+00 0.000000000000e+00 0.000000000000e+00 -4.973510968412e-05 -2.427093029936e-02 -1.950396458201e-04 -9.518011882103e-02 -1.004454175973e-04 -4.901776119283e-02 -1.278908963291e+02 1.421129110478e+02 -4.181540156804e+02 -1.092089824019e+02 2.184179648038e+02 3.880883938421e+02  2.306086960418e-02
4.365028099238e-01 4.547380116224e+02 8.829864303347e+02 9.753913059735e-03 -2.166606575649e-02 3.825063944994e-02 -8.496496375096e-02 1.969907931672e-02 -4.375695633174e-02 1.218452242740e+02 3.340475939136e+02 -6.179589096309e+01 1.200986666218e+01 -2.401973332436e+01 6.003173847402e+02  4.672765549294e-02
1.000000000000e+00 3.416047759609e+02 6.633102445842e+02 1.127690417410e-02 -1.890515271706e-02 4.422315362393e-02 -7.413785379240e-02 2.277492411633e-02 -3.818099470308e-02 1.439818176581e+02 2.555902607651e+02 -1.514113438331e+02 -1.485905235003e+00 2.971810470005e+00 5.112992782051e+02  3.686438681383e-02
1.571428571429e+00 3.042452062840e+02 5.907673908427e+02 1.029168459980e-02 -1.529502679273e-02 4.035954745019e-02 -5.998049722638e-02 2.078516693685e-02 -3.088995607158e-02 1.728563323496e+02 1.827423081053e+02 -1.708329678821e+02 4.046728935059e-01 -8.093457870118e-01 4.344840311169e+02  2.798082583029e-02
2.142857142857e+00 2.731594914982e+02 5.304067796081e+02 8.841240432924e-03 -1.154853122463e-02 3.467153110951e-02 -4.528835774365e-02 1.785583852140e-02 -2.332350423798e-02 1.633669928756e+02 1.279883414291e+02 -1.636297259977e+02 -5.254662441951e-02 1.050932488390e-01 3.596361959722e+02  2.104347246361e-02
2.714285714286e+00 2.573079759871e+02 4.996271378391e+02 7.407771744850e-03 -8.025474038793e-03 2.905008527392e-02 -3.147244721095e-02 1.496079391607e-02 -1.620831031364e-02 1.470968728117e+02 8.732711935408e+01 -1.473004621333e+02 -4.071786432680e-02 8.143572865362e-02 2.964463259537e+02  1.582477329473e-02
3.285714285714e+00 2.524401327934e+02 4.901750151327e+02 6.008890807097e-03 -4.938925170121e-03 2.356427767489e-02 -1.936833400048e-02 1.213560300257e-02 -9.974692010245e-03 1.237273424455e+02 6.321129304702e+01 -1.240467793883e+02 -6.388738856677e-02 1.277747771335e-01 2.408962919547e+02  1.226324796100e-02
3.857142857143e+00 2.582168873620e+02 5.013920142952e+02 4.513683910959e-03 -2.430334422791e-03 1.770072121945e-02 -9.530723226630e-03 9.115871428015e-03 -4.908322461714e-03 9.840753518351e+01 5.037930944712e+01 -9.843273944459e+01 -5.040852214816e-03 1.008170442963e-02 1.915040333910e+02  9.758398900503e-03
4.428571428571e+00 2.739343788648e+02 5.319114152714e+02 2.657217701441e-03 -6.821840830825e-04 1.042046157428e-02 -2.675231698363e-03 5.366537710754e-03 -1.377744324657e-03 5.739948960252e+01 5.109810658136e+01 -5.788722320316e+01 -9.754672012941e-02 1.950934402588e-01 1.334216643215e+02  8.129008694902e-03
5.000000000000e+00 3.034649098224e+02 5.892522520823e+02 0.000000000000e+00 0.000000000000e+00 0.000000000000e+00 0.000000000000e+00 0.000000000000e+00 0.000000000000e+00 5.609319969890e+00 6.606005232531e+01 -5.597465466035e+00 2.370900771050e-03 -4.741801542099e-03 1.148302468088e+02  9.161778010947e-03
 TITLE = "Profiles along polylines"
 VARIABLES = "DIST" "PRESSURE1" "PRESSURE_RATE1" "DISPLACEMENT_X1" "DISPLACEMENT_Y1" "ACCELERATION_X1" "ACCELERATION_Y1" "VELOCITY_DM_X" "VELOCITY_DM_Y" "STRESS_XX" "STRESS_XY" "STRESS_YY" "STRESS_ZZ"  p_(1st_Invariant)  q_(2nd_Invariant)   Effective_Strain
 ZONE T="TIME=5.000000000000e+00"
0.000000000000e+00 0.000000000000e+00 0.000000000000e+00 -2.051553374713e-03 -2.511812401491e-02 -2.047747997610e-04 1.392965482437e-01 -9.006584179959e-04 5.328369767635e-02 -1.024264221738e+02 1.818117615352e+02 -4.690247843551e+02 -1.142902413058e+02 2.285804826116e+02 4.789075094348e+02  2.903382998602e-02
4.365028099238e-01 4.407416980412e+02 -8.383446545779e+02 8.947892523916e-03 -2.154605376072e-02 -5.626099128590e-02 1.245613958889e-01 -2.199232219935e-02 4.800748952243e-02 1.145284777850e+02 2.930565274341e+02 -7.378502744637e+01 8.148690067726e+00 -1.629738013545e+01 5.332844171656e+02  4.113064889422e-02
1.000000000000e+00 3.219544775553e+02 -6.342097926694e+02 1.118866324932e-02 -1.899922782934e-02 -6.483889695978e-02 1.086397770996e-01 -2.500028559039e-02 4.178950976478e-02 1.415893570206e+02 2.567372208271e+02 -1.464252442507e+02 -9.671774460197e-01 1.934354892039e+00 5.098611716003e+02  3.694719300467e-02
1.571428571429e+00 2.827242547438e+02 -5.668008202792e+02 1.036405692598e-02 -1.543772398077e-02 -5.913669642793e-02 8.787761672198e-02 -2.273890565132e-02 3.377576975653e-02 1.722131847361e+02 1.863977984856e+02 -1.705797692585e+02 3.266830955207e-01 -6.533661910415e-01 4.385919686295e+02  2.842703413215e-02
2.142857142857e+00 2.537179384005e+02 -5.089469444357e+02 8.944905830951e-03 -1.168861805127e-02 -5.079217907765e-02 6.634418933343e-02 -1.951328002613e-02 2.548611176620e-02 1.641419375975e+02 1.307926790692e+02 -1.643094266315e+02 -3.349780680273e-02 6.699561360547e-02 3.636349834888e+02  2.139872614152e-02
2.714285714286e+00 2.384260105250e+02 -4.796886470243e+02 7.510226878657e-03 -8.142856828167e-03 -4.255319970692e-02 4.609996361081e-02 -1.634163204878e-02 1.770106713539e-02 1.485580831268e+02 8.943439174021e+01 -1.486478795181e+02 -1.795927827547e-02 3.591855655095e-02 3.004065082139e+02  1.611114714777e-02
3.285714285714e+00 2.333952470484e+02 -4.708662209235e+02 6.097878559259e-03 -5.025135241301e-03 -3.451602763325e-02 2.836677138521e-02 -1.325271523265e-02 1.088628908237e-02 1.251401041737e+02 6.467950084273e+01 -1.253901765296e+02 -5.001447117735e-02 1.000289423547e-01 2.441810502026e+02  1.247559702725e-02
3.857142857143e+00 2.382127924030e+02 -4.818954381999e+02 4.583391530853e-03 -2.486918544415e-03 -2.592661893931e-02 1.395518156216e-02 -9.953564421244e-03 5.349748496678e-03 9.959638875402e+01 5.145442694962e+01 -9.985101969640e+01 -5.092618847697e-02 1.018523769539e-01 1.943634007386e+02  9.928154230960e-03
4.428571428571e+00 2.533154180734e+02 -5.109354885524e+02 2.699449687502e-03 -7.189660455825e-04 -1.526277652650e-02 3.912035194537e-03 -5.859086479739e-03 1.491098681265e-03 5.815660621464e+01 5.227312875763e+01 -5.809792970633e+01 1.173530166179e-02 -2.347060332358e-02 1.354022825577e+02  8.287445737533e-03
5.000000000000e+00 2.743650249937e+02 -5.690530358584e+02 0.000000000000e+00 0.000000000000e+00 0.000000000000e+00 0.000000000000e+00 0.000000000000e+00 0.000000000000e+00 4.188874313030e+00 6.704869505997e+01 -1.008645088444e+01 -1.179515314281e+00 2.359030628562e+00 1.168013336255e+02  9.303960371361e-03
 TITLE = "Profiles along polylines"
 VARIABLES = "DIST" "PRESSURE1" "PRESSURE_RATE1" "DISPLACEMENT_X1" "DISPLACEMENT_Y1" "ACCELERATION_X1" "ACCELERATION_Y1" "VELOCITY_DM_X" "VELOCITY_DM_Y" "STRESS_XX" "STRESS_XY" "STRESS_YY" "STRESS_ZZ"  p_(1st_Invariant)  q_(2nd_Invariant)   Effective_Strain
 ZONE T="TIME=1.000000000000e+01"
0.000000000000e+00 0.000000000000e+00 0.000000000000e+00 -2.974751623257e-03 -2.561194014435e-02 7.583277631328e-04 -1.757025352947e-01 5.554566826507e-04 -6.135620121658e-02 -1.055590295725e+02 1.874208196335e+02 -4.629808279054e+02 -1.137079714956e+02 2.274159429911e+02 4.798789728646e+02  2.956816940661e-02
4.365028099238e-01 4.245392485317e+02 7.832168302299e+02 8.361811150635e-03 -2.178607828553e-02 7.121162372542e-02 -1.573672191304e-01 2.494470502532e-02 -5.515171470783e-02 8.446829059507e+01 2.876475102935e+02 -1.337392217087e+02 -9.854186222729e+00 1.970837244546e+01 5.330597016960e+02  4.057235427578e-02
1.000000000000e+00 3.938873774989e+02 6.252006396765e+02 1.107310661891e-02 -1.899222425485e-02 8.188613571768e-02 -1.371543811740e-01 2.862218875516e-02 -4.793156229182e-02 1.338004134537e+02 2.514334230471e+02 -1.344856490798e+02 -1.370471252174e-01 2.740942504347e-01 4.935984192104e+02  3.605791553539e-02
1.571428571429e+00 3.363321907985e+02 5.546019127113e+02 1.035999716382e-02 -1.550871858171e-02 7.465140927303e-02 -1.109333718911e-01 2.608198438898e-02 -3.877444231224e-02 1.719545649404e+02 1.869875894940e+02 -1.709951675947e+02 1.918794691482e-01 -3.837589382964e-01 4.394360567803e+02  2.850356540846e-02
2.142857142857e+00 3.022663815294e+02 4.981533139361e+02 8.977614762793e-03 -1.176182217749e-02 6.410999308441e-02 -8.374304668619e-02 2.239891790291e-02 -2.926757431718e-02 1.641630208569e+02 1.318800631103e+02 -1.644455394567e+02 -5.650371996000e-02 1.130074399200e-01 3.649174560842e+02  2.152936261644e-02
2.714285714286e+00 2.837930832277e+02 4.693638997036e+02 7.550396958464e-03 -8.209253701869e-03 5.370771427900e-02 -5.818572700657e-02 1.876422293035e-02 -2.033476815030e-02 1.490566285437e+02 9.035638384934e+01 -1.491581178614e+02 -2.029786355096e-02 4.059572710191e-02 3.019798924830e+02  1.623183737647e-02
3.285714285714e+00 2.778087653310e+02 4.606850889406e+02 6.134963261639e-03 -5.079607051332e-03 4.356256158734e-02 -3.580115952256e-02 1.521951384412e-02 -1.251227607908e-02 1.258269576219e+02 6.543502659786e+01 -1.259101977101e+02 -1.664801762846e-02 3.329603525691e-02 2.457110605410e+02  1.257995927656e-02
3.857142857143e+00 2.832952676007e+02 4.713316166339e+02 4.612498504538e-03 -2.529413361703e-03 3.272117177776e-02 -1.761046656767e-02 1.143140197864e-02 -6.155887626839e-03 1.001651300889e+02 5.205883835258e+01 -1.003417116185e+02 -3.531630591484e-02 7.063261182969e-02 1.956594386601e+02  1.001388793965e-02
4.428571428571e+00 3.018099670391e+02 5.000050907593e+02 2.716343769048e-03 -7.534665937226e-04 1.926224826746e-02 -4.933523062118e-03 6.728969732206e-03 -1.726037856937e-03 5.856387450569e+01 5.283019686610e+01 -5.837431448168e+01 3.791200480278e-02 -7.582400960555e-02 1.364880850823e+02  8.366434335140e-03
5.000000000000e+00 3.229108418728e+02 5.547570597421e+02 0.000000000000e+00 0.000000000000e+00 0.000000000000e+00 0.000000000000e+00 0.000000000000e+00 0.000000000000e+00 3.530448901596e+00 6.749366280780e+01 -1.339598035095e+01 -1.973106289872e+00 3.946212579744e+00 1.178550853678e+02  9.371307001264e-03
 TITLE = "Profiles along polylines"
 VARIABLES = "DIST" "PRESSURE1" "PRESSURE_RATE1" "DISPLACEMENT_X1" "DISPLACEMENT_Y1" "ACCELERATION_X1" "ACCELERATION_Y1" "VELOCITY_DM_X" "VELOCITY_DM_Y" "STRESS_XX" "STRESS_XY" "STRESS_YY" "STRESS_ZZ"  p_(1st_Invariant)  q_(2nd_Invariant)   Effective_Strain
 ZONE T="TIME=2.000000000000e+01"
0.000000000000e+00 0.000000000000e+00 0.000000000000e+00 -5.541788624389e-03 -2.697375184840e-02 -1.047083687231e-03 1.928200907914e-01 -1.159134655395e-03 7.950997018008e-02 -9.581329658355e+01 2.242337713814e+02 -5.064532137762e+02 -1.204533020720e+02 2.409066041439e+02 5.567373297461e+02  3.492812075985e-02
4.365028099238e-01 3.153348821805e+02 -7.587972801876e+02 7.063117602363e-03 -2.203837185770e-02 -7.825217745389e-02 1.728141851843e-01 -3.267763379394e-02 7.161032620914e-02 6.115444633604e+01 2.546159766317e+02 -1.967358028858e+02 -2.711627130996e+01 5.423254261992e+01 4.960068845622e+02  3.643045955325e-02
1.000000000000e+00 2.828451219954e+02 -6.103427879484e+02 1.077464583527e-02 -1.906855252698e-02 -8.991100680072e-02 1.505694758200e-01 -3.727173803781e-02 6.230248948710e-02 1.304571222820e+02 2.433441769931e+02 -1.251544173239e+02 1.060540991603e+00 -2.121081983206e+00 4.760825983958e+02  3.486206274524e-02
1.571428571429e+00 2.516668613472e+02 -5.387348749711e+02 1.039151748224e-02 -1.571281449719e-02 -8.195089610826e-02 1.217807034721e-01 -3.390579559436e-02 5.036932689730e-02 1.696235695916e+02 1.912308337075e+02 -1.701189901227e+02 -9.908410621683e-02 1.981682124336e-01 4.430310062874e+02  2.899378025373e-02
2.142857142857e+00 2.289468825916e+02 -4.833714701996e+02 9.080945661159e-03 -1.196095660739e-02 -7.037571289015e-02 9.192867657072e-02 -2.910253702197e-02 3.801133359404e-02 1.648490832637e+02 1.349343239063e+02 -1.652782295205e+02 -8.582925135615e-02 1.716585027123e-01 3.692693649137e+02  2.191712790586e-02
2.714285714286e+00 2.142497675442e+02 -4.555258697565e+02 7.668759182375e-03 -8.383626139321e-03 -5.895540654569e-02 6.387151453830e-02 -2.437370652680e-02 2.640275574006e-02 1.507057247779e+02 9.290797804113e+01 -1.506591653219e+02 9.311891195469e-03 -1.862378239092e-02 3.066125814196e+02  1.657459774658e-02
3.285714285714e+00 2.092482940696e+02 -4.471617772084e+02 6.242901169706e-03 -5.217433917580e-03 -4.781842978129e-02 3.929856244028e-02 -1.976697583093e-02 1.623969680397e-02 1.275615206668e+02 6.740826692176e+01 -1.275990008559e+02 -7.496037819137e-03 1.499207563827e-02 2.499235728827e+02  1.285965239512e-02
3.857142857143e+00 2.128474139073e+02 -4.575546008481e+02 4.697621123902e-03 -2.631713067121e-03 -3.591755316557e-02 1.932992186161e-02 -1.484631370194e-02 7.982447107220e-03 1.016621190134e+02 5.361241580766e+01 -1.018751593121e+02 -4.260805973555e-02 8.521611947110e-02 1.992321390290e+02  1.024203615543e-02
4.428571428571e+00 2.247140181695e+02 -4.858486677771e+02 2.766254665587e-03 -8.276390857927e-04 -2.114372035209e-02 5.414020435263e-03 -8.739285983876e-03 2.228580533392e-03 5.937625095279e+01 5.448163123009e+01 -5.951158058333e+01 -2.706592610643e-02 5.413185221286e-02 1.396620329161e+02  8.599508517276e-03
5.000000000000e+00 2.386125381271e+02 -5.388097171834e+02 0.000000000000e+00 0.000000000000e+00 0.000000000000e+00 0.000000000000e+00 0.000000000000e+00 0.000000000000e+00 1.488458208578e+00 6.862741165072e+01 -2.096202193075e+01 -3.894712744434e+00 7.789425488869e+00 1.205873654454e+02  9.543903383749e-03
