 TITLE = "Profiles along polylines"
 VARIABLES = "DIST" "PRESSURE1" "PRESSURE_RATE1" "DISPLACEMENT_X1" "DISPLACEMENT_Y1" "ACCELERATION_X1" "ACCELERATION_Y1" "VELOCITY_DM_X" "VELOCITY_DM_Y" "STRESS_XX" "STRESS_XY" "STRESS_YY" "STRESS_ZZ"  p_(1st_Invariant)  q_(2nd_Invariant)   Effective_Strain
 ZONE T="TIME=0.000000000000e+00"
0.000000000000e+00 0.000000000000e+00 0.000000000000e+00 0.000000000000e+00 0.000000000000e+00 0.000000000000e+00 0.000000000000e+00 0.000000000000e+00 0.000000000000e+00 0.000000000000e+00 0.000000000000e+00 0.000000000000e+00 0.000000000000e+00 -0.000000000000e+00 0.000000000000e+00  0.000000000000e+00
4.365028099238e-01 0.000000000000e+00 0.000000000000e+00 0.000000000000e+00 0.000000000000e+00 0.000000000000e+00 0.000000000000e+00 0.000000000000e+00 0.000000000000e+00 0.000000000000e+00 0.000000000000e+00 0.000000000000e+00 0.000000000000e+00 -0.000000000000e+00 0.000000000000e+00  0.000000000000e+00
1.000000000000e+00 0.000000000000e+00 0.000000000000e+00 0.000000000000e+00 0.000000000000e+00 0.000000000000e+00 0.000000000000e+00 0.000000000000e+00 0.000000000000e+00 0.000000000000e+00 0.000000000000e+00 0.000000000000e+00 0.000000000000e+00 -0.000000000000e+00 0.000000000000e+00  0.000000000000e+00
1.571428571429e+00 0.000000000000e+00 0.000000000000e+00 0.000000000000e+00 0.000000000000e+00 0.000000000000e+00 0.000000000000e+00 0.000000000000e+00 0.000000000000e+00 0.000000000000e+00 0.000000000000e+00 0.000000000000e+00 0.000000000000e+00 -0.000000000000e+00 0.000000000000e+00  0.000000000000e+00
2.142857142857e+00 0.000000000000e+00 0.000000000000e+00 0.000000000000e+00 0.000000000000e+00 0.000000000000e+00 0.000000000000e+00 0.000000000000e+00 0.000000000000e+00 0.000000000000e+00 0.000000000000e+00 0.000000000000e+00 0.000000000000e+00 -0.000000000000e+00 0.000000000000e+00  0.000000000000e+00
2.714285714286e+00 0.000000000000e+00 0.000000000000e+00 0.000000000000e+00 0.000000000000e+00 0.000000000000e+00 0.000000000000e+00 0.000000000000e+00 0.000000000000e+00 0.000000000000e+00 0.000000000000e+00 0.000000000000e+00 0.000000000000e+00 -0.000000000000e+00 0.000000000000e+00  0.000000000000e+00
3.285714285714e+00 0.000000000000e+00 0.000000000000e+00 0.000000000000e+00 0.000000000000e+00 0.000000000000e+00 0.000000000000e+00 0.000000000000e+00 0.000000000000e+00 0.000000000000e+00 0.000000000000e+00 0.000000000000e+00 0.000000000000e+00 -0.000000000000e+00 0.000000000000e+00  0.000000000000e+00
3.857142857143e+00 0.000000000000e+00 0.000000000000e+00 0.000000000000e+00 0.000000000000e+00 0.000000000000e+00 0.000000000000e+00 0.000000000000e+00 0.000000000000e+00 0.000000000000e+00 0.000000000000e+00 0.000000000000e+00 0.000000000000e+00 -0.000000000000e+00 0.000000000000e+00  0.000000000000e+00
4.428571428571e+00 0.000000000000e+00 0.000000000000e+00 0.000000000000e+00 0.000000000000e+00 0.000000000000e+00 0.000000000000e+00 0.000000000000e+00 0.000000000000e+00 0.000000000000e+00 0.000000000000e+00 0.000000000000e+00 0.000000000000e+00 -0.000000000000e+00 0.000000000000e+00  0.000000000000e+00
5.000000000000e+00 0.000000000000e+00 0.000000000000e+00 0.000000000000e+00 0.000000000000e+00 0.000000000000e+00 0.000000000000e+00 0.000000000000e+00 0.000000000000e+00 0.000000000000e+00 0.000000000000e+00 0.000000000000e+00 0.000000000000e+00 -0.000000000000e+00 0.000000000000e+00  0.000000000000e+00
 TITLE = "Profiles along polylines"
 VARIABLES = "DIST" "PRESSURE1" "PRESSURE_RATE1" "DISPLACEMENT_X1" "DISPLACEMENT_Y1" "ACCELERATION_X1" "ACCELERATION_Y1" "VELOCITY_DM_X" "VELOCITY_DM_Y" "STRESS_XX" "STRESS_XY" "STRESS_YY" "STRESS_ZZ"  p_(1st_Invariant)  q_(2nd_Invariant)   Effective_Strain
 ZONE T="TIME=1.000000000000e+00"
0.000000000000e+00 0.000000000000e+00 0.000000000000e+00 -4.973510968412e-05 -2.427093029936e-02 -1.950396458201e-04 -9.518011882103e-02 -1.004454175973e-04 -4.901776119283e-02 -1.278908963291e+02 1.421129110478e+02 -4.181540156804e+02 -1.092089824019e+02 2.184179648038e+02 3.880883938421e+02  2.306086960418e-02
4.365028099238e-01 4.547380116224e+02 8.829864303347e+02 9.753913059735e-03 -2.166606575649e-02 3.825063944994e-02 -8.496496375096e-02 1.969907931672e-02 -4.375695633174e-02 1.218452242740e+02 3.340475939136e+02 -6.179589096309e+01 1.200986666218e+01 -2.401973332436e+01 6.003173847402e+02  4.672765549294e-02
1.000000000000e+00 3.416047759609e+02 6.633102445842e+02 1.127690417410e-02 -1.890515271706e-02 4.422315362393e-02 -7.413785379240e-02 2.277492411633e-02 -3.818099470308e-02 1.439818176581e+02 2.555902607651e+02 -1.514113438331e+02 -1.485905235003e+00 2.971810470005e+00 5.112992782051e+02  3.686438681383e-02
1.571428571429e+00 3.042452062840e+02 5.907673908427e+02 1.029168459980e-02 -1.529502679273e-02 4.035954745019e-02 -5.998049722638e-02 2.078516693685e-02 -3.088995607158e-02 1.728563323496e+02 1.827423081053e+02 -1.708329678821e+02 4.046728935059e-01 -8.093457870118e-01 4.344840311169e+02  2.798082583029e-02
2.142857142857e+00 2.731594914982e+02 5.304067796081e+02 8.841240432924e-03 -1.154853122463e-02 3.467153110951e-02 -4.528835774365e-02 1.785583852140e-02 -2.332350423798e-02 1.633669928756e+02 1.279883414291e+02 -1.636297259977e+02 -5.254662441951e-02 1.050932488390e-01 3.596361959722e+02  2.104347246361e-02
2.714285714286e+00 2.573079759871e+02 4.996271378391e+02 7.407771744850e-03 -8.025474038793e-03 2.905008527392e-02 -3.147244721095e-02 1.496079391607e-02 -1.620831031364e-02 1.470968728117e+02 8.732711935408e+01 -1.473004621333e+02 -4.071786432680e-02 8.143572865362e-02 2.964463259537e+02  1.582477329473e-02
3.285714285714e+00 2.524401327934e+02 4.901750151327e+02 6.008890807097e-03 -4.938925170121e-03 2.356427767489e-02 -1.936833400048e-02 1.213560300257e-02 -9.974692010245e-03 1.237273424455e+02 6.321129304702e+01 -1.240467793883e+02 -6.388738856677e-02 1.277747771335e-01 2.408962919547e+02  1.226324796100e-02
3.857142857143e+00 2.582168873620e+02 5.013920142952e+02 4.513683910959e-03 -2.430334422791e-03 1.770072121945e-02 -9.530723226630e-03 9.115871428015e-03 -4.908322461714e-03 9.840753518351e+01 5.037930944712e+01 -9.843273944459e+01 -5.040852214816e-03 1.008170442963e-02 1.915040333910e+02  9.758398900503e-03
4.428571428571e+00 2.739343788648e+02 5.319114152714e+02 2.657217701441e-03 -6.821840830825e-04 1.042046157428e-02 -2.675231698363e-03 5.366537710754e-03 -1.377744324657e-03 5.739948960252e+01 5.109810658136e+01 -5.788722320316e+01 -9.754672012941e-02 1.950934402588e-01 1.334216643215e+02  8.129008694902e-03
5.000000000000e+00 3.034649098224e+02 5.892522520823e+02 0.000000000000e+00 0.000000000000e+00 0.000000000000e+00 0.000000000000e+00 0.000000000000e+00 0.000000000000e+00 5.609319969890e+00 6.606005232531e+01 -5.597465466035e+00 2.370900771050e-03 -4.741801542099e-03 1.148302468088e+02  9.161778010947e-03
 TITLE = "Profiles along polylines"
 VARIABLES = "DIST" "PRESSURE1" "PRESSURE_RATE1" "DISPLACEMENT_X1" "DISPLACEMENT_Y1" "ACCELERATION_X1" "ACCELERATION_Y1" "VELOCITY_DM_X" "VELOCITY_DM_Y" "STRESS_XX" "STRESS_XY" "STRESS_YY" "STRESS_ZZ"  p_(1st_Invariant)  q_(2nd_Invariant)   Effective_Strain
 ZONE T="TIME=5.000000000000e+00"
0.000000000000e+00 0.000000000000e+00 0.000000000000e+00 -2.051553374387e-03 -2.511812401446e-02 -2.047747996811e-04 1.392965482438e-01 -9.006584178314e-04 5.328369767658e-02 -1.024264221959e+02 1.818117615322e+02 -4.690247843518e+02 -1.142902413095e+02 2.285804826191e+02 4.789075094188e+02  2.903382998533e-02
4.365028099238e-01 4.407416980472e+02 -8.383446545750e+02 8.947892524346e-03 -2.154605376043e-02 -5.626099128579e-02 1.245613958889e-01 -2.199232219913e-02 4.800748952257e-02 1.145284777827e+02 2.930565273977e+02 -7.378502744096e+01 8.148690068339e+00 -1.629738013668e+01 5.332844171037e+02  4.113064888921e-02
1.000000000000e+00 3.219544775612e+02 -6.342097926666e+02 1.118866325039e-02 -1.899922782895e-02 -6.483889695952e-02 1.086397770997e-01 -2.500028558985e-02 4.178950976498e-02 1.415893570298e+02 2.567372207758e+02 -1.464252442617e+02 -9.671774463794e-01 1.934354892759e+00 5.098611715314e+02  3.694719299802e-02
1.571428571429e+00 2.827242547535e+02 -5.668008202745e+02 1.036405692756e-02 -1.543772398011e-02 -5.913669642754e-02 8.787761672215e-02 -2.273890565052e-02 3.377576975686e-02 1.722131847500e+02 1.863977984327e+02 -1.705797692797e+02 3.266830940544e-01 -6.533661881088e-01 4.385919685826e+02  2.842703412599e-02
2.142857142857e+00 2.537179384172e+02 -5.089469444276e+02 8.944905832214e-03 -1.168861805012e-02 -5.079217907734e-02 6.634418933371e-02 -1.951328002549e-02 2.548611176678e-02 1.641419376190e+02 1.307926790320e+02 -1.643094266489e+02 -3.349780598670e-02 6.699561197342e-02 3.636349834751e+02  2.139872613787e-02
2.714285714286e+00 2.384260105441e+02 -4.796886470150e+02 7.510226878591e-03 -8.142856826709e-03 -4.255319970694e-02 4.609996361117e-02 -1.634163204882e-02 1.770106713612e-02 1.485580831319e+02 8.943439170969e+01 -1.486478795256e+02 -1.795927874293e-02 3.591855748586e-02 3.004065081960e+02  1.611114714480e-02
3.285714285714e+00 2.333952470711e+02 -4.708662209125e+02 6.097878557815e-03 -5.025135239926e-03 -3.451602763361e-02 2.836677138555e-02 -1.325271523338e-02 1.088628908306e-02 1.251401041561e+02 6.467950082115e+01 -1.253901765156e+02 -5.001447190896e-02 1.000289438179e-01 2.441810501611e+02  1.247559702434e-02
3.857142857143e+00 2.382127924284e+02 -4.818954381875e+02 4.583391528582e-03 -2.486918543570e-03 -2.592661893987e-02 1.395518156237e-02 -9.953564422390e-03 5.349748497105e-03 9.959638872218e+01 5.145442692789e+01 -9.985101966649e+01 -5.092618886301e-02 1.018523777260e-01 1.943634006738e+02  9.928154227309e-03
4.428571428571e+00 2.533154181053e+02 -5.109354885369e+02 2.699449685629e-03 -7.189660453033e-04 -1.526277652696e-02 3.912035194605e-03 -5.859086480685e-03 1.491098681406e-03 5.815660619360e+01 5.227312872643e+01 -5.809792968225e+01 1.173530227021e-02 -2.347060454043e-02 1.354022824926e+02  8.287445732996e-03
5.000000000000e+00 2.743650250299e+02 -5.690530358409e+02 0.000000000000e+00 0.000000000000e+00 0.000000000000e+00 0.000000000000e+00 0.000000000000e+00 0.000000000000e+00 4.188874310303e+00 6.704869500717e+01 -1.008645088186e+01 -1.179515314311e+00 2.359030628623e+00 1.168013335341e+02  9.303960364046e-03
 TITLE = "Profiles along polylines"
 VARIABLES = "DIST" "PRESSURE1" "PRESSURE_RATE1" "DISPLACEMENT_X1" "DISPLACEMENT_Y1" "ACCELERATION_X1" "ACCELERATION_Y1" "VELOCITY_DM_X" "VELOCITY_DM_Y" "STRESS_XX" "STRESS_XY" "STRESS_YY" "STRESS_ZZ"  p_(1st_Invariant)  q_(2nd_Invariant)   Effective_Strain
 ZONE T="TIME=1.000000000000e+01"
0.000000000000e+00 0.000000000000e+00 0.000000000000e+00 -2.974751624836e-03 -2.561194013479e-02 7.583277626282e-04 -1.757025352936e-01 5.554566817094e-04 -6.135620121314e-02 -1.055590296145e+02 1.874208196360e+02 -4.629808279226e+02 -1.137079715074e+02 2.274159430148e+02 4.798789728600e+02  2.956816940672e-02
4.365028099238e-01 4.245392485984e+02 7.832168302508e+02 8.361811149220e-03 -2.178607827614e-02 7.121162372486e-02 -1.573672191291e-01 2.494470502434e-02 -5.515171470431e-02 8.446829055678e+01 2.876475102881e+02 -1.337392216581e+02 -9.854186220256e+00 1.970837244051e+01 5.330597016598e+02  4.057235427447e-02
1.000000000000e+00 3.938873774508e+02 6.252006396529e+02 1.107310661762e-02 -1.899222424661e-02 8.188613571663e-02 -1.371543811730e-01 2.862218875365e-02 -4.793156228886e-02 1.338004134124e+02 2.514334230362e+02 -1.344856490338e+02 -1.370471242734e-01 2.740942485469e-01 4.935984191583e+02  3.605791553316e-02
1.571428571429e+00 3.363321907798e+02 5.546019126959e+02 1.035999716218e-02 -1.550871857459e-02 7.465140927152e-02 -1.109333718905e-01 2.608198438685e-02 -3.877444230997e-02 1.719545648874e+02 1.869875894868e+02 -1.709951675483e+02 1.918794678109e-01 -3.837589356218e-01 4.394360567129e+02  2.850356540612e-02
2.142857142857e+00 3.022663815302e+02 4.981533139223e+02 8.977614760576e-03 -1.176182217160e-02 6.410999308307e-02 -8.374304668617e-02 2.239891790084e-02 -2.926757431587e-02 1.641630207918e+02 1.318800631048e+02 -1.644455393956e+02 -5.650372076785e-02 1.130074415357e-01 3.649174559930e+02  2.152936261347e-02
2.714285714286e+00 2.837930831890e+02 4.693638996724e+02 7.550396955613e-03 -8.209253697450e-03 5.370771427860e-02 -5.818572700703e-02 1.876422292926e-02 -2.033476814988e-02 1.490566284678e+02 9.035638383564e+01 -1.491581177960e+02 -2.029786562297e-02 4.059573124595e-02 3.019798923661e+02  1.623183737189e-02
3.285714285714e+00 2.778087652666e+02 4.606850888965e+02 6.134963258567e-03 -5.079607048478e-03 4.356256158800e-02 -3.580115952319e-02 1.521951384422e-02 -1.251227607920e-02 1.258269575478e+02 6.543502658162e+01 -1.259101976461e+02 -1.664801965531e-02 3.329603931060e-02 2.457110604219e+02  1.257995927162e-02
3.857142857143e+00 2.832952675203e+02 4.713316165812e+02 4.612498501800e-03 -2.529413360276e-03 3.272117177912e-02 -1.761046656812e-02 1.143140197965e-02 -6.155887627049e-03 1.001651300312e+02 5.205883833131e+01 -1.003417115583e+02 -3.531630541795e-02 7.063261083591e-02 1.956594385524e+02  1.001388793469e-02
4.428571428571e+00 3.018099669591e+02 5.000050907013e+02 2.716343767349e-03 -7.534665933418e-04 1.926224826867e-02 -4.933523062278e-03 6.728969733263e-03 -1.726037857043e-03 5.856387447575e+01 5.283019683293e+01 -5.837431444586e+01 3.791200597703e-02 -7.582401195406e-02 1.364880850015e+02  8.366434330016e-03
5.000000000000e+00 3.229108418040e+02 5.547570596847e+02 0.000000000000e+00 0.000000000000e+00 0.000000000000e+00 0.000000000000e+00 0.000000000000e+00 0.000000000000e+00 3.530448898107e+00 6.749366276695e+01 -1.339598035151e+01 -1.973106290680e+00 3.946212581361e+00 1.178550852973e+02  9.371306995609e-03
 TITLE = "Profiles along polylines"
 VARIABLES = "DIST" "PRESSURE1" "PRESSURE_RATE1" "DISPLACEMENT_X1" "DISPLACEMENT_Y1" "ACCELERATION_X1" "ACCELERATION_Y1" "VELOCITY_DM_X" "VELOCITY_DM_Y" "STRESS_XX" "STRESS_XY" "STRESS_YY" "STRESS_ZZ"  p_(1st_Invariant)  q_(2nd_Invariant)   Effective_Strain
 ZONE T="TIME=2.000000000000e+01"
0.000000000000e+00 0.000000000000e+00 0.000000000000e+00 -5.541788636275e-03 -2.697375186236e-02 -1.047083686781e-03 1.928200907881e-01 -1.159134656468e-03 7.950997017171e-02 -9.581329691824e+01 2.242337713306e+02 -5.064532138401e+02 -1.204533021517e+02 2.409066043033e+02 5.567373295737e+02  3.492812075075e-02
4.365028099238e-01 3.153348816713e+02 -7.587972803191e+02 7.063117611420e-03 -2.203837186947e-02 -7.825217745256e-02 1.728141851809e-01 -3.267763379078e-02 7.161032620114e-02 6.115444676522e+01 2.546159770375e+02 -1.967358030986e+02 -2.711627126667e+01 5.423254253334e+01 4.960068854321e+02  3.643045961304e-02
1.000000000000e+00 2.828451217999e+02 -6.103427879548e+02 1.077464585181e-02 -1.906855253217e-02 -8.991100679843e-02 1.505694758173e-01 -3.727173803257e-02 6.230248948126e-02 1.304571225534e+02 2.433441777334e+02 -1.251544176356e+02 1.060540983550e+00 -2.121081967099e+00 4.760825997658e+02  3.486206284959e-02
1.571428571429e+00 2.516668612784e+02 -5.387348749663e+02 1.039151749637e-02 -1.571281449689e-02 -8.195089610535e-02 1.217807034704e-01 -3.390579558885e-02 5.036932689356e-02 1.696235695258e+02 1.912308344591e+02 -1.701189903903e+02 -9.908417288588e-02 1.981683457718e-01 4.430310073767e+02  2.899378035175e-02
2.142857142857e+00 2.289468823960e+02 -4.833714702247e+02 9.080945670521e-03 -1.196095660456e-02 -7.037571288759e-02 9.192867657007e-02 -2.910253701739e-02 3.801133359209e-02 1.648490831846e+02 1.349343244529e+02 -1.652782296449e+02 -8.582929205319e-02 1.716585841064e-01 3.692693655432e+02  2.191712797129e-02
2.714285714286e+00 2.142497673342e+02 -4.555258697603e+02 7.668759187878e-03 -8.383626136193e-03 -5.895540654455e-02 6.387151453852e-02 -2.437370652397e-02 2.640275573940e-02 1.507057247375e+02 9.290797840653e+01 -1.506591652236e+02 9.311902775131e-03 -1.862380555025e-02 3.066125816495e+02  1.657459778288e-02
3.285714285714e+00 2.092482936001e+02 -4.471617772455e+02 6.242901173355e-03 -5.217433915882e-03 -4.781842978170e-02 3.929856244090e-02 -1.976697582975e-02 1.623969680393e-02 1.275615212258e+02 6.740826713056e+01 -1.275990007316e+02 -7.495901160096e-03 1.499180232019e-02 2.499235733844e+02  1.285965242648e-02
3.857142857143e+00 2.128474136937e+02 -4.575546008244e+02 4.697621126828e-03 -2.631713065445e-03 -3.591755316705e-02 1.932992186212e-02 -1.484631370196e-02 7.982447107527e-03 1.016621191175e+02 5.361241602416e+01 -1.018751591786e+02 -4.260801223693e-02 8.521602447385e-02 1.992321391812e+02  1.024203617648e-02
4.428571428571e+00 2.247140179344e+02 -4.858486677526e+02 2.766254667651e-03 -8.276390854027e-04 -2.114372035352e-02 5.414020435459e-03 -8.739285984312e-03 2.228580533518e-03 5.937625096789e+01 5.448163131489e+01 -5.951158056335e+01 -2.706591909140e-02 5.413183818281e-02 1.396620330122e+02  8.599508527510e-03
5.000000000000e+00 2.386125378257e+02 -5.388097171746e+02 0.000000000000e+00 0.000000000000e+00 0.000000000000e+00 0.000000000000e+00 0.000000000000e+00 0.000000000000e+00 1.488458202591e+00 6.862741169076e+01 -2.096202191921e+01 -3.894712743324e+00 7.789425486648e+00 1.205873655112e+02  9.543903389226e-03
