 TITLE = "Profiles along polylines"
 VARIABLES = "DIST" "PRESSURE1" "PRESSURE_RATE1" "DISPLACEMENT_X1" "DISPLACEMENT_Y1" "ACCELERATION_X1" "ACCELERATION_Y1" "VELOCITY_DM_X" "VELOCITY_DM_Y" "STRESS_XX" "STRESS_XY" "STRESS_YY" "STRESS_ZZ"  p_(1st_Invariant)  q_(2nd_Invariant)   Effective_Strain
 ZONE T="TIME=0.000000000000e+00"
0.000000000000e+00 0.000000000000e+00 0.000000000000e+00 0.000000000000e+00 0.000000000000e+00 0.000000000000e+00 0.000000000000e+00 0.000000000000e+00 0.000000000000e+00 0.000000000000e+00 0.000000000000e+00 0.000000000000e+00 0.000000000000e+00 -0.000000000000e+00 0.000000000000e+00  0.000000000000e+00
4.365028099238e-01 0.000000000000e+00 0.000000000000e+00 0.000000000000e+00 0.000000000000e+00 0.000000000000e+00 0.000000000000e+00 0.000000000000e+00 0.000000000000e+00 0.000000000000e+00 0.000000000000e+00 0.000000000000e+00 0.000000000000e+00 -0.000000000000e+00 0.000000000000e+00  0.000000000000e+00
1.000000000000e+00 0.000000000000e+00 0.000000000000e+00 0.000000000000e+00 0.000000000000e+00 0.000000000000e+00 0.000000000000e+00 0.000000000000e+00 0.000000000000e+00 0.000000000000e+00 0.000000000000e+00 0.000000000000e+00 0.000000000000e+00 -0.000000000000e+00 0.000000000000e+00  0.000000000000e+00
1.666666666667e+00 0.000000000000e+00 0.000000000000e+00 0.000000000000e+00 0.000000000000e+00 0.000000000000e+00 0.000000000000e+00 0.000000000000e+00 0.000000000000e+00 0.000000000000e+00 0.000000000000e+00 0.000000000000e+00 0.000000000000e+00 -0.000000000000e+00 0.000000000000e+00  0.000000000000e+00
2.333333333333e+00 0.000000000000e+00 0.000000000000e+00 0.000000000000e+00 0.000000000000e+00 0.000000000000e+00 0.000000000000e+00 0.000000000000e+00 0.000000000000e+00 0.000000000000e+00 0.000000000000e+00 0.000000000000e+00 0.000000000000e+00 -0.000000000000e+00 0.000000000000e+00  0.000000000000e+00
3.000000000000e+00 0.000000000000e+00 0.000000000000e+00 0.000000000000e+00 0.000000000000e+00 0.000000000000e+00 0.000000000000e+00 0.000000000000e+00 0.000000000000e+00 0.000000000000e+00 0.000000000000e+00 0.000000000000e+00 0.000000000000e+00 -0.000000000000e+00 0.000000000000e+00  0.000000000000e+00
3.666666666667e+00 0.000000000000e+00 0.000000000000e+00 0.000000000000e+00 0.000000000000e+00 0.000000000000e+00 0.000000000000e+00 0.000000000000e+00 0.000000000000e+00 0.000000000000e+00 0.000000000000e+00 0.000000000000e+00 0.000000000000e+00 -0.000000000000e+00 0.000000000000e+00  0.000000000000e+00
4.333333333333e+00 0.000000000000e+00 0.000000000000e+00 0.000000000000e+00 0.000000000000e+00 0.000000000000e+00 0.000000000000e+00 0.000000000000e+00 0.000000000000e+00 0.000000000000e+00 0.000000000000e+00 0.000000000000e+00 0.000000000000e+00 -0.000000000000e+00 0.000000000000e+00  0.000000000000e+00
5.000000000000e+00 0.000000000000e+00 0.000000000000e+00 0.000000000000e+00 0.000000000000e+00 0.000000000000e+00 0.000000000000e+00 0.000000000000e+00 0.000000000000e+00 0.000000000000e+00 0.000000000000e+00 0.000000000000e+00 0.000000000000e+00 -0.000000000000e+00 0.000000000000e+00  0.000000000000e+00
 TITLE = "Profiles along polylines"
 VARIABLES = "DIST" "PRESSURE1" "PRESSURE_RATE1" "DISPLACEMENT_X1" "DISPLACEMENT_Y1" "ACCELERATION_X1" "ACCELERATION_Y1" "VELOCITY_DM_X" "VELOCITY_DM_Y" "STRESS_XX" "STRESS_XY" "STRESS_YY" "STRESS_ZZ"  p_(1st_Invariant)  q_(2nd_Invariant)   Effective_Strain
 ZONE T="TIME=1.000000000000e+00"
0.000000000000e+00 0.000000000000e+00 0.000000000000e+00 0.000000000000e+00 -4.241340074898e-02 0.000000000000e+00 -1.663270617607e-01 0.000000000000e+00 -8.565843680676e-02 -2.849583135882e+02 6.530880852425e+01 -7.934644359551e+02 -2.156845499087e+02 4.313690998173e+02 5.580315270502e+02  2.365709532194e-02
4.365028099238e-01 8.060164965597e+02 1.565080575844e+03 0.000000000000e+00 -3.692935059693e-02 0.000000000000e+00 -1.448209827331e-01 0.000000000000e+00 -7.458280610752e-02 2.790588922499e+02 -5.241443074558e+01 -1.451484622134e+02 2.678208600731e+01 -5.356417201462e+01 3.805517147922e+02  1.647033991560e-02
1.000000000000e+00 4.946047777200e+02 9.603976266408e+02 0.000000000000e+00 -2.992009030639e-02 0.000000000000e+00 -1.173336874760e-01 0.000000000000e+00 -6.042684905016e-02 3.534334124832e+02 1.192825912006e+01 -3.606666660295e+02 -1.446650709259e+00 2.893301418517e+00 6.187776260434e+02  2.479246016942e-02
1.666666666667e+00 3.629873350519e+02 7.048297767998e+02 0.000000000000e+00 -2.115630407574e-02 0.000000000000e+00 -8.296589833625e-02 0.000000000000e+00 -4.272743764317e-02 2.933307098430e+02 7.439234999676e+00 -2.942761641813e+02 -1.890908676526e-01 3.781817353052e-01 5.090456619028e+02  2.038138624759e-02
2.333333333333e+00 3.022712785161e+02 5.869345213906e+02 0.000000000000e+00 -1.403206755923e-02 0.000000000000e+00 -5.502771591855e-02 0.000000000000e+00 -2.833927369805e-02 2.344887785593e+02 4.666307652446e+00 -2.349539310628e+02 -9.303050068980e-02 1.860610013796e-01 4.066296668559e+02  1.627482255811e-02
3.000000000000e+00 2.767730112772e+02 5.374233228684e+02 0.000000000000e+00 -8.416929292392e-03 0.000000000000e+00 -3.300756585252e-02 0.000000000000e+00 -1.699889641405e-02 1.863898194627e+02 -2.332388494492e-01 -1.865474715537e+02 -3.153041820309e-02 6.306083640617e-02 3.229734241559e+02  1.291896728468e-02
3.666666666667e+00 2.753530678155e+02 5.346661510981e+02 0.000000000000e+00 -4.119598230528e-03 0.000000000000e+00 -1.615528717854e-02 0.000000000000e+00 -8.319972896950e-03 1.378066948925e+02 1.157042563269e+00 -1.379480476964e+02 -2.827056077024e-02 5.654112154047e-02 2.388190247571e+02  9.553769962762e-03
4.333333333333e+00 2.919019729599e+02 5.667999474950e+02 0.000000000000e+00 -1.173381902112e-03 0.000000000000e+00 -4.601497655343e-03 0.000000000000e+00 -2.369771292502e-03 8.216752966088e+01 -1.764832956514e-01 -8.388835726280e+01 -3.441655203841e-01 6.883310407682e-01 1.438098680128e+02  5.752433704795e-03
5.000000000000e+00 3.349868612283e+02 6.504599247152e+02 0.000000000000e+00 0.000000000000e+00 0.000000000000e+00 0.000000000000e+00 0.000000000000e+00 0.000000000000e+00 9.536586377069e+00 1.042757546886e+00 -1.010872767401e+01 -1.144282593882e-01 2.288565187764e-01 1.710980023667e+01  6.957371386987e-04
 TITLE = "Profiles along polylines"
 VARIABLES = "DIST" "PRESSURE1" "PRESSURE_RATE1" "DISPLACEMENT_X1" "DISPLACEMENT_Y1" "ACCELERATION_X1" "ACCELERATION_Y1" "VELOCITY_DM_X" "VELOCITY_DM_Y" "STRESS_XX" "STRESS_XY" "STRESS_YY" "STRESS_ZZ"  p_(1st_Invariant)  q_(2nd_Invariant)   Effective_Strain
 ZONE T="TIME=5.000000000000e+00"
0.000000000000e+00 0.000000000000e+00 0.000000000000e+00 0.000000000000e+00 -4.421096580924e-02 0.000000000000e+00 2.433427118306e-01 0.000000000000e+00 9.295304974845e-02 -2.614145069564e+02 1.809295018837e+01 -8.909334304739e+02 -2.304695874860e+02 4.609391749721e+02 6.463080844617e+02  2.594333312924e-02
4.365028099238e-01 8.119494756141e+02 -1.471030746642e+03 0.000000000000e+00 -3.691911541165e-02 0.000000000000e+00 2.122646352767e-01 0.000000000000e+00 8.172963606035e-02 2.659696991145e+02 -1.664333739549e+01 -1.584222063051e+02 2.150949856189e+01 -4.301899712377e+01 3.700720886086e+02  1.493700676222e-02
1.000000000000e+00 4.656861186348e+02 -9.184903178487e+02 0.000000000000e+00 -3.031815478051e-02 0.000000000000e+00 1.718768104492e-01 0.000000000000e+00 6.601202677161e-02 3.518670633724e+02 1.143858121412e+01 -3.579366014561e+02 -1.213907616743e+00 2.427815233486e+00 6.150298943222e+02  2.463945912301e-02
1.666666666667e+00 3.420183762409e+02 -6.739508377683e+02 0.000000000000e+00 -2.151959370909e-02 0.000000000000e+00 1.215129368670e-01 0.000000000000e+00 4.663536953056e-02 2.976023608950e+02 7.771416525353e+00 -2.984949847870e+02 -1.785247784111e-01 3.570495568222e-01 5.164109706438e+02  2.067747933708e-02
2.333333333333e+00 2.813460161245e+02 -5.629020552861e+02 0.000000000000e+00 -1.429360427549e-02 0.000000000000e+00 8.058926580310e-02 0.000000000000e+00 3.092084497436e-02 2.380740699688e+02 4.778537562802e+00 -2.388222898023e+02 -1.496439667023e-01 2.992879334045e-01 4.130873480524e+02  1.653344087174e-02
3.000000000000e+00 2.573262481647e+02 -5.155572861540e+02 0.000000000000e+00 -8.588274562410e-03 0.000000000000e+00 4.833673983530e-02 0.000000000000e+00 1.854010989279e-02 1.897136354835e+02 -2.309734739689e-01 -1.893376912274e+02 7.518885121789e-02 -1.503777024358e-01 3.282683414180e+02  1.313076290950e-02
3.666666666667e+00 2.546913221417e+02 -5.135505236914e+02 0.000000000000e+00 -4.219907744095e-03 0.000000000000e+00 2.365399701326e-02 0.000000000000e+00 9.066003824003e-03 1.401531159830e+02 1.187810295475e+00 -1.404049798760e+02 -5.037277860710e-02 1.007455572142e-01 2.429791601210e+02  9.720211544430e-03
4.333333333333e+00 2.714251780184e+02 -5.437226665446e+02 0.000000000000e+00 -1.228951555447e-03 0.000000000000e+00 6.730731942553e-03 0.000000000000e+00 2.568631057792e-03 8.427245622489e+01 1.591042282821e-01 -8.414231245802e+01 2.602875337367e-02 -5.205750674735e-02 1.458517336192e+02  5.834100585642e-03
5.000000000000e+00 3.024447503364e+02 -6.283661965240e+02 0.000000000000e+00 0.000000000000e+00 0.000000000000e+00 0.000000000000e+00 0.000000000000e+00 0.000000000000e+00 7.967507943785e+00 6.948450803355e-01 -1.579559645018e+01 -1.565617701279e+00 3.131235402558e+00 2.074794891442e+01  8.340960820688e-04
 TITLE = "Profiles along polylines"
 VARIABLES = "DIST" "PRESSURE1" "PRESSURE_RATE1" "DISPLACEMENT_X1" "DISPLACEMENT_Y1" "ACCELERATION_X1" "ACCELERATION_Y1" "VELOCITY_DM_X" "VELOCITY_DM_Y" "STRESS_XX" "STRESS_XY" "STRESS_YY" "STRESS_ZZ"  p_(1st_Invariant)  q_(2nd_Invariant)   Effective_Strain
 ZONE T="TIME=1.000000000000e+01"
0.000000000000e+00 0.000000000000e+00 0.000000000000e+00 0.000000000000e+00 -4.529036033141e-02 0.000000000000e+00 -3.068735299179e-01 0.000000000000e+00 -1.071402136010e-01 -2.876975969395e+02 2.584908467913e+01 -8.872930537018e+02 -2.349981301283e+02 4.699962602565e+02 6.292017418780e+02  2.535849864928e-02
4.365028099238e-01 7.579399531922e+02 1.364365063373e+03 0.000000000000e+00 -3.741515062099e-02 0.000000000000e+00 -2.681200167186e-01 0.000000000000e+00 -9.393766644397e-02 2.038527689711e+02 -1.603957532506e+01 -2.902084111085e+02 -1.727112842748e+01 3.454225685495e+01 4.295524390568e+02  1.728956724452e-02
1.000000000000e+00 5.918149769106e+02 9.139681083724e+02 0.000000000000e+00 -3.037822950225e-02 0.000000000000e+00 -2.169201055029e-01 0.000000000000e+00 -7.575597955911e-02 3.471143356319e+02 6.024482435846e+00 -3.364236328419e+02 2.138140558005e+00 -4.276281116010e+00 5.920618929860e+02  2.369350745242e-02
1.666666666667e+00 4.051214573596e+02 6.591976165852e+02 0.000000000000e+00 -2.170029698698e-02 0.000000000000e+00 -1.533528296849e-01 0.000000000000e+00 -5.357929500552e-02 2.985108667453e+02 8.291508366776e+00 -3.030805222913e+02 -9.139311091966e-01 1.827862218393e+00 5.211931275572e+02  2.087145488793e-02
2.333333333333e+00 3.363958747355e+02 5.514902301669e+02 0.000000000000e+00 -1.442370557380e-02 0.000000000000e+00 -1.017009536022e-01 0.000000000000e+00 -3.553014097882e-02 2.395271155776e+02 4.721821707571e+00 -2.398523176742e+02 -6.504041932689e-02 1.300808386538e-01 4.152353273596e+02  1.661907518436e-02
3.000000000000e+00 3.063186828372e+02 5.045510111052e+02 0.000000000000e+00 -8.684394645838e-03 0.000000000000e+00 -6.099752173155e-02 0.000000000000e+00 -2.131191446534e-02 1.909175608673e+02 -2.114712697486e-01 -1.906807271338e+02 4.736674671292e-02 -9.473349342584e-02 3.304740220690e+02  1.321898524053e-02
3.666666666667e+00 3.028605759730e+02 5.023414655467e+02 0.000000000000e+00 -4.286073912241e-03 0.000000000000e+00 -2.984735952853e-02 0.000000000000e+00 -1.043000420481e-02 1.410935778593e+02 1.188165399828e+00 -1.414326136375e+02 -6.780715563503e-02 1.356143112701e-01 2.446835348310e+02  9.788379874159e-03
4.333333333333e+00 3.237944115414e+02 5.323870679199e+02 0.000000000000e+00 -1.278465528192e-03 0.000000000000e+00 -8.489161162329e-03 0.000000000000e+00 -2.968933974513e-03 8.493234039583e+01 1.042722097884e-01 -8.421674028368e+01 1.431200224302e-01 -2.862400448603e-01 1.464876695379e+02  5.859520141566e-03
5.000000000000e+00 3.553856806058e+02 6.123219249864e+02 0.000000000000e+00 0.000000000000e+00 0.000000000000e+00 0.000000000000e+00 0.000000000000e+00 0.000000000000e+00 7.070982050420e+00 7.848991148613e-01 -1.988902282048e+01 -2.563608154012e+00 5.127216308023e+00 2.370162003044e+01  9.527319804871e-04
 TITLE = "Profiles along polylines"
 VARIABLES = "DIST" "PRESSURE1" "PRESSURE_RATE1" "DISPLACEMENT_X1" "DISPLACEMENT_Y1" "ACCELERATION_X1" "ACCELERATION_Y1" "VELOCITY_DM_X" "VELOCITY_DM_Y" "STRESS_XX" "STRESS_XY" "STRESS_YY" "STRESS_ZZ"  p_(1st_Invariant)  q_(2nd_Invariant)   Effective_Strain
 ZONE T="TIME=2.000000000000e+01"
0.000000000000e+00 0.000000000000e+00 0.000000000000e+00 0.000000000000e+00 -4.811061788850e-02 0.000000000000e+00 3.367444455467e-01 0.000000000000e+00 1.387570608628e-01 -3.062747266006e+02 -1.393716669112e+01 -9.773633219011e+02 -2.567276097003e+02 5.134552194007e+02 6.976016474059e+02  2.795414130327e-02
4.365028099238e-01 5.758787067731e+02 -1.320239185200e+03 0.000000000000e+00 -3.813650062600e-02 0.000000000000e+00 2.944155185898e-01 0.000000000000e+00 1.219201732084e-01 1.561552053058e+02 1.260814752184e+01 -4.065229627053e+02 -5.007355147990e+01 1.001471029598e+02 4.935316585328e+02  1.979915902980e-02
1.000000000000e+00 4.177766577235e+02 -8.945210960764e+02 0.000000000000e+00 -3.069171174777e-02 0.000000000000e+00 2.381093685555e-01 0.000000000000e+00 9.844475681292e-02 3.503816837819e+02 8.186087355499e+00 -3.179180466517e+02 6.492727426051e+00 -1.298545485210e+01 5.790201060827e+02  2.318162691387e-02
1.666666666667e+00 3.054219042844e+02 -6.401568919443e+02 0.000000000000e+00 -2.217955754459e-02 0.000000000000e+00 1.683316869325e-01 0.000000000000e+00 6.956766872486e-02 3.016503179968e+02 8.447585406260e+00 -3.093945041429e+02 -1.548837229226e+00 3.097674458451e+00 5.293876779952e+02  2.119975731582e-02
2.333333333333e+00 2.554484389329e+02 -5.350825343907e+02 0.000000000000e+00 -1.477677414126e-02 0.000000000000e+00 1.116322237049e-01 0.000000000000e+00 4.612618613068e-02 2.437575165883e+02 4.965207350829e+00 -2.439942866447e+02 -4.735401128173e-02 9.470802256345e-02 4.224929952855e+02  1.691021989788e-02
3.000000000000e+00 2.313133720209e+02 -4.897238280925e+02 0.000000000000e+00 -8.935436224276e-03 0.000000000000e+00 6.695323080384e-02 0.000000000000e+00 2.765924377642e-02 1.947480529552e+02 -2.191789966893e-01 -1.941967659589e+02 1.102573992580e-01 -2.205147985159e-01 3.368363483815e+02  1.347347960675e-02
3.666666666667e+00 2.280835793474e+02 -4.875986610732e+02 0.000000000000e+00 -4.450436881522e-03 0.000000000000e+00 3.276062696188e-02 0.000000000000e+00 1.352753093547e-02 1.439156089398e+02 1.264558434858e+00 -1.443436469840e+02 -8.560760884658e-02 1.712152176932e-01 2.496494798371e+02  9.987132101279e-03
4.333333333333e+00 2.414211889940e+02 -5.173690295066e+02 0.000000000000e+00 -1.387304864185e-03 0.000000000000e+00 9.316272505341e-03 0.000000000000e+00 3.837437790698e-03 8.725611958101e+01 3.277998313652e-01 -8.517874530331e+01 4.154748555389e-01 -8.309497110779e-01 1.493353532239e+02  5.973543644713e-03
5.000000000000e+00 2.619523148819e+02 -5.947950877491e+02 0.000000000000e+00 0.000000000000e+00 0.000000000000e+00 0.000000000000e+00 0.000000000000e+00 0.000000000000e+00 4.684317443226e+00 5.797818742055e-01 -2.940765428948e+01 -4.944667369251e+00 9.889334738501e+00 3.045845117805e+01  1.220322954868e-03
