 TITLE = "Profiles along polylines"
 VARIABLES = "DIST" "PRESSURE1" "PRESSURE_RATE1" "DISPLACEMENT_X1" "DISPLACEMENT_Y1" "ACCELERATION_X1" "ACCELERATION_Y1" "VELOCITY_DM_X" "VELOCITY_DM_Y" "STRESS_XX" "STRESS_XY" "STRESS_YY" "STRESS_ZZ"  p_(1st_Invariant)  q_(2nd_Invariant)   Effective_Strain
 ZONE T="TIME=0.000000000000e+00"
0.000000000000e+00 0.000000000000e+00 0.000000000000e+00 0.000000000000e+00 0.000000000000e+00 0.000000000000e+00 0.000000000000e+00 0.000000000000e+00 0.000000000000e+00 0.000000000000e+00 0.000000000000e+00 0.000000000000e+00 0.000000000000e+00 -0.000000000000e+00 0.000000000000e+00  0.000000000000e+00
4.365028099238e-01 0.000000000000e+00 0.000000000000e+00 0.000000000000e+00 0.000000000000e+00 0.000000000000e+00 0.000000000000e+00 0.000000000000e+00 0.000000000000e+00 0.000000000000e+00 0.000000000000e+00 0.000000000000e+00 0.000000000000e+00 -0.000000000000e+00 0.000000000000e+00  0.000000000000e+00
1.000000000000e+00 0.000000000000e+00 0.000000000000e+00 0.000000000000e+00 0.000000000000e+00 0.000000000000e+00 0.000000000000e+00 0.000000000000e+00 0.000000000000e+00 0.000000000000e+00 0.000000000000e+00 0.000000000000e+00 0.000000000000e+00 -0.000000000000e+00 0.000000000000e+00  0.000000000000e+00
1.666666666667e+00 0.000000000000e+00 0.000000000000e+00 0.000000000000e+00 0.000000000000e+00 0.000000000000e+00 0.000000000000e+00 0.000000000000e+00 0.000000000000e+00 0.000000000000e+00 0.000000000000e+00 0.000000000000e+00 0.000000000000e+00 -0.000000000000e+00 0.000000000000e+00  0.000000000000e+00
2.333333333333e+00 0.000000000000e+00 0.000000000000e+00 0.000000000000e+00 0.000000000000e+00 0.000000000000e+00 0.000000000000e+00 0.000000000000e+00 0.000000000000e+00 0.000000000000e+00 0.000000000000e+00 0.000000000000e+00 0.000000000000e+00 -0.000000000000e+00 0.000000000000e+00  0.000000000000e+00
3.000000000000e+00 0.000000000000e+00 0.000000000000e+00 0.000000000000e+00 0.000000000000e+00 0.000000000000e+00 0.000000000000e+00 0.000000000000e+00 0.000000000000e+00 0.000000000000e+00 0.000000000000e+00 0.000000000000e+00 0.000000000000e+00 -0.000000000000e+00 0.000000000000e+00  0.000000000000e+00
3.666666666667e+00 0.000000000000e+00 0.000000000000e+00 0.000000000000e+00 0.000000000000e+00 0.000000000000e+00 0.000000000000e+00 0.000000000000e+00 0.000000000000e+00 0.000000000000e+00 0.000000000000e+00 0.000000000000e+00 0.000000000000e+00 -0.000000000000e+00 0.000000000000e+00  0.000000000000e+00
4.333333333333e+00 0.000000000000e+00 0.000000000000e+00 0.000000000000e+00 0.000000000000e+00 0.000000000000e+00 0.000000000000e+00 0.000000000000e+00 0.000000000000e+00 0.000000000000e+00 0.000000000000e+00 0.000000000000e+00 0.000000000000e+00 -0.000000000000e+00 0.000000000000e+00  0.000000000000e+00
5.000000000000e+00 0.000000000000e+00 0.000000000000e+00 0.000000000000e+00 0.000000000000e+00 0.000000000000e+00 0.000000000000e+00 0.000000000000e+00 0.000000000000e+00 0.000000000000e+00 0.000000000000e+00 0.000000000000e+00 0.000000000000e+00 -0.000000000000e+00 0.000000000000e+00  0.000000000000e+00
 TITLE = "Profiles along polylines"
 VARIABLES = "DIST" "PRESSURE1" "PRESSURE_RATE1" "DISPLACEMENT_X1" "DISPLACEMENT_Y1" "ACCELERATION_X1" "ACCELERATION_Y1" "VELOCITY_DM_X" "VELOCITY_DM_Y" "STRESS_XX" "STRESS_XY" "STRESS_YY" "STRESS_ZZ"  p_(1st_Invariant)  q_(2nd_Invariant)   Effective_Strain
 ZONE T="TIME=1.000000000000e+00"
0.000000000000e+00 0.000000000000e+00 0.000000000000e+00 0.000000000000e+00 -4.241340074898e-02 0.000000000000e+00 -1.663270617607e-01 0.000000000000e+00 -8.565843680676e-02 -2.849583135882e+02 6.530880852425e+01 -7.934644359551e+02 -2.156845499087e+02 4.313690998173e+02 5.580315270502e+02  2.365709532194e-02
4.365028099238e-01 8.060164965597e+02 1.565080575844e+03 0.000000000000e+00 -3.692935059693e-02 0.000000000000e+00 -1.448209827331e-01 0.000000000000e+00 -7.458280610752e-02 2.790588922499e+02 -5.241443074558e+01 -1.451484622134e+02 2.678208600731e+01 -5.356417201462e+01 3.805517147922e+02  1.647033991560e-02
1.000000000000e+00 4.946047777200e+02 9.603976266408e+02 0.000000000000e+00 -2.992009030639e-02 0.000000000000e+00 -1.173336874760e-01 0.000000000000e+00 -6.042684905016e-02 3.534334124832e+02 1.192825912006e+01 -3.606666660295e+02 -1.446650709259e+00 2.893301418517e+00 6.187776260434e+02  2.479246016942e-02
1.666666666667e+00 3.629873350519e+02 7.048297767998e+02 0.000000000000e+00 -2.115630407574e-02 0.000000000000e+00 -8.296589833625e-02 0.000000000000e+00 -4.272743764317e-02 2.933307098430e+02 7.439234999676e+00 -2.942761641813e+02 -1.890908676526e-01 3.781817353052e-01 5.090456619028e+02  2.038138624759e-02
2.333333333333e+00 3.022712785161e+02 5.869345213906e+02 0.000000000000e+00 -1.403206755923e-02 0.000000000000e+00 -5.502771591855e-02 0.000000000000e+00 -2.833927369805e-02 2.344887785593e+02 4.666307652446e+00 -2.349539310628e+02 -9.303050068980e-02 1.860610013796e-01 4.066296668559e+02  1.627482255811e-02
3.000000000000e+00 2.767730112772e+02 5.374233228684e+02 0.000000000000e+00 -8.416929292392e-03 0.000000000000e+00 -3.300756585252e-02 0.000000000000e+00 -1.699889641405e-02 1.863898194627e+02 -2.332388494492e-01 -1.865474715537e+02 -3.153041820309e-02 6.306083640617e-02 3.229734241559e+02  1.291896728468e-02
3.666666666667e+00 2.753530678155e+02 5.346661510981e+02 0.000000000000e+00 -4.119598230528e-03 0.000000000000e+00 -1.615528717854e-02 0.000000000000e+00 -8.319972896950e-03 1.378066948925e+02 1.157042563269e+00 -1.379480476964e+02 -2.827056077024e-02 5.654112154047e-02 2.388190247571e+02  9.553769962762e-03
4.333333333333e+00 2.919019729599e+02 5.667999474950e+02 0.000000000000e+00 -1.173381902112e-03 0.000000000000e+00 -4.601497655343e-03 0.000000000000e+00 -2.369771292502e-03 8.216752966088e+01 -1.764832956514e-01 -8.388835726280e+01 -3.441655203841e-01 6.883310407682e-01 1.438098680128e+02  5.752433704795e-03
5.000000000000e+00 3.349868612283e+02 6.504599247152e+02 0.000000000000e+00 0.000000000000e+00 0.000000000000e+00 0.000000000000e+00 0.000000000000e+00 0.000000000000e+00 9.536586377069e+00 1.042757546886e+00 -1.010872767401e+01 -1.144282593882e-01 2.288565187764e-01 1.710980023667e+01  6.957371386987e-04
 TITLE = "Profiles along polylines"
 VARIABLES = "DIST" "PRESSURE1" "PRESSURE_RATE1" "DISPLACEMENT_X1" "DISPLACEMENT_Y1" "ACCELERATION_X1" "ACCELERATION_Y1" "VELOCITY_DM_X" "VELOCITY_DM_Y" "STRESS_XX" "STRESS_XY" "STRESS_YY" "STRESS_ZZ"  p_(1st_Invariant)  q_(2nd_Invariant)   Effective_Strain
 ZONE T="TIME=5.000000000000e+00"
0.000000000000e+00 0.000000000000e+00 0.000000000000e+00 0.000000000000e+00 -4.421096581038e-02 0.000000000000e+00 2.433427118303e-01 0.000000000000e+00 9.295304974788e-02 -2.614145069885e+02 1.809295018920e+01 -8.909334304716e+02 -2.304695874920e+02 4.609391749840e+02 6.463080844414e+02  2.594333312844e-02
4.365028099238e-01 8.119494756052e+02 -1.471030746647e+03 0.000000000000e+00 -3.691911541301e-02 0.000000000000e+00 2.122646352764e-01 0.000000000000e+00 8.172963605967e-02 2.659696991009e+02 -1.664333739574e+01 -1.584222062872e+02 2.150949856275e+01 -4.301899712550e+01 3.700720885816e+02  1.493700676115e-02
1.000000000000e+00 4.656861186199e+02 -9.184903178560e+02 0.000000000000e+00 -3.031815478242e-02 0.000000000000e+00 1.718768104487e-01 0.000000000000e+00 6.601202677064e-02 3.518670633403e+02 1.143858121679e+01 -3.579366014209e+02 -1.213907616124e+00 2.427815232247e+00 6.150298942641e+02  2.463945912071e-02
1.666666666667e+00 3.420183762299e+02 -6.739508377737e+02 0.000000000000e+00 -2.151959371217e-02 0.000000000000e+00 1.215129368663e-01 0.000000000000e+00 4.663536952901e-02 2.976023608470e+02 7.771416526349e+00 -2.984949847369e+02 -1.785247779878e-01 3.570495559757e-01 5.164109705589e+02  2.067747933369e-02
2.333333333333e+00 2.813460161106e+02 -5.629020552928e+02 0.000000000000e+00 -1.429360427965e-02 0.000000000000e+00 8.058926580208e-02 0.000000000000e+00 3.092084497226e-02 2.380740699414e+02 4.778537562871e+00 -2.388222897833e+02 -1.496439683817e-01 2.992879367634e-01 4.130873480122e+02  1.653344087013e-02
3.000000000000e+00 2.573262481497e+02 -5.155572861613e+02 0.000000000000e+00 -8.588274566534e-03 0.000000000000e+00 4.833673983429e-02 0.000000000000e+00 1.854010989071e-02 1.897136355203e+02 -2.309734748182e-01 -1.893376912566e+02 7.518885274456e-02 -1.503777054891e-01 3.282683414751e+02  1.313076291179e-02
3.666666666667e+00 2.546913221213e+02 -5.135505237012e+02 0.000000000000e+00 -4.219907746890e-03 0.000000000000e+00 2.365399701258e-02 0.000000000000e+00 9.066003822591e-03 1.401531160470e+02 1.187810293371e+00 -1.404049799431e+02 -5.037277923568e-02 1.007455584714e-01 2.429791602345e+02  9.720211548965e-03
4.333333333333e+00 2.714251779889e+02 -5.437226665589e+02 0.000000000000e+00 -1.228951556376e-03 0.000000000000e+00 6.730731942325e-03 0.000000000000e+00 2.568631057323e-03 8.427245629024e+01 1.591042282747e-01 -8.414231252330e+01 2.602875338884e-02 -5.205750677767e-02 1.458517337323e+02  5.834100590167e-03
5.000000000000e+00 3.024447502992e+02 -6.283661965421e+02 0.000000000000e+00 0.000000000000e+00 0.000000000000e+00 0.000000000000e+00 0.000000000000e+00 0.000000000000e+00 7.967507952445e+00 6.948450817359e-01 -1.579559645946e+01 -1.565617701403e+00 3.131235402806e+00 2.074794893000e+01  8.340960827054e-04
 TITLE = "Profiles along polylines"
 VARIABLES = "DIST" "PRESSURE1" "PRESSURE_RATE1" "DISPLACEMENT_X1" "DISPLACEMENT_Y1" "ACCELERATION_X1" "ACCELERATION_Y1" "VELOCITY_DM_X" "VELOCITY_DM_Y" "STRESS_XX" "STRESS_XY" "STRESS_YY" "STRESS_ZZ"  p_(1st_Invariant)  q_(2nd_Invariant)   Effective_Strain
 ZONE T="TIME=1.000000000000e+01"
0.000000000000e+00 0.000000000000e+00 0.000000000000e+00 0.000000000000e+00 -4.529036034085e-02 0.000000000000e+00 -3.068735299185e-01 0.000000000000e+00 -1.071402136038e-01 -2.876975968984e+02 2.584908469778e+01 -8.872930536698e+02 -2.349981301136e+02 4.699962602273e+02 6.292017418745e+02  2.535849864942e-02
4.365028099238e-01 7.579399531696e+02 1.364365063372e+03 0.000000000000e+00 -3.741515063051e-02 0.000000000000e+00 -2.681200167190e-01 0.000000000000e+00 -9.393766644655e-02 2.038527689786e+02 -1.603957533921e+01 -2.902084111748e+02 -1.727112843923e+01 3.454225687846e+01 4.295524391231e+02  1.728956724734e-02
1.000000000000e+00 5.918149769507e+02 9.139681084006e+02 0.000000000000e+00 -3.037822951080e-02 0.000000000000e+00 -2.169201055027e-01 0.000000000000e+00 -7.575597956078e-02 3.471143356764e+02 6.024482435746e+00 -3.364236328577e+02 2.138140563725e+00 -4.276281127450e+00 5.920618930383e+02  2.369350745451e-02
1.666666666667e+00 4.051214573631e+02 6.591976165959e+02 0.000000000000e+00 -2.170029699475e-02 0.000000000000e+00 -1.533528296837e-01 0.000000000000e+00 -5.357929500579e-02 2.985108668079e+02 8.291508365842e+00 -3.030805223266e+02 -9.139311037463e-01 1.827862207493e+00 5.211931276419e+02  2.087145489131e-02
2.333333333333e+00 3.363958747598e+02 5.514902301881e+02 0.000000000000e+00 -1.442370558015e-02 0.000000000000e+00 -1.017009535999e-01 0.000000000000e+00 -3.553014097751e-02 2.395271156293e+02 4.721821710131e+00 -2.398523177410e+02 -6.504042232339e-02 1.300808446468e-01 4.152353274623e+02  1.661907518847e-02
3.000000000000e+00 3.063186828804e+02 5.045510111346e+02 0.000000000000e+00 -8.684394650398e-03 0.000000000000e+00 -6.099752172901e-02 0.000000000000e+00 -2.131191446334e-02 1.909175609543e+02 -2.114712705222e-01 -1.906807272099e+02 4.736674888370e-02 -9.473349776740e-02 3.304740222102e+02  1.321898524618e-02
3.666666666667e+00 3.028605760316e+02 5.023414655867e+02 0.000000000000e+00 -4.286073914689e-03 0.000000000000e+00 -2.984735952671e-02 0.000000000000e+00 -1.043000420319e-02 1.410935779284e+02 1.188165399523e+00 -1.414326137186e+02 -6.780715803650e-02 1.356143160730e-01 2.446835349611e+02  9.788379879362e-03
4.333333333333e+00 3.237944116306e+02 5.323870679795e+02 0.000000000000e+00 -1.278465528868e-03 0.000000000000e+00 -8.489161161702e-03 0.000000000000e+00 -2.968933973920e-03 8.493234044509e+01 1.042722099630e-01 -8.421674033423e+01 1.431200221724e-01 -2.862400443448e-01 1.464876696243e+02  5.859520145023e-03
5.000000000000e+00 3.553856806661e+02 6.123219250413e+02 0.000000000000e+00 0.000000000000e+00 0.000000000000e+00 0.000000000000e+00 0.000000000000e+00 0.000000000000e+00 7.070982057470e+00 7.848991155805e-01 -1.988902282264e+01 -2.563608153035e+00 5.127216306070e+00 2.370162003813e+01  9.527319808019e-04
 TITLE = "Profiles along polylines"
 VARIABLES = "DIST" "PRESSURE1" "PRESSURE_RATE1" "DISPLACEMENT_X1" "DISPLACEMENT_Y1" "ACCELERATION_X1" "ACCELERATION_Y1" "VELOCITY_DM_X" "VELOCITY_DM_Y" "STRESS_XX" "STRESS_XY" "STRESS_YY" "STRESS_ZZ"  p_(1st_Invariant)  q_(2nd_Invariant)   Effective_Strain
 ZONE T="TIME=2.000000000000e+01"
0.000000000000e+00 0.000000000000e+00 0.000000000000e+00 0.000000000000e+00 -4.811061784267e-02 0.000000000000e+00 3.367444455505e-01 0.000000000000e+00 1.387570608769e-01 -3.062747262502e+02 -1.393716668828e+01 -9.773633218952e+02 -2.567276096291e+02 5.134552192582e+02 6.976016475953e+02  2.795414131081e-02
4.365028099238e-01 5.758787067370e+02 -1.320239185201e+03 0.000000000000e+00 -3.813650058085e-02 0.000000000000e+00 2.944155185933e-01 0.000000000000e+00 1.219201732221e-01 1.561552050958e+02 1.260814751696e+01 -4.065229625261e+02 -5.007355148605e+01 1.001471029721e+02 4.935316582010e+02  1.979915901652e-02
1.000000000000e+00 4.177766579969e+02 -8.945210960577e+02 0.000000000000e+00 -3.069171171019e-02 0.000000000000e+00 2.381093685579e-01 0.000000000000e+00 9.844475682393e-02 3.503816832803e+02 8.186087337705e+00 -3.179180461992e+02 6.492727416226e+00 -1.298545483245e+01 5.790201052558e+02  2.318162688074e-02
1.666666666667e+00 3.054219046406e+02 -6.401568918860e+02 0.000000000000e+00 -2.217955751977e-02 0.000000000000e+00 1.683316869327e-01 0.000000000000e+00 6.956766873161e-02 3.016503175024e+02 8.447585382618e+00 -3.093945036935e+02 -1.548837238230e+00 3.097674476461e+00 5.293876771771e+02  2.119975728299e-02
2.333333333333e+00 2.554484391823e+02 -5.350825343669e+02 0.000000000000e+00 -1.477677412621e-02 0.000000000000e+00 1.116322237030e-01 0.000000000000e+00 4.612618613344e-02 2.437575163260e+02 4.965207319616e+00 -2.439942863463e+02 -4.735400405519e-02 9.470800811037e-02 4.224929947988e+02  1.691021987829e-02
3.000000000000e+00 2.313133722921e+02 -4.897238280760e+02 0.000000000000e+00 -8.935436214971e-03 0.000000000000e+00 6.695323080116e-02 0.000000000000e+00 2.765924377693e-02 1.947480527682e+02 -2.191789643281e-01 -1.941967657196e+02 1.102574097341e-01 -2.205148194682e-01 3.368363480122e+02  1.347347959197e-02
3.666666666667e+00 2.280835795170e+02 -4.875986610893e+02 0.000000000000e+00 -4.450436877112e-03 0.000000000000e+00 3.276062695977e-02 0.000000000000e+00 1.352753093503e-02 1.439156089010e+02 1.264558435386e+00 -1.443436467724e+02 -8.560757427472e-02 1.712151485494e-01 2.496494796201e+02  9.987132092602e-03
4.333333333333e+00 2.414211892164e+02 -5.173690295368e+02 0.000000000000e+00 -1.387304862592e-03 0.000000000000e+00 9.316272504595e-03 0.000000000000e+00 3.837437790490e-03 8.725611950552e+01 3.277998430461e-01 -8.517874518041e+01 4.154748650220e-01 -8.309497300440e-01 1.493353530522e+02  5.973543637856e-03
5.000000000000e+00 2.619523151714e+02 -5.947950877563e+02 0.000000000000e+00 0.000000000000e+00 0.000000000000e+00 0.000000000000e+00 0.000000000000e+00 0.000000000000e+00 4.684317442655e+00 5.797818736180e-01 -2.940765426037e+01 -4.944667363544e+00 9.889334727087e+00 3.045845115102e+01  1.220322953784e-03
