 TITLE = "Profiles along polylines"
 VARIABLES = "DIST" "PRESSURE1" "DISPLACEMENT_X1" "DISPLACEMENT_Y1" "DISPLACEMENT_Z1" "STRESS_XX" "STRESS_XY" "STRESS_YY" "STRESS_ZZ" "STRESS_XZ" "STRESS_YZ" "STRAIN_XX" "STRAIN_XY" "STRAIN_YY" "STRAIN_ZZ" "STRAIN_XZ" "STRAIN_YZ"  p_(1st_Invariant)  q_(2nd_Invariant)   Effective_Strain
 ZONE T="TIME=0.000000000000e+00"
0.000000000000e+00 0.000000000000e+00 0.000000000000e+00 0.000000000000e+00 0.000000000000e+00 0.000000000000e+00 0.000000000000e+00 0.000000000000e+00 0.000000000000e+00 0.000000000000e+00 0.000000000000e+00 0.000000000000e+00 0.000000000000e+00 0.000000000000e+00 0.000000000000e+00 0.000000000000e+00 0.000000000000e+00 -0.000000000000e+00 0.000000000000e+00  0.000000000000e+00
2.181972035872e-01 0.000000000000e+00 0.000000000000e+00 0.000000000000e+00 0.000000000000e+00 0.000000000000e+00 0.000000000000e+00 0.000000000000e+00 0.000000000000e+00 0.000000000000e+00 0.000000000000e+00 0.000000000000e+00 0.000000000000e+00 0.000000000000e+00 0.000000000000e+00 0.000000000000e+00 0.000000000000e+00 -0.000000000000e+00 0.000000000000e+00  0.000000000000e+00
4.125457250100e-01 0.000000000000e+00 0.000000000000e+00 0.000000000000e+00 0.000000000000e+00 0.000000000000e+00 0.000000000000e+00 0.000000000000e+00 0.000000000000e+00 0.000000000000e+00 0.000000000000e+00 0.000000000000e+00 0.000000000000e+00 0.000000000000e+00 0.000000000000e+00 0.000000000000e+00 0.000000000000e+00 -0.000000000000e+00 0.000000000000e+00  0.000000000000e+00
5.857583667610e-01 0.000000000000e+00 0.000000000000e+00 0.000000000000e+00 0.000000000000e+00 0.000000000000e+00 0.000000000000e+00 0.000000000000e+00 0.000000000000e+00 0.000000000000e+00 0.000000000000e+00 0.000000000000e+00 0.000000000000e+00 0.000000000000e+00 0.000000000000e+00 0.000000000000e+00 0.000000000000e+00 -0.000000000000e+00 0.000000000000e+00  0.000000000000e+00
7.400535647690e-01 0.000000000000e+00 0.000000000000e+00 0.000000000000e+00 0.000000000000e+00 0.000000000000e+00 0.000000000000e+00 0.000000000000e+00 0.000000000000e+00 0.000000000000e+00 0.000000000000e+00 0.000000000000e+00 0.000000000000e+00 0.000000000000e+00 0.000000000000e+00 0.000000000000e+00 0.000000000000e+00 -0.000000000000e+00 0.000000000000e+00  0.000000000000e+00
8.775223215788e-01 0.000000000000e+00 0.000000000000e+00 0.000000000000e+00 0.000000000000e+00 0.000000000000e+00 0.000000000000e+00 0.000000000000e+00 0.000000000000e+00 0.000000000000e+00 0.000000000000e+00 0.000000000000e+00 0.000000000000e+00 0.000000000000e+00 0.000000000000e+00 0.000000000000e+00 0.000000000000e+00 -0.000000000000e+00 0.000000000000e+00  0.000000000000e+00
1.000000000000e+00 0.000000000000e+00 0.000000000000e+00 0.000000000000e+00 0.000000000000e+00 0.000000000000e+00 0.000000000000e+00 0.000000000000e+00 0.000000000000e+00 0.000000000000e+00 0.000000000000e+00 0.000000000000e+00 0.000000000000e+00 0.000000000000e+00 0.000000000000e+00 0.000000000000e+00 0.000000000000e+00 -0.000000000000e+00 0.000000000000e+00  0.000000000000e+00
1.111444919589e+00 0.000000000000e+00 0.000000000000e+00 0.000000000000e+00 0.000000000000e+00 0.000000000000e+00 0.000000000000e+00 0.000000000000e+00 0.000000000000e+00 0.000000000000e+00 0.000000000000e+00 0.000000000000e+00 0.000000000000e+00 0.000000000000e+00 0.000000000000e+00 0.000000000000e+00 0.000000000000e+00 -0.000000000000e+00 0.000000000000e+00  0.000000000000e+00
1.247692203881e+00 0.000000000000e+00 0.000000000000e+00 0.000000000000e+00 0.000000000000e+00 0.000000000000e+00 0.000000000000e+00 0.000000000000e+00 0.000000000000e+00 0.000000000000e+00 0.000000000000e+00 0.000000000000e+00 0.000000000000e+00 0.000000000000e+00 0.000000000000e+00 0.000000000000e+00 0.000000000000e+00 -0.000000000000e+00 0.000000000000e+00  0.000000000000e+00
1.414321188228e+00 0.000000000000e+00 0.000000000000e+00 0.000000000000e+00 0.000000000000e+00 0.000000000000e+00 0.000000000000e+00 0.000000000000e+00 0.000000000000e+00 0.000000000000e+00 0.000000000000e+00 0.000000000000e+00 0.000000000000e+00 0.000000000000e+00 0.000000000000e+00 0.000000000000e+00 0.000000000000e+00 -0.000000000000e+00 0.000000000000e+00  0.000000000000e+00
1.618065635460e+00 0.000000000000e+00 0.000000000000e+00 0.000000000000e+00 0.000000000000e+00 0.000000000000e+00 0.000000000000e+00 0.000000000000e+00 0.000000000000e+00 0.000000000000e+00 0.000000000000e+00 0.000000000000e+00 0.000000000000e+00 0.000000000000e+00 0.000000000000e+00 0.000000000000e+00 0.000000000000e+00 -0.000000000000e+00 0.000000000000e+00  0.000000000000e+00
1.867245271842e+00 0.000000000000e+00 0.000000000000e+00 0.000000000000e+00 0.000000000000e+00 0.000000000000e+00 0.000000000000e+00 0.000000000000e+00 0.000000000000e+00 0.000000000000e+00 0.000000000000e+00 0.000000000000e+00 0.000000000000e+00 0.000000000000e+00 0.000000000000e+00 0.000000000000e+00 0.000000000000e+00 -0.000000000000e+00 0.000000000000e+00  0.000000000000e+00
2.171918810517e+00 0.000000000000e+00 0.000000000000e+00 0.000000000000e+00 0.000000000000e+00 0.000000000000e+00 0.000000000000e+00 0.000000000000e+00 0.000000000000e+00 0.000000000000e+00 0.000000000000e+00 0.000000000000e+00 0.000000000000e+00 0.000000000000e+00 0.000000000000e+00 0.000000000000e+00 0.000000000000e+00 -0.000000000000e+00 0.000000000000e+00  0.000000000000e+00
2.544474854015e+00 0.000000000000e+00 0.000000000000e+00 0.000000000000e+00 0.000000000000e+00 0.000000000000e+00 0.000000000000e+00 0.000000000000e+00 0.000000000000e+00 0.000000000000e+00 0.000000000000e+00 0.000000000000e+00 0.000000000000e+00 0.000000000000e+00 0.000000000000e+00 0.000000000000e+00 0.000000000000e+00 -0.000000000000e+00 0.000000000000e+00  0.000000000000e+00
3.000000000000e+00 0.000000000000e+00 0.000000000000e+00 0.000000000000e+00 0.000000000000e+00 0.000000000000e+00 0.000000000000e+00 0.000000000000e+00 0.000000000000e+00 0.000000000000e+00 0.000000000000e+00 0.000000000000e+00 0.000000000000e+00 0.000000000000e+00 0.000000000000e+00 0.000000000000e+00 0.000000000000e+00 -0.000000000000e+00 0.000000000000e+00  0.000000000000e+00
3.666666666667e+00 0.000000000000e+00 0.000000000000e+00 0.000000000000e+00 0.000000000000e+00 0.000000000000e+00 0.000000000000e+00 0.000000000000e+00 0.000000000000e+00 0.000000000000e+00 0.000000000000e+00 0.000000000000e+00 0.000000000000e+00 0.000000000000e+00 0.000000000000e+00 0.000000000000e+00 0.000000000000e+00 -0.000000000000e+00 0.000000000000e+00  0.000000000000e+00
4.333333333333e+00 0.000000000000e+00 0.000000000000e+00 0.000000000000e+00 0.000000000000e+00 0.000000000000e+00 0.000000000000e+00 0.000000000000e+00 0.000000000000e+00 0.000000000000e+00 0.000000000000e+00 0.000000000000e+00 0.000000000000e+00 0.000000000000e+00 0.000000000000e+00 0.000000000000e+00 0.000000000000e+00 -0.000000000000e+00 0.000000000000e+00  0.000000000000e+00
5.000000000000e+00 0.000000000000e+00 0.000000000000e+00 0.000000000000e+00 0.000000000000e+00 0.000000000000e+00 0.000000000000e+00 0.000000000000e+00 0.000000000000e+00 0.000000000000e+00 0.000000000000e+00 0.000000000000e+00 0.000000000000e+00 0.000000000000e+00 0.000000000000e+00 0.000000000000e+00 0.000000000000e+00 -0.000000000000e+00 0.000000000000e+00  0.000000000000e+00
 TITLE = "Profiles along polylines"
 VARIABLES = "DIST" "PRESSURE1" "DISPLACEMENT_X1" "DISPLACEMENT_Y1" "DISPLACEMENT_Z1" "STRESS_XX" "STRESS_XY" "STRESS_YY" "STRESS_ZZ" "STRESS_XZ" "STRESS_YZ" "STRAIN_XX" "STRAIN_XY" "STRAIN_YY" "STRAIN_ZZ" "STRAIN_XZ" "STRAIN_YZ"  p_(1st_Invariant)  q_(2nd_Invariant)   Effective_Strain
 ZONE T="TIME=1.000000000000e+00"
0.000000000000e+00 0.000000000000e+00 0.000000000000e+00 0.000000000000e+00 -4.846154768055e-02 -5.247937181252e+02 3.392026738024e-01 -5.918833338177e+02 -8.386962249904e+02 1.686013540231e+00 3.752603917908e+00 3.011849738743e-03 3.233732156917e-05 -1.860886092674e-04 -1.195083642183e-02 1.607332908354e-04 3.577482401739e-04 6.517910923111e+02 2.864041218425e+02  1.366468561822e-02
2.181972035872e-01 7.546745614326e+02 0.000000000000e+00 0.000000000000e+00 -4.619400709383e-02 9.468813615090e+01 1.260675104513e-01 -8.055119527208e+01 -2.676769048511e+02 -3.561916603883e-01 -2.817026710969e+00 8.147540640129e-03 1.201843599636e-05 -2.055341576998e-04 -9.125192980967e-03 -3.395693829035e-05 -2.685565464457e-04 8.451332132409e+01 3.139122073395e+02  1.496866760366e-02
4.125457250100e-01 7.164112311543e+02 0.000000000000e+00 0.000000000000e+00 -4.413031685481e-02 2.502070688641e+02 2.499738465901e-01 -7.030551299803e+00 -2.653933509661e+02 2.843867066874e+00 -5.635134079081e-01 1.224497822795e-02 2.383084004159e-05 -1.668166653083e-05 -1.233197511729e-02 2.711153270420e-04 -5.372161155391e-05 7.405611133948e+00 4.465518604223e+02  2.128970568757e-02
5.857583667610e-01 6.404223713827e+02 0.000000000000e+00 0.000000000000e+00 -4.176429580120e-02 3.119060613013e+02 -9.920084153851e-02 4.717708984928e-01 -3.114945086739e+02 5.485928058073e+00 4.241443059402e-02 1.485486128482e-02 -9.457146893338e-06 9.826775623860e-06 -1.486056588399e-02 5.229918082030e-04 4.043509049963e-06 -2.944411752938e-01 5.399644385295e+02  2.575026210129e-02
7.400535647690e-01 5.769914140908e+02 0.000000000000e+00 0.000000000000e+00 -3.938294602807e-02 3.338409016452e+02 -1.654206548246e-02 5.655816814476e-01 -3.333068733704e+02 4.808270777503e+00 8.155768747635e-02 1.589732190238e-02 -1.577010242661e-06 1.119831744330e-05 -1.590338870670e-02 4.583884807886e-04 7.775166206079e-06 -3.665366520706e-01 5.778270360612e+02  2.755167232297e-02
8.775223215788e-01 5.286595826521e+02 0.000000000000e+00 0.000000000000e+00 -3.715675781482e-02 3.434368632067e+02 -1.750616106114e-01 3.576600170200e-01 -3.430151904094e+02 6.512013899624e+00 -7.087946973045e-02 1.635932004251e-02 -1.668920687828e-05 5.878023805494e-06 -1.636156117985e-02 6.208119917642e-04 -6.757176114303e-06 -2.597776047859e-01 5.945920147285e+02  2.835752625161e-02
1.000000000000e+00 4.906762375030e+02 0.000000000000e+00 0.000000000000e+00 -3.514713045996e-02 3.439507301053e+02 -1.626783814164e-03 5.161267187947e-02 -3.439438123014e+02 5.812620087375e+00 -2.267337365788e-02 1.639414586487e-02 -1.550867236170e-07 1.621267207836e-06 -1.639549398985e-02 5.541364483297e-04 -2.161528288718e-06 -1.951015856785e-02 5.958192172383e+02  2.841287705107e-02
1.111444919589e+00 4.609343125968e+02 0.000000000000e+00 0.000000000000e+00 -3.332810186381e-02 3.398841648182e+02 1.941933925233e-02 5.043424837226e-02 -3.399832138795e+02 4.536227954222e+00 -5.387307307553e-03 1.620184200199e-02 1.851310342055e-06 3.100844823809e-06 -1.620516971594e-02 4.324537316358e-04 -5.135899633201e-07 1.620493762931e-02 5.888348518603e+02  2.807528964820e-02
1.247692203881e+00 4.296442185663e+02 0.000000000000e+00 0.000000000000e+00 -3.114385046788e-02 3.327337485573e+02 -1.386305662517e-01 2.627949560896e-01 -3.322315848452e+02 6.412290805971e+00 1.403510945652e-01 1.584934427365e-02 -1.321611398266e-05 1.562151995227e-06 -1.584733661853e-02 6.113050568359e-04 1.338013768189e-05 -2.549862227529e-01 5.759840625211e+02  2.747056293010e-02
1.414321188228e+00 3.971220695064e+02 0.000000000000e+00 0.000000000000e+00 -2.856335229294e-02 3.170555468246e+02 -1.985861725544e-01 1.011850969587e-01 -3.168678221991e+02 7.766860014816e+00 -1.419777907665e-01 1.510884002595e-02 -1.893188178352e-05 6.821169327986e-07 -1.510817389751e-02 7.404406547458e-04 -1.353521605308e-05 -9.630324082711e-02 5.491587015839e+02  2.620013988329e-02
1.618065635460e+00 3.650486302681e+02 0.000000000000e+00 0.000000000000e+00 -2.555900364452e-02 2.990582926772e+02 -5.177292968617e-02 1.634469968263e-01 -2.985959903775e+02 7.381072570852e+00 5.781321922631e-02 1.424614287770e-02 -4.935685963415e-06 -1.178099735097e-06 -1.424204461458e-02 7.036622517546e-04 5.511526899575e-06 -2.085830988485e-01 5.177416777596e+02  2.470158327453e-02
1.867245271842e+00 3.352509827316e+02 0.000000000000e+00 0.000000000000e+00 -2.213969542547e-02 2.769618741512e+02 -2.245744157537e-01 5.184798449856e-01 -2.764006355991e+02 8.810141085692e+00 1.626221121201e-01 1.318637337085e-02 -2.140942763518e-05 9.238242251848e-06 -1.319057292725e-02 8.399001168360e-04 1.550330802211e-05 -3.599061323830e-01 4.794691787510e+02  2.288942972919e-02
2.171918810517e+00 3.076096340060e+02 0.000000000000e+00 0.000000000000e+00 -1.834603818032e-02 2.455396289050e+02 -1.269112406653e-01 -2.503794566354e-01 -2.460713122412e+02 7.059172463136e+00 3.793656975743e-02 1.171526521117e-02 -1.209887161009e-05 -7.251874025491e-07 -1.171818965013e-02 6.729744414856e-04 3.616619650208e-06 2.606875976064e-01 4.259231582277e+02  2.032742649182e-02
2.544474854015e+00 2.868912914961e+02 0.000000000000e+00 0.000000000000e+00 -1.423518809632e-02 2.170174823157e+02 -1.745563789514e-01 -6.786727025692e-02 -2.167988158714e+02 7.828658689557e+00 4.089618291665e-02 1.034233853555e-02 -1.664104146003e-05 -5.396461375991e-06 -1.033623834470e-02 7.463321284044e-04 3.898769438054e-06 -5.026639132740e-02 3.759407226512e+02  1.795479431796e-02
3.000000000000e+00 2.731765717395e+02 0.000000000000e+00 0.000000000000e+00 -9.897004578733e-03 1.812018915441e+02 -2.196255701304e-01 1.506913622862e-02 -1.818704639496e+02 7.720364304932e+00 -1.090442411087e-02 8.646657043795e-03 -2.093763768577e-05 1.008517568731e-05 -8.659791901406e-03 7.360080637368e-04 -1.039555098569e-06 2.178344231105e-01 3.147145225119e+02  1.504199456969e-02
3.666666666667e+00 2.709616509238e+02 0.000000000000e+00 0.000000000000e+00 -4.840098781281e-03 1.352932934031e+02 -1.551208727324e-01 -1.971330126900e-01 -1.357825014227e+02 4.243359478241e+00 -1.446352781090e-01 6.458817873676e-03 -1.478818986716e-05 4.408811918042e-07 -6.462461679685e-03 4.045336035923e-04 -1.378856317972e-05 2.287803441091e-01 2.348738393337e+02  1.121212615192e-02
4.333333333333e+00 2.887961592378e+02 0.000000000000e+00 0.000000000000e+00 -1.382036106628e-03 8.425829032101e+01 -1.735338377929e-01 -6.833254667247e-02 -8.440993759522e+01 4.230928044699e+00 4.661594144014e-02 4.019464882734e-03 -1.654355920292e-05 -1.041406255039e-07 -4.020387314606e-03 4.033484735946e-04 4.444053083960e-06 7.332660695854e-02 1.462550084780e+02  6.997740201961e-03
5.000000000000e+00 3.232710790383e+02 0.000000000000e+00 0.000000000000e+00 0.000000000000e+00 6.625431081344e+00 -2.330864171902e-01 -3.369784914820e+00 -1.442127432502e+01 5.774107775685e+00 1.020188301576e-01 4.758528851492e-04 -2.222090510547e-05 -5.857440012647e-07 -5.273734058876e-04 5.504649412819e-04 9.725795141695e-06 3.721876052833e+00 2.080184986732e+01  1.290845084985e-03
