 TITLE = "Profiles along polylines"
 VARIABLES = "DIST" "PRESSURE1" "DISPLACEMENT_X1" "DISPLACEMENT_Y1" "STRESS_XX" "STRESS_XY" "STRESS_YY" "STRESS_ZZ"  p_(1st_Invariant)  q_(2nd_Invariant)   Effective_Strain
 ZONE T="TIME=0.000000000000e+00"
0.000000000000e+00 0.000000000000e+00 0.000000000000e+00 0.000000000000e+00 0.000000000000e+00 0.000000000000e+00 0.000000000000e+00 0.000000000000e+00 -0.000000000000e+00 0.000000000000e+00  0.000000000000e+00
4.365028099238e-01 0.000000000000e+00 0.000000000000e+00 0.000000000000e+00 0.000000000000e+00 0.000000000000e+00 0.000000000000e+00 0.000000000000e+00 -0.000000000000e+00 0.000000000000e+00  0.000000000000e+00
1.000000000000e+00 0.000000000000e+00 0.000000000000e+00 0.000000000000e+00 0.000000000000e+00 0.000000000000e+00 0.000000000000e+00 0.000000000000e+00 -0.000000000000e+00 0.000000000000e+00  0.000000000000e+00
1.666666666667e+00 0.000000000000e+00 0.000000000000e+00 0.000000000000e+00 0.000000000000e+00 0.000000000000e+00 0.000000000000e+00 0.000000000000e+00 -0.000000000000e+00 0.000000000000e+00  0.000000000000e+00
2.333333333333e+00 0.000000000000e+00 0.000000000000e+00 0.000000000000e+00 0.000000000000e+00 0.000000000000e+00 0.000000000000e+00 0.000000000000e+00 -0.000000000000e+00 0.000000000000e+00  0.000000000000e+00
3.000000000000e+00 0.000000000000e+00 0.000000000000e+00 0.000000000000e+00 0.000000000000e+00 0.000000000000e+00 0.000000000000e+00 0.000000000000e+00 -0.000000000000e+00 0.000000000000e+00  0.000000000000e+00
3.666666666667e+00 0.000000000000e+00 0.000000000000e+00 0.000000000000e+00 0.000000000000e+00 0.000000000000e+00 0.000000000000e+00 0.000000000000e+00 -0.000000000000e+00 0.000000000000e+00  0.000000000000e+00
4.333333333333e+00 0.000000000000e+00 0.000000000000e+00 0.000000000000e+00 0.000000000000e+00 0.000000000000e+00 0.000000000000e+00 0.000000000000e+00 -0.000000000000e+00 0.000000000000e+00  0.000000000000e+00
5.000000000000e+00 0.000000000000e+00 0.000000000000e+00 0.000000000000e+00 0.000000000000e+00 0.000000000000e+00 0.000000000000e+00 0.000000000000e+00 -0.000000000000e+00 0.000000000000e+00  0.000000000000e+00
 TITLE = "Profiles along polylines"
 VARIABLES = "DIST" "PRESSURE1" "DISPLACEMENT_X1" "DISPLACEMENT_Y1" "STRESS_XX" "STRESS_XY" "STRESS_YY" "STRESS_ZZ"  p_(1st_Invariant)  q_(2nd_Invariant)   Effective_Strain
 ZONE T="TIME=1.000000000000e+00"
0.000000000000e+00 0.000000000000e+00 0.000000000000e+00 -4.267259037063e-02 -2.801912034644e+02 5.692773203724e+01 -8.101495395137e+02 -2.180681485956e+02 4.361362971912e+02 5.721538627918e+02  2.388395085514e-02
4.365028099238e-01 8.156343633877e+02 0.000000000000e+00 -3.691080025420e-02 2.801135907636e+02 -4.650743710211e+01 -1.413139076735e+02 2.775993661801e+01 -5.551987323602e+01 3.760632382047e+02  1.604444000799e-02
1.000000000000e+00 4.915025966801e+02 0.000000000000e+00 -2.998183490100e-02 3.536367903697e+02 1.224130128433e+01 -3.611149202861e+02 -1.495625983281e+00 2.991251966562e+00 6.193602241862e+02  2.481792037760e-02
1.666666666667e+00 3.609366188945e+02 0.000000000000e+00 -2.120929008822e-02 2.940013804083e+02 7.465526782558e+00 -2.947752747528e+02 -1.547788688857e-01 3.095577377714e-01 5.100595243887e+02  2.042204006385e-02
2.333333333333e+00 3.000317228242e+02 0.000000000000e+00 -1.407036062697e-02 2.350214996347e+02 4.688225991861e+00 -2.355531075002e+02 -1.063215731043e-01 2.126431462085e-01 4.076104874554e+02  1.631412269907e-02
3.000000000000e+00 2.747008821525e+02 0.000000000000e+00 -8.441675214032e-03 1.868919261279e+02 -2.339823138841e-01 -1.869555846702e+02 -1.273170846310e-02 2.546341692619e-02 3.237616957044e+02  1.295049826593e-02
3.666666666667e+00 2.731030328904e+02 0.000000000000e+00 -4.133777468477e-03 1.381579774703e+02 1.163107080055e+00 -1.383119766812e+02 -3.079984218309e-02 6.159968436617e-02 2.394384832270e+02  9.578556268060e-03
4.333333333333e+00 2.897170664531e+02 0.000000000000e+00 -1.180793071200e-03 8.249148372499e+01 -1.183509397211e-01 -8.393729298806e+01 -2.891618526143e-01 5.783237052285e-01 1.441323469672e+02  5.765311371267e-03
5.000000000000e+00 3.312376969681e+02 0.000000000000e+00 0.000000000000e+00 9.309575391432e+00 9.811211924569e-01 -1.089771641187e+01 -3.176282040870e-01 6.352564081741e-01 1.758879686538e+01  7.133348883326e-04
 TITLE = "Profiles along polylines"
 VARIABLES = "DIST" "PRESSURE1" "DISPLACEMENT_X1" "DISPLACEMENT_Y1" "STRESS_XX" "STRESS_XY" "STRESS_YY" "STRESS_ZZ"  p_(1st_Invariant)  q_(2nd_Invariant)   Effective_Strain
 ZONE T="TIME=5.000000000000e+00"
0.000000000000e+00 0.000000000000e+00 0.000000000000e+00 -4.428071466438e-02 -2.656492933242e+02 2.131870157334e+01 -8.860951178932e+02 -2.303488822435e+02 4.606977644869e+02 6.398942053328e+02  2.572329612937e-02
4.365028099238e-01 8.126354879187e+02 0.000000000000e+00 -3.698480143239e-02 2.569977141943e+02 -1.798843875077e+01 -1.764684806425e+02 1.610584671037e+01 -3.221169342073e+01 3.774574207866e+02  1.525182532631e-02
1.000000000000e+00 5.080709488933e+02 0.000000000000e+00 -3.031320680731e-02 3.507790275618e+02 1.051581190462e+01 -3.554010156111e+02 -9.243976098441e-01 1.848795219688e+00 6.118425937947e+02  2.450621473117e-02
1.666666666667e+00 3.681540674190e+02 0.000000000000e+00 -2.152903235773e-02 2.975290569472e+02 7.822702872558e+00 -2.988384375678e+02 -2.618761241197e-01 5.237522482394e-01 5.166472488355e+02  2.068719920536e-02
2.333333333333e+00 3.041696266038e+02 0.000000000000e+00 -1.430066642243e-02 2.381313302020e+02 4.773832670069e+00 -2.388247120219e+02 -1.386763639706e-01 2.773527279412e-01 4.131388524038e+02  1.653548023715e-02
3.000000000000e+00 2.780001698108e+02 0.000000000000e+00 -8.594315126482e-03 1.897439181388e+02 -2.290367555892e-01 -1.894053673993e+02 6.771014789488e-02 -1.354202957898e-01 3.283531684514e+02  1.313415549490e-02
3.666666666667e+00 2.754271688727e+02 0.000000000000e+00 -4.224766102281e-03 1.401868839273e+02 1.185734611009e+00 -1.404452844882e+02 -5.168011218960e-02 1.033602243792e-01 2.430432767457e+02  9.722772285343e-03
4.333333333333e+00 2.932723106963e+02 0.000000000000e+00 -1.233311773884e-03 8.427129754670e+01 1.382744403291e-01 -8.414066852100e+01 2.612580514079e-02 -5.225161028158e-02 1.458492428205e+02  5.833993309519e-03
5.000000000000e+00 3.279530410796e+02 0.000000000000e+00 0.000000000000e+00 7.910548442854e+00 7.205476777586e-01 -1.611330029027e+01 -1.640550369483e+00 3.281100738966e+00 2.098742981501e+01  8.439383018618e-04
 TITLE = "Profiles along polylines"
 VARIABLES = "DIST" "PRESSURE1" "DISPLACEMENT_X1" "DISPLACEMENT_Y1" "STRESS_XX" "STRESS_XY" "STRESS_YY" "STRESS_ZZ"  p_(1st_Invariant)  q_(2nd_Invariant)   Effective_Strain
 ZONE T="TIME=1.000000000000e+01"
0.000000000000e+00 0.000000000000e+00 0.000000000000e+00 -4.564901621839e-02 -2.784133541943e+02 1.013214634297e+01 -9.170132225117e+02 -2.390853153412e+02 4.781706306824e+02 6.593780008890e+02  2.640312986180e-02
4.365028099238e-01 7.284844098607e+02 0.000000000000e+00 -3.736396891426e-02 2.143409504241e+02 -6.310864387205e+00 -2.678845174322e+02 -1.070871340162e+01 2.141742680324e+01 4.180712315335e+02  1.673998794359e-02
1.000000000000e+00 5.322381084727e+02 0.000000000000e+00 -3.047141418073e-02 3.485265979469e+02 7.854851004914e+00 -3.404143777960e+02 1.622444030182e+00 -3.244888060364e+00 5.968004438894e+02  2.389061934686e-02
1.666666666667e+00 3.724482066389e+02 0.000000000000e+00 -2.176909481264e-02 2.994651085768e+02 8.234062810278e+00 -3.031448978545e+02 -7.359578555369e-01 1.471915711074e+00 5.220715783644e+02  2.090622609843e-02
2.333333333333e+00 3.076500995033e+02 0.000000000000e+00 -1.447616864767e-02 2.402280986988e+02 4.769173454021e+00 -2.407347365096e+02 -1.013275621515e-01 2.026551243031e-01 4.166079629417e+02  1.667414285295e-02
3.000000000000e+00 2.803630514735e+02 0.000000000000e+00 -8.718145400990e-03 1.916241994810e+02 -2.154266473684e-01 -1.912175915734e+02 8.132158152435e-02 -1.626431630487e-01 3.315509490846e+02  1.326206315875e-02
3.666666666667e+00 2.771886103342e+02 0.000000000000e+00 -4.305404524838e-03 1.415823372408e+02 1.202902401643e+00 -1.419222861527e+02 -6.798978237773e-02 1.359795647555e-01 2.455310671535e+02  9.822303412558e-03
4.333333333333e+00 2.957162038520e+02 0.000000000000e+00 -1.287715984495e-03 8.539304273193e+01 2.073673780118e-01 -8.438321735454e+01 2.019650754777e-01 -4.039301509554e-01 1.470313049920e+02  5.881304842801e-03
5.000000000000e+00 3.247107517316e+02 0.000000000000e+00 0.000000000000e+00 6.754843313329e+00 6.716121469525e-01 -2.089635429655e+01 -2.828302196645e+00 5.656604393289e+00 2.434734370590e+01  9.772227679842e-04
 ZONE T="TIME=2.000000000000e+01"
0.000000000000e+00 0.000000000000e+00 0.000000000000e+00 -4.765383185304e-02 -3.197907135944e+02 4.084146616272e+00 -9.414831066417e+02 -2.522547640472e+02 5.045095280944e+02 6.581026993605e+02  2.632866985437e-02
4.365028099238e-01 5.898566084869e+02 0.000000000000e+00 -3.830506680265e-02 1.494026801839e+02 -5.684865027407e-01 -4.128232496613e+02 -5.268411389549e+01 1.053682277910e+02 4.932743682289e+02  1.973109265879e-02
1.000000000000e+00 5.567565691566e+02 0.000000000000e+00 -3.057680316470e-02 3.440067796216e+02 7.964659797302e+00 -3.283799006981e+02 3.125375784695e+00 -6.250751569390e+00 5.824861983443e+02  2.331904263945e-02
1.666666666667e+00 3.803010003440e+02 0.000000000000e+00 -2.203762463052e-02 3.001082222729e+02 8.087354314094e+00 -3.035558442902e+02 -6.895244034543e-01 1.379048806908e+00 5.229770688977e+02  2.094158207170e-02
2.333333333333e+00 3.120727869554e+02 0.000000000000e+00 -1.470328727144e-02 2.423522880089e+02 5.019265955034e+00 -2.431674171362e+02 -1.630258254473e-01 3.260516508946e-01 4.205623342080e+02  1.683327249140e-02
3.000000000000e+00 2.834526942562e+02 0.000000000000e+00 -8.890365987739e-03 1.936320576507e+02 -2.296692989159e-01 -1.932350204091e+02 7.940744833016e-02 -1.588148966603e-01 3.350369748197e+02  1.340150733183e-02
3.666666666667e+00 2.796911123263e+02 0.000000000000e+00 -4.430153387691e-03 1.431724242964e+02 1.260093556729e+00 -1.434272462660e+02 -5.096439391970e-02 1.019287878394e-01 2.482122030164e+02  9.929639530070e-03
4.333333333333e+00 2.978335289839e+02 0.000000000000e+00 -1.378992604223e-03 8.637695633493e+01 2.023589986939e-01 -8.554674774090e+01 1.660417188048e-01 -3.320834376096e-01 1.488909160998e+02  5.955686148817e-03
5.000000000000e+00 3.195289680980e+02 0.000000000000e+00 0.000000000000e+00 5.069031453305e+00 7.022466707003e-01 -2.805946608220e+01 -4.598086925780e+00 9.196173851560e+00 2.953257304195e+01  1.184304841808e-03
