 TITLE = "Profiles along polylines"
 VARIABLES = "DIST" "PRESSURE1" "DISPLACEMENT_X1" "DISPLACEMENT_Y1" "DISPLACEMENT_Z1" "STRESS_XX" "STRESS_XY" "STRESS_YY" "STRESS_ZZ" "STRESS_XZ" "STRESS_YZ" "STRAIN_XX" "STRAIN_XY" "STRAIN_YY" "STRAIN_ZZ" "STRAIN_XZ" "STRAIN_YZ"  p_(1st_Invariant)  q_(2nd_Invariant)   Effective_Strain
 ZONE T="TIME=0.000000000000e+00"
0.000000000000e+00 0.000000000000e+00 0.000000000000e+00 0.000000000000e+00 0.000000000000e+00 0.000000000000e+00 0.000000000000e+00 0.000000000000e+00 0.000000000000e+00 0.000000000000e+00 0.000000000000e+00 0.000000000000e+00 0.000000000000e+00 0.000000000000e+00 0.000000000000e+00 0.000000000000e+00 0.000000000000e+00 -0.000000000000e+00 0.000000000000e+00  0.000000000000e+00
2.181972035872e-01 0.000000000000e+00 0.000000000000e+00 0.000000000000e+00 0.000000000000e+00 0.000000000000e+00 0.000000000000e+00 0.000000000000e+00 0.000000000000e+00 0.000000000000e+00 0.000000000000e+00 0.000000000000e+00 0.000000000000e+00 0.000000000000e+00 0.000000000000e+00 0.000000000000e+00 0.000000000000e+00 -0.000000000000e+00 0.000000000000e+00  0.000000000000e+00
4.125457250100e-01 0.000000000000e+00 0.000000000000e+00 0.000000000000e+00 0.000000000000e+00 0.000000000000e+00 0.000000000000e+00 0.000000000000e+00 0.000000000000e+00 0.000000000000e+00 0.000000000000e+00 0.000000000000e+00 0.000000000000e+00 0.000000000000e+00 0.000000000000e+00 0.000000000000e+00 0.000000000000e+00 -0.000000000000e+00 0.000000000000e+00  0.000000000000e+00
5.857583667610e-01 0.000000000000e+00 0.000000000000e+00 0.000000000000e+00 0.000000000000e+00 0.000000000000e+00 0.000000000000e+00 0.000000000000e+00 0.000000000000e+00 0.000000000000e+00 0.000000000000e+00 0.000000000000e+00 0.000000000000e+00 0.000000000000e+00 0.000000000000e+00 0.000000000000e+00 0.000000000000e+00 -0.000000000000e+00 0.000000000000e+00  0.000000000000e+00
7.400535647690e-01 0.000000000000e+00 0.000000000000e+00 0.000000000000e+00 0.000000000000e+00 0.000000000000e+00 0.000000000000e+00 0.000000000000e+00 0.000000000000e+00 0.000000000000e+00 0.000000000000e+00 0.000000000000e+00 0.000000000000e+00 0.000000000000e+00 0.000000000000e+00 0.000000000000e+00 0.000000000000e+00 -0.000000000000e+00 0.000000000000e+00  0.000000000000e+00
8.775223215788e-01 0.000000000000e+00 0.000000000000e+00 0.000000000000e+00 0.000000000000e+00 0.000000000000e+00 0.000000000000e+00 0.000000000000e+00 0.000000000000e+00 0.000000000000e+00 0.000000000000e+00 0.000000000000e+00 0.000000000000e+00 0.000000000000e+00 0.000000000000e+00 0.000000000000e+00 0.000000000000e+00 -0.000000000000e+00 0.000000000000e+00  0.000000000000e+00
1.000000000000e+00 0.000000000000e+00 0.000000000000e+00 0.000000000000e+00 0.000000000000e+00 0.000000000000e+00 0.000000000000e+00 0.000000000000e+00 0.000000000000e+00 0.000000000000e+00 0.000000000000e+00 0.000000000000e+00 0.000000000000e+00 0.000000000000e+00 0.000000000000e+00 0.000000000000e+00 0.000000000000e+00 -0.000000000000e+00 0.000000000000e+00  0.000000000000e+00
1.111444919589e+00 0.000000000000e+00 0.000000000000e+00 0.000000000000e+00 0.000000000000e+00 0.000000000000e+00 0.000000000000e+00 0.000000000000e+00 0.000000000000e+00 0.000000000000e+00 0.000000000000e+00 0.000000000000e+00 0.000000000000e+00 0.000000000000e+00 0.000000000000e+00 0.000000000000e+00 0.000000000000e+00 -0.000000000000e+00 0.000000000000e+00  0.000000000000e+00
1.247692203881e+00 0.000000000000e+00 0.000000000000e+00 0.000000000000e+00 0.000000000000e+00 0.000000000000e+00 0.000000000000e+00 0.000000000000e+00 0.000000000000e+00 0.000000000000e+00 0.000000000000e+00 0.000000000000e+00 0.000000000000e+00 0.000000000000e+00 0.000000000000e+00 0.000000000000e+00 0.000000000000e+00 -0.000000000000e+00 0.000000000000e+00  0.000000000000e+00
1.414321188228e+00 0.000000000000e+00 0.000000000000e+00 0.000000000000e+00 0.000000000000e+00 0.000000000000e+00 0.000000000000e+00 0.000000000000e+00 0.000000000000e+00 0.000000000000e+00 0.000000000000e+00 0.000000000000e+00 0.000000000000e+00 0.000000000000e+00 0.000000000000e+00 0.000000000000e+00 0.000000000000e+00 -0.000000000000e+00 0.000000000000e+00  0.000000000000e+00
1.618065635460e+00 0.000000000000e+00 0.000000000000e+00 0.000000000000e+00 0.000000000000e+00 0.000000000000e+00 0.000000000000e+00 0.000000000000e+00 0.000000000000e+00 0.000000000000e+00 0.000000000000e+00 0.000000000000e+00 0.000000000000e+00 0.000000000000e+00 0.000000000000e+00 0.000000000000e+00 0.000000000000e+00 -0.000000000000e+00 0.000000000000e+00  0.000000000000e+00
1.867245271842e+00 0.000000000000e+00 0.000000000000e+00 0.000000000000e+00 0.000000000000e+00 0.000000000000e+00 0.000000000000e+00 0.000000000000e+00 0.000000000000e+00 0.000000000000e+00 0.000000000000e+00 0.000000000000e+00 0.000000000000e+00 0.000000000000e+00 0.000000000000e+00 0.000000000000e+00 0.000000000000e+00 -0.000000000000e+00 0.000000000000e+00  0.000000000000e+00
2.171918810517e+00 0.000000000000e+00 0.000000000000e+00 0.000000000000e+00 0.000000000000e+00 0.000000000000e+00 0.000000000000e+00 0.000000000000e+00 0.000000000000e+00 0.000000000000e+00 0.000000000000e+00 0.000000000000e+00 0.000000000000e+00 0.000000000000e+00 0.000000000000e+00 0.000000000000e+00 0.000000000000e+00 -0.000000000000e+00 0.000000000000e+00  0.000000000000e+00
2.544474854015e+00 0.000000000000e+00 0.000000000000e+00 0.000000000000e+00 0.000000000000e+00 0.000000000000e+00 0.000000000000e+00 0.000000000000e+00 0.000000000000e+00 0.000000000000e+00 0.000000000000e+00 0.000000000000e+00 0.000000000000e+00 0.000000000000e+00 0.000000000000e+00 0.000000000000e+00 0.000000000000e+00 -0.000000000000e+00 0.000000000000e+00  0.000000000000e+00
3.000000000000e+00 0.000000000000e+00 0.000000000000e+00 0.000000000000e+00 0.000000000000e+00 0.000000000000e+00 0.000000000000e+00 0.000000000000e+00 0.000000000000e+00 0.000000000000e+00 0.000000000000e+00 0.000000000000e+00 0.000000000000e+00 0.000000000000e+00 0.000000000000e+00 0.000000000000e+00 0.000000000000e+00 -0.000000000000e+00 0.000000000000e+00  0.000000000000e+00
3.666666666667e+00 0.000000000000e+00 0.000000000000e+00 0.000000000000e+00 0.000000000000e+00 0.000000000000e+00 0.000000000000e+00 0.000000000000e+00 0.000000000000e+00 0.000000000000e+00 0.000000000000e+00 0.000000000000e+00 0.000000000000e+00 0.000000000000e+00 0.000000000000e+00 0.000000000000e+00 0.000000000000e+00 -0.000000000000e+00 0.000000000000e+00  0.000000000000e+00
4.333333333333e+00 0.000000000000e+00 0.000000000000e+00 0.000000000000e+00 0.000000000000e+00 0.000000000000e+00 0.000000000000e+00 0.000000000000e+00 0.000000000000e+00 0.000000000000e+00 0.000000000000e+00 0.000000000000e+00 0.000000000000e+00 0.000000000000e+00 0.000000000000e+00 0.000000000000e+00 0.000000000000e+00 -0.000000000000e+00 0.000000000000e+00  0.000000000000e+00
5.000000000000e+00 0.000000000000e+00 0.000000000000e+00 0.000000000000e+00 0.000000000000e+00 0.000000000000e+00 0.000000000000e+00 0.000000000000e+00 0.000000000000e+00 0.000000000000e+00 0.000000000000e+00 0.000000000000e+00 0.000000000000e+00 0.000000000000e+00 0.000000000000e+00 0.000000000000e+00 0.000000000000e+00 -0.000000000000e+00 0.000000000000e+00  0.000000000000e+00
 TITLE = "Profiles along polylines"
 VARIABLES = "DIST" "PRESSURE1" "DISPLACEMENT_X1" "DISPLACEMENT_Y1" "DISPLACEMENT_Z1" "STRESS_XX" "STRESS_XY" "STRESS_YY" "STRESS_ZZ" "STRESS_XZ" "STRESS_YZ" "STRAIN_XX" "STRAIN_XY" "STRAIN_YY" "STRAIN_ZZ" "STRAIN_XZ" "STRAIN_YZ"  p_(1st_Invariant)  q_(2nd_Invariant)   Effective_Strain
 ZONE T="TIME=1.000000000000e+00"
0.000000000000e+00 0.000000000000e+00 0.000000000000e+00 0.000000000000e+00 -4.846154717967e-02 -5.247937103816e+02 3.392026766316e-01 -5.918833308056e+02 -8.386962257355e+02 1.686013524925e+00 3.752603899421e+00 3.011849964369e-03 3.233732183888e-05 -1.860886091746e-04 -1.195083660083e-02 1.607332893762e-04 3.577482384115e-04 6.517910889743e+02 2.864041286665e+02  1.366468594306e-02
2.181972035872e-01 7.546745580829e+02 0.000000000000e+00 0.000000000000e+00 -4.619400655340e-02 9.468814045372e+01 1.260675095507e-01 -8.055119487400e+01 -2.676769082606e+02 -3.561917049692e-01 -2.817026696038e+00 8.147540826720e-03 1.201843591050e-05 -2.055341572344e-04 -9.125193161996e-03 -3.395694254040e-05 -2.685565450223e-04 8.451332089363e+01 3.139122140153e+02  1.496866792172e-02
4.125457250100e-01 7.164112283801e+02 0.000000000000e+00 0.000000000000e+00 -4.413031628087e-02 2.502070723568e+02 2.499738454611e-01 -7.030551271537e+00 -2.653933543730e+02 2.843866992083e+00 -5.635134067299e-01 1.224497839280e-02 2.383083993396e-05 -1.668166681844e-05 -1.233197528132e-02 2.711153199119e-04 -5.372161144158e-05 7.405611095926e+00 4.465518663956e+02  2.128970597204e-02
5.857583667610e-01 6.404223693172e+02 0.000000000000e+00 0.000000000000e+00 -4.176429519962e-02 3.119060646055e+02 -9.920084197691e-02 4.717708906921e-01 -3.114945119720e+02 5.485927959467e+00 4.241442801781e-02 1.485486144235e-02 -9.457146935132e-06 9.826775276222e-06 -1.486056604118e-02 5.229917988025e-04 4.043508804365e-06 -2.944411747310e-01 5.399644442434e+02  2.575026237309e-02
7.400535647690e-01 5.769914126367e+02 0.000000000000e+00 0.000000000000e+00 -3.938294540210e-02 3.338409049910e+02 -1.654206725130e-02 5.655816724899e-01 -3.333068767172e+02 4.808270688440e+00 8.155768470046e-02 1.589732206201e-02 -1.577010411290e-06 1.119831715811e-05 -1.590338886608e-02 4.583884722979e-04 7.775165941444e-06 -3.665366487731e-01 5.778270418543e+02  2.755167259870e-02
8.775223215788e-01 5.286595817204e+02 0.000000000000e+00 0.000000000000e+00 -3.715675716644e-02 3.434368667386e+02 -1.750616114919e-01 3.576600139718e-01 -3.430151939340e+02 6.512013777331e+00 -7.087946990718e-02 1.635932021081e-02 -1.668920696223e-05 5.878023600051e-06 -1.636156134792e-02 6.208119801056e-04 -6.757176131151e-06 -2.597776061847e-01 5.945920208346e+02  2.835752654194e-02
1.000000000000e+00 4.906762370260e+02 0.000000000000e+00 0.000000000000e+00 -3.514712979027e-02 3.439507338839e+02 -1.626785216883e-03 5.161266958485e-02 -3.439438160745e+02 5.812619964640e+00 -2.267337715035e-02 1.639414604493e-02 -1.550868573429e-07 1.621267052126e-06 -1.639549416975e-02 5.541364366290e-04 -2.161528621667e-06 -1.951015964541e-02 5.958192237738e+02  2.841287736194e-02
1.111444919589e+00 4.609343125339e+02 0.000000000000e+00 0.000000000000e+00 -3.332810117328e-02 3.398841689143e+02 1.941933778689e-02 5.043424841591e-02 -3.399832179660e+02 4.536227844364e+00 -5.387306650064e-03 1.620184219710e-02 1.851310202350e-06 3.100844687838e-06 -1.620516991087e-02 4.324537211627e-04 -5.135899006395e-07 1.620493441891e-02 5.888348589435e+02  2.807528998537e-02
1.247692203881e+00 4.296442190190e+02 0.000000000000e+00 0.000000000000e+00 -3.114384974932e-02 3.327337530970e+02 -1.386305659423e-01 2.627949567247e-01 -3.322315893737e+02 6.412290632255e+00 1.403510976474e-01 1.584934448988e-02 -1.321611395317e-05 1.562151856721e-06 -1.584733683456e-02 6.113050402750e-04 1.338013797572e-05 -2.549862266781e-01 5.759840703671e+02  2.747056330305e-02
1.414321188228e+00 3.971220706206e+02 0.000000000000e+00 0.000000000000e+00 -2.856335153535e-02 3.170555522347e+02 -1.985861778288e-01 1.011850993454e-01 -3.168678276060e+02 7.766859772655e+00 -1.419777938018e-01 1.510884028375e-02 -1.893188228635e-05 6.821169672413e-07 -1.510817415532e-02 7.404406316598e-04 -1.353521634244e-05 -9.630324267183e-02 5.491587109386e+02  2.620014032733e-02
1.618065635460e+00 3.650486322594e+02 0.000000000000e+00 0.000000000000e+00 -2.555900282950e-02 2.990582992311e+02 -5.177294409960e-02 1.634470088987e-01 -2.985959969031e+02 7.381072224997e+00 5.781322746147e-02 1.424614318952e-02 -4.935687337495e-06 -1.178099738805e-06 -1.424204492621e-02 7.036622187830e-04 5.511527684661e-06 -2.085831123173e-01 5.177416890686e+02  2.470158381099e-02
1.867245271842e+00 3.352509859776e+02 0.000000000000e+00 0.000000000000e+00 -2.213969452166e-02 2.769618825348e+02 -2.245744156401e-01 5.184798708465e-01 -2.764006439795e+02 8.810140450782e+00 1.626221248927e-01 1.318637377005e-02 -2.140942762435e-05 9.238243068363e-06 -1.319057332713e-02 8.399000563079e-04 1.550330923977e-05 -3.599061420618e-01 4.794691932268e+02  2.288943041316e-02
2.171918810517e+00 3.076096391402e+02 0.000000000000e+00 0.000000000000e+00 -1.834603713111e-02 2.455396410224e+02 -1.269112507242e-01 -2.503795168106e-01 -2.460713244369e+02 7.059171676753e+00 3.793658988395e-02 1.171526579075e-02 -1.209887256904e-05 -7.251882849454e-07 -1.171819022948e-02 6.729743665171e-04 3.616621568936e-06 2.606876437913e-01 4.259231792356e+02  2.032742748638e-02
2.544474854015e+00 2.868913001122e+02 0.000000000000e+00 0.000000000000e+00 -1.423518678795e-02 2.170175005592e+02 -1.745565198558e-01 -6.786760174353e-02 -2.167988339700e+02 7.828656830567e+00 4.089642061430e-02 1.034233940783e-02 -1.664105489292e-05 -5.396474502817e-06 -1.033623920472e-02 7.463319511807e-04 3.898792098563e-06 -5.026632914046e-02 3.759407539882e+02  1.795479579225e-02
3.000000000000e+00 2.731765871483e+02 0.000000000000e+00 0.000000000000e+00 -9.897002742609e-03 1.812019248179e+02 -2.196256656146e-01 1.506789162224e-02 -1.818704997998e+02 7.720358957295e+00 -1.090371367385e-02 8.646658684615e-03 -2.093764678859e-05 1.008517112810e-05 -8.659793555498e-03 7.360075539288e-04 -1.039487370240e-06 2.178356967622e-01 3.147145819275e+02  1.504199733808e-02
3.666666666667e+00 2.709617137000e+02 0.000000000000e+00 0.000000000000e+00 -4.840095184367e-03 1.352934079121e+02 -1.551271091407e-01 -1.971417174969e-01 -1.357825790323e+02 4.243333851317e+00 -1.446274681623e-01 6.458822927818e-03 -1.478878440474e-05 4.400621399690e-07 -6.462465783200e-03 4.045311604922e-04 -1.378781863147e-05 2.287709459067e-01 2.348740042351e+02  1.121213380205e-02
4.333333333333e+00 2.887962090613e+02 0.000000000000e+00 0.000000000000e+00 -1.382025035419e-03 8.425882002183e+01 -1.735274771791e-01 -6.850868472117e-02 -8.441044326325e+01 4.230391959023e+00 4.649917112695e-02 4.019492311982e-03 -1.654295282440e-05 -1.103563637968e-07 -4.020409237940e-03 4.032973667602e-04 4.432920980769e-06 7.337730871115e-02 1.462558573406e+02  6.997773865941e-03
5.000000000000e+00 3.232769839234e+02 0.000000000000e+00 0.000000000000e+00 0.000000000000e+00 1.987591705921e+00 -2.326465080735e-01 -6.876115386554e+00 -1.791987408515e+01 5.774345627018e+00 1.006506668777e-01 4.216622392919e-04 -2.217896710300e-05 -8.411321161318e-07 -5.272602967494e-04 5.504876164423e-04 9.595363575671e-06 7.602799255262e+00 1.996598404894e+01  1.260516516312e-03
