 TITLE = "Profiles along polylines"
 VARIABLES = "DIST" "PRESSURE1" "DISPLACEMENT_X1" "DISPLACEMENT_Y1" "STRESS_XX" "STRESS_XY" "STRESS_YY" "STRESS_ZZ"  p_(1st_Invariant)  q_(2nd_Invariant)   Effective_Strain
 ZONE T="TIME=0.000000000000e+00"
0.000000000000e+00 0.000000000000e+00 0.000000000000e+00 0.000000000000e+00 0.000000000000e+00 0.000000000000e+00 0.000000000000e+00 0.000000000000e+00 -0.000000000000e+00 0.000000000000e+00  0.000000000000e+00
4.365028099238e-01 0.000000000000e+00 0.000000000000e+00 0.000000000000e+00 0.000000000000e+00 0.000000000000e+00 0.000000000000e+00 0.000000000000e+00 -0.000000000000e+00 0.000000000000e+00  0.000000000000e+00
1.000000000000e+00 0.000000000000e+00 0.000000000000e+00 0.000000000000e+00 0.000000000000e+00 0.000000000000e+00 0.000000000000e+00 0.000000000000e+00 -0.000000000000e+00 0.000000000000e+00  0.000000000000e+00
1.571428571429e+00 0.000000000000e+00 0.000000000000e+00 0.000000000000e+00 0.000000000000e+00 0.000000000000e+00 0.000000000000e+00 0.000000000000e+00 -0.000000000000e+00 0.000000000000e+00  0.000000000000e+00
2.142857142857e+00 0.000000000000e+00 0.000000000000e+00 0.000000000000e+00 0.000000000000e+00 0.000000000000e+00 0.000000000000e+00 0.000000000000e+00 -0.000000000000e+00 0.000000000000e+00  0.000000000000e+00
2.714285714286e+00 0.000000000000e+00 0.000000000000e+00 0.000000000000e+00 0.000000000000e+00 0.000000000000e+00 0.000000000000e+00 0.000000000000e+00 -0.000000000000e+00 0.000000000000e+00  0.000000000000e+00
3.285714285714e+00 0.000000000000e+00 0.000000000000e+00 0.000000000000e+00 0.000000000000e+00 0.000000000000e+00 0.000000000000e+00 0.000000000000e+00 -0.000000000000e+00 0.000000000000e+00  0.000000000000e+00
3.857142857143e+00 0.000000000000e+00 0.000000000000e+00 0.000000000000e+00 0.000000000000e+00 0.000000000000e+00 0.000000000000e+00 0.000000000000e+00 -0.000000000000e+00 0.000000000000e+00  0.000000000000e+00
4.428571428571e+00 0.000000000000e+00 0.000000000000e+00 0.000000000000e+00 0.000000000000e+00 0.000000000000e+00 0.000000000000e+00 0.000000000000e+00 -0.000000000000e+00 0.000000000000e+00  0.000000000000e+00
5.000000000000e+00 0.000000000000e+00 0.000000000000e+00 0.000000000000e+00 0.000000000000e+00 0.000000000000e+00 0.000000000000e+00 0.000000000000e+00 -0.000000000000e+00 0.000000000000e+00  0.000000000000e+00
 TITLE = "Profiles along polylines"
 VARIABLES = "DIST" "PRESSURE1" "DISPLACEMENT_X1" "DISPLACEMENT_Y1" "STRESS_XX" "STRESS_XY" "STRESS_YY" "STRESS_ZZ"  p_(1st_Invariant)  q_(2nd_Invariant)   Effective_Strain
 ZONE T="TIME=1.000000000000e+00"
0.000000000000e+00 0.000000000000e+00 -3.441623805223e-04 -2.439444772365e-02 -1.237082158667e+02 1.484691595842e+02 -4.270362809630e+02 -1.101488993659e+02 2.202977987319e+02 4.030309732764e+02  2.402737730336e-02
4.365028099238e-01 4.567375721369e+02 9.643301587672e-03 -2.163771000231e-02 1.221734821332e+02 3.275534109369e+02 -6.118068824040e+01 1.219855877855e+01 -2.439711755711e+01 5.894256405822e+02  4.583524790243e-02
1.000000000000e+00 3.396066272010e+02 1.126523910320e-02 -1.892091645248e-02 1.440333864939e+02 2.559323477098e+02 -1.511722520038e+02 -1.427773101992e+00 2.855546203984e+00 5.117308504179e+02  3.690811862358e-02
1.571428571429e+00 3.019110206396e+02 1.030361835827e-02 -1.531606638337e-02 1.727344877853e+02 1.833424343326e+02 -1.707540723115e+02 3.960830947745e-01 -7.921661895489e-01 4.351229606136e+02  2.805315026577e-02
2.142857142857e+00 2.710782721632e+02 8.856981434359e-03 -1.156898664605e-02 1.634959285587e+02 1.284063296905e+02 -1.637373324193e+02 -4.828077212339e-02 9.656154424678e-02 3.602440382245e+02  2.109670824058e-02
2.714285714286e+00 2.552633922364e+02 7.423097707025e-03 -8.042436069086e-03 1.473193297665e+02 8.763852922749e+01 -1.475030497513e+02 -3.674399695264e-02 7.348799390527e-02 2.970382383661e+02  1.586726548832e-02
3.285714285714e+00 2.503534009849e+02 6.022150078970e-03 -4.951194568819e-03 1.239322945348e+02 6.342461397111e+01 -1.242502262341e+02 -6.358633985933e-02 1.271726797186e-01 2.413793213612e+02  1.229426609097e-02
3.857142857143e+00 2.560145356315e+02 4.524074048644e-03 -2.438185085378e-03 9.858138043408e+01 5.053429952952e+01 -9.864557589624e+01 -1.283909243328e-02 2.567818486655e-02 1.919244666144e+02  9.783123406819e-03
4.428571428571e+00 2.716745651793e+02 2.663527555377e-03 -6.870229778275e-04 5.750527686810e+01 5.127318198780e+01 -5.792159240723e+01 -8.326310782608e-02 1.665262156522e-01 1.337137045526e+02  8.152526725432e-03
5.000000000000e+00 3.001118443043e+02 0.000000000000e+00 0.000000000000e+00 5.396496455641e+00 6.620401009774e+01 -6.216667553456e+00 -1.640342195630e-01 3.280684391259e-01 1.151091768021e+02  9.182318762599e-03
 TITLE = "Profiles along polylines"
 VARIABLES = "DIST" "PRESSURE1" "DISPLACEMENT_X1" "DISPLACEMENT_Y1" "STRESS_XX" "STRESS_XY" "STRESS_YY" "STRESS_ZZ"  p_(1st_Invariant)  q_(2nd_Invariant)   Effective_Strain
 ZONE T="TIME=5.000000000000e+00"
0.000000000000e+00 0.000000000000e+00 -2.097512221660e-03 -2.514841045312e-02 -1.036084488685e+02 1.809717672181e+02 -4.659583276466e+02 -1.139133553030e+02 2.278267106060e+02 4.753125137632e+02  2.886323642312e-02
4.365028099238e-01 4.486997183077e+02 8.901265322374e-03 -2.158293555012e-02 1.103325066276e+02 2.939065981107e+02 -8.151260590946e+01 5.763980143621e+00 -1.152796028724e+01 5.355571196831e+02  4.126502100638e-02
1.000000000000e+00 3.484372306985e+02 1.117739611440e-02 -1.899498242617e-02 1.404990641082e+02 2.560279712026e+02 -1.450163475531e+02 -9.034566889885e-01 1.806913377977e+00 5.077323018707e+02  3.682922727847e-02
1.571428571429e+00 3.055654925576e+02 1.036060265481e-02 -1.544125393863e-02 1.722348444600e+02 1.862961654057e+02 -1.706226495299e+02 3.224389860202e-01 -6.448779720405e-01 4.385002434993e+02  2.841517382675e-02
2.142857142857e+00 2.742148481747e+02 8.945181700544e-03 -1.169283622904e-02 1.641135906635e+02 1.308283609026e+02 -1.643064959555e+02 -3.858105839431e-02 7.716211678860e-02 3.636523042270e+02  2.140233776082e-02
2.714285714286e+00 2.577841625959e+02 7.511561906077e-03 -8.147049435062e-03 1.485660751389e+02 8.947515226324e+01 -1.486614177643e+02 -1.906852509383e-02 3.813705018766e-02 3.004588929269e+02  1.611596833909e-02
3.285714285714e+00 2.524768115163e+02 6.099319538208e-03 -5.028980510074e-03 1.251781267233e+02 6.472274715394e+01 -1.254047384003e+02 -4.532233540046e-02 9.064467080091e-02 2.442558818931e+02  1.248116929341e-02
3.857142857143e+00 2.577655122393e+02 4.584526646884e-03 -2.490328375283e-03 9.962631009497e+01 5.149274556544e+01 -9.986275529656e+01 -4.728904031735e-02 9.457808063469e-02 1.944258958505e+02  9.932971727741e-03
4.428571428571e+00 2.739966794282e+02 2.700044328156e-03 -7.220832835769e-04 5.818312642259e+01 5.229883371658e+01 -5.812211077643e+01 1.220312923180e-02 -2.440625846359e-02 1.354647020790e+02  8.291412191647e-03
5.000000000000e+00 2.975353347855e+02 0.000000000000e+00 0.000000000000e+00 4.159806347779e+00 6.707122301467e+01 -1.034741489594e+01 -1.237521709631e+00 2.475043419263e+00 1.168628994000e+02  9.307534828628e-03
 TITLE = "Profiles along polylines"
 VARIABLES = "DIST" "PRESSURE1" "DISPLACEMENT_X1" "DISPLACEMENT_Y1" "STRESS_XX" "STRESS_XY" "STRESS_YY" "STRESS_ZZ"  p_(1st_Invariant)  q_(2nd_Invariant)   Effective_Strain
 ZONE T="TIME=1.000000000000e+01"
0.000000000000e+00 0.000000000000e+00 -3.378385438591e-03 -2.579022431004e-02 -9.909571197922e+01 1.973895728998e+02 -4.792336386755e+02 -1.156658701309e+02 2.313317402619e+02 5.053398839968e+02  3.113922773002e-02
4.365028099238e-01 4.033759035165e+02 8.227847632271e-03 -2.172948979041e-02 8.930412453036e+01 2.779238228697e+02 -1.260228380022e+02 -7.343742694364e+00 1.468748538873e+01 5.163531478585e+02  3.922846793174e-02
1.000000000000e+00 3.570009174850e+02 1.105166172418e-02 -1.902190352416e-02 1.351357895548e+02 2.522304876063e+02 -1.362288571428e+02 -2.186135176042e-01 4.372270352084e-01 4.960744326954e+02  3.619219391365e-02
1.571428571429e+00 3.082523773562e+02 1.037625592721e-02 -1.553764252711e-02 1.716426567370e+02 1.879020839256e+02 -1.706807600264e+02 1.923793421305e-01 -3.847586842611e-01 4.402393144089e+02  2.860979950279e-02
2.142857142857e+00 2.766505882468e+02 8.998883825106e-03 -1.179009681141e-02 1.643639267337e+02 1.324308788418e+02 -1.645925544730e+02 -4.572554786118e-02 9.145109572236e-02 3.657500411657e+02  2.160053820255e-02
2.714285714286e+00 2.597153096882e+02 7.571291106322e-03 -8.232614444815e-03 1.493719238128e+02 9.077584825402e+01 -1.494396411618e+02 -1.354346979292e-02 2.708693958583e-02 3.027986588698e+02  1.628984073339e-02
3.285714285714e+00 2.541510390426e+02 6.153173111066e-03 -5.096415711372e-03 1.260900544992e+02 6.571929131697e+01 -1.262002540399e+02 -2.203990812330e-02 4.407981624659e-02 2.463633022259e+02  1.262163881242e-02
3.857142857143e+00 2.591921277852e+02 4.626813423302e-03 -2.540129675684e-03 1.003936741186e+02 5.226795507696e+01 -1.006390340027e+02 -4.907197682994e-02 9.814395365987e-02 1.962305661788e+02  1.004739864874e-02
4.428571428571e+00 2.755907620019e+02 2.724998964708e-03 -7.593589788927e-04 5.867250692217e+01 5.308180476008e+01 -5.849186261248e+01 3.612886193851e-02 -7.225772387701e-02 1.369257245481e+02  8.400738635362e-03
5.000000000000e+00 2.950805384869e+02 0.000000000000e+00 0.000000000000e+00 3.214055953745e+00 6.767628856946e+01 -1.417514555227e+01 -2.192217919705e+00 4.384435839411e+00 1.182279215923e+02  9.397749667223e-03
 ZONE T="TIME=2.000000000000e+01"
0.000000000000e+00 0.000000000000e+00 -4.940525009072e-03 -2.677029273891e-02 -1.051590130965e+02 2.097834739416e+02 -4.877037998598e+02 -1.185725625913e+02 2.371451251825e+02 5.228924091777e+02  3.272915336581e-02
4.365028099238e-01 3.310547785512e+02 7.268428001494e-03 -2.217033102413e-02 6.043594027041e+01 2.709016942755e+02 -1.960813673039e+02 -2.712908540670e+01 5.425817081340e+01 5.207398602629e+02  3.860900524424e-02
1.000000000000e+00 3.650787874066e+02 1.074093858243e-02 -1.905008767101e-02 1.302162063597e+02 2.419794657646e+02 -1.313330724877e+02 -2.233732256014e-01 4.467464512028e-01 4.764119192143e+02  3.473222995283e-02
1.571428571429e+00 3.131030668817e+02 1.034470191002e-02 -1.565837930607e-02 1.700588659113e+02 1.888404000204e+02 -1.684349915407e+02 3.247748741023e-01 -6.495497482047e-01 4.392219211472e+02  2.867367199742e-02
2.142857142857e+00 2.798425025272e+02 9.040398357859e-03 -1.192336550421e-02 1.644723296248e+02 1.339283003402e+02 -1.649754364679e+02 -1.006213686144e-01 2.012427372287e-01 3.677122035154e+02  2.178599077581e-02
2.714285714286e+00 2.623603260047e+02 7.633251010566e-03 -8.354104133921e-03 1.501967926172e+02 9.222319540403e+01 -1.502203738483e+02 -4.716246213244e-03 9.432492426492e-03 3.052920057781e+02  1.648025576145e-02
3.285714285714e+00 2.563573067013e+02 6.213525699595e-03 -5.198415600638e-03 1.271091826388e+02 6.696796773598e+01 -1.271229115882e+02 -2.745789883879e-03 5.491579767746e-03 2.488565740066e+02  1.279324651528e-02
3.857142857143e+00 2.612176590090e+02 4.674728473190e-03 -2.623053505956e-03 1.012927859536e+02 5.333521546938e+01 -1.013687059266e+02 -1.518399461112e-02 3.036798922226e-02 1.983373297303e+02  1.019329216668e-02
4.428571428571e+00 2.767411187753e+02 2.751777120053e-03 -8.224565842496e-04 5.903587467365e+01 5.414240070683e+01 -5.982791433852e+01 -1.584079329750e-01 3.168158659499e-01 1.392505130190e+02  8.557878369292e-03
5.000000000000e+00 2.912322671283e+02 0.000000000000e+00 0.000000000000e+00 1.869530473632e+00 6.828243199397e+01 -1.988369002684e+01 -3.602831910641e+00 7.205663821281e+00 1.198815223612e+02  9.493913340640e-03
