 TITLE = "Profiles along polylines"
 VARIABLES = "DIST" "PRESSURE1" "DISPLACEMENT_X1" "DISPLACEMENT_Y1"  p_(1st_Invariant)  q_(2nd_Invariant)   Effective_Strain
 ZONE T="TIME=0.000000000000e+00"
0.000000000000e+00 0.000000000000e+00 0.000000000000e+00 0.000000000000e+00 -0.000000000000e+00 0.000000000000e+00  0.000000000000e+00
1.027078831439e-02 0.000000000000e+00 0.000000000000e+00 0.000000000000e+00 -0.000000000000e+00 0.000000000000e+00  0.000000000000e+00
2.095579726046e-02 0.000000000000e+00 0.000000000000e+00 0.000000000000e+00 -0.000000000000e+00 0.000000000000e+00  0.000000000000e+00
3.207786985738e-02 0.000000000000e+00 0.000000000000e+00 0.000000000000e+00 -0.000000000000e+00 0.000000000000e+00  0.000000000000e+00
4.365795665274e-02 0.000000000000e+00 0.000000000000e+00 0.000000000000e+00 -0.000000000000e+00 0.000000000000e+00  0.000000000000e+00
5.571534163644e-02 0.000000000000e+00 0.000000000000e+00 0.000000000000e+00 -0.000000000000e+00 0.000000000000e+00  0.000000000000e+00
6.826783355915e-02 0.000000000000e+00 0.000000000000e+00 0.000000000000e+00 -0.000000000000e+00 0.000000000000e+00  0.000000000000e+00
8.133192903590e-02 0.000000000000e+00 0.000000000000e+00 0.000000000000e+00 -0.000000000000e+00 0.000000000000e+00  0.000000000000e+00
9.493635849425e-02 0.000000000000e+00 0.000000000000e+00 0.000000000000e+00 -0.000000000000e+00 0.000000000000e+00  0.000000000000e+00
1.090948080906e-01 0.000000000000e+00 0.000000000000e+00 0.000000000000e+00 -0.000000000000e+00 0.000000000000e+00  0.000000000000e+00
1.238407989588e-01 0.000000000000e+00 0.000000000000e+00 0.000000000000e+00 -0.000000000000e+00 0.000000000000e+00  0.000000000000e+00
1.391895614642e-01 0.000000000000e+00 0.000000000000e+00 0.000000000000e+00 -0.000000000000e+00 0.000000000000e+00  0.000000000000e+00
1.551674274464e-01 0.000000000000e+00 0.000000000000e+00 0.000000000000e+00 -0.000000000000e+00 0.000000000000e+00  0.000000000000e+00
1.717986916992e-01 0.000000000000e+00 0.000000000000e+00 0.000000000000e+00 -0.000000000000e+00 0.000000000000e+00  0.000000000000e+00
1.891202423411e-01 0.000000000000e+00 0.000000000000e+00 0.000000000000e+00 -0.000000000000e+00 0.000000000000e+00  0.000000000000e+00
2.071452132758e-01 0.000000000000e+00 0.000000000000e+00 0.000000000000e+00 -0.000000000000e+00 0.000000000000e+00  0.000000000000e+00
2.259159003327e-01 0.000000000000e+00 0.000000000000e+00 0.000000000000e+00 -0.000000000000e+00 0.000000000000e+00  0.000000000000e+00
2.454553372135e-01 0.000000000000e+00 0.000000000000e+00 0.000000000000e+00 -0.000000000000e+00 0.000000000000e+00  0.000000000000e+00
2.657958002743e-01 0.000000000000e+00 0.000000000000e+00 0.000000000000e+00 -0.000000000000e+00 0.000000000000e+00  0.000000000000e+00
2.869820737070e-01 0.000000000000e+00 0.000000000000e+00 0.000000000000e+00 -0.000000000000e+00 0.000000000000e+00  0.000000000000e+00
3.090302591577e-01 0.000000000000e+00 0.000000000000e+00 0.000000000000e+00 -0.000000000000e+00 0.000000000000e+00  0.000000000000e+00
3.319808966566e-01 0.000000000000e+00 0.000000000000e+00 0.000000000000e+00 -0.000000000000e+00 0.000000000000e+00  0.000000000000e+00
3.558736196309e-01 0.000000000000e+00 0.000000000000e+00 0.000000000000e+00 -0.000000000000e+00 0.000000000000e+00  0.000000000000e+00
3.807449903129e-01 0.000000000000e+00 0.000000000000e+00 0.000000000000e+00 -0.000000000000e+00 0.000000000000e+00  0.000000000000e+00
4.066333808964e-01 0.000000000000e+00 0.000000000000e+00 0.000000000000e+00 -0.000000000000e+00 0.000000000000e+00  0.000000000000e+00
4.336013132129e-01 0.000000000000e+00 0.000000000000e+00 0.000000000000e+00 -0.000000000000e+00 0.000000000000e+00  0.000000000000e+00
4.616595392039e-01 0.000000000000e+00 0.000000000000e+00 0.000000000000e+00 -0.000000000000e+00 0.000000000000e+00  0.000000000000e+00
4.908798744802e-01 0.000000000000e+00 0.000000000000e+00 0.000000000000e+00 -0.000000000000e+00 0.000000000000e+00  0.000000000000e+00
5.212997813718e-01 0.000000000000e+00 0.000000000000e+00 0.000000000000e+00 -0.000000000000e+00 0.000000000000e+00  0.000000000000e+00
5.529651305953e-01 0.000000000000e+00 0.000000000000e+00 0.000000000000e+00 -0.000000000000e+00 0.000000000000e+00  0.000000000000e+00
5.859254847404e-01 0.000000000000e+00 0.000000000000e+00 0.000000000000e+00 -0.000000000000e+00 0.000000000000e+00  0.000000000000e+00
6.202541854239e-01 0.000000000000e+00 0.000000000000e+00 0.000000000000e+00 -0.000000000000e+00 0.000000000000e+00  0.000000000000e+00
6.559765085227e-01 0.000000000000e+00 0.000000000000e+00 0.000000000000e+00 -0.000000000000e+00 0.000000000000e+00  0.000000000000e+00
6.931783144525e-01 0.000000000000e+00 0.000000000000e+00 0.000000000000e+00 -0.000000000000e+00 0.000000000000e+00  0.000000000000e+00
7.319023284412e-01 0.000000000000e+00 0.000000000000e+00 0.000000000000e+00 -0.000000000000e+00 0.000000000000e+00  0.000000000000e+00
7.722376567817e-01 0.000000000000e+00 0.000000000000e+00 0.000000000000e+00 -0.000000000000e+00 0.000000000000e+00  0.000000000000e+00
8.141871026671e-01 0.000000000000e+00 0.000000000000e+00 0.000000000000e+00 -0.000000000000e+00 0.000000000000e+00  0.000000000000e+00
8.578764946731e-01 0.000000000000e+00 0.000000000000e+00 0.000000000000e+00 -0.000000000000e+00 0.000000000000e+00  0.000000000000e+00
9.033674988086e-01 0.000000000000e+00 0.000000000000e+00 0.000000000000e+00 -0.000000000000e+00 0.000000000000e+00  0.000000000000e+00
9.507169705327e-01 0.000000000000e+00 0.000000000000e+00 0.000000000000e+00 -0.000000000000e+00 0.000000000000e+00  0.000000000000e+00
1.000000000000e+00 0.000000000000e+00 0.000000000000e+00 0.000000000000e+00 -0.000000000000e+00 0.000000000000e+00  0.000000000000e+00
 TITLE = "Profiles along polylines"
 VARIABLES = "DIST" "PRESSURE1" "DISPLACEMENT_X1" "DISPLACEMENT_Y1"  p_(1st_Invariant)  q_(2nd_Invariant)   Effective_Strain
 ZONE T="TIME=1.000000000000e+00"
0.000000000000e+00 0.000000000000e+00 0.000000000000e+00 -1.734560192741e-03 4.907464554731e+02 7.351088738476e+02  2.940437856997e-02
1.027078831439e-02 1.614903138772e+02 0.000000000000e+00 -1.451613372428e-03 4.134380636283e+02 6.191006813120e+02  2.476403915771e-02
2.095579726046e-02 3.053422120472e+02 0.000000000000e+00 -1.206060118199e-03 3.464499594036e+02 5.196585160178e+02  2.078634672146e-02
3.207786985738e-02 4.269869641876e+02 0.000000000000e+00 -9.947179630873e-04 2.831206725668e+02 4.248017394846e+02  1.699207085463e-02
4.365795665274e-02 5.310659287662e+02 0.000000000000e+00 -8.138145337499e-04 2.303234629385e+02 3.455960065965e+02  1.382384856196e-02
5.571534163644e-02 6.196422574565e+02 0.000000000000e+00 -6.603186543653e-04 1.871145284272e+02 2.804887684946e+02  1.121955074246e-02
6.826783355915e-02 6.932434914070e+02 0.000000000000e+00 -5.311127218684e-04 1.515229345009e+02 2.274354018362e+02  9.097418553079e-03
8.133192903590e-02 7.557663985445e+02 0.000000000000e+00 -4.232819588420e-04 1.205258997836e+02 1.804808955511e+02  7.219237170241e-03
9.493635849425e-02 8.073379356500e+02 0.000000000000e+00 -3.342650156574e-04 9.443232424187e+01 1.416823213535e+02  5.667307042799e-03
1.090948080906e-01 8.493647192274e+02 0.000000000000e+00 -2.614626838943e-04 7.423391552098e+01 1.114202799590e+02  4.456811711086e-03
1.238407989588e-01 8.834309725385e+02 0.000000000000e+00 -2.024094267483e-04 5.681473277939e+01 8.527576875854e+01  3.411033023479e-03
1.391895614642e-01 9.106345291974e+02 0.000000000000e+00 -1.550639765003e-04 4.363202200601e+01 6.528595410166e+01  2.611438906367e-03
1.551674274464e-01 9.322397108949e+02 0.000000000000e+00 -1.175155174431e-04 3.322682253721e+01 4.982696830880e+01  1.993079089264e-03
1.717986916992e-01 9.492181419274e+02 0.000000000000e+00 -8.800829684109e-05 2.465972994929e+01 3.687962120008e+01  1.475186127623e-03
1.891202423411e-01 9.622012930329e+02 0.000000000000e+00 -6.508988599543e-05 1.846805835605e+01 2.753434578198e+01  1.101382068200e-03
2.071452132758e-01 9.727164941031e+02 0.000000000000e+00 -4.754985591846e-05 1.360847135751e+01 2.035510612929e+01  8.142047761432e-04
2.259159003327e-01 9.802649957525e+02 0.000000000000e+00 -3.434863701879e-05 9.601662018362e+00 1.439906257274e+01  5.759636615570e-04
2.454553372135e-01 9.859309738467e+02 0.000000000000e+00 -2.446357037349e-05 6.900175493469e+00 1.034854212326e+01  4.139426545398e-04
2.657958002743e-01 9.901234128330e+02 0.000000000000e+00 -1.718021619673e-05 4.810777697849e+00 7.199530194122e+00  2.879871778931e-04
2.869820737070e-01 9.931587361721e+02 0.000000000000e+00 -1.188067712785e-05 3.332544100646e+00 5.001803861603e+00  2.000721837979e-04
3.090302591577e-01 9.953606167000e+02 0.000000000000e+00 -8.093866553067e-06 2.286229119207e+00 3.419669749294e+00  1.367867908126e-04
3.319808966566e-01 9.968528917887e+02 0.000000000000e+00 -5.428716106248e-06 1.526108478350e+00 2.273193587581e+00  9.093039009221e-05
3.558736196309e-01 9.979647225209e+02 0.000000000000e+00 -3.576567469035e-06 1.016732742280e+00 1.525976764089e+00  6.103943195248e-05
3.807449903129e-01 9.986732004233e+02 0.000000000000e+00 -2.322221222497e-06 6.449513692220e-01 9.723027137734e-01  3.889213929350e-05
4.066333808964e-01 9.991528830231e+02 0.000000000000e+00 -1.478583747806e-06 4.071023877349e-01 6.111939940061e-01  2.444810325041e-05
4.336013132129e-01 9.994708105053e+02 0.000000000000e+00 -9.243317645490e-07 2.570723221043e-01 3.859611748342e-01  1.543845287400e-05
4.616595392039e-01 9.996756571549e+02 0.000000000000e+00 -5.663251121500e-07 1.556431102605e-01 2.331420285041e-01  9.325974878043e-06
4.908798744802e-01 9.998051636829e+02 0.000000000000e+00 -3.402577843803e-07 9.476943365278e-02 1.422772254012e-01  5.691091555415e-06
5.212997813718e-01 9.998855924615e+02 0.000000000000e+00 -1.997136978852e-07 5.469083873332e-02 8.191998249958e-02  3.277012370750e-06
5.529651305953e-01 9.999343163526e+02 0.000000000000e+00 -1.148590209415e-07 3.189524542246e-02 4.785086191577e-02  1.914038496301e-06
5.859254847404e-01 9.999631503593e+02 0.000000000000e+00 -6.441603369756e-08 1.755043402067e-02 2.630639212878e-02  1.052362947441e-06
6.202541854239e-01 9.999798002670e+02 0.000000000000e+00 -3.530355906609e-08 9.780464907913e-03 1.467219139347e-02  5.868890883993e-07
6.559765085227e-01 9.999892407916e+02 0.000000000000e+00 -1.883994209690e-08 5.190973837190e-03 7.750646728522e-03  3.100301323715e-07
6.931783144525e-01 9.999943946736e+02 0.000000000000e+00 -9.787739397480e-09 2.649429033386e-03 3.946217607625e-03  1.578854383020e-07
7.319023284412e-01 9.999971711815e+02 0.000000000000e+00 -4.978567857596e-09 1.363981567696e-03 2.036727135254e-03  8.146974179526e-08
7.722376567817e-01 9.999986076889e+02 0.000000000000e+00 -2.442889306578e-09 6.551194046398e-04 9.798452644457e-04  3.920418348180e-08
8.141871026671e-01 9.999993350850e+02 0.000000000000e+00 -1.167164512841e-09 3.198399640563e-04 4.782381513879e-04  1.913008315650e-08
8.578764946731e-01 9.999996923858e+02 0.000000000000e+00 -5.371446031613e-10 1.442914377503e-04 2.153130048470e-04  8.613845593388e-09
9.033674988086e-01 9.999998588616e+02 0.000000000000e+00 -2.341161134812e-10 6.807307286057e-05 1.014442384769e-04  4.058981021124e-09
9.507169705327e-01 9.999999307435e+02 0.000000000000e+00 -8.667425143363e-11 3.335322903967e-05 4.992299996879e-05  1.997284617236e-09
1.000000000000e+00 9.999999508180e+02 0.000000000000e+00 0.000000000000e+00 2.451671370972e-05 3.631652658262e-05  1.453705312834e-09
 ZONE T="TIME=2.000000000000e+00"
0.000000000000e+00 0.000000000000e+00 0.000000000000e+00 -2.599655968985e-03 4.948746595400e+02 7.422562283095e+02  2.969024929408e-02
1.027078831439e-02 8.829538003714e+01 0.000000000000e+00 -2.305157845526e-03 4.525130905545e+02 6.787050891414e+02  2.714820364807e-02
2.095579726046e-02 1.781696886062e+02 0.000000000000e+00 -2.027324534648e-03 4.100871524954e+02 6.151694892297e+02  2.460677957593e-02
3.207786985738e-02 2.669048805643e+02 0.000000000000e+00 -1.767947924154e-03 3.638512694987e+02 5.458155655504e+02  2.183262295495e-02
4.365795665274e-02 3.530258041964e+02 0.000000000000e+00 -1.528257584693e-03 3.198009592055e+02 4.797436239526e+02  1.918974531399e-02
5.571534163644e-02 4.352701227793e+02 0.000000000000e+00 -1.309159118718e-03 2.793165148337e+02 4.188530342316e+02  1.675412157611e-02
6.826783355915e-02 5.118224604610e+02 0.000000000000e+00 -1.111010339940e-03 2.419996719877e+02 3.630680960152e+02  1.452272417060e-02
8.133192903590e-02 5.832336843248e+02 0.000000000000e+00 -9.337781479063e-04 2.064829480533e+02 3.095107683190e+02  1.238043163784e-02
9.493635849425e-02 6.481807074357e+02 0.000000000000e+00 -7.770331038523e-04 1.733807039428e+02 2.601167002369e+02  1.040467125559e-02
1.090948080906e-01 7.062877206908e+02 0.000000000000e+00 -6.400280577608e-04 1.452623171749e+02 2.179569272877e+02  8.718277718137e-03
1.238407989588e-01 7.576813777615e+02 0.000000000000e+00 -5.215163681699e-04 1.188160037050e+02 1.782855319111e+02  7.131421959206e-03
1.391895614642e-01 8.023296383924e+02 0.000000000000e+00 -4.202936548823e-04 9.703093102206e+01 1.453587684368e+02  5.814350927623e-03
1.551674274464e-01 8.407042939420e+02 0.000000000000e+00 -3.348769742833e-04 7.842250231681e+01 1.176122659158e+02  4.704491303334e-03
1.717986916992e-01 8.732582422697e+02 0.000000000000e+00 -2.636173701369e-04 6.189730902026e+01 9.268054427438e+01  3.707222430045e-03
1.891202423411e-01 9.001492903437e+02 0.000000000000e+00 -2.048951436903e-04 4.901586458628e+01 7.326137597429e+01  2.930463076555e-03
2.071452132758e-01 9.232745753884e+02 0.000000000000e+00 -1.572418339228e-04 3.825836350746e+01 5.729808469770e+01  2.291923731976e-03
2.259159003327e-01 9.413034085948e+02 0.000000000000e+00 -1.191785994275e-04 2.868563301407e+01 4.302567133219e+01  1.721027981535e-03
2.454553372135e-01 9.557676488601e+02 0.000000000000e+00 -8.905762922266e-05 2.175910771062e+01 3.263343809125e+01  1.305339398847e-03
2.657958002743e-01 9.671823928259e+02 0.000000000000e+00 -6.560053466598e-05 1.604892644193e+01 2.403493463928e+01  9.614055637952e-04
2.869820737070e-01 9.760045770457e+02 0.000000000000e+00 -4.757777440434e-05 1.173243141034e+01 1.760357071785e+01  7.041428523937e-04
3.090302591577e-01 9.828074595532e+02 0.000000000000e+00 -3.398374273330e-05 8.485173656772e+00 1.269978622151e+01  5.079914596318e-04
3.319808966566e-01 9.877366165532e+02 0.000000000000e+00 -2.388793230984e-05 5.972648472861e+00 8.912329429564e+00  3.564987692833e-04
3.558736196309e-01 9.915989514695e+02 0.000000000000e+00 -1.649713907889e-05 4.193146234574e+00 6.292751782114e+00  2.517107782077e-04
3.807449903129e-01 9.942401832367e+02 0.000000000000e+00 -1.121498781264e-05 2.808411346034e+00 4.227316700403e+00  1.690927754313e-04
4.066333808964e-01 9.961313883326e+02 0.000000000000e+00 -7.479051079597e-06 1.867328342030e+00 2.801971615761e+00  1.120796589835e-04
4.336013132129e-01 9.974571372387e+02 0.000000000000e+00 -4.895182302611e-06 1.238906486122e+00 1.859096466844e+00  7.436386400882e-05
4.616595392039e-01 9.983609162000e+02 0.000000000000e+00 -3.140333475320e-06 7.898348718792e-01 1.183138353604e+00  4.732633206252e-05
4.908798744802e-01 9.989649340317e+02 0.000000000000e+00 -1.974656693450e-06 5.047154415634e-01 7.573953979921e-01  3.029581831391e-05
5.212997813718e-01 9.993611589002e+02 0.000000000000e+00 -1.213512865449e-06 3.066707658914e-01 4.594176207415e-01  1.837739158206e-05
5.529651305953e-01 9.996145757601e+02 0.000000000000e+00 -7.302652076984e-07 1.876076372634e-01 2.814201059946e-01  1.125681262248e-05
5.859254847404e-01 9.997728538914e+02 0.000000000000e+00 -4.286943962003e-07 1.086308981198e-01 1.628509755335e-01  6.514438603087e-06
6.202541854239e-01 9.998692530750e+02 0.000000000000e+00 -2.458086424515e-07 6.345747634766e-02 9.519536232773e-02  3.807817697054e-06
6.559765085227e-01 9.999268664116e+02 0.000000000000e+00 -1.372861366352e-07 3.538267085744e-02 5.287106870593e-02  2.114857241817e-06
6.931783144525e-01 9.999600274425e+02 0.000000000000e+00 -7.463987308783e-08 1.897300203773e-02 2.829885722546e-02  1.132122991270e-06
7.319023284412e-01 9.999788184284e+02 0.000000000000e+00 -3.967547534670e-08 1.023595240104e-02 1.529789545820e-02  6.119178750660e-07
7.722376567817e-01 9.999890622264e+02 0.000000000000e+00 -2.036917561380e-08 5.166177116846e-03 7.731561083541e-03  3.093169054708e-07
8.141871026671e-01 9.999945166049e+02 0.000000000000e+00 -1.017157839029e-08 2.641535560152e-03 3.952265756723e-03  1.580931442179e-07
8.578764946731e-01 9.999973318529e+02 0.000000000000e+00 -4.890085881289e-09 1.254384192978e-03 1.873756866781e-03  7.495747237263e-08
9.033674988086e-01 9.999987079522e+02 0.000000000000e+00 -2.219464226201e-09 6.220124112579e-04 9.280898155570e-04  3.713092707530e-08
9.507169705327e-01 9.999993266627e+02 0.000000000000e+00 -8.476465213530e-10 3.224424363927e-04 4.830430680826e-04  1.932391718718e-08
1.000000000000e+00 9.999995040194e+02 0.000000000000e+00 0.000000000000e+00 2.442076549072e-04 3.623270133989e-04  1.450119042074e-08
 ZONE T="TIME=3.000000000000e+00"
0.000000000000e+00 0.000000000000e+00 0.000000000000e+00 -3.248971070279e-03 4.961355976357e+02 7.441956849993e+02  2.976782741513e-02
1.027078831439e-02 6.652255893718e+01 0.000000000000e+00 -2.951102248932e-03 4.642116370781e+02 6.963052629193e+02  2.785221052456e-02
2.095579726046e-02 1.351250880725e+02 0.000000000000e+00 -2.662872843641e-03 4.317633723468e+02 6.476648116123e+02  2.590659246451e-02
3.207786985738e-02 2.048840318181e+02 0.000000000000e+00 -2.385946907633e-03 3.953857351427e+02 5.930957874197e+02  2.372383156452e-02
4.365795665274e-02 2.750633967205e+02 0.000000000000e+00 -2.121924142365e-03 3.593859872234e+02 5.390981686638e+02  2.156392678293e-02
5.571534163644e-02 3.448710539825e+02 0.000000000000e+00 -1.872349404180e-03 3.249020118428e+02 4.872854017768e+02  1.949141617301e-02
6.826783355915e-02 4.130467553548e+02 0.000000000000e+00 -1.638534979523e-03 2.915449996061e+02 4.373515055054e+02  1.749406027729e-02
8.133192903590e-02 4.794951555438e+02 0.000000000000e+00 -1.421576865203e-03 2.584413039321e+02 3.875360797848e+02  1.550144356207e-02
9.493635849425e-02 5.430500156903e+02 0.000000000000e+00 -1.222168983700e-03 2.259207570812e+02 3.389184632951e+02  1.355673931403e-02
1.090948080906e-01 6.029547075429e+02 0.000000000000e+00 -1.040861948370e-03 1.968171534190e+02 2.952712913636e+02  1.181085203504e-02
1.238407989588e-01 6.587728895982e+02 0.000000000000e+00 -8.776042972800e-04 1.679763279972e+02 2.520152210499e+02  1.008060901287e-02
1.391895614642e-01 7.099245583026e+02 0.000000000000e+00 -7.323215329017e-04 1.429062796661e+02 2.142026558983e+02  8.568106266686e-03
1.551674274464e-01 7.562606374733e+02 0.000000000000e+00 -6.045035543704e-04 1.203332050825e+02 1.804754829605e+02  7.219019912347e-03
1.717986916992e-01 7.976890552154e+02 0.000000000000e+00 -4.933258564208e-04 9.921118186572e+01 1.486499685391e+02  5.945998976646e-03
1.891202423411e-01 8.338536164814e+02 0.000000000000e+00 -3.977492840500e-04 8.183328809263e+01 1.224786946812e+02  4.899153140966e-03
2.071452132758e-01 8.663369237649e+02 0.000000000000e+00 -3.167798338774e-04 6.664993434003e+01 9.988264132385e+01  3.995305799076e-03
2.259159003327e-01 8.932719318038e+02 0.000000000000e+00 -2.491712992365e-04 5.234053646763e+01 7.850951946413e+01  3.140381499728e-03
2.454553372135e-01 9.160194998476e+02 0.000000000000e+00 -1.933367330804e-04 4.141029708840e+01 6.210547891841e+01  2.484221262829e-03
2.657958002743e-01 9.349078946847e+02 0.000000000000e+00 -1.479253790799e-04 3.193287511885e+01 4.784406554370e+01  1.913769695101e-03
2.869820737070e-01 9.502890815268e+02 0.000000000000e+00 -1.114889304743e-04 2.437933357245e+01 3.657261264902e+01  1.462904515220e-03
3.090302591577e-01 9.627516898170e+02 0.000000000000e+00 -8.277461645872e-05 1.840820027072e+01 2.756482356326e+01  1.102593003811e-03
3.319808966566e-01 9.722960378995e+02 0.000000000000e+00 -6.048993327639e-05 1.354012606218e+01 2.023059708771e+01  8.092308872394e-04
3.558736196309e-01 9.800953766455e+02 0.000000000000e+00 -4.345336913865e-05 9.929808296681e+00 1.490061545717e+01  5.960254357687e-04
3.807449903129e-01 9.857546682315e+02 0.000000000000e+00 -3.071614851269e-05 6.964251490049e+00 1.047216063091e+01  4.188866307893e-04
4.066333808964e-01 9.900067011313e+02 0.000000000000e+00 -2.131132553770e-05 4.841784264062e+00 7.263272918039e+00  2.905319766072e-04
4.336013132129e-01 9.931357652386e+02 0.000000000000e+00 -1.451310739966e-05 3.352853944309e+00 5.029980171165e+00  2.011992073945e-04
4.616595392039e-01 9.953765486826e+02 0.000000000000e+00 -9.690382432680e-06 2.236014913471e+00 3.349944722699e+00  1.339990199888e-04
4.908798744802e-01 9.969491914664e+02 0.000000000000e+00 -6.341922760903e-06 1.490916848677e+00 2.236854058776e+00  8.947416243758e-05
5.212997813718e-01 9.980320744443e+02 0.000000000000e+00 -4.058645860318e-06 9.481786127392e-01 1.420741708057e+00  5.683090784414e-05
5.529651305953e-01 9.987590411064e+02 0.000000000000e+00 -2.542960416221e-06 6.053535450605e-01 9.080323565741e-01  3.632130185330e-05
5.859254847404e-01 9.992356055574e+02 0.000000000000e+00 -1.555073667391e-06 3.669178465367e-01 5.501426416901e-01  2.200652832282e-05
6.202541854239e-01 9.995401817444e+02 0.000000000000e+00 -9.287372310328e-07 2.236614003224e-01 3.355331291549e-01  1.342132801666e-05
6.559765085227e-01 9.997311181044e+02 0.000000000000e+00 -5.405164610917e-07 1.304172478938e-01 1.950073437534e-01  7.800319423020e-06
6.931783144525e-01 9.998464556591e+02 0.000000000000e+00 -3.062739701029e-07 7.316398173380e-02 1.092475771478e-01  4.370324290468e-06
7.319023284412e-01 9.999149244306e+02 0.000000000000e+00 -1.695193227797e-07 4.120573778274e-02 6.162523925032e-02  2.465012537623e-06
7.722376567817e-01 9.999540878289e+02 0.000000000000e+00 -9.072016056104e-08 2.177066539874e-02 3.259685743690e-02  1.304028216661e-06
8.141871026671e-01 9.999759330675e+02 0.000000000000e+00 -4.718532419273e-08 1.162087658085e-02 1.739590458003e-02  6.958420366474e-07
8.578764946731e-01 9.999877366046e+02 0.000000000000e+00 -2.361411986208e-08 5.789632875792e-03 8.655447900195e-03  3.462385656735e-07
9.033674988086e-01 9.999937665951e+02 0.000000000000e+00 -1.112197614057e-08 3.009344504844e-03 4.494539449835e-03  1.798052142258e-07
9.507169705327e-01 9.999965795581e+02 0.000000000000e+00 -4.369033645327e-09 1.644423009934e-03 2.464872401329e-03  9.860188765263e-08
1.000000000000e+00 9.999974051219e+02 0.000000000000e+00 0.000000000000e+00 1.279632038303e-03 1.901185516808e-03  7.608069773073e-08
 ZONE T="TIME=4.000000000000e+00"
0.000000000000e+00 0.000000000000e+00 0.000000000000e+00 -3.790128620676e-03 4.967761512089e+02 7.451634076755e+02  2.980653631095e-02
1.027078831439e-02 5.549661501410e+01 0.000000000000e+00 -3.490557848837e-03 4.701413967512e+02 7.052083694117e+02  2.820833477848e-02
2.095579726046e-02 1.129250980040e+02 0.000000000000e+00 -3.197002034232e-03 4.429626219723e+02 6.644562008425e+02  2.657824803370e-02
3.207786985738e-02 1.718474666777e+02 0.000000000000e+00 -2.910855026881e-03 4.122257311875e+02 6.183490862503e+02  2.473396347047e-02
4.365795665274e-02 2.318836084871e+02 0.000000000000e+00 -2.633587610585e-03 3.813941234301e+02 5.721027778539e+02  2.288411112259e-02
5.571534163644e-02 2.925801964204e+02 0.000000000000e+00 -2.366735270769e-03 3.513655590948e+02 5.270078058215e+02  2.108031227520e-02
6.826783355915e-02 3.531475588489e+02 0.000000000000e+00 -2.111775209648e-03 3.216786671119e+02 4.825384931680e+02  1.930153974229e-02
8.133192903590e-02 4.134433646343e+02 0.000000000000e+00 -1.870113136580e-03 2.916139916641e+02 4.373421328490e+02  1.749368546981e-02
9.493635849425e-02 4.726411028336e+02 0.000000000000e+00 -1.642836756806e-03 2.612580928045e+02 3.919148659876e+02  1.567659488848e-02
1.090948080906e-01 5.300740361221e+02 0.000000000000e+00 -1.431078731965e-03 2.332915138954e+02 3.499694053769e+02  1.399877641706e-02
1.238407989588e-01 5.852543620099e+02 0.000000000000e+00 -1.235428151000e-03 2.047070688802e+02 3.070992118293e+02  1.228396852224e-02
1.391895614642e-01 6.375223296852e+02 0.000000000000e+00 -1.056535282111e-03 1.790166218308e+02 2.684027682289e+02  1.073611073291e-02
1.551674274464e-01 6.865101894474e+02 0.000000000000e+00 -8.946244680617e-04 1.550786493838e+02 2.325943216083e+02  9.303773279905e-03
1.717986916992e-01 7.318816335535e+02 0.000000000000e+00 -7.496172848468e-04 1.318750281059e+02 1.976651546496e+02  7.906606265493e-03
1.891202423411e-01 7.730428443696e+02 0.000000000000e+00 -6.211265040656e-04 1.120532128883e+02 1.678364333616e+02  6.713460568674e-03
2.071452132758e-01 8.111744077987e+02 0.000000000000e+00 -5.087915634537e-04 9.416802296285e+01 1.411690527617e+02  5.646762165522e-03
2.259159003327e-01 8.442513299029e+02 0.000000000000e+00 -4.118473177032e-04 7.658529850422e+01 1.148772415440e+02  4.595090069442e-03
2.454553372135e-01 8.732883244342e+02 0.000000000000e+00 -3.291254381186e-04 6.259670780408e+01 9.388073235845e+01  3.755231172310e-03
2.657958002743e-01 8.983658670493e+02 0.000000000000e+00 -2.595367737053e-04 4.998380930554e+01 7.491114810174e+01  2.996451090143e-03
2.869820737070e-01 9.196409490695e+02 0.000000000000e+00 -2.017564394210e-04 3.950543440004e+01 5.925842213579e+01  2.370336887186e-03
3.090302591577e-01 9.375729241444e+02 0.000000000000e+00 -1.545912409223e-04 3.088751391605e+01 4.626850149521e+01  1.850740182748e-03
3.319808966566e-01 9.519400857171e+02 0.000000000000e+00 -1.166550786569e-04 2.355554481307e+01 3.522772595544e+01  1.409115985058e-03
3.558736196309e-01 9.640921740966e+02 0.000000000000e+00 -8.659626655414e-05 1.790853806138e+01 2.687148418593e+01  1.074860116404e-03
3.807449903129e-01 9.733540746387e+02 0.000000000000e+00 -6.326553173633e-05 1.305619530436e+01 1.961929705488e+01  7.847721717881e-04
4.066333808964e-01 9.806028634987e+02 0.000000000000e+00 -4.539924967703e-05 9.428058980107e+00 1.414144248422e+01  5.656587930687e-04
4.336013132129e-01 9.861636437640e+02 0.000000000000e+00 -3.198953019110e-05 6.773319806658e+00 1.016012366834e+01  4.064049489058e-04
4.616595392039e-01 9.903187591803e+02 0.000000000000e+00 -2.211235371428e-05 4.696777325562e+00 7.037835900158e+00  2.815148799167e-04
4.908798744802e-01 9.933619488826e+02 0.000000000000e+00 -1.498616185670e-05 3.250318186308e+00 4.876019521465e+00  1.950407837147e-04
5.212997813718e-01 9.955485498937e+02 0.000000000000e+00 -9.938592081742e-06 2.151723243038e+00 3.224766048092e+00  1.289923167191e-04
5.529651305953e-01 9.970808013916e+02 0.000000000000e+00 -6.453821229623e-06 1.426774757977e+00 2.140180470124e+00  8.560722173817e-05
5.859254847404e-01 9.981295333050e+02 0.000000000000e+00 -4.092974531043e-06 9.007912505503e-01 1.350792586625e+00  5.403295409481e-05
6.202541854239e-01 9.988294040217e+02 0.000000000000e+00 -2.535517833636e-06 5.705228874522e-01 8.559095083792e-01  3.423638107775e-05
6.559765085227e-01 9.992874518347e+02 0.000000000000e+00 -1.531475326737e-06 3.463930695556e-01 5.182295775755e-01  2.072921445415e-05
6.931783144525e-01 9.995765451849e+02 0.000000000000e+00 -9.009279419916e-07 2.024838963486e-01 3.026102895756e-01  1.210517503984e-05
7.319023284412e-01 9.997556199418e+02 0.000000000000e+00 -5.174281648183e-07 1.186092333045e-01 1.774808255932e-01  7.099235301988e-06
7.722376567817e-01 9.998626541816e+02 0.000000000000e+00 -2.876253536457e-07 6.535999022351e-02 9.789862040878e-02  3.916257453729e-06
8.141871026671e-01 9.999249674015e+02 0.000000000000e+00 -1.553009974701e-07 3.630858320532e-02 5.437363001541e-02  2.174954482884e-06
8.578764946731e-01 9.999600842336e+02 0.000000000000e+00 -8.063213558889e-08 1.891830908122e-02 2.830098339465e-02  1.132081154586e-06
9.033674988086e-01 9.999787641190e+02 0.000000000000e+00 -3.927849821364e-08 1.027964513541e-02 1.536479872349e-02  6.146459485343e-07
9.507169705327e-01 9.999877744378e+02 0.000000000000e+00 -1.582694807341e-08 5.899361265744e-03 8.846284169999e-03  3.538670441715e-07
1.000000000000e+00 9.999904750824e+02 0.000000000000e+00 0.000000000000e+00 4.704217658557e-03 6.997362249054e-03  2.799906995159e-07
 ZONE T="TIME=5.000000000000e+00"
0.000000000000e+00 0.000000000000e+00 0.000000000000e+00 -4.263664507377e-03 4.971780141714e+02 7.457677942927e+02  2.983071177326e-02
1.027078831439e-02 4.858298014900e+01 0.000000000000e+00 -3.963027419178e-03 4.738604721690e+02 7.107893991202e+02  2.843157596560e-02
2.095579726046e-02 9.893306860383e+01 0.000000000000e+00 -3.666120608528e-03 4.500254052319e+02 6.750467229362e+02  2.700186891745e-02
3.207786985738e-02 1.508027106171e+02 0.000000000000e+00 -3.374126000160e-03 4.229631382875e+02 6.344520929163e+02  2.537808372502e-02
4.365795665274e-02 2.039704614966e+02 0.000000000000e+00 -3.088352068012e-03 3.956435408874e+02 5.934734129226e+02  2.373893651999e-02
5.571534163644e-02 2.581549030244e+02 0.000000000000e+00 -2.810220148327e-03 3.688161109086e+02 5.531973269812e+02  2.212789309906e-02
6.826783355915e-02 3.128315025458e+02 0.000000000000e+00 -2.541176454108e-03 3.419910712512e+02 5.130006346916e+02  2.052002539361e-02
8.133192903590e-02 3.678887702090e+02 0.000000000000e+00 -2.282674931071e-03 3.145249960327e+02 4.717337389823e+02  1.886934963355e-02
9.493635849425e-02 4.227446720931e+02 0.000000000000e+00 -2.035908688123e-03 2.863605874934e+02 4.295616333606e+02  1.718246543605e-02
1.090948080906e-01 4.768744375427e+02 0.000000000000e+00 -1.802243545063e-03 2.599661190001e+02 3.899726251620e+02  1.559890511640e-02
1.238407989588e-01 5.298639952009e+02 0.000000000000e+00 -1.582566421171e-03 2.324714896568e+02 3.487365950617e+02  1.394946381976e-02
1.391895614642e-01 5.811216749104e+02 0.000000000000e+00 -1.377924718774e-03 2.072307066428e+02 3.107507778861e+02  1.243003111567e-02
1.551674274464e-01 6.302501006293e+02 0.000000000000e+00 -1.188992958175e-03 1.831748541335e+02 2.747408513223e+02  1.098963432487e-02