 TITLE = "Time curves in points"
 VARIABLES = "TIME "  "PRESSURE1"  "DISPLACEMENT_X1"  "DISPLACEMENT_Y1"  p_(1st_Invariant)  q_(2nd_Invariant)   Effective_Strain
 ZONE T="POINT=POINT0"
0.000000000000e+00 0.000000000000e+00 0.000000000000e+00 0.000000000000e+00 -0.000000000000e+00 0.000000000000e+00  0.000000000000e+00
1.000000000000e+00 0.000000000000e+00 0.000000000000e+00 -1.734579637185e-03 4.974860827876e+02 7.453076799542e+02  2.981233516482e-02
2.000000000000e+00 0.000000000000e+00 0.000000000000e+00 -2.599673283377e-03 4.985661688793e+02 7.477849242564e+02  2.991139715530e-02
3.000000000000e+00 0.000000000000e+00 0.000000000000e+00 -3.248986694715e-03 4.989181527275e+02 7.483554266618e+02  2.993421708359e-02
4.000000000000e+00 0.000000000000e+00 0.000000000000e+00 -3.790141659327e-03 4.990976225859e+02 7.486327045647e+02  2.994530818700e-02
5.000000000000e+00 0.000000000000e+00 0.000000000000e+00 -4.263675000093e-03 4.992099793559e+02 7.488050262493e+02  2.995220105170e-02
6.000000000000e+00 0.000000000000e+00 0.000000000000e+00 -4.689867834504e-03 4.992886527571e+02 7.489253843677e+02  2.995701537556e-02
7.000000000000e+00 0.000000000000e+00 0.000000000000e+00 -5.080553098961e-03 4.993476841540e+02 7.490155154307e+02  2.996062061771e-02
8.000000000000e+00 0.000000000000e+00 0.000000000000e+00 -5.443338366869e-03 4.993940920835e+02 7.490862450381e+02  2.996344980182e-02
9.000000000000e+00 0.000000000000e+00 0.000000000000e+00 -5.783454123518e-03 4.994318198467e+02 7.491436541671e+02  2.996574616688e-02
1.000000000000e+01 0.000000000000e+00 0.000000000000e+00 -6.104678080850e-03 4.994632755313e+02 7.491914554123e+02  2.996765821663e-02
