VARIABLES  = "X","Y","Z", "PRESSURE1", "SATURATION1", "DISPLACEMENT_X1", "DISPLACEMENT_Y1", "STRESS_XX", "STRESS_XY", "STRESS_YY", "STRESS_ZZ", "STRAIN_XX", "STRAIN_XY", "STRAIN_YY", "STRAIN_PLS"
ZONE T="0.000000000000e+00s", N=42, E=20, F=FEPOINT, ET=QUADRILATERAL
STRANDID=1, SOLUTIONTIME=0.000000000000e+00
0.000000000000e+00 0.000000000000e+00 0.000000000000e+00 0.000000000000e+00 1.000000000000e+00 0.000000000000e+00 0.000000000000e+00 0.000000000000e+00 0.000000000000e+00 0.000000000000e+00 0.000000000000e+00 0.000000000000e+00 0.000000000000e+00 0.000000000000e+00 0.000000000000e+00 
0.000000000000e+00 0.000000000000e+00 5.000000000000e-02 0.000000000000e+00 1.000000000000e+00 0.000000000000e+00 0.000000000000e+00 0.000000000000e+00 0.000000000000e+00 0.000000000000e+00 0.000000000000e+00 0.000000000000e+00 0.000000000000e+00 0.000000000000e+00 0.000000000000e+00 
0.000000000000e+00 0.000000000000e+00 1.000000000000e-01 0.000000000000e+00 1.000000000000e+00 0.000000000000e+00 0.000000000000e+00 0.000000000000e+00 0.000000000000e+00 0.000000000000e+00 0.000000000000e+00 0.000000000000e+00 0.000000000000e+00 0.000000000000e+00 0.000000000000e+00 
0.000000000000e+00 0.000000000000e+00 1.500000000000e-01 0.000000000000e+00 1.000000000000e+00 0.000000000000e+00 0.000000000000e+00 0.000000000000e+00 0.000000000000e+00 0.000000000000e+00 0.000000000000e+00 0.000000000000e+00 0.000000000000e+00 0.000000000000e+00 0.000000000000e+00 
0.000000000000e+00 0.000000000000e+00 2.000000000000e-01 0.000000000000e+00 1.000000000000e+00 0.000000000000e+00 0.000000000000e+00 0.000000000000e+00 0.000000000000e+00 0.000000000000e+00 0.000000000000e+00 0.000000000000e+00 0.000000000000e+00 0.000000000000e+00 0.000000000000e+00 
0.000000000000e+00 0.000000000000e+00 2.500000000000e-01 0.000000000000e+00 1.000000000000e+00 0.000000000000e+00 0.000000000000e+00 0.000000000000e+00 0.000000000000e+00 0.000000000000e+00 0.000000000000e+00 0.000000000000e+00 0.000000000000e+00 0.000000000000e+00 0.000000000000e+00 
0.000000000000e+00 0.000000000000e+00 3.000000000000e-01 0.000000000000e+00 1.000000000000e+00 0.000000000000e+00 0.000000000000e+00 0.000000000000e+00 0.000000000000e+00 0.000000000000e+00 0.000000000000e+00 0.000000000000e+00 0.000000000000e+00 0.000000000000e+00 0.000000000000e+00 
0.000000000000e+00 0.000000000000e+00 3.500000000000e-01 0.000000000000e+00 1.000000000000e+00 0.000000000000e+00 0.000000000000e+00 0.000000000000e+00 0.000000000000e+00 0.000000000000e+00 0.000000000000e+00 0.000000000000e+00 0.000000000000e+00 0.000000000000e+00 0.000000000000e+00 
0.000000000000e+00 0.000000000000e+00 4.000000000000e-01 0.000000000000e+00 1.000000000000e+00 0.000000000000e+00 0.000000000000e+00 0.000000000000e+00 0.000000000000e+00 0.000000000000e+00 0.000000000000e+00 0.000000000000e+00 0.000000000000e+00 0.000000000000e+00 0.000000000000e+00 
0.000000000000e+00 0.000000000000e+00 4.500000000000e-01 0.000000000000e+00 1.000000000000e+00 0.000000000000e+00 0.000000000000e+00 0.000000000000e+00 0.000000000000e+00 0.000000000000e+00 0.000000000000e+00 0.000000000000e+00 0.000000000000e+00 0.000000000000e+00 0.000000000000e+00 
0.000000000000e+00 0.000000000000e+00 5.000000000000e-01 0.000000000000e+00 1.000000000000e+00 0.000000000000e+00 0.000000000000e+00 0.000000000000e+00 0.000000000000e+00 0.000000000000e+00 0.000000000000e+00 0.000000000000e+00 0.000000000000e+00 0.000000000000e+00 0.000000000000e+00 
0.000000000000e+00 0.000000000000e+00 5.500000000000e-01 0.000000000000e+00 1.000000000000e+00 0.000000000000e+00 0.000000000000e+00 0.000000000000e+00 0.000000000000e+00 0.000000000000e+00 0.000000000000e+00 0.000000000000e+00 0.000000000000e+00 0.000000000000e+00 0.000000000000e+00 
0.000000000000e+00 0.000000000000e+00 6.000000000000e-01 0.000000000000e+00 1.000000000000e+00 0.000000000000e+00 0.000000000000e+00 0.000000000000e+00 0.000000000000e+00 0.000000000000e+00 0.000000000000e+00 0.000000000000e+00 0.000000000000e+00 0.000000000000e+00 0.000000000000e+00 
0.000000000000e+00 0.000000000000e+00 6.500000000000e-01 0.000000000000e+00 1.000000000000e+00 0.000000000000e+00 0.000000000000e+00 0.000000000000e+00 0.000000000000e+00 0.000000000000e+00 0.000000000000e+00 0.000000000000e+00 0.000000000000e+00 0.000000000000e+00 0.000000000000e+00 
0.000000000000e+00 0.000000000000e+00 7.000000000000e-01 0.000000000000e+00 1.000000000000e+00 0.000000000000e+00 0.000000000000e+00 0.000000000000e+00 0.000000000000e+00 0.000000000000e+00 0.000000000000e+00 0.000000000000e+00 0.000000000000e+00 0.000000000000e+00 0.000000000000e+00 
0.000000000000e+00 0.000000000000e+00 7.500000000000e-01 0.000000000000e+00 1.000000000000e+00 0.000000000000e+00 0.000000000000e+00 0.000000000000e+00 0.000000000000e+00 0.000000000000e+00 0.000000000000e+00 0.000000000000e+00 0.000000000000e+00 0.000000000000e+00 0.000000000000e+00 
0.000000000000e+00 0.000000000000e+00 8.000000000000e-01 0.000000000000e+00 1.000000000000e+00 0.000000000000e+00 0.000000000000e+00 0.000000000000e+00 0.000000000000e+00 0.000000000000e+00 0.000000000000e+00 0.000000000000e+00 0.000000000000e+00 0.000000000000e+00 0.000000000000e+00 
0.000000000000e+00 0.000000000000e+00 8.500000000000e-01 0.000000000000e+00 1.000000000000e+00 0.000000000000e+00 0.000000000000e+00 0.000000000000e+00 0.000000000000e+00 0.000000000000e+00 0.000000000000e+00 0.000000000000e+00 0.000000000000e+00 0.000000000000e+00 0.000000000000e+00 
0.000000000000e+00 0.000000000000e+00 9.000000000000e-01 0.000000000000e+00 1.000000000000e+00 0.000000000000e+00 0.000000000000e+00 0.000000000000e+00 0.000000000000e+00 0.000000000000e+00 0.000000000000e+00 0.000000000000e+00 0.000000000000e+00 0.000000000000e+00 0.000000000000e+00 
0.000000000000e+00 0.000000000000e+00 9.500000000000e-01 0.000000000000e+00 1.000000000000e+00 0.000000000000e+00 0.000000000000e+00 0.000000000000e+00 0.000000000000e+00 0.000000000000e+00 0.000000000000e+00 0.000000000000e+00 0.000000000000e+00 0.000000000000e+00 0.000000000000e+00 
0.000000000000e+00 0.000000000000e+00 1.000000000000e+00 0.000000000000e+00 1.000000000000e+00 0.000000000000e+00 0.000000000000e+00 0.000000000000e+00 0.000000000000e+00 0.000000000000e+00 0.000000000000e+00 0.000000000000e+00 0.000000000000e+00 0.000000000000e+00 0.000000000000e+00 
1.000000000000e-01 0.000000000000e+00 0.000000000000e+00 0.000000000000e+00 1.000000000000e+00 0.000000000000e+00 0.000000000000e+00 0.000000000000e+00 0.000000000000e+00 0.000000000000e+00 0.000000000000e+00 0.000000000000e+00 0.000000000000e+00 0.000000000000e+00 0.000000000000e+00 
1.000000000000e-01 0.000000000000e+00 5.000000000000e-02 0.000000000000e+00 1.000000000000e+00 0.000000000000e+00 0.000000000000e+00 0.000000000000e+00 0.000000000000e+00 0.000000000000e+00 0.000000000000e+00 0.000000000000e+00 0.000000000000e+00 0.000000000000e+00 0.000000000000e+00 
1.000000000000e-01 0.000000000000e+00 1.000000000000e-01 0.000000000000e+00 1.000000000000e+00 0.000000000000e+00 0.000000000000e+00 0.000000000000e+00 0.000000000000e+00 0.000000000000e+00 0.000000000000e+00 0.000000000000e+00 0.000000000000e+00 0.000000000000e+00 0.000000000000e+00 
1.000000000000e-01 0.000000000000e+00 1.500000000000e-01 0.000000000000e+00 1.000000000000e+00 0.000000000000e+00 0.000000000000e+00 0.000000000000e+00 0.000000000000e+00 0.000000000000e+00 0.000000000000e+00 0.000000000000e+00 0.000000000000e+00 0.000000000000e+00 0.000000000000e+00 
1.000000000000e-01 0.000000000000e+00 2.000000000000e-01 0.000000000000e+00 1.000000000000e+00 0.000000000000e+00 0.000000000000e+00 0.000000000000e+00 0.000000000000e+00 0.000000000000e+00 0.000000000000e+00 0.000000000000e+00 0.000000000000e+00 0.000000000000e+00 0.000000000000e+00 
1.000000000000e-01 0.000000000000e+00 2.500000000000e-01 0.000000000000e+00 1.000000000000e+00 0.000000000000e+00 0.000000000000e+00 0.000000000000e+00 0.000000000000e+00 0.000000000000e+00 0.000000000000e+00 0.000000000000e+00 0.000000000000e+00 0.000000000000e+00 0.000000000000e+00 
1.000000000000e-01 0.000000000000e+00 3.000000000000e-01 0.000000000000e+00 1.000000000000e+00 0.000000000000e+00 0.000000000000e+00 0.000000000000e+00 0.000000000000e+00 0.000000000000e+00 0.000000000000e+00 0.000000000000e+00 0.000000000000e+00 0.000000000000e+00 0.000000000000e+00 
1.000000000000e-01 0.000000000000e+00 3.500000000000e-01 0.000000000000e+00 1.000000000000e+00 0.000000000000e+00 0.000000000000e+00 0.000000000000e+00 0.000000000000e+00 0.000000000000e+00 0.000000000000e+00 0.000000000000e+00 0.000000000000e+00 0.000000000000e+00 0.000000000000e+00 
1.000000000000e-01 0.000000000000e+00 4.000000000000e-01 0.000000000000e+00 1.000000000000e+00 0.000000000000e+00 0.000000000000e+00 0.000000000000e+00 0.000000000000e+00 0.000000000000e+00 0.000000000000e+00 0.000000000000e+00 0.000000000000e+00 0.000000000000e+00 0.000000000000e+00 
1.000000000000e-01 0.000000000000e+00 4.500000000000e-01 0.000000000000e+00 1.000000000000e+00 0.000000000000e+00 0.000000000000e+00 0.000000000000e+00 0.000000000000e+00 0.000000000000e+00 0.000000000000e+00 0.000000000000e+00 0.000000000000e+00 0.000000000000e+00 0.000000000000e+00 
1.000000000000e-01 0.000000000000e+00 5.000000000000e-01 0.000000000000e+00 1.000000000000e+00 0.000000000000e+00 0.000000000000e+00 0.000000000000e+00 0.000000000000e+00 0.000000000000e+00 0.000000000000e+00 0.000000000000e+00 0.000000000000e+00 0.000000000000e+00 0.000000000000e+00 
1.000000000000e-01 0.000000000000e+00 5.500000000000e-01 0.000000000000e+00 1.000000000000e+00 0.000000000000e+00 0.000000000000e+00 0.000000000000e+00 0.000000000000e+00 0.000000000000e+00 0.000000000000e+00 0.000000000000e+00 0.000000000000e+00 0.000000000000e+00 0.000000000000e+00 
1.000000000000e-01 0.000000000000e+00 6.000000000000e-01 0.000000000000e+00 1.000000000000e+00 0.000000000000e+00 0.000000000000e+00 0.000000000000e+00 0.000000000000e+00 0.000000000000e+00 0.000000000000e+00 0.000000000000e+00 0.000000000000e+00 0.000000000000e+00 0.000000000000e+00 
1.000000000000e-01 0.000000000000e+00 6.500000000000e-01 0.000000000000e+00 1.000000000000e+00 0.000000000000e+00 0.000000000000e+00 0.000000000000e+00 0.000000000000e+00 0.000000000000e+00 0.000000000000e+00 0.000000000000e+00 0.000000000000e+00 0.000000000000e+00 0.000000000000e+00 
1.000000000000e-01 0.000000000000e+00 7.000000000000e-01 0.000000000000e+00 1.000000000000e+00 0.000000000000e+00 0.000000000000e+00 0.000000000000e+00 0.000000000000e+00 0.000000000000e+00 0.000000000000e+00 0.000000000000e+00 0.000000000000e+00 0.000000000000e+00 0.000000000000e+00 
1.000000000000e-01 0.000000000000e+00 7.500000000000e-01 0.000000000000e+00 1.000000000000e+00 0.000000000000e+00 0.000000000000e+00 0.000000000000e+00 0.000000000000e+00 0.000000000000e+00 0.000000000000e+00 0.000000000000e+00 0.000000000000e+00 0.000000000000e+00 0.000000000000e+00 
1.000000000000e-01 0.000000000000e+00 8.000000000000e-01 0.000000000000e+00 1.000000000000e+00 0.000000000000e+00 0.000000000000e+00 0.000000000000e+00 0.000000000000e+00 0.000000000000e+00 0.000000000000e+00 0.000000000000e+00 0.000000000000e+00 0.000000000000e+00 0.000000000000e+00 
1.000000000000e-01 0.000000000000e+00 8.500000000000e-01 0.000000000000e+00 1.000000000000e+00 0.000000000000e+00 0.000000000000e+00 0.000000000000e+00 0.000000000000e+00 0.000000000000e+00 0.000000000000e+00 0.000000000000e+00 0.000000000000e+00 0.000000000000e+00 0.000000000000e+00 
1.000000000000e-01 0.000000000000e+00 9.000000000000e-01 0.000000000000e+00 1.000000000000e+00 0.000000000000e+00 0.000000000000e+00 0.000000000000e+00 0.000000000000e+00 0.000000000000e+00 0.000000000000e+00 0.000000000000e+00 0.000000000000e+00 0.000000000000e+00 0.000000000000e+00 
1.000000000000e-01 0.000000000000e+00 9.500000000000e-01 0.000000000000e+00 1.000000000000e+00 0.000000000000e+00 0.000000000000e+00 0.000000000000e+00 0.000000000000e+00 0.000000000000e+00 0.000000000000e+00 0.000000000000e+00 0.000000000000e+00 0.000000000000e+00 0.000000000000e+00 
1.000000000000e-01 0.000000000000e+00 1.000000000000e+00 0.000000000000e+00 1.000000000000e+00 0.000000000000e+00 0.000000000000e+00 0.000000000000e+00 0.000000000000e+00 0.000000000000e+00 0.000000000000e+00 0.000000000000e+00 0.000000000000e+00 0.000000000000e+00 0.000000000000e+00 
1  22  23  2  
2  23  24  3  
3  24  25  4  
4  25  26  5  
5  26  27  6  
6  27  28  7  
7  28  29  8  
8  29  30  9  
9  30  31  10  
10  31  32  11  
11  32  33  12  
12  33  34  13  
13  34  35  14  
14  35  36  15  
15  36  37  16  
16  37  38  17  
17  38  39  18  
18  39  40  19  
19  40  41  20  
20  41  42  21  
VARIABLES  = "X","Y","Z", "PRESSURE1", "SATURATION1", "DISPLACEMENT_X1", "DISPLACEMENT_Y1", "STRESS_XX", "STRESS_XY", "STRESS_YY", "STRESS_ZZ", "STRAIN_XX", "STRAIN_XY", "STRAIN_YY", "STRAIN_PLS"
ZONE T="1.000000000000e+00s", N=42, E=20, F=FEPOINT, ET=QUADRILATERAL
STRANDID=1, SOLUTIONTIME=1.000000000000e+00
0.000000000000e+00 0.000000000000e+00 0.000000000000e+00 0.000000000000e+00 1.000000000000e+00 0.000000000000e+00 0.000000000000e+00 4.007707875741e-01 -6.479233991853e-04 5.838775918096e-01 3.938593517535e-01 7.443084729943e-09 -1.395527321322e-09 2.046350277527e-07 0.000000000000e+00 
0.000000000000e+00 0.000000000000e+00 5.000000000000e-02 -2.117101693953e+01 9.999756648488e-01 0.000000000000e+00 -1.798600506354e-07 -1.373517250738e+01 3.045830464711e-03 -2.060344860273e+01 -1.373544844404e+01 2.971625626839e-10 6.560250231685e-09 -7.396307863201e-06 0.000000000000e+00 
0.000000000000e+00 0.000000000000e+00 1.000000000000e-01 -4.297987881953e+01 9.999505965230e-01 0.000000000000e+00 -7.454163143138e-07 -2.829704559044e+01 9.767184019176e-03 -4.243193398485e+01 -2.829159183012e+01 -5.873280350505e-09 2.103701173361e-08 -1.522806078202e-05 0.000000000000e+00 
0.000000000000e+00 0.000000000000e+00 1.500000000000e-01 -6.611582826268e+01 9.999240027685e-01 0.000000000000e+00 -1.715467219256e-06 -4.368059973114e+01 1.563119173227e-02 -6.559209701160e+01 -4.370907869709e+01 3.066965564208e-08 3.366718219259e-08 -2.356632741562e-05 0.000000000000e+00 
0.000000000000e+00 0.000000000000e+00 2.000000000000e-01 -9.130923276547e+01 9.998950440601e-01 0.000000000000e+00 -3.120975361053e-06 -6.052199820775e+01 2.969505620563e-02 -9.088751181377e+01 -6.056380400861e+01 4.502163169235e-08 6.395858259674e-08 -3.265630071325e-05 0.000000000000e+00 
0.000000000000e+00 0.000000000000e+00 2.500000000000e-01 -1.193546905939e+02 9.998628070420e-01 0.000000000000e+00 -5.004351506695e-06 -7.920350726367e+01 4.581201871963e-02 -1.188783420438e+02 -7.923273972301e+01 3.148111005613e-08 9.867204031920e-08 -4.269526403783e-05 0.000000000000e+00 
0.000000000000e+00 0.000000000000e+00 3.000000000000e-01 -1.511361697614e+02 9.998262756320e-01 0.000000000000e+00 -7.422325357015e-06 -1.004353273790e+02 4.592307205436e-02 -1.505790801167e+02 -1.004057629983e+02 -3.183856382472e-08 9.891123211709e-08 -5.403280305063e-05 0.000000000000e+00 
0.000000000000e+00 0.000000000000e+00 3.500000000000e-01 -1.876549852154e+02 9.997842988627e-01 0.000000000000e+00 -1.045083666243e-05 -1.247495414869e+02 2.312946149656e-02 -1.870104876840e+02 -1.247040116683e+02 -4.903211228745e-08 4.981730168491e-08 -6.709928186298e-05 0.000000000000e+00 
0.000000000000e+00 0.000000000000e+00 4.000000000000e-01 -2.300615143493e+02 9.997355544259e-01 0.000000000000e+00 -1.418810456088e-05 -1.530651722586e+02 5.072373800677e-03 -2.295322997456e+02 -1.530389888017e+02 -2.819756894736e-08 1.092511280146e-08 -8.237741178580e-05 0.000000000000e+00 
0.000000000000e+00 0.000000000000e+00 4.500000000000e-01 -2.796916767879e+02 9.996785067409e-01 0.000000000000e+00 -1.875343525657e-05 -1.861242835041e+02 1.276119645355e-03 -2.792000437845e+02 -1.861297309154e+02 5.866442976761e-09 2.748565389995e-09 -1.002295677051e-04 0.000000000000e+00 
0.000000000000e+00 0.000000000000e+00 5.000000000000e-01 -3.381093661416e+02 9.996113581809e-01 0.000000000000e+00 -2.428979222661e-05 -2.251023157920e+02 3.440619396231e-03 -3.376724271503e+02 -2.251098971769e+02 8.164568403408e-09 7.410564853422e-09 -1.212211861252e-04 0.000000000000e+00 
0.000000000000e+00 0.000000000000e+00 5.500000000000e-01 -4.071562258074e+02 9.995319918579e-01 0.000000000000e+00 -3.096934821068e-05 -2.711078505930e+02 -1.810021983174e-04 -4.066299910827e+02 -2.710951366703e+02 -1.369191675967e-08 -3.898508886837e-10 -1.459606124442e-04 0.000000000000e+00 
0.000000000000e+00 0.000000000000e+00 6.000000000000e-01 -4.890104166439e+02 9.994379040721e-01 0.000000000000e+00 -3.900305398488e-05 -3.256954839107e+02 4.111663675139e-03 -4.885608992622e+02 -3.257025532692e+02 7.613155251730e-09 8.855890992607e-09 -1.753859110694e-04 0.000000000000e+00 
0.000000000000e+00 0.000000000000e+00 6.500000000000e-01 -5.862563428256e+02 9.993261241647e-01 0.000000000000e+00 -4.864310868431e-05 -3.903878294732e+02 8.548410007326e-03 -5.855914098341e+02 -3.903916957229e+02 4.163653553837e-09 1.841196001578e-08 -2.102150767351e-04 0.000000000000e+00 
0.000000000000e+00 0.000000000000e+00 7.000000000000e-01 -7.019676982051e+02 9.991931190600e-01 0.000000000000e+00 -6.019263793804e-05 -4.674623725945e+02 1.764013744100e-02 -7.012655297723e+02 -4.674911609467e+02 3.100284087325e-08 3.799414218061e-08 -2.517570125814e-04 0.000000000000e+00 
0.000000000000e+00 0.000000000000e+00 7.500000000000e-01 -8.398066884383e+02 9.990346792139e-01 0.000000000000e+00 -7.401246470696e-05 -5.591209833771e+02 1.996999748432e-02 -8.386423916632e+02 -5.591053500161e+02 -1.683592718774e-08 4.301230227392e-08 -3.010398910046e-04 0.000000000000e+00 
0.000000000000e+00 0.000000000000e+00 8.000000000000e-01 -1.004142899494e+03 9.988457819801e-01 0.000000000000e+00 -9.053767693853e-05 -6.685106995740e+02 1.193232432923e-02 -1.002739808594e+03 -6.685002032674e+02 -1.130371479852e-08 2.570039086295e-08 -3.599503441984e-04 0.000000000000e+00 
0.000000000000e+00 0.000000000000e+00 8.500000000000e-01 -1.200196054879e+03 9.986204275161e-01 0.000000000000e+00 -1.102892912894e-04 -7.988246540581e+02 1.574795221639e-03 -1.198177312063e+03 -7.988007864486e+02 -2.570357948986e-08 3.391866631223e-09 -4.300977968159e-04 0.000000000000e+00 
0.000000000000e+00 0.000000000000e+00 9.000000000000e-01 -1.434207877468e+03 9.983514412367e-01 0.000000000000e+00 -1.338909581882e-04 -9.544073216580e+02 -2.305134427344e-03 -1.431643357112e+03 -9.544202715082e+02 1.394599249018e-08 -4.964904920434e-09 -5.139325537277e-04 0.000000000000e+00 
0.000000000000e+00 0.000000000000e+00 9.500000000000e-01 -1.713627826095e+03 9.980302603172e-01 0.000000000000e+00 -1.620853120939e-04 -1.139917947903e+03 -1.961677290578e-03 -1.709868020565e+03 -1.139914387387e+03 -3.834401698758e-09 -4.225151087399e-09 -6.137962203452e-04 0.000000000000e+00 
0.000000000000e+00 0.000000000000e+00 1.000000000000e+00 -2.102594212636e+03 9.975831605939e-01 0.000000000000e+00 -1.962519314902e-04 -1.398426458542e+03 -1.138229303572e-03 -2.097652031682e+03 -1.398431396090e+03 5.317358691243e-09 -2.451570807695e-09 -7.530068383301e-04 0.000000000000e+00 
1.000000000000e-01 0.000000000000e+00 0.000000000000e+00 0.000000000000e+00 1.000000000000e+00 0.000000000000e+00 0.000000000000e+00 3.949896973879e-01 1.000508100010e-03 6.097631356335e-01 4.019011332086e-01 -7.443084729943e-09 2.154940523098e-09 2.238513872269e-07 0.000000000000e+00 
1.000000000000e-01 0.000000000000e+00 5.000000000000e-02 -2.117101693953e+01 9.999756648488e-01 0.000000000000e+00 -1.791679189988e-07 -1.372058214208e+01 -4.112741865514e-04 -2.058018337145e+01 -1.372030620541e+01 -2.971625626839e-10 -8.858213248799e-10 -7.387560024966e-06 0.000000000000e+00 
1.000000000000e-01 0.000000000000e+00 1.000000000000e-01 -4.297987881953e+01 9.999505965230e-01 0.000000000000e+00 -7.453008535885e-07 -2.830398657928e+01 -3.903019130092e-03 -4.246961426973e+01 -2.830944033960e+01 5.873280350505e-09 -8.406502741737e-09 -1.524941807860e-05 0.000000000000e+00 
1.000000000000e-01 0.000000000000e+00 1.500000000000e-01 -6.611582826268e+01 9.999240027685e-01 0.000000000000e+00 -1.713812722003e-06 -4.371750573775e+01 6.116322666086e-03 -6.550506119175e+01 -4.368902677180e+01 -3.066965564208e-08 1.317361805003e-08 -2.349419091379e-05 0.000000000000e+00 
1.000000000000e-01 0.000000000000e+00 2.000000000000e-01 -9.130923276547e+01 9.998950440601e-01 0.000000000000e+00 -3.115027702690e-06 -6.058722028771e+01 2.455378775048e-02 -9.077631592943e+01 -6.054541448686e+01 -4.502163169235e-08 5.288508130872e-08 -3.255635539969e-05 0.000000000000e+00 
1.000000000000e-01 0.000000000000e+00 2.500000000000e-01 -1.193546905939e+02 9.998628070420e-01 0.000000000000e+00 -4.994055621016e-06 -7.919683760318e+01 4.257729825854e-02 -1.187221752564e+02 -7.916760514384e+01 -3.148111005613e-08 9.170495009532e-08 -4.259722935201e-05 0.000000000000e+00 
1.000000000000e-01 0.000000000000e+00 3.000000000000e-01 -1.511361697614e+02 9.998262756320e-01 0.000000000000e+00 -7.412277551619e-06 -1.004112249841e+02 4.440499993164e-02 -1.506907484278e+02 -1.004407893648e+02 3.183856382472e-08 9.564153831431e-08 -5.411534052946e-05 0.000000000000e+00 
1.000000000000e-01 0.000000000000e+00 3.500000000000e-01 -1.876549852154e+02 9.997842988627e-01 0.000000000000e+00 -1.044540510593e-05 -1.247053430517e+02 2.933848817582e-02 -1.871718391239e+02 -1.247508728702e+02 4.903211228745e-08 6.319058991716e-08 -6.722257904242e-05 0.000000000000e+00 
1.000000000000e-01 0.000000000000e+00 4.000000000000e-01 -2.300615143493e+02 9.997355544259e-01 0.000000000000e+00 -1.418696957449e-05 -1.530381471045e+02 1.075994167232e-02 -2.296226792990e+02 -1.530643305614e+02 2.819756894736e-08 2.317525898653e-08 -8.244745248662e-05 0.000000000000e+00 
1.000000000000e-01 0.000000000000e+00 4.500000000000e-01 -2.796916767879e+02 9.996785067409e-01 0.000000000000e+00 -1.875325822184e-05 -1.861158423572e+02 3.351384851110e-03 -2.791601450074e+02 -1.861103949458e+02 -5.866442976761e-09 7.218367371622e-09 -1.002074231432e-04 0.000000000000e+00 
1.000000000000e-01 0.000000000000e+00 5.000000000000e-01 -3.381093661416e+02 9.996113581809e-01 0.000000000000e+00 -2.428856991851e-05 -2.251058942377e+02 6.232224236165e-03 -3.376398878941e+02 -2.250983128527e+02 -8.164568403408e-09 1.342325220097e-08 -1.211986192754e-04 0.000000000000e+00 
1.000000000000e-01 0.000000000000e+00 5.500000000000e-01 -4.071562258074e+02 9.995319918579e-01 0.000000000000e+00 -3.096866439208e-05 -2.711230201958e+02 3.910724238443e-03 -4.067163151005e+02 -2.711357341185e+02 1.369191675967e-08 8.423098359724e-09 -1.460098564421e-04 0.000000000000e+00 
1.000000000000e-01 0.000000000000e+00 6.000000000000e-01 -4.890104166439e+02 9.994379040721e-01 0.000000000000e+00 -3.900277479565e-05 -3.256636194892e+02 1.157061978506e-03 -4.884777558376e+02 -3.256565501307e+02 -7.613155251730e-09 2.492133492166e-09 -1.753459138382e-04 0.000000000000e+00 
1.000000000000e-01 0.000000000000e+00 6.500000000000e-01 -5.862563428256e+02 9.993261241647e-01 0.000000000000e+00 -4.864220890491e-05 -3.904328374224e+02 4.024818699347e-03 -5.856395905092e+02 -3.904289711726e+02 -4.163653553837e-09 8.668840275518e-09 -2.102268208240e-04 0.000000000000e+00 
1.000000000000e-01 0.000000000000e+00 7.000000000000e-01 -7.019676982051e+02 9.991931190600e-01 0.000000000000e+00 -6.018938873911e-05 -4.674530150475e+02 9.126399209337e-03 -7.011075516907e+02 -4.674242266953e+02 -3.100284087325e-08 1.965685983550e-08 -2.516589653797e-04 0.000000000000e+00 
1.000000000000e-01 0.000000000000e+00 7.500000000000e-01 -8.398066884383e+02 9.990346792139e-01 0.000000000000e+00 -7.400875654336e-05 -5.591421162123e+02 1.140955308734e-02 -8.387522577208e+02 -5.591577495733e+02 1.683592718774e-08 2.457442203427e-08 -3.011017780051e-04 0.000000000000e+00 
1.000000000000e-01 0.000000000000e+00 8.000000000000e-01 -1.004142899494e+03 9.988457819801e-01 0.000000000000e+00 -9.053550575231e-05 -6.684593245618e+02 7.242042597630e-03 -1.002715227609e+03 -6.684698208684e+02 1.130371479852e-08 1.559824559490e-08 -3.599565918747e-04 0.000000000000e+00 
1.000000000000e-01 0.000000000000e+00 8.500000000000e-01 -1.200196054879e+03 9.986204275161e-01 0.000000000000e+00 -1.102893714997e-04 -7.988347044426e+02 2.373564177553e-03 -1.198311725688e+03 -7.988585720521e+02 2.570357948986e-08 5.112292074729e-09 -4.301803192999e-04 0.000000000000e+00 
1.000000000000e-01 0.000000000000e+00 9.000000000000e-01 -1.434207877468e+03 9.983514412367e-01 0.000000000000e+00 -1.338913337692e-04 -9.543895686299e+02 -1.491231628407e-04 -1.431551978319e+03 -9.543766187797e+02 -1.394599249018e-08 -3.211883507338e-10 -5.138811564273e-04 0.000000000000e+00 
1.000000000000e-01 0.000000000000e+00 9.500000000000e-01 -1.713627826095e+03 9.980302603172e-01 0.000000000000e+00 -1.620852174583e-04 -1.139943650808e+03 1.282228672526e-03 -1.709924377502e+03 -1.139947211324e+03 3.834401698758e-09 2.761723294671e-09 -6.138215635762e-04 0.000000000000e+00 
1.000000000000e-01 0.000000000000e+00 1.000000000000e+00 -2.102594212636e+03 9.975831605939e-01 0.000000000000e+00 -1.962520824017e-04 -1.398424225505e+03 7.459433125345e-04 -2.097623994388e+03 -1.398419287957e+03 -5.317358691243e-09 1.606647134690e-09 -7.529896838490e-04 0.000000000000e+00 
1  22  23  2  
2  23  24  3  
3  24  25  4  
4  25  26  5  
5  26  27  6  
6  27  28  7  
7  28  29  8  
8  29  30  9  
9  30  31  10  
10  31  32  11  
11  32  33  12  
12  33  34  13  
13  34  35  14  
14  35  36  15  
15  36  37  16  
16  37  38  17  
17  38  39  18  
18  39  40  19  
19  40  41  20  
20  41  42  21  
VARIABLES  = "X","Y","Z", "PRESSURE1", "SATURATION1", "DISPLACEMENT_X1", "DISPLACEMENT_Y1", "STRESS_XX", "STRESS_XY", "STRESS_YY", "STRESS_ZZ", "STRAIN_XX", "STRAIN_XY", "STRAIN_YY", "STRAIN_PLS"
ZONE T="2.000000000000e+00s", N=42, E=20, F=FEPOINT, ET=QUADRILATERAL
STRANDID=1, SOLUTIONTIME=2.000000000000e+00
0.000000000000e+00 0.000000000000e+00 0.000000000000e+00 0.000000000000e+00 1.000000000000e+00 0.000000000000e+00 0.000000000000e+00 8.804256407327e-02 -8.188292187970e-06 1.198167577262e-01 8.314372871979e-02 5.275668842210e-09 -1.763632163563e-11 3.949403123768e-08 0.000000000000e+00 
0.000000000000e+00 0.000000000000e+00 5.000000000000e-02 -5.534205529971e+01 9.999363867458e-01 0.000000000000e+00 -4.945287784272e-07 -3.680070754196e+01 2.198316569657e-03 -5.520919776175e+01 -3.680396212148e+01 3.504931798521e-09 4.734835688493e-09 -1.982102299721e-05 0.000000000000e+00 
0.000000000000e+00 0.000000000000e+00 1.000000000000e-01 -1.117044313422e+02 9.998716006779e-01 0.000000000000e+00 -1.991152559592e-06 -7.436438304318e+01 3.353791957792e-03 -1.115495536732e+02 -7.436557468655e+01 1.283308244626e-09 7.223551909090e-09 -4.004428506254e-05 0.000000000000e+00 
0.000000000000e+00 0.000000000000e+00 1.500000000000e-01 -1.701801010950e+02 9.998043854720e-01 0.000000000000e+00 -4.517751589299e-06 -1.133264946021e+02 3.292281995850e-03 -1.699864364653e+02 -1.133251724270e+02 -1.423880937055e-09 7.091068914139e-09 -6.101982281052e-05 0.000000000000e+00 
0.000000000000e+00 0.000000000000e+00 2.000000000000e-01 -2.318862049299e+02 9.997334570245e-01 0.000000000000e+00 -8.122041044694e-06 -1.544317734245e+02 2.247867337641e-03 -2.316408353458e+02 -1.544290435081e+02 -2.939909930090e-09 4.841560419534e-09 -8.315116044060e-05 0.000000000000e+00 
0.000000000000e+00 0.000000000000e+00 2.500000000000e-01 -2.979763595038e+02 9.996574893037e-01 0.000000000000e+00 -1.287215135784e-05 -1.984474576935e+02 8.701005256553e-04 -2.976642732292e+02 -1.984446923691e+02 -2.978041699124e-09 1.874062670642e-09 -1.068518563109e-04 0.000000000000e+00 
0.000000000000e+00 0.000000000000e+00 3.000000000000e-01 -3.696521200664e+02 9.995751011750e-01 0.000000000000e+00 -1.885738278036e-05 -2.461763358943e+02 -1.571693241814e-05 -3.692623910580e+02 -2.461754907809e+02 -9.101220813077e-10 -3.385185443906e-11 -1.325551233753e-04 0.000000000000e+00 
0.000000000000e+00 0.000000000000e+00 3.500000000000e-01 -4.481731699770e+02 9.994848446878e-01 0.000000000000e+00 -2.618907295037e-05 -2.984578210223e+02 5.888783153463e-05 -4.476893448561e+02 -2.984588663514e+02 1.125738988596e-09 1.268353294592e-10 -1.607097460820e-04 0.000000000000e+00 
0.000000000000e+00 0.000000000000e+00 4.000000000000e-01 -5.348656826768e+02 9.993851954642e-01 0.000000000000e+00 -3.500165966073e-05 -3.561762578031e+02 8.187068577347e-04 -5.342693174576e+02 -3.561782301043e+02 2.124016619899e-09 1.763368616659e-09 -1.917904017651e-04 0.000000000000e+00 
0.000000000000e+00 0.000000000000e+00 4.500000000000e-01 -6.311281262272e+02 9.992745460267e-01 0.000000000000e+00 -4.545391176933e-05 -4.202601021651e+02 1.609825368892e-03 -6.303929889851e+02 -4.202612364601e+02 1.221548434618e-09 3.467316179152e-09 -2.262957334885e-04 0.000000000000e+00 
0.000000000000e+00 0.000000000000e+00 5.000000000000e-01 -7.384335488534e+02 9.991512031713e-01 0.000000000000e+00 -5.773024759762e-05 -4.916850307273e+02 1.756226398240e-03 -7.375261716675e+02 -4.916844809579e+02 -5.920593161333e-10 3.782641473132e-09 -2.647525899950e-04 0.000000000000e+00 
0.000000000000e+00 0.000000000000e+00 5.500000000000e-01 -8.583270825980e+02 9.990133908369e-01 0.000000000000e+00 -7.204204541441e-05 -5.714722501132e+02 1.145963688326e-03 -8.572037051743e+02 -5.714703821150e+02 -2.011690399402e-09 2.468229482547e-09 -3.077128094485e-04 0.000000000000e+00 
0.000000000000e+00 0.000000000000e+00 6.000000000000e-01 -9.924170141845e+02 9.988592603686e-01 0.000000000000e+00 -8.862876428255e-05 -6.606822194439e+02 -2.855303087152e-05 -9.910169723379e+02 -6.606796767127e+02 -2.738325910695e-09 -6.149883572327e-11 -3.557478568271e-04 0.000000000000e+00 
0.000000000000e+00 0.000000000000e+00 6.500000000000e-01 -1.142357275674e+03 9.986869106444e-01 0.000000000000e+00 -1.077588446019e-04 -7.604049370830e+02 -1.239137361967e-03 -1.140602366961e+03 -7.604029216175e+02 -2.170501259186e-09 -2.668911241161e-09 -4.094455565236e-04 0.000000000000e+00 