 TITLE = "Profiles along polylines"
 VARIABLES = "DIST" "PRESSURE1" "SATURATION1" "DISPLACEMENT_X1" "DISPLACEMENT_Y1" "STRESS_XX" "STRESS_XY" "STRESS_YY" "STRESS_ZZ" "STRAIN_XX" "STRAIN_XY" "STRAIN_YY" "STRAIN_PLS"  p_(1st_Invariant)  q_(2nd_Invariant)   Effective_Strain
 ZONE T="TIME=0.000000000000e+00"
0.000000000000e+00 0.000000000000e+00 1.000000000000e+00 0.000000000000e+00 0.000000000000e+00 0.000000000000e+00 0.000000000000e+00 0.000000000000e+00 0.000000000000e+00 0.000000000000e+00 0.000000000000e+00 0.000000000000e+00 0.000000000000e+00 -0.000000000000e+00 0.000000000000e+00  0.000000000000e+00
5.000000000000e-02 0.000000000000e+00 1.000000000000e+00 0.000000000000e+00 0.000000000000e+00 0.000000000000e+00 0.000000000000e+00 0.000000000000e+00 0.000000000000e+00 0.000000000000e+00 0.000000000000e+00 0.000000000000e+00 0.000000000000e+00 -0.000000000000e+00 0.000000000000e+00  0.000000000000e+00
1.000000000000e-01 0.000000000000e+00 1.000000000000e+00 0.000000000000e+00 0.000000000000e+00 0.000000000000e+00 0.000000000000e+00 0.000000000000e+00 0.000000000000e+00 0.000000000000e+00 0.000000000000e+00 0.000000000000e+00 0.000000000000e+00 -0.000000000000e+00 0.000000000000e+00  0.000000000000e+00
1.500000000000e-01 0.000000000000e+00 1.000000000000e+00 0.000000000000e+00 0.000000000000e+00 0.000000000000e+00 0.000000000000e+00 0.000000000000e+00 0.000000000000e+00 0.000000000000e+00 0.000000000000e+00 0.000000000000e+00 0.000000000000e+00 -0.000000000000e+00 0.000000000000e+00  0.000000000000e+00
2.000000000000e-01 0.000000000000e+00 1.000000000000e+00 0.000000000000e+00 0.000000000000e+00 0.000000000000e+00 0.000000000000e+00 0.000000000000e+00 0.000000000000e+00 0.000000000000e+00 0.000000000000e+00 0.000000000000e+00 0.000000000000e+00 -0.000000000000e+00 0.000000000000e+00  0.000000000000e+00
2.500000000000e-01 0.000000000000e+00 1.000000000000e+00 0.000000000000e+00 0.000000000000e+00 0.000000000000e+00 0.000000000000e+00 0.000000000000e+00 0.000000000000e+00 0.000000000000e+00 0.000000000000e+00 0.000000000000e+00 0.000000000000e+00 -0.000000000000e+00 0.000000000000e+00  0.000000000000e+00
3.000000000000e-01 0.000000000000e+00 1.000000000000e+00 0.000000000000e+00 0.000000000000e+00 0.000000000000e+00 0.000000000000e+00 0.000000000000e+00 0.000000000000e+00 0.000000000000e+00 0.000000000000e+00 0.000000000000e+00 0.000000000000e+00 -0.000000000000e+00 0.000000000000e+00  0.000000000000e+00
3.500000000000e-01 0.000000000000e+00 1.000000000000e+00 0.000000000000e+00 0.000000000000e+00 0.000000000000e+00 0.000000000000e+00 0.000000000000e+00 0.000000000000e+00 0.000000000000e+00 0.000000000000e+00 0.000000000000e+00 0.000000000000e+00 -0.000000000000e+00 0.000000000000e+00  0.000000000000e+00
4.000000000000e-01 0.000000000000e+00 1.000000000000e+00 0.000000000000e+00 0.000000000000e+00 0.000000000000e+00 0.000000000000e+00 0.000000000000e+00 0.000000000000e+00 0.000000000000e+00 0.000000000000e+00 0.000000000000e+00 0.000000000000e+00 -0.000000000000e+00 0.000000000000e+00  0.000000000000e+00
4.500000000000e-01 0.000000000000e+00 1.000000000000e+00 0.000000000000e+00 0.000000000000e+00 0.000000000000e+00 0.000000000000e+00 0.000000000000e+00 0.000000000000e+00 0.000000000000e+00 0.000000000000e+00 0.000000000000e+00 0.000000000000e+00 -0.000000000000e+00 0.000000000000e+00  0.000000000000e+00
5.000000000000e-01 0.000000000000e+00 1.000000000000e+00 0.000000000000e+00 0.000000000000e+00 0.000000000000e+00 0.000000000000e+00 0.000000000000e+00 0.000000000000e+00 0.000000000000e+00 0.000000000000e+00 0.000000000000e+00 0.000000000000e+00 -0.000000000000e+00 0.000000000000e+00  0.000000000000e+00
5.500000000000e-01 0.000000000000e+00 1.000000000000e+00 0.000000000000e+00 0.000000000000e+00 0.000000000000e+00 0.000000000000e+00 0.000000000000e+00 0.000000000000e+00 0.000000000000e+00 0.000000000000e+00 0.000000000000e+00 0.000000000000e+00 -0.000000000000e+00 0.000000000000e+00  0.000000000000e+00
6.000000000000e-01 0.000000000000e+00 1.000000000000e+00 0.000000000000e+00 0.000000000000e+00 0.000000000000e+00 0.000000000000e+00 0.000000000000e+00 0.000000000000e+00 0.000000000000e+00 0.000000000000e+00 0.000000000000e+00 0.000000000000e+00 -0.000000000000e+00 0.000000000000e+00  0.000000000000e+00
6.500000000000e-01 0.000000000000e+00 1.000000000000e+00 0.000000000000e+00 0.000000000000e+00 0.000000000000e+00 0.000000000000e+00 0.000000000000e+00 0.000000000000e+00 0.000000000000e+00 0.000000000000e+00 0.000000000000e+00 0.000000000000e+00 -0.000000000000e+00 0.000000000000e+00  0.000000000000e+00
7.000000000000e-01 0.000000000000e+00 1.000000000000e+00 0.000000000000e+00 0.000000000000e+00 0.000000000000e+00 0.000000000000e+00 0.000000000000e+00 0.000000000000e+00 0.000000000000e+00 0.000000000000e+00 0.000000000000e+00 0.000000000000e+00 -0.000000000000e+00 0.000000000000e+00  0.000000000000e+00
7.500000000000e-01 0.000000000000e+00 1.000000000000e+00 0.000000000000e+00 0.000000000000e+00 0.000000000000e+00 0.000000000000e+00 0.000000000000e+00 0.000000000000e+00 0.000000000000e+00 0.000000000000e+00 0.000000000000e+00 0.000000000000e+00 -0.000000000000e+00 0.000000000000e+00  0.000000000000e+00
8.000000000000e-01 0.000000000000e+00 1.000000000000e+00 0.000000000000e+00 0.000000000000e+00 0.000000000000e+00 0.000000000000e+00 0.000000000000e+00 0.000000000000e+00 0.000000000000e+00 0.000000000000e+00 0.000000000000e+00 0.000000000000e+00 -0.000000000000e+00 0.000000000000e+00  0.000000000000e+00
8.500000000000e-01 0.000000000000e+00 1.000000000000e+00 0.000000000000e+00 0.000000000000e+00 0.000000000000e+00 0.000000000000e+00 0.000000000000e+00 0.000000000000e+00 0.000000000000e+00 0.000000000000e+00 0.000000000000e+00 0.000000000000e+00 -0.000000000000e+00 0.000000000000e+00  0.000000000000e+00
9.000000000000e-01 0.000000000000e+00 1.000000000000e+00 0.000000000000e+00 0.000000000000e+00 0.000000000000e+00 0.000000000000e+00 0.000000000000e+00 0.000000000000e+00 0.000000000000e+00 0.000000000000e+00 0.000000000000e+00 0.000000000000e+00 -0.000000000000e+00 0.000000000000e+00  0.000000000000e+00
9.500000000000e-01 0.000000000000e+00 1.000000000000e+00 0.000000000000e+00 0.000000000000e+00 0.000000000000e+00 0.000000000000e+00 0.000000000000e+00 0.000000000000e+00 0.000000000000e+00 0.000000000000e+00 0.000000000000e+00 0.000000000000e+00 -0.000000000000e+00 0.000000000000e+00  0.000000000000e+00
1.000000000000e+00 0.000000000000e+00 1.000000000000e+00 0.000000000000e+00 0.000000000000e+00 0.000000000000e+00 0.000000000000e+00 0.000000000000e+00 0.000000000000e+00 0.000000000000e+00 0.000000000000e+00 0.000000000000e+00 0.000000000000e+00 -0.000000000000e+00 0.000000000000e+00  0.000000000000e+00
 TITLE = "Profiles along polylines"
 VARIABLES = "DIST" "PRESSURE1" "SATURATION1" "DISPLACEMENT_X1" "DISPLACEMENT_Y1" "STRESS_XX" "STRESS_XY" "STRESS_YY" "STRESS_ZZ" "STRAIN_XX" "STRAIN_XY" "STRAIN_YY" "STRAIN_PLS"  p_(1st_Invariant)  q_(2nd_Invariant)   Effective_Strain
 ZONE T="TIME=1.000000000000e+00"
0.000000000000e+00 0.000000000000e+00 1.000000000000e+00 0.000000000000e+00 0.000000000000e+00 3.949896973879e-01 1.000508100010e-03 6.097631356335e-01 4.019011332086e-01 -7.443084729943e-09 2.154940523098e-09 2.238513872269e-07 0.000000000000e+00 -4.688846554100e-01 2.114095738984e-01  2.276947940154e-07
5.000000000000e-02 -2.117101693953e+01 9.999756648488e-01 0.000000000000e+00 -1.791679189988e-07 -1.372058214208e+01 -4.112741865514e-04 -2.058018337145e+01 -1.372030620541e+01 -2.971625626839e-10 -8.858213248799e-10 -7.387560024966e-06 0.000000000000e+00 1.600702390631e+01 6.859739238856e+00  7.387411607495e-06
1.000000000000e-01 -4.297987881953e+01 9.999505965230e-01 0.000000000000e+00 -7.453008535885e-07 -2.830398657928e+01 -3.903019130092e-03 -4.246961426973e+01 -2.830944033960e+01 5.873280350505e-09 -8.406502741737e-09 -1.524941807860e-05 0.000000000000e+00 3.302768039620e+01 1.416290321122e+01  1.525236251689e-05
1.500000000000e-01 -6.611582826268e+01 9.999240027685e-01 0.000000000000e+00 -1.713812722003e-06 -4.371750573775e+01 6.116322666086e-03 -6.550506119175e+01 -4.368902677180e+01 -3.066965564208e-08 1.317361805003e-08 -2.349419091379e-05 0.000000000000e+00 5.097053123377e+01 2.180181146122e+01  2.347888219675e-05
2.000000000000e-01 -9.130923276547e+01 9.998950440601e-01 0.000000000000e+00 -3.115027702690e-06 -6.058722028771e+01 2.455378775048e-02 -9.077631592943e+01 -6.054541448686e+01 -4.502163169235e-08 5.288508130872e-08 -3.255635539969e-05 0.000000000000e+00 7.063631690133e+01 3.021005017168e+01  3.253399689727e-05
2.500000000000e-01 -1.193546905939e+02 9.998628070420e-01 0.000000000000e+00 -4.994055621016e-06 -7.919683760318e+01 4.257729825854e-02 -1.187221752564e+02 -7.916760514384e+01 -3.148111005613e-08 9.170495009532e-08 -4.259722935201e-05 0.000000000000e+00 9.236220600114e+01 3.954003075927e+01  4.258179377218e-05
3.000000000000e-01 -1.511361697614e+02 9.998262756320e-01 0.000000000000e+00 -7.412277551619e-06 -1.004112249841e+02 4.440499993164e-02 -1.506907484278e+02 -1.004407893648e+02 3.183856382472e-08 9.564153831431e-08 -5.411534052946e-05 0.000000000000e+00 1.171809209255e+02 5.026480661680e+01  5.413152030886e-05
3.500000000000e-01 -1.876549852154e+02 9.997842988627e-01 0.000000000000e+00 -1.044540510593e-05 -1.247053430517e+02 2.933848817582e-02 -1.871718391239e+02 -1.247508728702e+02 4.903211228745e-08 6.319058991716e-08 -6.722257904242e-05 0.000000000000e+00 1.455426850153e+02 6.244376428848e+01  6.724719757327e-05
4.000000000000e-01 -2.300615143493e+02 9.997355544259e-01 0.000000000000e+00 -1.418696957449e-05 -1.530381471045e+02 1.075994167232e-02 -2.296226792990e+02 -1.530643305614e+02 2.819756894736e-08 2.317525898653e-08 -8.244745248662e-05 0.000000000000e+00 1.785750523216e+02 7.657144609154e+01  8.246156465675e-05
4.500000000000e-01 -2.796916767879e+02 9.996785067409e-01 0.000000000000e+00 -1.875325822184e-05 -1.861158423572e+02 3.351384851110e-03 -2.791601450074e+02 -1.861103949458e+02 -5.866442976761e-09 7.218367371622e-09 -1.002074231432e-04 0.000000000000e+00 2.171287941035e+02 9.304702665657e+01  1.002044908305e-04
5.000000000000e-01 -3.381093661416e+02 9.996113581809e-01 0.000000000000e+00 -2.428856991851e-05 -2.251058942377e+02 6.232224236165e-03 -3.376398878941e+02 -2.250983128527e+02 -8.164568403408e-09 1.342325220097e-08 -1.211986192754e-04 0.000000000000e+00 2.626146983282e+02 1.125377850582e+02  1.211945394275e-04
5.500000000000e-01 -4.071562258074e+02 9.995319918579e-01 0.000000000000e+00 -3.096866439208e-05 -2.711230201958e+02 3.910724238443e-03 -4.067163151005e+02 -2.711357341185e+02 1.369191675967e-08 8.423098359724e-09 -1.460098564421e-04 0.000000000000e+00 3.163250231383e+02 1.355869385596e+02  1.460167036108e-04
6.000000000000e-01 -4.890104166439e+02 9.994379040721e-01 0.000000000000e+00 -3.900277479565e-05 -3.256636194892e+02 1.157061978506e-03 -4.884777558376e+02 -3.256565501307e+02 -7.613155251730e-09 2.492133492166e-09 -1.753459138382e-04 0.000000000000e+00 3.799326418192e+02 1.628176711551e+02  1.753421074377e-04
6.500000000000e-01 -5.862563428256e+02 9.993261241647e-01 0.000000000000e+00 -4.864220890491e-05 -3.904328374224e+02 4.024818699347e-03 -5.856395905092e+02 -3.904289711726e+02 -4.163653553837e-09 8.668840275518e-09 -2.102268208240e-04 0.000000000000e+00 4.555004663681e+02 1.952086863649e+02  2.102247395644e-04
7.000000000000e-01 -7.019676982051e+02 9.991931190600e-01 0.000000000000e+00 -6.018938873911e-05 -4.674530150475e+02 9.126399209337e-03 -7.011075516907e+02 -4.674242266953e+02 -3.100284087325e-08 1.965685983550e-08 -2.516589653797e-04 0.000000000000e+00 5.453282644778e+02 2.336689326840e+02  2.516434676948e-04
7.500000000000e-01 -8.398066884383e+02 9.990346792139e-01 0.000000000000e+00 -7.400875654336e-05 -5.591421162123e+02 1.140955308734e-02 -8.387522577208e+02 -5.591577495733e+02 1.683592718774e-08 2.457442203427e-08 -3.011017780051e-04 0.000000000000e+00 6.523507078355e+02 2.796023258542e+02  3.011101993301e-04
8.000000000000e-01 -1.004142899494e+03 9.988457819801e-01 0.000000000000e+00 -9.053550575231e-05 -6.684593245618e+02 7.242042597630e-03 -1.002715227609e+03 -6.684698208684e+02 1.130371479852e-08 1.559824559490e-08 -3.599565918747e-04 0.000000000000e+00 7.798814576797e+02 3.342506552530e+02  3.599622448791e-04
8.500000000000e-01 -1.200196054879e+03 9.986204275161e-01 0.000000000000e+00 -1.102893714997e-04 -7.988347044426e+02 2.373564177553e-03 -1.198311725688e+03 -7.988585720521e+02 2.570357948986e-08 5.112292074729e-09 -4.301803192999e-04 0.000000000000e+00 9.320016673941e+02 3.994650879963e+02  4.301931717566e-04
9.000000000000e-01 -1.434207877468e+03 9.983514412367e-01 0.000000000000e+00 -1.338913337692e-04 -9.543895686299e+02 -1.491231628407e-04 -1.431551978319e+03 -9.543766187797e+02 -1.394599249018e-08 -3.211883507338e-10 -5.138811564273e-04 0.000000000000e+00 1.113439388576e+03 4.771688847464e+02  5.138741835733e-04
9.500000000000e-01 -1.713627826095e+03 9.980302603172e-01 0.000000000000e+00 -1.620852174583e-04 -1.139943650808e+03 1.282228672526e-03 -1.709924377502e+03 -1.139947211324e+03 3.834401698758e-09 2.761723294671e-09 -6.138215635762e-04 0.000000000000e+00 1.329938413211e+03 5.699789464485e+02  6.138234808046e-04
1.000000000000e+00 -2.102594212636e+03 9.975831605939e-01 0.000000000000e+00 -1.962520824017e-04 -1.398424225505e+03 7.459433125345e-04 -2.097623994388e+03 -1.398419287957e+03 -5.317358691243e-09 1.606647134690e-09 -7.529896838490e-04 0.000000000000e+00 1.631489169283e+03 6.992022376718e+02  7.529870251889e-04
 TITLE = "Profiles along polylines"
 VARIABLES = "DIST" "PRESSURE1" "SATURATION1" "DISPLACEMENT_X1" "DISPLACEMENT_Y1" "STRESS_XX" "STRESS_XY" "STRESS_YY" "STRESS_ZZ" "STRAIN_XX" "STRAIN_XY" "STRAIN_YY" "STRAIN_PLS"  p_(1st_Invariant)  q_(2nd_Invariant)   Effective_Strain
 ZONE T="TIME=5.000000000000e+00"
0.000000000000e+00 0.000000000000e+00 1.000000000000e+00 0.000000000000e+00 0.000000000000e+00 8.138293403157e-02 -4.716872180953e-05 1.074457841507e-01 7.553148727290e-02 6.301558047792e-09 -1.015941700513e-10 3.436924279146e-08 0.000000000000e+00 -8.812006848505e-02 2.942827959662e-02  3.169235979704e-08
5.000000000000e-02 -1.467862125929e+02 9.998312757161e-01 0.000000000000e+00 -1.315324694538e-06 -9.775703866865e+01 -2.370716787746e-03 -1.466433040117e+02 -9.776013707214e+01 3.336742220402e-09 -5.106159235146e-09 -5.264341055030e-05 0.000000000000e+00 1.140534932508e+02 4.888471638740e+01  5.264507974360e-05
1.000000000000e-01 -2.942333580780e+02 9.996617917190e-01 0.000000000000e+00 -5.270066105110e-06 -1.960077606080e+02 -3.078588027453e-03 -2.940103555973e+02 -1.960072464821e+02 -5.536739928645e-10 -6.630804982207e-09 -1.055418098164e-04 0.000000000000e+00 2.286751208958e+02 9.800285219836e+01  1.055415336054e-04
1.500000000000e-01 -4.431185850303e+02 9.994906547105e-01 0.000000000000e+00 -1.188225698667e-05 -2.951851662559e+02 -2.106271268263e-03 -4.427694950367e+02 -2.951818645170e+02 -3.555718761507e-09 -4.536584270106e-09 -1.589405251750e-04 0.000000000000e+00 3.443788419365e+02 1.475859797230e+02  1.589387475397e-04
2.000000000000e-01 -5.942068271926e+02 9.993169854332e-01 0.000000000000e+00 -2.118376314218e-05 -3.957954536715e+02 -1.259047261970e-04 -5.936824298724e+02 -3.957911534176e+02 -4.631042739639e-09 -2.711794102704e-10 -2.131136823359e-04 0.000000000000e+00 4.617563456538e+02 1.978891263630e+02  2.131113668528e-04
2.500000000000e-01 -7.482447955294e+02 9.991399255756e-01 0.000000000000e+00 -3.321991702563e-05 -4.983300475967e+02 1.917024253141e-03 -7.474867280821e+02 -4.983267102716e+02 -3.594042514313e-09 4.128975314457e-09 -2.683261730268e-04 0.000000000000e+00 5.813811619835e+02 2.491583491869e+02  2.683243761189e-04
3.000000000000e-01 -9.059549465598e+02 9.989586447057e-01 0.000000000000e+00 -4.804909227276e-05 -6.032668812825e+02 3.040837035324e-03 -9.048981525324e+02 -6.032660135260e+02 -9.345070232159e-10 6.549495153006e-09 -3.248346112377e-04 0.000000000000e+00 7.038103491136e+02 3.016317051751e+02  3.248341441833e-04
3.500000000000e-01 -1.068029439825e+03 9.987723472168e-01 0.000000000000e+00 -6.574217496979e-05 -7.110604571460e+02 2.613673993297e-03 -1.066596877874e+03 -7.110629340080e+02 2.667389770052e-09 5.629451677871e-09 -3.828827087787e-04 0.000000000000e+00 8.295734230093e+02 3.555351823322e+02  3.828840426047e-04
4.000000000000e-01 -1.235124122916e+03 9.985802792409e-01 0.000000000000e+00 -8.638196474190e-05 -8.221479511479e+02 6.539153846906e-04 -1.233233985525e+03 -8.221527746692e+02 5.194561401152e-09 1.408433136257e-09 -4.427028424602e-04 0.000000000000e+00 9.591782371141e+02 4.110836226394e+02  4.427054397705e-04
4.500000000000e-01 -1.407852615359e+03 9.983817354493e-01 0.000000000000e+00 -1.100624333238e-04 -9.369325895632e+02 -1.768998850682e-03 -1.405410108626e+03 -9.369370792758e+02 4.835075039421e-09 -3.810151370700e-09 -5.045094162235e-04 0.000000000000e+00 1.093093259155e+03 4.684752742328e+02  5.045118338216e-04
5.000000000000e-01 -1.586780603266e+03 9.981760656109e-01 0.000000000000e+00 -1.368879862420e-04 -1.055792268766e+03 -3.168100937772e-03 -1.583690533124e+03 -1.055793120756e+03 9.175275610706e-10 -6.823602019817e-09 -5.685049056269e-04 0.000000000000e+00 1.231758640882e+03 5.278978383918e+02  5.685053645141e-04
5.500000000000e-01 -1.772420505377e+03 9.979626807228e-01 0.000000000000e+00 -1.669726413468e-04 -1.179057717753e+03 -2.498424134912e-03 -1.768577968202e+03 -1.179054274382e+03 -3.708245248334e-09 -5.381221213657e-09 -6.348716702681e-04 0.000000000000e+00 1.375563320112e+03 5.895219721585e+02  6.348698162220e-04
6.000000000000e-01 -1.965226728547e+03 9.977410584644e-01 0.000000000000e+00 -2.004391280888e-04 -1.307035007293e+03 -2.685196676853e-04 -1.960539043985e+03 -1.307029620511e+03 -5.801149549751e-09 -5.783500534760e-10 -7.037793791257e-04 0.000000000000e+00 1.524867890596e+03 6.535067300999e+02  7.037764785696e-04
6.500000000000e-01 -2.165591797288e+03 9.975216376021e-01 0.000000000000e+00 -2.374180812931e-04 -1.439647034137e+03 1.982409998303e-03 -2.159462434449e+03 -1.439643787434e+03 -3.496449211250e-09 4.269806150192e-09 -7.751893121693e-04 0.000000000000e+00 1.679584418673e+03 7.198170236766e+02  7.751875639859e-04
7.000000000000e-01 -2.381844928519e+03 9.967802244787e-01 0.000000000000e+00 -2.780991758551e-04 -1.582216283182e+03 2.684586574334e-03 -2.373326256970e+03 -1.582217016061e+03 7.892536672125e-10 5.782186467797e-09 -8.519637979018e-04 0.000000000000e+00 1.845919852071e+03 7.911096073619e+02  8.519641925878e-04
7.500000000000e-01 -2.623554792005e+03 9.959393623206e-01 0.000000000000e+00 -3.228404080449e-04 -1.741254276109e+03 1.670804449694e-03 -2.611890321106e+03 -1.741257838886e+03 3.836836587851e-09 3.598655737801e-09 -9.376042116215e-04 0.000000000000e+00 2.031467478701e+03 8.706342636187e+02  9.376061300664e-04
8.000000000000e-01 -2.892800408884e+03 9.950032047983e-01 0.000000000000e+00 -3.721034228909e-04 -1.917750261757e+03 -7.035649955596e-05 -2.876633438957e+03 -1.917753480286e+03 3.466107836095e-09 -1.515370759667e-10 -1.032639955492e-03 0.000000000000e+00 2.237379060333e+03 9.588815679399e+02  1.032641688551e-03
8.500000000000e-01 -3.194678437851e+03 9.935748649141e-01 0.000000000000e+00 -4.263919873704e-04 -2.114605716573e+03 -1.230087746664e-03 -3.171911292597e+03 -2.114606803668e+03 1.170717750536e-09 -2.649419762046e-09 -1.138635603462e-03 0.000000000000e+00 2.467041270946e+03 1.057305032479e+03  1.138636188830e-03
9.000000000000e-01 -3.537932381545e+03 9.918286587363e-01 0.000000000000e+00 -4.863306879480e-04 -2.337103443352e+03 -1.409994646753e-03 -3.505653396027e+03 -2.337102735751e+03 -7.620309391905e-10 -3.036911546853e-09 -1.258439172604e-03 0.000000000000e+00 2.726619858377e+03 1.168550306478e+03  1.258438791600e-03
9.500000000000e-01 -3.932130466816e+03 9.894690859526e-01 0.000000000000e+00 -5.526813570283e-04 -2.590419516125e+03 -1.061532306938e-03 -3.885627130415e+03 -2.590418658616e+03 -9.234710123049e-10 -2.286377276482e-09 -1.394839892707e-03 0.000000000000e+00 3.022155101719e+03 1.295208043046e+03  1.394839430977e-03
1.000000000000e+00 -4.388410622511e+03 9.862519346014e-01 0.000000000000e+00 -6.263532873116e-04 -2.886449815048e+03 -3.537185688668e-04 -4.329670867881e+03 -2.886448273172e+03 -1.660482100370e-09 -7.618553790976e-10 -1.554239717380e-03 0.000000000000e+00 3.367522985367e+03 1.443221823772e+03  1.554238887140e-03
 TITLE = "Profiles along polylines"
 VARIABLES = "DIST" "PRESSURE1" "SATURATION1" "DISPLACEMENT_X1" "DISPLACEMENT_Y1" "STRESS_XX" "STRESS_XY" "STRESS_YY" "STRESS_ZZ" "STRAIN_XX" "STRAIN_XY" "STRAIN_YY" "STRAIN_PLS"  p_(1st_Invariant)  q_(2nd_Invariant)   Effective_Strain
 ZONE T="TIME=1.000000000000e+01"
0.000000000000e+00 0.000000000000e+00 1.000000000000e+00 0.000000000000e+00 0.000000000000e+00 3.925178147209e-02 -4.611062712160e-05 5.439486888014e-02 3.745866014089e-02 1.931053741287e-09 -9.931519687730e-11 1.823899402689e-08 0.000000000000e+00 -4.370177016437e-02 1.611484259860e-02  1.735508526446e-08
5.000000000000e-02 -2.198276059111e+02 9.997473178527e-01 0.000000000000e+00 -1.971479124668e-06 -1.464633123189e+02 -1.060576848381e-03 -2.196997144615e+02 -1.464652107122e+02 2.044423525697e-09 -2.284319365744e-09 -7.886792711470e-05 0.000000000000e+00 1.708760791642e+02 7.323545298749e+01  7.886894944558e-05
1.000000000000e-01 -4.398605071817e+02 9.994943997275e-01 0.000000000000e+00 -7.887959974405e-06 -2.930233295655e+02 -1.400563121345e-03 -4.395344390207e+02 -2.930231074345e+02 -2.392180045029e-10 -3.016597492128e-09 -1.577814340159e-04 0.000000000000e+00 3.418602920069e+02 1.465112205409e+02  1.577813144936e-04
1.500000000000e-01 -6.604476577990e+02 9.992408445170e-01 0.000000000000e+00 -1.775430638360e-05 -4.398878027972e+02 -1.271158022854e-03 -6.598308149655e+02 -4.398874471051e+02 -3.830530691747e-10 -2.737878818454e-09 -2.368620884651e-04 0.000000000000e+00 5.132020216226e+02 2.199431900256e+02  2.368618969862e-04
2.000000000000e-01 -8.819363401462e+02 9.989862530355e-01 0.000000000000e+00 -3.158149917619e-05 -5.872673168625e+02 -2.362030847702e-04 -8.808921498662e+02 -5.872637866915e+02 -3.801722656788e-09 -5.087451056589e-10 -3.162151603420e-04 0.000000000000e+00 6.851410844734e+02 2.936265981054e+02  3.162132594990e-04
2.500000000000e-01 -1.104671288208e+03 9.987302290266e-01 0.000000000000e+00 -4.938685502162e-05 -7.354103818605e+02 1.089450218506e-03 -1.103111228853e+03 -7.354086442855e+02 -1.871234640981e-09 2.346508162935e-09 -3.959873987652e-04 0.000000000000e+00 8.579767516664e+02 3.677017157881e+02  3.959864631721e-04
3.000000000000e-01 -1.328993931428e+03 9.984723800319e-01 0.000000000000e+00 -7.119376979000e-05 -8.845222817779e+02 2.029792849655e-03 -1.326778737510e+03 -8.845204077153e+02 -2.018221234343e-09 4.371861522333e-09 -4.762782013178e-04 0.000000000000e+00 1.031940475668e+03 4.422573927808e+02  4.762771922706e-04
3.500000000000e-01 -1.555241806904e+03 9.982123180677e-01 0.000000000000e+00 -9.703169162279e-05 -1.034841168627e+03 1.824195217376e-03 -1.552268567079e+03 -1.034843894282e+03 2.935321335372e-09 3.929035852810e-09 -5.572265707040e-04 0.000000000000e+00 1.207317876662e+03 5.174260356394e+02  5.572280384120e-04
4.000000000000e-01 -1.783748195385e+03 9.979496600422e-01 0.000000000000e+00 -1.269359189866e-04 -1.186582927760e+03 2.833153291798e-04 -1.779881817706e+03 -1.186585898186e+03 3.198920440970e-09 6.102176320795e-10 -6.389340671746e-04 0.000000000000e+00 1.384350214551e+03 5.932974047381e+02  6.389356666417e-04
4.500000000000e-01 -2.014842047376e+03 9.976920801970e-01 0.000000000000e+00 -1.609477020499e-04 -1.339868378357e+03 -1.258846511577e-03 -2.009810803461e+03 -1.339871672727e+03 3.547783572802e-09 -2.711361717243e-09 -7.214729100213e-04 0.000000000000e+00 1.563183618182e+03 6.699407779289e+02  7.214746839349e-04
5.000000000000e-01 -2.248831551634e+03 9.972656137729e-01 0.000000000000e+00 -1.991081938643e-04 -1.494569917903e+03 -2.126297919610e-03 -2.241854350234e+03 -1.494569707255e+03 -2.268517453916e-10 -4.579718596083e-09 -8.047680770547e-04 0.000000000000e+00 1.743664658464e+03 7.472845376644e+02  8.047679636680e-04
5.500000000000e-01 -2.489256034888e+03 9.964065618842e-01 0.000000000000e+00 -2.414802393144e-04 -1.652965746007e+03 -1.257099934719e-03 -2.479441562189e+03 -1.652962923278e+03 -3.039861870393e-09 -2.707599859396e-09 -8.900539188265e-04 0.000000000000e+00 1.928456743825e+03 8.264772275524e+02  8.900523989118e-04
6.000000000000e-01 -2.740431297084e+03 9.955401967337e-01 0.000000000000e+00 -2.882080466239e-04 -1.818036544095e+03 7.130137017550e-05 -2.727047803485e+03 -1.818033739032e+03 -3.020837276617e-09 1.535721819165e-10 -9.789382232569e-04 0.000000000000e+00 2.121039362204e+03 9.090126619245e+02  9.789367128418e-04
6.500000000000e-01 -3.003275067142e+03 9.944900151255e-01 0.000000000000e+00 -3.394757410567e-04 -1.990083888281e+03 1.398355543300e-03 -2.985120796372e+03 -1.990081873861e+03 -2.169375131796e-09 3.011842708645e-09 -1.071580378089e-03 0.000000000000e+00 2.321762186171e+03 9.950379153054e+02  1.071579293415e-03
7.000000000000e-01 -3.280462111144e+03 9.931704653677e-01 0.000000000000e+00 -3.954912466712e-04 -2.170668613919e+03 1.427008247103e-03 -3.256007466770e+03 -2.170670432276e+03 1.958229996330e-09 3.073556224530e-09 -1.168824498686e-03 0.000000000000e+00 2.532448837655e+03 1.085337943677e+03  1.168825477815e-03
7.500000000000e-01 -3.576405981611e+03 9.915969294602e-01 0.000000000000e+00 -4.565209330812e-04 -2.362438627052e+03 7.634386417588e-04 -3.543660789475e+03 -2.362439766611e+03 1.227216940913e-09 1.644329382250e-09 -1.272084178469e-03 0.000000000000e+00 2.756179727712e+03 1.181221592644e+03  1.272084792081e-03
8.000000000000e-01 -3.895162737367e+03 9.897092194648e-01 0.000000000000e+00 -5.228976651583e-04 -2.567608366815e+03 -2.299985658494e-04 -3.851418982745e+03 -2.567610939824e+03 2.770933096899e-09 -4.953815264448e-10 -1.382562507761e-03 0.000000000000e+00 2.995546096461e+03 1.283809329428e+03  1.382563893230e-03
8.500000000000e-01 -4.241256474829e+03 9.873509714897e-01 0.000000000000e+00 -5.950125261900e-04 -2.788446863269e+03 -7.545224523143e-04 -4.182668602947e+03 -2.788446186486e+03 -7.288429127281e-10 -1.625125281908e-09 -1.501470294650e-03 0.000000000000e+00 3.253187217567e+03 1.394222078070e+03  1.501469930231e-03
9.000000000000e-01 -4.619910733896e+03 9.844315055534e-01 0.000000000000e+00 -6.733238542564e-04 -3.027562521490e+03 -7.211759439856e-04 -4.541344792168e+03 -3.027562925463e+03 4.350481591407e-10 -1.553302033200e-09 -1.630226625682e-03 0.000000000000e+00 3.532156746373e+03 1.513782068692e+03  1.630226843208e-03
9.500000000000e-01 -5.037053941689e+03 9.808200427335e-01 0.000000000000e+00 -7.583619033810e-04 -3.287027019769e+03 -5.243842671730e-04 -4.930537599107e+03 -3.287025847551e+03 -1.262389132078e-09 -1.129443036988e-09 -1.769935732446e-03 0.000000000000e+00 3.834863488809e+03 1.643511165448e+03  1.769935101253e-03
1.000000000000e+00 -5.501186184649e+03 9.759306639983e-01 0.000000000000e+00 -8.507115907548e-04 -3.581206413224e+03 -6.596705580165e-05 -5.371808969370e+03 -3.581206153038e+03 -2.802006141309e-10 -1.420828894189e-10 -1.928341494512e-03 0.000000000000e+00 4.178073845211e+03 1.790602686239e+03  1.928341354412e-03
 TITLE = "Profiles along polylines"
 VARIABLES = "DIST" "PRESSURE1" "SATURATION1" "DISPLACEMENT_X1" "DISPLACEMENT_Y1" "STRESS_XX" "STRESS_XY" "STRESS_YY" "STRESS_ZZ" "STRAIN_XX" "STRAIN_XY" "STRAIN_YY" "STRAIN_PLS"  p_(1st_Invariant)  q_(2nd_Invariant)   Effective_Strain
 ZONE T="TIME=2.000000000000e+01"
0.000000000000e+00 0.000000000000e+00 1.000000000000e+00 0.000000000000e+00 0.000000000000e+00 1.838181991894e-02 -1.051360380691e-05 2.599086583940e-02 1.774907430333e-02 6.814183552739e-10 -2.264468512257e-11 8.875775500371e-09 0.000000000000e+00 -2.070725335389e-02 7.944360823032e-03  8.555532929628e-09
5.000000000000e-02 -2.917662307980e+02 9.996646275731e-01 0.000000000000e+00 -2.617197452250e-06 -1.944026186201e+02 -3.379347916008e-04 -2.916053341745e+02 -1.944031811178e+02 6.057668364247e-10 -7.278595511402e-10 -1.046792417534e-04 0.000000000000e+00 2.268037113041e+02 9.720243430856e+01  1.046795446457e-04
1.000000000000e-01 -5.835556897015e+02 9.993292284464e-01 0.000000000000e+00 -1.046725733463e-05 -3.887092844851e+02 -5.667874174182e-04 -5.830648377701e+02 -3.887096489021e+02 3.924490516186e-10 -1.220772899055e-09 -2.093055880117e-04 0.000000000000e+00 4.534945903857e+02 1.943553710792e+02  2.093057842472e-04
1.500000000000e-01 -8.755318201619e+02 9.989936147491e-01 0.000000000000e+00 -2.354854891112e-05 -5.830106498940e+02 -5.720800985610e-04 -8.745153256186e+02 -5.830103902050e+02 -2.796650227908e-10 -1.232172519978e-09 -3.139283919838e-04 0.000000000000e+00 6.801787885725e+02 2.915048055709e+02  3.139282521587e-04
2.000000000000e-01 -1.167856837442e+03 9.986576000217e-01 0.000000000000e+00 -4.186234541236e-05 -7.774135009968e+02 -2.288754131386e-04 -1.166117685551e+03 -7.774124746192e+02 -1.105329777201e-09 -4.929624282986e-10 -4.186056117728e-04 0.000000000000e+00 9.069812203890e+02 3.887046977443e+02  4.186050591099e-04
2.500000000000e-01 -1.460690920290e+03 9.983210001459e-01 0.000000000000e+00 -6.541281111426e-05 -9.720229678027e+02 3.582454487310e-04 -1.458031282757e+03 -9.720217002240e+02 -1.365084748871e-09 7.716055818820e-10 -5.233949350359e-04 0.000000000000e+00 1.134025316928e+03 4.860089487456e+02  5.233942524965e-04
3.000000000000e-01 -1.754191352348e+03 9.979836343310e-01 0.000000000000e+00 -9.420695358894e-05 -1.166953968024e+03 8.099424330552e-04 -1.750429636873e+03 -1.166953441959e+03 -5.665317297303e-10 1.744491394273e-09 -6.283589791385e-04 0.000000000000e+00 1.361445682285e+03 5.834759318836e+02  6.283586958801e-04