 TITLE = "Time curves in points"
 VARIABLES = "TIME "  "PRESSURE1"  "SATURATION1"  "DISPLACEMENT_X1"  "DISPLACEMENT_Y1"  "STRESS_XX"  "STRESS_XY"  "STRESS_YY"  "STRESS_ZZ"  "STRAIN_XX"  "STRAIN_XY"  "STRAIN_YY"  "STRAIN_PLS"  p_(1st_Invariant)  q_(2nd_Invariant)   Effective_Strain
 ZONE T="POINT=POINT0"
0.000000000000e+00 0.000000000000e+00 1.000000000000e+00 0.000000000000e+00 0.000000000000e+00 0.000000000000e+00 0.000000000000e+00 0.000000000000e+00 0.000000000000e+00 0.000000000000e+00 0.000000000000e+00 0.000000000000e+00 0.000000000000e+00 -0.000000000000e+00 0.000000000000e+00  0.000000000000e+00
1.000000000000e+00 -2.102594212636e+03 9.975831605939e-01 0.000000000000e+00 -1.962540132786e-04 -1.398427660893e+03 2.273022362385e-03 -2.097624194069e+03 -1.398420741985e+03 -7.451131967661e-09 4.895740472830e-09 -7.529883330137e-04 0.000000000000e+00 1.631490865649e+03 6.991999926667e+02  7.529846075231e-04
2.000000000000e+00 -2.999353595962e+03 9.945498895068e-01 0.000000000000e+00 -3.454525053001e-04 -1.989033309043e+03 -7.933161810626e-04 -2.983554645721e+03 -1.989035181906e+03 2.016928802754e-09 -1.708681005366e-09 -1.071020961032e-03 0.000000000000e+00 2.320541045556e+03 9.945204002487e+02  1.071021969502e-03
3.000000000000e+00 -3.604603137824e+03 9.914568603293e-01 0.000000000000e+00 -4.662694438010e-04 -2.383174283556e+03 1.953542693338e-03 -3.574744288652e+03 -2.383167428883e+03 -7.381955665083e-09 4.207630416420e-09 -1.283236618212e-03 0.000000000000e+00 2.780362000364e+03 1.191573432451e+03  1.283232927271e-03
4.000000000000e+00 -4.041701610015e+03 9.887330194036e-01 0.000000000000e+00 -5.551017370101e-04 -2.664961071850e+03 -2.669797366115e-05 -3.997441948444e+03 -2.664961208118e+03 1.467497146582e-10 -5.750332788556e-11 -1.434979258813e-03 0.000000000000e+00 3.109121409471e+03 1.332480808460e+03  1.434979332188e-03
5.000000000000e+00 -4.388410622511e+03 9.862519346014e-01 0.000000000000e+00 -6.263531758891e-04 -2.886447180786e+03 1.059070205797e-04 -4.329669886131e+03 -2.886446826767e+03 -3.812510789051e-10 2.281074289408e-10 -1.554240217777e-03 0.000000000000e+00 3.367521297895e+03 1.443222882355e+03  1.554240027152e-03
6.000000000000e+00 -4.677125350176e+03 9.839610183803e-01 0.000000000000e+00 -6.846865539623e-04 -3.069323837537e+03 1.304174801054e-04 -4.603984137469e+03 -3.069323190002e+03 -6.973453440636e-10 2.808991879194e-10 -1.652711789579e-03 0.000000000000e+00 3.580877055003e+03 1.534660623699e+03  1.652711440906e-03
7.000000000000e+00 -4.924452240886e+03 9.818384431864e-01 0.000000000000e+00 -7.335611964026e-04 -3.224767038207e+03 1.956905292584e-04 -4.837148350291e+03 -3.224766155399e+03 -9.507162718683e-10 4.214872937874e-10 -1.736411594499e-03 0.000000000000e+00 3.762227181299e+03 1.612381753488e+03  1.736411119141e-03
8.000000000000e+00 -5.140410523082e+03 9.798416189461e-01 0.000000000000e+00 -7.778992588977e-04 -3.359445005279e+03 -8.717677140767e-05 -5.039168359163e+03 -3.359445345777e+03 3.666896170236e-10 -1.877653538011e-10 -1.808932475954e-03 0.000000000000e+00 3.919352903406e+03 1.679723183635e+03  1.808932659299e-03
9.000000000000e+00 -5.328462460637e+03 9.778265946546e-01 0.000000000000e+00 -8.157122878640e-04 -3.475358665180e+03 3.299267965376e-05 -5.213037946117e+03 -3.475358644519e+03 -2.225084947112e-11 7.106115617733e-11 -1.871346940182e-03 0.000000000000e+00 4.054585085272e+03 1.737679291267e+03  1.871346929057e-03
1.000000000000e+01 -5.501186184649e+03 9.759306639983e-01 0.000000000000e+00 -8.507116460208e-04 -3.581205673297e+03 1.053268244098e-04 -5.371807276431e+03 -3.581205179891e+03 -5.313599852745e-10 2.268577756519e-10 -1.928340719351e-03 0.000000000000e+00 4.178072709873e+03 1.790601849837e+03  1.928340453671e-03
1.100000000000e+01 -5.658996498446e+03 9.742278002399e-01 0.000000000000e+00 -8.814046638167e-04 -3.677581426307e+03 6.501524130725e-04 -5.516366628423e+03 -3.677579221892e+03 -2.373985538208e-09 1.400328274310e-09 -1.980232591649e-03 0.000000000000e+00 4.290509092207e+03 1.838786304325e+03  1.980231404658e-03
1.200000000000e+01 -5.803295410818e+03 9.726776974643e-01 0.000000000000e+00 -9.101293075374e-04 -3.765355068383e+03 -2.248550101417e-05 -5.648033032320e+03 -3.765355240281e+03 1.851210295528e-10 -4.843030987667e-11 -2.027499160657e-03 0.000000000000e+00 4.392914446995e+03 1.882677877988e+03  2.027499253218e-03
1.300000000000e+01 -5.938090257574e+03 9.712296902502e-01 0.000000000000e+00 -9.369127277701e-04 -3.847080221514e+03 8.227502887025e-05 -5.770619648874e+03 -3.847079948155e+03 -2.943863546485e-10 1.772077544898e-10 -2.071504293082e-03 0.000000000000e+00 4.488259939514e+03 1.923539564039e+03  2.071504145889e-03
1.400000000000e+01 -6.063879632567e+03 9.698784225510e-01 0.000000000000e+00 -9.611594118249e-04 -3.923117182206e+03 3.654890730530e-04 -5.884672828103e+03 -3.923116004123e+03 -1.268703875679e-09 7.872072342680e-10 -2.112445810440e-03 0.000000000000e+00 4.576968671477e+03 1.961556234939e+03  2.112445176088e-03
1.500000000000e+01 -6.181379260781e+03 9.684085510137e-01 0.000000000000e+00 -9.841611469402e-04 -3.993183032697e+03 -8.392107291877e-05 -5.989775146065e+03 -3.993183271505e+03 2.571779219636e-10 -1.807530801327e-10 -2.150175864911e-03 0.000000000000e+00 4.658713816756e+03 1.996591993965e+03  2.150175993500e-03
1.600000000000e+01 -6.291829678325e+03 9.669197245292e-01 0.000000000000e+00 -1.005994509026e-03 -4.058446311090e+03 3.651640071884e-05 -6.087669269662e+03 -4.058446232301e+03 -8.485000107405e-11 7.865070924058e-11 -2.185317117158e-03 0.000000000000e+00 4.734853937685e+03 2.029222997967e+03  2.185317074733e-03
1.700000000000e+01 -6.395909937575e+03 9.655167213879e-01 0.000000000000e+00 -1.026548232674e-03 -4.119747816528e+03 1.916267217919e-05 -6.179621191311e+03 -4.119747603136e+03 -2.298070747868e-10 4.127344777056e-11 -2.218325402651e-03 0.000000000000e+00 4.806372203658e+03 2.059873481479e+03  2.218325287747e-03
1.800000000000e+01 -6.494268142428e+03 9.641986568911e-01 0.000000000000e+00 -1.046048694164e-03 -4.177520110618e+03 -9.458410804390e-06 -6.266280366459e+03 -4.177520190831e+03 8.638274885619e-11 -2.037196173253e-11 -2.249434035292e-03 0.000000000000e+00 4.873773555969e+03 2.088760215734e+03  2.249434078483e-03
1.900000000000e+01 -6.587392041409e+03 9.629755729497e-01 0.000000000000e+00 -1.064551572120e-03 -4.232104082712e+03 4.245718524022e-04 -6.348152211971e+03 -4.232102517873e+03 -1.685211265632e-09 9.144624513277e-10 -2.278822747490e-03 0.000000000000e+00 4.937452937519e+03 2.116048911679e+03  2.278821904885e-03
2.000000000000e+01 -6.675772953908e+03 9.618147831204e-01 0.000000000000e+00 -1.081630750442e-03 -4.283712150697e+03 -6.606324674603e-05 -6.425568901097e+03 -4.283712420718e+03 2.907914231549e-10 -1.422900699145e-10 -2.306614671178e-03 0.000000000000e+00 4.997664490837e+03 2.141856615390e+03  2.306614816574e-03
2.100000000000e+01 -6.759941005158e+03 9.607093247688e-01 0.000000000000e+00 -1.098103987520e-03 -4.332735062663e+03 -4.557338203101e-06 -6.499102646306e+03 -4.332735083588e+03 2.253384995850e-11 -9.815805360524e-12 -2.333011221389e-03 0.000000000000e+00 5.054857597519e+03 2.166367573180e+03  2.333011232656e-03
2.200000000000e+01 -6.840157925681e+03 9.596557603413e-01 0.000000000000e+00 -1.113916403794e-03 -4.379341347148e+03 7.012574474920e-05 -6.569011240433e+03 -4.379341035032e+03 -3.361246596925e-10 1.510400656137e-10 -2.358106375047e-03 0.000000000000e+00 5.109231207538e+03 2.189670049343e+03  2.358106206984e-03
2.300000000000e+01 -6.916704891593e+03 9.585313021695e-01 0.000000000000e+00 -1.128950290044e-03 -4.423226312773e+03 8.941112670930e-06 -6.634839420224e+03 -4.423226293199e+03 -2.108011647572e-11 1.925778113739e-11 -2.381737213719e-03 0.000000000000e+00 5.160430675399e+03 2.211613117238e+03  2.381737203179e-03
2.400000000000e+01 -6.989835820229e+03 9.573940361369e-01 0.000000000000e+00 -1.143349405267e-03 -4.464794993378e+03 3.834194612012e-05 -6.697192248721e+03 -4.464794896840e+03 -1.039647441122e-10 8.258265318179e-11 -2.404120225103e-03 0.000000000000e+00 5.208927379646e+03 2.232397303612e+03  2.404120173120e-03
2.500000000000e+01 -7.059800136258e+03 9.563060150028e-01 0.000000000000e+00 -1.157148883851e-03 -4.504462139866e+03 2.645555162254e-05 -6.756692988136e+03 -4.504462051201e+03 -9.548548858601e-11 5.698118811009e-11 -2.425479470546e-03 0.000000000000e+00 5.255205726401e+03 2.252230892603e+03  2.425479422803e-03
2.600000000000e+01 -7.126990485557e+03 9.552611348177e-01 0.000000000000e+00 -1.170414613600e-03 -4.542462820590e+03 -1.192117801766e-05 -6.813694249185e+03 -4.542462827910e+03 7.882960462401e-12 -2.567638342265e-11 -2.445941530604e-03 0.000000000000e+00 5.299539965895e+03 2.271231424935e+03  2.445941534545e-03
2.700000000000e+01 -7.191599809959e+03 9.542563902998e-01 0.000000000000e+00 -1.183182893737e-03 -4.578917446669e+03 -1.568234084832e-05 -6.868376379316e+03 -4.578917530394e+03 9.016515425536e-11 -3.377734951947e-11 -2.465571068070e-03 0.000000000000e+00 5.342070452127e+03 2.289458890784e+03  2.465571113152e-03
2.800000000000e+01 -7.253760208403e+03 9.532949118910e-01 0.000000000000e+00 -1.195464395413e-03 -4.613922232908e+03 1.980543550924e-04 -6.920881653256e+03 -4.613921554466e+03 -7.306303892389e-10 4.265786109683e-10 -2.484418567928e-03 0.000000000000e+00 5.382908480210e+03 2.306959759569e+03  2.484418202613e-03
2.900000000000e+01 -7.313603805277e+03 9.523825757118e-01 0.000000000000e+00 -1.207281021630e-03 -4.647574978422e+03 -2.389934520575e-06 -6.971362494036e+03 -4.647574988983e+03 1.137374455034e-11 -5.147551275084e-12 -2.502540390057e-03 0.000000000000e+00 5.422170820481e+03 2.323787510334e+03  2.502540395744e-03
3.000000000000e+01 -7.371252113177e+03 9.515037074666e-01 0.000000000000e+00 -1.218395676527e-03 -4.679906833950e+03 3.316706247761e-05 -7.019859975678e+03 -4.679906723851e+03 -1.185677678770e-10 7.143674995178e-11 -2.519949655814e-03 0.000000000000e+00 5.459891177826e+03 2.339953196778e+03  2.519949596530e-03
3.100000000000e+01 -7.426814990064e+03 9.506566323332e-01 0.000000000000e+00 -1.229191341848e-03 -4.710986593367e+03 -2.750472802649e-05 -7.066480190156e+03 -4.710986713409e+03 1.292762054043e-10 -5.924095267244e-11 -2.536685282650e-03 0.000000000000e+00 5.496151165644e+03 2.355493536768e+03  2.536685347288e-03
3.200000000000e+01 -7.480394406615e+03 9.498397957335e-01 0.000000000000e+00 -1.239582381926e-03 -4.740897380791e+03 -7.508467989860e-05 -7.111346781063e+03 -4.740897664742e+03 3.057927100929e-10 -1.617208490124e-10 -2.552791356038e-03 0.000000000000e+00 5.531047275532e+03 2.370449258296e+03  2.552791508935e-03
3.300000000000e+01 -7.532106170743e+03 9.490331109232e-01 0.000000000000e+00 -1.249644967862e-03 -4.769629962504e+03 2.368893376377e-05 -7.154444785477e+03 -4.769629899192e+03 -6.818175362355e-11 5.102231887582e-11 -2.568262185229e-03 0.000000000000e+00 5.564568215724e+03 2.384814854629e+03  2.568262151139e-03
3.400000000000e+01 -7.582089626926e+03 9.481611904125e-01 0.000000000000e+00 -1.259392262700e-03 -4.796938844949e+03 4.868592241790e-05 -7.195407881283e+03 -4.796938690493e+03 -1.663373001921e-10 1.048619867463e-10 -2.582966820851e-03 0.000000000000e+00 5.596428472241e+03 2.398469113562e+03  2.582966737682e-03
3.500000000000e+01 -7.630448449663e+03 9.473176091145e-01 0.000000000000e+00 -1.268841543116e-03 -4.823305330170e+03 2.794681916613e-05 -7.234957805545e+03 -4.823305254286e+03 -8.172115961016e-11 6.019314897320e-11 -2.597164285971e-03 0.000000000000e+00 5.627189463333e+03 2.411652513317e+03  2.597164245111e-03
3.600000000000e+01 -7.677262638271e+03 9.465009725765e-01 0.000000000000e+00 -1.277994214567e-03 -4.848779141109e+03 1.189919797283e-04 -7.273167686492e+03 -4.848778731040e+03 -4.416125866531e-10 2.562904178763e-10 -2.610880413563e-03 0.000000000000e+00 5.656908519547e+03 2.424388750417e+03  2.610880192757e-03
3.700000000000e+01 -7.722619412974e+03 9.457097604833e-01 0.000000000000e+00 -1.286854271363e-03 -4.873413180844e+03 6.416979047336e-05 -7.310119011375e+03 -4.873412876887e+03 -3.273374137661e-10 1.382118564042e-10 -2.624145067910e-03 0.000000000000e+00 5.685648356369e+03 2.436705982509e+03  2.624144904241e-03
3.800000000000e+01 -7.766617601835e+03 9.449422502795e-01 0.000000000000e+00 -1.295438723456e-03 -4.897266434642e+03 -2.132217571093e-05 -7.345899851703e+03 -4.897266514538e+03 8.604151079964e-11 -4.592468614661e-11 -2.636989747716e-03 0.000000000000e+00 5.713477600295e+03 2.448633377113e+03  2.636989790737e-03
3.900000000000e+01 -7.809303106904e+03 9.441976394746e-01 0.000000000000e+00 -1.303760449841e-03 -4.920366067211e+03 -1.661422745645e-05 -7.380549288309e+03 -4.920366142208e+03 8.076592546917e-11 -3.578448990621e-11 -2.649428003493e-03 0.000000000000e+00 5.740427165909e+03 2.460183183599e+03  2.649428043876e-03
4.000000000000e+01 -7.850726630496e+03 9.434750431230e-01 0.000000000000e+00 -1.311822424337e-03 -4.942742730217e+03 -2.050810268218e-05 -7.414114231884e+03 -4.942742784841e+03 5.882489152970e-11 -4.417129808470e-11 -2.661476942970e-03 0.000000000000e+00 5.766533248981e+03 2.471371474355e+03  2.661476972382e-03
4.100000000000e+01 -7.890939571028e+03 9.427735643896e-01 0.000000000000e+00 -1.319644736525e-03 -4.964428055562e+03 -5.367386374173e-07 -7.446642091298e+03 -4.964428058744e+03 3.426676141593e-12 -1.156052449821e-12 -2.673153573520e-03 0.000000000000e+00 5.791832735202e+03 2.482214034145e+03  2.673153575233e-03
4.200000000000e+01 -7.929991357369e+03 9.421018193006e-01 0.000000000000e+00 -1.327231858669e-03 -4.985473956340e+03 6.406185590596e-06 -7.478210882300e+03 -4.985473935456e+03 -2.249069633309e-11 1.379793819513e-11 -2.684485942755e-03 0.000000000000e+00 5.816386258032e+03 2.492736936402e+03  2.684485931509e-03
4.300000000000e+01 -7.967929438893e+03 9.414505731926e-01 0.000000000000e+00 -1.334593255577e-03 -5.005889656776e+03 3.108345472715e-05 -7.508834135748e+03 -5.005889517010e+03 -1.505176138393e-10 6.694897941233e-11 -2.695478820180e-03 0.000000000000e+00 5.840204436511e+03 2.502944548855e+03  2.695478744921e-03
4.400000000000e+01 -8.004807955087e+03 9.408175156110e-01 0.000000000000e+00 -1.341750065223e-03 -5.025702168428e+03 -1.282853549448e-05 -7.538553378141e+03 -5.025702218628e+03 5.406093472939e-11 -2.763069183427e-11 -2.706147402553e-03 0.000000000000e+00 5.863319255065e+03 2.512851184613e+03  2.706147429583e-03
4.500000000000e+01 -8.040679004071e+03 9.402017522381e-01 0.000000000000e+00 -1.348708937952e-03 -5.044921789757e+03 3.510951022222e-05 -7.567382379127e+03 -5.044921667554e+03 -1.316038700073e-10 7.562048355555e-11 -2.716496150925e-03 0.000000000000e+00 5.885741945479e+03 2.522460650472e+03  2.716496085123e-03
4.600000000000e+01 -8.075588880257e+03 9.396024883828e-01 0.000000000000e+00 -1.355480792969e-03 -5.063597917205e+03 4.446159850165e-05 -7.595396507764e+03 -5.063597769988e+03 -1.585414647467e-10 9.576344292663e-11 -2.726552486836e-03 0.000000000000e+00 5.907530731652e+03 2.531798664168e+03  2.726552407566e-03
4.700000000000e+01 -8.109577920468e+03 9.390141703795e-01 0.000000000000e+00 -1.362071321833e-03 -5.081731089268e+03 -2.360673116984e-05 -7.622596898343e+03 -5.081731195044e+03 1.139128531878e-10 -5.084526713505e-11 -2.736316911244e-03 0.000000000000e+00 5.928686394218e+03 2.540865756187e+03  2.736316968201e-03
4.800000000000e+01 -8.142681258458e+03 9.383905295355e-01 0.000000000000e+00 -1.368481164429e-03 -5.099124577817e+03 1.506287029474e-05 -7.648686738071e+03 -5.099124526355e+03 -5.542028213313e-11 3.244310525021e-11 -2.745682381848e-03 0.000000000000e+00 5.948978614081e+03 2.549562185985e+03  2.745682354138e-03
4.900000000000e+01 -8.174930340898e+03 9.377829822414e-01 0.000000000000e+00 -1.374682979275e-03 -5.116042784710e+03 -1.619609474933e-06 -7.674064196430e+03 -5.116042792456e+03 8.341702532671e-12 -3.488389638317e-12 -2.754792281203e-03 0.000000000000e+00 5.968716591199e+03 2.558021407847e+03  2.754792285373e-03
5.000000000000e+01 -8.206362464117e+03 9.371908254677e-01 0.000000000000e+00 -1.380725098429e-03 -5.132507531951e+03 -1.973442264351e-05 -7.698761508498e+03 -5.132507616179e+03 9.070788155991e-11 -4.250491030911e-11 -2.763658037881e-03 0.000000000000e+00 5.987925552209e+03 2.566253934433e+03  2.763658083235e-03
5.100000000000e+01 -8.237008181829e+03 9.366134838749e-01 0.000000000000e+00 -1.386613915644e-03 -5.148536791644e+03 -1.219042326181e-05 -7.722805305230e+03 -5.148536838750e+03 5.072913467057e-11 -2.625629625620e-11 -2.772289117748e-03 0.000000000000e+00 6.006626311875e+03 2.574268490033e+03  2.772289143113e-03
5.200000000000e+01 -8.266892455761e+03 9.360504874292e-01 0.000000000000e+00 -1.392353213112e-03 -5.164145320361e+03 2.765943074130e-06 -7.746217959127e+03 -5.164145311795e+03 -9.224532411344e-12 5.957415851972e-12 -2.780693620204e-03 0.000000000000e+00 6.024836197094e+03 2.582072643049e+03  2.780693615591e-03
5.300000000000e+01 -8.296039188826e+03 9.355013858274e-01 0.000000000000e+00 -1.397941733400e-03 -5.179347289089e+03 2.034984779794e-05 -7.769020717858e+03 -5.179347202779e+03 -9.294945116196e-11 4.383044141096e-11 -2.788879170085e-03 0.000000000000e+00 6.042571736575e+03 2.589673471924e+03  2.788879123610e-03
5.400000000000e+01 -8.324472822782e+03 9.349657186559e-01 0.000000000000e+00 -1.403291438494e-03 -5.194157267342e+03 7.672693492675e-05 -7.791235278148e+03 -5.194157018196e+03 -2.683109336352e-10 1.652580136884e-10 -2.796853510717e-03 0.000000000000e+00 6.059849854562e+03 2.597078135379e+03  2.796853376562e-03
5.500000000000e+01 -8.352214003775e+03 9.344430969420e-01 0.000000000000e+00 -1.408544864261e-03 -5.208586594176e+03 2.823018338131e-05 -7.812879664655e+03 -5.208586503532e+03 -9.761585191935e-11 6.080347189820e-11 -2.804623404286e-03 0.000000000000e+00 6.076684254121e+03 2.604293115801e+03  2.804623355478e-03
5.600000000000e+01 -8.379282833348e+03 9.339331419656e-01 0.000000000000e+00 -1.413683964215e-03 -5.222648857325e+03 -1.208915643773e-05 -7.833973498883e+03 -5.222648942483e+03 9.170894409501e-11 -2.603818309664e-11 -2.812195676123e-03 0.000000000000e+00 6.093090432897e+03 2.611324598979e+03  2.812195721977e-03
5.700000000000e+01 -8.405699342639e+03 9.334354763095e-01 0.000000000000e+00 -1.418702913492e-03 -5.236356247303e+03 1.977615224996e-05 -7.854534146469e+03 -5.236356157509e+03 -9.670142285343e-11 4.259478946146e-11 -2.819576295803e-03 0.000000000000e+00 6.109082183760e+03 2.618177944063e+03  2.819576247453e-03
5.800000000000e+01 -8.431483780741e+03 9.329497184346e-01 0.000000000000e+00 -1.423605031988e-03 -5.249718674438e+03 -3.071298102027e-05 -7.874578305476e+03 -5.249718791966e+03 1.265682873894e-10 -6.615103604365e-11 -2.826771783781e-03 0.000000000000e+00 6.124671923960e+03 2.624859572274e+03  2.826771847065e-03
5.900000000000e+01 -8.456656902510e+03 9.324754772569e-01 0.000000000000e+00 -1.428393581555e-03 -5.262748696330e+03 1.455493407300e-06 -7.894123033733e+03 -5.262748692025e+03 -4.635527134046e-12 3.134908877262e-12 -2.833787752609e-03 0.000000000000e+00 6.139873474029e+03 2.631374339556e+03  2.833787750291e-03
6.000000000000e+01 -8.481239908541e+03 9.320123555006e-01 0.000000000000e+00 -1.433070694551e-03 -5.275457897316e+03 -1.769045092992e-05 -7.913187045508e+03 -5.275457977130e+03 8.595288984102e-11 -3.810250969522e-11 -2.840631304407e-03 0.000000000000e+00 6.154700973318e+03 2.637729108285e+03  2.840631347384e-03
6.100000000000e+01 -8.505253059902e+03 9.315650491134e-01 0.000000000000e+00 -1.437637067656e-03 -5.287870867349e+03 7.061865658995e-07 -7.931806295536e+03 -5.287870865154e+03 -2.363776285249e-12 1.521017218861e-12 -2.847315078873e-03 0.000000000000e+00 6.169182676013e+03 2.643935429285e+03  2.847315077691e-03
6.200000000000e+01 -8.528716332180e+03 9.311279856311e-01 0.000000000000e+00 -1.442101439084e-03 -5.299985830815e+03 1.243703832289e-05 -7.949978602532e+03 -5.299985773339e+03 -6.189785548041e-11 2.678746715699e-11 -2.853838431438e-03 0.000000000000e+00 6.183316735562e+03 2.649992800455e+03  2.853838400489e-03
6.300000000000e+01 -8.551648891759e+03 9.307008080307e-01 0.000000000000e+00 -1.446467100164e-03 -5.311813561880e+03 7.209005655920e-06 -7.967720299705e+03 -5.311813544634e+03 -1.857289264404e-11 1.552708910506e-11 -2.860207274692e-03 0.000000000000e+00 6.197115802073e+03 2.655906746448e+03  2.860207265405e-03
6.400000000000e+01 -8.574068891526e+03 9.302831781684e-01 0.000000000000e+00 -1.450736567940e-03 -5.323364295452e+03 4.027917042330e-07 -7.985046440680e+03 -5.323364294453e+03 -1.076261355551e-12 8.675513629637e-13 -2.866426926706e-03 0.000000000000e+00 6.210591676862e+03 2.661682145727e+03  2.866426926168e-03
6.500000000000e+01 -8.595993115828e+03 9.298747833926e-01 0.000000000000e+00 -1.454911337495e-03 -5.334644117111e+03 1.223414307510e-07 -8.001966175977e+03 -5.334644117235e+03 1.339961907908e-13 2.635046200795e-13 -2.872500678645e-03 0.000000000000e+00 6.223751470108e+03 2.667322058804e+03  2.872500678712e-03
6.600000000000e+01 -8.617437085420e+03 9.294753345897e-01 0.000000000000e+00 -1.458992817357e-03 -5.345657264275e+03 3.969256965120e-08 -8.018485897006e+03 -5.345657264512e+03 2.557187176146e-13 8.549168847987e-14 -2.878430834993e-03 0.000000000000e+00 6.236600141931e+03 2.672828632612e+03  2.878430835121e-03
6.700000000000e+01 -8.638415481312e+03 9.290845582882e-01 0.000000000000e+00 -1.462984486171e-03 -5.356420305770e+03 9.826254778952e-06 -8.034630376216e+03 -5.356420272794e+03 -3.551260174011e-11 2.116424106236e-11 -2.884226265223e-03 0.000000000000e+00 6.249156984927e+03 2.678210086933e+03  2.884226247467e-03
6.800000000000e+01 -8.658942175006e+03 9.286611053454e-01 0.000000000000e+00 -1.466881455304e-03 -5.366732143615e+03 1.865266906306e-06 -8.050098183105e+03 -5.366732130688e+03 -1.392144223644e-11 4.017497952043e-12 -2.889778825680e-03 0.000000000000e+00 6.261187485803e+03 2.683366045954e+03  2.889778818719e-03
6.900000000000e+01 -8.679032502141e+03 9.282322361316e-01 0.000000000000e+00 -1.470692284633e-03 -5.376740297328e+03 3.023795350845e-06 -8.065110423586e+03 -5.376740288366e+03 -9.652215978636e-12 6.512789986436e-12 -2.895167837929e-03 0.000000000000e+00 6.272863669760e+03 2.688370130739e+03  2.895167833103e-03
7.000000000000e+01 -8.698699868707e+03 9.278123957891e-01 0.000000000000e+00 -1.474421006187e-03 -5.386526761613e+03 4.743495074045e-07 -8.079790140004e+03 -5.386526760647e+03 -1.040591086495e-12 1.021675862102e-12 -2.900437485462e-03 0.000000000000e+00 6.284281220755e+03 2.693263378874e+03  2.900437484941e-03
7.100000000000e+01 -8.717956283684e+03 9.274013280486e-01 0.000000000000e+00 -1.478068465389e-03 -5.396098241238e+03 -3.713031148936e-08 -8.094147363424e+03 -5.396098241865e+03 6.752182317760e-13 -7.997297859211e-14 -2.905591361679e-03 0.000000000000e+00 6.295447948842e+03 2.698049121873e+03  2.905591362017e-03
7.200000000000e+01 -8.736812874171e+03 9.269987954217e-01 0.000000000000e+00 -1.481636427498e-03 -5.405461004276e+03 1.025317318305e-05 -8.108191430076e+03 -5.405460973741e+03 -3.288418624891e-11 2.208375762504e-11 -2.910632799130e-03 0.000000000000e+00 6.306371136031e+03 2.702730441068e+03  2.910632782688e-03
7.300000000000e+01 -8.755280149876e+03 9.266045735771e-01 0.000000000000e+00 -1.485126583321e-03 -5.414620649657e+03 7.447437613330e-07 -8.121930969120e+03 -5.414620647511e+03 -2.311595181726e-12 1.604063485948e-12 -2.915564961733e-03 0.000000000000e+00 6.317057422096e+03 2.707310320536e+03  2.915564960577e-03
7.400000000000e+01 -8.773368175938e+03 9.262184476593e-01 0.000000000000e+00 -1.488541769596e-03 -5.423583010027e+03 2.323304358860e-06 -8.135374494068e+03 -5.423583001638e+03 -9.034788215758e-12 5.004040157545e-12 -2.920390838001e-03 0.000000000000e+00 6.327513501911e+03 2.711791488235e+03  2.920390833484e-03
7.500000000000e+01 -8.791086924468e+03 9.258402047660e-01 0.000000000000e+00 -1.491883748369e-03 -5.432353603784e+03 1.835678890465e-05 -8.148530260085e+03 -5.432353545548e+03 -6.271574735376e-11 3.953769917924e-11 -2.925113384887e-03 0.000000000000e+00 6.337745803139e+03 2.716176685420e+03  2.925113353529e-03
7.600000000000e+01 -8.808445866670e+03 9.254696427287e-01 0.000000000000e+00 -1.495154390595e-03 -5.440937337664e+03 -1.016733252208e-06 -8.161406018940e+03 -5.440937342641e+03 5.360478231871e-12 -2.189887004756e-12 -2.929735497552e-03 0.000000000000e+00 6.347760233082e+03 2.720468678787e+03  2.929735500232e-03
7.700000000000e+01 -8.825454106797e+03 9.251065672012e-01 0.000000000000e+00 -1.498356854290e-03 -5.449339750947e+03 2.755131812671e-05 -8.174009383546e+03 -5.449339653797e+03 -1.046226497023e-10 5.934130058060e-11 -2.934259708960e-03 0.000000000000e+00 6.357562929430e+03 2.724669681174e+03  2.934259656649e-03
7.800000000000e+01 -8.842121962818e+03 9.247507580117e-01 0.000000000000e+00 -1.501492935364e-03 -5.457565828235e+03 2.704351891580e-06 -8.186348695051e+03 -5.457565809314e+03 -2.037595242285e-11 5.824757920326e-12 -2.938689261563e-03 0.000000000000e+00 6.367160110867e+03 2.728782876276e+03  2.938689251375e-03
7.900000000000e+01 -8.858458321856e+03 9.244020254470e-01 0.000000000000e+00 -1.504562036364e-03 -5.465620885195e+03 -7.903358527710e-06 -8.198431402586e+03 -5.465620915112e+03 3.221868922520e-11 -1.702261836737e-11 -2.943026678818e-03 0.000000000000e+00 6.376557734298e+03 2.732810502432e+03  2.943026694927e-03
8.000000000000e+01 -8.874470903605e+03 9.240602046510e-01 0.000000000000e+00 -1.507568008120e-03 -5.473509101797e+03 3.260868374447e-06 -8.210263617795e+03 -5.473509087837e+03 -1.503376250128e-11 7.023408806501e-12 -2.947274109186e-03 0.000000000000e+00 6.385760602476e+03 2.736754522979e+03  2.947274101669e-03
8.100000000000e+01 -8.890167438538e+03 9.237251305724e-01 0.000000000000e+00 -1.510512835186e-03 -5.481234633762e+03 6.451997241861e-06 -8.221851881723e+03 -5.481234606194e+03 -2.968855815340e-11 1.389660944401e-11 -2.951433989031e-03 0.000000000000e+00 6.394773707227e+03 2.740617261745e+03  2.951433974187e-03
8.200000000000e+01 -8.905555528012e+03 9.233966409312e-01 0.000000000000e+00 -1.513397495370e-03 -5.488801614563e+03 1.029782441677e-06 -8.233202413526e+03 -5.488801611236e+03 -3.582950454258e-12 2.217992951304e-12 -2.955508556313e-03 0.000000000000e+00 6.403601879775e+03 2.744400800627e+03  2.955508554522e-03
8.300000000000e+01 -8.920642595840e+03 9.230745772441e-01 0.000000000000e+00 -1.516222800493e-03 -5.496214175641e+03 4.168398960486e-06 -8.244321229951e+03 -5.496214162237e+03 -1.443561537022e-11 8.978090068739e-12 -2.959499919077e-03 0.000000000000e+00 6.412249855943e+03 2.748107061012e+03  2.959499911859e-03
8.400000000000e+01 -8.935435875052e+03 9.227587851016e-01 0.000000000000e+00 -1.518991645254e-03 -5.503476217033e+03 9.715473226866e-06 -8.255214248665e+03 -5.503476186279e+03 -3.311978957093e-11 2.092563464248e-11 -2.963410221030e-03 0.000000000000e+00 6.420722217326e+03 2.751738047008e+03  2.963410204471e-03
8.500000000000e+01 -8.949942615451e+03 9.224491097156e-01 0.000000000000e+00 -1.521705307106e-03 -5.510591767008e+03 4.244248821974e-05 -8.265887285338e+03 -5.510591620938e+03 -1.573057556442e-10 9.141459001176e-11 -2.967241484738e-03 0.000000000000e+00 6.429023557761e+03 2.755295591365e+03  2.967241406085e-03
8.600000000000e+01 -8.964169869607e+03 9.221454005310e-01 0.000000000000e+00 -1.524364004761e-03 -5.517564363501e+03 1.267619160182e-05 -8.276346445535e+03 -5.517564323614e+03 -4.295441336844e-11 2.730256652700e-11 -2.970996131299e-03 0.000000000000e+00 6.437158377550e+03 2.758782101978e+03  2.970996109822e-03
8.700000000000e+01 -8.978124404233e+03 9.218475131044e-01 0.000000000000e+00 -1.526968867915e-03 -5.524398660225e+03 1.912397507212e-07 -8.286597989178e+03 -5.524398659761e+03 -4.997438011425e-13 4.119010015537e-13 -2.974676200910e-03 0.000000000000e+00 6.445131769722e+03 2.762199329185e+03  2.974676200660e-03
8.800000000000e+01 -8.991812791250e+03 9.215553071428e-01 0.000000000000e+00 -1.529522905453e-03 -5.531097466172e+03 9.552067547322e-06 -8.296646124398e+03 -5.531097436228e+03 -3.224745031346e-11 2.057368394808e-11 -2.978283202644e-03 0.000000000000e+00 6.452947008933e+03 2.765548673198e+03  2.978283186521e-03
8.900000000000e+01 -9.005241356157e+03 9.212686476195e-01 0.000000000000e+00 -1.532027315857e-03 -5.537663930569e+03 8.640367042676e-06 -8.306495820353e+03 -5.537663900369e+03 -3.252301114707e-11 1.861002132269e-11 -2.981818990753e-03 0.000000000000e+00 6.460607883764e+03 2.768831904884e+03  2.981818974491e-03
9.000000000000e+01 -9.018416198691e+03 9.209874043260e-01 0.000000000000e+00 -1.534483269429e-03 -5.544101356865e+03 -5.348702762219e-06 -8.316152062074e+03 -5.544101367576e+03 1.153459570008e-11 -1.152028287247e-11 -2.985285363306e-03 0.000000000000e+00 6.468118262171e+03 2.772050699854e+03  2.985285369073e-03
9.100000000000e+01 -9.031343166624e+03 9.207151493394e-01 0.000000000000e+00 -1.536890312143e-03 -5.550422958889e+03 5.853293848291e-06 -8.325634368944e+03 -5.550422931133e+03 -2.989081681234e-11 1.260709444247e-11 -2.988689240719e-03 0.000000000000e+00 6.475493419655e+03 2.775211423933e+03  2.988689225774e-03
9.200000000000e+01 -9.044027998213e+03 9.204487295648e-01 0.000000000000e+00 -1.539250911472e-03 -5.556623569352e+03 7.528828066299e-06 -8.334935297348e+03 -5.556623546680e+03 -2.441569227466e-11 1.621593737357e-11 -2.992028039181e-03 0.000000000000e+00 6.482727471127e+03 2.778311739332e+03  2.992028026973e-03
9.300000000000e+01 -9.056476244918e+03 9.201872787874e-01 0.000000000000e+00 -1.541566446947e-03 -5.562704090932e+03 -1.259520417593e-07 -8.344056138264e+03 -5.562704091678e+03 8.034753163966e-13 -2.712813207120e-13 -2.995302204015e-03 0.000000000000e+00 6.489821440291e+03 2.781352046958e+03  2.995302204417e-03
9.400000000000e+01 -9.068693281827e+03 9.199306841140e-01 0.000000000000e+00 -1.543838006835e-03 -5.568667545922e+03 2.099573632569e-07 -8.353001317755e+03 -5.568667545471e+03 -4.859399794204e-13 4.522158593230e-13 -2.998513293229e-03 0.000000000000e+00 6.496778803050e+03 2.784333772059e+03  2.998513292986e-03