 TITLE = "Profiles along polylines"
 VARIABLES = "DIST" "PRESSURE1" "SATURATION1" "DISPLACEMENT_X1" "DISPLACEMENT_Y1" "STRESS_XX" "STRESS_XY" "STRESS_YY" "STRESS_ZZ" "STRAIN_XX" "STRAIN_XY" "STRAIN_YY" "STRAIN_PLS"  p_(1st_Invariant)  q_(2nd_Invariant)   Effective_Strain
 ZONE T="TIME=0.000000000000e+00"
0.000000000000e+00 0.000000000000e+00 1.000000000000e+00 0.000000000000e+00 0.000000000000e+00 0.000000000000e+00 0.000000000000e+00 0.000000000000e+00 0.000000000000e+00 0.000000000000e+00 0.000000000000e+00 0.000000000000e+00 0.000000000000e+00 -0.000000000000e+00 0.000000000000e+00  0.000000000000e+00
5.000000000000e-02 0.000000000000e+00 1.000000000000e+00 0.000000000000e+00 0.000000000000e+00 0.000000000000e+00 0.000000000000e+00 0.000000000000e+00 0.000000000000e+00 0.000000000000e+00 0.000000000000e+00 0.000000000000e+00 0.000000000000e+00 -0.000000000000e+00 0.000000000000e+00  0.000000000000e+00
1.000000000000e-01 0.000000000000e+00 1.000000000000e+00 0.000000000000e+00 0.000000000000e+00 0.000000000000e+00 0.000000000000e+00 0.000000000000e+00 0.000000000000e+00 0.000000000000e+00 0.000000000000e+00 0.000000000000e+00 0.000000000000e+00 -0.000000000000e+00 0.000000000000e+00  0.000000000000e+00
1.500000000000e-01 0.000000000000e+00 1.000000000000e+00 0.000000000000e+00 0.000000000000e+00 0.000000000000e+00 0.000000000000e+00 0.000000000000e+00 0.000000000000e+00 0.000000000000e+00 0.000000000000e+00 0.000000000000e+00 0.000000000000e+00 -0.000000000000e+00 0.000000000000e+00  0.000000000000e+00
2.000000000000e-01 0.000000000000e+00 1.000000000000e+00 0.000000000000e+00 0.000000000000e+00 0.000000000000e+00 0.000000000000e+00 0.000000000000e+00 0.000000000000e+00 0.000000000000e+00 0.000000000000e+00 0.000000000000e+00 0.000000000000e+00 -0.000000000000e+00 0.000000000000e+00  0.000000000000e+00
2.500000000000e-01 0.000000000000e+00 1.000000000000e+00 0.000000000000e+00 0.000000000000e+00 0.000000000000e+00 0.000000000000e+00 0.000000000000e+00 0.000000000000e+00 0.000000000000e+00 0.000000000000e+00 0.000000000000e+00 0.000000000000e+00 -0.000000000000e+00 0.000000000000e+00  0.000000000000e+00
3.000000000000e-01 0.000000000000e+00 1.000000000000e+00 0.000000000000e+00 0.000000000000e+00 0.000000000000e+00 0.000000000000e+00 0.000000000000e+00 0.000000000000e+00 0.000000000000e+00 0.000000000000e+00 0.000000000000e+00 0.000000000000e+00 -0.000000000000e+00 0.000000000000e+00  0.000000000000e+00
3.500000000000e-01 0.000000000000e+00 1.000000000000e+00 0.000000000000e+00 0.000000000000e+00 0.000000000000e+00 0.000000000000e+00 0.000000000000e+00 0.000000000000e+00 0.000000000000e+00 0.000000000000e+00 0.000000000000e+00 0.000000000000e+00 -0.000000000000e+00 0.000000000000e+00  0.000000000000e+00
4.000000000000e-01 0.000000000000e+00 1.000000000000e+00 0.000000000000e+00 0.000000000000e+00 0.000000000000e+00 0.000000000000e+00 0.000000000000e+00 0.000000000000e+00 0.000000000000e+00 0.000000000000e+00 0.000000000000e+00 0.000000000000e+00 -0.000000000000e+00 0.000000000000e+00  0.000000000000e+00
4.500000000000e-01 0.000000000000e+00 1.000000000000e+00 0.000000000000e+00 0.000000000000e+00 0.000000000000e+00 0.000000000000e+00 0.000000000000e+00 0.000000000000e+00 0.000000000000e+00 0.000000000000e+00 0.000000000000e+00 0.000000000000e+00 -0.000000000000e+00 0.000000000000e+00  0.000000000000e+00
5.000000000000e-01 0.000000000000e+00 1.000000000000e+00 0.000000000000e+00 0.000000000000e+00 0.000000000000e+00 0.000000000000e+00 0.000000000000e+00 0.000000000000e+00 0.000000000000e+00 0.000000000000e+00 0.000000000000e+00 0.000000000000e+00 -0.000000000000e+00 0.000000000000e+00  0.000000000000e+00
5.500000000000e-01 0.000000000000e+00 1.000000000000e+00 0.000000000000e+00 0.000000000000e+00 0.000000000000e+00 0.000000000000e+00 0.000000000000e+00 0.000000000000e+00 0.000000000000e+00 0.000000000000e+00 0.000000000000e+00 0.000000000000e+00 -0.000000000000e+00 0.000000000000e+00  0.000000000000e+00
6.000000000000e-01 0.000000000000e+00 1.000000000000e+00 0.000000000000e+00 0.000000000000e+00 0.000000000000e+00 0.000000000000e+00 0.000000000000e+00 0.000000000000e+00 0.000000000000e+00 0.000000000000e+00 0.000000000000e+00 0.000000000000e+00 -0.000000000000e+00 0.000000000000e+00  0.000000000000e+00
6.500000000000e-01 0.000000000000e+00 1.000000000000e+00 0.000000000000e+00 0.000000000000e+00 0.000000000000e+00 0.000000000000e+00 0.000000000000e+00 0.000000000000e+00 0.000000000000e+00 0.000000000000e+00 0.000000000000e+00 0.000000000000e+00 -0.000000000000e+00 0.000000000000e+00  0.000000000000e+00
7.000000000000e-01 0.000000000000e+00 1.000000000000e+00 0.000000000000e+00 0.000000000000e+00 0.000000000000e+00 0.000000000000e+00 0.000000000000e+00 0.000000000000e+00 0.000000000000e+00 0.000000000000e+00 0.000000000000e+00 0.000000000000e+00 -0.000000000000e+00 0.000000000000e+00  0.000000000000e+00
7.500000000000e-01 0.000000000000e+00 1.000000000000e+00 0.000000000000e+00 0.000000000000e+00 0.000000000000e+00 0.000000000000e+00 0.000000000000e+00 0.000000000000e+00 0.000000000000e+00 0.000000000000e+00 0.000000000000e+00 0.000000000000e+00 -0.000000000000e+00 0.000000000000e+00  0.000000000000e+00
8.000000000000e-01 0.000000000000e+00 1.000000000000e+00 0.000000000000e+00 0.000000000000e+00 0.000000000000e+00 0.000000000000e+00 0.000000000000e+00 0.000000000000e+00 0.000000000000e+00 0.000000000000e+00 0.000000000000e+00 0.000000000000e+00 -0.000000000000e+00 0.000000000000e+00  0.000000000000e+00
8.500000000000e-01 0.000000000000e+00 1.000000000000e+00 0.000000000000e+00 0.000000000000e+00 0.000000000000e+00 0.000000000000e+00 0.000000000000e+00 0.000000000000e+00 0.000000000000e+00 0.000000000000e+00 0.000000000000e+00 0.000000000000e+00 -0.000000000000e+00 0.000000000000e+00  0.000000000000e+00
9.000000000000e-01 0.000000000000e+00 1.000000000000e+00 0.000000000000e+00 0.000000000000e+00 0.000000000000e+00 0.000000000000e+00 0.000000000000e+00 0.000000000000e+00 0.000000000000e+00 0.000000000000e+00 0.000000000000e+00 0.000000000000e+00 -0.000000000000e+00 0.000000000000e+00  0.000000000000e+00
9.500000000000e-01 0.000000000000e+00 1.000000000000e+00 0.000000000000e+00 0.000000000000e+00 0.000000000000e+00 0.000000000000e+00 0.000000000000e+00 0.000000000000e+00 0.000000000000e+00 0.000000000000e+00 0.000000000000e+00 0.000000000000e+00 -0.000000000000e+00 0.000000000000e+00  0.000000000000e+00
1.000000000000e+00 0.000000000000e+00 1.000000000000e+00 0.000000000000e+00 0.000000000000e+00 0.000000000000e+00 0.000000000000e+00 0.000000000000e+00 0.000000000000e+00 0.000000000000e+00 0.000000000000e+00 0.000000000000e+00 0.000000000000e+00 -0.000000000000e+00 0.000000000000e+00  0.000000000000e+00
 TITLE = "Profiles along polylines"
 VARIABLES = "DIST" "PRESSURE1" "SATURATION1" "DISPLACEMENT_X1" "DISPLACEMENT_Y1" "STRESS_XX" "STRESS_XY" "STRESS_YY" "STRESS_ZZ" "STRAIN_XX" "STRAIN_XY" "STRAIN_YY" "STRAIN_PLS"  p_(1st_Invariant)  q_(2nd_Invariant)   Effective_Strain
 ZONE T="TIME=1.000000000000e+00"
0.000000000000e+00 0.000000000000e+00 1.000000000000e+00 0.000000000000e+00 0.000000000000e+00 1.893095052866e-01 -1.369703875287e-05 2.743282284036e-01 1.854550934761e-01 4.150905026698e-09 -2.950131423695e-11 9.570952992197e-08 0.000000000000e+00 -2.163642757221e-01 8.700998508320e-02  9.370307130800e-08
5.000000000000e-02 -2.117101693951e+01 9.999756648488e-01 0.000000000000e+00 -1.849559249620e-07 -1.391561684925e+01 -1.322163399738e-03 -2.087758585620e+01 -1.391728108218e+01 1.792250847846e-09 -2.847736553283e-09 -7.495712833562e-06 0.000000000000e+00 1.623682792921e+01 6.961137416378e+00  7.496610742321e-06
1.000000000000e-01 -4.297987881952e+01 9.999505965230e-01 0.000000000000e+00 -7.551006454238e-07 -2.844199947489e+01 -9.997152291472e-04 -4.265740581546e+01 -2.843976211614e+01 -2.409463267716e-09 -2.153232801240e-09 -1.531130859927e-05 0.000000000000e+00 3.317972246883e+01 1.421652525744e+01  1.531010446408e-05
1.500000000000e-01 -6.611582826271e+01 9.999240027685e-01 0.000000000000e+00 -1.727849854817e-06 -4.384487086203e+01 1.318721326594e-03 -6.575204038729e+01 -4.383876449973e+01 -6.576082482265e-09 2.840322857278e-09 -2.359891249429e-05 0.000000000000e+00 5.114522524968e+01 2.191022346365e+01  2.359562565319e-05
2.000000000000e-01 -9.130923276556e+01 9.998950440601e-01 0.000000000000e+00 -3.133424501945e-06 -6.061175935503e+01 5.286433755931e-03 -9.089584020779e+01 -6.060303982513e+01 -9.390262969803e-09 1.138616501277e-08 -3.262301579671e-05 0.000000000000e+00 7.070354646265e+01 3.028844294305e+01  3.261832764086e-05
2.500000000000e-01 -1.193546905940e+02 9.998628070420e-01 0.000000000000e+00 -5.015890207095e-06 -7.927352379833e+01 9.476146670282e-03 -1.188913182205e+02 -7.926593680753e+01 -8.170605481820e-09 2.041016205907e-08 -4.267348767550e-05 0.000000000000e+00 9.247692627545e+01 3.962159186192e+01  4.266941760373e-05
3.000000000000e-01 -1.511361697616e+02 9.998262756320e-01 0.000000000000e+00 -7.434562556733e-06 -1.004211978516e+02 1.149487401610e-02 -1.506291224539e+02 -1.004201281222e+02 -1.152016301174e-09 2.475819018852e-08 -5.407122466488e-05 0.000000000000e+00 1.171568161425e+02 5.020846342301e+01  5.407066567057e-05
3.500000000000e-01 -1.876549852156e+02 9.997842988627e-01 0.000000000000e+00 -1.046574942632e-05 -1.247274579511e+02 9.319335178998e-03 -1.871124672460e+02 -1.247359700788e+02 9.166906818131e-09 2.007241423169e-08 -6.717468925696e-05 0.000000000000e+00 1.455252984253e+02 6.238075575501e+01  6.717928217556e-05
4.000000000000e-01 -2.300615143496e+02 9.997355544259e-01 0.000000000000e+00 -1.420492309355e-05 -1.529680944482e+02 3.080636983160e-03 -2.294900416868e+02 -1.529832544540e+02 1.632616012415e-08 6.635218117576e-09 -8.239192471228e-05 0.000000000000e+00 1.784804635297e+02 7.651436854818e+01  8.240008980682e-05
4.500000000000e-01 -2.796916767882e+02 9.996785067409e-01 0.000000000000e+00 -1.876953922368e-05 -1.860375722955e+02 -3.830368746727e-03 -2.790861173709e+02 -1.860494758665e+02 1.281923036047e-08 -8.250024992951e-09 -1.001933062354e-04 0.000000000000e+00 2.170577218443e+02 9.304259409747e+01  1.001997174845e-04
5.000000000000e-01 -3.381093661419e+02 9.996113581809e-01 0.000000000000e+00 -2.430290739982e-05 -2.249762303722e+02 -6.792457750430e-03 -3.374640120530e+02 -2.249760969701e+02 -1.436637897461e-10 -1.462990900093e-08 -1.211408316278e-04 0.000000000000e+00 2.624721131318e+02 1.124878489972e+02  1.211407624462e-04
5.500000000000e-01 -4.071562258077e+02 9.995319918579e-01 0.000000000000e+00 -3.097909772632e-05 -2.709986474591e+02 -3.798999741428e-03 -4.064688279135e+02 -2.709869901491e+02 -1.255402624695e-08 -8.182460981538e-09 -1.459035175925e-04 0.000000000000e+00 3.161514885072e+02 1.354760096453e+02  1.458972416728e-04
6.000000000000e-01 -4.890104166441e+02 9.994379040721e-01 0.000000000000e+00 -3.900862344925e-05 -3.255427313602e+02 2.417835937580e-03 -4.882815588711e+02 -3.255297160925e+02 -1.401644211587e-08 5.207646634788e-09 -1.752712153000e-04 0.000000000000e+00 3.797846687746e+02 1.627453355890e+02  1.752642077314e-04
6.500000000000e-01 -5.862563428258e+02 9.993261241647e-01 0.000000000000e+00 -4.864477394866e-05 -3.903199910071e+02 6.569097945404e-03 -5.854718597539e+02 -3.903167403044e+02 -3.500756734140e-09 1.414882634395e-08 -2.101670517149e-04 0.000000000000e+00 4.553695303551e+02 1.951534944502e+02  2.101653027872e-04
7.000000000000e-01 -7.019676982052e+02 9.991931190600e-01 0.000000000000e+00 -6.019101363841e-05 -4.673729860844e+02 5.578838582135e-03 -7.010792707527e+02 -4.673809027348e+02 8.525623571779e-09 1.201596002306e-08 -2.516751655577e-04 0.000000000000e+00 5.452777198573e+02 2.337023266434e+02  2.516794293383e-04
7.500000000000e-01 -8.398066884383e+02 9.990346792139e-01 0.000000000000e+00 -7.401028727168e-05 -5.591322955605e+02 1.018366019633e-03 -8.387256480048e+02 -5.591431774261e+02 1.171893219551e-08 2.193403734595e-09 -3.010888144693e-04 0.000000000000e+00 6.523337069971e+02 2.795879116759e+02  3.010946741304e-04
8.000000000000e-01 -1.004142899494e+03 9.988457819801e-01 0.000000000000e+00 -9.053674948086e-05 -6.684869379811e+02 -2.660358246334e-03 -1.002739725597e+03 -6.684906654311e+02 4.014176854860e-09 -5.730002376719e-09 -3.599605263320e-04 0.000000000000e+00 7.799057763362e+02 3.342509239378e+02  3.599625335741e-04
8.500000000000e-01 -1.200196054879e+03 9.986204275161e-01 0.000000000000e+00 -1.102900309577e-04 -7.988760743881e+02 -2.380003943663e-03 -1.198300729191e+03 -7.988707214316e+02 -5.764722349844e-09 -5.126162340197e-09 -4.301553929716e-04 0.000000000000e+00 9.320158416703e+02 3.994273313293e+02  4.301525107310e-04
9.000000000000e-01 -1.434207877468e+03 9.983514412367e-01 0.000000000000e+00 -1.338920238436e-04 -9.544089078388e+02 7.437719080085e-04 -1.431593936138e+03 -9.544011375906e+02 -8.367959595018e-09 1.601970263403e-09 -5.138999368969e-04 0.000000000000e+00 1.113467993856e+03 4.771889134722e+02  5.138957529757e-04
9.500000000000e-01 -1.713627826095e+03 9.980302603172e-01 0.000000000000e+00 -1.620862752093e-04 -1.139954592311e+03 3.382907177190e-03 -1.709925138919e+03 -1.139951892492e+03 -2.907497252259e-09 7.286261612410e-09 -6.138173423060e-04 0.000000000000e+00 1.329943874574e+03 5.699718965525e+02  6.138158886923e-04
1.000000000000e+00 -2.102594212636e+03 9.975831605939e-01 0.000000000000e+00 -1.962532949906e-04 -1.398409093019e+03 2.281579003463e-03 -2.097630936799e+03 -1.398416011927e+03 7.451131967661e-09 4.914170161306e-09 -7.530006883234e-04 0.000000000000e+00 1.631485347248e+03 6.992183843627e+02  7.530044139651e-04
 TITLE = "Profiles along polylines"
 VARIABLES = "DIST" "PRESSURE1" "SATURATION1" "DISPLACEMENT_X1" "DISPLACEMENT_Y1" "STRESS_XX" "STRESS_XY" "STRESS_YY" "STRESS_ZZ" "STRAIN_XX" "STRAIN_XY" "STRAIN_YY" "STRAIN_PLS"  p_(1st_Invariant)  q_(2nd_Invariant)   Effective_Strain
 ZONE T="TIME=5.000000000000e+00"
0.000000000000e+00 0.000000000000e+00 1.000000000000e+00 0.000000000000e+00 0.000000000000e+00 3.839787741125e-02 1.083562703548e-05 5.973038549317e-02 3.925130516176e-02 -9.190760390204e-10 2.333827361488e-11 2.205439420305e-08 0.000000000000e+00 -4.579318935539e-02 2.091886320615e-02  2.252803372958e-08
5.000000000000e-02 -1.467862125929e+02 9.998312757161e-01 0.000000000000e+00 -1.316000069835e-06 -9.779427318161e+01 3.664515953973e-04 -1.466902150284e+02 -9.779379528402e+01 -5.146589503172e-10 7.892803593172e-10 -5.265768280167e-05 0.000000000000e+00 1.140927611647e+02 4.889618080148e+01  5.265742549183e-05
1.000000000000e-01 -2.942333580780e+02 9.996617917190e-01 0.000000000000e+00 -5.271452850984e-06 -1.960324994585e+02 4.962900191237e-04 -2.940488116823e+02 -1.960325244564e+02 2.692071233166e-11 1.068932348882e-09 -1.055560016280e-04 0.000000000000e+00 2.287046118657e+02 9.801629972865e+01  1.055560151046e-04
1.500000000000e-01 -4.431185850303e+02 9.994906547105e-01 0.000000000000e+00 -1.188423553098e-05 -2.951929629523e+02 3.729233981830e-04 -4.427905700166e+02 -2.951934131876e+02 4.848687074230e-10 8.032196268558e-10 -1.589507842774e-04 0.000000000000e+00 3.443923153855e+02 1.475973819486e+02  1.589510267184e-04
2.000000000000e-01 -5.942068271926e+02 9.993169854332e-01 0.000000000000e+00 -2.118602243231e-05 -3.957847187284e+02 7.803147751879e-05 -5.936786979230e+02 -3.957853666606e+02 6.977731181001e-10 1.680677977328e-10 -2.131158952057e-04 0.000000000000e+00 4.617495944373e+02 1.978936552294e+02  2.131162440933e-04
2.500000000000e-01 -7.482447955294e+02 9.991399255756e-01 0.000000000000e+00 -3.322200875737e-05 -4.983038849555e+02 -2.343931045467e-04 -7.474570898612e+02 -4.983043899267e+02 5.438151196675e-10 -5.048466867159e-10 -2.683182922372e-04 0.000000000000e+00 5.813551215811e+02 2.491529524208e+02  2.683185641466e-04
3.000000000000e-01 -9.059549465598e+02 9.989586447057e-01 0.000000000000e+00 -4.805052690071e-05 -6.032302216119e+02 -4.138035138002e-04 -9.048456718685e+02 -6.032303573921e+02 1.462248990892e-10 -8.912691066466e-10 -3.248164925130e-04 0.000000000000e+00 7.037687502908e+02 3.016153823673e+02  3.248165656291e-04
3.500000000000e-01 -1.068029439825e+03 9.987723472168e-01 0.000000000000e+00 -6.574254593152e-05 -7.110221023147e+02 -3.709249169808e-04 -1.066532309792e+03 -7.110217648428e+02 -3.634312842397e-10 -7.989152058049e-10 -3.828575099456e-04 0.000000000000e+00 8.295253923166e+02 3.555103762142e+02  3.828573282326e-04
4.000000000000e-01 -1.235124122916e+03 9.985802792409e-01 0.000000000000e+00 -8.638105849536e-05 -8.221130937549e+02 -1.400851268032e-04 -1.233168188140e+03 -8.221125127579e+02 -6.256890145713e-10 -3.017218115762e-10 -4.426753427191e-04 0.000000000000e+00 9.591312648842e+02 4.110553848839e+02  4.426750298752e-04
4.500000000000e-01 -1.407852615359e+03 9.983817354493e-01 0.000000000000e+00 -1.100603441578e-04 -9.369070170850e+02 1.380367313859e-04 -1.405359259908e+03 -9.369065107970e+02 -5.452331418042e-10 2.973098829849e-10 -5.044875759653e-04 0.000000000000e+00 1.093057595930e+03 4.684524959669e+02  5.044873033492e-04
5.000000000000e-01 -1.586780603266e+03 9.981760656109e-01 0.000000000000e+00 -1.368851225835e-04 -1.055775168105e+03 2.809802713570e-04 -1.583662645311e+03 -1.055775125366e+03 -4.602634862862e-11 6.051882767690e-10 -5.684942522478e-04 0.000000000000e+00 1.231737646261e+03 5.278874985752e+02  5.684942292356e-04
5.500000000000e-01 -1.772420505377e+03 9.979626807228e-01 0.000000000000e+00 -1.669695960534e-04 -1.179051707925e+03 1.947049008379e-04 -1.768578583641e+03 -1.179052116626e+03 4.401395681212e-10 4.193644018046e-10 -6.348746567846e-04 0.000000000000e+00 1.375560802731e+03 5.895266713650e+02  6.348748768549e-04
6.000000000000e-01 -1.965226728547e+03 9.977410584644e-01 0.000000000000e+00 -2.004364178701e-04 -1.307038207123e+03 -6.561010241672e-05 -1.960558910728e+03 -1.307038847141e+03 6.892496282425e-10 -1.413140667437e-10 -7.037908377099e-04 0.000000000000e+00 1.524878654997e+03 6.535203835968e+02  7.037911823350e-04
6.500000000000e-01 -2.165591797288e+03 9.975216376021e-01 0.000000000000e+00 -2.374159526920e-04 -1.439661285354e+03 -3.202498740870e-04 -2.159492889920e+03 -1.439661670110e+03 4.143523774518e-10 -6.897689595719e-10 -7.752028521037e-04 0.000000000000e+00 1.679605281794e+03 7.198314121887e+02  7.752030592809e-04
7.000000000000e-01 -2.381844928519e+03 9.967802244787e-01 0.000000000000e+00 -2.780975912709e-04 -1.582236681184e+03 -4.080367761253e-04 -2.373354937353e+03 -1.582236647415e+03 -3.636699195979e-11 -8.788484408853e-10 -8.519735430101e-04 0.000000000000e+00 1.845942755317e+03 7.911182730536e+02  8.519735248280e-04
7.500000000000e-01 -2.623554792005e+03 9.959393623206e-01 0.000000000000e+00 -3.228392102849e-04 -1.741277692687e+03 -2.884519120487e-04 -2.611915470538e+03 -1.741277265290e+03 -4.602736709768e-10 -6.212810413358e-10 -9.376103748826e-04 0.000000000000e+00 2.031490142839e+03 8.706379915499e+02  9.376101447465e-04
8.000000000000e-01 -2.892800408884e+03 9.950032047983e-01 0.000000000000e+00 -3.721025040811e-04 -1.917769734682e+03 -6.044705105988e-05 -2.876653471008e+03 -1.917769282276e+03 -4.872062430152e-10 -1.301936484367e-10 -1.032644510942e-03 0.000000000000e+00 2.237397495989e+03 9.588839625294e+02  1.032644267339e-03
8.500000000000e-01 -3.194678437851e+03 9.935748649141e-01 0.000000000000e+00 -4.263913301649e-04 -2.114619488356e+03 1.388628946024e-04 -3.171928492923e+03 -2.114619192512e+03 -3.186013803376e-10 2.990893114513e-10 -1.138640785059e-03 0.000000000000e+00 2.467055724597e+03 1.057309152490e+03  1.138640625758e-03
9.000000000000e-01 -3.537932381545e+03 9.918286587363e-01 0.000000000000e+00 -4.863302862515e-04 -2.337110147404e+03 2.325084185717e-04 -3.505665126090e+03 -2.337110109398e+03 -4.093033282562e-11 5.007873630776e-10 -1.258443864130e-03 0.000000000000e+00 2.726628460964e+03 1.168554997689e+03  1.258443843665e-03
9.500000000000e-01 -3.932130466816e+03 9.894690859526e-01 0.000000000000e+00 -5.526811318490e-04 -2.590421035425e+03 2.306669581661e-04 -3.885631726110e+03 -2.590421104614e+03 7.451125879482e-11 4.968211406655e-10 -1.394842207765e-03 0.000000000000e+00 3.022157955383e+03 1.295210656091e+03  1.394842245021e-03
1.000000000000e+00 -4.388410622511e+03 9.862519346014e-01 0.000000000000e+00 -6.263531415259e-04 -2.886446118169e+03 1.089521542857e-04 -4.329670062300e+03 -2.886446472188e+03 3.812510789051e-10 2.346661784615e-10 -1.554240789352e-03 0.000000000000e+00 3.367520884219e+03 1.443223767122e+03  1.554240979978e-03
 TITLE = "Profiles along polylines"
 VARIABLES = "DIST" "PRESSURE1" "SATURATION1" "DISPLACEMENT_X1" "DISPLACEMENT_Y1" "STRESS_XX" "STRESS_XY" "STRESS_YY" "STRESS_ZZ" "STRAIN_XX" "STRAIN_XY" "STRAIN_YY" "STRAIN_PLS"  p_(1st_Invariant)  q_(2nd_Invariant)   Effective_Strain
 ZONE T="TIME=1.000000000000e+01"
0.000000000000e+00 0.000000000000e+00 1.000000000000e+00 0.000000000000e+00 0.000000000000e+00 3.652496204291e-02 -9.739085867796e-06 5.407598357892e-02 3.624037824873e-02 3.064748552674e-10 -2.097649263833e-11 1.920757497097e-08 0.000000000000e+00 -4.228044129018e-02 1.769503788477e-02  1.905622062170e-08
5.000000000000e-02 -2.198276059111e+02 9.997473178527e-01 0.000000000000e+00 -1.971411201540e-06 -1.464637900241e+02 -1.948001379088e-04 -2.196966519271e+02 -1.464641767805e+02 4.165068871558e-10 -4.195695278037e-10 -7.886574246560e-05 0.000000000000e+00 1.708748729106e+02 7.323266852637e+01  7.886595072322e-05
1.000000000000e-01 -4.398605071817e+02 9.994943997275e-01 0.000000000000e+00 -7.887910354055e-06 -2.930275336732e+02 -3.037635762259e-04 -4.395415237695e+02 -2.930276229771e+02 9.617341601893e-11 -6.542600103327e-10 -1.577842008534e-04 0.000000000000e+00 3.418655601399e+02 1.465139454453e+02  1.577842489442e-04
1.500000000000e-01 -6.604476577990e+02 9.992408445170e-01 0.000000000000e+00 -1.775430781890e-05 -4.398856732247e+02 -3.025968328487e-04 -6.598284518324e+02 -4.398856500228e+02 -2.498660137875e-11 -6.517470245972e-10 -2.368614788718e-04 0.000000000000e+00 5.131999250266e+02 2.199427902093e+02  2.368614663812e-04
2.000000000000e-01 -8.819363401462e+02 9.989862530355e-01 0.000000000000e+00 -3.158164419540e-05 -5.872705058858e+02 -1.573882449629e-04 -8.809042122671e+02 -5.872698872612e+02 -6.662111638565e-10 -3.389900660739e-10 -3.162215807756e-04 0.000000000000e+00 6.851482018047e+02 2.936340156942e+02  3.162212476711e-04
2.500000000000e-01 -1.104671288208e+03 9.987302290266e-01 0.000000000000e+00 -4.938713429484e-05 -7.354068983421e+02 1.899945899314e-04 -1.103108621503e+03 -7.354062079382e+02 -7.435119621418e-10 4.092191167754e-10 -3.959872146086e-04 0.000000000000e+00 8.579739092612e+02 3.677020683638e+02  3.959868428538e-04
3.000000000000e-01 -1.328993931428e+03 9.984723800319e-01 0.000000000000e+00 -7.119414077966e-05 -8.845244656856e+02 4.084862996336e-04 -1.326786138599e+03 -8.845242417138e+02 -2.412003719920e-10 8.798166453648e-10 -4.762820427994e-04 0.000000000000e+00 1.031944948666e+03 4.422617848999e+02  4.762819222017e-04
3.500000000000e-01 -1.555241806904e+03 9.982123180677e-01 0.000000000000e+00 -9.703202419442e-05 -1.034839943761e+03 4.295341397725e-04 -1.552260451878e+03 -1.034840158256e+03 2.309945465581e-10 9.251504548946e-10 -5.572218546707e-04 0.000000000000e+00 1.207313517965e+03 5.174204008708e+02  5.572219701703e-04
4.000000000000e-01 -1.783748195385e+03 9.979496600422e-01 0.000000000000e+00 -1.269361128687e-04 -1.186584792146e+03 1.693988332166e-06 -1.779880463399e+03 -1.186586102218e+03 1.410846704545e-09 3.648590253896e-12 -6.389323889640e-04 0.000000000000e+00 1.384350452588e+03 5.932950162179e+02  6.389330943885e-04
4.500000000000e-01 -2.014842047376e+03 9.976920801970e-01 0.000000000000e+00 -1.609477345164e-04 -1.339868440586e+03 -3.609620796465e-04 -2.009803218889e+03 -1.339868663790e+03 2.403735426712e-10 -7.774567869310e-10 -7.214679824143e-04 0.000000000000e+00 1.563180107755e+03 6.699346667013e+02  7.214681026023e-04
5.000000000000e-01 -2.248831551634e+03 9.972656137729e-01 0.000000000000e+00 -1.991081421500e-04 -1.494568557678e+03 -6.067815101165e-04 -2.241854395465e+03 -1.494569181257e+03 6.715468833208e-10 -1.306914021789e-09 -8.047686922239e-04 0.000000000000e+00 1.743664044800e+03 7.472855259985e+02  8.047690280007e-04
5.500000000000e-01 -2.489256034888e+03 9.964065618842e-01 0.000000000000e+00 -2.414802167157e-04 -1.652963792506e+03 -3.086174448417e-04 -2.479441604711e+03 -1.652962158887e+03 -1.759282432961e-09 -6.647144965821e-10 -8.900547878105e-04 0.000000000000e+00 1.928455852035e+03 8.264786290157e+02  8.900539081713e-04
6.000000000000e-01 -2.740431297084e+03 9.955401967337e-01 0.000000000000e+00 -2.882081176015e-04 -1.818033220525e+03 2.910546357220e-05 -2.727050159840e+03 -1.818033352146e+03 1.417458463961e-10 6.268869077090e-11 -9.789411775168e-04 0.000000000000e+00 2.121038910837e+03 9.090168735047e+02  9.789412483897e-04
6.500000000000e-01 -3.003275067142e+03 9.944900151255e-01 0.000000000000e+00 -3.394758821148e-04 -1.990083042462e+03 3.806664322152e-04 -2.985121178100e+03 -1.990081688225e+03 -1.458409402169e-09 8.198969309251e-10 -1.071580989096e-03 0.000000000000e+00 2.321761969596e+03 9.950388127575e+02  1.071580259893e-03
7.000000000000e-01 -3.280462111144e+03 9.931704653677e-01 0.000000000000e+00 -3.954913828378e-04 -2.170668118477e+03 3.147556995312e-04 -3.256006063235e+03 -2.170669672685e+03 1.673762078956e-09 6.779353528363e-10 -1.168823805208e-03 0.000000000000e+00 2.532447951466e+03 1.085337167655e+03  1.168824642090e-03
7.500000000000e-01 -3.576405981611e+03 9.915969294602e-01 0.000000000000e+00 -4.565210021185e-04 -2.362440171116e+03 1.044903595567e-04 -3.543658790895e+03 -2.362439584805e+03 -6.314124417270e-10 2.250561590452e-10 -1.272082221944e-03 0.000000000000e+00 2.756179515605e+03 1.181218912935e+03  1.272081906238e-03
8.000000000000e-01 -3.895162737367e+03 9.897092194648e-01 0.000000000000e+00 -5.228976636215e-04 -2.567609335651e+03 -1.274026427695e-04 -3.851417611066e+03 -2.567610778687e+03 1.554038505221e-09 -2.744056921189e-10 -1.382561204101e-03 0.000000000000e+00 2.995545908468e+03 1.283807553898e+03  1.382561981121e-03
8.500000000000e-01 -4.241256474829e+03 9.873509714897e-01 0.000000000000e+00 -5.950124915951e-04 -2.788447865574e+03 -2.123573842148e-04 -4.182668879481e+03 -2.788446698022e+03 -1.257363590712e-09 -4.573851352318e-10 -1.501470041571e-03 0.000000000000e+00 3.253187814359e+03 1.394221597683e+03  1.501469412890e-03
9.000000000000e-01 -4.619910733896e+03 9.844315055534e-01 0.000000000000e+00 -6.733238270213e-04 -3.027562646537e+03 -7.400253974240e-05 -4.541345531289e+03 -3.027563271130e+03 6.726386867492e-10 -1.593900855990e-10 -1.630227049401e-03 0.000000000000e+00 3.532157149652e+03 1.513782572455e+03  1.630227385721e-03
9.500000000000e-01 -5.037053941689e+03 9.808200427335e-01 0.000000000000e+00 -7.583618976525e-04 -3.287026981177e+03 -8.058465292689e-06 -4.930538300970e+03 -3.287026112859e+03 -9.351117644144e-10 -1.735669447656e-11 -1.769936202581e-03 0.000000000000e+00 3.834863798335e+03 1.643511753953e+03  1.769935735026e-03
1.000000000000e+00 -5.501186184649e+03 9.759306639983e-01 0.000000000000e+00 -8.507116055895e-04 -3.581205310519e+03 1.376623815216e-04 -5.371809199293e+03 -3.581205803925e+03 5.313599852745e-10 2.965035909696e-10 -1.928342118089e-03 0.000000000000e+00 4.178073437913e+03 1.790603642071e+03  1.928342383769e-03
 TITLE = "Profiles along polylines"
 VARIABLES = "DIST" "PRESSURE1" "SATURATION1" "DISPLACEMENT_X1" "DISPLACEMENT_Y1" "STRESS_XX" "STRESS_XY" "STRESS_YY" "STRESS_ZZ" "STRAIN_XX" "STRAIN_XY" "STRAIN_YY" "STRAIN_PLS"  p_(1st_Invariant)  q_(2nd_Invariant)   Effective_Strain
 ZONE T="TIME=2.000000000000e+01"
0.000000000000e+00 0.000000000000e+00 1.000000000000e+00 0.000000000000e+00 0.000000000000e+00 1.774462150996e-02 -1.241988445247e-05 2.427378219011e-02 1.680736148001e-02 1.009356955307e-09 -2.675052035917e-11 8.040760764708e-09 0.000000000000e+00 -1.960858839336e-02 7.044741276029e-03  7.586750563034e-09
5.000000000000e-02 -2.917662307980e+02 9.996646275731e-01 0.000000000000e+00 -2.617230323661e-06 -1.944031029416e+02 -4.681112630481e-04 -2.916065130526e+02 -1.944038463977e+02 8.006450275041e-10 -1.008239643488e-09 -1.046797948592e-04 0.000000000000e+00 2.268044874640e+02 9.720303838851e+01  1.046801951986e-04
1.000000000000e-01 -5.835556897015e+02 9.993292284464e-01 0.000000000000e+00 -1.046730679157e-05 -3.887096103463e+02 -7.412769825975e-04 -5.830652996094e+02 -3.887099639823e+02 3.808387691937e-10 -1.596596577902e-09 -2.093057460600e-04 0.000000000000e+00 4.534949579793e+02 1.943555124496e+02  2.093059364979e-04
1.500000000000e-01 -8.755318201619e+02 9.989936147491e-01 0.000000000000e+00 -2.354859512821e-05 -5.830107856670e+02 -6.848682297818e-04 -8.745149811433e+02 -5.830103067241e+02 -5.157846443977e-10 -1.475100802607e-09 -3.139281109130e-04 0.000000000000e+00 6.801786911781e+02 2.915044349504e+02  3.139278530313e-04
2.000000000000e-01 -1.167856837442e+03 9.986576000217e-01 0.000000000000e+00 -4.186236918277e-05 -7.774132981703e+02 -1.924043463368e-04 -1.166116518639e+03 -7.774119267236e+02 -1.476942667594e-09 -4.144093613409e-10 -4.186049451393e-04 0.000000000000e+00 9.069805811775e+02 3.887039061936e+02  4.186042066705e-04
2.500000000000e-01 -1.460690920290e+03 9.983210001459e-01 0.000000000000e+00 -6.541280195775e-05 -9.720224489077e+02 5.577867212076e-04 -1.458029789774e+03 -9.720208954725e+02 -1.672930240814e-09 1.201386784139e-09 -5.233941938626e-04 0.000000000000e+00 1.134024378051e+03 4.860081175862e+02  5.233933574037e-04
3.000000000000e-01 -1.754191352348e+03 9.979836343310e-01 0.000000000000e+00 -9.420691367247e-05 -1.166953066192e+03 1.095098998196e-03 -1.750428154789e+03 -1.166952488392e+03 -6.222455054022e-10 2.358674765346e-09 -6.283584099657e-04 0.000000000000e+00 1.361444569791e+03 5.834753775003e+02  6.283580988564e-04