VARIABLES  = "X","Y","Z", "PRESSURE1", "SATURATION1", "DISPLACEMENT_X1", "DISPLACEMENT_Y1", "STRESS_XX", "STRESS_XY", "STRESS_YY", "STRESS_ZZ", "STRAIN_XX", "STRAIN_XY", "STRAIN_YY", "STRAIN_PLS"
ZONE T="0.000000000000e+00s", N=42, E=20, F=FEPOINT, ET=QUADRILATERAL
STRANDID=1, SOLUTIONTIME=0.000000000000e+00
0.000000000000e+00 0.000000000000e+00 0.000000000000e+00 0.000000000000e+00 1.000000000000e+00 0.000000000000e+00 0.000000000000e+00 0.000000000000e+00 0.000000000000e+00 0.000000000000e+00 0.000000000000e+00 0.000000000000e+00 0.000000000000e+00 0.000000000000e+00 0.000000000000e+00 
0.000000000000e+00 0.000000000000e+00 5.000000000000e-02 0.000000000000e+00 1.000000000000e+00 0.000000000000e+00 0.000000000000e+00 0.000000000000e+00 0.000000000000e+00 0.000000000000e+00 0.000000000000e+00 0.000000000000e+00 0.000000000000e+00 0.000000000000e+00 0.000000000000e+00 
0.000000000000e+00 0.000000000000e+00 1.000000000000e-01 0.000000000000e+00 1.000000000000e+00 0.000000000000e+00 0.000000000000e+00 0.000000000000e+00 0.000000000000e+00 0.000000000000e+00 0.000000000000e+00 0.000000000000e+00 0.000000000000e+00 0.000000000000e+00 0.000000000000e+00 
0.000000000000e+00 0.000000000000e+00 1.500000000000e-01 0.000000000000e+00 1.000000000000e+00 0.000000000000e+00 0.000000000000e+00 0.000000000000e+00 0.000000000000e+00 0.000000000000e+00 0.000000000000e+00 0.000000000000e+00 0.000000000000e+00 0.000000000000e+00 0.000000000000e+00 
0.000000000000e+00 0.000000000000e+00 2.000000000000e-01 0.000000000000e+00 1.000000000000e+00 0.000000000000e+00 0.000000000000e+00 0.000000000000e+00 0.000000000000e+00 0.000000000000e+00 0.000000000000e+00 0.000000000000e+00 0.000000000000e+00 0.000000000000e+00 0.000000000000e+00 
0.000000000000e+00 0.000000000000e+00 2.500000000000e-01 0.000000000000e+00 1.000000000000e+00 0.000000000000e+00 0.000000000000e+00 0.000000000000e+00 0.000000000000e+00 0.000000000000e+00 0.000000000000e+00 0.000000000000e+00 0.000000000000e+00 0.000000000000e+00 0.000000000000e+00 
0.000000000000e+00 0.000000000000e+00 3.000000000000e-01 0.000000000000e+00 1.000000000000e+00 0.000000000000e+00 0.000000000000e+00 0.000000000000e+00 0.000000000000e+00 0.000000000000e+00 0.000000000000e+00 0.000000000000e+00 0.000000000000e+00 0.000000000000e+00 0.000000000000e+00 
0.000000000000e+00 0.000000000000e+00 3.500000000000e-01 0.000000000000e+00 1.000000000000e+00 0.000000000000e+00 0.000000000000e+00 0.000000000000e+00 0.000000000000e+00 0.000000000000e+00 0.000000000000e+00 0.000000000000e+00 0.000000000000e+00 0.000000000000e+00 0.000000000000e+00 
0.000000000000e+00 0.000000000000e+00 4.000000000000e-01 0.000000000000e+00 1.000000000000e+00 0.000000000000e+00 0.000000000000e+00 0.000000000000e+00 0.000000000000e+00 0.000000000000e+00 0.000000000000e+00 0.000000000000e+00 0.000000000000e+00 0.000000000000e+00 0.000000000000e+00 
0.000000000000e+00 0.000000000000e+00 4.500000000000e-01 0.000000000000e+00 1.000000000000e+00 0.000000000000e+00 0.000000000000e+00 0.000000000000e+00 0.000000000000e+00 0.000000000000e+00 0.000000000000e+00 0.000000000000e+00 0.000000000000e+00 0.000000000000e+00 0.000000000000e+00 
0.000000000000e+00 0.000000000000e+00 5.000000000000e-01 0.000000000000e+00 1.000000000000e+00 0.000000000000e+00 0.000000000000e+00 0.000000000000e+00 0.000000000000e+00 0.000000000000e+00 0.000000000000e+00 0.000000000000e+00 0.000000000000e+00 0.000000000000e+00 0.000000000000e+00 
0.000000000000e+00 0.000000000000e+00 5.500000000000e-01 0.000000000000e+00 1.000000000000e+00 0.000000000000e+00 0.000000000000e+00 0.000000000000e+00 0.000000000000e+00 0.000000000000e+00 0.000000000000e+00 0.000000000000e+00 0.000000000000e+00 0.000000000000e+00 0.000000000000e+00 
0.000000000000e+00 0.000000000000e+00 6.000000000000e-01 0.000000000000e+00 1.000000000000e+00 0.000000000000e+00 0.000000000000e+00 0.000000000000e+00 0.000000000000e+00 0.000000000000e+00 0.000000000000e+00 0.000000000000e+00 0.000000000000e+00 0.000000000000e+00 0.000000000000e+00 
0.000000000000e+00 0.000000000000e+00 6.500000000000e-01 0.000000000000e+00 1.000000000000e+00 0.000000000000e+00 0.000000000000e+00 0.000000000000e+00 0.000000000000e+00 0.000000000000e+00 0.000000000000e+00 0.000000000000e+00 0.000000000000e+00 0.000000000000e+00 0.000000000000e+00 
0.000000000000e+00 0.000000000000e+00 7.000000000000e-01 0.000000000000e+00 1.000000000000e+00 0.000000000000e+00 0.000000000000e+00 0.000000000000e+00 0.000000000000e+00 0.000000000000e+00 0.000000000000e+00 0.000000000000e+00 0.000000000000e+00 0.000000000000e+00 0.000000000000e+00 
0.000000000000e+00 0.000000000000e+00 7.500000000000e-01 0.000000000000e+00 1.000000000000e+00 0.000000000000e+00 0.000000000000e+00 0.000000000000e+00 0.000000000000e+00 0.000000000000e+00 0.000000000000e+00 0.000000000000e+00 0.000000000000e+00 0.000000000000e+00 0.000000000000e+00 
0.000000000000e+00 0.000000000000e+00 8.000000000000e-01 0.000000000000e+00 1.000000000000e+00 0.000000000000e+00 0.000000000000e+00 0.000000000000e+00 0.000000000000e+00 0.000000000000e+00 0.000000000000e+00 0.000000000000e+00 0.000000000000e+00 0.000000000000e+00 0.000000000000e+00 
0.000000000000e+00 0.000000000000e+00 8.500000000000e-01 0.000000000000e+00 1.000000000000e+00 0.000000000000e+00 0.000000000000e+00 0.000000000000e+00 0.000000000000e+00 0.000000000000e+00 0.000000000000e+00 0.000000000000e+00 0.000000000000e+00 0.000000000000e+00 0.000000000000e+00 
0.000000000000e+00 0.000000000000e+00 9.000000000000e-01 0.000000000000e+00 1.000000000000e+00 0.000000000000e+00 0.000000000000e+00 0.000000000000e+00 0.000000000000e+00 0.000000000000e+00 0.000000000000e+00 0.000000000000e+00 0.000000000000e+00 0.000000000000e+00 0.000000000000e+00 
0.000000000000e+00 0.000000000000e+00 9.500000000000e-01 0.000000000000e+00 1.000000000000e+00 0.000000000000e+00 0.000000000000e+00 0.000000000000e+00 0.000000000000e+00 0.000000000000e+00 0.000000000000e+00 0.000000000000e+00 0.000000000000e+00 0.000000000000e+00 0.000000000000e+00 
0.000000000000e+00 0.000000000000e+00 1.000000000000e+00 0.000000000000e+00 1.000000000000e+00 0.000000000000e+00 0.000000000000e+00 0.000000000000e+00 0.000000000000e+00 0.000000000000e+00 0.000000000000e+00 0.000000000000e+00 0.000000000000e+00 0.000000000000e+00 0.000000000000e+00 
1.000000000000e-01 0.000000000000e+00 0.000000000000e+00 0.000000000000e+00 1.000000000000e+00 0.000000000000e+00 0.000000000000e+00 0.000000000000e+00 0.000000000000e+00 0.000000000000e+00 0.000000000000e+00 0.000000000000e+00 0.000000000000e+00 0.000000000000e+00 0.000000000000e+00 
1.000000000000e-01 0.000000000000e+00 5.000000000000e-02 0.000000000000e+00 1.000000000000e+00 0.000000000000e+00 0.000000000000e+00 0.000000000000e+00 0.000000000000e+00 0.000000000000e+00 0.000000000000e+00 0.000000000000e+00 0.000000000000e+00 0.000000000000e+00 0.000000000000e+00 
1.000000000000e-01 0.000000000000e+00 1.000000000000e-01 0.000000000000e+00 1.000000000000e+00 0.000000000000e+00 0.000000000000e+00 0.000000000000e+00 0.000000000000e+00 0.000000000000e+00 0.000000000000e+00 0.000000000000e+00 0.000000000000e+00 0.000000000000e+00 0.000000000000e+00 
1.000000000000e-01 0.000000000000e+00 1.500000000000e-01 0.000000000000e+00 1.000000000000e+00 0.000000000000e+00 0.000000000000e+00 0.000000000000e+00 0.000000000000e+00 0.000000000000e+00 0.000000000000e+00 0.000000000000e+00 0.000000000000e+00 0.000000000000e+00 0.000000000000e+00 
1.000000000000e-01 0.000000000000e+00 2.000000000000e-01 0.000000000000e+00 1.000000000000e+00 0.000000000000e+00 0.000000000000e+00 0.000000000000e+00 0.000000000000e+00 0.000000000000e+00 0.000000000000e+00 0.000000000000e+00 0.000000000000e+00 0.000000000000e+00 0.000000000000e+00 
1.000000000000e-01 0.000000000000e+00 2.500000000000e-01 0.000000000000e+00 1.000000000000e+00 0.000000000000e+00 0.000000000000e+00 0.000000000000e+00 0.000000000000e+00 0.000000000000e+00 0.000000000000e+00 0.000000000000e+00 0.000000000000e+00 0.000000000000e+00 0.000000000000e+00 
1.000000000000e-01 0.000000000000e+00 3.000000000000e-01 0.000000000000e+00 1.000000000000e+00 0.000000000000e+00 0.000000000000e+00 0.000000000000e+00 0.000000000000e+00 0.000000000000e+00 0.000000000000e+00 0.000000000000e+00 0.000000000000e+00 0.000000000000e+00 0.000000000000e+00 
1.000000000000e-01 0.000000000000e+00 3.500000000000e-01 0.000000000000e+00 1.000000000000e+00 0.000000000000e+00 0.000000000000e+00 0.000000000000e+00 0.000000000000e+00 0.000000000000e+00 0.000000000000e+00 0.000000000000e+00 0.000000000000e+00 0.000000000000e+00 0.000000000000e+00 
1.000000000000e-01 0.000000000000e+00 4.000000000000e-01 0.000000000000e+00 1.000000000000e+00 0.000000000000e+00 0.000000000000e+00 0.000000000000e+00 0.000000000000e+00 0.000000000000e+00 0.000000000000e+00 0.000000000000e+00 0.000000000000e+00 0.000000000000e+00 0.000000000000e+00 
1.000000000000e-01 0.000000000000e+00 4.500000000000e-01 0.000000000000e+00 1.000000000000e+00 0.000000000000e+00 0.000000000000e+00 0.000000000000e+00 0.000000000000e+00 0.000000000000e+00 0.000000000000e+00 0.000000000000e+00 0.000000000000e+00 0.000000000000e+00 0.000000000000e+00 
1.000000000000e-01 0.000000000000e+00 5.000000000000e-01 0.000000000000e+00 1.000000000000e+00 0.000000000000e+00 0.000000000000e+00 0.000000000000e+00 0.000000000000e+00 0.000000000000e+00 0.000000000000e+00 0.000000000000e+00 0.000000000000e+00 0.000000000000e+00 0.000000000000e+00 
1.000000000000e-01 0.000000000000e+00 5.500000000000e-01 0.000000000000e+00 1.000000000000e+00 0.000000000000e+00 0.000000000000e+00 0.000000000000e+00 0.000000000000e+00 0.000000000000e+00 0.000000000000e+00 0.000000000000e+00 0.000000000000e+00 0.000000000000e+00 0.000000000000e+00 
1.000000000000e-01 0.000000000000e+00 6.000000000000e-01 0.000000000000e+00 1.000000000000e+00 0.000000000000e+00 0.000000000000e+00 0.000000000000e+00 0.000000000000e+00 0.000000000000e+00 0.000000000000e+00 0.000000000000e+00 0.000000000000e+00 0.000000000000e+00 0.000000000000e+00 
1.000000000000e-01 0.000000000000e+00 6.500000000000e-01 0.000000000000e+00 1.000000000000e+00 0.000000000000e+00 0.000000000000e+00 0.000000000000e+00 0.000000000000e+00 0.000000000000e+00 0.000000000000e+00 0.000000000000e+00 0.000000000000e+00 0.000000000000e+00 0.000000000000e+00 
1.000000000000e-01 0.000000000000e+00 7.000000000000e-01 0.000000000000e+00 1.000000000000e+00 0.000000000000e+00 0.000000000000e+00 0.000000000000e+00 0.000000000000e+00 0.000000000000e+00 0.000000000000e+00 0.000000000000e+00 0.000000000000e+00 0.000000000000e+00 0.000000000000e+00 
1.000000000000e-01 0.000000000000e+00 7.500000000000e-01 0.000000000000e+00 1.000000000000e+00 0.000000000000e+00 0.000000000000e+00 0.000000000000e+00 0.000000000000e+00 0.000000000000e+00 0.000000000000e+00 0.000000000000e+00 0.000000000000e+00 0.000000000000e+00 0.000000000000e+00 
1.000000000000e-01 0.000000000000e+00 8.000000000000e-01 0.000000000000e+00 1.000000000000e+00 0.000000000000e+00 0.000000000000e+00 0.000000000000e+00 0.000000000000e+00 0.000000000000e+00 0.000000000000e+00 0.000000000000e+00 0.000000000000e+00 0.000000000000e+00 0.000000000000e+00 
1.000000000000e-01 0.000000000000e+00 8.500000000000e-01 0.000000000000e+00 1.000000000000e+00 0.000000000000e+00 0.000000000000e+00 0.000000000000e+00 0.000000000000e+00 0.000000000000e+00 0.000000000000e+00 0.000000000000e+00 0.000000000000e+00 0.000000000000e+00 0.000000000000e+00 
1.000000000000e-01 0.000000000000e+00 9.000000000000e-01 0.000000000000e+00 1.000000000000e+00 0.000000000000e+00 0.000000000000e+00 0.000000000000e+00 0.000000000000e+00 0.000000000000e+00 0.000000000000e+00 0.000000000000e+00 0.000000000000e+00 0.000000000000e+00 0.000000000000e+00 
1.000000000000e-01 0.000000000000e+00 9.500000000000e-01 0.000000000000e+00 1.000000000000e+00 0.000000000000e+00 0.000000000000e+00 0.000000000000e+00 0.000000000000e+00 0.000000000000e+00 0.000000000000e+00 0.000000000000e+00 0.000000000000e+00 0.000000000000e+00 0.000000000000e+00 
1.000000000000e-01 0.000000000000e+00 1.000000000000e+00 0.000000000000e+00 1.000000000000e+00 0.000000000000e+00 0.000000000000e+00 0.000000000000e+00 0.000000000000e+00 0.000000000000e+00 0.000000000000e+00 0.000000000000e+00 0.000000000000e+00 0.000000000000e+00 0.000000000000e+00 
1  22  23  2  
2  23  24  3  
3  24  25  4  
4  25  26  5  
5  26  27  6  
6  27  28  7  
7  28  29  8  
8  29  30  9  
9  30  31  10  
10  31  32  11  
11  32  33  12  
12  33  34  13  
13  34  35  14  
14  35  36  15  
15  36  37  16  
16  37  38  17  
17  38  39  18  
18  39  40  19  
19  40  41  20  
20  41  42  21  
VARIABLES  = "X","Y","Z", "PRESSURE1", "SATURATION1", "DISPLACEMENT_X1", "DISPLACEMENT_Y1", "STRESS_XX", "STRESS_XY", "STRESS_YY", "STRESS_ZZ", "STRAIN_XX", "STRAIN_XY", "STRAIN_YY", "STRAIN_PLS"
ZONE T="1.000000000000e+00s", N=42, E=20, F=FEPOINT, ET=QUADRILATERAL
STRANDID=1, SOLUTIONTIME=1.000000000000e+00
0.000000000000e+00 0.000000000000e+00 0.000000000000e+00 0.000000000000e+00 1.000000000000e+00 0.000000000000e+00 0.000000000000e+00 1.865716096876e-01 -7.270935199424e-05 2.894934440577e-01 1.904260214981e-01 -4.150905026698e-09 -1.566047581415e-10 1.066879935257e-07 0.000000000000e+00 
0.000000000000e+00 0.000000000000e+00 5.000000000000e-02 -2.117101693951e+01 9.999756648488e-01 0.000000000000e+00 -1.845896505981e-07 -1.391725402713e+01 -1.569867699851e-03 -2.087172045837e+01 -1.391558979420e+01 -1.792250847846e-09 -3.381253507371e-09 -7.491217638338e-06 0.000000000000e+00 
0.000000000000e+00 0.000000000000e+00 1.000000000000e-01 -4.297987881952e+01 9.999505965230e-01 0.000000000000e+00 -7.547755205683e-07 -2.843892250163e+01 -1.455088779406e-03 -4.266397714932e+01 -2.844115986038e+01 2.409463267716e-09 -3.134037371029e-09 -1.531688015732e-05 0.000000000000e+00 
0.000000000000e+00 0.000000000000e+00 1.500000000000e-01 -6.611582826271e+01 9.999240027685e-01 0.000000000000e+00 -1.728022729893e-06 -4.383692199532e+01 8.341740836603e-04 -6.577064889875e+01 -4.384302835763e+01 6.576082482265e-09 1.796682641730e-09 -2.361436058274e-05 0.000000000000e+00 
0.000000000000e+00 0.000000000000e+00 2.000000000000e-01 -9.130923276556e+01 9.998950440601e-01 0.000000000000e+00 -3.134484100290e-06 -6.060160478465e+01 4.862354859489e-03 -9.092420600173e+01 -6.061032431455e+01 9.390262969803e-09 1.047276431275e-08 -3.264571874004e-05 0.000000000000e+00 
0.000000000000e+00 0.000000000000e+00 2.500000000000e-01 -1.193546905940e+02 9.998628070420e-01 0.000000000000e+00 -5.017928399424e-06 -7.926580967255e+01 9.195617411798e-03 -1.189176819858e+02 -7.927339666336e+01 8.170605481820e-09 1.980594519464e-08 -4.269384573191e-05 0.000000000000e+00 
0.000000000000e+00 0.000000000000e+00 3.000000000000e-01 -1.511361697616e+02 9.998262756320e-01 0.000000000000e+00 -7.437117491129e-06 -1.004215595828e+02 1.126733892803e-02 -1.506350136978e+02 -1.004226293123e+02 1.152016301174e-09 2.426811461422e-08 -5.407487549213e-05 0.000000000000e+00 
0.000000000000e+00 0.000000000000e+00 3.500000000000e-01 -1.876549852156e+02 9.997842988627e-01 0.000000000000e+00 -1.046784604868e-05 -1.247391134103e+02 9.104331391792e-03 -1.870873897961e+02 -1.247306012825e+02 -9.166906818131e-09 1.960932915155e-08 -6.715346455301e-05 0.000000000000e+00 
0.000000000000e+00 0.000000000000e+00 4.000000000000e-01 -2.300615143496e+02 9.997355544259e-01 0.000000000000e+00 -1.420558009452e-05 -1.529850427582e+02 2.995941794600e-03 -2.294396641227e+02 -1.529698827524e+02 -1.632616012415e-08 6.452797711445e-09 -8.235207224500e-05 0.000000000000e+00 
0.000000000000e+00 0.000000000000e+00 4.500000000000e-01 -2.796916767882e+02 9.996785067409e-01 0.000000000000e+00 -1.876857637539e-05 -1.860493387531e+02 -3.709095697245e-03 -2.790442492020e+02 -1.860374351820e+02 -1.281923036047e-08 -7.988821501759e-09 -1.001611843292e-04 0.000000000000e+00 
0.000000000000e+00 0.000000000000e+00 5.000000000000e-01 -3.381093661419e+02 9.996113581809e-01 0.000000000000e+00 -2.430128263164e-05 -2.249742681687e+02 -6.354455553822e-03 -3.374617357583e+02 -2.249744015708e+02 1.436637897461e-10 -1.368651965439e-08 -1.211402060481e-04 0.000000000000e+00 
0.000000000000e+00 0.000000000000e+00 5.500000000000e-01 -4.071562258077e+02 9.995319918579e-01 0.000000000000e+00 -3.097824646473e-05 -2.709848122307e+02 -3.313283750949e-03 -4.065063616212e+02 -2.709964695408e+02 1.255402624695e-08 -7.136303463582e-09 -1.459337299328e-04 0.000000000000e+00 
0.000000000000e+00 0.000000000000e+00 6.000000000000e-01 -4.890104166441e+02 9.994379040721e-01 0.000000000000e+00 -3.900928805672e-05 -3.255292968749e+02 2.644623960138e-03 -4.883264834815e+02 -3.255423121426e+02 1.401644211587e-08 5.696113144913e-09 -1.753060306727e-04 0.000000000000e+00 
0.000000000000e+00 0.000000000000e+00 6.500000000000e-01 -5.862563428258e+02 9.993261241647e-01 0.000000000000e+00 -4.864638465077e-05 -3.903176451072e+02 6.438174135482e-03 -5.854845944174e+02 -3.903208958098e+02 3.500756734140e-09 1.386683659950e-08 -2.101762908082e-04 0.000000000000e+00 
0.000000000000e+00 0.000000000000e+00 7.000000000000e-01 -7.019676982052e+02 9.991931190600e-01 0.000000000000e+00 -6.019228390428e-05 -4.673825408152e+02 5.198437940866e-03 -7.010540195967e+02 -4.673746241647e+02 -8.525623571779e-09 1.119663556494e-08 -2.516547335421e-04 0.000000000000e+00 
0.000000000000e+00 0.000000000000e+00 7.500000000000e-01 -8.398066884383e+02 9.990346792139e-01 0.000000000000e+00 -7.401039509229e-05 -5.591432758614e+02 6.514169026556e-04 -8.386877091281e+02 -5.591323939958e+02 -1.171893219551e-08 1.403051790335e-09 -3.010595701425e-04 0.000000000000e+00 
0.000000000000e+00 0.000000000000e+00 8.000000000000e-01 -1.004142899494e+03 9.988457819801e-01 0.000000000000e+00 -9.053600503023e-05 -6.684901644151e+02 -2.789553117951e-03 -1.002725927998e+03 -6.684864369652e+02 -4.014176854860e-09 -6.008268254048e-09 -3.599502211121e-04 0.000000000000e+00 
0.000000000000e+00 0.000000000000e+00 8.500000000000e-01 -1.200196054879e+03 9.986204275161e-01 0.000000000000e+00 -1.102894383527e-04 -7.988700747995e+02 -2.334215625386e-03 -1.198318494590e+03 -7.988754277559e+02 5.764722349844e-09 -5.027541346985e-09 -4.301694565909e-04 0.000000000000e+00 
0.000000000000e+00 0.000000000000e+00 9.000000000000e-01 -1.434207877468e+03 9.983514412367e-01 0.000000000000e+00 -1.338922520298e-04 -9.544011145655e+02 7.495272876967e-04 -1.431621097469e+03 -9.544088848137e+02 8.367959595018e-09 1.614366465808e-09 -5.139208443978e-04 0.000000000000e+00 
0.000000000000e+00 0.000000000000e+00 9.500000000000e-01 -1.713627826095e+03 9.980302603172e-01 0.000000000000e+00 -1.620870892395e-04 -1.139952070629e+03 3.198286411068e-03 -1.709934855490e+03 -1.139954770448e+03 2.907497252259e-09 6.888616885377e-09 -6.138247069690e-04 0.000000000000e+00 
0.000000000000e+00 0.000000000000e+00 1.000000000000e+00 -2.102594212636e+03 9.975831605939e-01 0.000000000000e+00 -1.962540132786e-04 -1.398427660893e+03 2.273022362385e-03 -2.097624194069e+03 -1.398420741985e+03 -7.451131967661e-09 4.895740472830e-09 -7.529883330137e-04 0.000000000000e+00 
1.000000000000e-01 0.000000000000e+00 0.000000000000e+00 0.000000000000e+00 1.000000000000e+00 0.000000000000e+00 0.000000000000e+00 1.893095052866e-01 -1.369703875287e-05 2.743282284036e-01 1.854550934761e-01 4.150905026698e-09 -2.950131423695e-11 9.570952992197e-08 0.000000000000e+00 
1.000000000000e-01 0.000000000000e+00 5.000000000000e-02 -2.117101693951e+01 9.999756648488e-01 0.000000000000e+00 -1.849559249620e-07 -1.391561684925e+01 -1.322163399738e-03 -2.087758585620e+01 -1.391728108218e+01 1.792250847846e-09 -2.847736553283e-09 -7.495712833562e-06 0.000000000000e+00 
1.000000000000e-01 0.000000000000e+00 1.000000000000e-01 -4.297987881952e+01 9.999505965230e-01 0.000000000000e+00 -7.551006454238e-07 -2.844199947489e+01 -9.997152291472e-04 -4.265740581546e+01 -2.843976211614e+01 -2.409463267716e-09 -2.153232801240e-09 -1.531130859927e-05 0.000000000000e+00 
1.000000000000e-01 0.000000000000e+00 1.500000000000e-01 -6.611582826271e+01 9.999240027685e-01 0.000000000000e+00 -1.727849854817e-06 -4.384487086203e+01 1.318721326594e-03 -6.575204038729e+01 -4.383876449973e+01 -6.576082482265e-09 2.840322857278e-09 -2.359891249429e-05 0.000000000000e+00 
1.000000000000e-01 0.000000000000e+00 2.000000000000e-01 -9.130923276556e+01 9.998950440601e-01 0.000000000000e+00 -3.133424501945e-06 -6.061175935503e+01 5.286433755931e-03 -9.089584020779e+01 -6.060303982513e+01 -9.390262969803e-09 1.138616501277e-08 -3.262301579671e-05 0.000000000000e+00 
1.000000000000e-01 0.000000000000e+00 2.500000000000e-01 -1.193546905940e+02 9.998628070420e-01 0.000000000000e+00 -5.015890207095e-06 -7.927352379833e+01 9.476146670282e-03 -1.188913182205e+02 -7.926593680753e+01 -8.170605481820e-09 2.041016205907e-08 -4.267348767550e-05 0.000000000000e+00 
1.000000000000e-01 0.000000000000e+00 3.000000000000e-01 -1.511361697616e+02 9.998262756320e-01 0.000000000000e+00 -7.434562556733e-06 -1.004211978516e+02 1.149487401610e-02 -1.506291224539e+02 -1.004201281222e+02 -1.152016301174e-09 2.475819018852e-08 -5.407122466488e-05 0.000000000000e+00 
1.000000000000e-01 0.000000000000e+00 3.500000000000e-01 -1.876549852156e+02 9.997842988627e-01 0.000000000000e+00 -1.046574942632e-05 -1.247274579511e+02 9.319335178998e-03 -1.871124672460e+02 -1.247359700788e+02 9.166906818131e-09 2.007241423169e-08 -6.717468925696e-05 0.000000000000e+00 
1.000000000000e-01 0.000000000000e+00 4.000000000000e-01 -2.300615143496e+02 9.997355544259e-01 0.000000000000e+00 -1.420492309355e-05 -1.529680944482e+02 3.080636983160e-03 -2.294900416868e+02 -1.529832544540e+02 1.632616012415e-08 6.635218117576e-09 -8.239192471228e-05 0.000000000000e+00 
1.000000000000e-01 0.000000000000e+00 4.500000000000e-01 -2.796916767882e+02 9.996785067409e-01 0.000000000000e+00 -1.876953922368e-05 -1.860375722955e+02 -3.830368746727e-03 -2.790861173709e+02 -1.860494758665e+02 1.281923036047e-08 -8.250024992951e-09 -1.001933062354e-04 0.000000000000e+00 
1.000000000000e-01 0.000000000000e+00 5.000000000000e-01 -3.381093661419e+02 9.996113581809e-01 0.000000000000e+00 -2.430290739982e-05 -2.249762303722e+02 -6.792457750430e-03 -3.374640120530e+02 -2.249760969701e+02 -1.436637897461e-10 -1.462990900093e-08 -1.211408316278e-04 0.000000000000e+00 
1.000000000000e-01 0.000000000000e+00 5.500000000000e-01 -4.071562258077e+02 9.995319918579e-01 0.000000000000e+00 -3.097909772632e-05 -2.709986474591e+02 -3.798999741428e-03 -4.064688279135e+02 -2.709869901491e+02 -1.255402624695e-08 -8.182460981538e-09 -1.459035175925e-04 0.000000000000e+00 
1.000000000000e-01 0.000000000000e+00 6.000000000000e-01 -4.890104166441e+02 9.994379040721e-01 0.000000000000e+00 -3.900862344925e-05 -3.255427313602e+02 2.417835937580e-03 -4.882815588711e+02 -3.255297160925e+02 -1.401644211587e-08 5.207646634788e-09 -1.752712153000e-04 0.000000000000e+00 
1.000000000000e-01 0.000000000000e+00 6.500000000000e-01 -5.862563428258e+02 9.993261241647e-01 0.000000000000e+00 -4.864477394866e-05 -3.903199910071e+02 6.569097945404e-03 -5.854718597539e+02 -3.903167403044e+02 -3.500756734140e-09 1.414882634395e-08 -2.101670517149e-04 0.000000000000e+00 
1.000000000000e-01 0.000000000000e+00 7.000000000000e-01 -7.019676982052e+02 9.991931190600e-01 0.000000000000e+00 -6.019101363841e-05 -4.673729860844e+02 5.578838582135e-03 -7.010792707527e+02 -4.673809027348e+02 8.525623571779e-09 1.201596002306e-08 -2.516751655577e-04 0.000000000000e+00 
1.000000000000e-01 0.000000000000e+00 7.500000000000e-01 -8.398066884383e+02 9.990346792139e-01 0.000000000000e+00 -7.401028727168e-05 -5.591322955605e+02 1.018366019633e-03 -8.387256480048e+02 -5.591431774261e+02 1.171893219551e-08 2.193403734595e-09 -3.010888144693e-04 0.000000000000e+00 
1.000000000000e-01 0.000000000000e+00 8.000000000000e-01 -1.004142899494e+03 9.988457819801e-01 0.000000000000e+00 -9.053674948086e-05 -6.684869379811e+02 -2.660358246334e-03 -1.002739725597e+03 -6.684906654311e+02 4.014176854860e-09 -5.730002376719e-09 -3.599605263320e-04 0.000000000000e+00 
1.000000000000e-01 0.000000000000e+00 8.500000000000e-01 -1.200196054879e+03 9.986204275161e-01 0.000000000000e+00 -1.102900309577e-04 -7.988760743881e+02 -2.380003943663e-03 -1.198300729191e+03 -7.988707214316e+02 -5.764722349844e-09 -5.126162340197e-09 -4.301553929716e-04 0.000000000000e+00 
1.000000000000e-01 0.000000000000e+00 9.000000000000e-01 -1.434207877468e+03 9.983514412367e-01 0.000000000000e+00 -1.338920238436e-04 -9.544089078388e+02 7.437719080085e-04 -1.431593936138e+03 -9.544011375906e+02 -8.367959595018e-09 1.601970263403e-09 -5.138999368969e-04 0.000000000000e+00 
1.000000000000e-01 0.000000000000e+00 9.500000000000e-01 -1.713627826095e+03 9.980302603172e-01 0.000000000000e+00 -1.620862752093e-04 -1.139954592311e+03 3.382907177190e-03 -1.709925138919e+03 -1.139951892492e+03 -2.907497252259e-09 7.286261612410e-09 -6.138173423060e-04 0.000000000000e+00 
1.000000000000e-01 0.000000000000e+00 1.000000000000e+00 -2.102594212636e+03 9.975831605939e-01 0.000000000000e+00 -1.962532949906e-04 -1.398409093019e+03 2.281579003463e-03 -2.097630936799e+03 -1.398416011927e+03 7.451131967661e-09 4.914170161306e-09 -7.530006883234e-04 0.000000000000e+00 
1  22  23  2  
2  23  24  3  
3  24  25  4  
4  25  26  5  
5  26  27  6  
6  27  28  7  
7  28  29  8  
8  29  30  9  
9  30  31  10  
10  31  32  11  
11  32  33  12  
12  33  34  13  
13  34  35  14  
14  35  36  15  
15  36  37  16  
16  37  38  17  
17  38  39  18  
18  39  40  19  
19  40  41  20  
20  41  42  21  
VARIABLES  = "X","Y","Z", "PRESSURE1", "SATURATION1", "DISPLACEMENT_X1", "DISPLACEMENT_Y1", "STRESS_XX", "STRESS_XY", "STRESS_YY", "STRESS_ZZ", "STRAIN_XX", "STRAIN_XY", "STRAIN_YY", "STRAIN_PLS"
ZONE T="2.000000000000e+00s", N=42, E=20, F=FEPOINT, ET=QUADRILATERAL
STRANDID=1, SOLUTIONTIME=2.000000000000e+00
0.000000000000e+00 0.000000000000e+00 0.000000000000e+00 0.000000000000e+00 1.000000000000e+00 0.000000000000e+00 0.000000000000e+00 1.790337002717e-01 -9.945167999216e-05 3.153667459309e-01 1.977601784810e-01 -2.016697653317e-08 -2.142036184446e-10 1.266532264845e-07 0.000000000000e+00 
0.000000000000e+00 0.000000000000e+00 5.000000000000e-02 -5.534205529972e+01 9.999363867458e-01 0.000000000000e+00 -4.908414599469e-07 -3.671278506595e+01 -6.851594086039e-03 -5.505200383992e+01 -3.670591556235e+01 -7.397926955909e-09 -1.475727956993e-08 -1.975732583739e-05 0.000000000000e+00 
0.000000000000e+00 0.000000000000e+00 1.000000000000e-01 -1.117044313422e+02 9.998716006779e-01 0.000000000000e+00 -1.984946893364e-06 -7.426974249843e+01 -6.451326537634e-03 -1.114246640234e+02 -7.427776260875e+01 8.637041881236e-09 -1.389516485029e-08 -4.000435536967e-05 0.000000000000e+00 
0.000000000000e+00 0.000000000000e+00 1.500000000000e-01 -1.701801010951e+02 9.998043854720e-01 0.000000000000e+00 -4.509897076959e-06 -1.132404777587e+02 -1.667657578137e-03 -1.698894176285e+02 -1.132519581549e+02 1.236350353684e-08 -3.591877860603e-09 -6.099418712539e-05 0.000000000000e+00 
0.000000000000e+00 0.000000000000e+00 2.000000000000e-01 -2.318862049300e+02 9.997334570245e-01 0.000000000000e+00 -8.112841569274e-06 -1.543620315487e+02 2.041610510654e-03 -2.315542495786e+02 -1.543665124509e+02 4.825586986813e-09 4.397314946024e-09 -8.312525536826e-05 0.000000000000e+00 
0.000000000000e+00 0.000000000000e+00 2.500000000000e-01 -2.979763595039e+02 9.996574893037e-01 0.000000000000e+00 -1.286168972862e-05 -1.984076641840e+02 2.372111791591e-03 -2.976014513493e+02 -1.984036462133e+02 -4.327045366223e-09 5.109163858811e-09 -1.068284055310e-04 0.000000000000e+00 
0.000000000000e+00 0.000000000000e+00 3.000000000000e-01 -3.696521200665e+02 9.995751011750e-01 0.000000000000e+00 -1.884593919688e-05 -2.461589004722e+02 1.695755525250e-04 -3.692253654785e+02 -2.461537063803e+02 -5.593637463439e-09 3.652396515923e-10 -1.325387097981e-04 0.000000000000e+00 
0.000000000000e+00 0.000000000000e+00 3.500000000000e-01 -4.481731699771e+02 9.994848446878e-01 0.000000000000e+00 -2.617735304639e-05 -2.984640638379e+02 -6.393924943981e-04 -4.476997977888e+02 -2.984655446507e+02 1.594721435785e-09 -1.377153064857e-09 -1.607138110718e-04 0.000000000000e+00 
0.000000000000e+00 0.000000000000e+00 4.000000000000e-01 -5.348656826769e+02 9.993851954642e-01 0.000000000000e+00 -3.499029034296e-05 -3.561999330019e+02 -5.655468774961e-04 -5.343021562208e+02 -3.562008356891e+02 9.721246750185e-10 -1.218100966915e-09 -1.918014221111e-04 0.000000000000e+00 
0.000000000000e+00 0.000000000000e+00 4.500000000000e-01 -6.311281262273e+02 9.992745460267e-01 0.000000000000e+00 -4.544328793654e-05 -4.202974755533e+02 -2.769255827564e-04 -6.304479780061e+02 -4.202981814238e+02 7.601682200784e-10 -5.964551013214e-10 -2.263151655502e-04 0.000000000000e+00 
0.000000000000e+00 0.000000000000e+00 5.000000000000e-01 -7.384335488535e+02 9.991512031713e-01 0.000000000000e+00 -5.772043814171e-05 -4.917347912337e+02 -2.019498393548e-03 -7.375814224025e+02 -4.917264854544e+02 -8.944685305626e-09 -4.349688847641e-09 -2.647668551748e-04 0.000000000000e+00 
0.000000000000e+00 0.000000000000e+00 5.500000000000e-01 -8.583270825981e+02 9.990133908369e-01 0.000000000000e+00 -7.203336498696e-05 -5.715182942268e+02 -3.301444389708e-03 -8.572802969981e+02 -5.715194364899e+02 1.230129580584e-09 -7.110803300910e-09 -3.077424651626e-04 0.000000000000e+00 
0.000000000000e+00 0.000000000000e+00 6.000000000000e-01 -9.924170141845e+02 9.988592603686e-01 0.000000000000e+00 -8.862160262573e-05 -6.607309307506e+02 -2.574233154452e-03 -9.910991330784e+02 -6.607320255316e+02 1.178994924205e-09 -5.544502178820e-09 -3.557799619735e-04 0.000000000000e+00 
0.000000000000e+00 0.000000000000e+00 6.500000000000e-01 -1.142357275674e+03 9.986869106444e-01 0.000000000000e+00 -1.077535930930e-04 -7.604423473227e+02 8.285556702528e-04 -1.140697718897e+03 -7.604560264880e+02 1.473140875606e-08 1.784581443621e-09 -4.094910533638e-04 0.000000000000e+00 