 TITLE = "Time curves in points"
 VARIABLES = "TIME "  "PRESSURE1"  "SATURATION1"  "DISPLACEMENT_X1"  "DISPLACEMENT_Y1"  "STRESS_XX"  "STRESS_XY"  "STRESS_YY"  "STRESS_ZZ"  "STRAIN_XX"  "STRAIN_XY"  "STRAIN_YY"  "STRAIN_PLS"  p_(1st_Invariant)  q_(2nd_Invariant)   Effective_Strain
 ZONE T="POINT=POINT0"
0.000000000000e+00 0.000000000000e+00 1.000000000000e+00 0.000000000000e+00 0.000000000000e+00 0.000000000000e+00 0.000000000000e+00 0.000000000000e+00 0.000000000000e+00 0.000000000000e+00 0.000000000000e+00 0.000000000000e+00 0.000000000000e+00 -0.000000000000e+00 0.000000000000e+00  0.000000000000e+00
1.000000000000e+00 -2.102594212636e+03 9.975831605939e-01 0.000000000000e+00 -1.962519314902e-04 -1.398426458542e+03 -1.138229303572e-03 -2.097652031682e+03 -1.398431396090e+03 5.317358691243e-09 -2.451570807695e-09 -7.530068383301e-04 0.000000000000e+00 1.631503295438e+03 6.992231043818e+02  7.530094970355e-04
2.000000000000e+00 -2.999353595962e+03 9.945498895068e-01 0.000000000000e+00 -3.454551069366e-04 -1.989041622505e+03 9.105020328484e-04 -2.983555096032e+03 -1.989038687415e+03 -3.160866133898e-09 1.961081301520e-09 -1.071017670819e-03 0.000000000000e+00 2.320545135317e+03 9.945149410768e+02  1.071016090394e-03
3.000000000000e+00 -3.604603137824e+03 9.914568603293e-01 0.000000000000e+00 -4.662699733193e-04 -2.383179878574e+03 3.165761941217e-03 -3.574740859101e+03 -2.383168295070e+03 -1.247454320033e-08 6.818564181083e-09 -1.283231992033e-03 0.000000000000e+00 2.780363010915e+03 1.191566772333e+03  1.283225754861e-03
4.000000000000e+00 -4.041701610015e+03 9.887330194036e-01 0.000000000000e+00 -5.551014905333e-04 -2.664961145541e+03 8.526327162920e-06 -3.997441671004e+03 -2.664961126618e+03 -2.037846987148e-11 1.836439696629e-11 -1.434979047800e-03 0.000000000000e+00 3.109121314387e+03 1.332480534925e+03  1.434979037611e-03
5.000000000000e+00 -4.388410622511e+03 9.862519346014e-01 0.000000000000e+00 -6.263531591034e-04 -2.886445646290e+03 -4.017265796369e-04 -4.329672324126e+03 -2.886447188166e+03 1.660482100370e-09 -8.652572484487e-10 -1.554242454110e-03 0.000000000000e+00 3.367521719527e+03 1.443225906898e+03  1.554243284353e-03
6.000000000000e+00 -4.677125350176e+03 9.839610183803e-01 0.000000000000e+00 -6.846868291968e-04 -3.069323235785e+03 2.440820176694e-06 -4.603984857583e+03 -3.069323237347e+03 1.682160764899e-12 5.257151149803e-12 -1.652712514100e-03 0.000000000000e+00 3.580877110239e+03 1.534661621017e+03  1.652712514941e-03
7.000000000000e+00 -4.924452240886e+03 9.818384431864e-01 0.000000000000e+00 -7.335613713297e-04 -3.224766188211e+03 7.042585921578e-05 -4.837147581894e+03 -3.224765508042e+03 -7.324896022842e-10 1.516864660032e-10 -1.736411464148e-03 0.000000000000e+00 3.762226426049e+03 1.612381733768e+03  1.736411097904e-03
8.000000000000e+00 -5.140410523082e+03 9.798416189461e-01 0.000000000000e+00 -7.778992413619e-04 -3.359445178241e+03 5.018095710250e-05 -5.039166505362e+03 -3.359444673441e+03 -5.436303368244e-10 1.080820614515e-10 -1.808931203607e-03 0.000000000000e+00 3.919352119014e+03 1.679721579521e+03  1.808930931792e-03
9.000000000000e+00 -5.328462460637e+03 9.778265946546e-01 0.000000000000e+00 -8.157128627920e-04 -3.475360281591e+03 3.728483389388e-04 -5.213037252075e+03 -3.475359013466e+03 -1.365672817868e-09 8.030579607913e-10 -1.871345795424e-03 0.000000000000e+00 4.054585515711e+03 1.737677604547e+03  1.871345112589e-03
1.000000000000e+01 -5.501186184649e+03 9.759306639983e-01 0.000000000000e+00 -8.507115616419e-04 -3.581204597988e+03 -1.115447433928e-04 -5.371807547448e+03 -3.581204858175e+03 2.802006141308e-10 -2.402502165382e-10 -1.928341357679e-03 0.000000000000e+00 4.178072334537e+03 1.790602819367e+03  1.928341497780e-03
1.100000000000e+01 -5.658996498446e+03 9.742278002399e-01 0.000000000000e+00 -8.814040716578e-04 -3.677578294769e+03 3.369735123098e-05 -5.516367461873e+03 -3.677578302657e+03 8.494444187198e-12 7.257891034365e-11 -1.980234479156e-03 0.000000000000e+00 4.290508019767e+03 1.838789163160e+03  1.980234483403e-03
1.200000000000e+01 -5.803295410818e+03 9.726776974643e-01 0.000000000000e+00 -9.101294463458e-04 -3.765355111377e+03 6.718363107916e-05 -5.648031393051e+03 -3.765354601771e+03 -5.488065757741e-10 1.447032054013e-10 -2.027498082916e-03 0.000000000000e+00 4.392913702067e+03 1.882676536477e+03  2.027497808513e-03
1.300000000000e+01 -5.938090257574e+03 9.712296902502e-01 0.000000000000e+00 -9.369123709672e-04 -3.847079661987e+03 -2.083213135507e-05 -5.770619543594e+03 -3.847079682232e+03 2.180309268239e-11 -4.486920599554e-11 -2.071504466082e-03 0.000000000000e+00 4.488259629271e+03 1.923539871485e+03  2.071504476984e-03
1.400000000000e+01 -6.063879632567e+03 9.698784225510e-01 0.000000000000e+00 -9.611591786698e-04 -3.923115229862e+03 -1.929338209349e-05 -5.884673164568e+03 -3.923115357772e+03 1.377493768589e-10 -4.155497681676e-11 -2.112446868857e-03 0.000000000000e+00 4.576967917401e+03 1.961557870751e+03  2.112446937732e-03
1.500000000000e+01 -6.181379260781e+03 9.684085510137e-01 0.000000000000e+00 -9.841616547468e-04 -3.993185097573e+03 2.716031073763e-04 -5.989775472601e+03 -3.993184228070e+03 -9.363883616603e-10 5.849913081952e-10 -2.150175186418e-03 0.000000000000e+00 4.658714932748e+03 1.996590809780e+03  2.150174718225e-03
1.600000000000e+01 -6.291829678325e+03 9.669197245292e-01 0.000000000000e+00 -1.005994230965e-03 -4.058446195249e+03 6.942945691671e-05 -6.087668487846e+03 -4.058445873238e+03 -3.467812424108e-10 1.495403687437e-10 -2.185316661885e-03 0.000000000000e+00 4.734853518778e+03 2.029222453602e+03  2.185316488495e-03
1.700000000000e+01 -6.395909937575e+03 9.655167213879e-01 0.000000000000e+00 -1.026548166925e-03 -4.119747709347e+03 -2.190776885889e-05 -6.179621623306e+03 -4.119747733061e+03 2.553831552719e-11 -4.718596369608e-11 -2.218325727956e-03 0.000000000000e+00 4.806372355238e+03 2.059873902102e+03  2.218325740725e-03
1.800000000000e+01 -6.494268142428e+03 9.641986568911e-01 0.000000000000e+00 -1.046048702872e-03 -4.177520139183e+03 -3.856732974459e-06 -6.266280358306e+03 -4.177520198996e+03 6.441329492073e-11 -8.306809483451e-12 -2.249434017719e-03 0.000000000000e+00 4.873773565495e+03 2.088760189216e+03  2.249434049925e-03
1.900000000000e+01 -6.587392041409e+03 9.629755729497e-01 0.000000000000e+00 -1.064551759645e-03 -4.232103188977e+03 2.316829265030e-04 -6.348152797254e+03 -4.232102394492e+03 -8.555990863714e-10 4.990093801602e-10 -2.278823510666e-03 0.000000000000e+00 4.937452793574e+03 2.116050005519e+03  2.278823082867e-03
2.000000000000e+01 -6.675772953908e+03 9.618147831204e-01 0.000000000000e+00 -1.081630777429e-03 -4.283712474540e+03 -2.856847590760e-06 -6.425568832362e+03 -4.283712522761e+03 5.193035425220e-11 -6.153210195483e-12 -2.306614487263e-03 0.000000000000e+00 4.997664609887e+03 2.141856333712e+03  2.306614513228e-03
2.100000000000e+01 -6.759941005158e+03 9.607093247688e-01 0.000000000000e+00 -1.098104240547e-03 -4.332736526699e+03 2.509207724550e-04 -6.499102709346e+03 -4.332735694418e+03 -8.963023489063e-10 5.404447406724e-10 -2.333010631461e-03 0.000000000000e+00 5.054858310154e+03 2.166366598788e+03  2.333010183310e-03
2.200000000000e+01 -6.840157925681e+03 9.596557603413e-01 0.000000000000e+00 -1.113916452895e-03 -4.379341056229e+03 3.470724911098e-06 -6.569011558474e+03 -4.379341045881e+03 -1.114380859605e-11 7.475407500827e-12 -2.358106705869e-03 0.000000000000e+00 5.109231220194e+03 2.189670507419e+03  2.358106700297e-03
2.300000000000e+01 -6.916704891593e+03 9.585313021695e-01 0.000000000000e+00 -1.128950277440e-03 -4.423226719750e+03 6.702145763507e-05 -6.634839562271e+03 -4.423226512809e+03 -2.228602763356e-10 1.443539087525e-10 -2.381737130190e-03 0.000000000000e+00 5.160430931610e+03 2.211612945992e+03  2.381737018760e-03
2.400000000000e+01 -6.989835820229e+03 9.573940361369e-01 0.000000000000e+00 -1.143349328011e-03 -4.464795180925e+03 6.816868009970e-05 -6.697192234909e+03 -4.464794966333e+03 -2.310983228027e-10 1.468248494455e-10 -2.404120135389e-03 0.000000000000e+00 5.208927460722e+03 2.232397161280e+03  2.404120019840e-03
2.500000000000e+01 -7.059800136258e+03 9.563060150028e-01 0.000000000000e+00 -1.157148800611e-03 -4.504461975625e+03 -6.702078953159e-07 -6.756692975872e+03 -4.504461980599e+03 5.356494655002e-12 -1.443524697603e-12 -2.425479533371e-03 0.000000000000e+00 5.255205644032e+03 2.252230997760e+03  2.425479536050e-03
2.600000000000e+01 -7.126990485557e+03 9.552611348177e-01 0.000000000000e+00 -1.170414590079e-03 -4.542462656962e+03 -4.719655951588e-05 -6.813694332160e+03 -4.542462795649e+03 1.493550904242e-10 -1.016541281881e-10 -2.445941654704e-03 0.000000000000e+00 5.299539928257e+03 2.271231605855e+03  2.445941729382e-03
2.700000000000e+01 -7.191599809959e+03 9.542563902998e-01 0.000000000000e+00 -1.183182777721e-03 -4.578917686411e+03 6.442549671617e-05 -6.868375830701e+03 -4.578917406845e+03 -3.010714956538e-10 1.387626083118e-10 -2.465570610306e-03 0.000000000000e+00 5.342070307985e+03 2.289458284073e+03  2.465570459771e-03
2.800000000000e+01 -7.253760208403e+03 9.532949118910e-01 0.000000000000e+00 -1.195464167742e-03 -4.613921272200e+03 2.438363288304e-05 -6.920881619485e+03 -4.613921156674e+03 -1.244126045653e-10 5.251859390194e-11 -2.484418959950e-03 0.000000000000e+00 5.382908016120e+03 2.306960405048e+03  2.484418897744e-03
2.900000000000e+01 -7.313603805277e+03 9.523825757118e-01 0.000000000000e+00 -1.207280968596e-03 -4.647574880736e+03 -4.237990599817e-05 -6.971362789522e+03 -4.647575068103e+03 2.017802932071e-10 -9.127979753453e-11 -2.502540623067e-03 0.000000000000e+00 5.422170912787e+03 2.323787815103e+03  2.502540723957e-03
3.000000000000e+01 -7.371252113177e+03 9.515037074666e-01 0.000000000000e+00 -1.218395528254e-03 -4.679906636657e+03 -2.711163542791e-06 -7.019859919464e+03 -4.679906622448e+03 -1.530119206549e-11 -5.839429169088e-12 -2.519949704479e-03 0.000000000000e+00 5.459891059523e+03 2.339953289912e+03  2.519949696828e-03
3.100000000000e+01 -7.426814990064e+03 9.506566323332e-01 0.000000000000e+00 -1.229191219906e-03 -4.710986637947e+03 1.251929855539e-06 -7.066479900463e+03 -4.710986615364e+03 -2.431975259759e-11 2.696464304237e-12 -2.536685076261e-03 0.000000000000e+00 5.496151051258e+03 2.355493273808e+03  2.536685064101e-03
3.200000000000e+01 -7.480394406615e+03 9.498397957335e-01 0.000000000000e+00 -1.239582376810e-03 -4.740897726913e+03 6.396026467827e-06 -7.111346544016e+03 -4.740897708372e+03 -1.996734805844e-11 1.377605700763e-11 -2.552791053771e-03 0.000000000000e+00 5.531047326434e+03 2.370448826374e+03  2.552791043788e-03
3.300000000000e+01 -7.532106170743e+03 9.490331109232e-01 0.000000000000e+00 -1.249644913318e-03 -4.769629807833e+03 2.569326834098e-05 -7.154444275725e+03 -4.769629633423e+03 -1.878255826212e-10 5.533934719596e-11 -2.568261922479e-03 0.000000000000e+00 5.564567905660e+03 2.384814555097e+03  2.568261828566e-03
3.400000000000e+01 -7.582089626926e+03 9.481611904125e-01 0.000000000000e+00 -1.259392157862e-03 -4.796938515857e+03 1.633401170325e-06 -7.195407763704e+03 -4.796938511824e+03 -4.342588067358e-12 3.518094828392e-12 -2.582966886640e-03 0.000000000000e+00 5.596428263795e+03 2.398469249864e+03  2.582966884468e-03
3.500000000000e+01 -7.630448449663e+03 9.473176091145e-01 0.000000000000e+00 -1.268841439689e-03 -4.823305044378e+03 -2.412160633947e-05 -7.234957828609e+03 -4.823305149195e+03 1.128797139507e-10 -5.195422903887e-11 -2.597164423985e-03 0.000000000000e+00 5.627189340728e+03 2.411652731823e+03  2.597164480425e-03
3.600000000000e+01 -7.677262638271e+03 9.465009725765e-01 0.000000000000e+00 -1.277994185036e-03 -4.848778670442e+03 2.650724474498e-05 -7.273167825200e+03 -4.848778598257e+03 -7.773804533360e-11 5.709252714304e-11 -2.610880705939e-03 0.000000000000e+00 5.656908364633e+03 2.424389190850e+03  2.610880667070e-03
3.700000000000e+01 -7.722619412975e+03 9.457097604833e-01 0.000000000000e+00 -1.286854372928e-03 -4.873412758110e+03 -4.902566066394e-05 -7.310119612674e+03 -4.873412948314e+03 2.048345819349e-10 -1.055937306608e-10 -2.624145638542e-03 0.000000000000e+00 5.685648439700e+03 2.436706759462e+03  2.624145740959e-03
3.800000000000e+01 -7.766617601835e+03 9.449422502795e-01 0.000000000000e+00 -1.295438800891e-03 -4.897266291542e+03 -5.504428298341e-05 -7.345899960238e+03 -4.897266500712e+03 2.252600057895e-10 -1.185569171950e-10 -2.636989879490e-03 0.000000000000e+00 5.713477584164e+03 2.448633564111e+03  2.636989992120e-03
3.900000000000e+01 -7.809303106904e+03 9.441976394746e-01 0.000000000000e+00 -1.303760509973e-03 -4.920366963643e+03 1.612223591035e-04 -7.380549140574e+03 -4.920366441687e+03 -5.621065856892e-10 3.472481580690e-10 -2.649427521879e-03 0.000000000000e+00 5.740427515301e+03 2.460182437909e+03  2.649427240825e-03
4.000000000000e+01 -7.850726630496e+03 9.434750431230e-01 0.000000000000e+00 -1.311822493698e-03 -4.942742855112e+03 -1.041308616482e-05 -7.414114410973e+03 -4.942742906434e+03 5.526977776578e-11 -2.242818558576e-11 -2.661477004888e-03 0.000000000000e+00 5.766533390840e+03 2.471371530200e+03  2.661477032523e-03
4.100000000000e+01 -7.890939571028e+03 9.427735643896e-01 0.000000000000e+00 -1.319644764742e-03 -4.964428066347e+03 -1.452728541402e-05 -7.446642263410e+03 -4.964428131903e+03 7.059831496695e-11 -3.128953781481e-11 -2.673153680084e-03 0.000000000000e+00 5.791832820553e+03 2.482214164285e+03  2.673153715384e-03
4.200000000000e+01 -7.929991357369e+03 9.421018193006e-01 0.000000000000e+00 -1.327231788352e-03 -4.985473925609e+03 -2.622334708530e-05 -7.478211313170e+03 -4.985474095512e+03 1.829717525524e-10 -5.648105526064e-11 -2.684486234401e-03 0.000000000000e+00 5.816386444763e+03 2.492737302609e+03  2.684486325887e-03
4.300000000000e+01 -7.967929438893e+03 9.414505731926e-01 0.000000000000e+00 -1.334593233213e-03 -5.005889526657e+03 -1.544264990760e-05 -7.508834533916e+03 -5.005889624229e+03 1.050780129485e-10 -3.326109210867e-11 -2.695479133509e-03 0.000000000000e+00 5.840204561601e+03 2.502944958473e+03  2.695479186048e-03
4.400000000000e+01 -8.004807955087e+03 9.408175156110e-01 0.000000000000e+00 -1.341750047065e-03 -5.025702424722e+03 6.277451194272e-05 -7.538552894945e+03 -5.025702127867e+03 -3.196905981220e-10 1.352066411074e-10 -2.706146979930e-03 0.000000000000e+00 5.863319149178e+03 2.512850618650e+03  2.706146820085e-03
4.500000000000e+01 -8.040679004071e+03 9.402017522381e-01 0.000000000000e+00 -1.348708898175e-03 -5.044921412054e+03 -3.144625469923e-05 -7.567382345145e+03 -5.044921502880e+03 9.781182528977e-11 -6.773039473681e-11 -2.716496291670e-03 0.000000000000e+00 5.885741753359e+03 2.522460887678e+03  2.716496340576e-03
4.600000000000e+01 -8.075588880257e+03 9.396024883828e-01 0.000000000000e+00 -1.355480783051e-03 -5.063597699329e+03 -3.514671240188e-06 -7.595396614082e+03 -5.063597725364e+03 2.803839537487e-11 -7.570061132713e-12 -2.726552649388e-03 0.000000000000e+00 5.907530679592e+03 2.531798901736e+03  2.726552663408e-03
4.700000000000e+01 -8.109577920468e+03 9.390141703795e-01 0.000000000000e+00 -1.362071426420e-03 -5.081731748870e+03 1.063354070138e-04 -7.622596703546e+03 -5.081731380967e+03 -3.962039874199e-10 2.290301074144e-10 -2.736316501240e-03 0.000000000000e+00 5.928686611128e+03 2.540865138628e+03  2.736316303138e-03
4.800000000000e+01 -8.142681258458e+03 9.383905295355e-01 0.000000000000e+00 -1.368481099950e-03 -5.099124611778e+03 2.468900286137e-05 -7.648686659622e+03 -5.099124508560e+03 -1.111580248910e-10 5.317631385526e-11 -2.745682316528e-03 0.000000000000e+00 5.948978593320e+03 2.549562099453e+03  2.745682260949e-03
4.900000000000e+01 -8.174930340898e+03 9.377829822414e-01 0.000000000000e+00 -1.374683014828e-03 -5.116042734293e+03 -1.815491133649e-05 -7.674064295748e+03 -5.116042812016e+03 8.370195483354e-11 -3.910288595551e-11 -2.754792367095e-03 0.000000000000e+00 5.968716614019e+03 2.558021522593e+03  2.754792408946e-03
5.000000000000e+01 -8.206362464117e+03 9.371908254677e-01 0.000000000000e+00 -1.380725035272e-03 -5.132507685295e+03 2.003172187909e-05 -7.698761297131e+03 -5.132507592970e+03 -9.942631003054e-11 4.314524712418e-11 -2.763657835250e-03 0.000000000000e+00 5.987925525132e+03 2.566253657998e+03  2.763657785537e-03
5.100000000000e+01 -8.237008181829e+03 9.366134838749e-01 0.000000000000e+00 -1.386613912973e-03 -5.148536833231e+03 1.903332338494e-06 -7.722805235395e+03 -5.148536827450e+03 -6.225266534682e-12 4.099485036756e-12 -2.772289054710e-03 0.000000000000e+00 6.006626298692e+03 2.574268405054e+03  2.772289051597e-03
5.200000000000e+01 -8.266892455761e+03 9.360504874292e-01 0.000000000000e+00 -1.392353216221e-03 -5.164145462164e+03 2.200873081156e-05 -7.746218026758e+03 -5.164145395569e+03 -7.171791204417e-11 4.740342020952e-11 -2.780693602819e-03 0.000000000000e+00 6.024836294831e+03 2.582072597892e+03  2.780693566960e-03
5.300000000000e+01 -8.296039188826e+03 9.355013858274e-01 0.000000000000e+00 -1.397941786058e-03 -5.179347349516e+03 2.276814848871e-05 -7.769020844183e+03 -5.179347277480e+03 -7.757760302935e-11 4.903908905261e-11 -2.788879225681e-03 0.000000000000e+00 6.042571823726e+03 2.589673530685e+03  2.788879186892e-03
5.400000000000e+01 -8.324472822782e+03 9.349657186559e-01 0.000000000000e+00 -1.403291432995e-03 -5.194156979891e+03 2.420240418736e-05 -7.791235279542e+03 -5.194156903773e+03 -8.197306214525e-11 5.212825517278e-11 -2.796853635443e-03 0.000000000000e+00 6.059849721068e+03 2.597078337710e+03  2.796853594457e-03
5.500000000000e+01 -8.352214003775e+03 9.344430969420e-01 0.000000000000e+00 -1.408544848250e-03 -5.208586456343e+03 1.851119362175e-06 -7.812879704691e+03 -5.208586464414e+03 8.691781184233e-12 3.987026318532e-12 -2.804623489530e-03 0.000000000000e+00 6.076684208483e+03 2.604293244313e+03  2.804623493876e-03
5.600000000000e+01 -8.379282833348e+03 9.339331419656e-01 0.000000000000e+00 -1.413683964979e-03 -5.222648825431e+03 3.543929363416e-06 -7.833973143357e+03 -5.222648787515e+03 -4.083242832954e-11 7.633078628897e-12 -2.812195460137e-03 0.000000000000e+00 6.093090252101e+03 2.611324336884e+03  2.812195439721e-03
5.700000000000e+01 -8.405699342639e+03 9.334354763095e-01 0.000000000000e+00 -1.418702903697e-03 -5.236356192360e+03 6.060844120705e-06 -7.854534210820e+03 -5.236356161272e+03 -3.347944334759e-11 1.305412579844e-11 -2.819576361052e-03 0.000000000000e+00 6.109082188151e+03 2.618178034004e+03  2.819576344312e-03
5.800000000000e+01 -8.431483780741e+03 9.329497184346e-01 0.000000000000e+00 -1.423604991015e-03 -5.249718867959e+03 1.527666659133e-05 -7.874578131135e+03 -5.249718799638e+03 -7.357694289888e-11 3.290358958133e-11 -2.826771587766e-03 0.000000000000e+00 6.124671932911e+03 2.624859297337e+03  2.826771550978e-03
5.900000000000e+01 -8.456656902510e+03 9.324754772569e-01 0.000000000000e+00 -1.428393581664e-03 -5.262748694766e+03 1.151784409999e-06 -7.894123032967e+03 -5.262748691093e+03 -3.955512598828e-12 2.480766421537e-12 -2.833787752787e-03 0.000000000000e+00 6.139873472942e+03 2.631374340037e+03  2.833787750809e-03
6.000000000000e+01 -8.481239908541e+03 9.320123555006e-01 0.000000000000e+00 -1.433070731851e-03 -5.275457948915e+03 9.127377883156e-07 -7.913186916341e+03 -5.275457946102e+03 -3.029090889072e-12 1.965896774834e-12 -2.840631198718e-03 0.000000000000e+00 6.154700937120e+03 2.637728968832e+03  2.840631197204e-03
6.100000000000e+01 -8.505253059902e+03 9.315650491134e-01 0.000000000000e+00 -1.437637070644e-03 -5.287871076281e+03 3.670415871927e-05 -7.931806295490e+03 -5.287870948709e+03 -1.373860813406e-10 7.905511108766e-11 -2.847314988842e-03 0.000000000000e+00 6.169182773493e+03 2.643935282995e+03  2.847314920149e-03
6.200000000000e+01 -8.528716332180e+03 9.311279856311e-01 0.000000000000e+00 -1.442101454857e-03 -5.299986153253e+03 7.179355266647e-05 -7.949978599395e+03 -5.299985901059e+03 -2.715929834116e-10 1.546322672816e-10 -2.853838290516e-03 0.000000000000e+00 6.183316884569e+03 2.649992572239e+03  2.853838154719e-03
6.300000000000e+01 -8.551648891759e+03 9.307008080307e-01 0.000000000000e+00 -1.446467128091e-03 -5.311813519136e+03 -4.383925594396e-06 -7.967720336011e+03 -5.311813542059e+03 2.468605871751e-11 -9.442301280237e-12 -2.860207316564e-03 0.000000000000e+00 6.197115799069e+03 2.655906805414e+03  2.860207328907e-03
6.400000000000e+01 -8.574068891526e+03 9.302831781684e-01 0.000000000000e+00 -1.450736619218e-03 -5.323364736601e+03 7.950566630052e-05 -7.985046464931e+03 -5.323364480613e+03 -2.756798789512e-10 1.712429735704e-10 -2.866426752342e-03 0.000000000000e+00 6.210591894048e+03 2.661681856324e+03  2.866426614503e-03
6.500000000000e+01 -8.595993115828e+03 9.298747833926e-01 0.000000000000e+00 -1.454911321912e-03 -5.334644119743e+03 -1.219215971331e-05 -8.001966363724e+03 -5.334644193387e+03 7.930850989452e-11 -2.626003630558e-11 -2.872500798825e-03 0.000000000000e+00 6.223751558952e+03 2.667322207159e+03  2.872500838479e-03
6.600000000000e+01 -8.617437085420e+03 9.294753345897e-01 0.000000000000e+00 -1.458992847641e-03 -5.345657369148e+03 1.968212091610e-05 -8.018485884210e+03 -5.345657301343e+03 -7.302067275930e-11 4.239226043468e-11 -2.878430781549e-03 0.000000000000e+00 6.236600184901e+03 2.672828548964e+03  2.878430745039e-03
6.700000000000e+01 -8.638415481312e+03 9.290845582882e-01 0.000000000000e+00 -1.462984481471e-03 -5.356420187519e+03 -2.030316822562e-05 -8.034630477705e+03 -5.356420266090e+03 8.461442341747e-11 -4.372990079365e-11 -2.884226381740e-03 0.000000000000e+00 6.249156977105e+03 2.678210250901e+03  2.884226424047e-03
6.800000000000e+01 -8.658942175006e+03 9.286611053454e-01 0.000000000000e+00 -1.466881463890e-03 -5.366732126197e+03 3.928978244125e-06 -8.050098097984e+03 -5.366732089672e+03 -3.933402508603e-11 8.462414679654e-12 -2.889778778182e-03 0.000000000000e+00 6.261187437951e+03 2.683365990049e+03  2.889778758515e-03
6.900000000000e+01 -8.679032502141e+03 9.282322361316e-01 0.000000000000e+00 -1.470692295194e-03 -5.376740394675e+03 1.693383520280e-05 -8.065110455731e+03 -5.376740340163e+03 -5.870603643841e-11 3.647287582142e-11 -2.895167816766e-03 0.000000000000e+00 6.272863730190e+03 2.688370088312e+03  2.895167787413e-03
7.000000000000e+01 -8.698699868707e+03 9.278123957891e-01 0.000000000000e+00 -1.474421014903e-03 -5.386526867991e+03 1.550369438972e-05 -8.079790183051e+03 -5.386526820417e+03 -5.123375344339e-11 3.339257253171e-11 -2.900437467452e-03 0.000000000000e+00 6.284281290486e+03 2.693263338847e+03  2.900437441835e-03
7.100000000000e+01 -8.717956283684e+03 9.274013280486e-01 0.000000000000e+00 -1.478068447749e-03 -5.396098248924e+03 1.320006314999e-06 -8.094147349726e+03 -5.396098239460e+03 -1.019196659894e-11 2.843090524614e-12 -2.905591349517e-03 0.000000000000e+00 6.295447946036e+03 2.698049105534e+03  2.905591344421e-03
7.200000000000e+01 -8.736812874171e+03 9.269987954217e-01 0.000000000000e+00 -1.481636400318e-03 -5.405460889878e+03 -9.501183667257e-06 -8.108191424361e+03 -5.405460925696e+03 3.857303232173e-11 -2.046408789871e-11 -2.910632844717e-03 0.000000000000e+00 6.306371079978e+03 2.702730516575e+03  2.910632864003e-03
7.300000000000e+01 -8.755280149876e+03 9.266045735771e-01 0.000000000000e+00 -1.485126568175e-03 -5.414620832599e+03 3.119888452048e-05 -8.121930969186e+03 -5.414620720714e+03 -1.204912464678e-10 6.719759742873e-11 -2.915564882970e-03 0.000000000000e+00 6.317057507500e+03 2.707310192530e+03  2.915564822724e-03
7.400000000000e+01 -8.773368175938e+03 9.262184476593e-01 0.000000000000e+00 -1.488541740496e-03 -5.423583028659e+03 4.715156187912e-06 -8.135374509204e+03 -5.423583015145e+03 -1.455355552999e-11 1.015572102012e-11 -2.920390839755e-03 0.000000000000e+00 6.327513517669e+03 2.711791487302e+03  2.920390832479e-03
7.500000000000e+01 -8.791086924468e+03 9.258402047660e-01 0.000000000000e+00 -1.491883734068e-03 -5.432353576552e+03 1.330415030558e-05 -8.148530260066e+03 -5.432353534647e+03 -4.512799008701e-11 2.865509296586e-11 -2.925113396605e-03 0.000000000000e+00 6.337745790422e+03 2.716176704467e+03  2.925113374041e-03
7.600000000000e+01 -8.808445866670e+03 9.254696427287e-01 0.000000000000e+00 -1.495154417374e-03 -5.440937439906e+03 1.421929943208e-05 -8.161406044729e+03 -5.440937393854e+03 -4.959433021897e-11 3.062618339216e-11 -2.929735470173e-03 0.000000000000e+00 6.347760292829e+03 2.720468627849e+03  2.929735445376e-03
7.700000000000e+01 -8.825454106797e+03 9.251065672012e-01 0.000000000000e+00 -1.498356843033e-03 -5.449339700072e+03 1.574782980989e-05 -8.174009426144e+03 -5.449339650487e+03 -5.340008365277e-11 3.391840266746e-11 -2.934259758400e-03 0.000000000000e+00 6.357562925568e+03 2.724669750865e+03  2.934259731700e-03
7.800000000000e+01 -8.842121962818e+03 9.247507580117e-01 0.000000000000e+00 -1.501492926798e-03 -5.457565902543e+03 1.795118458009e-05 -8.186348643949e+03 -5.457565818597e+03 -9.040333053375e-11 3.866408986481e-11 -2.938689196533e-03 0.000000000000e+00 6.367160121696e+03 2.728782783379e+03  2.938689151332e-03
7.900000000000e+01 -8.858458321856e+03 9.244020254470e-01 0.000000000000e+00 -1.504562027429e-03 -5.465620900491e+03 -1.336304386781e-06 -8.198431356724e+03 -5.465620902886e+03 2.579077482502e-12 -2.878194063837e-12 -2.943026642595e-03 0.000000000000e+00 6.376557720034e+03 2.732810455035e+03  2.943026643884e-03
8.000000000000e+01 -8.874470903605e+03 9.240602046510e-01 0.000000000000e+00 -1.507568007710e-03 -5.473509129551e+03 9.044202308743e-06 -8.210263595524e+03 -5.473509090030e+03 -4.256096691169e-11 1.947982035729e-11 -2.947274082840e-03 0.000000000000e+00 6.385760605035e+03 2.736754485734e+03  2.947274061559e-03
8.100000000000e+01 -8.890167438538e+03 9.237251305724e-01 0.000000000000e+00 -1.510512851161e-03 -5.481234602024e+03 -1.088501765312e-06 -8.221851915056e+03 -5.481234606832e+03 5.178221692337e-12 -2.344465340672e-12 -2.951434024242e-03 0.000000000000e+00 6.394773707971e+03 2.740617310628e+03  2.951434026831e-03
8.200000000000e+01 -8.905555528012e+03 9.233966409312e-01 0.000000000000e+00 -1.513397511784e-03 -5.488801615745e+03 7.078053906322e-07 -8.233202418195e+03 -5.488801613576e+03 -2.335594687475e-12 1.524503918285e-12 -2.955508558821e-03 0.000000000000e+00 6.403601882505e+03 2.744400803535e+03  2.955508557653e-03
8.300000000000e+01 -8.920642595840e+03 9.230745772441e-01 0.000000000000e+00 -1.516222797792e-03 -5.496214137729e+03 7.345899393460e-07 -8.244321185091e+03 -5.496214129128e+03 -9.262878369082e-12 1.582193715515e-12 -2.959499906421e-03 0.000000000000e+00 6.412249817316e+03 2.748107051662e+03  2.959499901790e-03
8.400000000000e+01 -8.935435875052e+03 9.227587851016e-01 0.000000000000e+00 -1.518991660351e-03 -5.503476356939e+03 3.703843318786e-05 -8.255214210588e+03 -5.503476227011e+03 -1.399225207726e-10 7.977508686617e-11 -2.963410136160e-03 0.000000000000e+00 6.420722264846e+03 2.751737918613e+03  2.963410066199e-03
8.500000000000e+01 -8.949942615451e+03 9.224491097156e-01 0.000000000000e+00 -1.521705278296e-03 -5.510591533296e+03 -2.479896103440e-06 -8.265887328605e+03 -5.510591544760e+03 1.234640683125e-11 -5.341314684332e-12 -2.967241613371e-03 0.000000000000e+00 6.429023468887e+03 2.755295789577e+03  2.967241619544e-03
8.600000000000e+01 -8.964169869607e+03 9.221454005310e-01 0.000000000000e+00 -1.524363998048e-03 -5.517564277908e+03 1.041893682221e-07 -8.276346417055e+03 -5.517564277985e+03 8.299815668982e-14 2.244078700171e-13 -2.970996149767e-03 0.000000000000e+00 6.437158324316e+03 2.758782139108e+03  2.970996149809e-03
8.700000000000e+01 -8.978124404233e+03 9.218475131044e-01 0.000000000000e+00 -1.526968889866e-03 -5.524398904893e+03 4.395782755731e-05 -8.286597980878e+03 -5.524398754308e+03 -1.621679277016e-10 9.467839781575e-11 -2.974676090152e-03 0.000000000000e+00 6.445131880026e+03 2.762199151277e+03  2.974676009068e-03
8.800000000000e+01 -8.991812791250e+03 9.215553071428e-01 0.000000000000e+00 -1.529522904267e-03 -5.531097464609e+03 9.212780078260e-06 -8.296646126135e+03 -5.531097436297e+03 -3.048895534200e-11 1.984291093779e-11 -2.978283204440e-03 0.000000000000e+00 6.452947009014e+03 2.765548675682e+03  2.978283189196e-03
8.900000000000e+01 -9.005241356157e+03 9.212686476195e-01 0.000000000000e+00 -1.532027286909e-03 -5.537663848862e+03 -6.373598685585e-06 -8.306495820001e+03 -5.537663867545e+03 2.012012460413e-11 -1.372775101511e-11 -2.981819025721e-03 0.000000000000e+00 6.460607845469e+03 2.768831961797e+03  2.981819035781e-03
9.000000000000e+01 -9.018416198691e+03 9.209874043260e-01 0.000000000000e+00 -1.534483297921e-03 -5.544101498205e+03 1.650914786388e-05 -8.316152112761e+03 -5.544101444386e+03 -5.795826758074e-11 3.555816462990e-11 -2.985285335173e-03 0.000000000000e+00 6.468118351784e+03 2.772050641466e+03  2.985285306194e-03
9.100000000000e+01 -9.031343166624e+03 9.207151493394e-01 0.000000000000e+00 -1.536890331577e-03 -5.550422994461e+03 7.985374539241e-06 -8.325634431028e+03 -5.550422970196e+03 -2.613215803390e-11 1.719926823837e-11 -2.988689265512e-03 0.000000000000e+00 6.475493465228e+03 2.775211448699e+03  2.988689252446e-03
9.200000000000e+01 -9.044027998213e+03 9.204487295648e-01 0.000000000000e+00 -1.539250899114e-03 -5.556623648913e+03 2.420146915537e-05 -8.334935259240e+03 -5.556623563261e+03 -9.224017043874e-11 5.212624125771e-11 -2.992027980285e-03 0.000000000000e+00 6.482727490471e+03 2.778311653153e+03  2.992027934165e-03
9.300000000000e+01 -9.056476244917e+03 9.201872787874e-01 0.000000000000e+00 -1.541566434129e-03 -5.562704139088e+03 1.151272783827e-05 -8.344056074551e+03 -5.562704085456e+03 -5.775757587209e-11 2.479664457474e-11 -2.995302142103e-03 0.000000000000e+00 6.489821433031e+03 2.781351962280e+03  2.995302113224e-03
9.400000000000e+01 -9.068693281827e+03 9.199306841140e-01 0.000000000000e+00 -1.543838027097e-03 -5.568667617753e+03 1.053718504416e-05 -8.353001341948e+03 -5.568667583881e+03 -3.647824505546e-11 2.269547547973e-11 -2.998513277919e-03 0.000000000000e+00 6.496778847861e+03 2.784333741131e+03  2.998513259680e-03