 TITLE = "Time curves in points"
 VARIABLES = "TIME "  "WATER1"  "PRESSURE1"  "TEMPERATURE1"  "VELOCITY_X1"  "VELOCITY_Y1"  "VELOCITY_Z1" 
 ZONE T="POINT=POINT3"
0.000000000000e+00 0.000000000000e+00 1.013250000000e+05 3.181500000000e+02 0.000000000000e+00 0.000000000000e+00 0.000000000000e+00 
8.640000000000e+04 4.067016987583e-25 1.056032998444e+04 3.181500000000e+02 1.066699998428e-08 0.000000000000e+00 0.000000000000e+00 
1.728000000000e+05 1.555182443336e-23 1.056033000660e+04 3.181500000000e+02 1.066700000669e-08 0.000000000000e+00 0.000000000000e+00 
2.592000000000e+05 2.488669093358e-22 1.056032997530e+04 3.181500000000e+02 1.066699997493e-08 0.000000000000e+00 0.000000000000e+00 
3.456000000000e+05 2.589542574517e-21 1.056033000166e+04 3.181500000000e+02 1.066700000173e-08 0.000000000000e+00 0.000000000000e+00 
4.320000000000e+05 2.023474076004e-20 1.056033001406e+04 3.181500000000e+02 1.066700001425e-08 0.000000000000e+00 0.000000000000e+00 
5.184000000000e+05 1.277201419161e-19 1.056033001203e+04 3.181500000000e+02 1.066700001208e-08 0.000000000000e+00 0.000000000000e+00 
6.048000000000e+05 6.807094950535e-19 1.056033001363e+04 3.181500000000e+02 1.066700001383e-08 0.000000000000e+00 0.000000000000e+00 
6.912000000000e+05 3.156346133217e-18 1.056032999575e+04 3.181500000000e+02 1.066699999566e-08 0.000000000000e+00 0.000000000000e+00 
7.776000000000e+05 1.301018106311e-17 1.056033000797e+04 3.181500000000e+02 1.066700000820e-08 0.000000000000e+00 0.000000000000e+00 
8.640000000000e+05 4.845353268827e-17 -1.189035457997e-32 3.181500000000e+02 -1.201274624914e-44 0.000000000000e+00 0.000000000000e+00 
9.504000000000e+05 1.573569228434e-16 -4.925202781609e-70 3.181500000000e+02 -4.980747436985e-82 0.000000000000e+00 0.000000000000e+00 
1.036800000000e+06 4.762025539672e-16 -3.334762340401e-107 3.181500000000e+02 -3.414145199924e-119 0.000000000000e+00 0.000000000000e+00 
1.123200000000e+06 1.351802665920e-15 -1.471140883213e-146 3.181500000000e+02 -1.274877430698e-158 0.000000000000e+00 0.000000000000e+00 
1.209600000000e+06 3.620228227261e-15 -3.937889722840e-182 3.181500000000e+02 -3.933990836413e-194 0.000000000000e+00 0.000000000000e+00 
1.296000000000e+06 9.192338620546e-15 5.011062599865e-218 3.181500000000e+02 5.042180158832e-230 0.000000000000e+00 0.000000000000e+00 
1.382400000000e+06 2.222714950224e-14 -5.857772475544e-255 3.181500000000e+02 -5.919452745496e-267 0.000000000000e+00 0.000000000000e+00 
1.468800000000e+06 5.137904704771e-14 -9.709943944661e-292 3.181500000000e+02 -9.815543778923e-304 0.000000000000e+00 0.000000000000e+00 
1.555200000000e+06 1.139254152713e-13 -1.201630640993e-312 3.181500000000e+02 0.000000000000e+00 0.000000000000e+00 0.000000000000e+00 
1.641600000000e+06 2.430603985079e-13 3.574614256846e-313 3.181500000000e+02 0.000000000000e+00 0.000000000000e+00 0.000000000000e+00 
1.728000000000e+06 5.003285989816e-13 -7.997158783318e-314 3.181500000000e+02 0.000000000000e+00 0.000000000000e+00 0.000000000000e+00 
1.814400000000e+06 9.961235651672e-13 2.785585948863e-312 3.181500000000e+02 0.000000000000e+00 0.000000000000e+00 0.000000000000e+00 
1.900800000000e+06 1.922443049258e-12 4.276615279652e-313 3.181500000000e+02 0.000000000000e+00 0.000000000000e+00 0.000000000000e+00 
1.987200000000e+06 3.603722045763e-12 -3.294544216746e-313 3.181500000000e+02 0.000000000000e+00 0.000000000000e+00 0.000000000000e+00 
2.073600000000e+06 6.573586699760e-12 1.428278673351e-312 3.181500000000e+02 0.000000000000e+00 0.000000000000e+00 0.000000000000e+00 
2.160000000000e+06 1.168779571969e-11 -2.377495093923e-312 3.181500000000e+02 0.000000000000e+00 0.000000000000e+00 0.000000000000e+00 
2.246400000000e+06 2.028643904100e-11 6.527353713766e-314 3.181500000000e+02 0.000000000000e+00 0.000000000000e+00 0.000000000000e+00 
2.332800000000e+06 3.442158768247e-11 1.922514297275e-312 3.181500000000e+02 0.000000000000e+00 0.000000000000e+00 0.000000000000e+00 
2.419200000000e+06 5.716993511022e-11 1.732802119656e-312 3.181500000000e+02 0.000000000000e+00 0.000000000000e+00 0.000000000000e+00 
2.505600000000e+06 9.305339905729e-11 1.217188164812e-312 3.181500000000e+02 0.000000000000e+00 0.000000000000e+00 0.000000000000e+00 
2.592000000000e+06 1.485939859569e-10 -3.432662562946e-312 3.181500000000e+02 0.000000000000e+00 0.000000000000e+00 0.000000000000e+00 
2.678400000000e+06 2.330322497546e-10 1.443738665969e-312 3.181500000000e+02 0.000000000000e+00 0.000000000000e+00 0.000000000000e+00 
2.764800000000e+06 3.592411751975e-10 -3.524609560151e-312 3.181500000000e+02 0.000000000000e+00 0.000000000000e+00 0.000000000000e+00 
2.851200000000e+06 5.448690496235e-10 3.735037495310e-312 3.181500000000e+02 0.000000000000e+00 0.000000000000e+00 0.000000000000e+00 
2.937600000000e+06 8.137456341591e-10 2.375188990243e-312 3.181500000000e+02 0.000000000000e+00 0.000000000000e+00 0.000000000000e+00 
3.024000000000e+06 1.197585509457e-09 -1.051547838669e-312 3.181500000000e+02 0.000000000000e+00 0.000000000000e+00 0.000000000000e+00 
3.110400000000e+06 1.738020699692e-09 -1.168841746000e-313 3.181500000000e+02 0.000000000000e+00 0.000000000000e+00 0.000000000000e+00 
3.196800000000e+06 2.488991474523e-09 -1.931397076027e-312 3.181500000000e+02 0.000000000000e+00 0.000000000000e+00 0.000000000000e+00 
3.283200000000e+06 3.519519560943e-09 1.287390337455e-312 3.181500000000e+02 0.000000000000e+00 0.000000000000e+00 0.000000000000e+00 
3.369600000000e+06 4.916881905689e-09 1.344058629214e-312 3.181500000000e+02 0.000000000000e+00 0.000000000000e+00 0.000000000000e+00 
3.456000000000e+06 6.790195726520e-09 1.014058584710e-312 3.181500000000e+02 0.000000000000e+00 0.000000000000e+00 0.000000000000e+00 
3.542400000000e+06 9.274417057868e-09 -9.547537665779e-313 3.181500000000e+02 0.000000000000e+00 0.000000000000e+00 0.000000000000e+00 
3.628800000000e+06 1.253474557340e-08 -1.764628495404e-313 3.181500000000e+02 0.000000000000e+00 0.000000000000e+00 0.000000000000e+00 
3.715200000000e+06 1.677141844325e-08 -3.116599845666e-312 3.181500000000e+02 0.000000000000e+00 0.000000000000e+00 0.000000000000e+00 
3.801600000000e+06 2.222486567846e-08 6.921485971023e-313 3.181500000000e+02 0.000000000000e+00 0.000000000000e+00 0.000000000000e+00 
3.888000000000e+06 2.918118916797e-08 2.313675531354e-312 3.181500000000e+02 0.000000000000e+00 0.000000000000e+00 0.000000000000e+00 
3.974400000000e+06 3.797791776363e-08 -3.962639227006e-313 3.181500000000e+02 0.000000000000e+00 0.000000000000e+00 0.000000000000e+00 
4.060800000000e+06 4.900998163953e-08 3.945225171716e-313 3.181500000000e+02 0.000000000000e+00 0.000000000000e+00 0.000000000000e+00 
4.147200000000e+06 6.273584103904e-08 1.480447228564e-312 3.181500000000e+02 0.000000000000e+00 0.000000000000e+00 0.000000000000e+00 
4.233600000000e+06 7.968369767806e-08 2.888498299178e-312 3.181500000000e+02 0.000000000000e+00 0.000000000000e+00 0.000000000000e+00 
4.320000000000e+06 1.004577117012e-07 -3.316620543304e-313 3.181500000000e+02 0.000000000000e+00 0.000000000000e+00 0.000000000000e+00 
4.406400000000e+06 1.257441433348e-07 4.740993908576e-312 3.181500000000e+02 0.000000000000e+00 0.000000000000e+00 0.000000000000e+00 
4.492800000000e+06 1.563173363351e-07 -1.357753398124e-312 3.181500000000e+02 0.000000000000e+00 0.000000000000e+00 0.000000000000e+00 
4.579200000000e+06 1.930454600237e-07 1.135120358246e-312 3.181500000000e+02 0.000000000000e+00 0.000000000000e+00 0.000000000000e+00 
4.665600000000e+06 2.368959281052e-07 -2.247731289396e-312 3.181500000000e+02 0.000000000000e+00 0.000000000000e+00 0.000000000000e+00 
4.752000000000e+06 2.889404155004e-07 -9.014857541134e-313 3.181500000000e+02 0.000000000000e+00 0.000000000000e+00 0.000000000000e+00 
4.838400000000e+06 3.503593989782e-07 -1.257590523988e-312 3.181500000000e+02 0.000000000000e+00 0.000000000000e+00 0.000000000000e+00 
4.924800000000e+06 4.224461532740e-07 6.140354803378e-313 3.181500000000e+02 0.000000000000e+00 0.000000000000e+00 0.000000000000e+00 
5.011200000000e+06 5.066101414539e-07 7.186652793788e-313 3.181500000000e+02 0.000000000000e+00 0.000000000000e+00 0.000000000000e+00 
5.097600000000e+06 6.043797463120e-07 2.418470937257e-312 3.181500000000e+02 0.000000000000e+00 0.000000000000e+00 0.000000000000e+00 
5.184000000000e+06 7.174042983667e-07 2.154936179677e-314 3.181500000000e+02 0.000000000000e+00 0.000000000000e+00 0.000000000000e+00 
5.270400000000e+06 8.474553653115e-07 -1.074064619102e-312 3.181500000000e+02 0.000000000000e+00 0.000000000000e+00 0.000000000000e+00 
5.356800000000e+06 9.964272773740e-07 -1.226542411561e-312 3.181500000000e+02 0.000000000000e+00 0.000000000000e+00 0.000000000000e+00 
5.443200000000e+06 1.166336872727e-06 2.046618083624e-312 3.181500000000e+02 0.000000000000e+00 0.000000000000e+00 0.000000000000e+00 
5.529600000000e+06 1.359322456686e-06 2.602871306601e-312 3.181500000000e+02 0.000000000000e+00 0.000000000000e+00 0.000000000000e+00 
5.616000000000e+06 1.577641977731e-06 -2.842647457454e-312 3.181500000000e+02 0.000000000000e+00 0.000000000000e+00 0.000000000000e+00 
5.702400000000e+06 1.823670432298e-06 1.351523830877e-312 3.181500000000e+02 0.000000000000e+00 0.000000000000e+00 0.000000000000e+00 
5.788800000000e+06 2.099896518568e-06 -6.219522752193e-313 3.181500000000e+02 0.000000000000e+00 0.000000000000e+00 0.000000000000e+00 
5.875200000000e+06 2.408918567166e-06 -2.528372100453e-312 3.181500000000e+02 0.000000000000e+00 0.000000000000e+00 0.000000000000e+00 
5.961600000000e+06 2.753439783559e-06 3.380689871876e-312 3.181500000000e+02 0.000000000000e+00 0.000000000000e+00 0.000000000000e+00 
6.048000000000e+06 3.136262843030e-06 4.640170534485e-312 3.181500000000e+02 0.000000000000e+00 0.000000000000e+00 0.000000000000e+00 
6.134400000000e+06 3.560283884338e-06 -2.940874195206e-312 3.181500000000e+02 0.000000000000e+00 0.000000000000e+00 0.000000000000e+00 
6.220800000000e+06 4.028485952520e-06 -3.991930759947e-313 3.181500000000e+02 0.000000000000e+00 0.000000000000e+00 0.000000000000e+00 
6.307200000000e+06 4.543931944807e-06 -4.431283459074e-313 3.181500000000e+02 0.000000000000e+00 0.000000000000e+00 0.000000000000e+00 
6.393600000000e+06 5.109757116219e-06 -6.778915992204e-312 3.181500000000e+02 0.000000000000e+00 0.000000000000e+00 0.000000000000e+00 
6.480000000000e+06 5.729161203252e-06 -1.907539262326e-312 3.181500000000e+02 0.000000000000e+00 0.000000000000e+00 0.000000000000e+00 
6.566400000000e+06 6.405400225083e-06 -4.432288029017e-313 3.181500000000e+02 0.000000000000e+00 0.000000000000e+00 0.000000000000e+00 
6.652800000000e+06 7.141778022001e-06 -2.372047103962e-312 3.181500000000e+02 0.000000000000e+00 0.000000000000e+00 0.000000000000e+00 
6.739200000000e+06 7.941637590419e-06 2.575434256834e-312 3.181500000000e+02 0.000000000000e+00 0.000000000000e+00 0.000000000000e+00 
6.825600000000e+06 8.808352272808e-06 -5.018221134613e-313 3.181500000000e+02 0.000000000000e+00 0.000000000000e+00 0.000000000000e+00 
6.912000000000e+06 9.745316859384e-06 -9.436370268320e-313 3.181500000000e+02 0.000000000000e+00 0.000000000000e+00 0.000000000000e+00 
6.998400000000e+06 1.075593865634e-05 -2.697594642072e-312 3.181500000000e+02 0.000000000000e+00 0.000000000000e+00 0.000000000000e+00 
7.084800000000e+06 1.184362857300e-05 -2.937670559884e-312 3.181500000000e+02 0.000000000000e+00 0.000000000000e+00 0.000000000000e+00 
7.171200000000e+06 1.301179227757e-05 7.735766344670e-313 3.181500000000e+02 0.000000000000e+00 0.000000000000e+00 0.000000000000e+00 
7.257600000000e+06 1.426382146794e-05 8.548047179609e-313 3.181500000000e+02 0.000000000000e+00 0.000000000000e+00 0.000000000000e+00 
7.344000000000e+06 1.560308530098e-05 -2.458783746209e-312 3.181500000000e+02 0.000000000000e+00 0.000000000000e+00 0.000000000000e+00 
7.430400000000e+06 1.703292202012e-05 -1.936144416480e-312 3.181500000000e+02 0.000000000000e+00 0.000000000000e+00 0.000000000000e+00 
7.516800000000e+06 1.855663081765e-05 -3.831899051897e-313 3.181500000000e+02 0.000000000000e+00 0.000000000000e+00 0.000000000000e+00 
7.603200000000e+06 2.017746396440e-05 2.290785462581e-313 3.181500000000e+02 0.000000000000e+00 0.000000000000e+00 0.000000000000e+00 
7.689600000000e+06 2.189861923608e-05 -8.319078025201e-313 3.181500000000e+02 0.000000000000e+00 0.000000000000e+00 0.000000000000e+00 
7.776000000000e+06 2.372323266176e-05 3.434472245744e-313 3.181500000000e+02 0.000000000000e+00 0.000000000000e+00 0.000000000000e+00 
7.862400000000e+06 2.565437161670e-05 7.557470453442e-313 3.181500000000e+02 0.000000000000e+00 0.000000000000e+00 0.000000000000e+00 
7.948800000000e+06 2.769502827799e-05 3.179566225332e-312 3.181500000000e+02 0.000000000000e+00 0.000000000000e+00 0.000000000000e+00 
8.035200000000e+06 2.984811345850e-05 4.415543316571e-312 3.181500000000e+02 0.000000000000e+00 0.000000000000e+00 0.000000000000e+00 
8.121600000000e+06 3.211645083116e-05 3.722275986948e-313 3.181500000000e+02 0.000000000000e+00 0.000000000000e+00 0.000000000000e+00 
8.208000000000e+06 3.450277155288e-05 2.500791164175e-312 3.181500000000e+02 0.000000000000e+00 0.000000000000e+00 0.000000000000e+00 
8.294400000000e+06 3.700970929416e-05 -1.699208205809e-312 3.181500000000e+02 0.000000000000e+00 0.000000000000e+00 0.000000000000e+00 
8.380800000000e+06 3.963979567820e-05 2.169063334213e-312 3.181500000000e+02 0.000000000000e+00 0.000000000000e+00 0.000000000000e+00 
8.467200000000e+06 4.239545613059e-05 3.000701407518e-312 3.181500000000e+02 0.000000000000e+00 0.000000000000e+00 0.000000000000e+00 
8.553600000000e+06 4.527900613828e-05 -1.130396828748e-312 3.181500000001e+02 0.000000000000e+00 0.000000000000e+00 0.000000000000e+00 
8.640000000000e+06 4.829264791468e-05 2.697097666394e-312 3.181500000001e+02 0.000000000000e+00 0.000000000000e+00 0.000000000000e+00 
8.726400000000e+06 5.143846746566e-05 -1.577093364990e-313 3.181500000001e+02 0.000000000000e+00 0.000000000000e+00 0.000000000000e+00 
8.812800000000e+06 5.471843204940e-05 -2.054781979935e-312 3.181500000001e+02 0.000000000000e+00 0.000000000000e+00 0.000000000000e+00 
8.899200000000e+06 5.813438802173e-05 2.398872874675e-312 3.181500000001e+02 0.000000000000e+00 0.000000000000e+00 0.000000000000e+00 
8.985600000000e+06 6.168805905708e-05 -6.687727541871e-313 3.181500000001e+02 0.000000000000e+00 0.000000000000e+00 0.000000000000e+00 
9.072000000000e+06 6.538104473382e-05 4.195615674163e-312 3.181500000001e+02 0.000000000000e+00 0.000000000000e+00 0.000000000000e+00 
9.158400000000e+06 6.921481947221e-05 -1.061067285767e-313 3.181500000001e+02 0.000000000000e+00 0.000000000000e+00 0.000000000000e+00 
9.244800000000e+06 7.319073181166e-05 1.139221716529e-312 3.181500000001e+02 0.000000000000e+00 0.000000000000e+00 0.000000000000e+00 
9.331200000000e+06 7.731000401387e-05 1.791264992982e-312 3.181500000001e+02 0.000000000000e+00 0.000000000000e+00 0.000000000000e+00 
9.417600000000e+06 8.157373197738e-05 -1.202126044682e-312 3.181500000001e+02 0.000000000000e+00 0.000000000000e+00 0.000000000000e+00 
9.504000000000e+06 8.598288544893e-05 -2.423945488843e-312 3.181500000001e+02 0.000000000000e+00 0.000000000000e+00 0.000000000000e+00 
9.590400000000e+06 9.053830851644e-05 2.314829452331e-312 3.181500000001e+02 0.000000000000e+00 0.000000000000e+00 0.000000000000e+00 
9.676800000000e+06 9.524072036836e-05 -1.285775057676e-313 3.181500000001e+02 0.000000000000e+00 0.000000000000e+00 0.000000000000e+00 
9.763200000000e+06 1.000907163039e-04 -3.114984779768e-312 3.181500000001e+02 0.000000000000e+00 0.000000000000e+00 0.000000000000e+00 
9.849600000000e+06 1.050887689789e-04 -2.646852043611e-312 3.181500000001e+02 0.000000000000e+00 0.000000000000e+00 0.000000000000e+00 
9.936000000000e+06 1.102352298711e-04 -9.579075616348e-313 3.181500000001e+02 0.000000000000e+00 0.000000000000e+00 0.000000000000e+00 
1.002240000000e+07 1.155303309514e-04 3.236191190977e-312 3.181500000001e+02 0.000000000000e+00 0.000000000000e+00 0.000000000000e+00 
1.010880000000e+07 1.209741865431e-04 4.020234378342e-315 3.181500000001e+02 0.000000000000e+00 0.000000000000e+00 0.000000000000e+00 
1.019520000000e+07 1.265667953575e-04 4.234179497181e-312 3.181500000001e+02 0.000000000000e+00 0.000000000000e+00 0.000000000000e+00 
1.028160000000e+07 1.323080426887e-04 8.133012125664e-313 3.181500000001e+02 0.000000000000e+00 0.000000000000e+00 0.000000000000e+00 
1.036800000000e+07 1.381977027548e-04 -3.098209288895e-313 3.181500000001e+02 0.000000000000e+00 0.000000000000e+00 0.000000000000e+00 
1.045440000000e+07 1.442354411718e-04 -6.812422559231e-313 3.181500000001e+02 0.000000000000e+00 0.000000000000e+00 0.000000000000e+00 
1.054080000000e+07 1.504208175457e-04 7.099042170437e-313 3.181500000001e+02 0.000000000000e+00 0.000000000000e+00 0.000000000000e+00 
1.062720000000e+07 1.567532881713e-04 2.115549488171e-312 3.181500000001e+02 0.000000000000e+00 0.000000000000e+00 0.000000000000e+00 
1.071360000000e+07 1.632322088241e-04 1.343707403139e-312 3.181500000001e+02 0.000000000000e+00 0.000000000000e+00 0.000000000000e+00 
1.080000000000e+07 1.698568376338e-04 -1.187552232158e-312 3.181500000001e+02 0.000000000000e+00 0.000000000000e+00 0.000000000000e+00 
1.088640000000e+07 1.766263380287e-04 -1.814708540237e-313 3.181500000001e+02 0.000000000000e+00 0.000000000000e+00 0.000000000000e+00 
1.097280000000e+07 1.835397817386e-04 5.162025783412e-312 3.181500000001e+02 0.000000000000e+00 0.000000000000e+00 0.000000000000e+00 
1.105920000000e+07 1.905961518469e-04 -1.376174170132e-312 3.181500000001e+02 0.000000000000e+00 0.000000000000e+00 0.000000000000e+00 
1.114560000000e+07 1.977943458816e-04 -4.432775267762e-314 3.181500000001e+02 0.000000000000e+00 0.000000000000e+00 0.000000000000e+00 
1.123200000000e+07 2.051331789362e-04 -1.207608081353e-312 3.181500000001e+02 0.000000000000e+00 0.000000000000e+00 0.000000000000e+00 
1.131840000000e+07 2.126113868112e-04 3.073283822846e-312 3.181500000001e+02 0.000000000000e+00 0.000000000000e+00 0.000000000000e+00 
1.140480000000e+07 2.202276291682e-04 -7.368097564955e-312 3.181500000001e+02 0.000000000000e+00 0.000000000000e+00 0.000000000000e+00 
1.149120000000e+07 2.279804926883e-04 5.168558121888e-313 3.181500000001e+02 0.000000000000e+00 0.000000000000e+00 0.000000000000e+00 
1.157760000000e+07 2.358684942286e-04 5.414509227000e-312 3.181500000001e+02 0.000000000000e+00 0.000000000000e+00 0.000000000000e+00 
1.166400000000e+07 2.438900839684e-04 5.391592101399e-312 3.181500000001e+02 0.000000000000e+00 0.000000000000e+00 0.000000000000e+00 
1.175040000000e+07 2.520436485402e-04 1.119074560005e-312 3.181500000001e+02 0.000000000000e+00 0.000000000000e+00 0.000000000000e+00 
1.183680000000e+07 2.603275141385e-04 2.280699928716e-313 3.181500000001e+02 0.000000000000e+00 0.000000000000e+00 0.000000000000e+00 
1.192320000000e+07 2.687399496018e-04 -1.096933893991e-312 3.181500000001e+02 0.000000000000e+00 0.000000000000e+00 0.000000000000e+00 
1.200960000000e+07 2.772791694619e-04 -1.593728487327e-312 3.181500000001e+02 0.000000000000e+00 0.000000000000e+00 0.000000000000e+00 
1.209600000000e+07 2.859433369568e-04 8.507792431320e-313 3.181500000001e+02 0.000000000000e+00 0.000000000000e+00 0.000000000000e+00 
1.218240000000e+07 2.947305670022e-04 6.604445589696e-314 3.181500000001e+02 0.000000000000e+00 0.000000000000e+00 0.000000000000e+00 
1.226880000000e+07 3.036389291184e-04 -7.246106312726e-313 3.181500000001e+02 0.000000000000e+00 0.000000000000e+00 0.000000000000e+00 
1.235520000000e+07 3.126664503087e-04 1.923916045291e-312 3.181500000001e+02 0.000000000000e+00 0.000000000000e+00 0.000000000000e+00 
1.244160000000e+07 3.218111178862e-04 3.401363303173e-312 3.181500000001e+02 0.000000000000e+00 0.000000000000e+00 0.000000000000e+00 
1.252800000000e+07 3.310708822468e-04 1.084916550290e-312 3.181500000001e+02 0.000000000000e+00 0.000000000000e+00 0.000000000000e+00 
1.261440000000e+07 3.404436595846e-04 -7.387071781211e-313 3.181500000001e+02 0.000000000000e+00 0.000000000000e+00 0.000000000000e+00 
1.270080000000e+07 3.499273345499e-04 -3.154971391635e-312 3.181500000001e+02 0.000000000000e+00 0.000000000000e+00 0.000000000000e+00 
1.278720000000e+07 3.595197628445e-04 1.031191497078e-312 3.181500000001e+02 0.000000000000e+00 0.000000000000e+00 0.000000000000e+00 
1.287360000000e+07 3.692187737564e-04 -9.003137472700e-313 3.181500000001e+02 0.000000000000e+00 0.000000000000e+00 0.000000000000e+00 
1.296000000000e+07 3.790221726299e-04 5.587011678072e-312 3.181500000001e+02 0.000000000000e+00 0.000000000000e+00 0.000000000000e+00 
1.304640000000e+07 3.889277432706e-04 -3.972819460014e-313 3.181500000001e+02 0.000000000000e+00 0.000000000000e+00 0.000000000000e+00 
1.313280000000e+07 3.989332502856e-04 1.285425640657e-312 3.181500000001e+02 0.000000000000e+00 0.000000000000e+00 0.000000000000e+00 
1.321920000000e+07 4.090364413560e-04 -3.533697639176e-312 3.181500000001e+02 0.000000000000e+00 0.000000000000e+00 0.000000000000e+00 
1.330560000000e+07 4.192350494437e-04 2.428353830220e-312 3.181500000001e+02 0.000000000000e+00 0.000000000000e+00 0.000000000000e+00 
1.339200000000e+07 4.295267949300e-04 -1.742168169337e-312 3.181500000002e+02 0.000000000000e+00 0.000000000000e+00 0.000000000000e+00 
1.347840000000e+07 4.399093876876e-04 1.161704285559e-312 3.181500000002e+02 0.000000000000e+00 0.000000000000e+00 0.000000000000e+00 
1.356480000000e+07 4.503805290843e-04 -5.634882701515e-312 3.181500000002e+02 0.000000000000e+00 0.000000000000e+00 0.000000000000e+00 
1.365120000000e+07 4.609379139204e-04 4.433381619213e-313 3.181500000002e+02 0.000000000000e+00 0.000000000000e+00 0.000000000000e+00 
1.373760000000e+07 4.715792322988e-04 -2.320195825177e-313 3.181500000002e+02 0.000000000000e+00 0.000000000000e+00 0.000000000000e+00 
1.382400000000e+07 4.823021714281e-04 -3.562188502612e-312 3.181500000002e+02 0.000000000000e+00 0.000000000000e+00 0.000000000000e+00 
1.391040000000e+07 4.931044173610e-04 -1.430812969648e-312 3.181500000002e+02 0.000000000000e+00 0.000000000000e+00 0.000000000000e+00 
1.399680000000e+07 5.039836566660e-04 -2.253198115228e-313 3.181500000002e+02 0.000000000000e+00 0.000000000000e+00 0.000000000000e+00 
1.408320000000e+07 5.149375780353e-04 -5.832621472191e-313 3.181500000002e+02 0.000000000000e+00 0.000000000000e+00 0.000000000000e+00 
1.416960000000e+07 5.259638738290e-04 -1.911684192135e-314 3.181500000002e+02 0.000000000000e+00 0.000000000000e+00 0.000000000000e+00 
1.425600000000e+07 5.370602415556e-04 4.767501899586e-312 3.181500000002e+02 0.000000000000e+00 0.000000000000e+00 0.000000000000e+00 
1.434240000000e+07 5.482243852916e-04 1.236157711244e-312 3.181500000002e+02 0.000000000000e+00 0.000000000000e+00 0.000000000000e+00 
1.442880000000e+07 5.594540170394e-04 1.557948357676e-313 3.181500000002e+02 0.000000000000e+00 0.000000000000e+00 0.000000000000e+00 
1.451520000000e+07 5.707468580259e-04 3.224409693963e-312 3.181500000002e+02 0.000000000000e+00 0.000000000000e+00 0.000000000000e+00 
1.460160000000e+07 5.821006399421e-04 1.589013314786e-312 3.181500000002e+02 0.000000000000e+00 0.000000000000e+00 0.000000000000e+00 
1.468800000000e+07 5.935131061253e-04 8.461846562743e-313 3.181500000002e+02 0.000000000000e+00 0.000000000000e+00 0.000000000000e+00 
1.477440000000e+07 6.049820126852e-04 -6.602063092357e-313 3.181500000002e+02 0.000000000000e+00 0.000000000000e+00 0.000000000000e+00 
1.486080000000e+07 6.165051295740e-04 -1.138711519368e-312 3.181500000002e+02 0.000000000000e+00 0.000000000000e+00 0.000000000000e+00 
1.494720000000e+07 6.280802416042e-04 -9.073664285800e-314 3.181500000002e+02 0.000000000000e+00 0.000000000000e+00 0.000000000000e+00 
1.503360000000e+07 6.397051494125e-04 4.460308103830e-313 3.181500000002e+02 0.000000000000e+00 0.000000000000e+00 0.000000000000e+00 
1.512000000000e+07 6.513776703729e-04 -4.661612268147e-312 3.181500000002e+02 0.000000000000e+00 0.000000000000e+00 0.000000000000e+00 
1.520640000000e+07 6.630956394605e-04 4.523523010042e-313 3.181500000002e+02 0.000000000000e+00 0.000000000000e+00 0.000000000000e+00 
1.529280000000e+07 6.748569100655e-04 3.510883369708e-312 3.181500000002e+02 0.000000000000e+00 0.000000000000e+00 0.000000000000e+00 
1.537920000000e+07 6.866593547609e-04 2.496801190962e-312 3.181500000002e+02 0.000000000000e+00 0.000000000000e+00 0.000000000000e+00 
1.546560000000e+07 6.985008660238e-04 1.517931998190e-312 3.181500000002e+02 0.000000000000e+00 0.000000000000e+00 0.000000000000e+00 
1.555200000000e+07 7.103793569123e-04 -2.100848971891e-312 3.181500000002e+02 0.000000000000e+00 0.000000000000e+00 0.000000000000e+00 
1.563840000000e+07 7.222927616986e-04 1.571064654484e-312 3.181500000002e+02 0.000000000000e+00 0.000000000000e+00 0.000000000000e+00 
1.572480000000e+07 7.342390364610e-04 2.192482428564e-312 3.181500000002e+02 0.000000000000e+00 0.000000000000e+00 0.000000000000e+00 
1.581120000000e+07 7.462161596340e-04 1.166640074567e-312 3.181500000002e+02 0.000000000000e+00 0.000000000000e+00 0.000000000000e+00 
1.589760000000e+07 7.582221325202e-04 -4.282205129970e-313 3.181500000002e+02 0.000000000000e+00 0.000000000000e+00 0.000000000000e+00 
1.598400000000e+07 7.702549797633e-04 -1.946334900851e-312 3.181500000002e+02 0.000000000000e+00 0.000000000000e+00 0.000000000000e+00 
1.607040000000e+07 7.823127497846e-04 5.765379802557e-313 3.181500000002e+02 0.000000000000e+00 0.000000000000e+00 0.000000000000e+00 
1.615680000000e+07 7.943935151837e-04 -3.399078472893e-312 3.181500000002e+02 0.000000000000e+00 0.000000000000e+00 0.000000000000e+00 
1.624320000000e+07 8.064953731049e-04 -1.719281537042e-312 3.181500000002e+02 0.000000000000e+00 0.000000000000e+00 0.000000000000e+00 
1.632960000000e+07 8.186164455708e-04 -1.370606957892e-312 3.181500000002e+02 0.000000000000e+00 0.000000000000e+00 0.000000000000e+00 
1.641600000000e+07 8.307548797833e-04 -4.658416899630e-313 3.181500000002e+02 0.000000000000e+00 0.000000000000e+00 0.000000000000e+00 
1.650240000000e+07 8.429088483940e-04 -8.647856421057e-313 3.181500000002e+02 0.000000000000e+00 0.000000000000e+00 0.000000000000e+00 
1.658880000000e+07 8.550765497459e-04 3.938735974207e-312 3.181500000002e+02 0.000000000000e+00 0.000000000000e+00 0.000000000000e+00 
1.667520000000e+07 8.672562080850e-04 3.122701699572e-312 3.181500000002e+02 0.000000000000e+00 0.000000000000e+00 0.000000000000e+00 
1.676160000000e+07 8.794460737457e-04 -4.493469137990e-312 3.181500000002e+02 0.000000000000e+00 0.000000000000e+00 0.000000000000e+00 
1.684800000000e+07 8.916444233096e-04 3.598206224558e-312 3.181500000002e+02 0.000000000000e+00 0.000000000000e+00 0.000000000000e+00 
1.693440000000e+07 9.038495597387e-04 -2.598633095672e-312 3.181500000002e+02 0.000000000000e+00 0.000000000000e+00 0.000000000000e+00 
1.702080000000e+07 9.160598124851e-04 -5.570520081010e-313 3.181500000002e+02 0.000000000000e+00 0.000000000000e+00 0.000000000000e+00 
1.710720000000e+07 9.282735375766e-04 1.501196835288e-312 3.181500000002e+02 0.000000000000e+00 0.000000000000e+00 0.000000000000e+00 
1.719360000000e+07 9.404891176809e-04 -5.187681591903e-312 3.181500000002e+02 0.000000000000e+00 0.000000000000e+00 0.000000000000e+00 
1.728000000000e+07 9.527049621480e-04 3.930370058688e-313 3.181500000003e+02 0.000000000000e+00 0.000000000000e+00 0.000000000000e+00 
1.736640000000e+07 9.649195070325e-04 -1.796117359277e-312 3.181500000003e+02 0.000000000000e+00 0.000000000000e+00 0.000000000000e+00 
1.745280000000e+07 9.771312150965e-04 -1.475811923894e-312 3.181500000003e+02 0.000000000000e+00 0.000000000000e+00 0.000000000000e+00 
1.753920000000e+07 9.893385757940e-04 -2.476270546257e-312 3.181500000003e+02 0.000000000000e+00 0.000000000000e+00 0.000000000000e+00 
1.762560000000e+07 1.001540105237e-03 -1.169544513660e-312 3.181500000003e+02 0.000000000000e+00 0.000000000000e+00 0.000000000000e+00 
1.771200000000e+07 1.013734346148e-03 8.232707566600e-314 3.181500000003e+02 0.000000000000e+00 0.000000000000e+00 0.000000000000e+00 
1.779840000000e+07 1.025919867787e-03 -1.825175830123e-312 3.181500000003e+02 0.000000000000e+00 0.000000000000e+00 0.000000000000e+00 
1.788480000000e+07 1.038095265881e-03 9.363021951750e-313 3.181500000003e+02 0.000000000000e+00 0.000000000000e+00 0.000000000000e+00 
1.797120000000e+07 1.050259162516e-03 -6.967244839655e-313 3.181500000003e+02 0.000000000000e+00 0.000000000000e+00 0.000000000000e+00 
1.805760000000e+07 1.062410206038e-03 -1.609778795996e-312 3.181500000003e+02 0.000000000000e+00 0.000000000000e+00 0.000000000000e+00 
1.814400000000e+07 1.074547070923e-03 4.533977563445e-312 3.181500000003e+02 0.000000000000e+00 0.000000000000e+00 0.000000000000e+00 
1.823040000000e+07 1.086668457646e-03 3.992120885602e-312 3.181500000003e+02 0.000000000000e+00 0.000000000000e+00 0.000000000000e+00 
1.831680000000e+07 1.098773092534e-03 1.638829420068e-312 3.181500000003e+02 0.000000000000e+00 0.000000000000e+00 0.000000000000e+00 
1.840320000000e+07 1.110859727605e-03 1.994613142666e-312 3.181500000003e+02 0.000000000000e+00 0.000000000000e+00 0.000000000000e+00 
1.848960000000e+07 1.122927140408e-03 1.764838203790e-312 3.181500000003e+02 0.000000000000e+00 0.000000000000e+00 0.000000000000e+00 
1.857600000000e+07 1.134974133835e-03 2.565479284520e-312 3.181500000003e+02 0.000000000000e+00 0.000000000000e+00 0.000000000000e+00 
1.866240000000e+07 1.146999535944e-03 1.099379472758e-312 3.181500000003e+02 0.000000000000e+00 0.000000000000e+00 0.000000000000e+00 
1.874880000000e+07 1.159002199757e-03 1.368791426024e-312 3.181500000003e+02 0.000000000000e+00 0.000000000000e+00 0.000000000000e+00 
1.883520000000e+07 1.170981003059e-03 9.068324569901e-313 3.181500000003e+02 0.000000000000e+00 0.000000000000e+00 0.000000000000e+00 
1.892160000000e+07 1.182934848188e-03 1.102359704767e-314 3.181500000003e+02 0.000000000000e+00 0.000000000000e+00 0.000000000000e+00 