 TITLE = "Time curves in points"
 VARIABLES = "TIME "  "WATER1"  "PRESSURE1"  "TEMPERATURE1"  "VELOCITY_X1"  "VELOCITY_Y1"  "VELOCITY_Z1" 
 ZONE T="POINT=POINT2"
0.000000000000e+00 0.000000000000e+00 1.013250000000e+05 3.181500000000e+02 0.000000000000e+00 0.000000000000e+00 0.000000000000e+00 
8.640000000000e+04 7.347443879177e-13 1.061353834215e+04 3.181500000000e+02 1.066699998452e-08 0.000000000000e+00 0.000000000000e+00 
1.728000000000e+05 1.260586006185e-11 1.061353836443e+04 3.181500000000e+02 1.066700000699e-08 0.000000000000e+00 0.000000000000e+00 
2.592000000000e+05 1.019313608551e-10 1.061353833297e+04 3.181500000000e+02 1.066699997539e-08 0.000000000000e+00 0.000000000000e+00 
3.456000000000e+05 5.566562814054e-10 1.061353835946e+04 3.181500000000e+02 1.066700000225e-08 0.000000000000e+00 0.000000000000e+00 
4.320000000000e+05 2.340466512264e-09 1.061353837192e+04 3.181500000000e+02 1.066700001464e-08 0.000000000000e+00 0.000000000000e+00 
5.184000000000e+05 8.115013587650e-09 1.061353836989e+04 3.181500000000e+02 1.066700001256e-08 0.000000000000e+00 0.000000000000e+00 
6.048000000000e+05 2.420897846610e-08 1.061353837149e+04 3.181500000000e+02 1.066700001407e-08 0.000000000000e+00 0.000000000000e+00 
6.912000000000e+05 6.395573427425e-08 1.061353835352e+04 3.181500000000e+02 1.066699999630e-08 0.000000000000e+00 0.000000000000e+00 
7.776000000000e+05 1.527713776531e-07 1.061353836580e+04 3.181500000000e+02 1.066700000844e-08 0.000000000000e+00 0.000000000000e+00 
8.640000000000e+05 3.351890190763e-07 -1.194981402297e-32 3.181500000000e+02 -1.188886856786e-44 0.000000000000e+00 0.000000000000e+00 
9.504000000000e+05 6.672478752376e-07 -4.950564099635e-70 3.181500000000e+02 -4.939014579554e-82 0.000000000000e+00 0.000000000000e+00 
1.036800000000e+06 1.252165676453e-06 -3.351530786067e-107 3.181500000000e+02 -3.237189799607e-119 0.000000000000e+00 0.000000000000e+00 
1.123200000000e+06 2.230838559702e-06 -1.478591109269e-146 3.181500000000e+02 -1.902877739012e-158 0.000000000000e+00 0.000000000000e+00 
1.209600000000e+06 3.795454193463e-06 -3.957320232654e-182 3.181500000000e+02 -3.835207911628e-194 0.000000000000e+00 0.000000000000e+00 
1.296000000000e+06 6.197361696094e-06 5.036014162797e-218 3.181500000000e+02 5.021443622167e-230 0.000000000000e+00 0.000000000000e+00 
1.382400000000e+06 9.752861986741e-06 -5.887222939466e-255 3.181500000000e+02 -5.866878687269e-267 0.000000000000e+00 0.000000000000e+00 
1.468800000000e+06 1.484603737186e-05 -9.758973225105e-292 3.181500000000e+02 -9.792196973551e-304 0.000000000000e+00 0.000000000000e+00 
1.555200000000e+06 2.192794126765e-05 -1.213578213544e-312 3.181500000000e+02 0.000000000000e+00 0.000000000000e+00 0.000000000000e+00 
1.641600000000e+06 3.151177668099e-05 3.609049722539e-313 3.181500000000e+02 0.000000000000e+00 0.000000000000e+00 0.000000000000e+00 
1.728000000000e+06 4.416406412864e-05 -7.968479792323e-314 3.181500000000e+02 0.000000000000e+00 0.000000000000e+00 0.000000000000e+00 
1.814400000000e+06 6.049218077961e-05 2.793799128770e-312 3.181500000000e+02 0.000000000000e+00 0.000000000000e+00 0.000000000000e+00 
1.900800000000e+06 8.112898652190e-05 4.170765904806e-313 3.181500000000e+02 0.000000000000e+00 0.000000000000e+00 0.000000000000e+00 
1.987200000000e+06 1.067154947276e-04 -3.306128133287e-313 3.181500000000e+02 0.000000000000e+00 0.000000000000e+00 0.000000000000e+00 
2.073600000000e+06 1.378826707252e-04 1.428831701339e-312 3.181500000000e+02 0.000000000000e+00 0.000000000000e+00 0.000000000000e+00 
2.160000000000e+06 1.752334461049e-04 -2.395053349436e-312 3.181500000000e+02 0.000000000000e+00 0.000000000000e+00 0.000000000000e+00 
2.246400000000e+06 2.193259372286e-04 5.882496475927e-314 3.181500000000e+02 0.000000000000e+00 0.000000000000e+00 0.000000000000e+00 
2.332800000000e+06 2.706586790935e-04 1.924718849189e-312 3.181500000000e+02 0.000000000000e+00 0.000000000000e+00 0.000000000000e+00 
2.419200000000e+06 3.296584634182e-04 1.745105039916e-312 3.181500000001e+02 0.000000000000e+00 0.000000000000e+00 0.000000000000e+00 
2.505600000000e+06 3.966711336786e-04 1.206698307425e-312 3.181500000001e+02 0.000000000000e+00 0.000000000000e+00 0.000000000000e+00 
2.592000000000e+06 4.719554656086e-04 -3.444124655967e-312 3.181500000001e+02 0.000000000000e+00 0.000000000000e+00 0.000000000000e+00 
2.678400000000e+06 5.556800676489e-04 1.445546442330e-312 3.181500000001e+02 0.000000000000e+00 0.000000000000e+00 0.000000000000e+00 
2.764800000000e+06 6.479230824255e-04 -3.533629711825e-312 3.181500000001e+02 0.000000000000e+00 0.000000000000e+00 0.000000000000e+00 
2.851200000000e+06 7.486743611677e-04 3.747381825682e-312 3.181500000001e+02 0.000000000000e+00 0.000000000000e+00 0.000000000000e+00 
2.937600000000e+06 8.578397163543e-04 2.390344699737e-312 3.181500000001e+02 0.000000000000e+00 0.000000000000e+00 0.000000000000e+00 
3.024000000000e+06 9.752468286741e-04 -1.051476565885e-312 3.181500000001e+02 0.000000000000e+00 0.000000000000e+00 0.000000000000e+00 
3.110400000000e+06 1.100652385551e-03 -1.245557133878e-313 3.181500000001e+02 0.000000000000e+00 0.000000000000e+00 0.000000000000e+00 
3.196800000000e+06 1.233750052425e-03 -1.926549921087e-312 3.181500000001e+02 0.000000000000e+00 0.000000000000e+00 0.000000000000e+00 
3.283200000000e+06 1.374178917406e-03 1.295845184445e-312 3.181500000001e+02 0.000000000000e+00 0.000000000000e+00 0.000000000000e+00 
3.369600000000e+06 1.521532098443e-03 1.344470380450e-312 3.181500000001e+02 0.000000000000e+00 0.000000000000e+00 0.000000000000e+00 
3.456000000000e+06 1.675365254598e-03 1.019134110522e-312 3.181500000001e+02 0.000000000000e+00 0.000000000000e+00 0.000000000000e+00 
3.542400000000e+06 1.835204795347e-03 -9.634949279537e-313 3.181500000001e+02 0.000000000000e+00 0.000000000000e+00 0.000000000000e+00 
3.628800000000e+06 2.000555631273e-03 -1.752097301464e-313 3.181500000001e+02 0.000000000000e+00 0.000000000000e+00 0.000000000000e+00 
3.715200000000e+06 2.170908354286e-03 -3.128099206661e-312 3.181500000001e+02 0.000000000000e+00 0.000000000000e+00 0.000000000000e+00 
3.801600000000e+06 2.345745774461e-03 6.987514887854e-313 3.181500000001e+02 0.000000000000e+00 0.000000000000e+00 0.000000000000e+00 
3.888000000000e+06 2.524548773578e-03 2.315070081555e-312 3.181500000001e+02 0.000000000000e+00 0.000000000000e+00 0.000000000000e+00 
3.974400000000e+06 2.706801462284e-03 -3.935405156486e-313 3.181500000001e+02 0.000000000000e+00 0.000000000000e+00 0.000000000000e+00 
4.060800000000e+06 2.891995649114e-03 3.965742742900e-313 3.181500000001e+02 0.000000000000e+00 0.000000000000e+00 0.000000000000e+00 
4.147200000000e+06 3.079634645745e-03 1.492952704880e-312 3.181500000001e+02 0.000000000000e+00 0.000000000000e+00 0.000000000000e+00 
4.233600000000e+06 3.269236444640e-03 2.897056515852e-312 3.181500000001e+02 0.000000000000e+00 0.000000000000e+00 0.000000000000e+00 
4.320000000000e+06 3.460336313187e-03 -3.328325242146e-313 3.181500000002e+02 0.000000000000e+00 0.000000000000e+00 0.000000000000e+00 
4.406400000000e+06 3.652488853380e-03 4.751449695300e-312 3.181500000002e+02 0.000000000000e+00 0.000000000000e+00 0.000000000000e+00 
4.492800000000e+06 3.845269578444e-03 -1.367900276113e-312 3.181500000002e+02 0.000000000000e+00 0.000000000000e+00 0.000000000000e+00 
4.579200000000e+06 4.038276058300e-03 1.141866404017e-312 3.181500000002e+02 0.000000000000e+00 0.000000000000e+00 0.000000000000e+00 
4.665600000000e+06 4.231128684702e-03 -2.260197828862e-312 3.181500000002e+02 0.000000000000e+00 0.000000000000e+00 0.000000000000e+00 
4.752000000000e+06 4.423471104840e-03 -9.095178937336e-313 3.181500000002e+02 0.000000000000e+00 0.000000000000e+00 0.000000000000e+00 
4.838400000000e+06 4.614970369288e-03 -1.257146517246e-312 3.181500000002e+02 0.000000000000e+00 0.000000000000e+00 0.000000000000e+00 
4.924800000000e+06 4.805316836923e-03 6.225862083495e-313 3.181500000002e+02 0.000000000000e+00 0.000000000000e+00 0.000000000000e+00 
5.011200000000e+06 4.994223875801e-03 7.184439864225e-313 3.181500000002e+02 0.000000000000e+00 0.000000000000e+00 0.000000000000e+00 
5.097600000000e+06 5.181427395323e-03 2.425828368138e-312 3.181500000002e+02 0.000000000000e+00 0.000000000000e+00 0.000000000000e+00 
5.184000000000e+06 5.366685241338e-03 1.551626590457e-314 3.181500000002e+02 0.000000000000e+00 0.000000000000e+00 0.000000000000e+00 
5.270400000000e+06 5.549776482281e-03 -1.088981085301e-312 3.181500000002e+02 0.000000000000e+00 0.000000000000e+00 0.000000000000e+00 
5.356800000000e+06 5.730500611075e-03 -1.231279878572e-312 3.181500000002e+02 0.000000000000e+00 0.000000000000e+00 0.000000000000e+00 
5.443200000000e+06 5.908676684352e-03 2.046991912595e-312 3.181500000002e+02 0.000000000000e+00 0.000000000000e+00 0.000000000000e+00 
5.529600000000e+06 6.084142417634e-03 2.609505454013e-312 3.181500000002e+02 0.000000000000e+00 0.000000000000e+00 0.000000000000e+00 
5.616000000000e+06 6.256753252463e-03 -2.842994865039e-312 3.181500000002e+02 0.000000000000e+00 0.000000000000e+00 0.000000000000e+00 
5.702400000000e+06 6.426381409032e-03 1.353388062771e-312 3.181500000002e+02 0.000000000000e+00 0.000000000000e+00 0.000000000000e+00 
5.788800000000e+06 6.592914935742e-03 -6.252748510356e-313 3.181500000002e+02 0.000000000000e+00 0.000000000000e+00 0.000000000000e+00 
5.875200000000e+06 6.756256765147e-03 -2.543734423867e-312 3.181500000002e+02 0.000000000000e+00 0.000000000000e+00 0.000000000000e+00 
5.961600000000e+06 6.916323784090e-03 3.390211689932e-312 3.181500000002e+02 0.000000000000e+00 0.000000000000e+00 0.000000000000e+00 
6.048000000000e+06 7.073045924330e-03 4.648113161095e-312 3.181500000002e+02 0.000000000000e+00 0.000000000000e+00 0.000000000000e+00 
6.134400000000e+06 7.226365278635e-03 -2.950587463976e-312 3.181500000003e+02 0.000000000000e+00 0.000000000000e+00 0.000000000000e+00 
6.220800000000e+06 7.376235246257e-03 -3.991843824699e-313 3.181500000003e+02 0.000000000000e+00 0.000000000000e+00 0.000000000000e+00 
6.307200000000e+06 7.522619710663e-03 -4.442003924358e-313 3.181500000003e+02 0.000000000000e+00 0.000000000000e+00 0.000000000000e+00 
6.393600000000e+06 7.665492251642e-03 -6.793306157483e-312 3.181500000003e+02 0.000000000000e+00 0.000000000000e+00 0.000000000000e+00 
6.480000000000e+06 7.804835393155e-03 -1.912603857632e-312 3.181500000003e+02 0.000000000000e+00 0.000000000000e+00 0.000000000000e+00 
6.566400000000e+06 7.940639887743e-03 -4.496487138995e-313 3.181500000003e+02 0.000000000000e+00 0.000000000000e+00 0.000000000000e+00 
6.652800000000e+06 8.072904037798e-03 -2.379340184162e-312 3.181500000003e+02 0.000000000000e+00 0.000000000000e+00 0.000000000000e+00 
6.739200000000e+06 8.201633053603e-03 2.584210741127e-312 3.181500000003e+02 0.000000000000e+00 0.000000000000e+00 0.000000000000e+00 
6.825600000000e+06 8.326838447719e-03 -5.053217018523e-313 3.181500000003e+02 0.000000000000e+00 0.000000000000e+00 0.000000000000e+00 
6.912000000000e+06 8.448537465020e-03 -9.468483986491e-313 3.181500000003e+02 0.000000000000e+00 0.000000000000e+00 0.000000000000e+00 
6.998400000000e+06 8.566752547485e-03 -2.704670107644e-312 3.181500000003e+02 0.000000000000e+00 0.000000000000e+00 0.000000000000e+00 
7.084800000000e+06 8.681510832659e-03 -2.954152866283e-312 3.181500000003e+02 0.000000000000e+00 0.000000000000e+00 0.000000000000e+00 
7.171200000000e+06 8.792843684614e-03 7.765847188042e-313 3.181500000003e+02 0.000000000000e+00 0.000000000000e+00 0.000000000000e+00 
7.257600000000e+06 8.900786256109e-03 8.522337406348e-313 3.181500000003e+02 0.000000000000e+00 0.000000000000e+00 0.000000000000e+00 
7.344000000000e+06 9.005377080616e-03 -2.468346708549e-312 3.181500000003e+02 0.000000000000e+00 0.000000000000e+00 0.000000000000e+00 
7.430400000000e+06 9.106657692836e-03 -1.936973267446e-312 3.181500000003e+02 0.000000000000e+00 0.000000000000e+00 0.000000000000e+00 
7.516800000000e+06 9.204672276297e-03 -3.795871304721e-313 3.181500000003e+02 0.000000000000e+00 0.000000000000e+00 0.000000000000e+00 
7.603200000000e+06 9.299467336643e-03 2.237646117765e-313 3.181500000003e+02 0.000000000000e+00 0.000000000000e+00 0.000000000000e+00 
7.689600000000e+06 9.391091399240e-03 -8.332382933995e-313 3.181500000004e+02 0.000000000000e+00 0.000000000000e+00 0.000000000000e+00 
7.776000000000e+06 9.479594729719e-03 3.422028719010e-313 3.181500000004e+02 0.000000000000e+00 0.000000000000e+00 0.000000000000e+00 
7.862400000000e+06 9.565029076148e-03 7.616329277419e-313 3.181500000004e+02 0.000000000000e+00 0.000000000000e+00 0.000000000000e+00 
7.948800000000e+06 9.647447431526e-03 3.185246626168e-312 3.181500000004e+02 0.000000000000e+00 0.000000000000e+00 0.000000000000e+00 
8.035200000000e+06 9.726903815370e-03 4.421825018268e-312 3.181500000004e+02 0.000000000000e+00 0.000000000000e+00 0.000000000000e+00 
8.121600000000e+06 9.803453073188e-03 3.723714033142e-313 3.181500000004e+02 0.000000000000e+00 0.000000000000e+00 0.000000000000e+00 
8.208000000000e+06 9.877150692688e-03 2.507606837412e-312 3.181500000004e+02 0.000000000000e+00 0.000000000000e+00 0.000000000000e+00 
8.294400000000e+06 9.948052635639e-03 -1.706184629455e-312 3.181500000004e+02 0.000000000000e+00 0.000000000000e+00 0.000000000000e+00 
8.380800000000e+06 1.001621518432e-02 2.180104807796e-312 3.181500000004e+02 0.000000000000e+00 0.000000000000e+00 0.000000000000e+00 
8.467200000000e+06 1.008169480160e-02 3.010563887630e-312 3.181500000004e+02 0.000000000000e+00 0.000000000000e+00 0.000000000000e+00 
8.553600000000e+06 1.014454800366e-02 -1.131767696949e-312 3.181500000004e+02 0.000000000000e+00 0.000000000000e+00 0.000000000000e+00 
8.640000000000e+06 1.020483124448e-02 2.706141227783e-312 3.181500000004e+02 0.000000000000e+00 0.000000000000e+00 0.000000000000e+00 
8.726400000000e+06 1.026260081137e-02 -1.607531817672e-313 3.181500000004e+02 0.000000000000e+00 0.000000000000e+00 0.000000000000e+00 
8.812800000000e+06 1.031791273050e-02 -2.052797531484e-312 3.181500000004e+02 0.000000000000e+00 0.000000000000e+00 0.000000000000e+00 
8.899200000000e+06 1.037082268195e-02 2.406073294192e-312 3.181500000004e+02 0.000000000000e+00 0.000000000000e+00 0.000000000000e+00 
8.985600000000e+06 1.042138592346e-02 -6.717275532381e-313 3.181500000004e+02 0.000000000000e+00 0.000000000000e+00 0.000000000000e+00 
9.072000000000e+06 1.046965722217e-02 4.200629003686e-312 3.181500000004e+02 0.000000000000e+00 0.000000000000e+00 0.000000000000e+00 
9.158400000000e+06 1.051569079390e-02 -1.115381657867e-313 3.181500000004e+02 0.000000000000e+00 0.000000000000e+00 0.000000000000e+00 
9.244800000000e+06 1.055954024921e-02 1.141481650988e-312 3.181500000004e+02 0.000000000000e+00 0.000000000000e+00 0.000000000000e+00 
9.331200000000e+06 1.060125854586e-02 1.800498660851e-312 3.181500000005e+02 0.000000000000e+00 0.000000000000e+00 0.000000000000e+00 
9.417600000000e+06 1.064089794710e-02 -1.204160767291e-312 3.181500000005e+02 0.000000000000e+00 0.000000000000e+00 0.000000000000e+00 
9.504000000000e+06 1.067850998525e-02 -2.420861967925e-312 3.181500000005e+02 0.000000000000e+00 0.000000000000e+00 0.000000000000e+00 
9.590400000000e+06 1.071414543034e-02 2.323283752741e-312 3.181500000005e+02 0.000000000000e+00 0.000000000000e+00 0.000000000000e+00 
9.676800000000e+06 1.074785426320e-02 -1.239390033218e-313 3.181500000005e+02 0.000000000000e+00 0.000000000000e+00 0.000000000000e+00 
9.763200000000e+06 1.077968565268e-02 -3.115907780050e-312 3.181500000005e+02 0.000000000000e+00 0.000000000000e+00 0.000000000000e+00 
9.849600000000e+06 1.080968793675e-02 -2.655666652900e-312 3.181500000005e+02 0.000000000000e+00 0.000000000000e+00 0.000000000000e+00 
9.936000000000e+06 1.083790860702e-02 -9.566054327964e-313 3.181500000005e+02 0.000000000000e+00 0.000000000000e+00 0.000000000000e+00 
1.002240000000e+07 1.086439429644e-02 3.246495097055e-312 3.181500000005e+02 0.000000000000e+00 0.000000000000e+00 0.000000000000e+00 
1.010880000000e+07 1.088919076994e-02 5.027377785439e-315 3.181500000005e+02 0.000000000000e+00 0.000000000000e+00 0.000000000000e+00 
1.019520000000e+07 1.091234291765e-02 4.242393959751e-312 3.181500000005e+02 0.000000000000e+00 0.000000000000e+00 0.000000000000e+00 
1.028160000000e+07 1.093389475057e-02 8.175380233132e-313 3.181500000005e+02 0.000000000000e+00 0.000000000000e+00 0.000000000000e+00 
1.036800000000e+07 1.095388939835e-02 -3.024154932014e-313 3.181500000005e+02 0.000000000000e+00 0.000000000000e+00 0.000000000000e+00 
1.045440000000e+07 1.097236910913e-02 -6.844934295650e-313 3.181500000005e+02 0.000000000000e+00 0.000000000000e+00 0.000000000000e+00 
1.054080000000e+07 1.098937525107e-02 7.219294313939e-313 3.181500000005e+02 0.000000000000e+00 0.000000000000e+00 0.000000000000e+00 
1.062720000000e+07 1.100494831553e-02 2.123307410093e-312 3.181500000005e+02 0.000000000000e+00 0.000000000000e+00 0.000000000000e+00 
1.071360000000e+07 1.101912792170e-02 1.347332430109e-312 3.181500000005e+02 0.000000000000e+00 0.000000000000e+00 0.000000000000e+00 
1.080000000000e+07 1.103195282251e-02 -1.185395257867e-312 3.181500000005e+02 0.000000000000e+00 0.000000000000e+00 0.000000000000e+00 
1.088640000000e+07 1.104346091167e-02 -1.879844217062e-313 3.181500000005e+02 0.000000000000e+00 0.000000000000e+00 0.000000000000e+00 
1.097280000000e+07 1.105368923181e-02 5.171579917160e-312 3.181500000005e+02 0.000000000000e+00 0.000000000000e+00 0.000000000000e+00 
1.105920000000e+07 1.106267398347e-02 -1.380775646690e-312 3.181500000005e+02 0.000000000000e+00 0.000000000000e+00 0.000000000000e+00 
1.114560000000e+07 1.107045053489e-02 -4.799755536936e-314 3.181500000006e+02 0.000000000000e+00 0.000000000000e+00 0.000000000000e+00 
1.123200000000e+07 1.107705343257e-02 -1.203803794778e-312 3.181500000006e+02 0.000000000000e+00 0.000000000000e+00 0.000000000000e+00 
1.131840000000e+07 1.108251641241e-02 3.078786440815e-312 3.181500000006e+02 0.000000000000e+00 0.000000000000e+00 0.000000000000e+00 
1.140480000000e+07 1.108687241138e-02 -7.384082702828e-312 3.181500000006e+02 0.000000000000e+00 0.000000000000e+00 0.000000000000e+00 
1.149120000000e+07 1.109015357962e-02 5.343059858272e-313 3.181500000006e+02 0.000000000000e+00 0.000000000000e+00 0.000000000000e+00 
1.157760000000e+07 1.109239129303e-02 5.437963444971e-312 3.181500000006e+02 0.000000000000e+00 0.000000000000e+00 0.000000000000e+00 
1.166400000000e+07 1.109361616608e-02 5.407674026426e-312 3.181500000006e+02 0.000000000000e+00 0.000000000000e+00 0.000000000000e+00 
1.175040000000e+07 1.109385806495e-02 1.124791444502e-312 3.181500000006e+02 0.000000000000e+00 0.000000000000e+00 0.000000000000e+00 
1.183680000000e+07 1.109314612082e-02 2.220975897178e-313 3.181500000006e+02 0.000000000000e+00 0.000000000000e+00 0.000000000000e+00 
1.192320000000e+07 1.109150874346e-02 -1.092310813429e-312 3.181500000006e+02 0.000000000000e+00 0.000000000000e+00 0.000000000000e+00 
1.200960000000e+07 1.108897363475e-02 -1.601015716362e-312 3.181500000006e+02 0.000000000000e+00 0.000000000000e+00 0.000000000000e+00 
1.209600000000e+07 1.108556780248e-02 8.519859118079e-313 3.181500000006e+02 0.000000000000e+00 0.000000000000e+00 0.000000000000e+00 
1.218240000000e+07 1.108131757406e-02 6.428083158860e-314 3.181500000006e+02 0.000000000000e+00 0.000000000000e+00 0.000000000000e+00 
1.226880000000e+07 1.107624861030e-02 -7.218127426535e-313 3.181500000006e+02 0.000000000000e+00 0.000000000000e+00 0.000000000000e+00 
1.235520000000e+07 1.107038591916e-02 1.930987624192e-312 3.181500000006e+02 0.000000000000e+00 0.000000000000e+00 0.000000000000e+00 
1.244160000000e+07 1.106375386951e-02 3.408872711750e-312 3.181500000006e+02 0.000000000000e+00 0.000000000000e+00 0.000000000000e+00 
1.252800000000e+07 1.105637620473e-02 1.085944676324e-312 3.181500000006e+02 0.000000000000e+00 0.000000000000e+00 0.000000000000e+00 
1.261440000000e+07 1.104827605631e-02 -7.419928077479e-313 3.181500000006e+02 0.000000000000e+00 0.000000000000e+00 0.000000000000e+00 
1.270080000000e+07 1.103947595728e-02 -3.164845265563e-312 3.181500000006e+02 0.000000000000e+00 0.000000000000e+00 0.000000000000e+00 
1.278720000000e+07 1.102999785561e-02 1.028584073547e-312 3.181500000006e+02 0.000000000000e+00 0.000000000000e+00 0.000000000000e+00 
1.287360000000e+07 1.101986312732e-02 -9.056014977150e-313 3.181500000007e+02 0.000000000000e+00 0.000000000000e+00 0.000000000000e+00 
1.296000000000e+07 1.100909258964e-02 5.596886866674e-312 3.181500000007e+02 0.000000000000e+00 0.000000000000e+00 0.000000000000e+00 
1.304640000000e+07 1.099770651381e-02 -3.956122728408e-313 3.181500000007e+02 0.000000000000e+00 0.000000000000e+00 0.000000000000e+00 
1.313280000000e+07 1.098572463783e-02 1.290271363647e-312 3.181500000007e+02 0.000000000000e+00 0.000000000000e+00 0.000000000000e+00 
1.321920000000e+07 1.097316617903e-02 -3.544305237184e-312 3.181500000007e+02 0.000000000000e+00 0.000000000000e+00 0.000000000000e+00 
1.330560000000e+07 1.096004984634e-02 2.431805969599e-312 3.181500000007e+02 0.000000000000e+00 0.000000000000e+00 0.000000000000e+00 
1.339200000000e+07 1.094639385251e-02 -1.741182865642e-312 3.181500000007e+02 0.000000000000e+00 0.000000000000e+00 0.000000000000e+00 
1.347840000000e+07 1.093221592602e-02 1.174542967444e-312 3.181500000007e+02 0.000000000000e+00 0.000000000000e+00 0.000000000000e+00 
1.356480000000e+07 1.091753332287e-02 -5.649054849152e-312 3.181500000007e+02 0.000000000000e+00 0.000000000000e+00 0.000000000000e+00 
1.365120000000e+07 1.090236283804e-02 4.545599537339e-313 3.181500000007e+02 0.000000000000e+00 0.000000000000e+00 0.000000000000e+00 
1.373760000000e+07 1.088672081689e-02 -2.404555969004e-313 3.181500000007e+02 0.000000000000e+00 0.000000000000e+00 0.000000000000e+00 
1.382400000000e+07 1.087062316622e-02 -3.572082910373e-312 3.181500000007e+02 0.000000000000e+00 0.000000000000e+00 0.000000000000e+00 
1.391040000000e+07 1.085408536519e-02 -1.433859092064e-312 3.181500000007e+02 0.000000000000e+00 0.000000000000e+00 0.000000000000e+00 
1.399680000000e+07 1.083712247599e-02 -2.236248529421e-313 3.181500000007e+02 0.000000000000e+00 0.000000000000e+00 0.000000000000e+00 
1.408320000000e+07 1.081974915429e-02 -5.826085764715e-313 3.181500000007e+02 0.000000000000e+00 0.000000000000e+00 0.000000000000e+00 
1.416960000000e+07 1.080197965951e-02 -2.885645117365e-314 3.181500000007e+02 0.000000000000e+00 0.000000000000e+00 0.000000000000e+00 
1.425600000000e+07 1.078382786482e-02 4.769300040115e-312 3.181500000007e+02 0.000000000000e+00 0.000000000000e+00 0.000000000000e+00 
1.434240000000e+07 1.076530726695e-02 1.237989254327e-312 3.181500000007e+02 0.000000000000e+00 0.000000000000e+00 0.000000000000e+00 
1.442880000000e+07 1.074643099584e-02 1.486743941448e-313 3.181500000007e+02 0.000000000000e+00 0.000000000000e+00 0.000000000000e+00 
1.451520000000e+07 1.072721182395e-02 3.234509690972e-312 3.181500000007e+02 0.000000000000e+00 0.000000000000e+00 0.000000000000e+00 
1.460160000000e+07 1.070766217551e-02 1.600234199212e-312 3.181500000007e+02 0.000000000000e+00 0.000000000000e+00 0.000000000000e+00 
1.468800000000e+07 1.068779413543e-02 8.441686961438e-313 3.181500000008e+02 0.000000000000e+00 0.000000000000e+00 0.000000000000e+00 
1.477440000000e+07 1.066761945810e-02 -6.585833343150e-313 3.181500000008e+02 0.000000000000e+00 0.000000000000e+00 0.000000000000e+00 
1.486080000000e+07 1.064714957593e-02 -1.135530988724e-312 3.181500000008e+02 0.000000000000e+00 0.000000000000e+00 0.000000000000e+00 
1.494720000000e+07 1.062639560773e-02 -9.546669399803e-314 3.181500000008e+02 0.000000000000e+00 0.000000000000e+00 0.000000000000e+00 
1.503360000000e+07 1.060536836682e-02 4.442394587746e-313 3.181500000008e+02 0.000000000000e+00 0.000000000000e+00 0.000000000000e+00 
1.512000000000e+07 1.058407836906e-02 -4.673075557345e-312 3.181500000008e+02 0.000000000000e+00 0.000000000000e+00 0.000000000000e+00 
1.520640000000e+07 1.056253584058e-02 4.530703528175e-313 3.181500000008e+02 0.000000000000e+00 0.000000000000e+00 0.000000000000e+00 
1.529280000000e+07 1.054075072539e-02 3.524921915685e-312 3.181500000008e+02 0.000000000000e+00 0.000000000000e+00 0.000000000000e+00 
1.537920000000e+07 1.051873269277e-02 2.505301074806e-312 3.181500000008e+02 0.000000000000e+00 0.000000000000e+00 0.000000000000e+00 
1.546560000000e+07 1.049649114447e-02 1.526656072069e-312 3.181500000008e+02 0.000000000000e+00 0.000000000000e+00 0.000000000000e+00 
1.555200000000e+07 1.047403522179e-02 -2.104417714452e-312 3.181500000008e+02 0.000000000000e+00 0.000000000000e+00 0.000000000000e+00 
1.563840000000e+07 1.045137381241e-02 1.574298295702e-312 3.181500000008e+02 0.000000000000e+00 0.000000000000e+00 0.000000000000e+00 
1.572480000000e+07 1.042851555711e-02 2.198880097793e-312 3.181500000008e+02 0.000000000000e+00 0.000000000000e+00 0.000000000000e+00 
1.581120000000e+07 1.040546885625e-02 1.169246171947e-312 3.181500000008e+02 0.000000000000e+00 0.000000000000e+00 0.000000000000e+00 
1.589760000000e+07 1.038224187620e-02 -4.401664502358e-313 3.181500000008e+02 0.000000000000e+00 0.000000000000e+00 0.000000000000e+00 
1.598400000000e+07 1.035884255547e-02 -1.950331925098e-312 3.181500000008e+02 0.000000000000e+00 0.000000000000e+00 0.000000000000e+00 
1.607040000000e+07 1.033527861079e-02 5.740496254683e-313 3.181500000008e+02 0.000000000000e+00 0.000000000000e+00 0.000000000000e+00 
1.615680000000e+07 1.031155754297e-02 -3.405970958210e-312 3.181500000008e+02 0.000000000000e+00 0.000000000000e+00 0.000000000000e+00 
1.624320000000e+07 1.028768664266e-02 -1.723964138152e-312 3.181500000008e+02 0.000000000000e+00 0.000000000000e+00 0.000000000000e+00 
1.632960000000e+07 1.026367299593e-02 -1.368846165667e-312 3.181500000008e+02 0.000000000000e+00 0.000000000000e+00 0.000000000000e+00 
1.641600000000e+07 1.023952348969e-02 -4.749635807070e-313 3.181500000008e+02 0.000000000000e+00 0.000000000000e+00 0.000000000000e+00 
1.650240000000e+07 1.021524481702e-02 -8.682712708943e-313 3.181500000009e+02 0.000000000000e+00 0.000000000000e+00 0.000000000000e+00 
1.658880000000e+07 1.019084348232e-02 3.950670074522e-312 3.181500000009e+02 0.000000000000e+00 0.000000000000e+00 0.000000000000e+00 
1.667520000000e+07 1.016632580634e-02 3.127356643470e-312 3.181500000009e+02 0.000000000000e+00 0.000000000000e+00 0.000000000000e+00 
1.676160000000e+07 1.014169793105e-02 -4.512220954988e-312 3.181500000009e+02 0.000000000000e+00 0.000000000000e+00 0.000000000000e+00 
1.684800000000e+07 1.011696582448e-02 3.609174113728e-312 3.181500000009e+02 0.000000000000e+00 0.000000000000e+00 0.000000000000e+00 
1.693440000000e+07 1.009213528528e-02 -2.608062155062e-312 3.181500000009e+02 0.000000000000e+00 0.000000000000e+00 0.000000000000e+00 
1.702080000000e+07 1.006721194730e-02 -5.558278103811e-313 3.181500000009e+02 0.000000000000e+00 0.000000000000e+00 0.000000000000e+00 
1.710720000000e+07 1.004220128396e-02 1.501625480491e-312 3.181500000009e+02 0.000000000000e+00 0.000000000000e+00 0.000000000000e+00 
1.719360000000e+07 1.001710861254e-02 -5.197626955238e-312 3.181500000009e+02 0.000000000000e+00 0.000000000000e+00 0.000000000000e+00 
1.728000000000e+07 9.991939098394e-03 3.884406511109e-313 3.181500000009e+02 0.000000000000e+00 0.000000000000e+00 0.000000000000e+00 
1.736640000000e+07 9.966697758934e-03 -1.808020651793e-312 3.181500000009e+02 0.000000000000e+00 0.000000000000e+00 0.000000000000e+00 
1.745280000000e+07 9.941389467650e-03 -1.470175628031e-312 3.181500000009e+02 0.000000000000e+00 0.000000000000e+00 0.000000000000e+00 
1.753920000000e+07 9.916018957932e-03 -2.489274809678e-312 3.181500000009e+02 0.000000000000e+00 0.000000000000e+00 0.000000000000e+00 
1.762560000000e+07 9.890590826821e-03 -1.178681106987e-312 3.181500000009e+02 0.000000000000e+00 0.000000000000e+00 0.000000000000e+00 
1.771200000000e+07 9.865109538656e-03 7.561965770589e-314 3.181500000009e+02 0.000000000000e+00 0.000000000000e+00 0.000000000000e+00 
1.779840000000e+07 9.839579428624e-03 -1.831177968183e-312 3.181500000009e+02 0.000000000000e+00 0.000000000000e+00 0.000000000000e+00 
1.788480000000e+07 9.814004706216e-03 9.372096103099e-313 3.181500000009e+02 0.000000000000e+00 0.000000000000e+00 0.000000000000e+00 
1.797120000000e+07 9.788389458591e-03 -7.044369366013e-313 3.181500000009e+02 0.000000000000e+00 0.000000000000e+00 0.000000000000e+00 
1.805760000000e+07 9.762737653845e-03 -1.606515232824e-312 3.181500000009e+02 0.000000000000e+00 0.000000000000e+00 0.000000000000e+00 
1.814400000000e+07 9.737053144203e-03 4.542192751798e-312 3.181500000009e+02 0.000000000000e+00 0.000000000000e+00 0.000000000000e+00 
1.823040000000e+07 9.711339669114e-03 4.005847275618e-312 3.181500000009e+02 0.000000000000e+00 0.000000000000e+00 0.000000000000e+00 
1.831680000000e+07 9.685600858276e-03 1.657556786918e-312 3.181500000009e+02 0.000000000000e+00 0.000000000000e+00 0.000000000000e+00 
1.840320000000e+07 9.659840234563e-03 2.008721413727e-312 3.181500000009e+02 0.000000000000e+00 0.000000000000e+00 0.000000000000e+00 
1.848960000000e+07 9.634061216895e-03 1.777441838386e-312 3.181500000009e+02 0.000000000000e+00 0.000000000000e+00 0.000000000000e+00 
1.857600000000e+07 9.608267123010e-03 2.576538559090e-312 3.181500000009e+02 0.000000000000e+00 0.000000000000e+00 0.000000000000e+00 
1.866240000000e+07 9.582461172179e-03 1.104156376104e-312 3.181500000009e+02 0.000000000000e+00 0.000000000000e+00 0.000000000000e+00 
1.874880000000e+07 9.556646487835e-03 1.375390309066e-312 3.181500000009e+02 0.000000000000e+00 0.000000000000e+00 0.000000000000e+00 
1.883520000000e+07 9.530826100144e-03 9.021747683992e-313 3.181500000009e+02 0.000000000000e+00 0.000000000000e+00 0.000000000000e+00 
1.892160000000e+07 9.505002948494e-03 1.091926817951e-314 3.181500000010e+02 0.000000000000e+00 0.000000000000e+00 0.000000000000e+00 