<?xml version="1.0"?>
<!-- Time step: 39 | Time: 2.000000000000e+00 -->
<VTKFile type="UnstructuredGrid" version="0.1" byte_order="LittleEndian">
  <UnstructuredGrid>
    <Piece NumberOfPoints="527" NumberOfCells="480">
      <Points>
        <DataArray type="Float64" NumberOfComponents="3" format="ascii">
          1.750000000000e-01 0.000000000000e+00 0.000000000000e+00
          1.766666666667e-01 0.000000000000e+00 0.000000000000e+00
          1.783333333333e-01 0.000000000000e+00 0.000000000000e+00
          1.800000000000e-01 0.000000000000e+00 0.000000000000e+00
          1.816666666667e-01 0.000000000000e+00 0.000000000000e+00
          1.833333333333e-01 0.000000000000e+00 0.000000000000e+00
          1.850000000000e-01 0.000000000000e+00 0.000000000000e+00
          1.866666666667e-01 0.000000000000e+00 0.000000000000e+00
          1.883333333333e-01 0.000000000000e+00 0.000000000000e+00
          1.900000000000e-01 0.000000000000e+00 0.000000000000e+00
          1.916666666667e-01 0.000000000000e+00 0.000000000000e+00
          1.933333333333e-01 0.000000000000e+00 0.000000000000e+00
          1.950000000000e-01 0.000000000000e+00 0.000000000000e+00
          1.966666666667e-01 0.000000000000e+00 0.000000000000e+00
          1.983333333333e-01 0.000000000000e+00 0.000000000000e+00
          2.000000000000e-01 0.000000000000e+00 0.000000000000e+00
          2.016666666667e-01 0.000000000000e+00 0.000000000000e+00
          2.033333333333e-01 0.000000000000e+00 0.000000000000e+00
          2.050000000000e-01 0.000000000000e+00 0.000000000000e+00
          2.066666666667e-01 0.000000000000e+00 0.000000000000e+00
          2.083333333333e-01 0.000000000000e+00 0.000000000000e+00
          2.100000000000e-01 0.000000000000e+00 0.000000000000e+00
          2.116666666667e-01 0.000000000000e+00 0.000000000000e+00
          2.133333333333e-01 0.000000000000e+00 0.000000000000e+00
          2.150000000000e-01 0.000000000000e+00 0.000000000000e+00
          2.166666666667e-01 0.000000000000e+00 0.000000000000e+00
          2.183333333333e-01 0.000000000000e+00 0.000000000000e+00
          2.200000000000e-01 0.000000000000e+00 0.000000000000e+00
          2.216666666667e-01 0.000000000000e+00 0.000000000000e+00
          2.233333333333e-01 0.000000000000e+00 0.000000000000e+00
          2.250000000000e-01 0.000000000000e+00 0.000000000000e+00
          1.741573271428e-01 1.715299981026e-02 0.000000000000e+00
          1.758159683536e-01 1.731636171321e-02 0.000000000000e+00
          1.774746095645e-01 1.747972361617e-02 0.000000000000e+00
          1.791332507754e-01 1.764308551912e-02 0.000000000000e+00
          1.807918919863e-01 1.780644742208e-02 0.000000000000e+00
          1.824505331972e-01 1.796980932503e-02 0.000000000000e+00
          1.841091744081e-01 1.813317122799e-02 0.000000000000e+00
          1.857678156189e-01 1.829653313094e-02 0.000000000000e+00
          1.874264568298e-01 1.845989503390e-02 0.000000000000e+00
          1.890850980407e-01 1.862325693685e-02 0.000000000000e+00
          1.907437392516e-01 1.878661883981e-02 0.000000000000e+00
          1.924023804625e-01 1.894998074276e-02 0.000000000000e+00
          1.940610216734e-01 1.911334264571e-02 0.000000000000e+00
          1.957196628842e-01 1.927670454867e-02 0.000000000000e+00
          1.973783040951e-01 1.944006645162e-02 0.000000000000e+00
          1.990369453060e-01 1.960342835458e-02 0.000000000000e+00
          2.006955865169e-01 1.976679025753e-02 0.000000000000e+00
          2.023542277278e-01 1.993015216049e-02 0.000000000000e+00
          2.040128689387e-01 2.009351406344e-02 0.000000000000e+00
          2.056715101495e-01 2.025687596640e-02 0.000000000000e+00
          2.073301513604e-01 2.042023786935e-02 0.000000000000e+00
          2.089887925713e-01 2.058359977231e-02 0.000000000000e+00
          2.106474337822e-01 2.074696167526e-02 0.000000000000e+00
          2.123060749931e-01 2.091032357822e-02 0.000000000000e+00
          2.139647162040e-01 2.107368548117e-02 0.000000000000e+00
          2.156233574148e-01 2.123704738413e-02 0.000000000000e+00
          2.172819986257e-01 2.140040928708e-02 0.000000000000e+00
          2.189406398366e-01 2.156377119004e-02 0.000000000000e+00
          2.205992810475e-01 2.172713309299e-02 0.000000000000e+00
          2.222579222584e-01 2.189049499595e-02 0.000000000000e+00
          2.239165634693e-01 2.205385689890e-02 0.000000000000e+00
          1.716374239715e-01 3.414080685068e-02 0.000000000000e+00
          1.732720661046e-01 3.446595739212e-02 0.000000000000e+00
          1.749067082377e-01 3.479110793355e-02 0.000000000000e+00
          1.765413503707e-01 3.511625847499e-02 0.000000000000e+00
          1.781759925038e-01 3.544140901642e-02 0.000000000000e+00
          1.798106346368e-01 3.576655955786e-02 0.000000000000e+00
          1.814452767699e-01 3.609171009929e-02 0.000000000000e+00
          1.830799189030e-01 3.641686064073e-02 0.000000000000e+00
          1.847145610360e-01 3.674201118216e-02 0.000000000000e+00
          1.863492031691e-01 3.706716172360e-02 0.000000000000e+00
          1.879838453022e-01 3.739231226503e-02 0.000000000000e+00
          1.896184874352e-01 3.771746280647e-02 0.000000000000e+00
          1.912531295683e-01 3.804261334790e-02 0.000000000000e+00
          1.928877717013e-01 3.836776388934e-02 0.000000000000e+00
          1.945224138344e-01 3.869291443077e-02 0.000000000000e+00
          1.961570559675e-01 3.901806497221e-02 0.000000000000e+00
          1.977916981005e-01 3.934321551364e-02 0.000000000000e+00
          1.994263402336e-01 3.966836605508e-02 0.000000000000e+00
          2.010609823667e-01 3.999351659651e-02 0.000000000000e+00
          2.026956244997e-01 4.031866713795e-02 0.000000000000e+00
          2.043302666328e-01 4.064381767938e-02 0.000000000000e+00
          2.059649087658e-01 4.096896822082e-02 0.000000000000e+00
          2.075995508989e-01 4.129411876225e-02 0.000000000000e+00
          2.092341930320e-01 4.161926930369e-02 0.000000000000e+00
          2.108688351650e-01 4.194441984512e-02 0.000000000000e+00
          2.125034772981e-01 4.226957038656e-02 0.000000000000e+00
          2.141381194312e-01 4.259472092799e-02 0.000000000000e+00
          2.157727615642e-01 4.291987146943e-02 0.000000000000e+00
          2.174074036973e-01 4.324502201086e-02 0.000000000000e+00
          2.190420458303e-01 4.357017255230e-02 0.000000000000e+00
          2.206766879634e-01 4.389532309373e-02 0.000000000000e+00
          1.674645585321e-01 5.079981924816e-02 0.000000000000e+00
          1.690594590896e-01 5.128362705053e-02 0.000000000000e+00
          1.706543596470e-01 5.176743485289e-02 0.000000000000e+00
          1.722492602045e-01 5.225124265525e-02 0.000000000000e+00
          1.738441607619e-01 5.273505045762e-02 0.000000000000e+00
          1.754390613194e-01 5.321885825998e-02 0.000000000000e+00
          1.770339618768e-01 5.370266606234e-02 0.000000000000e+00
          1.786288624342e-01 5.418647386471e-02 0.000000000000e+00
          1.802237629917e-01 5.467028166707e-02 0.000000000000e+00
          1.818186635491e-01 5.515408946943e-02 0.000000000000e+00
          1.834135641066e-01 5.563789727180e-02 0.000000000000e+00
          1.850084646640e-01 5.612170507416e-02 0.000000000000e+00
          1.866033652215e-01 5.660551287652e-02 0.000000000000e+00
          1.881982657789e-01 5.708932067889e-02 0.000000000000e+00
          1.897931663364e-01 5.757312848125e-02 0.000000000000e+00
          1.913880668938e-01 5.805693628361e-02 0.000000000000e+00
          1.929829674513e-01 5.854074408598e-02 0.000000000000e+00
          1.945778680087e-01 5.902455188834e-02 0.000000000000e+00
          1.961727685662e-01 5.950835969070e-02 0.000000000000e+00
          1.977676691236e-01 5.999216749307e-02 0.000000000000e+00
          1.993625696811e-01 6.047597529543e-02 0.000000000000e+00
          2.009574702385e-01 6.095978309779e-02 0.000000000000e+00
          2.025523707960e-01 6.144359090016e-02 0.000000000000e+00
          2.041472713534e-01 6.192739870252e-02 0.000000000000e+00
          2.057421719109e-01 6.241120650488e-02 0.000000000000e+00
          2.073370724683e-01 6.289501430725e-02 0.000000000000e+00
          2.089319730258e-01 6.337882210961e-02 0.000000000000e+00
          2.105268735832e-01 6.386262991198e-02 0.000000000000e+00
          2.121217741407e-01 6.434643771434e-02 0.000000000000e+00
          2.137166746981e-01 6.483024551670e-02 0.000000000000e+00
          2.153115752556e-01 6.531405331907e-02 0.000000000000e+00
          1.616789178010e-01 6.696960160183e-02 0.000000000000e+00
          1.632187170181e-01 6.760740733138e-02 0.000000000000e+00
          1.647585162353e-01 6.824521306092e-02 0.000000000000e+00
          1.662983154524e-01 6.888301879046e-02 0.000000000000e+00
          1.678381146696e-01 6.952082452000e-02 0.000000000000e+00
          1.693779138867e-01 7.015863024954e-02 0.000000000000e+00
          1.709177131039e-01 7.079643597908e-02 0.000000000000e+00
          1.724575123210e-01 7.143424170862e-02 0.000000000000e+00
          1.739973115382e-01 7.207204743817e-02 0.000000000000e+00
          1.755371107553e-01 7.270985316771e-02 0.000000000000e+00
          1.770769099725e-01 7.334765889725e-02 0.000000000000e+00
          1.786167091896e-01 7.398546462679e-02 0.000000000000e+00
          1.801565084068e-01 7.462327035633e-02 0.000000000000e+00
          1.816963076239e-01 7.526107608587e-02 0.000000000000e+00
          1.832361068411e-01 7.589888181541e-02 0.000000000000e+00
          1.847759060582e-01 7.653668754495e-02 0.000000000000e+00
          1.863157052754e-01 7.717449327450e-02 0.000000000000e+00
          1.878555044926e-01 7.781229900404e-02 0.000000000000e+00
          1.893953037097e-01 7.845010473358e-02 0.000000000000e+00
          1.909351029269e-01 7.908791046312e-02 0.000000000000e+00
[...]
      <PointData Scalars="DISPLACEMENT_X1">
        <DataArray type="Float64" Name="STRESS_1" format="ascii">
          3.767622316440e-03 -1.086470280122e+00 -2.043812555153e+00 -2.873069662452e+00 -3.578927412289e+00 -4.166076548271e+00 -4.639103263886e+00 -5.002871647503e+00 -5.262315593677e+00 -5.422130995746e+00 -5.487053520656e+00 -8.975315751363e-01 4.176389324926e+00 9.192022853348e+00 1.411125939727e+01 1.884174533128e+01 1.850812737284e+01 1.831747360816e+01 1.813418200314e+01 1.795760714183e+01 1.778723247610e+01 1.762263383743e+01 1.746345146342e+01 1.730937250124e+01 1.716011814046e+01 1.701543280741e+01 1.687507312628e+01 1.673879681860e+01 1.660633477534e+01 1.647731410132e+01 1.635097699827e+01 3.480659363961e-03 -1.086678273764e+00 -2.043936400754e+00 -2.873138907825e+00 -3.578963287362e+00 -4.166094480352e+00 -4.639112619905e+00 -5.002875996113e+00 -5.262318889716e+00 -5.422140261431e+00 -5.487218333339e+00 -8.975715997467e-01 4.176359105836e+00 9.191991173329e+00 1.411122036984e+01 1.884168923318e+01 1.850809688421e+01 1.831745724650e+01 1.813417294219e+01 1.795760201821e+01 1.778723019760e+01 1.762263332001e+01 1.746345160652e+01 1.730937342289e+01 1.716011998184e+01 1.701543464097e+01 1.687507506563e+01 1.673879863647e+01 1.660633434236e+01 1.647730802795e+01 1.635095569711e+01 3.563903356749e-03 -1.086705153292e+00 -2.043961181267e+00 -2.873156615315e+00 -3.578978159294e+00 -4.166106849818e+00 -4.639124047107e+00 -5.002886910334e+00 -5.262330122095e+00 -5.422150211637e+00 -5.487228717036e+00 -8.975792608744e-01 4.176353554993e+00 9.191988641967e+00 1.411121957641e+01 1.884168325509e+01 1.850808598695e+01 1.831744960838e+01 1.813416711745e+01 1.795759927791e+01 1.778722897029e+01 1.762263480432e+01 1.746345444572e+01 1.730937875200e+01 1.716012615037e+01 1.701544316054e+01 1.687508428442e+01 1.673880848563e+01 1.660634136703e+01 1.647730458337e+01 1.635091130303e+01 3.710091364226e-03 -1.086752006314e+00 -2.044004448742e+00 -2.873189647681e+00 -3.579003152656e+00 -4.166129609460e+00 -4.639144852795e+00 -5.002906802719e+00 -5.262348568665e+00 -5.422170092130e+00 -5.487245838887e+00 -8.975949055939e-01 4.176342920178e+00 9.191981642018e+00 1.411121799294e+01 1.884167170884e+01 1.850806910428e+01 1.831743596156e+01 1.813415900554e+01 1.795759415647e+01 1.778722902511e+01 1.762263709463e+01 1.746346167612e+01 1.730938805064e+01 1.716013945179e+01 1.701545812103e+01 1.687510219351e+01 1.673882565603e+01 1.660635510995e+01 1.647729856735e+01 1.635083442422e+01 3.932000485138e-03 -1.086824490313e+00 -2.044071179452e+00 -2.873238397408e+00 -3.579043230360e+00 -4.166165019018e+00 -4.639177483801e+00 -5.002938757758e+00 -5.262379538807e+00 -5.422198915696e+00 -5.487274395425e+00 -8.976216508338e-01 4.176323291695e+00 9.191969560622e+00 1.411121223852e+01 1.884165727184e+01 1.850804626579e+01 1.831741994777e+01 1.813414920171e+01 1.795759094710e+01 1.778723104090e+01 1.762264484222e+01 1.746347392972e+01 1.730940489186e+01 1.716016009383e+01 1.701548252565e+01 1.687512916245e+01 1.673885308574e+01 1.660637585194e+01 1.647729002391e+01 1.635071779820e+01 4.249963100097e-03 -1.086927693849e+00 -2.044167245996e+00 -2.873309999382e+00 -3.579101708126e+00 -4.166215663894e+00 -4.639225451563e+00 -5.002983104590e+00 -5.262423891187e+00 -5.422241586871e+00 -5.487317740777e+00 -8.976592772180e-01 4.176296586296e+00 9.191955294623e+00 1.411120729747e+01 1.884164693124e+01 1.850802477750e+01 1.831740658308e+01 1.813414264419e+01 1.795759172705e+01 1.778723741249e+01 1.762265851232e+01 1.746349229824e+01 1.730942991201e+01 1.716018991321e+01 1.701551743395e+01 1.687516605558e+01 1.673889095219e+01 1.660640212142e+01 1.647727408924e+01 1.635054535798e+01 4.698602730976e-03 -1.087075825218e+00 -2.044302150799e+00 -2.873409158730e+00 -3.579179137640e+00 -4.166283788838e+00 -4.639287172569e+00 -5.003043740524e+00 -5.262481599972e+00 -5.422298329425e+00 -5.487368098423e+00 -8.977031513606e-01 4.176271238448e+00 9.191945824316e+00 1.411120890377e+01 1.884162114370e+01 1.850797914080e+01 1.831737091073e+01 1.813412063058e+01 1.795758222899e+01 1.778724137746e+01 1.762267189753e+01 1.746351748451e+01 1.730946341836e+01 1.716023203601e+01 1.701556594527e+01 1.687522096303e+01 1.673894467758e+01 1.660644328741e+01 1.647725541698e+01 1.635030654823e+01 5.331610378633e-03 -1.087290313539e+00 -2.044507881825e+00 -2.873572781996e+00 -3.579320292427e+00 -4.166412355935e+00 -4.639407292608e+00 -5.003152491692e+00 -5.262578030061e+00 -5.422381568552e+00 -5.487440861570e+00 -8.977772685357e-01 4.176219439933e+00 9.191898777337e+00 1.411115857679e+01 1.884160898160e+01 1.850794131835e+01 1.831732950729e+01 1.813408214401e+01 1.795755369183e+01 1.778722696166e+01 1.762267488785e+01 1.746353739296e+01 1.730950118180e+01 1.716028706827e+01 1.701563675065e+01 1.687530464513e+01 1.673903525463e+01 1.660651909080e+01 1.647725111305e+01 1.634999264276e+01 6.243420484122e-03 -1.087583745130e+00 -2.044759956260e+00 -2.873741487623e+00 -3.579446089616e+00 -4.166519090790e+00 -4.639511856923e+00 -5.003267581032e+00 -5.262711629174e+00 -5.422537445725e+00 -5.487624266714e+00 -8.980966461220e-01 4.175913882941e+00 9.191686814857e+00 1.411092976593e+01 1.884244502773e+01 1.850757647664e+01 1.831716193053e+01 1.813403400529e+01 1.795757838125e+01 1.778729357811e+01 1.762276716166e+01 1.746364283316e+01 1.730961333703e+01 1.716040030067e+01 1.701574940090e+01 1.687541106964e+01 1.673912853642e+01 1.660657252626e+01 1.647717750285e+01 1.634946555360e+01 7.596512713700e-03 -1.088052983182e+00 -2.045197676830e+00 -2.874084907910e+00 -3.579733898825e+00 -4.166774430143e+00 -4.639740084321e+00 -5.003469894084e+00 -5.262883053045e+00 -5.422676021001e+00 -5.487722701354e+00 -8.979822080548e-01 4.176088072066e+00 9.191856614695e+00 1.411425680263e+01 1.883465564893e+01 1.850875860898e+01 1.831801322530e+01 1.813466695665e+01 1.795805806511e+01 1.778766530563e+01 1.762305663541e+01 1.746387019073e+01 1.730978862854e+01 1.716053259003e+01 1.701583885452e+01 1.687545769227e+01 1.673911747113e+01 1.660646117329e+01 1.647682293027e+01 1.634836666565e+01 9.709562271887e-03 -1.088772454365e+00 -2.045820560055e+00 -2.874543659558e+00 -3.580116248934e+00 -4.167120180828e+00 -4.640069051140e+00 -5.003791177144e+00 -5.263207575720e+00 -5.422999500250e+00 -5.488036115405e+00 -8.981378701850e-01 4.176027560543e+00 9.191924100547e+00 1.411446610707e+01 1.883447013649e+01 1.850854036490e+01 1.831790392943e+01 1.813464243010e+01 1.795809625823e+01 1.778774189005e+01 1.762315483504e+01 1.746397648665e+01 1.730989569590e+01 1.716063103001e+01 1.701592580454e+01 1.687552340464e+01 1.673914328525e+01 1.660638561176e+01 1.647643891031e+01 1.634688660565e+01 1.324962289937e-02 -1.090044030503e+00 -2.046842808505e+00 -2.875228729387e+00 -3.580686228320e+00 -4.167652231901e+00 -4.640557706946e+00 -5.004229742378e+00 -5.263606450862e+00 -5.423390282431e+00 -5.488447839807e+00 -8.983672838473e-01 4.175841120664e+00 9.191797627138e+00 1.411448200777e+01 1.883461687420e+01 1.850892219839e+01 1.831823065466e+01 1.813490772915e+01 1.795829979231e+01 1.778789173221e+01 1.762325775567e+01 1.746403939998e+01 1.730992150024e+01 1.716062161184e+01 1.701587666471e+01 1.687542509647e+01 1.673896387590e+01 1.660602397449e+01 1.647553168182e+01 1.634405909687e+01 2.002728048474e-02 -1.092581808602e+00 -2.048859999493e+00 -2.876298230196e+00 -3.581459875402e+00 -4.168620785156e+00 -4.641858545169e+00 -5.005747175994e+00 -5.265126187420e+00 -5.424722723111e+00 -5.489498548072e+00 -8.984542739344e-01 4.175667008630e+00 9.191529809889e+00 1.411419266497e+01 1.883425547136e+01 1.850917727093e+01 1.831876272091e+01 1.813561597125e+01 1.795907660350e+01 1.778864138379e+01 1.762390540371e+01 1.746452618748e+01 1.731020684273e+01 1.716067980763e+01 1.701569345917e+01 1.687499276352e+01 1.673825810762e+01 1.660489053087e+01 1.647330079599e+01 1.633812674235e+01 3.617107106184e-02 -1.098700476000e+00 -2.055929469687e+00 -2.880828365027e+00 -3.582917354769e+00 -4.167936883585e+00 -4.640507284199e+00 -5.005071107134e+00 -5.265976907729e+00 -5.427374852533e+00 -5.493693962657e+00 -8.986865809751e-01 4.176898725327e+00 9.194230376709e+00 1.411805641814e+01 1.884392832736e+01 1.852017316131e+01 1.832698992140e+01 1.814151365265e+01 1.796306044820e+01 1.779107093958e+01 1.762506949595e+01 1.746464381356e+01 1.730943418615e+01 1.715912455634e+01 1.701342649891e+01 1.687204045819e+01 1.673451662799e+01 1.659981813003e+01 1.646502308338e+01 1.632083640152e+01 9.529828177201e-02 -1.097257131678e+00 -2.069444795062e+00 -2.903723162913e+00 -3.609009131576e+00 -4.190840831393e+00 -4.655372549784e+00 -5.009379906688e+00 -5.259437560042e+00 -5.411352153153e+00 -5.469671940590e+00 -8.635961767862e-01 4.206018049688e+00 9.216649302329e+00 1.413480620922e+01 1.882978474000e+01 1.849133768937e+01 1.830246191541e+01 1.812107153110e+01 1.794629647659e+01 1.777754810930e+01 1.761440470142e+01 1.745654700175e+01 1.730371359334e+01 1.715566036408e+01 1.701208614806e+01 1.687246780250e+01 1.673568395409e+01 1.659911910087e+01 1.645653571650e+01 1.629385500746e+01 1.309742041633e-01 -1.133468656234e+00 -2.093417344041e+00 -2.914979936565e+00 -3.623039807356e+00 -4.221927156589e+00 -4.711371363928e+00 -5.091567428210e+00 -5.364310999260e+00 -5.532810823582e+00 -5.599643874151e+00 -8.900175707661e-01 4.139779791659e+00 9.118944276453e+00 1.404588117147e+01 1.877851690924e+01 1.849422670551e+01 1.830962716645e+01 1.813061452348e+01 1.795696561223e+01 1.778847404637e+01 1.762488799907e+01 1.746587268502e+01 1.731097455927e+01 1.715955543491e+01 1.701068456815e+01 1.686295709265e+01 1.671417924190e+01 1.656085919485e+01 1.639756151862e+01 1.621725638220e+01 1.603244683773e+00 -4.051240228904e-02 -1.323204007362e+00 -2.379293915908e+00 -3.186532607772e+00 -3.789828563179e+00 -4.235772868048e+00 -4.558706519996e+00 -4.781185532176e+00 -4.915283923240e+00 -4.965877122710e+00 -9.558018419748e-01 4.191232559430e+00 9.260059843392e+00 1.421865894820e+01 1.900187945946e+01 1.870522538154e+01 1.848237035367e+01 1.827690182115e+01 1.808578832068e+01 1.790690172730e+01 1.773884744026e+01 1.758084653438e+01 1.743268938993e+01 1.729486498716e+01 1.716869164857e+01 1.705667786758e+01 1.696365692189e+01 1.689895150848e+01 1.688162260787e+01 1.694757735154e+01 
        </DataArray>
        <DataArray type="Float64" Name="STRESS_2" format="ascii">