 TITLE = "Profiles along polylines"
 VARIABLES = "DIST" "A" "B" 
 ZONE T="TIME=0.000000000000e+00"
0.000000000000e+00 1.000000000000e-01 0.000000000000e+00 
4.000000000000e-05 1.000000000000e-01 0.000000000000e+00 
8.000000000000e-05 1.000000000000e-01 0.000000000000e+00 
1.200000000000e-04 1.000000000000e-01 0.000000000000e+00 
1.600000000000e-04 1.000000000000e-01 0.000000000000e+00 
2.000000000000e-04 1.000000000000e-01 0.000000000000e+00 
2.400000000000e-04 1.000000000000e-01 0.000000000000e+00 
2.800000000000e-04 1.000000000000e-01 0.000000000000e+00 
3.200000000000e-04 1.000000000000e-01 0.000000000000e+00 
3.600000000000e-04 1.000000000000e-01 0.000000000000e+00 
4.000000000000e-04 1.000000000000e-01 0.000000000000e+00 
4.400000000000e-04 1.000000000000e-01 0.000000000000e+00 
4.800000000000e-04 1.000000000000e-01 0.000000000000e+00 
5.200000000000e-04 1.000000000000e-01 0.000000000000e+00 
5.600000000000e-04 1.000000000000e-01 0.000000000000e+00 
6.000000000000e-04 1.000000000000e-01 0.000000000000e+00 
6.400000000000e-04 1.000000000000e-01 0.000000000000e+00 
6.800000000000e-04 1.000000000000e-01 0.000000000000e+00 
7.200000000000e-04 1.000000000000e-01 0.000000000000e+00 
7.600000000000e-04 1.000000000000e-01 0.000000000000e+00 
8.000000000000e-04 1.000000000000e-01 0.000000000000e+00 
8.400000000000e-04 1.000000000000e-01 0.000000000000e+00 
8.800000000000e-04 1.000000000000e-01 0.000000000000e+00 
9.200000000000e-04 1.000000000000e-01 0.000000000000e+00 
9.600000000000e-04 1.000000000000e-01 0.000000000000e+00 
1.000000000000e-03 1.000000000000e-01 0.000000000000e+00 
1.040000000000e-03 1.000000000000e-01 0.000000000000e+00 
1.080000000000e-03 1.000000000000e-01 0.000000000000e+00 
1.120000000000e-03 1.000000000000e-01 0.000000000000e+00 
1.160000000000e-03 1.000000000000e-01 0.000000000000e+00 
1.200000000000e-03 1.000000000000e-01 0.000000000000e+00 
1.240000000000e-03 1.000000000000e-01 0.000000000000e+00 
1.280000000000e-03 1.000000000000e-01 0.000000000000e+00 
1.320000000000e-03 1.000000000000e-01 0.000000000000e+00 
1.360000000000e-03 1.000000000000e-01 0.000000000000e+00 
1.400000000000e-03 1.000000000000e-01 0.000000000000e+00 
1.440000000000e-03 1.000000000000e-01 0.000000000000e+00 
1.480000000000e-03 1.000000000000e-01 0.000000000000e+00 
1.520000000000e-03 1.000000000000e-01 0.000000000000e+00 
1.560000000000e-03 1.000000000000e-01 0.000000000000e+00 
1.600000000000e-03 1.000000000000e-01 0.000000000000e+00 
1.640000000000e-03 1.000000000000e-01 0.000000000000e+00 
1.680000000000e-03 1.000000000000e-01 0.000000000000e+00 
1.720000000000e-03 1.000000000000e-01 0.000000000000e+00 
1.760000000000e-03 1.000000000000e-01 0.000000000000e+00 
1.800000000000e-03 1.000000000000e-01 0.000000000000e+00 
1.840000000000e-03 1.000000000000e-01 0.000000000000e+00 
1.880000000000e-03 1.000000000000e-01 0.000000000000e+00 
1.920000000000e-03 1.000000000000e-01 0.000000000000e+00 
1.960000000000e-03 1.000000000000e-01 0.000000000000e+00 
2.000000000000e-03 1.000000000000e-01 0.000000000000e+00 
2.040000000000e-03 1.000000000000e-01 0.000000000000e+00 
2.080000000000e-03 1.000000000000e-01 0.000000000000e+00 
2.120000000000e-03 1.000000000000e-01 0.000000000000e+00 
2.160000000000e-03 1.000000000000e-01 0.000000000000e+00 
2.200000000000e-03 1.000000000000e-01 0.000000000000e+00 
2.240000000000e-03 1.000000000000e-01 0.000000000000e+00 
2.280000000000e-03 1.000000000000e-01 0.000000000000e+00 
2.320000000000e-03 1.000000000000e-01 0.000000000000e+00 
2.360000000000e-03 1.000000000000e-01 0.000000000000e+00 
2.400000000000e-03 1.000000000000e-01 0.000000000000e+00 
2.440000000000e-03 1.000000000000e-01 0.000000000000e+00 
2.480000000000e-03 1.000000000000e-01 0.000000000000e+00 
2.520000000000e-03 1.000000000000e-01 0.000000000000e+00 
2.560000000000e-03 1.000000000000e-01 0.000000000000e+00 
2.600000000000e-03 1.000000000000e-01 0.000000000000e+00 
2.640000000000e-03 1.000000000000e-01 0.000000000000e+00 
2.680000000000e-03 1.000000000000e-01 0.000000000000e+00 
2.720000000000e-03 1.000000000000e-01 0.000000000000e+00 
2.760000000000e-03 1.000000000000e-01 0.000000000000e+00 
2.800000000000e-03 1.000000000000e-01 0.000000000000e+00 
2.840000000000e-03 1.000000000000e-01 0.000000000000e+00 
2.880000000000e-03 1.000000000000e-01 0.000000000000e+00 
2.920000000000e-03 1.000000000000e-01 0.000000000000e+00 
2.960000000000e-03 1.000000000000e-01 0.000000000000e+00 
3.000000000000e-03 1.000000000000e-01 0.000000000000e+00 
 TITLE = "Profiles along polylines"
 VARIABLES = "DIST" "A" "B" 
 ZONE T="TIME=3.100000000000e+05"
0.000000000000e+00 2.100000000000e+00 0.000000000000e+00 
4.000000000000e-05 -2.890045035744e+09 5.869743987229e+17 
8.000000000000e-05 -5.765532889072e+09 5.869743987229e+17 
1.200000000000e-04 -8.603096063227e+09 5.869743987229e+17 
1.600000000000e-04 -1.141846922869e+10 5.869743987229e+17 
2.000000000000e-04 -1.420164906958e+10 5.869743987229e+17 
2.400000000000e-04 -1.695541320997e+10 5.869743987229e+17 
2.800000000000e-04 -1.968549271385e+10 5.869743987229e+17 
3.200000000000e-04 -2.238834462401e+10 5.869743987229e+17 
3.600000000000e-04 -2.508463572704e+10 5.869743987229e+17 
4.000000000000e-04 -2.775862232372e+10 5.869743987229e+17 
4.400000000000e-04 -3.044611062100e+10 5.869743987229e+17 
4.800000000000e-04 -3.314075782919e+10 5.869743987229e+17 
5.200000000000e-04 -3.586452944477e+10 5.869743987229e+17 
5.600000000000e-04 -3.860496921767e+10 5.869743987229e+17 
6.000000000000e-04 -4.139261628251e+10 5.869743987229e+17 
6.400000000000e-04 -4.423323014643e+10 5.869743987229e+17 
6.800000000000e-04 -4.712199004550e+10 5.869743987229e+17 
7.200000000000e-04 -5.006502969866e+10 5.869743987229e+17 
7.600000000000e-04 -5.307342221988e+10 5.869743987229e+17 
8.000000000000e-04 -5.615113171357e+10 5.869743987229e+17 
8.400000000000e-04 -5.928398238166e+10 5.869743987229e+17 
8.800000000000e-04 -6.247470558404e+10 5.869743987229e+17 
9.200000000000e-04 -6.573648452846e+10 5.869743987229e+17 
9.600000000000e-04 -6.907918456220e+10 5.869743987229e+17 
1.000000000000e-03 -7.244023107915e+10 5.869743987229e+17 
1.040000000000e-03 -7.588338318579e+10 5.869743987229e+17 
1.080000000000e-03 -7.938308742963e+10 5.869743987229e+17 
1.120000000000e-03 -8.290342245563e+10 5.869743987229e+17 
1.160000000000e-03 -8.646394385990e+10 5.869743987229e+17 
1.200000000000e-03 -9.003188889270e+10 5.869743987229e+17 
1.240000000000e-03 -9.362021413918e+10 5.869743987229e+17 
1.280000000000e-03 -9.721461494223e+10 5.869743987229e+17 
1.320000000000e-03 -1.008578010701e+11 5.869743987229e+17 
1.360000000000e-03 -1.044987559398e+11 5.869743987229e+17 
1.400000000000e-03 -1.081901145480e+11 5.869743987229e+17 
1.440000000000e-03 -1.118856468723e+11 5.869743987229e+17 
1.480000000000e-03 -1.156505639492e+11 5.869743987229e+17 
1.520000000000e-03 -1.194803748873e+11 5.869743987229e+17 
1.560000000000e-03 -1.233602154083e+11 5.869743987229e+17 
1.600000000000e-03 -1.273720603877e+11 5.869743987229e+17 
1.640000000000e-03 -1.314862706417e+11 5.869743987229e+17 
1.680000000000e-03 -1.357716294046e+11 5.869743987229e+17 
1.720000000000e-03 -1.401972578734e+11 5.869743987229e+17 
1.760000000000e-03 -1.448226096383e+11 5.869743987229e+17 
1.800000000000e-03 -1.495944408998e+11 5.869743987229e+17 
1.840000000000e-03 -1.546190394977e+11 5.869743987229e+17 
1.880000000000e-03 -1.597750666712e+11 5.869743987229e+17 
1.920000000000e-03 -1.651405910791e+11 5.869743987229e+17 
1.960000000000e-03 -1.705297037430e+11 5.869743987229e+17 
2.000000000000e-03 -1.758702682199e+11 5.869743987229e+17 
2.040000000000e-03 -1.809104990646e+11 5.869743987229e+17 
2.080000000000e-03 -1.857208766042e+11 5.869743987229e+17 
2.120000000000e-03 -1.902656688964e+11 5.869743987229e+17 
2.160000000000e-03 -1.946936301025e+11 5.869743987229e+17 
2.200000000000e-03 -1.988578916018e+11 5.869743987229e+17 
2.240000000000e-03 -2.028937768297e+11 5.869743987229e+17 
2.280000000000e-03 -2.067302331950e+11 5.869743987229e+17 
2.320000000000e-03 -2.104254453241e+11 5.869743987229e+17 
2.360000000000e-03 -2.138711163708e+11 5.869743987229e+17 
2.400000000000e-03 -2.171782111286e+11 5.869743987229e+17 
2.440000000000e-03 -2.201868584446e+11 5.869743987229e+17 
2.480000000000e-03 -2.230348917759e+11 5.869743987229e+17 
2.520000000000e-03 -2.256303223757e+11 5.869743987229e+17 
2.560000000000e-03 -2.279993830812e+11 5.869743987229e+17 
2.600000000000e-03 -2.301963806864e+11 5.869743987229e+17 
2.640000000000e-03 -2.321751278700e+11 5.869743987229e+17 
2.680000000000e-03 -2.339035240049e+11 5.869743987229e+17 
2.720000000000e-03 -2.354941830323e+11 5.869743987229e+17 
2.760000000000e-03 -2.368545586366e+11 5.869743987229e+17 
2.800000000000e-03 -2.380175019720e+11 5.869743987229e+17 
2.840000000000e-03 -2.389941336749e+11 5.869743987229e+17 
2.880000000000e-03 -2.397580844154e+11 5.869743987229e+17 
2.920000000000e-03 -2.403252632582e+11 5.869743987229e+17 
2.960000000000e-03 -2.406658481892e+11 5.869743987229e+17 
3.000000000000e-03 -2.407823890952e+11 5.869743987229e+17 
