<?xml version="1.0"?>
<!-- Time step: 1 | Time: 8.640000000000e+04 -->
<VTKFile type="UnstructuredGrid" version="0.1" byte_order="LittleEndian">
  <UnstructuredGrid>
    <Piece NumberOfPoints="101" NumberOfCells="100">
      <Points>
        <DataArray type="Float64" NumberOfComponents="3" format="ascii">
          0.000000000000e+00 0.000000000000e+00 0.000000000000e+00
          1.000000000000e+00 0.000000000000e+00 0.000000000000e+00
          2.000000000000e+00 0.000000000000e+00 0.000000000000e+00
          3.000000000000e+00 0.000000000000e+00 0.000000000000e+00
          4.000000000000e+00 0.000000000000e+00 0.000000000000e+00
          5.000000000000e+00 0.000000000000e+00 0.000000000000e+00
          6.000000000000e+00 0.000000000000e+00 0.000000000000e+00
          7.000000000000e+00 0.000000000000e+00 0.000000000000e+00
          8.000000000000e+00 0.000000000000e+00 0.000000000000e+00
          9.000000000000e+00 0.000000000000e+00 0.000000000000e+00
          1.000000000000e+01 0.000000000000e+00 0.000000000000e+00
          1.100000000000e+01 0.000000000000e+00 0.000000000000e+00
          1.200000000000e+01 0.000000000000e+00 0.000000000000e+00
          1.300000000000e+01 0.000000000000e+00 0.000000000000e+00
          1.400000000000e+01 0.000000000000e+00 0.000000000000e+00
          1.500000000000e+01 0.000000000000e+00 0.000000000000e+00
          1.600000000000e+01 0.000000000000e+00 0.000000000000e+00
          1.700000000000e+01 0.000000000000e+00 0.000000000000e+00
          1.800000000000e+01 0.000000000000e+00 0.000000000000e+00
          1.900000000000e+01 0.000000000000e+00 0.000000000000e+00
          2.000000000000e+01 0.000000000000e+00 0.000000000000e+00
          2.100000000000e+01 0.000000000000e+00 0.000000000000e+00
          2.200000000000e+01 0.000000000000e+00 0.000000000000e+00
          2.300000000000e+01 0.000000000000e+00 0.000000000000e+00
          2.400000000000e+01 0.000000000000e+00 0.000000000000e+00
          2.500000000000e+01 0.000000000000e+00 0.000000000000e+00
          2.600000000000e+01 0.000000000000e+00 0.000000000000e+00
          2.700000000000e+01 0.000000000000e+00 0.000000000000e+00
          2.800000000000e+01 0.000000000000e+00 0.000000000000e+00
          2.900000000000e+01 0.000000000000e+00 0.000000000000e+00
          3.000000000000e+01 0.000000000000e+00 0.000000000000e+00
          3.100000000000e+01 0.000000000000e+00 0.000000000000e+00
          3.200000000000e+01 0.000000000000e+00 0.000000000000e+00
          3.300000000000e+01 0.000000000000e+00 0.000000000000e+00
          3.400000000000e+01 0.000000000000e+00 0.000000000000e+00
          3.500000000000e+01 0.000000000000e+00 0.000000000000e+00
          3.600000000000e+01 0.000000000000e+00 0.000000000000e+00
          3.700000000000e+01 0.000000000000e+00 0.000000000000e+00
          3.800000000000e+01 0.000000000000e+00 0.000000000000e+00
          3.900000000000e+01 0.000000000000e+00 0.000000000000e+00
          4.000000000000e+01 0.000000000000e+00 0.000000000000e+00
          4.100000000000e+01 0.000000000000e+00 0.000000000000e+00
          4.200000000000e+01 0.000000000000e+00 0.000000000000e+00
          4.300000000000e+01 0.000000000000e+00 0.000000000000e+00
          4.400000000000e+01 0.000000000000e+00 0.000000000000e+00
          4.500000000000e+01 0.000000000000e+00 0.000000000000e+00
          4.600000000000e+01 0.000000000000e+00 0.000000000000e+00
          4.700000000000e+01 0.000000000000e+00 0.000000000000e+00
          4.800000000000e+01 0.000000000000e+00 0.000000000000e+00
          4.900000000000e+01 0.000000000000e+00 0.000000000000e+00
          5.000000000000e+01 0.000000000000e+00 0.000000000000e+00
          5.100000000000e+01 0.000000000000e+00 0.000000000000e+00
          5.200000000000e+01 0.000000000000e+00 0.000000000000e+00
          5.300000000000e+01 0.000000000000e+00 0.000000000000e+00
          5.400000000000e+01 0.000000000000e+00 0.000000000000e+00
          5.500000000000e+01 0.000000000000e+00 0.000000000000e+00
          5.600000000000e+01 0.000000000000e+00 0.000000000000e+00
          5.700000000000e+01 0.000000000000e+00 0.000000000000e+00
          5.800000000000e+01 0.000000000000e+00 0.000000000000e+00
          5.900000000000e+01 0.000000000000e+00 0.000000000000e+00
          6.000000000000e+01 0.000000000000e+00 0.000000000000e+00
          6.100000000000e+01 0.000000000000e+00 0.000000000000e+00
          6.200000000000e+01 0.000000000000e+00 0.000000000000e+00
          6.300000000000e+01 0.000000000000e+00 0.000000000000e+00
          6.400000000000e+01 0.000000000000e+00 0.000000000000e+00
          6.500000000000e+01 0.000000000000e+00 0.000000000000e+00
          6.600000000000e+01 0.000000000000e+00 0.000000000000e+00
          6.700000000000e+01 0.000000000000e+00 0.000000000000e+00
          6.800000000000e+01 0.000000000000e+00 0.000000000000e+00
          6.900000000000e+01 0.000000000000e+00 0.000000000000e+00
          7.000000000000e+01 0.000000000000e+00 0.000000000000e+00
          7.100000000000e+01 0.000000000000e+00 0.000000000000e+00
          7.200000000000e+01 0.000000000000e+00 0.000000000000e+00
          7.300000000000e+01 0.000000000000e+00 0.000000000000e+00
          7.400000000000e+01 0.000000000000e+00 0.000000000000e+00
          7.500000000000e+01 0.000000000000e+00 0.000000000000e+00
          7.600000000000e+01 0.000000000000e+00 0.000000000000e+00
          7.700000000000e+01 0.000000000000e+00 0.000000000000e+00
          7.800000000000e+01 0.000000000000e+00 0.000000000000e+00
          7.900000000000e+01 0.000000000000e+00 0.000000000000e+00
          8.000000000000e+01 0.000000000000e+00 0.000000000000e+00
          8.100000000000e+01 0.000000000000e+00 0.000000000000e+00
          8.200000000000e+01 0.000000000000e+00 0.000000000000e+00
          8.300000000000e+01 0.000000000000e+00 0.000000000000e+00
          8.400000000000e+01 0.000000000000e+00 0.000000000000e+00
          8.500000000000e+01 0.000000000000e+00 0.000000000000e+00
          8.600000000000e+01 0.000000000000e+00 0.000000000000e+00
          8.700000000000e+01 0.000000000000e+00 0.000000000000e+00
          8.800000000000e+01 0.000000000000e+00 0.000000000000e+00
          8.900000000000e+01 0.000000000000e+00 0.000000000000e+00
          9.000000000000e+01 0.000000000000e+00 0.000000000000e+00
          9.100000000000e+01 0.000000000000e+00 0.000000000000e+00
          9.200000000000e+01 0.000000000000e+00 0.000000000000e+00
          9.300000000000e+01 0.000000000000e+00 0.000000000000e+00
          9.400000000000e+01 0.000000000000e+00 0.000000000000e+00
          9.500000000000e+01 0.000000000000e+00 0.000000000000e+00
          9.600000000000e+01 0.000000000000e+00 0.000000000000e+00
          9.700000000000e+01 0.000000000000e+00 0.000000000000e+00
          9.800000000000e+01 0.000000000000e+00 0.000000000000e+00
          9.900000000000e+01 0.000000000000e+00 0.000000000000e+00
          1.000000000000e+02 0.000000000000e+00 0.000000000000e+00
        </DataArray>
      </Points>
      <Cells>
        <DataArray type="Int64" Name="connectivity" format="ascii">
          0 1 
          1 2 
          2 3 
          3 4 
          4 5 
          5 6 
          6 7 
          7 8 
          8 9 
          9 10 
          10 11 
          11 12 
          12 13 
          13 14 
          14 15 
          15 16 
          16 17 
          17 18 
          18 19 
          19 20 
          20 21 
          21 22 
          22 23 
          23 24 
          24 25 
          25 26 
          26 27 
          27 28 
          28 29 
          29 30 
          30 31 
          31 32 
          32 33 
          33 34 
          34 35 
          35 36 
          36 37 
          37 38 
          38 39 
          39 40 
          40 41 
          41 42 
          42 43 
          43 44 
          44 45 
          45 46 
          46 47 
          47 48 
          48 49 
          49 50 
          50 51 
          51 52 
          52 53 
          53 54 
          54 55 
          55 56 
          56 57 
          57 58 
          58 59 
          59 60 
          60 61 
          61 62 
          62 63 
          63 64 
          64 65 
          65 66 
          66 67 
          67 68 
          68 69 
          69 70 
          70 71 
          71 72 
          72 73 
          73 74 
          74 75 
          75 76 
          76 77 
          77 78 
          78 79 
          79 80 
          80 81 
          81 82 
          82 83 
          83 84 
          84 85 
          85 86 
          86 87 
          87 88 
          88 89 
          89 90 
          90 91 
          91 92 
          92 93 
          93 94 
          94 95 
          95 96 
          96 97 
          97 98 
          98 99 
          99 100 
        </DataArray>
        <DataArray type="Int64" Name="offsets" format="ascii">
          2 4 6 8 10 12 14 16 18 20 22 24 26 28 30 32 34 36 38 40 42 44 46 48 50 52 54 56 58 60 62 64 66 68 70 72 74 76 78 80 82 84 86 88 90 92 94 96 98 100 102 104 106 108 110 112 114 116 118 120 122 124 126 128 130 132 134 136 138 140 142 144 146 148 150 152 154 156 158 160 162 164 166 168 170 172 174 176 178 180 182 184 186 188 190 192 194 196 198 200 
        </DataArray>
        <DataArray type="UInt8" Name="types" format="ascii">
          3 3 3 3 3 3 3 3 3 3 3 3 3 3 3 3 3 3 3 3 3 3 3 3 3 3 3 3 3 3 3 3 3 3 3 3 3 3 3 3 3 3 3 3 3 3 3 3 3 3 3 3 3 3 3 3 3 3 3 3 3 3 3 3 3 3 3 3 3 3 3 3 3 3 3 3 3 3 3 3 3 3 3 3 3 3 3 3 3 3 3 3 3 3 3 3 3 3 3 3 
        </DataArray>
      </Cells>
      <PointData Scalars="PRESSURE1">
        <DataArray type="Float64" Name="PRESSURE1" format="ascii">
          9.810000000000e+03 9.711900000001e+03 9.613800000001e+03 9.515700000002e+03 9.417600000002e+03 9.319500000003e+03 9.221400000003e+03 9.123300000004e+03 9.025200000005e+03 8.927100000005e+03 8.829000000006e+03 8.730900000006e+03 8.632800000007e+03 8.534700000007e+03 8.436600000008e+03 8.338500000009e+03 8.240400000009e+03 8.142300000010e+03 8.044200000010e+03 7.946100000011e+03 7.848000000011e+03 7.749900000012e+03 7.651800000012e+03 7.553700000013e+03 7.455600000014e+03 7.357500000014e+03 7.259400000015e+03 7.161300000015e+03 7.063200000016e+03 6.965100000016e+03 6.867000000017e+03 6.768900000017e+03 6.670800000018e+03 6.572700000018e+03 6.474600000019e+03 6.376500000019e+03 6.278400000020e+03 6.180300000020e+03 6.082200000021e+03 5.984100000021e+03 5.886000000021e+03 5.787900000022e+03 5.689800000022e+03 5.591700000023e+03 5.493600000023e+03 5.395500000023e+03 5.297400000024e+03 5.199300000024e+03 5.101200000024e+03 5.003100000024e+03 4.905000000025e+03 4.806900000025e+03 4.708800000025e+03 4.610700000025e+03 4.512600000025e+03 4.414500000025e+03 4.316400000025e+03 4.218300000025e+03 4.120200000025e+03 4.022100000025e+03 3.924000000025e+03 3.825900000025e+03 3.727800000025e+03 3.629700000025e+03 3.531600000025e+03 3.433500000025e+03 3.335400000024e+03 3.237300000024e+03 3.139200000024e+03 3.041100000023e+03 2.943000000023e+03 2.844900000023e+03 2.746800000022e+03 2.648700000022e+03 2.550600000021e+03 2.452500000021e+03 2.354400000020e+03 2.256300000020e+03 2.158200000019e+03 2.060100000018e+03 1.962000000018e+03 1.863900000017e+03 1.765800000016e+03 1.667700000015e+03 1.569600000015e+03 1.471500000014e+03 1.373400000013e+03 1.275300000012e+03 1.177200000011e+03 1.079100000010e+03 9.810000000095e+02 8.829000000086e+02 7.848000000077e+02 6.867000000068e+02 5.886000000058e+02 4.905000000049e+02 3.924000000039e+02 2.943000000029e+02 1.962000000019e+02 9.810000000097e+01 0.000000000000e+00 
        </DataArray>
        <DataArray type="Float64" Name="GL_NODAL_VELOCITY1" NumberOfComponents="3" format="ascii">
          9.809999999943e-08 0.000000000000e+00 0.000000000000e+00 9.809999999943e-08 0.000000000000e+00 0.000000000000e+00 9.809999999943e-08 0.000000000000e+00 0.000000000000e+00 9.809999999942e-08 0.000000000000e+00 0.000000000000e+00 9.809999999943e-08 0.000000000000e+00 0.000000000000e+00 9.809999999943e-08 0.000000000000e+00 0.000000000000e+00 9.809999999943e-08 0.000000000000e+00 0.000000000000e+00 9.809999999944e-08 0.000000000000e+00 0.000000000000e+00 9.809999999943e-08 0.000000000000e+00 0.000000000000e+00 9.809999999943e-08 0.000000000000e+00 0.000000000000e+00 9.809999999943e-08 0.000000000000e+00 0.000000000000e+00 9.809999999943e-08 0.000000000000e+00 0.000000000000e+00 9.809999999943e-08 0.000000000000e+00 0.000000000000e+00 9.809999999943e-08 0.000000000000e+00 0.000000000000e+00 9.809999999943e-08 0.000000000000e+00 0.000000000000e+00 9.809999999943e-08 0.000000000000e+00 0.000000000000e+00 9.809999999944e-08 0.000000000000e+00 0.000000000000e+00 9.809999999944e-08 0.000000000000e+00 0.000000000000e+00 9.809999999944e-08 0.000000000000e+00 0.000000000000e+00 9.809999999944e-08 0.000000000000e+00 0.000000000000e+00 9.809999999944e-08 0.000000000000e+00 0.000000000000e+00 9.809999999944e-08 0.000000000000e+00 0.000000000000e+00 9.809999999945e-08 0.000000000000e+00 0.000000000000e+00 9.809999999945e-08 0.000000000000e+00 0.000000000000e+00 9.809999999945e-08 0.000000000000e+00 0.000000000000e+00 9.809999999946e-08 0.000000000000e+00 0.000000000000e+00 9.809999999947e-08 0.000000000000e+00 0.000000000000e+00 9.809999999947e-08 0.000000000000e+00 0.000000000000e+00 9.809999999947e-08 0.000000000000e+00 0.000000000000e+00 9.809999999948e-08 0.000000000000e+00 0.000000000000e+00 9.809999999949e-08 0.000000000000e+00 0.000000000000e+00 9.809999999950e-08 0.000000000000e+00 0.000000000000e+00 9.809999999950e-08 0.000000000000e+00 0.000000000000e+00 9.809999999951e-08 0.000000000000e+00 0.000000000000e+00 9.809999999952e-08 0.000000000000e+00 0.000000000000e+00 9.809999999953e-08 0.000000000000e+00 0.000000000000e+00 9.809999999954e-08 0.000000000000e+00 0.000000000000e+00 9.809999999955e-08 0.000000000000e+00 0.000000000000e+00 9.809999999957e-08 0.000000000000e+00 0.000000000000e+00 9.809999999958e-08 0.000000000000e+00 0.000000000000e+00 9.809999999960e-08 0.000000000000e+00 0.000000000000e+00 9.809999999961e-08 0.000000000000e+00 0.000000000000e+00 9.809999999962e-08 0.000000000000e+00 0.000000000000e+00 9.809999999964e-08 0.000000000000e+00 0.000000000000e+00 9.809999999966e-08 0.000000000000e+00 0.000000000000e+00 9.809999999968e-08 0.000000000000e+00 0.000000000000e+00 9.809999999971e-08 0.000000000000e+00 0.000000000000e+00 9.809999999973e-08 0.000000000000e+00 0.000000000000e+00 9.809999999974e-08 0.000000000000e+00 0.000000000000e+00 9.809999999977e-08 0.000000000000e+00 0.000000000000e+00 9.809999999979e-08 0.000000000000e+00 0.000000000000e+00 9.809999999981e-08 0.000000000000e+00 0.000000000000e+00 9.809999999984e-08 0.000000000000e+00 0.000000000000e+00 9.809999999987e-08 0.000000000000e+00 0.000000000000e+00 9.809999999990e-08 0.000000000000e+00 0.000000000000e+00 9.809999999993e-08 0.000000000000e+00 0.000000000000e+00 9.809999999995e-08 0.000000000000e+00 0.000000000000e+00 9.809999999998e-08 0.000000000000e+00 0.000000000000e+00 9.810000000000e-08 0.000000000000e+00 0.000000000000e+00 9.810000000004e-08 0.000000000000e+00 0.000000000000e+00 9.810000000007e-08 0.000000000000e+00 0.000000000000e+00 9.810000000011e-08 0.000000000000e+00 0.000000000000e+00 9.810000000014e-08 0.000000000000e+00 0.000000000000e+00 9.810000000016e-08 0.000000000000e+00 0.000000000000e+00 9.810000000019e-08 0.000000000000e+00 0.000000000000e+00 9.810000000022e-08 0.000000000000e+00 0.000000000000e+00 9.810000000026e-08 0.000000000000e+00 0.000000000000e+00 9.810000000030e-08 0.000000000000e+00 0.000000000000e+00 9.810000000033e-08 0.000000000000e+00 0.000000000000e+00 9.810000000036e-08 0.000000000000e+00 0.000000000000e+00 9.810000000039e-08 0.000000000000e+00 0.000000000000e+00 9.810000000042e-08 0.000000000000e+00 0.000000000000e+00 9.810000000045e-08 0.000000000000e+00 0.000000000000e+00 9.810000000048e-08 0.000000000000e+00 0.000000000000e+00 9.810000000052e-08 0.000000000000e+00 0.000000000000e+00 9.810000000055e-08 0.000000000000e+00 0.000000000000e+00 9.810000000058e-08 0.000000000000e+00 0.000000000000e+00 9.810000000061e-08 0.000000000000e+00 0.000000000000e+00 9.810000000063e-08 0.000000000000e+00 0.000000000000e+00 9.810000000066e-08 0.000000000000e+00 0.000000000000e+00 9.810000000069e-08 0.000000000000e+00 0.000000000000e+00 9.810000000072e-08 0.000000000000e+00 0.000000000000e+00 9.810000000075e-08 0.000000000000e+00 0.000000000000e+00 9.810000000077e-08 0.000000000000e+00 0.000000000000e+00 9.810000000079e-08 0.000000000000e+00 0.000000000000e+00 9.810000000081e-08 0.000000000000e+00 0.000000000000e+00 9.810000000083e-08 0.000000000000e+00 0.000000000000e+00 9.810000000085e-08 0.000000000000e+00 0.000000000000e+00 9.810000000087e-08 0.000000000000e+00 0.000000000000e+00 9.810000000089e-08 0.000000000000e+00 0.000000000000e+00 9.810000000090e-08 0.000000000000e+00 0.000000000000e+00 9.810000000092e-08 0.000000000000e+00 0.000000000000e+00 9.810000000093e-08 0.000000000000e+00 0.000000000000e+00 9.810000000094e-08 0.000000000000e+00 0.000000000000e+00 9.810000000095e-08 0.000000000000e+00 0.000000000000e+00 9.810000000096e-08 0.000000000000e+00 0.000000000000e+00 9.810000000097e-08 0.000000000000e+00 0.000000000000e+00 9.810000000097e-08 0.000000000000e+00 0.000000000000e+00 9.810000000098e-08 0.000000000000e+00 0.000000000000e+00 9.810000000097e-08 0.000000000000e+00 0.000000000000e+00 9.810000000097e-08 0.000000000000e+00 0.000000000000e+00 
        </DataArray>
      </PointData>
      <CellData>
      </CellData>
    </Piece>
  </UnstructuredGrid>
</VTKFile>
