 TITLE = "Time curves in points"
 VARIABLES = "TIME "  "DISPLACEMENT_X1"  "DISPLACEMENT_Y1"  "STRESS_XX"  "STRESS_XY"  "STRESS_YY"  "STRESS_ZZ"  "STRAIN_XX"  "STRAIN_XY"  "STRAIN_YY"  "STRAIN_PLS"  p_(1st_Invariant)  q_(2nd_Invariant)   Effective_Strain
 ZONE T="POINT=POINT6"
0.000000000000e+00 0.000000000000e+00 0.000000000000e+00 0.000000000000e+00 0.000000000000e+00 0.000000000000e+00 0.000000000000e+00 0.000000000000e+00 0.000000000000e+00 0.000000000000e+00 0.000000000000e+00 -0.000000000000e+00 0.000000000000e+00  0.000000000000e+00
1.000000000000e-02 -2.902016103640e-10 -7.023555564713e-06 7.660220223804e+03 -2.214779038810e-02 1.477220471805e+03 3.654976278244e+03 1.869113841262e-04 -2.067127102890e-09 -1.016286043005e-04 0.000000000000e+00 -4.264138991284e+03 5.432038537791e+03  2.534951317825e-04
7.000000000000e-02 -1.545114309377e-10 -2.417685719187e-05 7.782094153880e+03 -1.140683772354e-02 -7.060690648056e+03 2.885614023295e+02 3.496981950723e-04 -1.064638187530e-09 -3.429650956846e-04 0.000000000000e+00 -3.366549693844e+02 1.285443113241e+04  5.998734528481e-04
4.300000000000e-01 -7.846894897717e-10 -1.270937731021e-04 8.513354356138e+03 -5.728269454936e-02 -5.828628481574e+04 -1.990917218384e+04 1.326384571866e-03 -5.346384824606e-09 -1.790931922822e-03 0.000000000000e+00 2.322736754781e+04 5.806390695772e+04  2.709648991372e-03
1.430000000000e+00 7.425060163352e-10 -4.129525151835e-04 1.054532326439e+04 6.059092970044e-02 -2.005674094173e+05 -7.600883446118e+04 4.039194027193e-03 5.655153438708e-09 -5.812733497954e-03 0.000000000000e+00 8.867697353804e+04 1.838138279824e+05  8.577978639181e-03
2.430000000000e+00 9.373164624993e-10 -6.987887217334e-04 1.257830789270e+04 6.274828612125e-02 -3.428358935952e+05 -1.321030342810e+05 6.751795968105e-03 5.856506704646e-09 -9.834200101328e-03 0.000000000000e+00 1.541202066611e+05 3.095644386773e+05  1.444634047161e-02
3.430000000000e+00 -4.961917523864e-10 -9.846117012513e-04 1.461246366684e+04 -3.784525770082e-02 -4.850962873722e+05 -1.881935294821e+05 9.464279680285e-03 -3.532224052080e-09 -1.385546203487e-02 0.000000000000e+00 2.195591177291e+05 4.353104377136e+05  2.031448709330e-02
4.430000000000e+00 1.007885975639e-09 -1.270425950999e-03 1.664772350343e+04 6.644459771918e-02 -6.273509211562e+05 -2.442812790611e+05 1.217668678635e-02 6.201495787116e-09 -1.787658329777e-02 0.000000000000e+00 2.849948255713e+05 5.610528270126e+05  2.618246526059e-02
5.430000000000e+00 -3.894854021323e-10 -1.556234041720e-03 1.868392836619e+04 -3.713510420343e-02 -7.696012188350e+05 -3.003669161875e+05 1.488903941251e-02 -3.465943058991e-09 -2.189760079022e-02 0.000000000000e+00 3.504280688855e+05 6.867924524518e+05  3.205031444775e-02
6.430000000000e+00 1.447110880720e-10 -1.842037517278e-03 2.072090352393e+04 1.142136712329e-02 -9.118481490361e+05 -3.564508982049e+05 1.760135074734e-02 1.065994264843e-09 -2.591853837213e-02 0.000000000000e+00 4.158593812390e+05 8.125299108473e+05  3.791806250621e-02
7.430000000000e+00 -6.586034267887e-10 -2.127837398074e-03 2.275848462933e+04 -4.757763010487e-02 -1.054092407366e+06 -4.125335690948e+05 2.031362917379e-02 -4.440578809780e-09 -2.993941245267e-02 0.000000000000e+00 4.812891639439e+05 9.382656229958e+05  4.378572907314e-02
8.430000000000e+00 5.836421904000e-10 -2.413634371014e-03 2.479652192693e+04 3.732034059295e-02 -1.196334505137e+06 -4.686151932841e+05 2.302588004318e-02 3.483231788683e-09 -3.396023455315e-02 0.000000000000e+00 5.467177254981e+05 1.063999883179e+06  4.965332788169e-02
9.430000000000e+00 -5.190752389652e-11 -2.699677749934e-03 2.687318275194e+04 -4.786442939242e-03 -1.338549266766e+06 -5.246704336055e+05 2.573870209668e-02 -4.467346743193e-10 -3.798101221414e-02 0.000000000000e+00 6.121155058730e+05 1.189743161665e+06  5.552134754437e-02
