 TITLE = "Time curves in points"
 VARIABLES = "TIME "  "PRESSURE1"  "PRESSURE2"  "PRESSURE_W"  "SATURATION1" SATURATION2  "VELOCITY_X1"  "VELOCITY_Y1"  "VELOCITY_X2"  "VELOCITY_Y2"  p_(1st_Invariant)  q_(2nd_Invariant)   Effective_Strain
 ZONE T="POINT=POINT6"
0.000000000000e+00 1.000000000000e+05 1.000000000000e+05 0.000000000000e+00 9.251121356155e-01 7.488786438454e-02 0.000000000000e+00 0.000000000000e+00 0.000000000000e+00 0.000000000000e+00 -0.000000000000e+00 0.000000000000e+00  0.000000000000e+00
1.000000000000e-02 9.999999997033e+04 1.000000000000e+05 2.967139880639e-05 9.251121356792e-01 7.488786432075e-02 6.851803145045e-20 -9.238128874765e-07 2.912188385806e-21 -2.352899965539e-11 -4.264138991284e+03 5.432038537791e+03  2.534951317825e-04
7.000000000000e-02 1.000000000059e+05 1.000000000000e+05 -5.933499778621e-06 9.251121356027e-01 7.488786439730e-02 1.370360633275e-19 -9.238121441188e-07 8.309351917438e-22 -2.352899967866e-11 -3.366549693844e+02 1.285443113241e+04  5.998734528481e-04
4.300000000000e-01 9.999999505604e+04 1.000000000000e+05 4.943956053467e-03 9.251121462450e-01 7.488785375504e-02 -1.370361329703e-19 -9.237390074512e-07 -4.179378393364e-21 -2.352899663794e-11 2.322736754781e+04 5.806390695772e+04  2.709648991372e-03
1.430000000000e+00 9.999922361495e+04 1.000000000000e+05 7.763850501942e-01 9.251138048426e-01 7.488619515735e-02 -6.852260852577e-20 -9.182193373147e-07 -1.009151804386e-21 -2.352852296419e-11 8.867697355347e+04 1.838138277251e+05  8.577978627175e-03
2.430000000000e+00 9.999699299434e+04 1.000000000000e+05 3.007005661115e+00 9.251186006750e-01 7.488139932495e-02 1.370742905716e-19 -9.055005094915e-07 -1.232978184125e-20 -2.352715333301e-11 1.541202078233e+05 3.095644402894e+05  1.444634054684e-02
3.430000000000e+00 9.999299217064e+04 1.000000000000e+05 7.007829361668e+00 9.251272024426e-01 7.487279755744e-02 1.371339208072e-19 -8.867782569228e-07 -3.042727815505e-22 -2.352469678137e-11 2.195591223863e+05 4.353104425962e+05  2.031448732116e-02
4.430000000000e+00 9.998725735721e+04 1.000000000000e+05 1.274264279097e+01 9.251395322865e-01 7.486046771349e-02 3.429757855085e-19 -8.642973404337e-07 -8.916236695475e-22 -2.352117553078e-11 2.849948286308e+05 5.610528286924e+05  2.618246533898e-02
5.430000000000e+00 9.998000585451e+04 1.000000000000e+05 1.999414549235e+01 9.251551230111e-01 7.484487698891e-02 5.490973139773e-19 -8.400616627048e-07 -7.992960786014e-22 -2.351672301754e-11 3.504280683668e+05 6.867924513084e+05  3.205031439439e-02
6.430000000000e+00 9.997150879415e+04 1.000000000000e+05 2.849120584916e+01 9.251733916836e-01 7.482660831644e-02 7.555881311021e-19 -8.154693519862e-07 1.778650554912e-22 -2.351150571927e-11 4.158593811941e+05 8.125299123791e+05  3.791806257769e-02
7.430000000000e+00 9.996202563199e+04 1.000000000000e+05 3.797436800982e+01 9.251937804741e-01 7.480621952594e-02 -6.879040301221e-20 -7.913715936317e-07 1.635052184159e-21 -2.350568293764e-11 4.812891648582e+05 9.382656219703e+05  4.378572902528e-02
8.430000000000e+00 9.995177959605e+04 1.000000000000e+05 4.822040395231e+01 9.252158094425e-01 7.478419055747e-02 -8.945754417996e-19 -7.682320172147e-07 -4.917552445997e-21 -2.349939174436e-11 5.467177251239e+05 1.063999883897e+06  4.965332791521e-02
9.430000000000e+00 9.994095346790e+04 1.000000000000e+05 5.904653209804e+01 9.252390856087e-01 7.476091439125e-02 -3.581515286617e-18 -7.462678215757e-07 -1.383369522969e-20 -2.349274436924e-11 6.121155048351e+05 1.189743163167e+06  5.552134761445e-02
