 TITLE = "Time curves in points"
 VARIABLES = "TIME "  "TEMPERATURE1"  p_(1st_Invariant)  q_(2nd_Invariant)   Effective_Strain
 ZONE T="POINT=POINT6"
0.000000000000e+00 3.000000000000e+01 -0.000000000000e+00 0.000000000000e+00  0.000000000000e+00
1.000000000000e-02 3.000000000000e+01 -4.264138991284e+03 5.432038537791e+03  2.534951317825e-04
7.000000000000e-02 3.000000000000e+01 -3.366549693844e+02 1.285443113241e+04  5.998734528481e-04
4.300000000000e-01 3.000000000000e+01 2.322736754781e+04 5.806390695772e+04  2.709648991372e-03
1.430000000000e+00 3.000000000000e+01 8.867697355347e+04 1.838138277251e+05  8.577978627175e-03
2.430000000000e+00 3.000000000000e+01 1.541202078233e+05 3.095644402894e+05  1.444634054684e-02
3.430000000000e+00 3.000000000000e+01 2.195591223863e+05 4.353104425962e+05  2.031448732116e-02
4.430000000000e+00 3.000000000000e+01 2.849948286308e+05 5.610528286924e+05  2.618246533898e-02
5.430000000000e+00 3.000000000000e+01 3.504280683668e+05 6.867924513084e+05  3.205031439439e-02
6.430000000000e+00 3.000000000000e+01 4.158593811941e+05 8.125299123791e+05  3.791806257769e-02
7.430000000000e+00 3.000000000000e+01 4.812891648582e+05 9.382656219703e+05  4.378572902528e-02
8.430000000000e+00 3.000000000000e+01 5.467177251239e+05 1.063999883897e+06  4.965332791521e-02
9.430000000000e+00 3.000000000000e+01 6.121155048351e+05 1.189743163167e+06  5.552134761445e-02
