 TITLE = "Time curves in points"
 VARIABLES = "TIME "  "PRESSURE1"  "PRESSURE2"  "PRESSURE_W"  "SATURATION1" SATURATION2  "VELOCITY_X1"  "VELOCITY_Y1"  "VELOCITY_X2"  "VELOCITY_Y2"  p_(1st_Invariant)  q_(2nd_Invariant)   Effective_Strain
 ZONE T="POINT=POINT6"
0.000000000000e+00 1.000000000000e+05 1.000000000000e+05 0.000000000000e+00 9.251121356155e-01 7.488786438454e-02 0.000000000000e+00 0.000000000000e+00 0.000000000000e+00 0.000000000000e+00 -0.000000000000e+00 0.000000000000e+00  0.000000000000e+00
1.000000000000e-02 9.999999997033e+04 1.000000000000e+05 2.967139880639e-05 9.251121356792e-01 7.488786432075e-02 6.851803145045e-20 -9.238128874765e-07 2.912188385806e-21 -2.352899965539e-11 -4.264136786325e+03 5.432034736904e+03  2.534949544077e-04
7.000000000000e-02 1.000000000059e+05 1.000000000000e+05 -5.933499778621e-06 9.251121356027e-01 7.488786439730e-02 1.370360633275e-19 -9.238121441188e-07 8.309351917438e-22 -2.352899967866e-11 -3.366526923749e+02 1.285442919214e+04  5.998733623336e-04
4.300000000000e-01 9.999999505604e+04 1.000000000000e+05 4.943956053467e-03 9.251121462450e-01 7.488785375504e-02 -1.370361329703e-19 -9.237390074512e-07 -4.179378393364e-21 -2.352899663794e-11 2.322737032662e+04 5.806390795630e+04  2.709649037975e-03
1.430000000000e+00 9.999922361495e+04 1.000000000000e+05 7.763850501942e-01 9.251138048426e-01 7.488619515735e-02 -1.370466367867e-19 -9.182193373147e-07 -1.053652991195e-20 -2.352852296055e-11 8.867697120933e+04 1.838138283929e+05  8.577978658336e-03
2.430000000000e+00 9.999699299434e+04 1.000000000000e+05 3.007005661115e+00 9.251186006750e-01 7.488139932496e-02 6.853778987767e-20 -9.055005094915e-07 -1.072485264132e-20 -2.352715333546e-11 1.541202103884e+05 3.095644397080e+05  1.444634051971e-02
3.430000000000e+00 9.999299217064e+04 1.000000000000e+05 7.007829361537e+00 9.251272024426e-01 7.487279755744e-02 1.371149886947e-19 -8.867782569226e-07 4.697057039486e-22 -2.352469677087e-11 2.195591223567e+05 4.353104415844e+05  2.031448727394e-02
4.430000000000e+00 9.998725735721e+04 1.000000000000e+05 1.274264279092e+01 9.251395322865e-01 7.486046771349e-02 2.057700326811e-19 -8.642973404336e-07 5.140309510574e-21 -2.352117552894e-11 2.849948290779e+05 5.610528284802e+05  2.618246532908e-02
5.430000000000e+00 9.998000585451e+04 1.000000000000e+05 1.999414549221e+01 9.251551230111e-01 7.484487698891e-02 6.865741510444e-20 -8.400616627049e-07 1.240124602963e-20 -2.351672301381e-11 3.504280689011e+05 6.867924520157e+05  3.205031442740e-02
6.430000000000e+00 9.997150879415e+04 1.000000000000e+05 2.849120584904e+01 9.251733916836e-01 7.482660831644e-02 2.060217865569e-19 -8.154693519863e-07 1.591833105114e-20 -2.351150571712e-11 4.158593759679e+05 8.125299123736e+05  3.791806257744e-02
7.430000000000e+00 9.996202563199e+04 1.000000000000e+05 3.797436800976e+01 9.251937804741e-01 7.480621952594e-02 6.867141682551e-20 -7.913715936316e-07 1.256949333839e-20 -2.350568293091e-11 4.812891652011e+05 9.382656221505e+05  4.378572903369e-02
8.430000000000e+00 9.995177959605e+04 1.000000000000e+05 4.822040395222e+01 9.252158094425e-01 7.478419055747e-02 -1.101028670858e-18 -7.682320172146e-07 9.743558388633e-21 -2.349939175055e-11 5.467177259236e+05 1.063999884681e+06  4.965332795177e-02
9.430000000000e+00 9.994095346790e+04 1.000000000000e+05 5.904653209797e+01 9.252390856087e-01 7.476091439125e-02 -3.443935967745e-18 -7.462678215756e-07 1.176642262087e-20 -2.349274438609e-11 6.121155051597e+05 1.189743161479e+06  5.552134753569e-02
