 TITLE = "Time curves in points"
 VARIABLES = "TIME "  "TEMPERATURE1"  p_(1st_Invariant)  q_(2nd_Invariant)   Effective_Strain
 ZONE T="POINT=POINT6"
0.000000000000e+00 3.000000000000e+01 -0.000000000000e+00 0.000000000000e+00  0.000000000000e+00
1.000000000000e-02 3.000000000000e+01 -4.264136733428e+03 5.432034511439e+03  2.534949439706e-04
7.000000000000e-02 3.000000000000e+01 -3.366563582037e+02 1.285442882795e+04  5.998733453242e-04
4.300000000000e-01 3.000000000000e+01 2.322736822905e+04 5.806390768245e+04  2.709649025189e-03
1.430000000000e+00 3.000000000000e+01 8.867697313640e+04 1.838138256297e+05  8.577978529388e-03
2.430000000000e+00 3.000000000000e+01 1.541202071248e+05 3.095644394550e+05  1.444634050790e-02
3.430000000000e+00 3.000000000000e+01 2.195591217811e+05 4.353104435824e+05  2.031448736718e-02
4.430000000000e+00 3.000000000000e+01 2.849948285619e+05 5.610528281779e+05  2.618246531497e-02
5.430000000000e+00 3.000000000000e+01 3.504280697123e+05 6.867924527027e+05  3.205031445946e-02
6.430000000000e+00 3.000000000000e+01 4.158593798716e+05 8.125299121540e+05  3.791806256719e-02
7.430000000000e+00 3.000000000000e+01 4.812891649116e+05 9.382656217815e+05  4.378572901647e-02
8.430000000000e+00 3.000000000000e+01 5.467177239878e+05 1.063999885141e+06  4.965332797325e-02
9.430000000000e+00 3.000000000000e+01 6.121155046361e+05 1.189743163311e+06  5.552134762117e-02
