VARIABLES  = "X","Y","Z", "PRESSURE1", "PRESSURE2", "PRESSURE_W", "SATURATION1", SATURATION2, "VELOCITY_X1", "VELOCITY_Y1", "VELOCITY_X2", "VELOCITY_Y2"
ZONE T="0.000000000000e+00s", N=385, E=340, F=FEPOINT, ET=QUADRILATERAL
STRANDID=1, SOLUTIONTIME=0.000000000000e+00
0.000000000000e+00 0.000000000000e+00 3.400000000000e-01 1.000000000000e+05 1.000000000000e+05 0.000000000000e+00 9.251121356155e-01 7.488786438454e-02 0.000000000000e+00 0.000000000000e+00 0.000000000000e+00 0.000000000000e+00 
1.000000000000e-02 0.000000000000e+00 3.400000000000e-01 1.000000000000e+05 1.000000000000e+05 0.000000000000e+00 9.251121356155e-01 7.488786438454e-02 0.000000000000e+00 0.000000000000e+00 0.000000000000e+00 0.000000000000e+00 
2.000000000000e-02 0.000000000000e+00 3.400000000000e-01 1.000000000000e+05 1.000000000000e+05 0.000000000000e+00 9.251121356155e-01 7.488786438454e-02 0.000000000000e+00 0.000000000000e+00 0.000000000000e+00 0.000000000000e+00 
3.000000000000e-02 0.000000000000e+00 3.400000000000e-01 1.000000000000e+05 1.000000000000e+05 0.000000000000e+00 9.251121356155e-01 7.488786438454e-02 0.000000000000e+00 0.000000000000e+00 0.000000000000e+00 0.000000000000e+00 
4.000000000000e-02 0.000000000000e+00 3.400000000000e-01 1.000000000000e+05 1.000000000000e+05 0.000000000000e+00 9.251121356155e-01 7.488786438454e-02 0.000000000000e+00 0.000000000000e+00 0.000000000000e+00 0.000000000000e+00 
5.000000000000e-02 0.000000000000e+00 3.400000000000e-01 1.000000000000e+05 1.000000000000e+05 0.000000000000e+00 9.251121356155e-01 7.488786438454e-02 0.000000000000e+00 0.000000000000e+00 0.000000000000e+00 0.000000000000e+00 
6.000000000000e-02 0.000000000000e+00 3.400000000000e-01 1.000000000000e+05 1.000000000000e+05 0.000000000000e+00 9.251121356155e-01 7.488786438454e-02 0.000000000000e+00 0.000000000000e+00 0.000000000000e+00 0.000000000000e+00 
7.000000000000e-02 0.000000000000e+00 3.400000000000e-01 1.000000000000e+05 1.000000000000e+05 0.000000000000e+00 9.251121356155e-01 7.488786438454e-02 0.000000000000e+00 0.000000000000e+00 0.000000000000e+00 0.000000000000e+00 
8.000000000000e-02 0.000000000000e+00 3.400000000000e-01 1.000000000000e+05 1.000000000000e+05 0.000000000000e+00 9.251121356155e-01 7.488786438454e-02 0.000000000000e+00 0.000000000000e+00 0.000000000000e+00 0.000000000000e+00 
9.000000000000e-02 0.000000000000e+00 3.400000000000e-01 1.000000000000e+05 1.000000000000e+05 0.000000000000e+00 9.251121356155e-01 7.488786438454e-02 0.000000000000e+00 0.000000000000e+00 0.000000000000e+00 0.000000000000e+00 
1.000000000000e-01 0.000000000000e+00 3.400000000000e-01 1.000000000000e+05 1.000000000000e+05 0.000000000000e+00 9.251121356155e-01 7.488786438454e-02 0.000000000000e+00 0.000000000000e+00 0.000000000000e+00 0.000000000000e+00 
0.000000000000e+00 0.000000000000e+00 3.300000000000e-01 1.000000000000e+05 1.000000000000e+05 0.000000000000e+00 9.251121356155e-01 7.488786438454e-02 0.000000000000e+00 0.000000000000e+00 0.000000000000e+00 0.000000000000e+00 
1.000000000000e-02 0.000000000000e+00 3.300000000000e-01 1.000000000000e+05 1.000000000000e+05 0.000000000000e+00 9.251121356155e-01 7.488786438454e-02 0.000000000000e+00 0.000000000000e+00 0.000000000000e+00 0.000000000000e+00 
2.000000000000e-02 0.000000000000e+00 3.300000000000e-01 1.000000000000e+05 1.000000000000e+05 0.000000000000e+00 9.251121356155e-01 7.488786438454e-02 0.000000000000e+00 0.000000000000e+00 0.000000000000e+00 0.000000000000e+00 
3.000000000000e-02 0.000000000000e+00 3.300000000000e-01 1.000000000000e+05 1.000000000000e+05 0.000000000000e+00 9.251121356155e-01 7.488786438454e-02 0.000000000000e+00 0.000000000000e+00 0.000000000000e+00 0.000000000000e+00 
4.000000000000e-02 0.000000000000e+00 3.300000000000e-01 1.000000000000e+05 1.000000000000e+05 0.000000000000e+00 9.251121356155e-01 7.488786438454e-02 0.000000000000e+00 0.000000000000e+00 0.000000000000e+00 0.000000000000e+00 
5.000000000000e-02 0.000000000000e+00 3.300000000000e-01 1.000000000000e+05 1.000000000000e+05 0.000000000000e+00 9.251121356155e-01 7.488786438454e-02 0.000000000000e+00 0.000000000000e+00 0.000000000000e+00 0.000000000000e+00 
6.000000000000e-02 0.000000000000e+00 3.300000000000e-01 1.000000000000e+05 1.000000000000e+05 0.000000000000e+00 9.251121356155e-01 7.488786438454e-02 0.000000000000e+00 0.000000000000e+00 0.000000000000e+00 0.000000000000e+00 
7.000000000000e-02 0.000000000000e+00 3.300000000000e-01 1.000000000000e+05 1.000000000000e+05 0.000000000000e+00 9.251121356155e-01 7.488786438454e-02 0.000000000000e+00 0.000000000000e+00 0.000000000000e+00 0.000000000000e+00 
8.000000000000e-02 0.000000000000e+00 3.300000000000e-01 1.000000000000e+05 1.000000000000e+05 0.000000000000e+00 9.251121356155e-01 7.488786438454e-02 0.000000000000e+00 0.000000000000e+00 0.000000000000e+00 0.000000000000e+00 
9.000000000000e-02 0.000000000000e+00 3.300000000000e-01 1.000000000000e+05 1.000000000000e+05 0.000000000000e+00 9.251121356155e-01 7.488786438454e-02 0.000000000000e+00 0.000000000000e+00 0.000000000000e+00 0.000000000000e+00 
1.000000000000e-01 0.000000000000e+00 3.300000000000e-01 1.000000000000e+05 1.000000000000e+05 0.000000000000e+00 9.251121356155e-01 7.488786438454e-02 0.000000000000e+00 0.000000000000e+00 0.000000000000e+00 0.000000000000e+00 
0.000000000000e+00 0.000000000000e+00 3.200000000000e-01 1.000000000000e+05 1.000000000000e+05 0.000000000000e+00 9.251121356155e-01 7.488786438454e-02 0.000000000000e+00 0.000000000000e+00 0.000000000000e+00 0.000000000000e+00 
1.000000000000e-02 0.000000000000e+00 3.200000000000e-01 1.000000000000e+05 1.000000000000e+05 0.000000000000e+00 9.251121356155e-01 7.488786438454e-02 0.000000000000e+00 0.000000000000e+00 0.000000000000e+00 0.000000000000e+00 
2.000000000000e-02 0.000000000000e+00 3.200000000000e-01 1.000000000000e+05 1.000000000000e+05 0.000000000000e+00 9.251121356155e-01 7.488786438454e-02 0.000000000000e+00 0.000000000000e+00 0.000000000000e+00 0.000000000000e+00 
3.000000000000e-02 0.000000000000e+00 3.200000000000e-01 1.000000000000e+05 1.000000000000e+05 0.000000000000e+00 9.251121356155e-01 7.488786438454e-02 0.000000000000e+00 0.000000000000e+00 0.000000000000e+00 0.000000000000e+00 
4.000000000000e-02 0.000000000000e+00 3.200000000000e-01 1.000000000000e+05 1.000000000000e+05 0.000000000000e+00 9.251121356155e-01 7.488786438454e-02 0.000000000000e+00 0.000000000000e+00 0.000000000000e+00 0.000000000000e+00 
5.000000000000e-02 0.000000000000e+00 3.200000000000e-01 1.000000000000e+05 1.000000000000e+05 0.000000000000e+00 9.251121356155e-01 7.488786438454e-02 0.000000000000e+00 0.000000000000e+00 0.000000000000e+00 0.000000000000e+00 
6.000000000000e-02 0.000000000000e+00 3.200000000000e-01 1.000000000000e+05 1.000000000000e+05 0.000000000000e+00 9.251121356155e-01 7.488786438454e-02 0.000000000000e+00 0.000000000000e+00 0.000000000000e+00 0.000000000000e+00 
7.000000000000e-02 0.000000000000e+00 3.200000000000e-01 1.000000000000e+05 1.000000000000e+05 0.000000000000e+00 9.251121356155e-01 7.488786438454e-02 0.000000000000e+00 0.000000000000e+00 0.000000000000e+00 0.000000000000e+00 
8.000000000000e-02 0.000000000000e+00 3.200000000000e-01 1.000000000000e+05 1.000000000000e+05 0.000000000000e+00 9.251121356155e-01 7.488786438454e-02 0.000000000000e+00 0.000000000000e+00 0.000000000000e+00 0.000000000000e+00 
9.000000000000e-02 0.000000000000e+00 3.200000000000e-01 1.000000000000e+05 1.000000000000e+05 0.000000000000e+00 9.251121356155e-01 7.488786438454e-02 0.000000000000e+00 0.000000000000e+00 0.000000000000e+00 0.000000000000e+00 
1.000000000000e-01 0.000000000000e+00 3.200000000000e-01 1.000000000000e+05 1.000000000000e+05 0.000000000000e+00 9.251121356155e-01 7.488786438454e-02 0.000000000000e+00 0.000000000000e+00 0.000000000000e+00 0.000000000000e+00 
0.000000000000e+00 0.000000000000e+00 3.100000000000e-01 1.000000000000e+05 1.000000000000e+05 0.000000000000e+00 9.251121356155e-01 7.488786438454e-02 0.000000000000e+00 0.000000000000e+00 0.000000000000e+00 0.000000000000e+00 
1.000000000000e-02 0.000000000000e+00 3.100000000000e-01 1.000000000000e+05 1.000000000000e+05 0.000000000000e+00 9.251121356155e-01 7.488786438454e-02 0.000000000000e+00 0.000000000000e+00 0.000000000000e+00 0.000000000000e+00 
2.000000000000e-02 0.000000000000e+00 3.100000000000e-01 1.000000000000e+05 1.000000000000e+05 0.000000000000e+00 9.251121356155e-01 7.488786438454e-02 0.000000000000e+00 0.000000000000e+00 0.000000000000e+00 0.000000000000e+00 
3.000000000000e-02 0.000000000000e+00 3.100000000000e-01 1.000000000000e+05 1.000000000000e+05 0.000000000000e+00 9.251121356155e-01 7.488786438454e-02 0.000000000000e+00 0.000000000000e+00 0.000000000000e+00 0.000000000000e+00 
4.000000000000e-02 0.000000000000e+00 3.100000000000e-01 1.000000000000e+05 1.000000000000e+05 0.000000000000e+00 9.251121356155e-01 7.488786438454e-02 0.000000000000e+00 0.000000000000e+00 0.000000000000e+00 0.000000000000e+00 
5.000000000000e-02 0.000000000000e+00 3.100000000000e-01 1.000000000000e+05 1.000000000000e+05 0.000000000000e+00 9.251121356155e-01 7.488786438454e-02 0.000000000000e+00 0.000000000000e+00 0.000000000000e+00 0.000000000000e+00 
6.000000000000e-02 0.000000000000e+00 3.100000000000e-01 1.000000000000e+05 1.000000000000e+05 0.000000000000e+00 9.251121356155e-01 7.488786438454e-02 0.000000000000e+00 0.000000000000e+00 0.000000000000e+00 0.000000000000e+00 
7.000000000000e-02 0.000000000000e+00 3.100000000000e-01 1.000000000000e+05 1.000000000000e+05 0.000000000000e+00 9.251121356155e-01 7.488786438454e-02 0.000000000000e+00 0.000000000000e+00 0.000000000000e+00 0.000000000000e+00 
8.000000000000e-02 0.000000000000e+00 3.100000000000e-01 1.000000000000e+05 1.000000000000e+05 0.000000000000e+00 9.251121356155e-01 7.488786438454e-02 0.000000000000e+00 0.000000000000e+00 0.000000000000e+00 0.000000000000e+00 
9.000000000000e-02 0.000000000000e+00 3.100000000000e-01 1.000000000000e+05 1.000000000000e+05 0.000000000000e+00 9.251121356155e-01 7.488786438454e-02 0.000000000000e+00 0.000000000000e+00 0.000000000000e+00 0.000000000000e+00 
1.000000000000e-01 0.000000000000e+00 3.100000000000e-01 1.000000000000e+05 1.000000000000e+05 0.000000000000e+00 9.251121356155e-01 7.488786438454e-02 0.000000000000e+00 0.000000000000e+00 0.000000000000e+00 0.000000000000e+00 
0.000000000000e+00 0.000000000000e+00 3.000000000000e-01 1.000000000000e+05 1.000000000000e+05 0.000000000000e+00 9.251121356155e-01 7.488786438454e-02 0.000000000000e+00 0.000000000000e+00 0.000000000000e+00 0.000000000000e+00 
1.000000000000e-02 0.000000000000e+00 3.000000000000e-01 1.000000000000e+05 1.000000000000e+05 0.000000000000e+00 9.251121356155e-01 7.488786438454e-02 0.000000000000e+00 0.000000000000e+00 0.000000000000e+00 0.000000000000e+00 
2.000000000000e-02 0.000000000000e+00 3.000000000000e-01 1.000000000000e+05 1.000000000000e+05 0.000000000000e+00 9.251121356155e-01 7.488786438454e-02 0.000000000000e+00 0.000000000000e+00 0.000000000000e+00 0.000000000000e+00 
3.000000000000e-02 0.000000000000e+00 3.000000000000e-01 1.000000000000e+05 1.000000000000e+05 0.000000000000e+00 9.251121356155e-01 7.488786438454e-02 0.000000000000e+00 0.000000000000e+00 0.000000000000e+00 0.000000000000e+00 
4.000000000000e-02 0.000000000000e+00 3.000000000000e-01 1.000000000000e+05 1.000000000000e+05 0.000000000000e+00 9.251121356155e-01 7.488786438454e-02 0.000000000000e+00 0.000000000000e+00 0.000000000000e+00 0.000000000000e+00 
5.000000000000e-02 0.000000000000e+00 3.000000000000e-01 1.000000000000e+05 1.000000000000e+05 0.000000000000e+00 9.251121356155e-01 7.488786438454e-02 0.000000000000e+00 0.000000000000e+00 0.000000000000e+00 0.000000000000e+00 
6.000000000000e-02 0.000000000000e+00 3.000000000000e-01 1.000000000000e+05 1.000000000000e+05 0.000000000000e+00 9.251121356155e-01 7.488786438454e-02 0.000000000000e+00 0.000000000000e+00 0.000000000000e+00 0.000000000000e+00 
7.000000000000e-02 0.000000000000e+00 3.000000000000e-01 1.000000000000e+05 1.000000000000e+05 0.000000000000e+00 9.251121356155e-01 7.488786438454e-02 0.000000000000e+00 0.000000000000e+00 0.000000000000e+00 0.000000000000e+00 
8.000000000000e-02 0.000000000000e+00 3.000000000000e-01 1.000000000000e+05 1.000000000000e+05 0.000000000000e+00 9.251121356155e-01 7.488786438454e-02 0.000000000000e+00 0.000000000000e+00 0.000000000000e+00 0.000000000000e+00 
9.000000000000e-02 0.000000000000e+00 3.000000000000e-01 1.000000000000e+05 1.000000000000e+05 0.000000000000e+00 9.251121356155e-01 7.488786438454e-02 0.000000000000e+00 0.000000000000e+00 0.000000000000e+00 0.000000000000e+00 
1.000000000000e-01 0.000000000000e+00 3.000000000000e-01 1.000000000000e+05 1.000000000000e+05 0.000000000000e+00 9.251121356155e-01 7.488786438454e-02 0.000000000000e+00 0.000000000000e+00 0.000000000000e+00 0.000000000000e+00 
0.000000000000e+00 0.000000000000e+00 2.900000000000e-01 1.000000000000e+05 1.000000000000e+05 0.000000000000e+00 9.251121356155e-01 7.488786438454e-02 0.000000000000e+00 0.000000000000e+00 0.000000000000e+00 0.000000000000e+00 
1.000000000000e-02 0.000000000000e+00 2.900000000000e-01 1.000000000000e+05 1.000000000000e+05 0.000000000000e+00 9.251121356155e-01 7.488786438454e-02 0.000000000000e+00 0.000000000000e+00 0.000000000000e+00 0.000000000000e+00 
2.000000000000e-02 0.000000000000e+00 2.900000000000e-01 1.000000000000e+05 1.000000000000e+05 0.000000000000e+00 9.251121356155e-01 7.488786438454e-02 0.000000000000e+00 0.000000000000e+00 0.000000000000e+00 0.000000000000e+00 
3.000000000000e-02 0.000000000000e+00 2.900000000000e-01 1.000000000000e+05 1.000000000000e+05 0.000000000000e+00 9.251121356155e-01 7.488786438454e-02 0.000000000000e+00 0.000000000000e+00 0.000000000000e+00 0.000000000000e+00 
4.000000000000e-02 0.000000000000e+00 2.900000000000e-01 1.000000000000e+05 1.000000000000e+05 0.000000000000e+00 9.251121356155e-01 7.488786438454e-02 0.000000000000e+00 0.000000000000e+00 0.000000000000e+00 0.000000000000e+00 
5.000000000000e-02 0.000000000000e+00 2.900000000000e-01 1.000000000000e+05 1.000000000000e+05 0.000000000000e+00 9.251121356155e-01 7.488786438454e-02 0.000000000000e+00 0.000000000000e+00 0.000000000000e+00 0.000000000000e+00 
6.000000000000e-02 0.000000000000e+00 2.900000000000e-01 1.000000000000e+05 1.000000000000e+05 0.000000000000e+00 9.251121356155e-01 7.488786438454e-02 0.000000000000e+00 0.000000000000e+00 0.000000000000e+00 0.000000000000e+00 
7.000000000000e-02 0.000000000000e+00 2.900000000000e-01 1.000000000000e+05 1.000000000000e+05 0.000000000000e+00 9.251121356155e-01 7.488786438454e-02 0.000000000000e+00 0.000000000000e+00 0.000000000000e+00 0.000000000000e+00 
8.000000000000e-02 0.000000000000e+00 2.900000000000e-01 1.000000000000e+05 1.000000000000e+05 0.000000000000e+00 9.251121356155e-01 7.488786438454e-02 0.000000000000e+00 0.000000000000e+00 0.000000000000e+00 0.000000000000e+00 
9.000000000000e-02 0.000000000000e+00 2.900000000000e-01 1.000000000000e+05 1.000000000000e+05 0.000000000000e+00 9.251121356155e-01 7.488786438454e-02 0.000000000000e+00 0.000000000000e+00 0.000000000000e+00 0.000000000000e+00 
1.000000000000e-01 0.000000000000e+00 2.900000000000e-01 1.000000000000e+05 1.000000000000e+05 0.000000000000e+00 9.251121356155e-01 7.488786438454e-02 0.000000000000e+00 0.000000000000e+00 0.000000000000e+00 0.000000000000e+00 
0.000000000000e+00 0.000000000000e+00 2.800000000000e-01 1.000000000000e+05 1.000000000000e+05 0.000000000000e+00 9.251121356155e-01 7.488786438454e-02 0.000000000000e+00 0.000000000000e+00 0.000000000000e+00 0.000000000000e+00 
1.000000000000e-02 0.000000000000e+00 2.800000000000e-01 1.000000000000e+05 1.000000000000e+05 0.000000000000e+00 9.251121356155e-01 7.488786438454e-02 0.000000000000e+00 0.000000000000e+00 0.000000000000e+00 0.000000000000e+00 
2.000000000000e-02 0.000000000000e+00 2.800000000000e-01 1.000000000000e+05 1.000000000000e+05 0.000000000000e+00 9.251121356155e-01 7.488786438454e-02 0.000000000000e+00 0.000000000000e+00 0.000000000000e+00 0.000000000000e+00 
3.000000000000e-02 0.000000000000e+00 2.800000000000e-01 1.000000000000e+05 1.000000000000e+05 0.000000000000e+00 9.251121356155e-01 7.488786438454e-02 0.000000000000e+00 0.000000000000e+00 0.000000000000e+00 0.000000000000e+00 
4.000000000000e-02 0.000000000000e+00 2.800000000000e-01 1.000000000000e+05 1.000000000000e+05 0.000000000000e+00 9.251121356155e-01 7.488786438454e-02 0.000000000000e+00 0.000000000000e+00 0.000000000000e+00 0.000000000000e+00 
5.000000000000e-02 0.000000000000e+00 2.800000000000e-01 1.000000000000e+05 1.000000000000e+05 0.000000000000e+00 9.251121356155e-01 7.488786438454e-02 0.000000000000e+00 0.000000000000e+00 0.000000000000e+00 0.000000000000e+00 
6.000000000000e-02 0.000000000000e+00 2.800000000000e-01 1.000000000000e+05 1.000000000000e+05 0.000000000000e+00 9.251121356155e-01 7.488786438454e-02 0.000000000000e+00 0.000000000000e+00 0.000000000000e+00 0.000000000000e+00 
7.000000000000e-02 0.000000000000e+00 2.800000000000e-01 1.000000000000e+05 1.000000000000e+05 0.000000000000e+00 9.251121356155e-01 7.488786438454e-02 0.000000000000e+00 0.000000000000e+00 0.000000000000e+00 0.000000000000e+00 
8.000000000000e-02 0.000000000000e+00 2.800000000000e-01 1.000000000000e+05 1.000000000000e+05 0.000000000000e+00 9.251121356155e-01 7.488786438454e-02 0.000000000000e+00 0.000000000000e+00 0.000000000000e+00 0.000000000000e+00 
9.000000000000e-02 0.000000000000e+00 2.800000000000e-01 1.000000000000e+05 1.000000000000e+05 0.000000000000e+00 9.251121356155e-01 7.488786438454e-02 0.000000000000e+00 0.000000000000e+00 0.000000000000e+00 0.000000000000e+00 
1.000000000000e-01 0.000000000000e+00 2.800000000000e-01 1.000000000000e+05 1.000000000000e+05 0.000000000000e+00 9.251121356155e-01 7.488786438454e-02 0.000000000000e+00 0.000000000000e+00 0.000000000000e+00 0.000000000000e+00 
0.000000000000e+00 0.000000000000e+00 2.700000000000e-01 1.000000000000e+05 1.000000000000e+05 0.000000000000e+00 9.251121356155e-01 7.488786438454e-02 0.000000000000e+00 0.000000000000e+00 0.000000000000e+00 0.000000000000e+00 
1.000000000000e-02 0.000000000000e+00 2.700000000000e-01 1.000000000000e+05 1.000000000000e+05 0.000000000000e+00 9.251121356155e-01 7.488786438454e-02 0.000000000000e+00 0.000000000000e+00 0.000000000000e+00 0.000000000000e+00 
2.000000000000e-02 0.000000000000e+00 2.700000000000e-01 1.000000000000e+05 1.000000000000e+05 0.000000000000e+00 9.251121356155e-01 7.488786438454e-02 0.000000000000e+00 0.000000000000e+00 0.000000000000e+00 0.000000000000e+00 
3.000000000000e-02 0.000000000000e+00 2.700000000000e-01 1.000000000000e+05 1.000000000000e+05 0.000000000000e+00 9.251121356155e-01 7.488786438454e-02 0.000000000000e+00 0.000000000000e+00 0.000000000000e+00 0.000000000000e+00 
4.000000000000e-02 0.000000000000e+00 2.700000000000e-01 1.000000000000e+05 1.000000000000e+05 0.000000000000e+00 9.251121356155e-01 7.488786438454e-02 0.000000000000e+00 0.000000000000e+00 0.000000000000e+00 0.000000000000e+00 
5.000000000000e-02 0.000000000000e+00 2.700000000000e-01 1.000000000000e+05 1.000000000000e+05 0.000000000000e+00 9.251121356155e-01 7.488786438454e-02 0.000000000000e+00 0.000000000000e+00 0.000000000000e+00 0.000000000000e+00 
6.000000000000e-02 0.000000000000e+00 2.700000000000e-01 1.000000000000e+05 1.000000000000e+05 0.000000000000e+00 9.251121356155e-01 7.488786438454e-02 0.000000000000e+00 0.000000000000e+00 0.000000000000e+00 0.000000000000e+00 
7.000000000000e-02 0.000000000000e+00 2.700000000000e-01 1.000000000000e+05 1.000000000000e+05 0.000000000000e+00 9.251121356155e-01 7.488786438454e-02 0.000000000000e+00 0.000000000000e+00 0.000000000000e+00 0.000000000000e+00 
8.000000000000e-02 0.000000000000e+00 2.700000000000e-01 1.000000000000e+05 1.000000000000e+05 0.000000000000e+00 9.251121356155e-01 7.488786438454e-02 0.000000000000e+00 0.000000000000e+00 0.000000000000e+00 0.000000000000e+00 
9.000000000000e-02 0.000000000000e+00 2.700000000000e-01 1.000000000000e+05 1.000000000000e+05 0.000000000000e+00 9.251121356155e-01 7.488786438454e-02 0.000000000000e+00 0.000000000000e+00 0.000000000000e+00 0.000000000000e+00 
1.000000000000e-01 0.000000000000e+00 2.700000000000e-01 1.000000000000e+05 1.000000000000e+05 0.000000000000e+00 9.251121356155e-01 7.488786438454e-02 0.000000000000e+00 0.000000000000e+00 0.000000000000e+00 0.000000000000e+00 
0.000000000000e+00 0.000000000000e+00 2.600000000000e-01 1.000000000000e+05 1.000000000000e+05 0.000000000000e+00 9.251121356155e-01 7.488786438454e-02 0.000000000000e+00 0.000000000000e+00 0.000000000000e+00 0.000000000000e+00 
1.000000000000e-02 0.000000000000e+00 2.600000000000e-01 1.000000000000e+05 1.000000000000e+05 0.000000000000e+00 9.251121356155e-01 7.488786438454e-02 0.000000000000e+00 0.000000000000e+00 0.000000000000e+00 0.000000000000e+00 
2.000000000000e-02 0.000000000000e+00 2.600000000000e-01 1.000000000000e+05 1.000000000000e+05 0.000000000000e+00 9.251121356155e-01 7.488786438454e-02 0.000000000000e+00 0.000000000000e+00 0.000000000000e+00 0.000000000000e+00 
3.000000000000e-02 0.000000000000e+00 2.600000000000e-01 1.000000000000e+05 1.000000000000e+05 0.000000000000e+00 9.251121356155e-01 7.488786438454e-02 0.000000000000e+00 0.000000000000e+00 0.000000000000e+00 0.000000000000e+00 
4.000000000000e-02 0.000000000000e+00 2.600000000000e-01 1.000000000000e+05 1.000000000000e+05 0.000000000000e+00 9.251121356155e-01 7.488786438454e-02 0.000000000000e+00 0.000000000000e+00 0.000000000000e+00 0.000000000000e+00 
5.000000000000e-02 0.000000000000e+00 2.600000000000e-01 1.000000000000e+05 1.000000000000e+05 0.000000000000e+00 9.251121356155e-01 7.488786438454e-02 0.000000000000e+00 0.000000000000e+00 0.000000000000e+00 0.000000000000e+00 
6.000000000000e-02 0.000000000000e+00 2.600000000000e-01 1.000000000000e+05 1.000000000000e+05 0.000000000000e+00 9.251121356155e-01 7.488786438454e-02 0.000000000000e+00 0.000000000000e+00 0.000000000000e+00 0.000000000000e+00 
7.000000000000e-02 0.000000000000e+00 2.600000000000e-01 1.000000000000e+05 1.000000000000e+05 0.000000000000e+00 9.251121356155e-01 7.488786438454e-02 0.000000000000e+00 0.000000000000e+00 0.000000000000e+00 0.000000000000e+00 
8.000000000000e-02 0.000000000000e+00 2.600000000000e-01 1.000000000000e+05 1.000000000000e+05 0.000000000000e+00 9.251121356155e-01 7.488786438454e-02 0.000000000000e+00 0.000000000000e+00 0.000000000000e+00 0.000000000000e+00 
9.000000000000e-02 0.000000000000e+00 2.600000000000e-01 1.000000000000e+05 1.000000000000e+05 0.000000000000e+00 9.251121356155e-01 7.488786438454e-02 0.000000000000e+00 0.000000000000e+00 0.000000000000e+00 0.000000000000e+00 
1.000000000000e-01 0.000000000000e+00 2.600000000000e-01 1.000000000000e+05 1.000000000000e+05 0.000000000000e+00 9.251121356155e-01 7.488786438454e-02 0.000000000000e+00 0.000000000000e+00 0.000000000000e+00 0.000000000000e+00 
0.000000000000e+00 0.000000000000e+00 2.500000000000e-01 1.000000000000e+05 1.000000000000e+05 0.000000000000e+00 9.251121356155e-01 7.488786438454e-02 0.000000000000e+00 0.000000000000e+00 0.000000000000e+00 0.000000000000e+00 
1.000000000000e-02 0.000000000000e+00 2.500000000000e-01 1.000000000000e+05 1.000000000000e+05 0.000000000000e+00 9.251121356155e-01 7.488786438454e-02 0.000000000000e+00 0.000000000000e+00 0.000000000000e+00 0.000000000000e+00 
2.000000000000e-02 0.000000000000e+00 2.500000000000e-01 1.000000000000e+05 1.000000000000e+05 0.000000000000e+00 9.251121356155e-01 7.488786438454e-02 0.000000000000e+00 0.000000000000e+00 0.000000000000e+00 0.000000000000e+00 
3.000000000000e-02 0.000000000000e+00 2.500000000000e-01 1.000000000000e+05 1.000000000000e+05 0.000000000000e+00 9.251121356155e-01 7.488786438454e-02 0.000000000000e+00 0.000000000000e+00 0.000000000000e+00 0.000000000000e+00 
4.000000000000e-02 0.000000000000e+00 2.500000000000e-01 1.000000000000e+05 1.000000000000e+05 0.000000000000e+00 9.251121356155e-01 7.488786438454e-02 0.000000000000e+00 0.000000000000e+00 0.000000000000e+00 0.000000000000e+00 
5.000000000000e-02 0.000000000000e+00 2.500000000000e-01 1.000000000000e+05 1.000000000000e+05 0.000000000000e+00 9.251121356155e-01 7.488786438454e-02 0.000000000000e+00 0.000000000000e+00 0.000000000000e+00 0.000000000000e+00 
6.000000000000e-02 0.000000000000e+00 2.500000000000e-01 1.000000000000e+05 1.000000000000e+05 0.000000000000e+00 9.251121356155e-01 7.488786438454e-02 0.000000000000e+00 0.000000000000e+00 0.000000000000e+00 0.000000000000e+00 
7.000000000000e-02 0.000000000000e+00 2.500000000000e-01 1.000000000000e+05 1.000000000000e+05 0.000000000000e+00 9.251121356155e-01 7.488786438454e-02 0.000000000000e+00 0.000000000000e+00 0.000000000000e+00 0.000000000000e+00 
8.000000000000e-02 0.000000000000e+00 2.500000000000e-01 1.000000000000e+05 1.000000000000e+05 0.000000000000e+00 9.251121356155e-01 7.488786438454e-02 0.000000000000e+00 0.000000000000e+00 0.000000000000e+00 0.000000000000e+00 
9.000000000000e-02 0.000000000000e+00 2.500000000000e-01 1.000000000000e+05 1.000000000000e+05 0.000000000000e+00 9.251121356155e-01 7.488786438454e-02 0.000000000000e+00 0.000000000000e+00 0.000000000000e+00 0.000000000000e+00 
1.000000000000e-01 0.000000000000e+00 2.500000000000e-01 1.000000000000e+05 1.000000000000e+05 0.000000000000e+00 9.251121356155e-01 7.488786438454e-02 0.000000000000e+00 0.000000000000e+00 0.000000000000e+00 0.000000000000e+00 
0.000000000000e+00 0.000000000000e+00 2.400000000000e-01 1.000000000000e+05 1.000000000000e+05 0.000000000000e+00 9.251121356155e-01 7.488786438454e-02 0.000000000000e+00 0.000000000000e+00 0.000000000000e+00 0.000000000000e+00 
1.000000000000e-02 0.000000000000e+00 2.400000000000e-01 1.000000000000e+05 1.000000000000e+05 0.000000000000e+00 9.251121356155e-01 7.488786438454e-02 0.000000000000e+00 0.000000000000e+00 0.000000000000e+00 0.000000000000e+00 
2.000000000000e-02 0.000000000000e+00 2.400000000000e-01 1.000000000000e+05 1.000000000000e+05 0.000000000000e+00 9.251121356155e-01 7.488786438454e-02 0.000000000000e+00 0.000000000000e+00 0.000000000000e+00 0.000000000000e+00 
3.000000000000e-02 0.000000000000e+00 2.400000000000e-01 1.000000000000e+05 1.000000000000e+05 0.000000000000e+00 9.251121356155e-01 7.488786438454e-02 0.000000000000e+00 0.000000000000e+00 0.000000000000e+00 0.000000000000e+00 
4.000000000000e-02 0.000000000000e+00 2.400000000000e-01 1.000000000000e+05 1.000000000000e+05 0.000000000000e+00 9.251121356155e-01 7.488786438454e-02 0.000000000000e+00 0.000000000000e+00 0.000000000000e+00 0.000000000000e+00 
5.000000000000e-02 0.000000000000e+00 2.400000000000e-01 1.000000000000e+05 1.000000000000e+05 0.000000000000e+00 9.251121356155e-01 7.488786438454e-02 0.000000000000e+00 0.000000000000e+00 0.000000000000e+00 0.000000000000e+00 
6.000000000000e-02 0.000000000000e+00 2.400000000000e-01 1.000000000000e+05 1.000000000000e+05 0.000000000000e+00 9.251121356155e-01 7.488786438454e-02 0.000000000000e+00 0.000000000000e+00 0.000000000000e+00 0.000000000000e+00 
7.000000000000e-02 0.000000000000e+00 2.400000000000e-01 1.000000000000e+05 1.000000000000e+05 0.000000000000e+00 9.251121356155e-01 7.488786438454e-02 0.000000000000e+00 0.000000000000e+00 0.000000000000e+00 0.000000000000e+00 
8.000000000000e-02 0.000000000000e+00 2.400000000000e-01 1.000000000000e+05 1.000000000000e+05 0.000000000000e+00 9.251121356155e-01 7.488786438454e-02 0.000000000000e+00 0.000000000000e+00 0.000000000000e+00 0.000000000000e+00 
9.000000000000e-02 0.000000000000e+00 2.400000000000e-01 1.000000000000e+05 1.000000000000e+05 0.000000000000e+00 9.251121356155e-01 7.488786438454e-02 0.000000000000e+00 0.000000000000e+00 0.000000000000e+00 0.000000000000e+00 
1.000000000000e-01 0.000000000000e+00 2.400000000000e-01 1.000000000000e+05 1.000000000000e+05 0.000000000000e+00 9.251121356155e-01 7.488786438454e-02 0.000000000000e+00 0.000000000000e+00 0.000000000000e+00 0.000000000000e+00 
0.000000000000e+00 0.000000000000e+00 2.300000000000e-01 1.000000000000e+05 1.000000000000e+05 0.000000000000e+00 9.251121356155e-01 7.488786438454e-02 0.000000000000e+00 0.000000000000e+00 0.000000000000e+00 0.000000000000e+00 
1.000000000000e-02 0.000000000000e+00 2.300000000000e-01 1.000000000000e+05 1.000000000000e+05 0.000000000000e+00 9.251121356155e-01 7.488786438454e-02 0.000000000000e+00 0.000000000000e+00 0.000000000000e+00 0.000000000000e+00 
2.000000000000e-02 0.000000000000e+00 2.300000000000e-01 1.000000000000e+05 1.000000000000e+05 0.000000000000e+00 9.251121356155e-01 7.488786438454e-02 0.000000000000e+00 0.000000000000e+00 0.000000000000e+00 0.000000000000e+00 
3.000000000000e-02 0.000000000000e+00 2.300000000000e-01 1.000000000000e+05 1.000000000000e+05 0.000000000000e+00 9.251121356155e-01 7.488786438454e-02 0.000000000000e+00 0.000000000000e+00 0.000000000000e+00 0.000000000000e+00 
4.000000000000e-02 0.000000000000e+00 2.300000000000e-01 1.000000000000e+05 1.000000000000e+05 0.000000000000e+00 9.251121356155e-01 7.488786438454e-02 0.000000000000e+00 0.000000000000e+00 0.000000000000e+00 0.000000000000e+00 
5.000000000000e-02 0.000000000000e+00 2.300000000000e-01 1.000000000000e+05 1.000000000000e+05 0.000000000000e+00 9.251121356155e-01 7.488786438454e-02 0.000000000000e+00 0.000000000000e+00 0.000000000000e+00 0.000000000000e+00 
6.000000000000e-02 0.000000000000e+00 2.300000000000e-01 1.000000000000e+05 1.000000000000e+05 0.000000000000e+00 9.251121356155e-01 7.488786438454e-02 0.000000000000e+00 0.000000000000e+00 0.000000000000e+00 0.000000000000e+00 
7.000000000000e-02 0.000000000000e+00 2.300000000000e-01 1.000000000000e+05 1.000000000000e+05 0.000000000000e+00 9.251121356155e-01 7.488786438454e-02 0.000000000000e+00 0.000000000000e+00 0.000000000000e+00 0.000000000000e+00 