 TITLE = "Time curves in points"
 VARIABLES = "TIME "  "PRESSURE1"  "PRESSURE2"  "PRESSURE_W"  "SATURATION1" SATURATION2  "VELOCITY_X1"  "VELOCITY_Y1"  "VELOCITY_X2"  "VELOCITY_Y2"  p_(1st_Invariant)  q_(2nd_Invariant)   Effective_Strain
 ZONE T="POINT=POINT6"
0.000000000000e+00 1.000000000000e+05 1.000000000000e+05 0.000000000000e+00 9.251121356155e-01 7.488786438454e-02 0.000000000000e+00 0.000000000000e+00 0.000000000000e+00 0.000000000000e+00 -0.000000000000e+00 0.000000000000e+00  0.000000000000e+00
1.000000000000e-02 9.999999997033e+04 1.000000000000e+05 2.967142791022e-05 9.251121356793e-01 7.488786432075e-02 6.851803134424e-20 -9.238128874766e-07 1.091007331213e-22 -2.354495669160e-11 -4.264136733428e+03 5.432034511439e+03  2.534949439706e-04
7.000000000000e-02 1.000000000059e+05 1.000000000000e+05 -5.933514330536e-06 9.251121356027e-01 7.488786439730e-02 1.370360631032e-19 -9.238121441198e-07 -1.830001458218e-21 -2.354495671251e-11 -3.366563582037e+02 1.285442882795e+04  5.998733453242e-04
4.300000000000e-01 9.999999505604e+04 1.000000000000e+05 4.943956053467e-03 9.251121462450e-01 7.488785375504e-02 -6.851806842912e-20 -9.237390074511e-07 -1.389439392175e-20 -2.354495366901e-11 2.322736822905e+04 5.806390768245e+04  2.709649025189e-03
1.430000000000e+00 9.999922361495e+04 1.000000000000e+05 7.763850503397e-01 9.251138048426e-01 7.488619515735e-02 2.740906391093e-19 -9.182193373139e-07 -4.518692399201e-21 -2.354447967112e-11 8.867697313640e+04 1.838138256297e+05  8.577978529388e-03
2.430000000000e+00 9.999699299434e+04 1.000000000000e+05 3.007005661770e+00 9.251186006750e-01 7.488139932495e-02 6.853569483663e-20 -9.055005094883e-07 -1.020595942646e-20 -2.354310910792e-11 1.541202071248e+05 3.095644394550e+05  1.444634050790e-02
3.430000000000e+00 9.999299217064e+04 1.000000000000e+05 7.007829363341e+00 9.251272024426e-01 7.487279755743e-02 6.856469205031e-20 -8.867782569180e-07 -1.340934320128e-20 -2.354065089262e-11 2.195591217811e+05 4.353104435824e+05  2.031448736718e-02
4.430000000000e+00 9.998725735721e+04 1.000000000000e+05 1.274264279479e+01 9.251395322865e-01 7.486046771348e-02 2.057771904266e-19 -8.642973404293e-07 -1.011095942692e-20 -2.353712726000e-11 2.849948285619e+05 5.610528281779e+05  2.618246531497e-02
5.430000000000e+00 9.998000585450e+04 1.000000000000e+05 1.999414549994e+01 9.251551230111e-01 7.484487698889e-02 3.431838727827e-19 -8.400616627085e-07 -7.650076897512e-21 -2.353267173001e-11 3.504280697123e+05 6.867924527027e+05  3.205031445946e-02
6.430000000000e+00 9.997150879414e+04 1.000000000000e+05 2.849120586336e+01 9.251733916836e-01 7.482660831641e-02 2.060797961145e-19 -8.154693520093e-07 -1.267318702900e-20 -2.352745088668e-11 4.158593798716e+05 8.125299121540e+05  3.791806256719e-02
7.430000000000e+00 9.996202563197e+04 1.000000000000e+05 3.797436803508e+01 9.251937804741e-01 7.480621952589e-02 -2.750225475582e-19 -7.913715936924e-07 -1.826400875803e-20 -2.352162416349e-11 4.812891649116e+05 9.382656217815e+05  4.378572901647e-02
8.430000000000e+00 9.995177959601e+04 1.000000000000e+05 4.822040399467e+01 9.252158094426e-01 7.478419055737e-02 -1.169859841760e-18 -7.682320173375e-07 -1.570161257728e-20 -2.351532870445e-11 5.467177239878e+05 1.063999885141e+06  4.965332797325e-02
9.430000000000e+00 9.994095346783e+04 1.000000000000e+05 5.904653216594e+01 9.252390856089e-01 7.476091439110e-02 -3.512789727951e-18 -7.462678217908e-07 -1.100247212850e-20 -2.350867682094e-11 6.121155046361e+05 1.189743163311e+06  5.552134762117e-02
