 TITLE = "Time curves in points"
 VARIABLES = "TIME "  "DISPLACEMENT_X1"  "DISPLACEMENT_Y1"  "STRESS_XX"  "STRESS_XY"  "STRESS_YY"  "STRESS_ZZ"  "STRAIN_XX"  "STRAIN_XY"  "STRAIN_YY"  "STRAIN_PLS"  p_(1st_Invariant)  q_(2nd_Invariant)   Effective_Strain
 ZONE T="POINT=POINT6"
0.000000000000e+00 0.000000000000e+00 0.000000000000e+00 0.000000000000e+00 0.000000000000e+00 0.000000000000e+00 0.000000000000e+00 0.000000000000e+00 0.000000000000e+00 0.000000000000e+00 0.000000000000e+00 -0.000000000000e+00 0.000000000000e+00  0.000000000000e+00
1.000000000000e-02 -2.902016103640e-10 -7.023555564713e-06 7.660220223804e+03 -2.214779038810e-02 1.477220471805e+03 3.654976278244e+03 1.869113841262e-04 -2.067127102890e-09 -1.016286043005e-04 0.000000000000e+00 -4.264138991284e+03 5.432038537791e+03  2.534951317825e-04
7.000000000000e-02 -1.545114309377e-10 -2.417685719187e-05 7.782094153880e+03 -1.140683772354e-02 -7.060690648056e+03 2.885614023295e+02 3.496981950723e-04 -1.064638187530e-09 -3.429650956846e-04 0.000000000000e+00 -3.366549693844e+02 1.285443113241e+04  5.998734528481e-04
4.300000000000e-01 -7.846894897717e-10 -1.270937731021e-04 8.513354356138e+03 -5.728269454936e-02 -5.828628481574e+04 -1.990917218384e+04 1.326384571866e-03 -5.346384824606e-09 -1.790931922822e-03 0.000000000000e+00 2.322736754781e+04 5.806390695772e+04  2.709648991372e-03
1.430000000000e+00 6.360256538033e-10 -4.129525145157e-04 1.054532309833e+04 5.972566022044e-02 -2.005674092843e+05 -7.600883447440e+04 4.039194020061e-03 5.574394953909e-09 -5.812733491130e-03 0.000000000000e+00 8.867697355347e+04 1.838138277251e+05  8.577978627175e-03
2.430000000000e+00 -3.351201854870e-10 -6.987887261212e-04 1.257830756822e+04 -2.819838150168e-02 -3.428358957610e+05 -1.321030352771e+05 6.751795999449e-03 -2.631848940150e-09 -9.834200155915e-03 0.000000000000e+00 1.541202078233e+05 3.095644402894e+05  1.444634054684e-02
3.430000000000e+00 1.048941137908e-10 -9.846116986845e-04 1.461246145004e+04 6.221161228583e-03 -4.850962951349e+05 -1.881935334739e+05 9.464279763119e-03 5.806417146747e-10 -1.385546221084e-02 0.000000000000e+00 2.195591223863e+05 4.353104425962e+05  2.031448732116e-02
4.430000000000e+00 -1.366173112560e-11 -1.270425954182e-03 1.664772115960e+04 2.786464962295e-03 -6.273509253685e+05 -2.442812816835e+05 1.217668679935e-02 2.600700631534e-10 -1.787658337196e-02 0.000000000000e+00 2.849948286308e+05 5.610528286924e+05  2.618246533898e-02
5.430000000000e+00 6.713175581148e-10 -1.556234038999e-03 1.868392826483e+04 3.393947972748e-02 -7.696012176222e+05 -3.003669157429e+05 1.488903938703e-02 3.167684774576e-09 -2.189760075437e-02 0.000000000000e+00 3.504280683668e+05 6.867924513084e+05  3.205031439439e-02
6.430000000000e+00 5.498037783780e-10 -1.842037516785e-03 2.072090446244e+04 4.293827926239e-02 -9.118481498784e+05 -3.564508981664e+05 1.760135078934e-02 4.007572731164e-09 -2.591853841323e-02 0.000000000000e+00 4.158593811941e+05 8.125299123791e+05  3.791806257769e-02
7.430000000000e+00 -9.427915337623e-11 -2.127837396561e-03 2.275848304161e+04 -7.417645359240e-03 -1.054092407738e+06 -4.125335698784e+05 2.031362913627e-02 -6.923135668614e-10 -2.993941243343e-02 0.000000000000e+00 4.812891648582e+05 9.382656219703e+05  4.378572902528e-02
8.430000000000e+00 7.503289567864e-10 -2.413634372268e-03 2.479652275026e+04 5.987865403036e-02 -1.196334505159e+06 -4.686151929634e+05 2.302588006664e-02 5.588674376187e-09 -3.396023456911e-02 0.000000000000e+00 5.467177251239e+05 1.063999883897e+06  4.965332791521e-02
9.430000000000e+00 1.515782849421e-10 -2.699677751557e-03 2.687318475062e+04 1.541672796493e-02 -1.338549266540e+06 -5.246704327158e+05 2.573870214843e-02 1.438894610066e-09 -3.798101224514e-02 0.000000000000e+00 6.121155048351e+05 1.189743163167e+06  5.552134761445e-02
