 TITLE = "Time curves in points"
 VARIABLES = "TIME "  "DISPLACEMENT_X1"  "DISPLACEMENT_Y1"  "STRESS_XX"  "STRESS_XY"  "STRESS_YY"  "STRESS_ZZ"  "STRAIN_XX"  "STRAIN_XY"  "STRAIN_YY"  "STRAIN_PLS"  p_(1st_Invariant)  q_(2nd_Invariant)   Effective_Strain
 ZONE T="POINT=POINT6"
0.000000000000e+00 0.000000000000e+00 0.000000000000e+00 0.000000000000e+00 0.000000000000e+00 0.000000000000e+00 0.000000000000e+00 0.000000000000e+00 0.000000000000e+00 0.000000000000e+00 0.000000000000e+00 -0.000000000000e+00 0.000000000000e+00  0.000000000000e+00
1.000000000000e-02 7.509943587783e-10 -7.023553681226e-06 7.660215493767e+03 5.173587407325e-02 1.477220363578e+03 3.654974342938e+03 1.869112537054e-04 4.828681580170e-09 -1.016285190368e-04 0.000000000000e+00 -4.264136733428e+03 5.432034511439e+03  2.534949439706e-04
7.000000000000e-02 -5.550303223838e-10 -2.417685509160e-05 7.782094310361e+03 -3.470429982038e-02 -7.060687828496e+03 2.885625927460e+02 3.496981468220e-04 -3.239067983235e-09 -3.429650196580e-04 0.000000000000e+00 -3.366563582037e+02 1.285442882795e+04  5.998733453242e-04
4.300000000000e-01 -7.258520241552e-10 -1.270937742964e-04 8.513354038976e+03 -4.601074341423e-02 -5.828628595837e+04 -1.990917276776e+04 1.326384584314e-03 -4.294336051995e-09 -1.790931948895e-03 0.000000000000e+00 2.322736822905e+04 5.806390768245e+04  2.709649025189e-03
1.430000000000e+00 8.772342462558e-10 -4.129525114401e-04 1.054532233424e+04 5.326776446415e-02 -2.005674076265e+05 -7.600883411692e+04 4.039193967721e-03 4.971658016653e-09 -5.812733430449e-03 0.000000000000e+00 8.867697313640e+04 1.838138256297e+05  8.577978529388e-03
2.430000000000e+00 -4.442255660117e-10 -6.987887240977e-04 1.257830784144e+04 -3.778252362741e-02 -3.428358945373e+05 -1.321030346784e+05 6.751795984257e-03 -3.526368871893e-09 -9.834200126752e-03 0.000000000000e+00 1.541202071248e+05 3.095644394550e+05  1.444634050790e-02
3.430000000000e+00 1.144249134930e-10 -9.846116978108e-04 1.461246267932e+04 7.567589167504e-03 -4.850962950674e+05 -1.881935329552e+05 9.464279796278e-03 7.063083223023e-10 -1.385546223190e-02 0.000000000000e+00 2.195591217811e+05 4.353104435824e+05  2.031448736718e-02
4.430000000000e+00 -3.711901422720e-11 -1.270425954162e-03 1.664772093553e+04 2.267227651565e-03 -6.273509249967e+05 -2.442812816245e+05 1.217668678613e-02 2.116079141471e-10 -1.787658335737e-02 0.000000000000e+00 2.849948285619e+05 5.610528281779e+05  2.618246531497e-02
5.430000000000e+00 4.141914795048e-11 -1.556234041772e-03 1.868392761469e+04 2.106438471589e-03 -7.696012198554e+05 -3.003669168963e+05 1.488903941051e-02 1.966009240140e-10 -2.189760080476e-02 0.000000000000e+00 3.504280697123e+05 6.867924527027e+05  3.205031445946e-02
6.430000000000e+00 3.534522505554e-10 -1.842037516914e-03 2.072090576666e+04 2.505459937127e-02 -9.118481483487e+05 -3.564508970328e+05 1.760135079731e-02 2.338429274666e-09 -2.591853839474e-02 0.000000000000e+00 4.158593798716e+05 8.125299121540e+05  3.791806256719e-02
7.430000000000e+00 -4.684548520486e-11 -2.127837396481e-03 2.275848287389e+04 -4.296793700469e-03 -1.054092407685e+06 -4.125335699243e+05 2.031362913058e-02 -4.010340787035e-10 -2.993941242881e-02 0.000000000000e+00 4.812891649116e+05 9.382656217815e+05  4.378572901647e-02
8.430000000000e+00 -9.266622118332e-11 -2.413634373654e-03 2.479652470554e+04 -7.212857506190e-03 -1.196334504679e+06 -4.686151919895e+05 2.302588011244e-02 -6.732000338947e-10 -3.396023459219e-02 0.000000000000e+00 5.467177239878e+05 1.063999885141e+06  4.965332797325e-02
9.430000000000e+00 4.105017086987e-10 -2.699677749854e-03 2.687318505032e+04 3.294543135369e-02 -1.338549266413e+06 -5.246704325452e+05 2.573870215446e-02 3.074906926359e-09 -3.798101224718e-02 0.000000000000e+00 6.121155046361e+05 1.189743163311e+06  5.552134762117e-02
