VARIABLES  = "X","Y","Z", "TEMPERATURE1"
ZONE T="0.000000000000e+00s", N=385, E=340, F=FEPOINT, ET=QUADRILATERAL
STRANDID=1, SOLUTIONTIME=0.000000000000e+00
0.000000000000e+00 0.000000000000e+00 3.400000000000e-01 3.000000000000e+01 
1.000000000000e-02 0.000000000000e+00 3.400000000000e-01 3.000000000000e+01 
2.000000000000e-02 0.000000000000e+00 3.400000000000e-01 3.000000000000e+01 
3.000000000000e-02 0.000000000000e+00 3.400000000000e-01 3.000000000000e+01 
4.000000000000e-02 0.000000000000e+00 3.400000000000e-01 3.000000000000e+01 
5.000000000000e-02 0.000000000000e+00 3.400000000000e-01 3.000000000000e+01 
6.000000000000e-02 0.000000000000e+00 3.400000000000e-01 3.000000000000e+01 
7.000000000000e-02 0.000000000000e+00 3.400000000000e-01 3.000000000000e+01 
8.000000000000e-02 0.000000000000e+00 3.400000000000e-01 3.000000000000e+01 
9.000000000000e-02 0.000000000000e+00 3.400000000000e-01 3.000000000000e+01 
1.000000000000e-01 0.000000000000e+00 3.400000000000e-01 3.000000000000e+01 
0.000000000000e+00 0.000000000000e+00 3.300000000000e-01 3.000000000000e+01 
1.000000000000e-02 0.000000000000e+00 3.300000000000e-01 3.000000000000e+01 
2.000000000000e-02 0.000000000000e+00 3.300000000000e-01 3.000000000000e+01 
3.000000000000e-02 0.000000000000e+00 3.300000000000e-01 3.000000000000e+01 
4.000000000000e-02 0.000000000000e+00 3.300000000000e-01 3.000000000000e+01 
5.000000000000e-02 0.000000000000e+00 3.300000000000e-01 3.000000000000e+01 
6.000000000000e-02 0.000000000000e+00 3.300000000000e-01 3.000000000000e+01 
7.000000000000e-02 0.000000000000e+00 3.300000000000e-01 3.000000000000e+01 
8.000000000000e-02 0.000000000000e+00 3.300000000000e-01 3.000000000000e+01 
9.000000000000e-02 0.000000000000e+00 3.300000000000e-01 3.000000000000e+01 
1.000000000000e-01 0.000000000000e+00 3.300000000000e-01 3.000000000000e+01 
0.000000000000e+00 0.000000000000e+00 3.200000000000e-01 3.000000000000e+01 
1.000000000000e-02 0.000000000000e+00 3.200000000000e-01 3.000000000000e+01 
2.000000000000e-02 0.000000000000e+00 3.200000000000e-01 3.000000000000e+01 
3.000000000000e-02 0.000000000000e+00 3.200000000000e-01 3.000000000000e+01 
4.000000000000e-02 0.000000000000e+00 3.200000000000e-01 3.000000000000e+01 
5.000000000000e-02 0.000000000000e+00 3.200000000000e-01 3.000000000000e+01 
6.000000000000e-02 0.000000000000e+00 3.200000000000e-01 3.000000000000e+01 
7.000000000000e-02 0.000000000000e+00 3.200000000000e-01 3.000000000000e+01 
8.000000000000e-02 0.000000000000e+00 3.200000000000e-01 3.000000000000e+01 
9.000000000000e-02 0.000000000000e+00 3.200000000000e-01 3.000000000000e+01 
1.000000000000e-01 0.000000000000e+00 3.200000000000e-01 3.000000000000e+01 
0.000000000000e+00 0.000000000000e+00 3.100000000000e-01 3.000000000000e+01 
1.000000000000e-02 0.000000000000e+00 3.100000000000e-01 3.000000000000e+01 
2.000000000000e-02 0.000000000000e+00 3.100000000000e-01 3.000000000000e+01 
3.000000000000e-02 0.000000000000e+00 3.100000000000e-01 3.000000000000e+01 
4.000000000000e-02 0.000000000000e+00 3.100000000000e-01 3.000000000000e+01 
5.000000000000e-02 0.000000000000e+00 3.100000000000e-01 3.000000000000e+01 
6.000000000000e-02 0.000000000000e+00 3.100000000000e-01 3.000000000000e+01 
7.000000000000e-02 0.000000000000e+00 3.100000000000e-01 3.000000000000e+01 
8.000000000000e-02 0.000000000000e+00 3.100000000000e-01 3.000000000000e+01 
9.000000000000e-02 0.000000000000e+00 3.100000000000e-01 3.000000000000e+01 
1.000000000000e-01 0.000000000000e+00 3.100000000000e-01 3.000000000000e+01 
0.000000000000e+00 0.000000000000e+00 3.000000000000e-01 3.000000000000e+01 
1.000000000000e-02 0.000000000000e+00 3.000000000000e-01 3.000000000000e+01 
2.000000000000e-02 0.000000000000e+00 3.000000000000e-01 3.000000000000e+01 
3.000000000000e-02 0.000000000000e+00 3.000000000000e-01 3.000000000000e+01 
4.000000000000e-02 0.000000000000e+00 3.000000000000e-01 3.000000000000e+01 
5.000000000000e-02 0.000000000000e+00 3.000000000000e-01 3.000000000000e+01 
6.000000000000e-02 0.000000000000e+00 3.000000000000e-01 3.000000000000e+01 
7.000000000000e-02 0.000000000000e+00 3.000000000000e-01 3.000000000000e+01 
8.000000000000e-02 0.000000000000e+00 3.000000000000e-01 3.000000000000e+01 
9.000000000000e-02 0.000000000000e+00 3.000000000000e-01 3.000000000000e+01 
1.000000000000e-01 0.000000000000e+00 3.000000000000e-01 3.000000000000e+01 
0.000000000000e+00 0.000000000000e+00 2.900000000000e-01 3.000000000000e+01 
1.000000000000e-02 0.000000000000e+00 2.900000000000e-01 3.000000000000e+01 
2.000000000000e-02 0.000000000000e+00 2.900000000000e-01 3.000000000000e+01 
3.000000000000e-02 0.000000000000e+00 2.900000000000e-01 3.000000000000e+01 
4.000000000000e-02 0.000000000000e+00 2.900000000000e-01 3.000000000000e+01 
5.000000000000e-02 0.000000000000e+00 2.900000000000e-01 3.000000000000e+01 
6.000000000000e-02 0.000000000000e+00 2.900000000000e-01 3.000000000000e+01 
7.000000000000e-02 0.000000000000e+00 2.900000000000e-01 3.000000000000e+01 
8.000000000000e-02 0.000000000000e+00 2.900000000000e-01 3.000000000000e+01 
9.000000000000e-02 0.000000000000e+00 2.900000000000e-01 3.000000000000e+01 
1.000000000000e-01 0.000000000000e+00 2.900000000000e-01 3.000000000000e+01 
0.000000000000e+00 0.000000000000e+00 2.800000000000e-01 3.000000000000e+01 
1.000000000000e-02 0.000000000000e+00 2.800000000000e-01 3.000000000000e+01 
2.000000000000e-02 0.000000000000e+00 2.800000000000e-01 3.000000000000e+01 
3.000000000000e-02 0.000000000000e+00 2.800000000000e-01 3.000000000000e+01 
4.000000000000e-02 0.000000000000e+00 2.800000000000e-01 3.000000000000e+01 
5.000000000000e-02 0.000000000000e+00 2.800000000000e-01 3.000000000000e+01 
6.000000000000e-02 0.000000000000e+00 2.800000000000e-01 3.000000000000e+01 
7.000000000000e-02 0.000000000000e+00 2.800000000000e-01 3.000000000000e+01 
8.000000000000e-02 0.000000000000e+00 2.800000000000e-01 3.000000000000e+01 
9.000000000000e-02 0.000000000000e+00 2.800000000000e-01 3.000000000000e+01 
1.000000000000e-01 0.000000000000e+00 2.800000000000e-01 3.000000000000e+01 
0.000000000000e+00 0.000000000000e+00 2.700000000000e-01 3.000000000000e+01 
1.000000000000e-02 0.000000000000e+00 2.700000000000e-01 3.000000000000e+01 
2.000000000000e-02 0.000000000000e+00 2.700000000000e-01 3.000000000000e+01 
3.000000000000e-02 0.000000000000e+00 2.700000000000e-01 3.000000000000e+01 
4.000000000000e-02 0.000000000000e+00 2.700000000000e-01 3.000000000000e+01 
5.000000000000e-02 0.000000000000e+00 2.700000000000e-01 3.000000000000e+01 
6.000000000000e-02 0.000000000000e+00 2.700000000000e-01 3.000000000000e+01 
7.000000000000e-02 0.000000000000e+00 2.700000000000e-01 3.000000000000e+01 
8.000000000000e-02 0.000000000000e+00 2.700000000000e-01 3.000000000000e+01 
9.000000000000e-02 0.000000000000e+00 2.700000000000e-01 3.000000000000e+01 
1.000000000000e-01 0.000000000000e+00 2.700000000000e-01 3.000000000000e+01 
0.000000000000e+00 0.000000000000e+00 2.600000000000e-01 3.000000000000e+01 
1.000000000000e-02 0.000000000000e+00 2.600000000000e-01 3.000000000000e+01 
2.000000000000e-02 0.000000000000e+00 2.600000000000e-01 3.000000000000e+01 
3.000000000000e-02 0.000000000000e+00 2.600000000000e-01 3.000000000000e+01 
4.000000000000e-02 0.000000000000e+00 2.600000000000e-01 3.000000000000e+01 
5.000000000000e-02 0.000000000000e+00 2.600000000000e-01 3.000000000000e+01 
6.000000000000e-02 0.000000000000e+00 2.600000000000e-01 3.000000000000e+01 
7.000000000000e-02 0.000000000000e+00 2.600000000000e-01 3.000000000000e+01 
8.000000000000e-02 0.000000000000e+00 2.600000000000e-01 3.000000000000e+01 
9.000000000000e-02 0.000000000000e+00 2.600000000000e-01 3.000000000000e+01 
1.000000000000e-01 0.000000000000e+00 2.600000000000e-01 3.000000000000e+01 
0.000000000000e+00 0.000000000000e+00 2.500000000000e-01 3.000000000000e+01 
1.000000000000e-02 0.000000000000e+00 2.500000000000e-01 3.000000000000e+01 
2.000000000000e-02 0.000000000000e+00 2.500000000000e-01 3.000000000000e+01 
3.000000000000e-02 0.000000000000e+00 2.500000000000e-01 3.000000000000e+01 
4.000000000000e-02 0.000000000000e+00 2.500000000000e-01 3.000000000000e+01 
5.000000000000e-02 0.000000000000e+00 2.500000000000e-01 3.000000000000e+01 
6.000000000000e-02 0.000000000000e+00 2.500000000000e-01 3.000000000000e+01 
7.000000000000e-02 0.000000000000e+00 2.500000000000e-01 3.000000000000e+01 
8.000000000000e-02 0.000000000000e+00 2.500000000000e-01 3.000000000000e+01 
9.000000000000e-02 0.000000000000e+00 2.500000000000e-01 3.000000000000e+01 
1.000000000000e-01 0.000000000000e+00 2.500000000000e-01 3.000000000000e+01 
0.000000000000e+00 0.000000000000e+00 2.400000000000e-01 3.000000000000e+01 
1.000000000000e-02 0.000000000000e+00 2.400000000000e-01 3.000000000000e+01 
2.000000000000e-02 0.000000000000e+00 2.400000000000e-01 3.000000000000e+01 
3.000000000000e-02 0.000000000000e+00 2.400000000000e-01 3.000000000000e+01 
4.000000000000e-02 0.000000000000e+00 2.400000000000e-01 3.000000000000e+01 
5.000000000000e-02 0.000000000000e+00 2.400000000000e-01 3.000000000000e+01 
6.000000000000e-02 0.000000000000e+00 2.400000000000e-01 3.000000000000e+01 
7.000000000000e-02 0.000000000000e+00 2.400000000000e-01 3.000000000000e+01 
8.000000000000e-02 0.000000000000e+00 2.400000000000e-01 3.000000000000e+01 
9.000000000000e-02 0.000000000000e+00 2.400000000000e-01 3.000000000000e+01 
1.000000000000e-01 0.000000000000e+00 2.400000000000e-01 3.000000000000e+01 
0.000000000000e+00 0.000000000000e+00 2.300000000000e-01 3.000000000000e+01 
1.000000000000e-02 0.000000000000e+00 2.300000000000e-01 3.000000000000e+01 
2.000000000000e-02 0.000000000000e+00 2.300000000000e-01 3.000000000000e+01 
3.000000000000e-02 0.000000000000e+00 2.300000000000e-01 3.000000000000e+01 
4.000000000000e-02 0.000000000000e+00 2.300000000000e-01 3.000000000000e+01 
5.000000000000e-02 0.000000000000e+00 2.300000000000e-01 3.000000000000e+01 
6.000000000000e-02 0.000000000000e+00 2.300000000000e-01 3.000000000000e+01 
7.000000000000e-02 0.000000000000e+00 2.300000000000e-01 3.000000000000e+01 
8.000000000000e-02 0.000000000000e+00 2.300000000000e-01 3.000000000000e+01 
9.000000000000e-02 0.000000000000e+00 2.300000000000e-01 3.000000000000e+01 
1.000000000000e-01 0.000000000000e+00 2.300000000000e-01 3.000000000000e+01 
0.000000000000e+00 0.000000000000e+00 2.200000000000e-01 3.000000000000e+01 
1.000000000000e-02 0.000000000000e+00 2.200000000000e-01 3.000000000000e+01 
2.000000000000e-02 0.000000000000e+00 2.200000000000e-01 3.000000000000e+01 
3.000000000000e-02 0.000000000000e+00 2.200000000000e-01 3.000000000000e+01 
4.000000000000e-02 0.000000000000e+00 2.200000000000e-01 3.000000000000e+01 
5.000000000000e-02 0.000000000000e+00 2.200000000000e-01 3.000000000000e+01 
6.000000000000e-02 0.000000000000e+00 2.200000000000e-01 3.000000000000e+01 
7.000000000000e-02 0.000000000000e+00 2.200000000000e-01 3.000000000000e+01 
8.000000000000e-02 0.000000000000e+00 2.200000000000e-01 3.000000000000e+01 
9.000000000000e-02 0.000000000000e+00 2.200000000000e-01 3.000000000000e+01 
1.000000000000e-01 0.000000000000e+00 2.200000000000e-01 3.000000000000e+01 
0.000000000000e+00 0.000000000000e+00 2.100000000000e-01 3.000000000000e+01 
1.000000000000e-02 0.000000000000e+00 2.100000000000e-01 3.000000000000e+01 
2.000000000000e-02 0.000000000000e+00 2.100000000000e-01 3.000000000000e+01 
3.000000000000e-02 0.000000000000e+00 2.100000000000e-01 3.000000000000e+01 
4.000000000000e-02 0.000000000000e+00 2.100000000000e-01 3.000000000000e+01 
5.000000000000e-02 0.000000000000e+00 2.100000000000e-01 3.000000000000e+01 
6.000000000000e-02 0.000000000000e+00 2.100000000000e-01 3.000000000000e+01 
7.000000000000e-02 0.000000000000e+00 2.100000000000e-01 3.000000000000e+01 
8.000000000000e-02 0.000000000000e+00 2.100000000000e-01 3.000000000000e+01 
9.000000000000e-02 0.000000000000e+00 2.100000000000e-01 3.000000000000e+01 
1.000000000000e-01 0.000000000000e+00 2.100000000000e-01 3.000000000000e+01 
0.000000000000e+00 0.000000000000e+00 2.000000000000e-01 3.000000000000e+01 
1.000000000000e-02 0.000000000000e+00 2.000000000000e-01 3.000000000000e+01 
2.000000000000e-02 0.000000000000e+00 2.000000000000e-01 3.000000000000e+01 
3.000000000000e-02 0.000000000000e+00 2.000000000000e-01 3.000000000000e+01 
4.000000000000e-02 0.000000000000e+00 2.000000000000e-01 3.000000000000e+01 
5.000000000000e-02 0.000000000000e+00 2.000000000000e-01 3.000000000000e+01 
6.000000000000e-02 0.000000000000e+00 2.000000000000e-01 3.000000000000e+01 
7.000000000000e-02 0.000000000000e+00 2.000000000000e-01 3.000000000000e+01 
8.000000000000e-02 0.000000000000e+00 2.000000000000e-01 3.000000000000e+01 
9.000000000000e-02 0.000000000000e+00 2.000000000000e-01 3.000000000000e+01 
1.000000000000e-01 0.000000000000e+00 2.000000000000e-01 3.000000000000e+01 
0.000000000000e+00 0.000000000000e+00 1.900000000000e-01 3.000000000000e+01 
1.000000000000e-02 0.000000000000e+00 1.900000000000e-01 3.000000000000e+01 
2.000000000000e-02 0.000000000000e+00 1.900000000000e-01 3.000000000000e+01 
3.000000000000e-02 0.000000000000e+00 1.900000000000e-01 3.000000000000e+01 
4.000000000000e-02 0.000000000000e+00 1.900000000000e-01 3.000000000000e+01 
5.000000000000e-02 0.000000000000e+00 1.900000000000e-01 3.000000000000e+01 
6.000000000000e-02 0.000000000000e+00 1.900000000000e-01 3.000000000000e+01 
7.000000000000e-02 0.000000000000e+00 1.900000000000e-01 3.000000000000e+01 
8.000000000000e-02 0.000000000000e+00 1.900000000000e-01 3.000000000000e+01 
9.000000000000e-02 0.000000000000e+00 1.900000000000e-01 3.000000000000e+01 
1.000000000000e-01 0.000000000000e+00 1.900000000000e-01 3.000000000000e+01 
0.000000000000e+00 0.000000000000e+00 1.800000000000e-01 3.000000000000e+01 
1.000000000000e-02 0.000000000000e+00 1.800000000000e-01 3.000000000000e+01 
2.000000000000e-02 0.000000000000e+00 1.800000000000e-01 3.000000000000e+01 
3.000000000000e-02 0.000000000000e+00 1.800000000000e-01 3.000000000000e+01 
4.000000000000e-02 0.000000000000e+00 1.800000000000e-01 3.000000000000e+01 
5.000000000000e-02 0.000000000000e+00 1.800000000000e-01 3.000000000000e+01 
6.000000000000e-02 0.000000000000e+00 1.800000000000e-01 3.000000000000e+01 
7.000000000000e-02 0.000000000000e+00 1.800000000000e-01 3.000000000000e+01 
8.000000000000e-02 0.000000000000e+00 1.800000000000e-01 3.000000000000e+01 
9.000000000000e-02 0.000000000000e+00 1.800000000000e-01 3.000000000000e+01 
1.000000000000e-01 0.000000000000e+00 1.800000000000e-01 3.000000000000e+01 
0.000000000000e+00 0.000000000000e+00 1.700000000000e-01 3.000000000000e+01 
1.000000000000e-02 0.000000000000e+00 1.700000000000e-01 3.000000000000e+01 
2.000000000000e-02 0.000000000000e+00 1.700000000000e-01 3.000000000000e+01 
3.000000000000e-02 0.000000000000e+00 1.700000000000e-01 3.000000000000e+01 
4.000000000000e-02 0.000000000000e+00 1.700000000000e-01 3.000000000000e+01 
5.000000000000e-02 0.000000000000e+00 1.700000000000e-01 3.000000000000e+01 
6.000000000000e-02 0.000000000000e+00 1.700000000000e-01 3.000000000000e+01 
7.000000000000e-02 0.000000000000e+00 1.700000000000e-01 3.000000000000e+01 
8.000000000000e-02 0.000000000000e+00 1.700000000000e-01 3.000000000000e+01 
9.000000000000e-02 0.000000000000e+00 1.700000000000e-01 3.000000000000e+01 
1.000000000000e-01 0.000000000000e+00 1.700000000000e-01 3.000000000000e+01 
0.000000000000e+00 0.000000000000e+00 1.600000000000e-01 3.000000000000e+01 
1.000000000000e-02 0.000000000000e+00 1.600000000000e-01 3.000000000000e+01 
2.000000000000e-02 0.000000000000e+00 1.600000000000e-01 3.000000000000e+01 
3.000000000000e-02 0.000000000000e+00 1.600000000000e-01 3.000000000000e+01 
4.000000000000e-02 0.000000000000e+00 1.600000000000e-01 3.000000000000e+01 
5.000000000000e-02 0.000000000000e+00 1.600000000000e-01 3.000000000000e+01 
6.000000000000e-02 0.000000000000e+00 1.600000000000e-01 3.000000000000e+01 
7.000000000000e-02 0.000000000000e+00 1.600000000000e-01 3.000000000000e+01 
8.000000000000e-02 0.000000000000e+00 1.600000000000e-01 3.000000000000e+01 
9.000000000000e-02 0.000000000000e+00 1.600000000000e-01 3.000000000000e+01 
1.000000000000e-01 0.000000000000e+00 1.600000000000e-01 3.000000000000e+01 
0.000000000000e+00 0.000000000000e+00 1.500000000000e-01 3.000000000000e+01 
1.000000000000e-02 0.000000000000e+00 1.500000000000e-01 3.000000000000e+01 
2.000000000000e-02 0.000000000000e+00 1.500000000000e-01 3.000000000000e+01 
3.000000000000e-02 0.000000000000e+00 1.500000000000e-01 3.000000000000e+01 
4.000000000000e-02 0.000000000000e+00 1.500000000000e-01 3.000000000000e+01 
5.000000000000e-02 0.000000000000e+00 1.500000000000e-01 3.000000000000e+01 
6.000000000000e-02 0.000000000000e+00 1.500000000000e-01 3.000000000000e+01 
7.000000000000e-02 0.000000000000e+00 1.500000000000e-01 3.000000000000e+01 
8.000000000000e-02 0.000000000000e+00 1.500000000000e-01 3.000000000000e+01 
9.000000000000e-02 0.000000000000e+00 1.500000000000e-01 3.000000000000e+01 
1.000000000000e-01 0.000000000000e+00 1.500000000000e-01 3.000000000000e+01 
0.000000000000e+00 0.000000000000e+00 1.400000000000e-01 3.000000000000e+01 
1.000000000000e-02 0.000000000000e+00 1.400000000000e-01 3.000000000000e+01 
2.000000000000e-02 0.000000000000e+00 1.400000000000e-01 3.000000000000e+01 
3.000000000000e-02 0.000000000000e+00 1.400000000000e-01 3.000000000000e+01 
4.000000000000e-02 0.000000000000e+00 1.400000000000e-01 3.000000000000e+01 
5.000000000000e-02 0.000000000000e+00 1.400000000000e-01 3.000000000000e+01 
6.000000000000e-02 0.000000000000e+00 1.400000000000e-01 3.000000000000e+01 
7.000000000000e-02 0.000000000000e+00 1.400000000000e-01 3.000000000000e+01 
8.000000000000e-02 0.000000000000e+00 1.400000000000e-01 3.000000000000e+01 
9.000000000000e-02 0.000000000000e+00 1.400000000000e-01 3.000000000000e+01 
1.000000000000e-01 0.000000000000e+00 1.400000000000e-01 3.000000000000e+01 
0.000000000000e+00 0.000000000000e+00 1.300000000000e-01 3.000000000000e+01 
1.000000000000e-02 0.000000000000e+00 1.300000000000e-01 3.000000000000e+01 
2.000000000000e-02 0.000000000000e+00 1.300000000000e-01 3.000000000000e+01 
3.000000000000e-02 0.000000000000e+00 1.300000000000e-01 3.000000000000e+01 
4.000000000000e-02 0.000000000000e+00 1.300000000000e-01 3.000000000000e+01 
5.000000000000e-02 0.000000000000e+00 1.300000000000e-01 3.000000000000e+01 
6.000000000000e-02 0.000000000000e+00 1.300000000000e-01 3.000000000000e+01 
7.000000000000e-02 0.000000000000e+00 1.300000000000e-01 3.000000000000e+01 
8.000000000000e-02 0.000000000000e+00 1.300000000000e-01 3.000000000000e+01 
9.000000000000e-02 0.000000000000e+00 1.300000000000e-01 3.000000000000e+01 
1.000000000000e-01 0.000000000000e+00 1.300000000000e-01 3.000000000000e+01 
0.000000000000e+00 0.000000000000e+00 1.200000000000e-01 3.000000000000e+01 
1.000000000000e-02 0.000000000000e+00 1.200000000000e-01 3.000000000000e+01 
2.000000000000e-02 0.000000000000e+00 1.200000000000e-01 3.000000000000e+01 
3.000000000000e-02 0.000000000000e+00 1.200000000000e-01 3.000000000000e+01 
4.000000000000e-02 0.000000000000e+00 1.200000000000e-01 3.000000000000e+01 
5.000000000000e-02 0.000000000000e+00 1.200000000000e-01 3.000000000000e+01 
6.000000000000e-02 0.000000000000e+00 1.200000000000e-01 3.000000000000e+01 
7.000000000000e-02 0.000000000000e+00 1.200000000000e-01 3.000000000000e+01 
8.000000000000e-02 0.000000000000e+00 1.200000000000e-01 3.000000000000e+01 
9.000000000000e-02 0.000000000000e+00 1.200000000000e-01 3.000000000000e+01 
1.000000000000e-01 0.000000000000e+00 1.200000000000e-01 3.000000000000e+01 
0.000000000000e+00 0.000000000000e+00 1.100000000000e-01 3.000000000000e+01 
1.000000000000e-02 0.000000000000e+00 1.100000000000e-01 3.000000000000e+01 
2.000000000000e-02 0.000000000000e+00 1.100000000000e-01 3.000000000000e+01 
3.000000000000e-02 0.000000000000e+00 1.100000000000e-01 3.000000000000e+01 
4.000000000000e-02 0.000000000000e+00 1.100000000000e-01 3.000000000000e+01 
5.000000000000e-02 0.000000000000e+00 1.100000000000e-01 3.000000000000e+01 
6.000000000000e-02 0.000000000000e+00 1.100000000000e-01 3.000000000000e+01 
7.000000000000e-02 0.000000000000e+00 1.100000000000e-01 3.000000000000e+01 
8.000000000000e-02 0.000000000000e+00 1.100000000000e-01 3.000000000000e+01 
9.000000000000e-02 0.000000000000e+00 1.100000000000e-01 3.000000000000e+01 
1.000000000000e-01 0.000000000000e+00 1.100000000000e-01 3.000000000000e+01 
0.000000000000e+00 0.000000000000e+00 1.000000000000e-01 3.000000000000e+01 
1.000000000000e-02 0.000000000000e+00 1.000000000000e-01 3.000000000000e+01 
2.000000000000e-02 0.000000000000e+00 1.000000000000e-01 3.000000000000e+01 
3.000000000000e-02 0.000000000000e+00 1.000000000000e-01 3.000000000000e+01 
4.000000000000e-02 0.000000000000e+00 1.000000000000e-01 3.000000000000e+01 
5.000000000000e-02 0.000000000000e+00 1.000000000000e-01 3.000000000000e+01 
6.000000000000e-02 0.000000000000e+00 1.000000000000e-01 3.000000000000e+01 
7.000000000000e-02 0.000000000000e+00 1.000000000000e-01 3.000000000000e+01 
8.000000000000e-02 0.000000000000e+00 1.000000000000e-01 3.000000000000e+01 
9.000000000000e-02 0.000000000000e+00 1.000000000000e-01 3.000000000000e+01 
1.000000000000e-01 0.000000000000e+00 1.000000000000e-01 3.000000000000e+01 
0.000000000000e+00 0.000000000000e+00 9.000000000000e-02 3.000000000000e+01 
1.000000000000e-02 0.000000000000e+00 9.000000000000e-02 3.000000000000e+01 
2.000000000000e-02 0.000000000000e+00 9.000000000000e-02 3.000000000000e+01 
3.000000000000e-02 0.000000000000e+00 9.000000000000e-02 3.000000000000e+01 
4.000000000000e-02 0.000000000000e+00 9.000000000000e-02 3.000000000000e+01 
5.000000000000e-02 0.000000000000e+00 9.000000000000e-02 3.000000000000e+01 
6.000000000000e-02 0.000000000000e+00 9.000000000000e-02 3.000000000000e+01 
7.000000000000e-02 0.000000000000e+00 9.000000000000e-02 3.000000000000e+01 
8.000000000000e-02 0.000000000000e+00 9.000000000000e-02 3.000000000000e+01 
9.000000000000e-02 0.000000000000e+00 9.000000000000e-02 3.000000000000e+01 
1.000000000000e-01 0.000000000000e+00 9.000000000000e-02 3.000000000000e+01 
0.000000000000e+00 0.000000000000e+00 8.000000000000e-02 3.000000000000e+01 
1.000000000000e-02 0.000000000000e+00 8.000000000000e-02 3.000000000000e+01 
2.000000000000e-02 0.000000000000e+00 8.000000000000e-02 3.000000000000e+01 
3.000000000000e-02 0.000000000000e+00 8.000000000000e-02 3.000000000000e+01 
4.000000000000e-02 0.000000000000e+00 8.000000000000e-02 3.000000000000e+01 
5.000000000000e-02 0.000000000000e+00 8.000000000000e-02 3.000000000000e+01 
6.000000000000e-02 0.000000000000e+00 8.000000000000e-02 3.000000000000e+01 
7.000000000000e-02 0.000000000000e+00 8.000000000000e-02 3.000000000000e+01 
8.000000000000e-02 0.000000000000e+00 8.000000000000e-02 3.000000000000e+01 
9.000000000000e-02 0.000000000000e+00 8.000000000000e-02 3.000000000000e+01 
1.000000000000e-01 0.000000000000e+00 8.000000000000e-02 3.000000000000e+01 
0.000000000000e+00 0.000000000000e+00 7.000000000000e-02 3.000000000000e+01 
1.000000000000e-02 0.000000000000e+00 7.000000000000e-02 3.000000000000e+01 
2.000000000000e-02 0.000000000000e+00 7.000000000000e-02 3.000000000000e+01 
3.000000000000e-02 0.000000000000e+00 7.000000000000e-02 3.000000000000e+01 
4.000000000000e-02 0.000000000000e+00 7.000000000000e-02 3.000000000000e+01 
5.000000000000e-02 0.000000000000e+00 7.000000000000e-02 3.000000000000e+01 
6.000000000000e-02 0.000000000000e+00 7.000000000000e-02 3.000000000000e+01 
7.000000000000e-02 0.000000000000e+00 7.000000000000e-02 3.000000000000e+01 
8.000000000000e-02 0.000000000000e+00 7.000000000000e-02 3.000000000000e+01 
9.000000000000e-02 0.000000000000e+00 7.000000000000e-02 3.000000000000e+01 
1.000000000000e-01 0.000000000000e+00 7.000000000000e-02 3.000000000000e+01 
0.000000000000e+00 0.000000000000e+00 6.000000000000e-02 3.000000000000e+01 
1.000000000000e-02 0.000000000000e+00 6.000000000000e-02 3.000000000000e+01 
2.000000000000e-02 0.000000000000e+00 6.000000000000e-02 3.000000000000e+01 
3.000000000000e-02 0.000000000000e+00 6.000000000000e-02 3.000000000000e+01 
4.000000000000e-02 0.000000000000e+00 6.000000000000e-02 3.000000000000e+01 
5.000000000000e-02 0.000000000000e+00 6.000000000000e-02 3.000000000000e+01 
6.000000000000e-02 0.000000000000e+00 6.000000000000e-02 3.000000000000e+01 
7.000000000000e-02 0.000000000000e+00 6.000000000000e-02 3.000000000000e+01 
8.000000000000e-02 0.000000000000e+00 6.000000000000e-02 3.000000000000e+01 
9.000000000000e-02 0.000000000000e+00 6.000000000000e-02 3.000000000000e+01 
1.000000000000e-01 0.000000000000e+00 6.000000000000e-02 3.000000000000e+01 
0.000000000000e+00 0.000000000000e+00 5.000000000000e-02 3.000000000000e+01 
1.000000000000e-02 0.000000000000e+00 5.000000000000e-02 3.000000000000e+01 
2.000000000000e-02 0.000000000000e+00 5.000000000000e-02 3.000000000000e+01 
3.000000000000e-02 0.000000000000e+00 5.000000000000e-02 3.000000000000e+01 
4.000000000000e-02 0.000000000000e+00 5.000000000000e-02 3.000000000000e+01 
5.000000000000e-02 0.000000000000e+00 5.000000000000e-02 3.000000000000e+01 
6.000000000000e-02 0.000000000000e+00 5.000000000000e-02 3.000000000000e+01 
7.000000000000e-02 0.000000000000e+00 5.000000000000e-02 3.000000000000e+01 
8.000000000000e-02 0.000000000000e+00 5.000000000000e-02 3.000000000000e+01 
9.000000000000e-02 0.000000000000e+00 5.000000000000e-02 3.000000000000e+01 
1.000000000000e-01 0.000000000000e+00 5.000000000000e-02 3.000000000000e+01 
0.000000000000e+00 0.000000000000e+00 4.000000000000e-02 3.000000000000e+01 
1.000000000000e-02 0.000000000000e+00 4.000000000000e-02 3.000000000000e+01 
2.000000000000e-02 0.000000000000e+00 4.000000000000e-02 3.000000000000e+01 
3.000000000000e-02 0.000000000000e+00 4.000000000000e-02 3.000000000000e+01 
4.000000000000e-02 0.000000000000e+00 4.000000000000e-02 3.000000000000e+01 
5.000000000000e-02 0.000000000000e+00 4.000000000000e-02 3.000000000000e+01 
6.000000000000e-02 0.000000000000e+00 4.000000000000e-02 3.000000000000e+01 
7.000000000000e-02 0.000000000000e+00 4.000000000000e-02 3.000000000000e+01 
8.000000000000e-02 0.000000000000e+00 4.000000000000e-02 3.000000000000e+01 
9.000000000000e-02 0.000000000000e+00 4.000000000000e-02 3.000000000000e+01 
1.000000000000e-01 0.000000000000e+00 4.000000000000e-02 3.000000000000e+01 
0.000000000000e+00 0.000000000000e+00 3.000000000000e-02 3.000000000000e+01 
1.000000000000e-02 0.000000000000e+00 3.000000000000e-02 3.000000000000e+01 
2.000000000000e-02 0.000000000000e+00 3.000000000000e-02 3.000000000000e+01 
3.000000000000e-02 0.000000000000e+00 3.000000000000e-02 3.000000000000e+01 
4.000000000000e-02 0.000000000000e+00 3.000000000000e-02 3.000000000000e+01 
5.000000000000e-02 0.000000000000e+00 3.000000000000e-02 3.000000000000e+01 
6.000000000000e-02 0.000000000000e+00 3.000000000000e-02 3.000000000000e+01 
7.000000000000e-02 0.000000000000e+00 3.000000000000e-02 3.000000000000e+01 
8.000000000000e-02 0.000000000000e+00 3.000000000000e-02 3.000000000000e+01 
9.000000000000e-02 0.000000000000e+00 3.000000000000e-02 3.000000000000e+01 
1.000000000000e-01 0.000000000000e+00 3.000000000000e-02 3.000000000000e+01 
0.000000000000e+00 0.000000000000e+00 2.000000000000e-02 3.000000000000e+01 
1.000000000000e-02 0.000000000000e+00 2.000000000000e-02 3.000000000000e+01 
2.000000000000e-02 0.000000000000e+00 2.000000000000e-02 3.000000000000e+01 
3.000000000000e-02 0.000000000000e+00 2.000000000000e-02 3.000000000000e+01 
4.000000000000e-02 0.000000000000e+00 2.000000000000e-02 3.000000000000e+01 
5.000000000000e-02 0.000000000000e+00 2.000000000000e-02 3.000000000000e+01 
6.000000000000e-02 0.000000000000e+00 2.000000000000e-02 3.000000000000e+01 
7.000000000000e-02 0.000000000000e+00 2.000000000000e-02 3.000000000000e+01 
8.000000000000e-02 0.000000000000e+00 2.000000000000e-02 3.000000000000e+01 
9.000000000000e-02 0.000000000000e+00 2.000000000000e-02 3.000000000000e+01 
1.000000000000e-01 0.000000000000e+00 2.000000000000e-02 3.000000000000e+01 
0.000000000000e+00 0.000000000000e+00 1.000000000000e-02 3.000000000000e+01 
1.000000000000e-02 0.000000000000e+00 1.000000000000e-02 3.000000000000e+01 
2.000000000000e-02 0.000000000000e+00 1.000000000000e-02 3.000000000000e+01 
3.000000000000e-02 0.000000000000e+00 1.000000000000e-02 3.000000000000e+01 
4.000000000000e-02 0.000000000000e+00 1.000000000000e-02 3.000000000000e+01 
5.000000000000e-02 0.000000000000e+00 1.000000000000e-02 3.000000000000e+01 
6.000000000000e-02 0.000000000000e+00 1.000000000000e-02 3.000000000000e+01 
7.000000000000e-02 0.000000000000e+00 1.000000000000e-02 3.000000000000e+01 
8.000000000000e-02 0.000000000000e+00 1.000000000000e-02 3.000000000000e+01 
9.000000000000e-02 0.000000000000e+00 1.000000000000e-02 3.000000000000e+01 
1.000000000000e-01 0.000000000000e+00 1.000000000000e-02 3.000000000000e+01 
0.000000000000e+00 0.000000000000e+00 0.000000000000e+00 3.000000000000e+01 
1.000000000000e-02 0.000000000000e+00 0.000000000000e+00 3.000000000000e+01 
2.000000000000e-02 0.000000000000e+00 0.000000000000e+00 3.000000000000e+01 
3.000000000000e-02 0.000000000000e+00 0.000000000000e+00 3.000000000000e+01 
4.000000000000e-02 0.000000000000e+00 0.000000000000e+00 3.000000000000e+01 
5.000000000000e-02 0.000000000000e+00 0.000000000000e+00 3.000000000000e+01 
6.000000000000e-02 0.000000000000e+00 0.000000000000e+00 3.000000000000e+01 
7.000000000000e-02 0.000000000000e+00 0.000000000000e+00 3.000000000000e+01 
8.000000000000e-02 0.000000000000e+00 0.000000000000e+00 3.000000000000e+01 
9.000000000000e-02 0.000000000000e+00 0.000000000000e+00 3.000000000000e+01 
1.000000000000e-01 0.000000000000e+00 0.000000000000e+00 3.000000000000e+01 
12  13  2  1  
13  14  3  2  
14  15  4  3  
15  16  5  4  
16  17  6  5  
17  18  7  6  
18  19  8  7  
19  20  9  8  
20  21  10  9  
21  22  11  10  
23  24  13  12  
24  25  14  13  