 TITLE = "Time curves in points"
 VARIABLES = "TIME "  "DISPLACEMENT_X1"  "DISPLACEMENT_Y1"  "STRESS_XX"  "STRESS_XY"  "STRESS_YY"  "STRESS_ZZ"  "STRAIN_XX"  "STRAIN_XY"  "STRAIN_YY"  "STRAIN_PLS"  p_(1st_Invariant)  q_(2nd_Invariant)   Effective_Strain
 ZONE T="POINT=POINT6"
0.000000000000e+00 0.000000000000e+00 0.000000000000e+00 0.000000000000e+00 0.000000000000e+00 0.000000000000e+00 0.000000000000e+00 0.000000000000e+00 0.000000000000e+00 0.000000000000e+00 0.000000000000e+00 -0.000000000000e+00 0.000000000000e+00  0.000000000000e+00
1.000000000000e-02 -1.617777456621e-10 -7.023554832353e-06 7.660215681734e+03 -2.208126280894e-02 1.477220288962e+03 3.654974388278e+03 1.869112603613e-04 -2.060917862168e-09 -1.016285246348e-04 0.000000000000e+00 -4.264136786325e+03 5.432034736904e+03  2.534949544077e-04
7.000000000000e-02 6.055184706393e-10 -2.417685587457e-05 7.782090595441e+03 4.547436892171e-02 -7.060691968923e+03 2.885594506071e+02 3.496981200922e-04 4.244274432693e-09 -3.429650662447e-04 0.000000000000e+00 -3.366526923749e+02 1.285442919214e+04  5.998733623336e-04
4.300000000000e-01 7.592078463238e-10 -1.270937757064e-04 8.513351927912e+03 6.282126153809e-02 -5.828628834210e+04 -1.990917456568e+04 1.326384569701e-03 5.863317743555e-09 -1.790931976233e-03 0.000000000000e+00 2.322737032662e+04 5.806390795630e+04  2.709649037975e-03
1.430000000000e+00 -7.685674978854e-10 -4.129525168304e-04 1.054532602767e+04 -5.114892393038e-02 -2.005674071905e+05 -7.600883246514e+04 4.039194062998e-03 -4.773899566833e-09 -5.812733487184e-03 0.000000000000e+00 8.867697120933e+04 1.838138283929e+05  8.577978658336e-03
2.430000000000e+00 6.393750147022e-11 -6.987887249738e-04 1.257830444828e+04 6.358374876619e-03 -3.428358981377e+05 -1.321030374758e+05 6.751795956455e-03 5.934483218196e-10 -9.834200164223e-03 0.000000000000e+00 1.541202103884e+05 3.095644397080e+05  1.444634051971e-02
3.430000000000e+00 -5.534561839217e-10 -9.846116989927e-04 1.461246089454e+04 -4.290123205848e-02 -4.850962945160e+05 -1.881935334486e+05 9.464279736012e-03 -4.004114992128e-09 -1.385546218315e-02 0.000000000000e+00 2.195591223567e+05 4.353104415844e+05  2.031448727394e-02
4.430000000000e+00 -6.520579155703e-10 -1.270425955446e-03 1.664772055123e+04 -4.802134048990e-02 -6.273509257182e+05 -2.442812820668e+05 1.217668678884e-02 -4.481991779056e-09 -1.787658337040e-02 0.000000000000e+00 2.849948290779e+05 5.610528284802e+05  2.618246532908e-02
5.430000000000e+00 -4.005908874766e-10 -1.556234040905e-03 1.868392809593e+04 -3.018868689838e-02 -7.696012185982e+05 -3.003669162009e+05 1.488903940052e-02 -2.817610777188e-09 -2.189760077854e-02 0.000000000000e+00 3.504280689011e+05 6.867924520157e+05  3.205031442740e-02
6.430000000000e+00 -5.404214757953e-10 -1.842037516894e-03 2.072091013014e+04 -4.661325166145e-02 -9.118481443470e+05 -3.564508936867e+05 1.760135084479e-02 -4.350570155067e-09 -2.591853836414e-02 0.000000000000e+00 4.158593759679e+05 8.125299123736e+05  3.791806257744e-02
7.430000000000e+00 3.864223901874e-10 -2.127837396720e-03 2.275848277413e+04 2.521496134128e-02 -1.054092408205e+06 -4.125335701724e+05 2.031362913750e-02 2.353396391846e-09 -2.993941244153e-02 0.000000000000e+00 4.812891652011e+05 9.382656221505e+05  4.378572903369e-02
8.430000000000e+00 8.051499125007e-10 -2.413634372092e-03 2.479652233757e+04 5.572061283198e-02 -1.196334506460e+06 -4.686151936488e+05 2.302588007936e-02 5.200590530988e-09 -3.396023459783e-02 0.000000000000e+00 5.467177259236e+05 1.063999884681e+06  4.965332795177e-02
9.430000000000e+00 1.111631715777e-09 -2.699677749489e-03 2.687318341802e+04 9.340685532857e-02 -1.338549265903e+06 -5.246704329941e+05 2.573870209923e-02 8.717973164005e-09 -3.798101220243e-02 0.000000000000e+00 6.121155051597e+05 1.189743161479e+06  5.552134753569e-02
