 TITLE = "Time curves in points"
 VARIABLES = "TIME "  "TEMPERATURE1"  p_(1st_Invariant)  q_(2nd_Invariant)   Effective_Strain
 ZONE T="POINT=POINT6"
0.000000000000e+00 3.000000000000e+01 -0.000000000000e+00 0.000000000000e+00  0.000000000000e+00
1.000000000000e-02 3.000000000000e+01 -4.264136786325e+03 5.432034736904e+03  2.534949544077e-04
7.000000000000e-02 3.000000000000e+01 -3.366526923749e+02 1.285442919214e+04  5.998733623336e-04
4.300000000000e-01 3.000000000000e+01 2.322737032662e+04 5.806390795630e+04  2.709649037975e-03
1.430000000000e+00 3.000000000000e+01 8.867697120933e+04 1.838138283929e+05  8.577978658336e-03
2.430000000000e+00 3.000000000000e+01 1.541202103884e+05 3.095644397080e+05  1.444634051971e-02
3.430000000000e+00 3.000000000000e+01 2.195591223567e+05 4.353104415844e+05  2.031448727394e-02
4.430000000000e+00 3.000000000000e+01 2.849948290779e+05 5.610528284802e+05  2.618246532908e-02
5.430000000000e+00 3.000000000000e+01 3.504280689011e+05 6.867924520157e+05  3.205031442740e-02
6.430000000000e+00 3.000000000000e+01 4.158593759679e+05 8.125299123736e+05  3.791806257744e-02
7.430000000000e+00 3.000000000000e+01 4.812891652011e+05 9.382656221505e+05  4.378572903369e-02
8.430000000000e+00 3.000000000000e+01 5.467177259236e+05 1.063999884681e+06  4.965332795177e-02
9.430000000000e+00 3.000000000000e+01 6.121155051597e+05 1.189743161479e+06  5.552134753569e-02
