 TITLE = "Time curves in points"
 VARIABLES = "TIME "  "TEMPERATURE1"  p_(1st_Invariant)  q_(2nd_Invariant)   Effective_Strain
 ZONE T="POINT=POINT6"
0.000000000000e+00 3.000000000000e+01 -0.000000000000e+00 0.000000000000e+00  0.000000000000e+00
1.000000000000e-02 3.000000000000e+01 -4.264138991284e+03 5.432038537791e+03  2.534951317825e-04
7.000000000000e-02 3.000000000000e+01 -3.366549693844e+02 1.285443113241e+04  5.998734528481e-04
4.300000000000e-01 3.000000000000e+01 2.322736754781e+04 5.806390695772e+04  2.709648991372e-03
1.430000000000e+00 3.000000000000e+01 8.867697353804e+04 1.838138279824e+05  8.577978639181e-03
2.430000000000e+00 3.000000000000e+01 1.541202066611e+05 3.095644386773e+05  1.444634047161e-02
3.430000000000e+00 3.000000000000e+01 2.195591177291e+05 4.353104377136e+05  2.031448709330e-02
4.430000000000e+00 3.000000000000e+01 2.849948255713e+05 5.610528270126e+05  2.618246526059e-02
5.430000000000e+00 3.000000000000e+01 3.504280688855e+05 6.867924524518e+05  3.205031444775e-02
6.430000000000e+00 3.000000000000e+01 4.158593812390e+05 8.125299108473e+05  3.791806250621e-02
7.430000000000e+00 3.000000000000e+01 4.812891639439e+05 9.382656229958e+05  4.378572907314e-02
8.430000000000e+00 3.000000000000e+01 5.467177254981e+05 1.063999883179e+06  4.965332788169e-02
9.430000000000e+00 3.000000000000e+01 6.121155058730e+05 1.189743161665e+06  5.552134754437e-02
