 TITLE = "Time curves in points"
 VARIABLES = "TIME "  "Cl[-]"  "Ca[2+]"  "K[+]"  "Na[+]" 
 ZONE T="POINT=POINT2"
0.000000000000e+00 0.000000000000e+00 0.000000000000e+00 1.999980000000e-04 1.000000000000e-03 
1.800000000000e+03 1.118980000000e-12 1.046150000000e-15 1.999990000000e-04 1.000000000000e-03 
3.600000000000e+03 3.607630000000e-11 2.366160000000e-15 1.999990000000e-04 1.000000000000e-03 
5.400000000000e+03 5.599710000000e-10 5.268490000000e-15 1.999990000000e-04 1.000000000000e-03 
7.200000000000e+03 5.573560000000e-09 1.138080000000e-14 1.999990000000e-04 1.000000000000e-03 
9.000000000000e+03 3.997980000000e-08 2.399220000000e-14 1.999990000000e-04 1.000000000000e-03 
1.080000000000e+04 2.202590000000e-07 4.968310000000e-14 2.000000000000e-04 1.000000000000e-03 
1.260000000000e+04 9.701390000000e-07 1.016420000000e-13 2.000030000000e-04 9.999970000000e-04 
1.440000000000e+04 3.512360000000e-06 2.062980000000e-13 2.000110000000e-04 9.999900000000e-04 
1.620000000000e+04 1.067060000000e-05 4.165600000000e-13 2.000310000000e-04 9.999730000000e-04 
1.800000000000e+04 2.765100000000e-05 8.382620000000e-13 2.000770000000e-04 9.999390000000e-04 
