 TITLE = "Profiles along polylines"
 VARIABLES = "DIST" "PCE-l" "PCE-h" 
 ZONE T="TIME=0.000000000000e+00"
0.000000000000e+00 1.000000000000e-10 1.000000000000e-10 
7.300000000000e+00 1.000000000000e-10 1.000000000000e-10 
1.460000000000e+01 1.000000000000e-10 1.000000000000e-10 
2.190000000000e+01 1.000000000000e-10 1.000000000000e-10 
2.920000000000e+01 1.000000000000e-10 1.000000000000e-10 
3.650000000000e+01 1.000000000000e-10 1.000000000000e-10 
4.380000000000e+01 1.000000000000e-10 1.000000000000e-10 
5.110000000000e+01 1.000000000000e-10 1.000000000000e-10 
5.840000000000e+01 1.000000000000e-10 1.000000000000e-10 
6.570000000000e+01 1.000000000000e-10 1.000000000000e-10 
7.300000000000e+01 1.000000000000e-10 1.000000000000e-10 
8.030000000000e+01 1.000000000000e-10 1.000000000000e-10 
8.760000000000e+01 1.000000000000e-10 1.000000000000e-10 
9.490000000000e+01 1.000000000000e-10 1.000000000000e-10 
1.022000000000e+02 1.000000000000e-10 1.000000000000e-10 
1.095000000000e+02 1.000000000000e-10 1.000000000000e-10 
1.168000000000e+02 1.000000000000e-10 1.000000000000e-10 
1.241000000000e+02 1.000000000000e-10 1.000000000000e-10 
1.314000000000e+02 1.000000000000e-10 1.000000000000e-10 
1.387000000000e+02 1.000000000000e-10 1.000000000000e-10 
1.460000000000e+02 1.000000000000e-10 1.000000000000e-10 
1.533000000000e+02 1.000000000000e-10 1.000000000000e-10 
1.606000000000e+02 1.000000000000e-10 1.000000000000e-10 
1.679000000000e+02 1.000000000000e-10 1.000000000000e-10 
1.752000000000e+02 1.000000000000e-10 1.000000000000e-10 
1.825000000000e+02 1.000000000000e-10 1.000000000000e-10 
1.898000000000e+02 1.000000000000e-10 1.000000000000e-10 
1.971000000000e+02 1.000000000000e-10 1.000000000000e-10 
2.044000000000e+02 1.000000000000e-10 1.000000000000e-10 
2.117000000000e+02 1.000000000000e-10 1.000000000000e-10 
2.190000000000e+02 1.000000000000e-10 1.000000000000e-10 
2.263000000000e+02 1.000000000000e-10 1.000000000000e-10 
2.336000000000e+02 1.000000000000e-10 1.000000000000e-10 
2.409000000000e+02 1.000000000000e-10 1.000000000000e-10 
2.482000000000e+02 1.000000000000e-10 1.000000000000e-10 
2.555000000000e+02 1.000000000000e-10 1.000000000000e-10 
2.628000000000e+02 1.000000000000e-10 1.000000000000e-10 
2.701000000000e+02 1.000000000000e-10 1.000000000000e-10 
2.774000000000e+02 1.000000000000e-10 1.000000000000e-10 
2.847000000000e+02 1.000000000000e-10 1.000000000000e-10 
2.920000000000e+02 1.000000000000e-10 1.000000000000e-10 
2.993000000000e+02 1.000000000000e-10 1.000000000000e-10 
3.066000000000e+02 1.000000000000e-10 1.000000000000e-10 
3.139000000000e+02 1.000000000000e-10 1.000000000000e-10 
3.212000000000e+02 1.000000000000e-10 1.000000000000e-10 
3.285000000000e+02 1.000000000000e-10 1.000000000000e-10 
3.358000000000e+02 1.000000000000e-10 1.000000000000e-10 
3.431000000000e+02 1.000000000000e-10 1.000000000000e-10 
3.504000000000e+02 1.000000000000e-10 1.000000000000e-10 
3.577000000000e+02 1.000000000000e-10 1.000000000000e-10 
3.650000000000e+02 1.000000000000e-10 1.000000000000e-10 
3.723000000000e+02 1.000000000000e-10 1.000000000000e-10 
3.796000000000e+02 1.000000000000e-10 1.000000000000e-10 
3.869000000000e+02 1.000000000000e-10 1.000000000000e-10 
3.942000000000e+02 1.000000000000e-10 1.000000000000e-10 
4.015000000000e+02 1.000000000000e-10 1.000000000000e-10 
4.088000000000e+02 1.000000000000e-10 1.000000000000e-10 
4.161000000000e+02 1.000000000000e-10 1.000000000000e-10 
4.234000000000e+02 1.000000000000e-10 1.000000000000e-10 
4.307000000000e+02 1.000000000000e-10 1.000000000000e-10 
4.380000000000e+02 1.000000000000e-10 1.000000000000e-10 
4.453000000000e+02 1.000000000000e-10 1.000000000000e-10 
4.526000000000e+02 1.000000000000e-10 1.000000000000e-10 
4.599000000000e+02 1.000000000000e-10 1.000000000000e-10 
4.672000000000e+02 1.000000000000e-10 1.000000000000e-10 
4.745000000000e+02 1.000000000000e-10 1.000000000000e-10 
4.818000000000e+02 1.000000000000e-10 1.000000000000e-10 
4.891000000000e+02 1.000000000000e-10 1.000000000000e-10 
4.964000000000e+02 1.000000000000e-10 1.000000000000e-10 
5.037000000000e+02 1.000000000000e-10 1.000000000000e-10 
5.110000000000e+02 1.000000000000e-10 1.000000000000e-10 
5.183000000000e+02 1.000000000000e-10 1.000000000000e-10 
5.256000000000e+02 1.000000000000e-10 1.000000000000e-10 
5.329000000000e+02 1.000000000000e-10 1.000000000000e-10 
5.402000000000e+02 1.000000000000e-10 1.000000000000e-10 
5.475000000000e+02 1.000000000000e-10 1.000000000000e-10 
5.548000000000e+02 1.000000000000e-10 1.000000000000e-10 
5.621000000000e+02 1.000000000000e-10 1.000000000000e-10 
5.694000000000e+02 1.000000000000e-10 1.000000000000e-10 
5.767000000000e+02 1.000000000000e-10 1.000000000000e-10 
5.840000000000e+02 1.000000000000e-10 1.000000000000e-10 
5.913000000000e+02 1.000000000000e-10 1.000000000000e-10 
5.986000000000e+02 1.000000000000e-10 1.000000000000e-10 
6.059000000000e+02 1.000000000000e-10 1.000000000000e-10 
6.132000000000e+02 1.000000000000e-10 1.000000000000e-10 
6.205000000000e+02 1.000000000000e-10 1.000000000000e-10 
6.278000000000e+02 1.000000000000e-10 1.000000000000e-10 
6.351000000000e+02 1.000000000000e-10 1.000000000000e-10 
6.424000000000e+02 1.000000000000e-10 1.000000000000e-10 
6.497000000000e+02 1.000000000000e-10 1.000000000000e-10 
6.570000000000e+02 1.000000000000e-10 1.000000000000e-10 
6.643000000000e+02 1.000000000000e-10 1.000000000000e-10 
6.716000000000e+02 1.000000000000e-10 1.000000000000e-10 
6.789000000000e+02 1.000000000000e-10 1.000000000000e-10 
6.862000000000e+02 1.000000000000e-10 1.000000000000e-10 
6.935000000000e+02 1.000000000000e-10 1.000000000000e-10 
7.008000000000e+02 1.000000000000e-10 1.000000000000e-10 
7.081000000000e+02 1.000000000000e-10 1.000000000000e-10 
7.154000000000e+02 1.000000000000e-10 1.000000000000e-10 
7.227000000000e+02 1.000000000000e-10 1.000000000000e-10 
7.300000000000e+02 1.000000000000e-10 1.000000000000e-10 
7.373000000000e+02 1.000000000000e-10 1.000000000000e-10 
7.446000000000e+02 1.000000000000e-10 1.000000000000e-10 
7.519000000000e+02 1.000000000000e-10 1.000000000000e-10 
7.592000000000e+02 1.000000000000e-10 1.000000000000e-10 
7.665000000000e+02 1.000000000000e-10 1.000000000000e-10 
7.738000000000e+02 1.000000000000e-10 1.000000000000e-10 
7.811000000000e+02 1.000000000000e-10 1.000000000000e-10 
7.884000000000e+02 1.000000000000e-10 1.000000000000e-10 
7.957000000000e+02 1.000000000000e-10 1.000000000000e-10 
8.030000000000e+02 1.000000000000e-10 1.000000000000e-10 
8.103000000000e+02 1.000000000000e-10 1.000000000000e-10 
8.176000000000e+02 1.000000000000e-10 1.000000000000e-10 
8.249000000000e+02 1.000000000000e-10 1.000000000000e-10 
8.322000000000e+02 1.000000000000e-10 1.000000000000e-10 
8.395000000000e+02 1.000000000000e-10 1.000000000000e-10 
8.468000000000e+02 1.000000000000e-10 1.000000000000e-10 
8.541000000000e+02 1.000000000000e-10 1.000000000000e-10 
8.614000000000e+02 1.000000000000e-10 1.000000000000e-10 
8.687000000000e+02 1.000000000000e-10 1.000000000000e-10 
8.760000000000e+02 1.000000000000e-10 1.000000000000e-10 
 TITLE = "Profiles along polylines"
 VARIABLES = "DIST" "PCE-l" "PCE-h" 
 ZONE T="TIME=6.307200000000e+08"
0.000000000000e+00 9.892176365800e-01 1.078236342500e-02 
7.300000000000e+00 6.796037270271e-01 7.421304595901e-03 
1.460000000000e+01 4.644803459211e-01 5.081678558258e-03 
2.190000000000e+01 3.174526318333e-01 3.479638470021e-03 
2.920000000000e+01 2.169654202642e-01 2.382654420809e-03 
3.650000000000e+01 1.482866697900e-01 1.631503427135e-03 
4.380000000000e+01 1.013476544350e-01 1.117158833228e-03 
5.110000000000e+01 6.926682670819e-02 7.649655145696e-04 
5.840000000000e+01 4.734094053759e-02 5.238039758328e-04 
6.570000000000e+01 3.235552655560e-02 3.586705542564e-04 
7.300000000000e+01 2.211363117840e-02 2.455967736512e-04 
8.030000000000e+01 1.511372973807e-02 1.681704129655e-04 
8.760000000000e+01 1.032959375836e-02 1.151533360007e-04 
9.490000000000e+01 7.059839567182e-03 7.885031949577e-05 
1.022000000000e+02 4.825101149205e-03 5.399212129241e-05 
1.095000000000e+02 3.297752148402e-03 3.697067025594e-05 
1.168000000000e+02 2.253873835183e-03 2.531536873264e-05 
1.241000000000e+02 1.540427247479e-03 1.733449487449e-05 
1.314000000000e+02 1.052816740590e-03 1.186965577068e-05 
1.387000000000e+02 7.195556239081e-04 8.127651201792e-06 
1.460000000000e+02 4.917857743834e-04 5.565343709527e-06 
1.533000000000e+02 3.361147347634e-04 3.810824284921e-06 
1.606000000000e+02 2.297201783372e-04 2.609431258348e-06 
1.679000000000e+02 1.570040075104e-04 1.786787052796e-06 
1.752000000000e+02 1.073055860951e-04 1.223488053892e-06 
1.825000000000e+02 7.333882102590e-05 8.377735979598e-07 
1.898000000000e+02 5.012397644136e-05 5.736587285869e-07 
1.971000000000e+02 3.425761389588e-05 3.928081974463e-07 
2.044000000000e+02 2.341362743257e-05 2.689722517790e-07 
2.117000000000e+02 1.600222219834e-05 1.841765846457e-07 
2.190000000000e+02 1.093684077888e-05 1.261134340348e-07 
2.263000000000e+02 7.474867223877e-06 8.635515895911e-08 
2.336000000000e+02 5.108755000428e-06 5.913100009041e-08 
2.409000000000e+02 3.491617558928e-06 4.048947640401e-08 
2.482000000000e+02 2.386372645200e-06 2.772484310776e-08 
2.555000000000e+02 1.630984578719e-06 1.898436316022e-08 
2.628000000000e+02 1.114708850036e-06 1.299938992241e-08 
2.701000000000e+02 7.618562565522e-07 8.901227549064e-09 
2.774000000000e+02 5.206964806505e-07 6.095044075075e-09 
2.847000000000e+02 3.558739548588e-07 4.173532083605e-09 
2.920000000000e+02 2.432248168397e-07 2.857793071521e-09 
2.993000000000e+02 1.662337607795e-07 1.956849704538e-09 
3.066000000000e+02 1.136139156030e-07 1.339939222822e-09 
3.139000000000e+02 7.764889398003e-08 9.174963467961e-10 
3.212000000000e+02 5.306875433558e-08 6.282369315891e-10 
3.285000000000e+02 3.626957890015e-08 4.301724400201e-10 
3.358000000000e+02 2.478826514880e-08 2.945518145260e-10 
3.431000000000e+02 1.694141778643e-08 2.016883541779e-10 
3.504000000000e+02 1.157852858564e-08 1.381019915845e-10 
3.577000000000e+02 7.913288362169e-09 9.456252522506e-11 
3.650000000000e+02 5.408297974940e-09 6.474976265218e-11 
3.723000000000e+02 3.696274626539e-09 4.433608084717e-11 
3.796000000000e+02 2.526200697168e-09 3.035822811343e-11 
3.869000000000e+02 1.726519430275e-09 2.078717822085e-11 
3.942000000000e+02 1.179981205153e-09 1.423359679520e-11 
4.015000000000e+02 8.064523457395e-10 9.746165428286e-12 
4.088000000000e+02 5.511658856152e-10 6.673488221007e-12 
4.161000000000e+02 3.766916111906e-10 4.569535102137e-12 
4.234000000000e+02 2.574480272532e-10 3.128896067258e-12 
4.307000000000e+02 1.759515868346e-10 2.142447837872e-12 
4.380000000000e+02 1.202532458295e-10 1.466997509452e-12 
4.453000000000e+02 8.218648886683e-11 1.004496657836e-12 
4.526000000000e+02 5.616995121947e-11 6.878086220995e-13 
4.599000000000e+02 3.838907664135e-11 4.709629414325e-13 
4.672000000000e+02 2.623682544449e-11 3.224822793367e-13 
4.745000000000e+02 1.793142918844e-11 2.208131709253e-13 
4.818000000000e+02 1.225514700397e-11 1.511973202199e-13 
4.891000000000e+02 8.375719888809e-12 1.035292847149e-13 
4.964000000000e+02 5.724344525017e-12 7.088956853208e-14 
5.037000000000e+02 3.912275085165e-12 4.854018783633e-14 
5.110000000000e+02 2.673825147101e-12 3.323690472391e-14 
5.183000000000e+02 1.827412633783e-12 2.275829338141e-14 
5.256000000000e+02 1.248936168279e-12 1.558327774498e-14 
5.329000000000e+02 8.535792756622e-13 1.067033195777e-14 
5.402000000000e+02 5.833745536106e-13 7.306292426152e-15 
5.475000000000e+02 3.987044658922e-13 5.002834876378e-15 
5.548000000000e+02 2.724926035009e-13 3.425589261201e-15 
5.621000000000e+02 1.862337259726e-13 2.345602421123e-15 
5.694000000000e+02 1.272805219716e-13 1.606103486120e-15 
5.767000000000e+02 8.698923849778e-14 1.099746533263e-15 
5.840000000000e+02 5.945238187418e-14 7.530291826271e-16 
5.913000000000e+02 4.063241739048e-14 5.156212113594e-16 
5.986000000000e+02 2.777035451614e-14 3.530625593355e-16 
6.059000000000e+02 1.898138941602e-14 2.417643369708e-16 
6.132000000000e+02 1.298000221469e-14 1.655921567348e-16 
6.205000000000e+02 8.895492061879e-15 1.135583537379e-16 
6.278000000000e+02 6.145679921462e-15 7.825563205078e-17 
6.351000000000e+02 4.355319029398e-15 5.477035675239e-17 
6.424000000000e+02 3.314115822572e-15 4.018654392028e-17 
6.497000000000e+02 2.836927403162e-15 3.226168588854e-17 
6.570000000000e+02 2.999565258875e-15 3.049669787112e-17 
6.643000000000e+02 3.424526785628e-15 3.362470860225e-17 
6.716000000000e+02 4.039561043022e-15 3.614682178077e-17 
6.789000000000e+02 2.698205854102e-15 4.056190965966e-17 
6.862000000000e+02 -4.894008838160e-14 -2.115437594846e-16 
6.935000000000e+02 -3.560656516267e-13 -2.064487700707e-15 
7.008000000000e+02 -1.605813332424e-12 -1.021920298786e-14 
7.081000000000e+02 -5.754739085144e-12 -3.869119310239e-14 
7.154000000000e+02 -1.753774552589e-11 -1.227068687890e-13 
7.227000000000e+02 -4.681798833756e-11 -3.379671487283e-13 
7.300000000000e+02 -1.114213056660e-10 -8.248666880695e-13 
7.373000000000e+02 -2.393387687159e-10 -1.808697490493e-12 
7.446000000000e+02 -4.684982985922e-10 -3.600339559195e-12 
7.519000000000e+02 -8.421816996549e-10 -6.560096872718e-12 
7.592000000000e+02 -1.399238207627e-09 -1.101553465061e-11 
7.665000000000e+02 -2.160213761645e-09 -1.714191372165e-11 
7.738000000000e+02 -3.113266948772e-09 -2.483752299887e-11 
7.811000000000e+02 -4.204801754768e-09 -3.363966672276e-11 
7.884000000000e+02 -5.340397019358e-09 -4.272929502762e-11 
7.957000000000e+02 -6.396775616171e-09 -5.103922676885e-11 
8.030000000000e+02 -7.245488676182e-09 -5.746132023587e-11 
8.103000000000e+02 -7.777135960815e-09 -6.107450736821e-11 
8.176000000000e+02 -7.928696707280e-09 -6.137270545923e-11 
8.249000000000e+02 -7.687350254323e-09 -5.832909074051e-11 
8.322000000000e+02 -7.106457988987e-09 -5.247333619047e-11 
8.395000000000e+02 -6.259975172167e-09 -4.457662954355e-11 
8.468000000000e+02 -5.284210944451e-09 -3.582832586506e-11 
8.541000000000e+02 -4.237138859088e-09 -2.688864790428e-11 
8.614000000000e+02 -3.306940972212e-09 -1.919174588397e-11 
8.687000000000e+02 -2.373683238278e-09 -1.199129556680e-11 
8.760000000000e+02 -1.815460038923e-09 -7.920728030861e-12 
