VARIABLES  = "X","Y","Z", "HEAD", "TCE-mob", "TCE-mat", "trans-DCE-mob", "trans-DCE-mat", "cis-DCE-mob", "cis-DCE-mat", "11-DCE-mob", "11-DCE-mat", "Acet-mob", "Acet-mat", "ClAcet-mob", "ClAcet-mat", "VC-mob", "VC-mat", "Ethylen-mob", "Ethylen-mat", "C4-mob", "Ethan-mob", "mobile"
ZONE T="0.000000000000e+00s", N=101, E=100, F=FEPOINT, ET=QUADRILATERAL
STRANDID=1, SOLUTIONTIME=0.000000000000e+00
0.000000000000e+00 0.000000000000e+00 0.000000000000e+00 1.000000000000e+00 1.000000000000e-10 0.000000000000e+00 1.000000000000e-10 0.000000000000e+00 1.000000000000e-10 0.000000000000e+00 1.000000000000e-10 0.000000000000e+00 1.000000000000e-10 0.000000000000e+00 1.000000000000e-10 0.000000000000e+00 1.000000000000e-10 0.000000000000e+00 1.000000000000e-10 0.000000000000e+00 1.000000000000e-10 1.000000000000e-10 1.000000000000e-10 
1.000000000000e-02 0.000000000000e+00 0.000000000000e+00 1.000000000000e+00 1.000000000000e-10 0.000000000000e+00 1.000000000000e-10 0.000000000000e+00 1.000000000000e-10 0.000000000000e+00 1.000000000000e-10 0.000000000000e+00 1.000000000000e-10 0.000000000000e+00 1.000000000000e-10 0.000000000000e+00 1.000000000000e-10 0.000000000000e+00 1.000000000000e-10 0.000000000000e+00 1.000000000000e-10 1.000000000000e-10 1.000000000000e-10 
2.000000000000e-02 0.000000000000e+00 0.000000000000e+00 1.000000000000e+00 1.000000000000e-10 0.000000000000e+00 1.000000000000e-10 0.000000000000e+00 1.000000000000e-10 0.000000000000e+00 1.000000000000e-10 0.000000000000e+00 1.000000000000e-10 0.000000000000e+00 1.000000000000e-10 0.000000000000e+00 1.000000000000e-10 0.000000000000e+00 1.000000000000e-10 0.000000000000e+00 1.000000000000e-10 1.000000000000e-10 1.000000000000e-10 
3.000000000000e-02 0.000000000000e+00 0.000000000000e+00 1.000000000000e+00 1.000000000000e-10 0.000000000000e+00 1.000000000000e-10 0.000000000000e+00 1.000000000000e-10 0.000000000000e+00 1.000000000000e-10 0.000000000000e+00 1.000000000000e-10 0.000000000000e+00 1.000000000000e-10 0.000000000000e+00 1.000000000000e-10 0.000000000000e+00 1.000000000000e-10 0.000000000000e+00 1.000000000000e-10 1.000000000000e-10 1.000000000000e-10 
4.000000000000e-02 0.000000000000e+00 0.000000000000e+00 1.000000000000e+00 1.000000000000e-10 0.000000000000e+00 1.000000000000e-10 0.000000000000e+00 1.000000000000e-10 0.000000000000e+00 1.000000000000e-10 0.000000000000e+00 1.000000000000e-10 0.000000000000e+00 1.000000000000e-10 0.000000000000e+00 1.000000000000e-10 0.000000000000e+00 1.000000000000e-10 0.000000000000e+00 1.000000000000e-10 1.000000000000e-10 1.000000000000e-10 
5.000000000000e-02 0.000000000000e+00 0.000000000000e+00 1.000000000000e+00 1.000000000000e-10 0.000000000000e+00 1.000000000000e-10 0.000000000000e+00 1.000000000000e-10 0.000000000000e+00 1.000000000000e-10 0.000000000000e+00 1.000000000000e-10 0.000000000000e+00 1.000000000000e-10 0.000000000000e+00 1.000000000000e-10 0.000000000000e+00 1.000000000000e-10 0.000000000000e+00 1.000000000000e-10 1.000000000000e-10 1.000000000000e-10 
6.000000000000e-02 0.000000000000e+00 0.000000000000e+00 1.000000000000e+00 1.000000000000e-10 0.000000000000e+00 1.000000000000e-10 0.000000000000e+00 1.000000000000e-10 0.000000000000e+00 1.000000000000e-10 0.000000000000e+00 1.000000000000e-10 0.000000000000e+00 1.000000000000e-10 0.000000000000e+00 1.000000000000e-10 0.000000000000e+00 1.000000000000e-10 0.000000000000e+00 1.000000000000e-10 1.000000000000e-10 1.000000000000e-10 
7.000000000000e-02 0.000000000000e+00 0.000000000000e+00 1.000000000000e+00 1.000000000000e-10 0.000000000000e+00 1.000000000000e-10 0.000000000000e+00 1.000000000000e-10 0.000000000000e+00 1.000000000000e-10 0.000000000000e+00 1.000000000000e-10 0.000000000000e+00 1.000000000000e-10 0.000000000000e+00 1.000000000000e-10 0.000000000000e+00 1.000000000000e-10 0.000000000000e+00 1.000000000000e-10 1.000000000000e-10 1.000000000000e-10 
8.000000000000e-02 0.000000000000e+00 0.000000000000e+00 1.000000000000e+00 1.000000000000e-10 0.000000000000e+00 1.000000000000e-10 0.000000000000e+00 1.000000000000e-10 0.000000000000e+00 1.000000000000e-10 0.000000000000e+00 1.000000000000e-10 0.000000000000e+00 1.000000000000e-10 0.000000000000e+00 1.000000000000e-10 0.000000000000e+00 1.000000000000e-10 0.000000000000e+00 1.000000000000e-10 1.000000000000e-10 1.000000000000e-10 
9.000000000000e-02 0.000000000000e+00 0.000000000000e+00 1.000000000000e+00 1.000000000000e-10 0.000000000000e+00 1.000000000000e-10 0.000000000000e+00 1.000000000000e-10 0.000000000000e+00 1.000000000000e-10 0.000000000000e+00 1.000000000000e-10 0.000000000000e+00 1.000000000000e-10 0.000000000000e+00 1.000000000000e-10 0.000000000000e+00 1.000000000000e-10 0.000000000000e+00 1.000000000000e-10 1.000000000000e-10 1.000000000000e-10 
1.000000000000e-01 0.000000000000e+00 0.000000000000e+00 1.000000000000e+00 1.000000000000e-10 0.000000000000e+00 1.000000000000e-10 0.000000000000e+00 1.000000000000e-10 0.000000000000e+00 1.000000000000e-10 0.000000000000e+00 1.000000000000e-10 0.000000000000e+00 1.000000000000e-10 0.000000000000e+00 1.000000000000e-10 0.000000000000e+00 1.000000000000e-10 0.000000000000e+00 1.000000000000e-10 1.000000000000e-10 1.000000000000e-10 
1.100000000000e-01 0.000000000000e+00 0.000000000000e+00 1.000000000000e+00 1.000000000000e-10 0.000000000000e+00 1.000000000000e-10 0.000000000000e+00 1.000000000000e-10 0.000000000000e+00 1.000000000000e-10 0.000000000000e+00 1.000000000000e-10 0.000000000000e+00 1.000000000000e-10 0.000000000000e+00 1.000000000000e-10 0.000000000000e+00 1.000000000000e-10 0.000000000000e+00 1.000000000000e-10 1.000000000000e-10 1.000000000000e-10 
1.200000000000e-01 0.000000000000e+00 0.000000000000e+00 1.000000000000e+00 1.000000000000e-10 0.000000000000e+00 1.000000000000e-10 0.000000000000e+00 1.000000000000e-10 0.000000000000e+00 1.000000000000e-10 0.000000000000e+00 1.000000000000e-10 0.000000000000e+00 1.000000000000e-10 0.000000000000e+00 1.000000000000e-10 0.000000000000e+00 1.000000000000e-10 0.000000000000e+00 1.000000000000e-10 1.000000000000e-10 1.000000000000e-10 
1.300000000000e-01 0.000000000000e+00 0.000000000000e+00 1.000000000000e+00 1.000000000000e-10 0.000000000000e+00 1.000000000000e-10 0.000000000000e+00 1.000000000000e-10 0.000000000000e+00 1.000000000000e-10 0.000000000000e+00 1.000000000000e-10 0.000000000000e+00 1.000000000000e-10 0.000000000000e+00 1.000000000000e-10 0.000000000000e+00 1.000000000000e-10 0.000000000000e+00 1.000000000000e-10 1.000000000000e-10 1.000000000000e-10 
1.400000000000e-01 0.000000000000e+00 0.000000000000e+00 1.000000000000e+00 1.000000000000e-10 0.000000000000e+00 1.000000000000e-10 0.000000000000e+00 1.000000000000e-10 0.000000000000e+00 1.000000000000e-10 0.000000000000e+00 1.000000000000e-10 0.000000000000e+00 1.000000000000e-10 0.000000000000e+00 1.000000000000e-10 0.000000000000e+00 1.000000000000e-10 0.000000000000e+00 1.000000000000e-10 1.000000000000e-10 1.000000000000e-10 
1.500000000000e-01 0.000000000000e+00 0.000000000000e+00 1.000000000000e+00 1.000000000000e-10 0.000000000000e+00 1.000000000000e-10 0.000000000000e+00 1.000000000000e-10 0.000000000000e+00 1.000000000000e-10 0.000000000000e+00 1.000000000000e-10 0.000000000000e+00 1.000000000000e-10 0.000000000000e+00 1.000000000000e-10 0.000000000000e+00 1.000000000000e-10 0.000000000000e+00 1.000000000000e-10 1.000000000000e-10 1.000000000000e-10 
1.600000000000e-01 0.000000000000e+00 0.000000000000e+00 1.000000000000e+00 1.000000000000e-10 0.000000000000e+00 1.000000000000e-10 0.000000000000e+00 1.000000000000e-10 0.000000000000e+00 1.000000000000e-10 0.000000000000e+00 1.000000000000e-10 0.000000000000e+00 1.000000000000e-10 0.000000000000e+00 1.000000000000e-10 0.000000000000e+00 1.000000000000e-10 0.000000000000e+00 1.000000000000e-10 1.000000000000e-10 1.000000000000e-10 
1.700000000000e-01 0.000000000000e+00 0.000000000000e+00 1.000000000000e+00 1.000000000000e-10 0.000000000000e+00 1.000000000000e-10 0.000000000000e+00 1.000000000000e-10 0.000000000000e+00 1.000000000000e-10 0.000000000000e+00 1.000000000000e-10 0.000000000000e+00 1.000000000000e-10 0.000000000000e+00 1.000000000000e-10 0.000000000000e+00 1.000000000000e-10 0.000000000000e+00 1.000000000000e-10 1.000000000000e-10 1.000000000000e-10 
1.800000000000e-01 0.000000000000e+00 0.000000000000e+00 1.000000000000e+00 1.000000000000e-10 0.000000000000e+00 1.000000000000e-10 0.000000000000e+00 1.000000000000e-10 0.000000000000e+00 1.000000000000e-10 0.000000000000e+00 1.000000000000e-10 0.000000000000e+00 1.000000000000e-10 0.000000000000e+00 1.000000000000e-10 0.000000000000e+00 1.000000000000e-10 0.000000000000e+00 1.000000000000e-10 1.000000000000e-10 1.000000000000e-10 
1.900000000000e-01 0.000000000000e+00 0.000000000000e+00 1.000000000000e+00 1.000000000000e-10 0.000000000000e+00 1.000000000000e-10 0.000000000000e+00 1.000000000000e-10 0.000000000000e+00 1.000000000000e-10 0.000000000000e+00 1.000000000000e-10 0.000000000000e+00 1.000000000000e-10 0.000000000000e+00 1.000000000000e-10 0.000000000000e+00 1.000000000000e-10 0.000000000000e+00 1.000000000000e-10 1.000000000000e-10 1.000000000000e-10 
2.000000000000e-01 0.000000000000e+00 0.000000000000e+00 1.000000000000e+00 1.000000000000e-10 0.000000000000e+00 1.000000000000e-10 0.000000000000e+00 1.000000000000e-10 0.000000000000e+00 1.000000000000e-10 0.000000000000e+00 1.000000000000e-10 0.000000000000e+00 1.000000000000e-10 0.000000000000e+00 1.000000000000e-10 0.000000000000e+00 1.000000000000e-10 0.000000000000e+00 1.000000000000e-10 1.000000000000e-10 1.000000000000e-10 
2.100000000000e-01 0.000000000000e+00 0.000000000000e+00 1.000000000000e+00 1.000000000000e-10 0.000000000000e+00 1.000000000000e-10 0.000000000000e+00 1.000000000000e-10 0.000000000000e+00 1.000000000000e-10 0.000000000000e+00 1.000000000000e-10 0.000000000000e+00 1.000000000000e-10 0.000000000000e+00 1.000000000000e-10 0.000000000000e+00 1.000000000000e-10 0.000000000000e+00 1.000000000000e-10 1.000000000000e-10 1.000000000000e-10 
2.200000000000e-01 0.000000000000e+00 0.000000000000e+00 1.000000000000e+00 1.000000000000e-10 0.000000000000e+00 1.000000000000e-10 0.000000000000e+00 1.000000000000e-10 0.000000000000e+00 1.000000000000e-10 0.000000000000e+00 1.000000000000e-10 0.000000000000e+00 1.000000000000e-10 0.000000000000e+00 1.000000000000e-10 0.000000000000e+00 1.000000000000e-10 0.000000000000e+00 1.000000000000e-10 1.000000000000e-10 1.000000000000e-10 
2.300000000000e-01 0.000000000000e+00 0.000000000000e+00 1.000000000000e+00 1.000000000000e-10 0.000000000000e+00 1.000000000000e-10 0.000000000000e+00 1.000000000000e-10 0.000000000000e+00 1.000000000000e-10 0.000000000000e+00 1.000000000000e-10 0.000000000000e+00 1.000000000000e-10 0.000000000000e+00 1.000000000000e-10 0.000000000000e+00 1.000000000000e-10 0.000000000000e+00 1.000000000000e-10 1.000000000000e-10 1.000000000000e-10 
2.400000000000e-01 0.000000000000e+00 0.000000000000e+00 1.000000000000e+00 1.000000000000e-10 0.000000000000e+00 1.000000000000e-10 0.000000000000e+00 1.000000000000e-10 0.000000000000e+00 1.000000000000e-10 0.000000000000e+00 1.000000000000e-10 0.000000000000e+00 1.000000000000e-10 0.000000000000e+00 1.000000000000e-10 0.000000000000e+00 1.000000000000e-10 0.000000000000e+00 1.000000000000e-10 1.000000000000e-10 1.000000000000e-10 
2.500000000000e-01 0.000000000000e+00 0.000000000000e+00 1.000000000000e+00 1.000000000000e-10 0.000000000000e+00 1.000000000000e-10 0.000000000000e+00 1.000000000000e-10 0.000000000000e+00 1.000000000000e-10 0.000000000000e+00 1.000000000000e-10 0.000000000000e+00 1.000000000000e-10 0.000000000000e+00 1.000000000000e-10 0.000000000000e+00 1.000000000000e-10 0.000000000000e+00 1.000000000000e-10 1.000000000000e-10 1.000000000000e-10 
2.600000000000e-01 0.000000000000e+00 0.000000000000e+00 1.000000000000e+00 1.000000000000e-10 0.000000000000e+00 1.000000000000e-10 0.000000000000e+00 1.000000000000e-10 0.000000000000e+00 1.000000000000e-10 0.000000000000e+00 1.000000000000e-10 0.000000000000e+00 1.000000000000e-10 0.000000000000e+00 1.000000000000e-10 0.000000000000e+00 1.000000000000e-10 0.000000000000e+00 1.000000000000e-10 1.000000000000e-10 1.000000000000e-10 
2.700000000000e-01 0.000000000000e+00 0.000000000000e+00 1.000000000000e+00 1.000000000000e-10 0.000000000000e+00 1.000000000000e-10 0.000000000000e+00 1.000000000000e-10 0.000000000000e+00 1.000000000000e-10 0.000000000000e+00 1.000000000000e-10 0.000000000000e+00 1.000000000000e-10 0.000000000000e+00 1.000000000000e-10 0.000000000000e+00 1.000000000000e-10 0.000000000000e+00 1.000000000000e-10 1.000000000000e-10 1.000000000000e-10 
2.800000000000e-01 0.000000000000e+00 0.000000000000e+00 1.000000000000e+00 1.000000000000e-10 0.000000000000e+00 1.000000000000e-10 0.000000000000e+00 1.000000000000e-10 0.000000000000e+00 1.000000000000e-10 0.000000000000e+00 1.000000000000e-10 0.000000000000e+00 1.000000000000e-10 0.000000000000e+00 1.000000000000e-10 0.000000000000e+00 1.000000000000e-10 0.000000000000e+00 1.000000000000e-10 1.000000000000e-10 1.000000000000e-10 
2.900000000000e-01 0.000000000000e+00 0.000000000000e+00 1.000000000000e+00 1.000000000000e-10 0.000000000000e+00 1.000000000000e-10 0.000000000000e+00 1.000000000000e-10 0.000000000000e+00 1.000000000000e-10 0.000000000000e+00 1.000000000000e-10 0.000000000000e+00 1.000000000000e-10 0.000000000000e+00 1.000000000000e-10 0.000000000000e+00 1.000000000000e-10 0.000000000000e+00 1.000000000000e-10 1.000000000000e-10 1.000000000000e-10 
3.000000000000e-01 0.000000000000e+00 0.000000000000e+00 1.000000000000e+00 1.000000000000e-10 0.000000000000e+00 1.000000000000e-10 0.000000000000e+00 1.000000000000e-10 0.000000000000e+00 1.000000000000e-10 0.000000000000e+00 1.000000000000e-10 0.000000000000e+00 1.000000000000e-10 0.000000000000e+00 1.000000000000e-10 0.000000000000e+00 1.000000000000e-10 0.000000000000e+00 1.000000000000e-10 1.000000000000e-10 1.000000000000e-10 
3.100000000000e-01 0.000000000000e+00 0.000000000000e+00 1.000000000000e+00 1.000000000000e-10 0.000000000000e+00 1.000000000000e-10 0.000000000000e+00 1.000000000000e-10 0.000000000000e+00 1.000000000000e-10 0.000000000000e+00 1.000000000000e-10 0.000000000000e+00 1.000000000000e-10 0.000000000000e+00 1.000000000000e-10 0.000000000000e+00 1.000000000000e-10 0.000000000000e+00 1.000000000000e-10 1.000000000000e-10 1.000000000000e-10 
3.200000000000e-01 0.000000000000e+00 0.000000000000e+00 1.000000000000e+00 1.000000000000e-10 0.000000000000e+00 1.000000000000e-10 0.000000000000e+00 1.000000000000e-10 0.000000000000e+00 1.000000000000e-10 0.000000000000e+00 1.000000000000e-10 0.000000000000e+00 1.000000000000e-10 0.000000000000e+00 1.000000000000e-10 0.000000000000e+00 1.000000000000e-10 0.000000000000e+00 1.000000000000e-10 1.000000000000e-10 1.000000000000e-10 
3.300000000000e-01 0.000000000000e+00 0.000000000000e+00 1.000000000000e+00 1.000000000000e-10 0.000000000000e+00 1.000000000000e-10 0.000000000000e+00 1.000000000000e-10 0.000000000000e+00 1.000000000000e-10 0.000000000000e+00 1.000000000000e-10 0.000000000000e+00 1.000000000000e-10 0.000000000000e+00 1.000000000000e-10 0.000000000000e+00 1.000000000000e-10 0.000000000000e+00 1.000000000000e-10 1.000000000000e-10 1.000000000000e-10 
3.400000000000e-01 0.000000000000e+00 0.000000000000e+00 1.000000000000e+00 1.000000000000e-10 0.000000000000e+00 1.000000000000e-10 0.000000000000e+00 1.000000000000e-10 0.000000000000e+00 1.000000000000e-10 0.000000000000e+00 1.000000000000e-10 0.000000000000e+00 1.000000000000e-10 0.000000000000e+00 1.000000000000e-10 0.000000000000e+00 1.000000000000e-10 0.000000000000e+00 1.000000000000e-10 1.000000000000e-10 1.000000000000e-10 
3.500000000000e-01 0.000000000000e+00 0.000000000000e+00 1.000000000000e+00 1.000000000000e-10 0.000000000000e+00 1.000000000000e-10 0.000000000000e+00 1.000000000000e-10 0.000000000000e+00 1.000000000000e-10 0.000000000000e+00 1.000000000000e-10 0.000000000000e+00 1.000000000000e-10 0.000000000000e+00 1.000000000000e-10 0.000000000000e+00 1.000000000000e-10 0.000000000000e+00 1.000000000000e-10 1.000000000000e-10 1.000000000000e-10 
3.600000000000e-01 0.000000000000e+00 0.000000000000e+00 1.000000000000e+00 1.000000000000e-10 0.000000000000e+00 1.000000000000e-10 0.000000000000e+00 1.000000000000e-10 0.000000000000e+00 1.000000000000e-10 0.000000000000e+00 1.000000000000e-10 0.000000000000e+00 1.000000000000e-10 0.000000000000e+00 1.000000000000e-10 0.000000000000e+00 1.000000000000e-10 0.000000000000e+00 1.000000000000e-10 1.000000000000e-10 1.000000000000e-10 
3.700000000000e-01 0.000000000000e+00 0.000000000000e+00 1.000000000000e+00 1.000000000000e-10 0.000000000000e+00 1.000000000000e-10 0.000000000000e+00 1.000000000000e-10 0.000000000000e+00 1.000000000000e-10 0.000000000000e+00 1.000000000000e-10 0.000000000000e+00 1.000000000000e-10 0.000000000000e+00 1.000000000000e-10 0.000000000000e+00 1.000000000000e-10 0.000000000000e+00 1.000000000000e-10 1.000000000000e-10 1.000000000000e-10 
3.800000000000e-01 0.000000000000e+00 0.000000000000e+00 1.000000000000e+00 1.000000000000e-10 0.000000000000e+00 1.000000000000e-10 0.000000000000e+00 1.000000000000e-10 0.000000000000e+00 1.000000000000e-10 0.000000000000e+00 1.000000000000e-10 0.000000000000e+00 1.000000000000e-10 0.000000000000e+00 1.000000000000e-10 0.000000000000e+00 1.000000000000e-10 0.000000000000e+00 1.000000000000e-10 1.000000000000e-10 1.000000000000e-10 
3.900000000000e-01 0.000000000000e+00 0.000000000000e+00 1.000000000000e+00 1.000000000000e-10 0.000000000000e+00 1.000000000000e-10 0.000000000000e+00 1.000000000000e-10 0.000000000000e+00 1.000000000000e-10 0.000000000000e+00 1.000000000000e-10 0.000000000000e+00 1.000000000000e-10 0.000000000000e+00 1.000000000000e-10 0.000000000000e+00 1.000000000000e-10 0.000000000000e+00 1.000000000000e-10 1.000000000000e-10 1.000000000000e-10 
4.000000000000e-01 0.000000000000e+00 0.000000000000e+00 1.000000000000e+00 1.000000000000e-10 0.000000000000e+00 1.000000000000e-10 0.000000000000e+00 1.000000000000e-10 0.000000000000e+00 1.000000000000e-10 0.000000000000e+00 1.000000000000e-10 0.000000000000e+00 1.000000000000e-10 0.000000000000e+00 1.000000000000e-10 0.000000000000e+00 1.000000000000e-10 0.000000000000e+00 1.000000000000e-10 1.000000000000e-10 1.000000000000e-10 
4.100000000000e-01 0.000000000000e+00 0.000000000000e+00 1.000000000000e+00 1.000000000000e-10 0.000000000000e+00 1.000000000000e-10 0.000000000000e+00 1.000000000000e-10 0.000000000000e+00 1.000000000000e-10 0.000000000000e+00 1.000000000000e-10 0.000000000000e+00 1.000000000000e-10 0.000000000000e+00 1.000000000000e-10 0.000000000000e+00 1.000000000000e-10 0.000000000000e+00 1.000000000000e-10 1.000000000000e-10 1.000000000000e-10 
4.200000000000e-01 0.000000000000e+00 0.000000000000e+00 1.000000000000e+00 1.000000000000e-10 0.000000000000e+00 1.000000000000e-10 0.000000000000e+00 1.000000000000e-10 0.000000000000e+00 1.000000000000e-10 0.000000000000e+00 1.000000000000e-10 0.000000000000e+00 1.000000000000e-10 0.000000000000e+00 1.000000000000e-10 0.000000000000e+00 1.000000000000e-10 0.000000000000e+00 1.000000000000e-10 1.000000000000e-10 1.000000000000e-10 
4.300000000000e-01 0.000000000000e+00 0.000000000000e+00 1.000000000000e+00 1.000000000000e-10 0.000000000000e+00 1.000000000000e-10 0.000000000000e+00 1.000000000000e-10 0.000000000000e+00 1.000000000000e-10 0.000000000000e+00 1.000000000000e-10 0.000000000000e+00 1.000000000000e-10 0.000000000000e+00 1.000000000000e-10 0.000000000000e+00 1.000000000000e-10 0.000000000000e+00 1.000000000000e-10 1.000000000000e-10 1.000000000000e-10 
4.400000000000e-01 0.000000000000e+00 0.000000000000e+00 1.000000000000e+00 1.000000000000e-10 0.000000000000e+00 1.000000000000e-10 0.000000000000e+00 1.000000000000e-10 0.000000000000e+00 1.000000000000e-10 0.000000000000e+00 1.000000000000e-10 0.000000000000e+00 1.000000000000e-10 0.000000000000e+00 1.000000000000e-10 0.000000000000e+00 1.000000000000e-10 0.000000000000e+00 1.000000000000e-10 1.000000000000e-10 1.000000000000e-10 
4.500000000000e-01 0.000000000000e+00 0.000000000000e+00 1.000000000000e+00 1.000000000000e-10 0.000000000000e+00 1.000000000000e-10 0.000000000000e+00 1.000000000000e-10 0.000000000000e+00 1.000000000000e-10 0.000000000000e+00 1.000000000000e-10 0.000000000000e+00 1.000000000000e-10 0.000000000000e+00 1.000000000000e-10 0.000000000000e+00 1.000000000000e-10 0.000000000000e+00 1.000000000000e-10 1.000000000000e-10 1.000000000000e-10 
4.600000000000e-01 0.000000000000e+00 0.000000000000e+00 1.000000000000e+00 1.000000000000e-10 0.000000000000e+00 1.000000000000e-10 0.000000000000e+00 1.000000000000e-10 0.000000000000e+00 1.000000000000e-10 0.000000000000e+00 1.000000000000e-10 0.000000000000e+00 1.000000000000e-10 0.000000000000e+00 1.000000000000e-10 0.000000000000e+00 1.000000000000e-10 0.000000000000e+00 1.000000000000e-10 1.000000000000e-10 1.000000000000e-10 
4.700000000000e-01 0.000000000000e+00 0.000000000000e+00 1.000000000000e+00 1.000000000000e-10 0.000000000000e+00 1.000000000000e-10 0.000000000000e+00 1.000000000000e-10 0.000000000000e+00 1.000000000000e-10 0.000000000000e+00 1.000000000000e-10 0.000000000000e+00 1.000000000000e-10 0.000000000000e+00 1.000000000000e-10 0.000000000000e+00 1.000000000000e-10 0.000000000000e+00 1.000000000000e-10 1.000000000000e-10 1.000000000000e-10 
4.800000000000e-01 0.000000000000e+00 0.000000000000e+00 1.000000000000e+00 1.000000000000e-10 0.000000000000e+00 1.000000000000e-10 0.000000000000e+00 1.000000000000e-10 0.000000000000e+00 1.000000000000e-10 0.000000000000e+00 1.000000000000e-10 0.000000000000e+00 1.000000000000e-10 0.000000000000e+00 1.000000000000e-10 0.000000000000e+00 1.000000000000e-10 0.000000000000e+00 1.000000000000e-10 1.000000000000e-10 1.000000000000e-10 
4.900000000000e-01 0.000000000000e+00 0.000000000000e+00 1.000000000000e+00 1.000000000000e-10 0.000000000000e+00 1.000000000000e-10 0.000000000000e+00 1.000000000000e-10 0.000000000000e+00 1.000000000000e-10 0.000000000000e+00 1.000000000000e-10 0.000000000000e+00 1.000000000000e-10 0.000000000000e+00 1.000000000000e-10 0.000000000000e+00 1.000000000000e-10 0.000000000000e+00 1.000000000000e-10 1.000000000000e-10 1.000000000000e-10 
5.000000000000e-01 0.000000000000e+00 0.000000000000e+00 1.000000000000e+00 1.000000000000e-10 0.000000000000e+00 1.000000000000e-10 0.000000000000e+00 1.000000000000e-10 0.000000000000e+00 1.000000000000e-10 0.000000000000e+00 1.000000000000e-10 0.000000000000e+00 1.000000000000e-10 0.000000000000e+00 1.000000000000e-10 0.000000000000e+00 1.000000000000e-10 0.000000000000e+00 1.000000000000e-10 1.000000000000e-10 1.000000000000e-10 
5.100000000000e-01 0.000000000000e+00 0.000000000000e+00 1.000000000000e+00 1.000000000000e-10 0.000000000000e+00 1.000000000000e-10 0.000000000000e+00 1.000000000000e-10 0.000000000000e+00 1.000000000000e-10 0.000000000000e+00 1.000000000000e-10 0.000000000000e+00 1.000000000000e-10 0.000000000000e+00 1.000000000000e-10 0.000000000000e+00 1.000000000000e-10 0.000000000000e+00 1.000000000000e-10 1.000000000000e-10 1.000000000000e-10 
5.200000000000e-01 0.000000000000e+00 0.000000000000e+00 1.000000000000e+00 1.000000000000e-10 0.000000000000e+00 1.000000000000e-10 0.000000000000e+00 1.000000000000e-10 0.000000000000e+00 1.000000000000e-10 0.000000000000e+00 1.000000000000e-10 0.000000000000e+00 1.000000000000e-10 0.000000000000e+00 1.000000000000e-10 0.000000000000e+00 1.000000000000e-10 0.000000000000e+00 1.000000000000e-10 1.000000000000e-10 1.000000000000e-10 
5.300000000000e-01 0.000000000000e+00 0.000000000000e+00 1.000000000000e+00 1.000000000000e-10 0.000000000000e+00 1.000000000000e-10 0.000000000000e+00 1.000000000000e-10 0.000000000000e+00 1.000000000000e-10 0.000000000000e+00 1.000000000000e-10 0.000000000000e+00 1.000000000000e-10 0.000000000000e+00 1.000000000000e-10 0.000000000000e+00 1.000000000000e-10 0.000000000000e+00 1.000000000000e-10 1.000000000000e-10 1.000000000000e-10 
5.400000000000e-01 0.000000000000e+00 0.000000000000e+00 1.000000000000e+00 1.000000000000e-10 0.000000000000e+00 1.000000000000e-10 0.000000000000e+00 1.000000000000e-10 0.000000000000e+00 1.000000000000e-10 0.000000000000e+00 1.000000000000e-10 0.000000000000e+00 1.000000000000e-10 0.000000000000e+00 1.000000000000e-10 0.000000000000e+00 1.000000000000e-10 0.000000000000e+00 1.000000000000e-10 1.000000000000e-10 1.000000000000e-10 
5.500000000000e-01 0.000000000000e+00 0.000000000000e+00 1.000000000000e+00 1.000000000000e-10 0.000000000000e+00 1.000000000000e-10 0.000000000000e+00 1.000000000000e-10 0.000000000000e+00 1.000000000000e-10 0.000000000000e+00 1.000000000000e-10 0.000000000000e+00 1.000000000000e-10 0.000000000000e+00 1.000000000000e-10 0.000000000000e+00 1.000000000000e-10 0.000000000000e+00 1.000000000000e-10 1.000000000000e-10 1.000000000000e-10 
5.600000000000e-01 0.000000000000e+00 0.000000000000e+00 1.000000000000e+00 1.000000000000e-10 0.000000000000e+00 1.000000000000e-10 0.000000000000e+00 1.000000000000e-10 0.000000000000e+00 1.000000000000e-10 0.000000000000e+00 1.000000000000e-10 0.000000000000e+00 1.000000000000e-10 0.000000000000e+00 1.000000000000e-10 0.000000000000e+00 1.000000000000e-10 0.000000000000e+00 1.000000000000e-10 1.000000000000e-10 1.000000000000e-10 
5.700000000000e-01 0.000000000000e+00 0.000000000000e+00 1.000000000000e+00 1.000000000000e-10 0.000000000000e+00 1.000000000000e-10 0.000000000000e+00 1.000000000000e-10 0.000000000000e+00 1.000000000000e-10 0.000000000000e+00 1.000000000000e-10 0.000000000000e+00 1.000000000000e-10 0.000000000000e+00 1.000000000000e-10 0.000000000000e+00 1.000000000000e-10 0.000000000000e+00 1.000000000000e-10 1.000000000000e-10 1.000000000000e-10 
5.800000000000e-01 0.000000000000e+00 0.000000000000e+00 1.000000000000e+00 1.000000000000e-10 0.000000000000e+00 1.000000000000e-10 0.000000000000e+00 1.000000000000e-10 0.000000000000e+00 1.000000000000e-10 0.000000000000e+00 1.000000000000e-10 0.000000000000e+00 1.000000000000e-10 0.000000000000e+00 1.000000000000e-10 0.000000000000e+00 1.000000000000e-10 0.000000000000e+00 1.000000000000e-10 1.000000000000e-10 1.000000000000e-10 
5.900000000000e-01 0.000000000000e+00 0.000000000000e+00 1.000000000000e+00 1.000000000000e-10 0.000000000000e+00 1.000000000000e-10 0.000000000000e+00 1.000000000000e-10 0.000000000000e+00 1.000000000000e-10 0.000000000000e+00 1.000000000000e-10 0.000000000000e+00 1.000000000000e-10 0.000000000000e+00 1.000000000000e-10 0.000000000000e+00 1.000000000000e-10 0.000000000000e+00 1.000000000000e-10 1.000000000000e-10 1.000000000000e-10 
6.000000000000e-01 0.000000000000e+00 0.000000000000e+00 1.000000000000e+00 1.000000000000e-10 0.000000000000e+00 1.000000000000e-10 0.000000000000e+00 1.000000000000e-10 0.000000000000e+00 1.000000000000e-10 0.000000000000e+00 1.000000000000e-10 0.000000000000e+00 1.000000000000e-10 0.000000000000e+00 1.000000000000e-10 0.000000000000e+00 1.000000000000e-10 0.000000000000e+00 1.000000000000e-10 1.000000000000e-10 1.000000000000e-10 
6.100000000000e-01 0.000000000000e+00 0.000000000000e+00 1.000000000000e+00 1.000000000000e-10 0.000000000000e+00 1.000000000000e-10 0.000000000000e+00 1.000000000000e-10 0.000000000000e+00 1.000000000000e-10 0.000000000000e+00 1.000000000000e-10 0.000000000000e+00 1.000000000000e-10 0.000000000000e+00 1.000000000000e-10 0.000000000000e+00 1.000000000000e-10 0.000000000000e+00 1.000000000000e-10 1.000000000000e-10 1.000000000000e-10 
6.200000000000e-01 0.000000000000e+00 0.000000000000e+00 1.000000000000e+00 1.000000000000e-10 0.000000000000e+00 1.000000000000e-10 0.000000000000e+00 1.000000000000e-10 0.000000000000e+00 1.000000000000e-10 0.000000000000e+00 1.000000000000e-10 0.000000000000e+00 1.000000000000e-10 0.000000000000e+00 1.000000000000e-10 0.000000000000e+00 1.000000000000e-10 0.000000000000e+00 1.000000000000e-10 1.000000000000e-10 1.000000000000e-10 
6.300000000000e-01 0.000000000000e+00 0.000000000000e+00 1.000000000000e+00 1.000000000000e-10 0.000000000000e+00 1.000000000000e-10 0.000000000000e+00 1.000000000000e-10 0.000000000000e+00 1.000000000000e-10 0.000000000000e+00 1.000000000000e-10 0.000000000000e+00 1.000000000000e-10 0.000000000000e+00 1.000000000000e-10 0.000000000000e+00 1.000000000000e-10 0.000000000000e+00 1.000000000000e-10 1.000000000000e-10 1.000000000000e-10 
6.400000000000e-01 0.000000000000e+00 0.000000000000e+00 1.000000000000e+00 1.000000000000e-10 0.000000000000e+00 1.000000000000e-10 0.000000000000e+00 1.000000000000e-10 0.000000000000e+00 1.000000000000e-10 0.000000000000e+00 1.000000000000e-10 0.000000000000e+00 1.000000000000e-10 0.000000000000e+00 1.000000000000e-10 0.000000000000e+00 1.000000000000e-10 0.000000000000e+00 1.000000000000e-10 1.000000000000e-10 1.000000000000e-10 
6.500000000000e-01 0.000000000000e+00 0.000000000000e+00 1.000000000000e+00 1.000000000000e-10 0.000000000000e+00 1.000000000000e-10 0.000000000000e+00 1.000000000000e-10 0.000000000000e+00 1.000000000000e-10 0.000000000000e+00 1.000000000000e-10 0.000000000000e+00 1.000000000000e-10 0.000000000000e+00 1.000000000000e-10 0.000000000000e+00 1.000000000000e-10 0.000000000000e+00 1.000000000000e-10 1.000000000000e-10 1.000000000000e-10 
6.600000000000e-01 0.000000000000e+00 0.000000000000e+00 1.000000000000e+00 1.000000000000e-10 0.000000000000e+00 1.000000000000e-10 0.000000000000e+00 1.000000000000e-10 0.000000000000e+00 1.000000000000e-10 0.000000000000e+00 1.000000000000e-10 0.000000000000e+00 1.000000000000e-10 0.000000000000e+00 1.000000000000e-10 0.000000000000e+00 1.000000000000e-10 0.000000000000e+00 1.000000000000e-10 1.000000000000e-10 1.000000000000e-10 