 TITLE = "Time curves in points"
 VARIABLES = "TIME "  "WDEPTH"  "HEAD"  "FLUX" 
 ZONE T="POINT=POINT4"
0.000000000000e+00 0.000000000000e+00 1.000000000000e-04 0.000000000000e+00 
5.000000000000e+00 1.147329801837e-04 1.147329801837e-04 1.924626151254e-05 
1.000000000000e+01 1.294130611020e-04 1.294130611020e-04 2.305576014810e-05 
2.000000000000e+01 1.585459815963e-04 1.585459815963e-04 3.126680295416e-05 
3.000000000000e+01 1.874327962790e-04 1.874327962790e-04 4.018902938250e-05 
5.000000000000e+01 2.441339242285e-04 2.441339242285e-04 5.976246972969e-05 
7.000000000000e+01 2.996635129449e-04 2.996635129449e-04 8.126046829643e-05 
9.500000000000e+01 3.671208876977e-04 3.671208876977e-04 1.101585348324e-04 
1.200000000000e+02 4.325205937127e-04 4.325205937127e-04 1.409066984409e-04 
1.450000000000e+02 4.957948548807e-04 4.957948548807e-04 1.729193984046e-04 
1.700000000000e+02 5.569051061618e-04 5.569051061618e-04 2.058454861413e-04 
1.950000000000e+02 6.158375134363e-04 6.158375134363e-04 2.393610469483e-04 
2.200000000000e+02 6.725995701495e-04 6.725995701495e-04 2.731980644530e-04 
2.450000000000e+02 7.272175189389e-04 7.272175189389e-04 3.071356275067e-04 
2.700000000000e+02 7.797344799257e-04 7.797344799257e-04 3.409937536055e-04 
2.950000000000e+02 8.302092442870e-04 8.302092442870e-04 3.746289763011e-04 
3.200000000000e+02 8.787157434227e-04 8.787157434227e-04 4.079312680774e-04 
3.450000000000e+02 9.253432447428e-04 9.253432447428e-04 4.408221020199e-04 
3.700000000000e+02 9.701973621372e-04 9.701973621372e-04 4.732535968055e-04 
3.950000000000e+02 1.013402006568e-03 1.013402006568e-03 5.052087873538e-04 
4.200000000000e+02 1.055102442403e-03 1.055102442403e-03 5.367031419069e-04 
4.450000000000e+02 1.095469659503e-03 1.095469659503e-03 5.677875188314e-04 
4.700000000000e+02 1.134706320454e-03 1.134706320454e-03 5.985528316336e-04 
4.950000000000e+02 1.173054596685e-03 1.173054596685e-03 6.291367750542e-04 
5.200000000000e+02 1.210806265699e-03 1.210806265699e-03 6.597330645977e-04 
5.450000000000e+02 1.248315502107e-03 1.248315502107e-03 6.906037629836e-04 
5.700000000000e+02 1.286014853883e-03 1.286014853883e-03 7.220954177262e-04 
5.950000000000e+02 1.324434946061e-03 1.324434946061e-03 7.546599246352e-04 
6.200000000000e+02 1.364228487598e-03 1.364228487598e-03 7.888812758296e-04 
6.450000000000e+02 1.406199160073e-03 1.406199160073e-03 8.255096647437e-04 
6.700000000000e+02 1.451335920734e-03 1.451335920734e-03 8.655048245282e-04 
6.950000000000e+02 1.500853133178e-03 1.500853133178e-03 9.100909908273e-04 
7.200000000000e+02 1.556236716924e-03 1.556236716924e-03 9.608265206210e-04 
7.450000000000e+02 1.619296148572e-03 1.619296148572e-03 1.019691964402e-03 
7.700000000000e+02 1.692221617630e-03 1.692221617630e-03 1.089201242291e-03 
7.950000000000e+02 1.777644911826e-03 1.777644911826e-03 1.172541415059e-03 
8.200000000000e+02 1.878701669494e-03 1.878701669494e-03 1.273747171152e-03 
8.450000000000e+02 1.999091512799e-03 1.999091512799e-03 1.397916248205e-03 
8.700000000000e+02 2.143131337041e-03 2.143131337041e-03 1.551471119432e-03 
8.950000000000e+02 2.315795813665e-03 2.315795813665e-03 1.742469862035e-03 
9.200000000000e+02 2.522738172709e-03 2.522738172709e-03 1.980964674887e-03 
9.450000000000e+02 2.770283825806e-03 2.770283825806e-03 2.279399730948e-03 
9.700000000000e+02 3.065389657309e-03 3.065389657309e-03 2.653031086919e-03 
9.950000000000e+02 3.415563096675e-03 3.415563096675e-03 3.120341021622e-03 
1.020000000000e+03 3.828737529326e-03 3.828737529326e-03 3.703408946415e-03 
1.045000000000e+03 4.313104164635e-03 4.313104164635e-03 4.428193030552e-03 
1.070000000000e+03 4.876904886354e-03 4.876904886354e-03 5.324673262020e-03 
1.095000000000e+03 5.528195352675e-03 5.528195352675e-03 6.426809882069e-03 
1.120000000000e+03 6.274591993738e-03 6.274591993738e-03 7.772282143378e-03 
1.145000000000e+03 7.123019803414e-03 7.123019803414e-03 9.401990855940e-03 
1.170000000000e+03 8.079479253540e-03 8.079479253540e-03 1.135933218754e-02 
1.195000000000e+03 9.148849838704e-03 9.148849838704e-03 1.368927611130e-02 
1.220000000000e+03 1.033474463752e-02 1.033474463752e-02 1.643730623114e-02 
1.245000000000e+03 1.163942523460e-02 1.163942523460e-02 1.964829411600e-02 
1.270000000000e+03 1.306378014483e-02 1.306378014483e-02 2.336538750653e-02 
1.295000000000e+03 1.460736349920e-02 1.460736349920e-02 2.762898677103e-02 
1.320000000000e+03 1.626848518103e-02 1.626848518103e-02 3.247586897914e-02 
1.345000000000e+03 1.804433963267e-02 1.804433963267e-02 3.793849726903e-02 
1.370000000000e+03 1.993115862509e-02 1.993115862509e-02 4.404452909591e-02 
1.395000000000e+03 2.192437342440e-02 2.192437342440e-02 5.081651490264e-02 
1.420000000000e+03 2.401877366725e-02 2.401877366725e-02 5.827176203833e-02 
1.445000000000e+03 2.620865329447e-02 2.620865329447e-02 6.642232916323e-02 
1.470000000000e+03 2.848793742402e-02 2.848793742402e-02 7.527511386843e-02 
1.495000000000e+03 3.085028746545e-02 3.085028746545e-02 8.483199962060e-02 
1.520000000000e+03 3.328918463701e-02 3.328918463701e-02 9.509003521967e-02 
1.545000000000e+03 3.579799410065e-02 3.579799410065e-02 1.060416286078e-01 
1.570000000000e+03 3.837001312548e-02 3.837001312548e-02 1.176747452117e-01 
1.595000000000e+03 4.099850712514e-02 4.099850712514e-02 1.299731077968e-01 
1.620000000000e+03 4.367673727117e-02 4.367673727117e-02 1.429163995341e-01 
1.645000000000e+03 4.639798287295e-02 4.639798287295e-02 1.564804745599e-01 
1.670000000000e+03 4.915556102704e-02 4.915556102704e-02 1.706375811146e-01 
1.695000000000e+03 5.194284532143e-02 5.194284532143e-02 1.853566019182e-01 
1.720000000000e+03 5.475328472978e-02 5.475328472978e-02 2.006033151554e-01 
1.745000000000e+03 5.758042329498e-02 5.758042329498e-02 2.163406779107e-01 
1.770000000000e+03 6.041792079306e-02 6.041792079306e-02 2.325291321946e-01 
1.795000000000e+03 6.325957427961e-02 6.325957427961e-02 2.491269322223e-01 
1.820000000000e+03 6.609934023086e-02 6.609934023086e-02 2.660904902872e-01 
1.845000000000e+03 6.893135687893e-02 6.893135687893e-02 2.833747375094e-01 
1.870000000000e+03 7.174996628614e-02 7.174996628614e-02 3.009334949951e-01 
1.895000000000e+03 7.454973569002e-02 7.454973569002e-02 3.187198503594e-01 
1.920000000000e+03 7.732547766813e-02 7.732547766813e-02 3.366865343002e-01 
1.945000000000e+03 8.007226871010e-02 8.007226871010e-02 3.547862918210e-01 
1.970000000000e+03 8.278546583855e-02 8.278546583855e-02 3.729722428502e-01 
1.995000000000e+03 8.546072098390e-02 8.546072098390e-02 3.911982272700e-01 
2.020000000000e+03 8.809399288788e-02 8.809399288788e-02 4.094191298698e-01 
2.045000000000e+03 9.068155638190e-02 9.068155638190e-02 4.275911812839e-01 
2.070000000000e+03 9.322000895645e-02 9.322000895645e-02 4.456722316597e-01 
2.095000000000e+03 9.570627460430e-02 9.570627460430e-02 4.636219944998e-01 
2.120000000000e+03 9.813760497985e-02 9.813760497985e-02 4.814022588575e-01 
2.170000000000e+03 1.027631946738e-01 1.027631946738e-01 5.158924020470e-01 
2.220000000000e+03 1.071417576793e-01 1.071417576793e-01 5.492132198157e-01 
2.270000000000e+03 1.112658434472e-01 1.112658434472e-01 5.812269263137e-01 
2.320000000000e+03 1.151315600234e-01 1.151315600234e-01 6.117790614612e-01 
2.370000000000e+03 1.187386169448e-01 1.187386169448e-01 6.407536645071e-01 
2.420000000000e+03 1.220899535753e-01 1.220899535753e-01 6.680717468718e-01 
2.470000000000e+03 1.251912555984e-01 1.251912555984e-01 6.936881830921e-01 
2.520000000000e+03 1.280504574716e-01 1.280504574716e-01 7.175878776504e-01 
2.570000000000e+03 1.306772662755e-01 1.306772662755e-01 7.397816218588e-01 
2.620000000000e+03 1.330827223551e-01 1.330827223551e-01 7.603018957335e-01 
2.670000000000e+03 1.352788043949e-01 1.352788043949e-01 7.791987933995e-01 
2.720000000000e+03 1.372780825061e-01 1.372780825061e-01 7.965361991233e-01 
2.770000000000e+03 1.390934201853e-01 1.390934201853e-01 8.123882995622e-01 
2.820000000000e+03 1.407377240107e-01 1.407377240107e-01 8.268364830717e-01 
2.870000000000e+03 1.422237384854e-01 1.422237384854e-01 8.399666484394e-01 
2.920000000000e+03 1.435638824396e-01 1.435638824396e-01 8.518669230766e-01 
2.970000000000e+03 1.447701227889e-01 1.447701227889e-01 8.626257741008e-01 
3.020000000000e+03 1.458538811568e-01 1.458538811568e-01 8.723304842670e-01 
3.070000000000e+03 1.468259688264e-01 1.468259688264e-01 8.810659575744e-01 
3.120000000000e+03 1.476965456358e-01 1.476965456358e-01 8.889138157494e-01 
3.170000000000e+03 1.484750987105e-01 1.484750987105e-01 8.959517458916e-01 
3.220000000000e+03 1.491704372906e-01 1.491704372906e-01 9.022530606208e-01 
3.270000000000e+03 1.497907003156e-01 1.497907003156e-01 9.078864344670e-01 
3.320000000000e+03 1.503433738554e-01 1.503433738554e-01 9.129157834788e-01 
3.370000000000e+03 1.508353158895e-01 1.508353158895e-01 9.174002586929e-01 
3.420000000000e+03 1.512727863278e-01 1.512727863278e-01 9.213943279098e-01 
3.470000000000e+03 1.516614805302e-01 1.516614805302e-01 9.249479239385e-01 
3.520000000000e+03 1.520065649017e-01 1.520065649017e-01 9.281066409762e-01 
3.570000000000e+03 1.523127134267e-01 1.523127134267e-01 9.309119639780e-01 
3.595000000000e+03 1.524566082979e-01 1.524566082979e-01 9.322316533465e-01 
3.620000000000e+03 1.525918483015e-01 1.525918483015e-01 9.334723689871e-01 
3.670000000000e+03 1.528315031651e-01 1.528315031651e-01 9.356722164037e-01 
3.720000000000e+03 1.530437413241e-01 1.530437413241e-01 9.376219793404e-01 
3.770000000000e+03 1.532316159950e-01 1.532316159950e-01 9.393490515252e-01 
3.820000000000e+03 1.533978603631e-01 1.533978603631e-01 9.408781665972e-01 
3.870000000000e+03 1.535449174969e-01 1.535449174969e-01 9.422314885448e-01 
3.920000000000e+03 1.536749679876e-01 1.536749679876e-01 9.434288437611e-01 
3.970000000000e+03 1.537899555205e-01 1.537899555205e-01 9.444879387898e-01 
4.020000000000e+03 1.538916104450e-01 1.538916104450e-01 9.454245634130e-01 
4.070000000000e+03 1.539814714044e-01 1.539814714044e-01 9.462527788886e-01 
4.120000000000e+03 1.540609051067e-01 1.540609051067e-01 9.469850914492e-01 
4.170000000000e+03 1.541311243297e-01 1.541311243297e-01 9.476326114354e-01 
4.220000000000e+03 1.541932042670e-01 1.541932042670e-01 9.482051986290e-01 
4.270000000000e+03 1.542480973232e-01 1.542480973232e-01 9.487115944805e-01 
4.320000000000e+03 1.542966416063e-01 1.542966416063e-01 9.491570341432e-01 
4.370000000000e+03 1.543395923688e-01 1.543395923688e-01 9.495536696313e-01 
4.420000000000e+03 1.543776045488e-01 1.543776045488e-01 9.499047450689e-01 
4.470000000000e+03 1.544112594757e-01 1.544112594757e-01 9.502156130311e-01 
4.495000000000e+03 1.544270674745e-01 1.544270674745e-01 9.503625935651e-01 
4.520000000000e+03 1.544419170728e-01 1.544419170728e-01 9.504997178743e-01 
4.570000000000e+03 1.544682370322e-01 1.544682370322e-01 9.507419859274e-01 
4.620000000000e+03 1.544915800964e-01 1.544915800964e-01 9.509576613967e-01 
4.670000000000e+03 1.545122963178e-01 1.545122963178e-01 9.511490794600e-01 
4.720000000000e+03 1.545306949697e-01 1.545306949697e-01 9.513190931422e-01 
4.770000000000e+03 1.545470486690e-01 1.545470486690e-01 9.514702180390e-01 
4.820000000000e+03 1.545615975517e-01 1.545615975517e-01 9.516046705313e-01 
4.870000000000e+03 1.545745530777e-01 1.545745530777e-01 9.517244027026e-01 
4.920000000000e+03 1.545861014197e-01 1.545861014197e-01 9.518311334936e-01 
4.970000000000e+03 1.545964064682e-01 1.545964064682e-01 9.519263763355e-01 
5.020000000000e+03 1.546056124884e-01 1.546056124884e-01 9.520114636087e-01 
5.070000000000e+03 1.546138464686e-01 1.546138464686e-01 9.520875682673e-01 
5.120000000000e+03 1.546212201937e-01 1.546212201937e-01 9.521557229416e-01 
5.170000000000e+03 1.546278320743e-01 1.546278320743e-01 9.522168367976e-01 
5.220000000000e+03 1.546337687594e-01 1.546337687594e-01 9.522717104067e-01 
5.270000000000e+03 1.546391065576e-01 1.546391065576e-01 9.523210488525e-01 
5.320000000000e+03 1.546439126885e-01 1.546439126885e-01 9.523654732744e-01 
5.357500000000e+03 1.546472440996e-01 1.546472440996e-01 9.523963327348e-01 
5.395000000000e+03 1.546503254785e-01 1.546503254785e-01 9.524248099664e-01 
5.445000000000e+03 1.543192381134e-01 1.543192381134e-01 9.493680190075e-01 
5.495000000000e+03 1.537512047267e-01 1.537512047267e-01 9.441311466865e-01 
5.545000000000e+03 1.529328886671e-01 1.529328886671e-01 9.366038312967e-01 
5.595000000000e+03 1.518652479033e-01 1.518652479033e-01 9.268133039531e-01 
5.645000000000e+03 1.505569519072e-01 1.505569519072e-01 9.148627285942e-01 
5.695000000000e+03 1.490216249351e-01 1.490216249351e-01 9.009044086542e-01 
5.745000000000e+03 1.472761581459e-01 1.472761581459e-01 8.851227229409e-01 
5.795000000000e+03 1.453394874801e-01 1.453394874801e-01 8.677213835910e-01 
5.845000000000e+03 1.432316613390e-01 1.432316613390e-01 8.489135069223e-01 
5.895000000000e+03 1.409731301150e-01 1.409731301150e-01 8.289139376938e-01 
5.945000000000e+03 1.385841992357e-01 1.385841992357e-01 8.079333290386e-01 
5.995000000000e+03 1.360847140566e-01 1.360847140566e-01 7.862198176927e-01 
6.045000000000e+03 1.334933954565e-01 1.334933954565e-01 7.638729116422e-01 
6.095000000000e+03 1.308281431547e-01 1.308281431547e-01 7.411128774829e-01 
6.145000000000e+03 1.281056091008e-01 1.281056091008e-01 7.181012259873e-01 
6.195000000000e+03 1.253411572703e-01 1.253411572703e-01 6.949836335846e-01 
6.245000000000e+03 1.225488368737e-01 1.225488368737e-01 6.718899356555e-01 
6.295000000000e+03 1.197413834692e-01 1.197413834692e-01 6.489344534274e-01 
6.345000000000e+03 1.169302449341e-01 1.169302449341e-01 6.262166017431e-01 
6.395000000000e+03 1.141256266711e-01 1.141256266711e-01 6.038217030945e-01 
6.445000000000e+03 1.113365507899e-01 1.113365507899e-01 5.818219403040e-01 
6.495000000000e+03 1.085709248490e-01 1.085709248490e-01 5.602773918431e-01 
6.545000000000e+03 1.058356165706e-01 1.058356165706e-01 5.392371053152e-01 
6.595000000000e+03 1.031365316617e-01 1.031365316617e-01 5.187401742634e-01 
6.645000000000e+03 1.004786924879e-01 1.004786924879e-01 4.988167921207e-01 
6.695000000000e+03 9.786631585818e-02 9.786631585818e-02 4.794892639659e-01 
6.720000000000e+03 9.657266567517e-02 9.657266567517e-02 4.700015886918e-01 
6.745000000000e+03 9.529160128335e-02 9.529160128335e-02 4.606803232076e-01 
6.795000000000e+03 9.277994808971e-02 9.277994808971e-02 4.425963115930e-01 
6.845000000000e+03 9.032200692059e-02 9.032200692059e-02 4.251242004241e-01 
6.895000000000e+03 8.791977325096e-02 8.791977325096e-02 4.082762129703e-01 
6.945000000000e+03 8.557456878905e-02 8.557456878905e-02 3.920487460053e-01 
6.995000000000e+03 8.328724891880e-02 8.328724891880e-02 3.764345782293e-01 
7.045000000000e+03 8.105829517603e-02 8.105829517603e-02 3.614237441099e-01 
7.095000000000e+03 7.888787297893e-02 7.888787297893e-02 3.470041054031e-01 
7.145000000000e+03 7.677587667402e-02 7.677587667402e-02 3.331617992283e-01 
7.195000000000e+03 7.472196817406e-02 7.472196817406e-02 3.198816149145e-01 
7.245000000000e+03 7.272561112555e-02 7.272561112555e-02 3.071473174609e-01 
7.295000000000e+03 7.078610133817e-02 7.078610133817e-02 2.949419257989e-01 
7.345000000000e+03 6.890259387226e-02 6.890259387226e-02 2.832479512830e-01 
7.395000000000e+03 6.707412708302e-02 6.707412708302e-02 2.720476009058e-01 
7.445000000000e+03 6.529964388857e-02 6.529964388857e-02 2.613229492261e-01 
7.495000000000e+03 6.357801051253e-02 6.357801051253e-02 2.510560826842e-01 
7.545000000000e+03 6.190803293854e-02 6.190803293854e-02 2.412292196564e-01 
7.595000000000e+03 6.028847130021e-02 6.028847130021e-02 2.318248092920e-01 
7.645000000000e+03 5.871805241522e-02 5.871805241522e-02 2.228256118864e-01 
7.695000000000e+03 5.719548065704e-02 5.719548065704e-02 2.142147632623e-01 
7.745000000000e+03 5.571944734266e-02 5.571944734266e-02 2.059758253714e-01 
7.795000000000e+03 5.428863879934e-02 5.428863879934e-02 1.980928250580e-01 
7.845000000000e+03 5.290174325908e-02 5.290174325908e-02 1.905502827332e-01 
7.895000000000e+03 5.155745671573e-02 5.155745671573e-02 1.833332324681e-01 
7.945000000000e+03 5.025448786618e-02 5.025448786618e-02 1.764272348471e-01 
7.995000000000e+03 4.899156224567e-02 4.899156224567e-02 1.698183837468e-01 
8.045000000000e+03 4.776742565514e-02 4.776742565514e-02 1.634933080432e-01 
8.070000000000e+03 4.716519234593e-02 4.716519234593e-02 1.604130165955e-01 
8.095000000000e+03 4.657249868243e-02 4.657249868243e-02 1.573987840557e-01 
8.145000000000e+03 4.542286725429e-02 4.542286725429e-02 1.516048037887e-01 
8.195000000000e+03 4.430816425269e-02 4.430816425269e-02 1.460583506001e-01 
8.245000000000e+03 4.322738125505e-02 4.322738125505e-02 1.407468736201e-01 
8.295000000000e+03 4.217945626126e-02 4.217945626126e-02 1.356598896304e-01 
8.345000000000e+03 4.116332329328e-02 4.116332329328e-02 1.307872140197e-01 
8.395000000000e+03 4.017793288653e-02 4.017793288653e-02 1.261190531277e-01 
8.445000000000e+03 3.922226061688e-02 3.922226061688e-02 1.216460324174e-01 
8.495000000000e+03 3.829531060751e-02 3.829531060751e-02 1.173591984191e-01 
8.545000000000e+03 3.739611686772e-02 3.739611686772e-02 1.132500098570e-01 
8.595000000000e+03 3.652374365442e-02 3.652374365442e-02 1.093103243250e-01 
8.645000000000e+03 3.567728536458e-02 3.567728536458e-02 1.055323831972e-01 
8.695000000000e+03 3.485586618274e-02 3.485586618274e-02 1.019087959540e-01 
8.745000000000e+03 3.405863958715e-02 3.405863958715e-02 9.843252444898e-02 
8.795000000000e+03 3.328478776647e-02 3.328478776647e-02 9.509686738539e-02 
8.845000000000e+03 3.253352097569e-02 3.253352097569e-02 9.189544512954e-02 
8.895000000000e+03 3.180407684905e-02 3.180407684905e-02 8.882218494268e-02 
8.945000000000e+03 3.109571968259e-02 3.109571968259e-02 8.587130667430e-02 
8.995000000000e+03 3.040773969555e-02 3.040773969555e-02 8.303730894593e-02 
9.045000000000e+03 2.973945227829e-02 2.973945227829e-02 8.031495584128e-02 
9.095000000000e+03 2.909019723281e-02 2.909019723281e-02 7.769926411061e-02 
9.145000000000e+03 2.845933801109e-02 2.845933801109e-02 7.518549089323e-02 
9.195000000000e+03 2.784626095551e-02 2.784626095551e-02 7.276912195560e-02 
9.245000000000e+03 2.725037454504e-02 2.725037454504e-02 7.044586043722e-02 
9.295000000000e+03 2.667110865011e-02 2.667110865011e-02 6.821161609737e-02 
9.345000000000e+03 2.610791379877e-02 2.610791379877e-02 6.606249505217e-02 
9.395000000000e+03 2.556026045601e-02 2.556026045601e-02 6.399478998639e-02 
9.420000000000e+03 2.529035423402e-02 2.529035423402e-02 6.298494556951e-02 
9.445000000000e+03 2.502426828134e-02 2.502426828134e-02 6.199354150276e-02 
9.495000000000e+03 2.450645754295e-02 2.450645754295e-02 6.007827663783e-02 
9.545000000000e+03 2.400261755062e-02 2.400261755062e-02 5.823506959189e-02 
9.595000000000e+03 2.351233505401e-02 2.351233505401e-02 5.645993332652e-02 
9.645000000000e+03 2.303519299621e-02 2.303519299621e-02 5.475005108493e-02 
9.695000000000e+03 2.257077954550e-02 2.257077954550e-02 5.310270134672e-02 
9.745000000000e+03 2.211869254383e-02 2.211869254383e-02 5.151527079277e-02 
9.795000000000e+03 2.167854158492e-02 2.167854158492e-02 4.998525811283e-02 
9.845000000000e+03 2.124994886253e-02 2.124994886253e-02 4.851027322740e-02 
9.895000000000e+03 2.083254938028e-02 2.083254938028e-02 4.708803426507e-02 
9.945000000000e+03 2.042599083239e-02 2.042599083239e-02 4.571636349924e-02 
9.995000000000e+03 2.002993331724e-02 2.002993331724e-02 4.439318286429e-02 
1.004500000000e+04 1.964404896978e-02 1.964404896978e-02 4.311650936979e-02 
1.009500000000e+04 1.926802155808e-02 1.926802155808e-02 4.188445057411e-02 
1.014500000000e+04 1.890154606823e-02 1.890154606823e-02 4.069520019796e-02 
1.019500000000e+04 1.854432829031e-02 1.854432829031e-02 3.954703391410e-02 
1.024500000000e+04 1.819608441225e-02 1.819608441225e-02 3.843830532884e-02 
1.029500000000e+04 1.785654062487e-02 1.785654062487e-02 3.736744215713e-02 
1.034500000000e+04 1.752543273983e-02 1.752543273983e-02 3.633294258877e-02 
1.039500000000e+04 1.720250582123e-02 1.720250582123e-02 3.533337183912e-02 
1.044500000000e+04 1.688751383078e-02 1.688751383078e-02 3.436735887665e-02 
1.049500000000e+04 1.658021928675e-02 1.658021928675e-02 3.343359331934e-02 
1.054500000000e+04 1.628039293607e-02 1.628039293607e-02 3.253082249114e-02 
1.059500000000e+04 1.598781343938e-02 1.598781343938e-02 3.165784863085e-02 
1.064500000000e+04 1.570226706869e-02 1.570226706869e-02 3.081352624488e-02 
1.069500000000e+04 1.542354741695e-02 1.542354741695e-02 2.999675959685e-02 
1.074500000000e+04 1.515145511935e-02 1.515145511935e-02 2.920650032633e-02 
1.077000000000e+04 1.501707800647e-02 1.501707800647e-02 2.881921957659e-02 
1.079500000000e+04 1.488433554037e-02 1.488433554037e-02 2.843794671316e-02 
