 TITLE = "Time curves in points"
 VARIABLES = "TIME "  "WDEPTH"  "HEAD"  "FLUX" 
 ZONE T="POINT=POINT4"
0.000000000000e+00 0.000000000000e+00 1.000000000000e-04 0.000000000000e+00 
5.000000000000e+00 1.146405077693e-04 1.146405077693e-04 1.922312970131e-05 
1.000000000000e+01 1.292111093765e-04 1.292111093765e-04 2.300194123964e-05 
2.000000000000e+01 1.580530482036e-04 1.580530482036e-04 3.112210912231e-05 
3.000000000000e+01 1.865721380075e-04 1.865721380075e-04 3.991349047749e-05 
5.000000000000e+01 2.422147345665e-04 2.422147345665e-04 5.906614942118e-05 
7.000000000000e+01 2.963470224151e-04 2.963470224151e-04 7.992131293936e-05 
9.500000000000e+01 3.615236381283e-04 3.615236381283e-04 1.076488903370e-04 
1.200000000000e+02 4.241158515042e-04 4.241158515042e-04 1.368276667356e-04 
1.450000000000e+02 4.840773091838e-04 4.840773091838e-04 1.668319699159e-04 
1.700000000000e+02 5.414017413950e-04 5.414017413950e-04 1.973146209549e-04 
1.950000000000e+02 5.961160891058e-04 5.961160891058e-04 2.279587519858e-04 
2.200000000000e+02 6.482753293654e-04 6.482753293654e-04 2.585141112372e-04 
2.450000000000e+02 6.979586915620e-04 6.979586915620e-04 2.887870249264e-04 
2.700000000000e+02 7.452671359894e-04 7.452671359894e-04 3.186332364572e-04 
2.950000000000e+02 7.903220735552e-04 7.903220735552e-04 3.479528751751e-04 
3.200000000000e+02 8.332653829691e-04 8.332653829691e-04 3.766872287309e-04 
3.450000000000e+02 8.742608479024e-04 8.742608479024e-04 4.048172312840e-04 
3.700000000000e+02 9.134972006349e-04 9.134972006349e-04 4.323637357613e-04 
3.950000000000e+02 9.511930253022e-04 9.511930253022e-04 4.593897600279e-04 
4.200000000000e+02 9.876038451627e-04 9.876038451627e-04 4.860050093537e-04 
4.450000000000e+02 1.023031794512e-03 1.023031794512e-03 5.123730965753e-04 
4.700000000000e+02 1.057838355239e-03 1.057838355239e-03 5.387220187435e-04 
4.950000000000e+02 1.092460716436e-03 1.092460716436e-03 5.653586164054e-04 
5.200000000000e+02 1.127432385559e-03 1.127432385559e-03 5.926879524083e-04 
5.450000000000e+02 1.163408729832e-03 1.163408729832e-03 6.212388182265e-04 
5.700000000000e+02 1.201198139497e-03 1.201198139497e-03 6.516969289236e-04 
5.950000000000e+02 1.241799455665e-03 1.241799455665e-03 6.849478291981e-04 
6.200000000000e+02 1.286446162356e-03 1.286446162356e-03 7.221321305772e-04 
6.450000000000e+02 1.336657563601e-03 1.336657563601e-03 7.647164559835e-04 
6.700000000000e+02 1.394296705185e-03 1.394296705185e-03 8.145843831096e-04 
6.950000000000e+02 1.461634109200e-03 1.461634109200e-03 8.741527036866e-04 
7.200000000000e+02 1.541415432117e-03 1.541415432117e-03 9.465193140604e-04 
7.450000000000e+02 1.636929927623e-03 1.636929927623e-03 1.035649749825e-03 
7.700000000000e+02 1.752075142542e-03 1.752075142542e-03 1.146609327444e-03 
7.950000000000e+02 1.891411727410e-03 1.891411727410e-03 1.285846446458e-03 
8.200000000000e+02 2.060200830912e-03 2.060200830912e-03 1.461529147650e-03 
8.450000000000e+02 2.264415593687e-03 2.264415593687e-03 1.683930949384e-03 
8.700000000000e+02 2.510718143752e-03 2.510718143752e-03 1.965853149650e-03 
8.950000000000e+02 2.806394585864e-03 2.806394585864e-03 2.323059767016e-03 
9.200000000000e+02 3.159243006972e-03 3.159243006972e-03 2.774689597213e-03 
9.450000000000e+02 3.577413487783e-03 3.577413487783e-03 3.343599824483e-03 
9.700000000000e+02 4.069204196102e-03 4.069204196102e-03 4.056590035081e-03 
9.950000000000e+02 4.642823189411e-03 4.642823189411e-03 4.944456887968e-03 
1.020000000000e+03 5.306130667699e-03 5.306130667699e-03 6.041839620238e-03 
1.045000000000e+03 6.066380106175e-03 6.066380106175e-03 7.386834787150e-03 
1.070000000000e+03 6.929978123698e-03 6.929978123698e-03 9.020382895855e-03 
1.095000000000e+03 7.902281649521e-03 7.902281649521e-03 1.098545584654e-02 
1.120000000000e+03 8.987447018861e-03 8.987447018861e-03 1.332609737947e-02 
1.145000000000e+03 1.018833969623e-02 1.018833969623e-02 1.608638448956e-02 
1.170000000000e+03 1.150650645590e-02 1.150650645590e-02 1.930938305833e-02 
1.195000000000e+03 1.294220526732e-02 1.294220526732e-02 2.303616534389e-02 
1.220000000000e+03 1.449448292923e-02 1.449448292923e-02 2.730494247283e-02 
1.245000000000e+03 1.616128737377e-02 1.616128737377e-02 3.215034555525e-02 
1.270000000000e+03 1.793960071680e-02 1.793960071680e-02 3.760286883686e-02 
1.295000000000e+03 1.982558027651e-02 1.982558027651e-02 4.368847113160e-02 
1.320000000000e+03 2.181469729774e-02 2.181469729774e-02 5.042831992806e-02 
1.345000000000e+03 2.390186625689e-02 2.390186625689e-02 5.783865648625e-02 
1.370000000000e+03 2.608156070298e-02 2.608156070298e-02 6.593075907918e-02 
1.395000000000e+03 2.834791413814e-02 2.834791413814e-02 7.471098362975e-02 
1.420000000000e+03 3.069480622831e-02 3.069480622831e-02 8.418086455951e-02 
1.445000000000e+03 3.311593565988e-02 3.311593565988e-02 9.433726232471e-02 
1.470000000000e+03 3.560488136616e-02 3.560488136616e-02 1.051725471121e-01 
1.495000000000e+03 3.815515385117e-02 3.815515385117e-02 1.166748102658e-01 
1.520000000000e+03 4.076023814132e-02 4.076023814132e-02 1.288280963974e-01 
1.545000000000e+03 4.341362965231e-02 4.341362965231e-02 1.416126501692e-01 
1.570000000000e+03 4.610886405762e-02 4.610886405762e-02 1.550051726848e-01 
1.595000000000e+03 4.883954211608e-02 4.883954211608e-02 1.689790834785e-01 
1.620000000000e+03 5.159935035018e-02 5.159935035018e-02 1.835047853164e-01 
1.645000000000e+03 5.438207843417e-02 5.438207843417e-02 1.985499302781e-01 
1.670000000000e+03 5.718163412041e-02 5.718163412041e-02 2.140796867368e-01 
1.695000000000e+03 5.999205648056e-02 5.999205648056e-02 2.300570078121e-01 
1.720000000000e+03 6.280752815155e-02 6.280752815155e-02 2.464429024155e-01 
1.745000000000e+03 6.562238715636e-02 6.562238715636e-02 2.631967102359e-01 
1.770000000000e+03 6.843113872296e-02 6.843113872296e-02 2.802763817783e-01 
1.795000000000e+03 7.122846736545e-02 7.122846736545e-02 2.976387641181e-01 
1.820000000000e+03 7.400924933232e-02 7.400924933232e-02 3.152398922410e-01 
1.845000000000e+03 7.676856538222e-02 7.676856538222e-02 3.330352850731e-01 
1.870000000000e+03 7.950171372636e-02 7.950171372636e-02 3.509802443703e-01 
1.895000000000e+03 8.220422288490e-02 8.220422288490e-02 3.690301539533e-01 
1.920000000000e+03 8.487186414614e-02 8.487186414614e-02 3.871407760912e-01 
1.945000000000e+03 8.750066328925e-02 8.750066328925e-02 4.052685414229e-01 
1.970000000000e+03 9.008691123272e-02 9.008691123272e-02 4.233708286608e-01 
1.995000000000e+03 9.262717329489e-02 9.262717329489e-02 4.414062301896e-01 
2.020000000000e+03 9.511829679603e-02 9.511829679603e-02 4.593348000223e-01 
2.045000000000e+03 9.755741678552e-02 9.755741678552e-02 4.771182808212e-01 
2.070000000000e+03 9.994195973989e-02 9.994195973989e-02 4.947203072257e-01 
2.095000000000e+03 1.022696451402e-01 1.022696451402e-01 5.121065833145e-01 
2.120000000000e+03 1.045384848993e-01 1.045384848993e-01 5.292450326012e-01 
2.170000000000e+03 1.088287038263e-01 1.088287038263e-01 5.622359966727e-01 
2.220000000000e+03 1.128665384159e-01 1.128665384159e-01 5.938152400653e-01 
2.270000000000e+03 1.166487259270e-01 1.166487259270e-01 6.239123714863e-01 
2.320000000000e+03 1.201750998297e-01 1.201750998297e-01 6.524171962708e-01 
2.370000000000e+03 1.234485953972e-01 1.234485953972e-01 6.792551713632e-01 
2.420000000000e+03 1.264748585235e-01 1.264748585235e-01 7.043849806984e-01 
2.470000000000e+03 1.292617794315e-01 1.292617794315e-01 7.277949468338e-01 
2.520000000000e+03 1.318190304919e-01 1.318190304919e-01 7.494990118754e-01 
2.570000000000e+03 1.341576326636e-01 1.341576326636e-01 7.695326050028e-01 
2.620000000000e+03 1.362895611459e-01 1.362895611459e-01 7.879485934367e-01 
2.670000000000e+03 1.382273956610e-01 1.382273956610e-01 8.048134560702e-01 
2.720000000000e+03 1.399840176995e-01 1.399840176995e-01 8.202037762390e-01 
2.770000000000e+03 1.415723547579e-01 1.415723547579e-01 8.342031138525e-01 
2.820000000000e+03 1.430051698260e-01 1.430051698260e-01 8.468992866012e-01 
2.870000000000e+03 1.442948931033e-01 1.442948931033e-01 8.583820654028e-01 
2.920000000000e+03 1.454534920603e-01 1.454534920603e-01 8.687412705870e-01 
2.970000000000e+03 1.464923754799e-01 1.464923754799e-01 8.780652421081e-01 
3.020000000000e+03 1.474223269345e-01 1.474223269345e-01 8.864396486173e-01 
3.070000000000e+03 1.482534632055e-01 1.482534632055e-01 8.939465956925e-01 
3.120000000000e+03 1.489952133829e-01 1.489952133829e-01 9.006639920620e-01 
3.170000000000e+03 1.496563147193e-01 1.496563147193e-01 9.066651334675e-01 
3.220000000000e+03 1.502448217219e-01 1.502448217219e-01 9.120184661901e-01 
3.270000000000e+03 1.507681254002e-01 1.507681254002e-01 9.167874956238e-01 
3.320000000000e+03 1.512329800256e-01 1.512329800256e-01 9.210308091645e-01 
3.370000000000e+03 1.516455351786e-01 1.516455351786e-01 9.248021867428e-01 
3.420000000000e+03 1.520113712430e-01 1.520113712430e-01 9.281507763140e-01 
3.470000000000e+03 1.523355368575e-01 1.523355368575e-01 9.311213153676e-01 
3.520000000000e+03 1.526225871414e-01 1.526225871414e-01 9.337543829340e-01 
3.570000000000e+03 1.528766217717e-01 1.528766217717e-01 9.360866695947e-01 
3.595000000000e+03 1.529958704962e-01 1.529958704962e-01 9.371822378153e-01 
3.620000000000e+03 1.531078084174e-01 1.531078084174e-01 9.382109491144e-01 
3.670000000000e+03 1.533057344385e-01 1.533057344385e-01 9.400307466997e-01 
3.720000000000e+03 1.534806564097e-01 1.534806564097e-01 9.416400817181e-01 
3.770000000000e+03 1.536352017104e-01 1.536352017104e-01 9.430627085695e-01 
3.820000000000e+03 1.537717121961e-01 1.537717121961e-01 9.443199159541e-01 
3.870000000000e+03 1.538922724663e-01 1.538922724663e-01 9.454306923807e-01 
3.920000000000e+03 1.539987356939e-01 1.539987356939e-01 9.464119482234e-01 
3.970000000000e+03 1.540927473080e-01 1.540927473080e-01 9.472787214517e-01 
4.020000000000e+03 1.541757666371e-01 1.541757666371e-01 9.480443673213e-01 
4.070000000000e+03 1.542490866159e-01 1.542490866159e-01 9.487207323711e-01 
4.120000000000e+03 1.543138516634e-01 1.543138516634e-01 9.493183132790e-01 
4.170000000000e+03 1.543710738521e-01 1.543710738521e-01 9.498464013021e-01 
4.220000000000e+03 1.544216474894e-01 1.544216474894e-01 9.503132131336e-01 
4.270000000000e+03 1.544663622350e-01 1.544663622350e-01 9.507260090756e-01 
4.320000000000e+03 1.545059125385e-01 1.545059125385e-01 9.510887657316e-01 
4.370000000000e+03 1.545409176176e-01 1.545409176176e-01 9.514122854222e-01 
4.420000000000e+03 1.545719168623e-01 1.545719168623e-01 9.516988124001e-01 
4.470000000000e+03 1.545993870057e-01 1.545993870057e-01 9.519527425842e-01 
4.495000000000e+03 1.546122964509e-01 1.546122964509e-01 9.520729934798e-01 
4.520000000000e+03 1.546244310627e-01 1.546244310627e-01 9.521851205526e-01 
4.570000000000e+03 1.546459708176e-01 1.546459708176e-01 9.523834051741e-01 
4.620000000000e+03 1.546651069820e-01 1.546651069820e-01 9.525603338246e-01 
4.670000000000e+03 1.546821238802e-01 1.546821238802e-01 9.527176762809e-01 
4.720000000000e+03 1.546972719940e-01 1.546972719940e-01 9.528577456519e-01 
4.770000000000e+03 1.547107716162e-01 1.547107716162e-01 9.529825766904e-01 
4.820000000000e+03 1.547228164133e-01 1.547228164133e-01 9.530939585261e-01 
4.870000000000e+03 1.547335766227e-01 1.547335766227e-01 9.531934640894e-01 
4.920000000000e+03 1.547432018832e-01 1.547432018832e-01 9.532824761720e-01 
4.970000000000e+03 1.547518237316e-01 1.547518237316e-01 9.533622104327e-01 
5.020000000000e+03 1.547595578032e-01 1.547595578032e-01 9.534337356816e-01 
5.070000000000e+03 1.547665057696e-01 1.547665057696e-01 9.534979917493e-01 
5.120000000000e+03 1.547727570436e-01 1.547727570436e-01 9.535558052163e-01 
5.170000000000e+03 1.547783902786e-01 1.547783902786e-01 9.536079032500e-01 
5.220000000000e+03 1.547834746864e-01 1.547834746864e-01 9.536549257692e-01 
5.270000000000e+03 1.547880711949e-01 1.547880711949e-01 9.536974361321e-01 
5.320000000000e+03 1.547922334641e-01 1.547922334641e-01 9.537359305212e-01 
5.357500000000e+03 1.547951315279e-01 1.547951315279e-01 9.537628005984e-01 
5.395000000000e+03 1.547978245007e-01 1.547978245007e-01 9.537877014838e-01 
5.445000000000e+03 1.544155232304e-01 1.544155232304e-01 9.502567407148e-01 
5.495000000000e+03 1.537524780507e-01 1.537524780507e-01 9.441429488636e-01 
5.545000000000e+03 1.528058560676e-01 1.528058560676e-01 9.354371488325e-01 
5.595000000000e+03 1.515858103850e-01 1.515858103850e-01 9.242564434278e-01 
5.645000000000e+03 1.501088687152e-01 1.501088687152e-01 9.107815698388e-01 
5.695000000000e+03 1.483952932419e-01 1.483952932419e-01 8.952306347441e-01 
5.745000000000e+03 1.464674737295e-01 1.464674737295e-01 8.778424282664e-01 
5.795000000000e+03 1.443488005266e-01 1.443488005266e-01 8.588643600184e-01 
5.845000000000e+03 1.420628458903e-01 1.420628458903e-01 8.385435144040e-01 
5.895000000000e+03 1.396327725405e-01 1.396327725405e-01 8.171201139244e-01 
5.945000000000e+03 1.370809038316e-01 1.370809038316e-01 7.948227939926e-01 
5.995000000000e+03 1.344284249213e-01 1.344284249213e-01 7.718653594800e-01 
6.045000000000e+03 1.316951860630e-01 1.316951860630e-01 7.484447438138e-01 
6.095000000000e+03 1.288995840595e-01 1.288995840595e-01 7.247398962922e-01 
6.145000000000e+03 1.260585033368e-01 1.260585033368e-01 7.009113862956e-01 
6.195000000000e+03 1.231873023029e-01 1.231873023029e-01 6.771015517275e-01 
6.245000000000e+03 1.202998337983e-01 1.202998337983e-01 6.534350517400e-01 
6.295000000000e+03 1.174084908035e-01 1.174084908035e-01 6.300197102736e-01 
6.345000000000e+03 1.145242703859e-01 1.145242703859e-01 6.069475587003e-01 
6.395000000000e+03 1.116568502779e-01 1.116568502779e-01 5.842960039590e-01 
6.445000000000e+03 1.088146736160e-01 1.088146736160e-01 5.621290637462e-01 
6.495000000000e+03 1.060050382810e-01 1.060050382810e-01 5.404986230730e-01 
6.545000000000e+03 1.032342370003e-01 1.032342370003e-01 5.195038122053e-01 
6.595000000000e+03 1.005074560953e-01 1.005074560953e-01 4.990561569598e-01 
6.645000000000e+03 9.782913779742e-02 9.782913779742e-02 4.792400392982e-01 
6.695000000000e+03 9.520290611867e-02 9.520290611867e-02 4.600708552465e-01 
6.720000000000e+03 9.390401805911e-02 9.390401805911e-02 4.506645803156e-01 
6.745000000000e+03 9.261921871348e-02 9.261921871348e-02 4.414469221586e-01 
6.795000000000e+03 9.010531063873e-02 9.010531063873e-02 4.236156526704e-01 
6.845000000000e+03 8.765008678990e-02 8.765008678990e-02 4.064184995994e-01 
6.895000000000e+03 8.525506541797e-02 8.525506541797e-02 3.898734570512e-01 
6.945000000000e+03 8.292109437524e-02 8.292109437524e-02 3.739722028055e-01 
6.995000000000e+03 8.064859103742e-02 8.064859103742e-02 3.587032820878e-01 
7.045000000000e+03 7.843763409568e-02 7.843763409568e-02 3.440529518716e-01 
7.095000000000e+03 7.628801824941e-02 7.628801824941e-02 3.300057082992e-01 
7.145000000000e+03 7.419929700630e-02 7.419929700630e-02 3.165446984528e-01 
7.195000000000e+03 7.217081956863e-02 7.217081956863e-02 3.036520659324e-01 
7.245000000000e+03 7.020176341222e-02 7.020176341222e-02 2.913092454444e-01 
7.295000000000e+03 6.829116315887e-02 6.829116315887e-02 2.794972136911e-01 
7.345000000000e+03 6.643793610750e-02 6.643793610750e-02 2.681967017976e-01 
7.395000000000e+03 6.464090472939e-02 6.464090472939e-02 2.573883738358e-01 
7.445000000000e+03 6.289881641045e-02 6.289881641045e-02 2.470529755176e-01 
7.495000000000e+03 6.121036070720e-02 6.121036070720e-02 2.371714568135e-01 
7.545000000000e+03 5.957418436708e-02 5.957418436708e-02 2.277250718868e-01 
7.595000000000e+03 5.798890434611e-02 5.798890434611e-02 2.186954593696e-01 
7.645000000000e+03 5.645311903977e-02 5.645311903977e-02 2.100647057166e-01 
7.695000000000e+03 5.496541792438e-02 5.496541792438e-02 2.018153940499e-01 
7.745000000000e+03 5.352438978970e-02 5.352438978970e-02 1.939306406313e-01 
7.795000000000e+03 5.212862972602e-02 5.212862972602e-02 1.863941208359e-01 
7.845000000000e+03 5.077674501370e-02 5.077674501370e-02 1.791900862788e-01 
7.895000000000e+03 4.946736004806e-02 4.946736004806e-02 1.723033745190e-01 
7.945000000000e+03 4.819912041874e-02 4.819912041874e-02 1.657194125949e-01 
7.995000000000e+03 4.697069625017e-02 4.697069625017e-02 1.594242154675e-01 
8.045000000000e+03 4.578078489794e-02 4.578078489794e-02 1.534043802870e-01 
8.070000000000e+03 4.519564051773e-02 4.519564051773e-02 1.504723010311e-01 
8.095000000000e+03 4.461996257154e-02 4.461996257154e-02 1.476064538532e-01 
8.145000000000e+03 4.350387061848e-02 4.350387061848e-02 1.421029251120e-01 
8.195000000000e+03 4.242230513089e-02 4.242230513089e-02 1.368364686514e-01 
8.245000000000e+03 4.137425575758e-02 4.137425575758e-02 1.317968553571e-01 
8.295000000000e+03 4.035863824314e-02 4.035863824314e-02 1.269737155848e-01 
8.345000000000e+03 3.937436425421e-02 3.937436425421e-02 1.223569802596e-01 
8.395000000000e+03 3.842036596434e-02 3.842036596434e-02 1.179369906278e-01 
8.445000000000e+03 3.749560466909e-02 3.749560466909e-02 1.137045247648e-01 
8.495000000000e+03 3.659907364654e-02 3.659907364654e-02 1.096507949574e-01 
8.545000000000e+03 3.572979888063e-02 3.572979888063e-02 1.057674348898e-01 
8.595000000000e+03 3.488683895123e-02 3.488683895123e-02 1.020464833714e-01 
8.645000000000e+03 3.406928457273e-02 3.406928457273e-02 9.848036706237e-02 
8.695000000000e+03 3.327625796607e-02 3.327625796607e-02 9.506188312623e-02 
8.745000000000e+03 3.250691214084e-02 3.250691214084e-02 9.178418217629e-02 
8.795000000000e+03 3.176043012239e-02 3.176043012239e-02 8.864075167599e-02 
8.845000000000e+03 3.103602414341e-02 3.103602414341e-02 8.562539986743e-02 
8.895000000000e+03 3.033293481218e-02 3.033293481218e-02 8.273224026808e-02 
8.945000000000e+03 2.965043026642e-02 2.965043026642e-02 7.995567675212e-02 
8.995000000000e+03 2.898780531992e-02 2.898780531992e-02 7.729038922853e-02 
9.045000000000e+03 2.834438060785e-02 2.834438060785e-02 7.473131991547e-02 
9.095000000000e+03 2.771950173531e-02 2.771950173531e-02 7.227366020749e-02 
9.145000000000e+03 2.711253843347e-02 2.711253843347e-02 6.991283812770e-02 
9.195000000000e+03 2.652288372639e-02 2.652288372639e-02 6.764450635366e-02 
9.245000000000e+03 2.594995311141e-02 2.594995311141e-02 6.546453080381e-02 
9.295000000000e+03 2.539318375536e-02 2.539318375536e-02 6.336897976639e-02 
9.345000000000e+03 2.485203370818e-02 2.485203370818e-02 6.135411355738e-02 
9.395000000000e+03 2.432598113572e-02 2.432598113572e-02 5.941637468586e-02 
9.420000000000e+03 2.406678479096e-02 2.406678479096e-02 5.847002125159e-02 
9.445000000000e+03 2.381130576819e-02 2.381130576819e-02 5.754146304323e-02 
9.495000000000e+03 2.331423014324e-02 2.331423014324e-02 5.574832714903e-02 
9.545000000000e+03 2.283069190833e-02 2.283069190833e-02 5.402300158359e-02 
9.595000000000e+03 2.236029862117e-02 2.236029862117e-02 5.236201800232e-02 
9.645000000000e+03 2.190264462510e-02 2.190264462510e-02 5.076269751995e-02 
9.695000000000e+03 2.145732630182e-02 2.145732630182e-02 4.922244167442e-02 
9.745000000000e+03 2.102394882851e-02 2.102394882851e-02 4.773875363232e-02 
9.795000000000e+03 2.060212902964e-02 2.060212902964e-02 4.630924469563e-02 
9.845000000000e+03 2.019149642548e-02 2.019149642548e-02 4.493163422670e-02 
9.895000000000e+03 1.979169344764e-02 1.979169344764e-02 4.360374668880e-02 
9.945000000000e+03 1.940237527255e-02 1.940237527255e-02 4.232350749792e-02 
9.995000000000e+03 1.902320948395e-02 1.902320948395e-02 4.108893846197e-02 
1.004500000000e+04 1.865387566376e-02 1.865387566376e-02 3.989815316407e-02 
1.009500000000e+04 1.829406495823e-02 1.829406495823e-02 3.874935244968e-02 
1.014500000000e+04 1.794347964143e-02 1.794347964143e-02 3.764082008547e-02 
1.019500000000e+04 1.760183268654e-02 1.760183268654e-02 3.657091861744e-02 
1.024500000000e+04 1.726884734954e-02 1.726884734954e-02 3.553808543315e-02 
1.029500000000e+04 1.694425676741e-02 1.694425676741e-02 3.454082902624e-02 
1.034500000000e+04 1.662780357138e-02 1.662780357138e-02 3.357772545566e-02 
1.039500000000e+04 1.631923951527e-02 1.631923951527e-02 3.264741499093e-02 
1.044500000000e+04 1.601832511877e-02 1.601832511877e-02 3.174859893465e-02 
1.049500000000e+04 1.572482932508e-02 1.572482932508e-02 3.088003661240e-02 
1.054500000000e+04 1.543852917253e-02 1.543852917253e-02 3.004054252180e-02 
1.059500000000e+04 1.515920947964e-02 1.515920947964e-02 2.922898363129e-02 
1.064500000000e+04 1.488666254308e-02 1.488666254308e-02 2.844427682134e-02 
1.069500000000e+04 1.462068784808e-02 1.462068784808e-02 2.768538645958e-02 
1.074500000000e+04 1.436109179072e-02 1.436109179072e-02 2.695132210293e-02 
1.077000000000e+04 1.423290897659e-02 1.423290897659e-02 2.659164221796e-02 
1.079500000000e+04 1.410630348498e-02 1.410630348498e-02 2.623762192318e-02 
