 TITLE = "Time curves in points"
 VARIABLES = "TIME "  "WDEPTH"  "HEAD"  "FLUX" 
 ZONE T="POINT=POINT5"
0.000000000000e+00 0.000000000000e+00 1.000000000000e-04 0.000000000000e+00 
5.000000000000e+00 1.154502365214e-04 1.154502365214e-04 1.942543376348e-05 
1.000000000000e+01 1.310051636283e-04 1.310051636283e-04 2.348091608755e-05 
2.000000000000e+01 1.625885453170e-04 1.625885453170e-04 3.245647128882e-05 
3.000000000000e+01 1.947154546535e-04 1.947154546535e-04 4.253977996713e-05 
5.000000000000e+01 2.615628979409e-04 2.615628979409e-04 6.615016663449e-05 
7.000000000000e+01 3.315454050585e-04 3.315454050585e-04 9.443585934616e-05 
9.500000000000e+01 4.248974738241e-04 4.248974738241e-04 1.371610273895e-04 
1.200000000000e+02 5.252260130696e-04 5.252260130696e-04 1.882520956022e-04 
1.450000000000e+02 6.336857106121e-04 6.336857106121e-04 2.495324811418e-04 
1.700000000000e+02 7.514986438177e-04 7.514986438177e-04 3.223123016223e-04 
1.950000000000e+02 8.799667302299e-04 8.799667302299e-04 4.084464224495e-04 
2.200000000000e+02 1.020482380506e-03 1.020482380506e-03 5.101333020092e-04 
2.450000000000e+02 1.174537884645e-03 1.174537884645e-03 6.299523764343e-04 
2.700000000000e+02 1.343733821798e-03 1.343733821798e-03 7.709090356068e-04 
2.950000000000e+02 1.529786648539e-03 1.529786648539e-03 9.364864015346e-04 
3.200000000000e+02 1.734535536925e-03 1.734535536925e-03 1.130703532212e-03 
3.450000000000e+02 1.959948477645e-03 1.959948477645e-03 1.358179855629e-03 
3.700000000000e+02 2.208127622421e-03 2.208127622421e-03 1.624205697665e-03 
3.950000000000e+02 2.481313806640e-03 2.481313806640e-03 1.934818750827e-03 
4.200000000000e+02 2.781890163608e-03 2.781890163608e-03 2.296886258956e-03 
4.450000000000e+02 3.112384713111e-03 3.112384713111e-03 2.718192574199e-03 
4.700000000000e+02 3.475471777122e-03 3.475471777122e-03 3.207531577562e-03 
4.950000000000e+02 3.873972043308e-03 3.873972043308e-03 3.774803241227e-03 
5.200000000000e+02 4.310851061738e-03 4.310851061738e-03 4.431113343637e-03 
5.450000000000e+02 4.789215921936e-03 4.789215921936e-03 5.188875022238e-03 
5.700000000000e+02 5.312309817166e-03 5.312309817166e-03 6.061910457836e-03 
5.950000000000e+02 5.883504162614e-03 5.883504162614e-03 7.065550525885e-03 
6.200000000000e+02 6.506287897471e-03 6.506287897471e-03 8.216729725267e-03 
6.450000000000e+02 7.184253572776e-03 7.184253572776e-03 9.534073112337e-03 
6.700000000000e+02 7.921079813786e-03 7.921079813786e-03 1.103797134590e-02 
6.950000000000e+02 8.720509755419e-03 8.720509755419e-03 1.275063931908e-02 
7.200000000000e+02 9.586325090597e-03 9.586325090597e-03 1.469615326226e-02 
7.450000000000e+02 1.052231545237e-02 1.052231545237e-02 1.690046071156e-02 
7.700000000000e+02 1.153224297852e-02 1.153224297852e-02 1.939135742449e-02 
7.950000000000e+02 1.261980208557e-02 1.261980208557e-02 2.219842527691e-02 
8.200000000000e+02 1.378857470578e-02 1.378857470578e-02 2.535292547760e-02 
8.450000000000e+02 1.504198150906e-02 1.504198150906e-02 2.888764216656e-02 
8.700000000000e+02 1.638322992436e-02 1.638322992436e-02 3.283667266440e-02 
8.950000000000e+02 1.781526007117e-02 1.781526007117e-02 3.723516232355e-02 
9.200000000000e+02 1.934068998201e-02 1.934068998201e-02 4.211898404569e-02 
9.450000000000e+02 2.096176171242e-02 2.096176171242e-02 4.752436497292e-02 
9.700000000000e+02 2.268029006822e-02 2.268029006822e-02 5.348746547416e-02 
9.950000000000e+02 2.449761571254e-02 2.449761571254e-02 6.004391814839e-02 
1.020000000000e+03 2.641456433905e-02 2.641456433905e-02 6.722833694955e-02 
1.045000000000e+03 2.843141341881e-02 2.843141341881e-02 7.507380853269e-02 
1.070000000000e+03 3.054786776383e-02 3.054786776383e-02 8.361137937801e-02 
1.095000000000e+03 3.276304482473e-02 3.276304482473e-02 9.286955311189e-02 
1.120000000000e+03 3.507547028089e-02 3.507547028089e-02 1.028738125927e-01 
1.145000000000e+03 3.748308411051e-02 3.748308411051e-02 1.136461809062e-01 
1.170000000000e+03 3.998325696289e-02 3.998325696289e-02 1.252048342333e-01 
1.195000000000e+03 4.257281630466e-02 4.257281630466e-02 1.375637778423e-01 
1.220000000000e+03 4.524808148184e-02 4.524808148184e-02 1.507325940685e-01 
1.245000000000e+03 4.800490653601e-02 4.800490653601e-02 1.647162683294e-01 
1.270000000000e+03 5.083872934692e-02 5.083872934692e-02 1.795150959477e-01 
1.295000000000e+03 5.374462545949e-02 5.374462545949e-02 1.951246690732e-01 
1.320000000000e+03 5.671736481095e-02 5.671736481095e-02 2.115359395972e-01 
1.345000000000e+03 5.975146952023e-02 5.975146952023e-02 2.287353507985e-01 
1.370000000000e+03 6.284127095094e-02 6.284127095094e-02 2.467050279063e-01 
1.395000000000e+03 6.598096441145e-02 6.598096441145e-02 2.654230160070e-01 
1.420000000000e+03 6.916466010257e-02 6.916466010257e-02 2.848635528588e-01 
1.445000000000e+03 7.238642924340e-02 7.238642924340e-02 3.049973642898e-01 
1.470000000000e+03 7.564034467028e-02 7.564034467028e-02 3.257919708171e-01 
1.495000000000e+03 7.892051558000e-02 7.892051558000e-02 3.472119957903e-01 
1.520000000000e+03 8.222111644565e-02 8.222111644565e-02 3.692194675102e-01 
1.545000000000e+03 8.553641044493e-02 8.553641044493e-02 3.917741101440e-01 
1.570000000000e+03 8.886076798765e-02 8.886076798765e-02 4.148336206187e-01 
1.595000000000e+03 9.218868110071e-02 9.218868110071e-02 4.383539308179e-01 
1.620000000000e+03 9.551477452292e-02 9.551477452292e-02 4.622894561849e-01 
1.645000000000e+03 9.883381438184e-02 9.883381438184e-02 4.865933331139e-01 
1.670000000000e+03 1.021407152814e-01 1.021407152814e-01 5.112176483133e-01 
1.695000000000e+03 1.054305465342e-01 1.054305465342e-01 5.361136636042e-01 
1.720000000000e+03 1.086985381416e-01 1.086985381416e-01 5.612320394064e-01 
1.745000000000e+03 1.119400869747e-01 1.119400869747e-01 5.865230596944e-01 
1.770000000000e+03 1.151507634496e-01 1.151507634496e-01 6.119368603296e-01 
1.795000000000e+03 1.183263188411e-01 1.183263188411e-01 6.374236617698e-01 
1.820000000000e+03 1.214626932402e-01 1.214626932402e-01 6.629340061245e-01 
1.845000000000e+03 1.245560240494e-01 1.245560240494e-01 6.884189975499e-01 
1.870000000000e+03 1.276026548190e-01 1.276026548190e-01 7.138305441501e-01 
1.895000000000e+03 1.305991441699e-01 1.305991441699e-01 7.391215988153e-01 
1.920000000000e+03 1.335422745125e-01 1.335422745125e-01 7.642463959942e-01 
1.945000000000e+03 1.364290602622e-01 1.364290602622e-01 7.891606810462e-01 
1.970000000000e+03 1.392567552612e-01 1.392567552612e-01 8.138219287838e-01 
1.995000000000e+03 1.420228591430e-01 1.420228591430e-01 8.381895478764e-01 
2.020000000000e+03 1.447251224125e-01 1.447251224125e-01 8.622250680509e-01 
2.045000000000e+03 1.473615500608e-01 1.473615500608e-01 8.858923073778e-01 
2.070000000000e+03 1.499304035796e-01 1.499304035796e-01 9.091575174108e-01 
2.095000000000e+03 1.524302012929e-01 1.524302012929e-01 9.319895044387e-01 
2.120000000000e+03 1.548597169686e-01 1.548597169686e-01 9.543597256660e-01 
2.170000000000e+03 1.594337068143e-01 1.594337068143e-01 9.969534173920e-01 
2.220000000000e+03 1.637196331798e-01 1.637196331798e-01 1.037422796501e+00 
2.270000000000e+03 1.677181449598e-01 1.677181449598e-01 1.075659233303e+00 
2.320000000000e+03 1.714330606675e-01 1.714330606675e-01 1.111594767842e+00 
2.370000000000e+03 1.748709118017e-01 1.748709118017e-01 1.145199050145e+00 
2.420000000000e+03 1.780404992151e-01 1.780404992151e-01 1.176475301811e+00 
2.470000000000e+03 1.809524592376e-01 1.809524592376e-01 1.205455925530e+00 
2.520000000000e+03 1.836188481815e-01 1.836188481815e-01 1.232197950586e+00 
2.570000000000e+03 1.860527545119e-01 1.860527545119e-01 1.256778501355e+00 
2.620000000000e+03 1.882679460142e-01 1.882679460142e-01 1.279290446785e+00 
2.670000000000e+03 1.902785568329e-01 1.902785568329e-01 1.299838352294e+00 
2.720000000000e+03 1.920988168734e-01 1.920988168734e-01 1.318534818544e+00 
2.770000000000e+03 1.937428239767e-01 1.937428239767e-01 1.335497257495e+00 
2.820000000000e+03 1.952243575790e-01 1.952243575790e-01 1.350845126730e+00 
2.870000000000e+03 1.965567312861e-01 1.965567312861e-01 1.364697619281e+00 
2.920000000000e+03 1.977526809108e-01 1.977526809108e-01 1.377171788166e+00 
2.970000000000e+03 1.988242839969e-01 1.988242839969e-01 1.388381072238e+00 
3.020000000000e+03 1.997829066294e-01 1.997829066294e-01 1.398434182157e+00 
3.070000000000e+03 2.006391733405e-01 2.006391733405e-01 1.407434301413e+00 
3.120000000000e+03 2.014029561079e-01 2.014029561079e-01 1.415478556547e+00 
3.170000000000e+03 2.020833787472e-01 2.020833787472e-01 1.422657712209e+00 
3.220000000000e+03 2.026888333722e-01 2.026888333722e-01 1.429056049713e+00 
3.270000000000e+03 2.032270060091e-01 2.032270060091e-01 1.434751391712e+00 
3.320000000000e+03 2.037049088615e-01 2.037049088615e-01 1.439815240074e+00 
3.370000000000e+03 2.041289171224e-01 2.041289171224e-01 1.444312998537e+00 
3.420000000000e+03 2.045048085977e-01 2.045048085977e-01 1.448304256207e+00 
3.470000000000e+03 2.048378047414e-01 2.048378047414e-01 1.451843111994e+00 
3.520000000000e+03 2.051326119922e-01 2.051326119922e-01 1.454978523865e+00 
3.570000000000e+03 2.053934625566e-01 2.053934625566e-01 1.457754670027e+00 
3.595000000000e+03 2.055158975064e-01 2.055158975064e-01 1.459058292770e+00 
3.620000000000e+03 2.056308163626e-01 2.056308163626e-01 1.460282261464e+00 
3.670000000000e+03 2.058339883692e-01 2.058339883692e-01 1.462447043412e+00 
3.720000000000e+03 2.060135252970e-01 2.060135252970e-01 1.464360868208e+00 
3.770000000000e+03 2.061721318357e-01 2.061721318357e-01 1.466052273504e+00 
3.820000000000e+03 2.063122179533e-01 2.063122179533e-01 1.467546715266e+00 
3.870000000000e+03 2.064359279846e-01 2.064359279846e-01 1.468866878516e+00 
3.920000000000e+03 2.065451674498e-01 2.065451674498e-01 1.470032949012e+00 
3.970000000000e+03 2.066416276436e-01 2.066416276436e-01 1.471062864290e+00 
4.020000000000e+03 2.067268080791e-01 2.067268080791e-01 1.471972544330e+00 
4.070000000000e+03 2.068020368961e-01 2.068020368961e-01 1.472776102442e+00 
4.120000000000e+03 2.068684893552e-01 2.068684893552e-01 1.473486037298e+00 
4.170000000000e+03 2.069272045458e-01 2.069272045458e-01 1.474113407104e+00 
4.220000000000e+03 2.069791004421e-01 2.069791004421e-01 1.474667987092e+00 
4.270000000000e+03 2.070249874340e-01 2.070249874340e-01 1.475158411482e+00 
4.320000000000e+03 2.070655808978e-01 2.070655808978e-01 1.475592123122e+00 
4.370000000000e+03 2.071015105201e-01 2.071015105201e-01 1.475976221872e+00 
4.420000000000e+03 2.071333319267e-01 2.071333319267e-01 1.476316430344e+00 
4.470000000000e+03 2.071615344017e-01 2.071615344017e-01 1.476617970004e+00 
4.495000000000e+03 2.071747880501e-01 2.071747880501e-01 1.476759764194e+00 
4.520000000000e+03 2.071872479091e-01 2.071872479091e-01 1.476892990881e+00 
4.570000000000e+03 2.072093700925e-01 2.072093700925e-01 1.477129474081e+00 
4.620000000000e+03 2.072290266437e-01 2.072290266437e-01 1.477339677468e+00 
4.670000000000e+03 2.072465097212e-01 2.072465097212e-01 1.477526646487e+00 
4.720000000000e+03 2.072620761912e-01 2.072620761912e-01 1.477693125368e+00 
4.770000000000e+03 2.072759518730e-01 2.072759518730e-01 1.477841527002e+00 
4.820000000000e+03 2.072883352713e-01 2.072883352713e-01 1.477973972699e+00 
4.870000000000e+03 2.072994008694e-01 2.072994008694e-01 1.478092327285e+00 
4.920000000000e+03 2.073093020351e-01 2.073093020351e-01 1.478198230073e+00 
4.970000000000e+03 2.073181735823e-01 2.073181735823e-01 1.478293122193e+00 
5.020000000000e+03 2.073261340283e-01 2.073261340283e-01 1.478378270666e+00 
5.070000000000e+03 2.073332875806e-01 2.073332875806e-01 1.478454789617e+00 
5.120000000000e+03 2.073397258853e-01 2.073397258853e-01 1.478523658932e+00 
5.170000000000e+03 2.073455295647e-01 2.073455295647e-01 1.478585740675e+00 
5.220000000000e+03 2.073507695671e-01 2.073507695671e-01 1.478641793515e+00 
5.270000000000e+03 2.073555083541e-01 2.073555083541e-01 1.478692485396e+00 
5.320000000000e+03 2.073598009416e-01 2.073598009416e-01 1.478738404662e+00 
5.357500000000e+03 2.073627904620e-01 2.073627904620e-01 1.478770392214e+00 
5.395000000000e+03 2.073655692257e-01 2.073655692257e-01 1.478800117593e+00 
5.445000000000e+03 2.069161649743e-01 2.069161649743e-01 1.473995393938e+00 
5.495000000000e+03 2.061590126362e-01 2.061590126362e-01 1.465912261786e+00 
5.545000000000e+03 2.050991976317e-01 2.050991976317e-01 1.454622913985e+00 
5.595000000000e+03 2.037494904836e-01 2.037494904836e-01 1.440287770532e+00 
5.645000000000e+03 2.021279199830e-01 2.021279199830e-01 1.423127892162e+00 
5.695000000000e+03 2.002558487735e-01 2.002558487735e-01 1.403402607059e+00 
5.745000000000e+03 1.981565383718e-01 1.981565383718e-01 1.381392428664e+00 
5.795000000000e+03 1.958541008562e-01 1.958541008562e-01 1.357386300042e+00 
5.845000000000e+03 1.933727358528e-01 1.933727358528e-01 1.331672150691e+00 
5.895000000000e+03 1.907361544568e-01 1.907361544568e-01 1.304529746983e+00 
5.945000000000e+03 1.879671705697e-01 1.879671705697e-01 1.276225619232e+00 
5.995000000000e+03 1.850874211112e-01 1.850874211112e-01 1.247009633360e+00 
6.045000000000e+03 1.821171836625e-01 1.821171836625e-01 1.217112830747e+00 
6.095000000000e+03 1.790752682292e-01 1.790752682292e-01 1.186746251900e+00 
6.145000000000e+03 1.759789654726e-01 1.759789654726e-01 1.156100515796e+00 
6.195000000000e+03 1.728440378105e-01 1.728440378105e-01 1.125345972852e+00 
6.245000000000e+03 1.696847427761e-01 1.696847427761e-01 1.094633284769e+00 
6.295000000000e+03 1.665138802523e-01 1.665138802523e-01 1.064094312761e+00 
6.345000000000e+03 1.633428569155e-01 1.633428569155e-01 1.033843218515e+00 
6.395000000000e+03 1.601817625633e-01 1.601817625633e-01 1.003977701178e+00 
6.445000000000e+03 1.570394540725e-01 1.570394540725e-01 9.745803093329e-01 
6.495000000000e+03 1.539236436027e-01 1.539236436027e-01 9.457197801649e-01 
6.545000000000e+03 1.508409800934e-01 1.508409800934e-01 9.174601706385e-01 
6.595000000000e+03 1.477971672361e-01 1.477971672361e-01 8.898312291205e-01 
6.645000000000e+03 1.447970159050e-01 1.447970159050e-01 8.628755093133e-01 
6.695000000000e+03 1.418445440762e-01 1.418445440762e-01 8.366193341694e-01 
6.720000000000e+03 1.403806308924e-01 1.403806308924e-01 8.236952034528e-01 
6.745000000000e+03 1.389294738474e-01 1.389294738474e-01 8.109560977340e-01 
6.795000000000e+03 1.360810300021e-01 1.360810300021e-01 7.861504985922e-01 
6.845000000000e+03 1.332884565856e-01 1.332884565856e-01 7.620759472069e-01 
6.895000000000e+03 1.305533091245e-01 1.305533091245e-01 7.387396134881e-01 
6.945000000000e+03 1.278767163849e-01 1.278767163849e-01 7.161382502444e-01 
6.995000000000e+03 1.252594232447e-01 1.252594232447e-01 6.942651168718e-01 
7.045000000000e+03 1.227018370889e-01 1.227018370889e-01 6.731105375779e-01 
7.095000000000e+03 1.202040716321e-01 1.202040716321e-01 6.526624129495e-01 
7.145000000000e+03 1.177659869267e-01 1.177659869267e-01 6.329066745414e-01 
7.195000000000e+03 1.153872254436e-01 1.153872254436e-01 6.138276839356e-01 
7.245000000000e+03 1.130672443989e-01 1.130672443989e-01 5.954085804379e-01 
7.295000000000e+03 1.108053445755e-01 1.108053445755e-01 5.776315821389e-01 
7.345000000000e+03 1.086006959151e-01 1.086006959151e-01 5.604782450875e-01 
7.395000000000e+03 1.064523601522e-01 1.064523601522e-01 5.439296850519e-01 
7.445000000000e+03 1.043593107625e-01 1.043593107625e-01 5.279667661191e-01 
7.495000000000e+03 1.023204504770e-01 1.023204504770e-01 5.125702599986e-01 
7.545000000000e+03 1.003346266080e-01 1.003346266080e-01 4.977209796127e-01 
7.595000000000e+03 9.840064440870e-02 9.840064440870e-02 4.833998901710e-01 
7.645000000000e+03 9.651727867607e-02 9.651727867607e-02 4.695882006502e-01 
7.695000000000e+03 9.468328378791e-02 9.468328378791e-02 4.562674382642e-01 
7.745000000000e+03 9.289740234831e-02 9.289740234831e-02 4.434195082325e-01 
7.795000000000e+03 9.115837259990e-02 9.115837259990e-02 4.310267409043e-01 
7.845000000000e+03 8.946493474604e-02 8.946493474604e-02 4.190719280299e-01 
7.895000000000e+03 8.781583631192e-02 8.781583631192e-02 4.075383497778e-01 
7.945000000000e+03 8.620983666025e-02 8.620983666025e-02 3.964097938856e-01 
7.995000000000e+03 8.464571076513e-02 8.464571076513e-02 3.856705681603e-01 
8.045000000000e+03 8.312225233662e-02 8.312225233662e-02 3.753055073818e-01 
8.070000000000e+03 8.237049088886e-02 8.237049088886e-02 3.702225554611e-01 
8.095000000000e+03 8.162855985572e-02 8.162855985572e-02 3.652318021542e-01 
8.145000000000e+03 8.018305793219e-02 8.018305793219e-02 3.555762529173e-01 
8.195000000000e+03 7.877475575018e-02 7.877475575018e-02 3.462496475102e-01 
8.245000000000e+03 7.740253346636e-02 7.740253346636e-02 3.372418189569e-01 
8.295000000000e+03 7.606530370185e-02 7.606530370185e-02 3.285401740136e-01 
8.345000000000e+03 7.476200902628e-02 7.476200902628e-02 3.201326290260e-01 
8.395000000000e+03 7.349162120837e-02 7.349162120837e-02 3.120075888694e-01 
8.445000000000e+03 7.225314097817e-02 7.225314097817e-02 3.041539301338e-01 
8.495000000000e+03 7.104559788074e-02 7.104559788074e-02 2.965609855114e-01 
8.545000000000e+03 6.986805008679e-02 6.986805008679e-02 2.892185284387e-01 
8.595000000000e+03 6.871958412397e-02 6.871958412397e-02 2.821167577497e-01 
8.645000000000e+03 6.759931452583e-02 6.759931452583e-02 2.752462823339e-01 
8.695000000000e+03 6.650638340665e-02 6.650638340665e-02 2.685981058566e-01 
8.745000000000e+03 6.543995997286e-02 6.543995997286e-02 2.621636116213e-01 
8.795000000000e+03 6.439923998222e-02 6.439923998222e-02 2.559345476383e-01 
8.845000000000e+03 6.338344516089e-02 6.338344516089e-02 2.499030119704e-01 
8.895000000000e+03 6.239182258753e-02 6.239182258753e-02 2.440614383958e-01 
8.945000000000e+03 6.142364405251e-02 6.142364405251e-02 2.384025824336e-01 
8.995000000000e+03 6.047820539908e-02 6.047820539908e-02 2.329195077621e-01 
9.045000000000e+03 5.955482585273e-02 5.955482585273e-02 2.276055730511e-01 
9.095000000000e+03 5.865284734369e-02 5.865284734369e-02 2.224544192256e-01 
9.145000000000e+03 5.777163382725e-02 5.777163382725e-02 2.174599571706e-01 
9.195000000000e+03 5.691057060542e-02 5.691057060542e-02 2.126163558816e-01 
9.245000000000e+03 5.606906365331e-02 5.606906365331e-02 2.079180310630e-01 
9.295000000000e+03 5.524653895276e-02 5.524653895276e-02 2.033596341718e-01 
9.345000000000e+03 5.444244183543e-02 5.444244183543e-02 1.989360419022e-01 
9.395000000000e+03 5.365623633729e-02 5.365623633729e-02 1.946423461030e-01 
9.420000000000e+03 5.326752346873e-02 5.326752346873e-02 1.925301477644e-01 
9.445000000000e+03 5.288313839850e-02 5.288313839850e-02 1.904499273258e-01 
9.495000000000e+03 5.213124961361e-02 5.213124961361e-02 1.864035220825e-01 
9.545000000000e+03 5.139575394621e-02 5.139575394621e-02 1.824726243132e-01 
9.595000000000e+03 5.067618180485e-02 5.067618180485e-02 1.786539534723e-01 
9.645000000000e+03 4.997208039028e-02 4.997208039028e-02 1.749435342767e-01 
9.695000000000e+03 4.928301257394e-02 4.928301257394e-02 1.713375576596e-01 
9.745000000000e+03 4.860855609230e-02 4.860855609230e-02 1.678323718979e-01 
9.795000000000e+03 4.794830289619e-02 4.794830289619e-02 1.644244748682e-01 
9.845000000000e+03 4.730185858140e-02 4.730185858140e-02 1.611105069938e-01 
9.895000000000e+03 4.666884186679e-02 4.666884186679e-02 1.578872446776e-01 
9.945000000000e+03 4.604888410370e-02 4.604888410370e-02 1.547515941172e-01 
9.995000000000e+03 4.544162880913e-02 4.544162880913e-02 1.517005854474e-01 
1.004500000000e+04 4.484673121877e-02 4.484673121877e-02 1.487313671774e-01 
1.009500000000e+04 4.426385785764e-02 4.426385785764e-02 1.458412009001e-01 
1.014500000000e+04 4.369268612733e-02 4.369268612733e-02 1.430274562580e-01 
1.019500000000e+04 4.313290390880e-02 4.313290390880e-02 1.402876061492e-01 
1.024500000000e+04 4.258420918016e-02 4.258420918016e-02 1.376192221638e-01 
1.029500000000e+04 4.204630964886e-02 4.204630964886e-02 1.350199702369e-01 
1.034500000000e+04 4.151892239780e-02 4.151892239780e-02 1.324876065085e-01 
1.039500000000e+04 4.100177354478e-02 4.100177354478e-02 1.300199733800e-01 
1.044500000000e+04 4.049459791504e-02 4.049459791504e-02 1.276149957582e-01 
1.049500000000e+04 3.999713872608e-02 3.999713872608e-02 1.252706774759e-01 
1.054500000000e+04 3.950914728478e-02 3.950914728478e-02 1.229850978827e-01 
1.059500000000e+04 3.903038269593e-02 3.903038269593e-02 1.207564085956e-01 
1.064500000000e+04 3.856061158207e-02 3.856061158207e-02 1.185828304032e-01 
1.069500000000e+04 3.809960781408e-02 3.809960781408e-02 1.164626503150e-01 
1.074500000000e+04 3.764715225214e-02 3.764715225214e-02 1.143942187481e-01 
1.077000000000e+04 3.742302836098e-02 3.742302836098e-02 1.133739191531e-01 
1.079500000000e+04 3.720098250824e-02 3.720098250824e-02 1.123663772138e-01 
