 TITLE = "Time curves in points"
 VARIABLES = "TIME "  "WDEPTH"  "HEAD"  "FLUX" 
 ZONE T="POINT=POINT5"
0.000000000000e+00 0.000000000000e+00 1.000000000000e-04 0.000000000000e+00 
5.000000000000e+00 1.153751839217e-04 1.153751839217e-04 1.940673874568e-05 
1.000000000000e+01 1.308329044055e-04 1.308329044055e-04 2.343486824914e-05 
2.000000000000e+01 1.621218074153e-04 1.621218074153e-04 3.231895128041e-05 
3.000000000000e+01 1.938395486928e-04 1.938395486928e-04 4.225526964932e-05 
5.000000000000e+01 2.593228728023e-04 2.593228728023e-04 6.532164385817e-05 
7.000000000000e+01 3.272835087041e-04 3.272835087041e-04 9.264120989079e-05 
9.500000000000e+01 4.168806665162e-04 4.168806665162e-04 1.332975410435e-04 
1.200000000000e+02 5.120024989849e-04 5.120024989849e-04 1.812329807452e-04 
1.450000000000e+02 6.135711195617e-04 6.135711195617e-04 2.377941136010e-04 
1.700000000000e+02 7.225649356508e-04 7.225649356508e-04 3.039290192016e-04 
1.950000000000e+02 8.400290187521e-04 8.400290187521e-04 3.810112974238e-04 
2.200000000000e+02 9.670841438102e-04 9.670841438102e-04 4.706774690017e-04 
2.450000000000e+02 1.104934928146e-03 1.104934928146e-03 5.748525477475e-04 
2.700000000000e+02 1.254877310975e-03 1.254877310975e-03 6.957821356088e-04 
2.950000000000e+02 1.418305508453e-03 1.418305508453e-03 8.360702794884e-04 
3.200000000000e+02 1.596718514149e-03 1.596718514149e-03 9.987227651225e-04 
3.450000000000e+02 1.791726171453e-03 1.791726171453e-03 1.187195737580e-03 
3.700000000000e+02 2.005054812826e-03 2.005054812826e-03 1.405449637519e-03 
3.950000000000e+02 2.238552435248e-03 2.238552435248e-03 1.658008474400e-03 
4.200000000000e+02 2.494193358353e-03 2.494193358353e-03 1.950024444022e-03 
4.450000000000e+02 2.774082289178e-03 2.774082289178e-03 2.287347847078e-03 
4.700000000000e+02 3.080457693512e-03 3.080457693512e-03 2.676602180249e-03 
4.950000000000e+02 3.415694347252e-03 3.415694347252e-03 3.125264150155e-03 
5.200000000000e+02 3.782304911196e-03 3.782304911196e-03 3.641748199201e-03 
5.450000000000e+02 4.182940338883e-03 4.182940338883e-03 4.235494925472e-03 
5.700000000000e+02 4.620388889820e-03 4.620388889820e-03 4.917062520234e-03 
5.950000000000e+02 5.097573480632e-03 5.097573480632e-03 5.698220030704e-03 
6.200000000000e+02 5.617547066439e-03 5.617547066439e-03 6.592040878493e-03 
6.450000000000e+02 6.183485707161e-03 6.183485707161e-03 7.612994625503e-03 
6.700000000000e+02 6.798678942773e-03 6.798678942773e-03 8.777034483641e-03 
6.950000000000e+02 7.466517083288e-03 7.466517083288e-03 1.010167752558e-02 
7.200000000000e+02 8.190475019748e-03 8.190475019748e-03 1.160607399311e-02 
7.450000000000e+02 8.974092188831e-03 8.974092188831e-03 1.331106155161e-02 
7.700000000000e+02 9.820948382621e-03 9.820948382621e-03 1.523919984984e-02 
7.950000000000e+02 1.073463519267e-02 1.073463519267e-02 1.741478037291e-02 
8.200000000000e+02 1.171872301750e-02 1.171872301750e-02 1.986380638989e-02 
8.450000000000e+02 1.277672374588e-02 1.277672374588e-02 2.261393787032e-02 
8.700000000000e+02 1.391204945058e-02 1.391204945058e-02 2.569439664358e-02 
8.950000000000e+02 1.512796767994e-02 1.512796767994e-02 2.913582786033e-02 
9.200000000000e+02 1.642755420144e-02 1.642755420144e-02 3.297011501358e-02 
9.450000000000e+02 1.781364431261e-02 1.781364431261e-02 3.723014738291e-02 
9.700000000000e+02 1.928878406320e-02 1.928878406320e-02 4.194954072064e-02 
9.950000000000e+02 2.085518290218e-02 2.085518290218e-02 4.716231419349e-02 
1.020000000000e+03 2.251466934693e-02 2.251466934693e-02 5.290252886552e-02 
1.045000000000e+03 2.426865124973e-02 2.426865124973e-02 5.920389516006e-02 
1.070000000000e+03 2.611808209853e-02 2.611808209853e-02 6.609935855551e-02 
1.095000000000e+03 2.806343453816e-02 2.806343453816e-02 7.362067406081e-02 
1.120000000000e+03 3.010468195273e-02 3.010468195273e-02 8.179798063696e-02 
1.145000000000e+03 3.224128854316e-02 3.224128854316e-02 9.065938662152e-02 
1.170000000000e+03 3.447220790642e-02 3.447220790642e-02 1.002305764043e-01 
1.195000000000e+03 3.679588972029e-02 3.679588972029e-02 1.105344472409e-01 
1.220000000000e+03 3.921029379938e-02 3.921029379938e-02 1.215907832876e-01 
1.245000000000e+03 4.171291054180e-02 4.171291054180e-02 1.334159720816e-01 
1.270000000000e+03 4.430078664498e-02 4.430078664498e-02 1.460227667437e-01 
1.295000000000e+03 4.697055492743e-02 4.697055492743e-02 1.594200955238e-01 
1.320000000000e+03 4.971846713451e-02 4.971846713451e-02 1.736129188494e-01 
1.345000000000e+03 5.254042870420e-02 5.254042870420e-02 1.886021329485e-01 
1.370000000000e+03 5.543203459755e-02 5.543203459755e-02 2.043845181997e-01 
1.395000000000e+03 5.838860543657e-02 5.838860543657e-02 2.209527297366e-01 
1.420000000000e+03 6.140522332583e-02 6.140522332583e-02 2.382953273136e-01 
1.445000000000e+03 6.447676685735e-02 6.447676685735e-02 2.563968411534e-01 
1.470000000000e+03 6.759794491303e-02 6.759794491303e-02 2.752378702295e-01 
1.495000000000e+03 7.076332898648e-02 7.076332898648e-02 2.947952094862e-01 
1.520000000000e+03 7.396738385168e-02 7.396738385168e-02 3.150420026051e-01 
1.545000000000e+03 7.720449650774e-02 7.720449650774e-02 3.359479172657e-01 
1.570000000000e+03 8.046900342528e-02 8.046900342528e-02 3.574793402930e-01 
1.595000000000e+03 8.375521620416e-02 8.375521620416e-02 3.795995906285e-01 
1.620000000000e+03 8.705744581757e-02 8.705744581757e-02 4.022691485919e-01 
1.645000000000e+03 9.037002565887e-02 9.037002565887e-02 4.254459003608e-01 
1.670000000000e+03 9.368733362049e-02 9.368733362049e-02 4.490853969161e-01 
1.695000000000e+03 9.700381342005e-02 9.700381342005e-02 4.731411268326e-01 
1.720000000000e+03 1.003139953499e-01 1.003139953499e-01 4.975648022209e-01 
1.745000000000e+03 1.036125165692e-01 1.036125165692e-01 5.223066568764e-01 
1.770000000000e+03 1.068941409901e-01 1.068941409901e-01 5.473157552780e-01 
1.795000000000e+03 1.101537787382e-01 1.101537787382e-01 5.725403105854e-01 
1.820000000000e+03 1.133865051020e-01 1.133865051020e-01 5.979280092479e-01 
1.845000000000e+03 1.165875788307e-01 1.165875788307e-01 6.234263393189e-01 
1.870000000000e+03 1.197524595944e-01 1.197524595944e-01 6.489829191611e-01 
1.895000000000e+03 1.228768243993e-01 1.228768243993e-01 6.745458228748e-01 
1.920000000000e+03 1.259565827374e-01 1.259565827374e-01 7.000638986293e-01 
1.945000000000e+03 1.289878902567e-01 1.289878902567e-01 7.254870760335e-01 
1.970000000000e+03 1.319671607552e-01 1.319671607552e-01 7.507666587791e-01 
1.995000000000e+03 1.348910763314e-01 1.348910763314e-01 7.758555990551e-01 
2.020000000000e+03 1.377565955566e-01 1.377565955566e-01 8.007087505636e-01 
2.045000000000e+03 1.405609595778e-01 1.405609595778e-01 8.252830974166e-01 
2.070000000000e+03 1.433016960968e-01 1.433016960968e-01 8.495379566931e-01 
2.095000000000e+03 1.459766212151e-01 1.459766212151e-01 8.734351529779e-01 
2.120000000000e+03 1.485838391723e-01 1.485838391723e-01 8.969391637633e-01 
2.170000000000e+03 1.535190875445e-01 1.535190875445e-01 9.419943344626e-01 
2.220000000000e+03 1.581677703017e-01 1.581677703017e-01 9.851031328432e-01 
2.270000000000e+03 1.625266947597e-01 1.625266947597e-01 1.026104890550e+00 
2.320000000000e+03 1.665963724710e-01 1.665963724710e-01 1.064885721496e+00 
2.370000000000e+03 1.703805437685e-01 1.703805437685e-01 1.101373652137e+00 
2.420000000000e+03 1.738857064792e-01 1.738857064792e-01 1.135534932265e+00 
2.470000000000e+03 1.771206493860e-01 1.771206493860e-01 1.167369805882e+00 
2.520000000000e+03 1.800960002999e-01 1.800960002999e-01 1.196907955951e+00 
2.570000000000e+03 1.828237992660e-01 1.828237992660e-01 1.224203837700e+00 
2.620000000000e+03 1.853171054721e-01 1.853171054721e-01 1.249332087230e+00 
2.670000000000e+03 1.875896438330e-01 1.875896438330e-01 1.272383154378e+00 
2.720000000000e+03 1.896554946665e-01 1.896554946665e-01 1.293459269397e+00 
2.770000000000e+03 1.915288276250e-01 1.915288276250e-01 1.312670815823e+00 
2.820000000000e+03 1.932236791877e-01 1.932236791877e-01 1.330133149235e+00 
2.870000000000e+03 1.947537715922e-01 1.947537715922e-01 1.345963874423e+00 
2.920000000000e+03 1.961323700665e-01 1.961323700665e-01 1.360280572162e+00 
2.970000000000e+03 1.973721745725e-01 1.973721745725e-01 1.373198951158e+00 
3.020000000000e+03 1.984852419423e-01 1.984852419423e-01 1.384831390102e+00 
3.070000000000e+03 1.994829342014e-01 1.994829342014e-01 1.395285828543e+00 
3.120000000000e+03 2.003758889833e-01 2.003758889833e-01 1.404664962471e+00 
3.170000000000e+03 2.011740081826e-01 2.011740081826e-01 1.413065700406e+00 
3.220000000000e+03 2.018864613235e-01 2.018864613235e-01 1.420578837560e+00 
3.270000000000e+03 2.025217005012e-01 2.025217005012e-01 1.427288908741e+00 
3.320000000000e+03 2.030874841470e-01 2.030874841470e-01 1.433274184492e+00 
3.370000000000e+03 2.035909072643e-01 2.035909072643e-01 1.438606779159e+00 
3.420000000000e+03 2.040384361546e-01 2.040384361546e-01 1.443352843857e+00 
3.470000000000e+03 2.044359459928e-01 2.044359459928e-01 1.447572821398e+00 
3.520000000000e+03 2.047887599246e-01 2.047887599246e-01 1.451321744068e+00 
3.570000000000e+03 2.051016886246e-01 2.051016886246e-01 1.454649558626e+00 
3.595000000000e+03 2.052487496451e-01 2.052487496451e-01 1.456214304093e+00 
3.620000000000e+03 2.053869493211e-01 2.053869493211e-01 1.457685314971e+00 
3.670000000000e+03 2.056318061044e-01 2.056318061044e-01 1.460292843439e+00 
3.720000000000e+03 2.058486142400e-01 2.058486142400e-01 1.462602939045e+00 
3.770000000000e+03 2.060405054468e-01 2.060405054468e-01 1.464648559311e+00 
3.820000000000e+03 2.062102818732e-01 2.062102818732e-01 1.466459223494e+00 
3.870000000000e+03 2.063604469122e-01 2.063604469122e-01 1.468061353701e+00 
3.920000000000e+03 2.064932338815e-01 2.064932338815e-01 1.469478560746e+00 
3.970000000000e+03 2.066106325502e-01 2.066106325502e-01 1.470731911309e+00 
4.020000000000e+03 2.067144135502e-01 2.067144135502e-01 1.471840175924e+00 
4.070000000000e+03 2.068061507407e-01 2.068061507407e-01 1.472820057838e+00 
4.120000000000e+03 2.068872416196e-01 2.068872416196e-01 1.473686403187e+00 
4.170000000000e+03 2.069589258890e-01 2.069589258890e-01 1.474452393150e+00 
4.220000000000e+03 2.070223022881e-01 2.070223022881e-01 1.475129718968e+00 
4.270000000000e+03 2.070783438149e-01 2.070783438149e-01 1.475728740810e+00 
4.320000000000e+03 2.071279123471e-01 2.071279123471e-01 1.476258593207e+00 
4.370000000000e+03 2.071717678411e-01 2.071717678411e-01 1.476727476804e+00 
4.420000000000e+03 2.072105833676e-01 2.072105833676e-01 1.477142516677e+00 
4.470000000000e+03 2.072449531627e-01 2.072449531627e-01 1.477510052524e+00 
4.495000000000e+03 2.072610960232e-01 2.072610960232e-01 1.477682708427e+00 
4.520000000000e+03 2.072762625012e-01 2.072762625012e-01 1.477844907433e+00 
4.570000000000e+03 2.073031509711e-01 2.073031509711e-01 1.478132464553e+00 
4.620000000000e+03 2.073270008808e-01 2.073270008808e-01 1.478387559192e+00 
4.670000000000e+03 2.073481705648e-01 2.073481705648e-01 1.478613998890e+00 
4.720000000000e+03 2.073669757198e-01 2.073669757198e-01 1.478815156338e+00 
4.770000000000e+03 2.073836944312e-01 2.073836944312e-01 1.478994002938e+00 
4.820000000000e+03 2.073985715998e-01 2.073985715998e-01 1.479153155931e+00 
4.870000000000e+03 2.074118228605e-01 2.074118228605e-01 1.479294920123e+00 
4.920000000000e+03 2.074236380509e-01 2.074236380509e-01 1.479421324843e+00 
4.970000000000e+03 2.074341842807e-01 2.074341842807e-01 1.479534156667e+00 
5.020000000000e+03 2.074436086459e-01 2.074436086459e-01 1.479634988355e+00 
5.070000000000e+03 2.074520406251e-01 2.074520406251e-01 1.479725204429e+00 
5.120000000000e+03 2.074595941963e-01 2.074595941963e-01 1.479806023751e+00 
5.170000000000e+03 2.074663697028e-01 2.074663697028e-01 1.479878519454e+00 
5.220000000000e+03 2.074724554989e-01 2.074724554989e-01 1.479943636508e+00 
5.270000000000e+03 2.074779293986e-01 2.074779293986e-01 1.480002207202e+00 
5.320000000000e+03 2.074828599525e-01 2.074828599525e-01 1.480054964776e+00 
5.357500000000e+03 2.074862784786e-01 2.074862784786e-01 1.480091546679e+00 
5.395000000000e+03 2.074894415014e-01 2.074894415014e-01 1.480125391931e+00 
5.445000000000e+03 2.070908763518e-01 2.070908763518e-01 1.475862682786e+00 
5.495000000000e+03 2.064256872978e-01 2.064256872978e-01 1.468757529740e+00 
5.545000000000e+03 2.054898526094e-01 2.054898526094e-01 1.458780872625e+00 
5.595000000000e+03 2.042876920891e-01 2.042876920891e-01 1.445998305814e+00 
5.645000000000e+03 2.028297489608e-01 2.028297489608e-01 1.430546413150e+00 
5.695000000000e+03 2.011309811896e-01 2.011309811896e-01 1.412612107409e+00 
5.745000000000e+03 1.992093208250e-01 1.992093208250e-01 1.392415797255e+00 
5.795000000000e+03 1.970845521551e-01 1.970845521551e-01 1.370198007199e+00 
5.845000000000e+03 1.947774444563e-01 1.947774444563e-01 1.346208862440e+00 
5.895000000000e+03 1.923090644084e-01 1.923090644084e-01 1.320699701586e+00 
5.945000000000e+03 1.897002535294e-01 1.897002535294e-01 1.293916682538e+00 
5.995000000000e+03 1.869712222105e-01 1.869712222105e-01 1.266088487854e+00 
6.045000000000e+03 1.841413317668e-01 1.841413317668e-01 1.237454608533e+00 
6.095000000000e+03 1.812288251158e-01 1.812288251158e-01 1.208213636493e+00 
6.145000000000e+03 1.782507336861e-01 1.782507336861e-01 1.178556147957e+00 
6.195000000000e+03 1.752228021454e-01 1.752228021454e-01 1.148655207667e+00 
6.245000000000e+03 1.721594574553e-01 1.721594574553e-01 1.118666258047e+00 
6.295000000000e+03 1.690738111623e-01 1.690738111623e-01 1.088727436280e+00 
6.345000000000e+03 1.659776867728e-01 1.659776867728e-01 1.058960206660e+00 
6.395000000000e+03 1.628816657203e-01 1.628816657203e-01 1.029470217735e+00 
6.445000000000e+03 1.597951466619e-01 1.597951466619e-01 1.000348310691e+00 
6.495000000000e+03 1.567264138314e-01 1.567264138314e-01 9.716716196147e-01 
6.545000000000e+03 1.536827110060e-01 1.536827110060e-01 9.435047165445e-01 
6.595000000000e+03 1.506703183461e-01 1.506703183461e-01 9.159007645189e-01 
6.645000000000e+03 1.476946299479e-01 1.476946299479e-01 8.889026506522e-01 
6.695000000000e+03 1.447602304481e-01 1.447602304481e-01 8.625440785575e-01 
6.720000000000e+03 1.433038393348e-01 1.433038393348e-01 8.495560674748e-01 
6.745000000000e+03 1.418587516713e-01 1.418587516713e-01 8.367380541984e-01 
6.795000000000e+03 1.390171107603e-01 1.390171107603e-01 8.117274635569e-01 
6.845000000000e+03 1.362265154190e-01 1.362265154190e-01 7.874092287813e-01 
6.895000000000e+03 1.334889896124e-01 1.334889896124e-01 7.637942016038e-01 
6.945000000000e+03 1.308060992834e-01 1.308060992834e-01 7.408841786768e-01 
6.995000000000e+03 1.281789968463e-01 1.281789968463e-01 7.186770089528e-01 
7.045000000000e+03 1.256084680600e-01 1.256084680600e-01 6.971671735392e-01 
7.095000000000e+03 1.230949765734e-01 1.230949765734e-01 6.763463208397e-01 
7.145000000000e+03 1.206387049468e-01 1.206387049468e-01 6.562037468467e-01 
7.195000000000e+03 1.182395919447e-01 1.182395919447e-01 6.367268209421e-01 
7.245000000000e+03 1.158973662007e-01 1.158973662007e-01 6.179013604843e-01 
7.295000000000e+03 1.136115764509e-01 1.136115764509e-01 5.997119583728e-01 
7.345000000000e+03 1.113816185713e-01 1.113816185713e-01 5.821422678756e-01 
7.395000000000e+03 1.092067596635e-01 1.092067596635e-01 5.651752489726e-01 
7.445000000000e+03 1.070861594344e-01 1.070861594344e-01 5.487933802375e-01 
7.495000000000e+03 1.050188891077e-01 1.050188891077e-01 5.329788400279e-01 
7.545000000000e+03 1.030039480966e-01 1.030039480966e-01 5.177136604948e-01 
7.595000000000e+03 1.010402786522e-01 1.010402786522e-01 5.029798575918e-01 
7.645000000000e+03 9.912677869004e-02 9.912677869004e-02 4.887595400227e-01 
7.695000000000e+03 9.726231298225e-02 9.726231298225e-02 4.750349997441e-01 
7.745000000000e+03 9.544572288710e-02 9.544572288710e-02 4.617887863964e-01 
7.795000000000e+03 9.367583477431e-02 9.367583477431e-02 4.490037677740e-01 
7.845000000000e+03 9.195146729013e-02 9.195146729013e-02 4.366631782219e-01 
7.895000000000e+03 9.027143759287e-02 9.027143759287e-02 4.247506566239e-01 
7.945000000000e+03 8.863456667707e-02 8.863456667707e-02 4.132502754514e-01 
7.995000000000e+03 8.703968389272e-02 8.703968389272e-02 4.021465621822e-01 
8.045000000000e+03 8.548563075533e-02 8.548563075533e-02 3.914245142108e-01 
8.070000000000e+03 8.471862158103e-02 8.471862158103e-02 3.861655663476e-01 
8.095000000000e+03 8.396149572510e-02 8.396149572510e-02 3.810004324014e-01 
8.145000000000e+03 8.248583912025e-02 8.248583912025e-02 3.710029067933e-01 
8.195000000000e+03 8.104765362520e-02 8.104765362520e-02 3.613423104238e-01 
8.245000000000e+03 7.964584782425e-02 7.964584782425e-02 3.520082067169e-01 
8.295000000000e+03 7.827935787554e-02 7.827935787554e-02 3.429879739209e-01 
8.345000000000e+03 7.694714619153e-02 7.694714619153e-02 3.342694747484e-01 
8.395000000000e+03 7.564820121979e-02 7.564820121979e-02 3.258410400181e-01 
8.445000000000e+03 7.438153755293e-02 7.438153755293e-02 3.176914550995e-01 
8.495000000000e+03 7.314619607392e-02 7.314619607392e-02 3.098099470268e-01 
8.545000000000e+03 7.194124403121e-02 7.194124403121e-02 3.021861715476e-01 
8.595000000000e+03 7.076577501263e-02 7.076577501263e-02 2.948101999272e-01 
8.645000000000e+03 6.961890881595e-02 6.961890881595e-02 2.876725055009e-01 
8.695000000000e+03 6.849979122490e-02 6.849979122490e-02 2.807639500687e-01 
8.745000000000e+03 6.740759370264e-02 6.740759370264e-02 2.740757702180e-01 
8.795000000000e+03 6.634151301504e-02 6.634151301504e-02 2.675995636724e-01 
8.845000000000e+03 6.530077079557e-02 6.530077079557e-02 2.613272757426e-01 
8.895000000000e+03 6.428461306247e-02 6.428461306247e-02 2.552511859508e-01 
8.945000000000e+03 6.329230969746e-02 6.329230969746e-02 2.493638948863e-01 
8.995000000000e+03 6.232315389437e-02 6.232315389437e-02 2.436583113349e-01 
9.045000000000e+03 6.137646158487e-02 6.137646158487e-02 2.381276397223e-01 
9.095000000000e+03 6.045157084755e-02 6.045157084755e-02 2.327653678971e-01 
9.145000000000e+03 5.954784130572e-02 5.954784130572e-02 2.275652552753e-01 
9.195000000000e+03 5.866465351859e-02 5.866465351859e-02 2.225213213608e-01 
9.245000000000e+03 5.780140836979e-02 5.780140836979e-02 2.176278346526e-01 
9.295000000000e+03 5.695752645655e-02 5.695752645655e-02 2.128793019426e-01 
9.345000000000e+03 5.613244748251e-02 5.613244748251e-02 2.082704580068e-01 
9.395000000000e+03 5.532562965639e-02 5.532562965639e-02 2.037962556892e-01 
9.420000000000e+03 5.492670316183e-02 5.492670316183e-02 2.015952002579e-01 
9.445000000000e+03 5.453219578134e-02 5.453219578134e-02 1.994271866760e-01 
9.495000000000e+03 5.376041790972e-02 5.376041790972e-02 1.952093020845e-01 
9.545000000000e+03 5.300538368038e-02 5.300538368038e-02 1.911113496576e-01 
9.595000000000e+03 5.226661766913e-02 5.226661766913e-02 1.871298429754e-01 
9.645000000000e+03 5.154366090728e-02 5.154366090728e-02 1.832606844167e-01 
9.695000000000e+03 5.083606997675e-02 5.083606997675e-02 1.794999453438e-01 
9.745000000000e+03 5.014341629410e-02 5.014341629410e-02 1.758438576057e-01 
9.795000000000e+03 4.946528549977e-02 4.946528549977e-02 1.722888058952e-01 
9.845000000000e+03 4.880127690960e-02 4.880127690960e-02 1.688313206969e-01 
9.895000000000e+03 4.815100300641e-02 4.815100300641e-02 1.654680716822e-01 
9.945000000000e+03 4.751408895990e-02 4.751408895990e-02 1.621958614730e-01 
9.995000000000e+03 4.689017216878e-02 4.689017216878e-02 1.590116197273e-01 
1.004500000000e+04 4.627890182153e-02 4.627890182153e-02 1.559123975148e-01 
1.009500000000e+04 4.567993847398e-02 4.567993847398e-02 1.528953619638e-01 
1.014500000000e+04 4.509295364251e-02 4.509295364251e-02 1.499577911599e-01 
1.019500000000e+04 4.451762941185e-02 4.451762941185e-02 1.470970692850e-01 
1.024500000000e+04 4.395365805720e-02 4.395365805720e-02 1.443106819836e-01 
1.029500000000e+04 4.340074167987e-02 4.340074167987e-02 1.415962119450e-01 
1.034500000000e+04 4.285859185618e-02 4.285859185618e-02 1.389513346912e-01 
1.039500000000e+04 4.232692929918e-02 4.232692929918e-02 1.363738145618e-01 
1.044500000000e+04 4.180548353269e-02 4.180548353269e-02 1.338615008846e-01 
1.049500000000e+04 4.129399257738e-02 4.129399257738e-02 1.314123243251e-01 
1.054500000000e+04 4.079220264848e-02 4.079220264848e-02 1.290242934048e-01 
1.059500000000e+04 4.029986786469e-02 4.029986786469e-02 1.266954911816e-01 
1.064500000000e+04 3.981674996795e-02 3.981674996795e-02 1.244240720836e-01 
1.069500000000e+04 3.934261805373e-02 3.934261805373e-02 1.222082588894e-01 
1.074500000000e+04 3.887724831141e-02 3.887724831141e-02 1.200463398476e-01 
1.077000000000e+04 3.864672047308e-02 3.864672047308e-02 1.189799204772e-01 
1.079500000000e+04 3.841832312408e-02 3.841832312408e-02 1.179267447735e-01 
