VARIABLES  = "X","Y","Z", "HEAD", "WDEPTH", "FLUX"
ZONE T="0.000000000000e+00s", N=110, E=90, F=FEPOINT, ET=QUADRILATERAL
STRANDID=1, SOLUTIONTIME=0.000000000000e+00
0.000000000000e+00 0.000000000000e+00 4.000000000000e+01 4.000010000000e+01 0.000000000000e+00 0.000000000000e+00 
1.000000000000e+02 0.000000000000e+00 3.500000000000e+01 3.500010000000e+01 0.000000000000e+00 0.000000000000e+00 
2.000000000000e+02 0.000000000000e+00 3.000000000000e+01 3.000010000000e+01 0.000000000000e+00 0.000000000000e+00 
3.000000000000e+02 0.000000000000e+00 2.500000000000e+01 2.500010000000e+01 0.000000000000e+00 0.000000000000e+00 
4.000000000000e+02 0.000000000000e+00 2.000000000000e+01 2.000010000000e+01 0.000000000000e+00 0.000000000000e+00 
5.000000000000e+02 0.000000000000e+00 1.500000000000e+01 1.500010000000e+01 0.000000000000e+00 0.000000000000e+00 
6.000000000000e+02 0.000000000000e+00 1.000000000000e+01 1.000010000000e+01 0.000000000000e+00 0.000000000000e+00 
7.000000000000e+02 0.000000000000e+00 5.000000000000e+00 5.000100000000e+00 0.000000000000e+00 0.000000000000e+00 
8.000000000000e+02 0.000000000000e+00 0.000000000000e+00 1.000000000000e-04 0.000000000000e+00 0.000000000000e+00 
8.100000000000e+02 0.000000000000e+00 0.000000000000e+00 1.000000000000e-04 0.000000000000e+00 0.000000000000e+00 
0.000000000000e+00 1.000000000000e+02 4.200000000000e+01 4.200010000000e+01 0.000000000000e+00 0.000000000000e+00 
1.000000000000e+02 1.000000000000e+02 3.700000000000e+01 3.700010000000e+01 0.000000000000e+00 0.000000000000e+00 
2.000000000000e+02 1.000000000000e+02 3.200000000000e+01 3.200010000000e+01 0.000000000000e+00 0.000000000000e+00 
3.000000000000e+02 1.000000000000e+02 2.700000000000e+01 2.700010000000e+01 0.000000000000e+00 0.000000000000e+00 
4.000000000000e+02 1.000000000000e+02 2.200000000000e+01 2.200010000000e+01 0.000000000000e+00 0.000000000000e+00 
5.000000000000e+02 1.000000000000e+02 1.700000000000e+01 1.700010000000e+01 0.000000000000e+00 0.000000000000e+00 
6.000000000000e+02 1.000000000000e+02 1.200000000000e+01 1.200010000000e+01 0.000000000000e+00 0.000000000000e+00 
7.000000000000e+02 1.000000000000e+02 7.000000000000e+00 7.000100000000e+00 0.000000000000e+00 0.000000000000e+00 
8.000000000000e+02 1.000000000000e+02 2.000000000000e+00 2.000100000000e+00 0.000000000000e+00 0.000000000000e+00 
8.100000000000e+02 1.000000000000e+02 2.000000000000e+00 2.000100000000e+00 0.000000000000e+00 0.000000000000e+00 
0.000000000000e+00 2.000000000000e+02 4.400000000000e+01 4.400010000000e+01 0.000000000000e+00 0.000000000000e+00 
1.000000000000e+02 2.000000000000e+02 3.900000000000e+01 3.900010000000e+01 0.000000000000e+00 0.000000000000e+00 
2.000000000000e+02 2.000000000000e+02 3.400000000000e+01 3.400010000000e+01 0.000000000000e+00 0.000000000000e+00 
3.000000000000e+02 2.000000000000e+02 2.900000000000e+01 2.900010000000e+01 0.000000000000e+00 0.000000000000e+00 
4.000000000000e+02 2.000000000000e+02 2.400000000000e+01 2.400010000000e+01 0.000000000000e+00 0.000000000000e+00 
5.000000000000e+02 2.000000000000e+02 1.900000000000e+01 1.900010000000e+01 0.000000000000e+00 0.000000000000e+00 
6.000000000000e+02 2.000000000000e+02 1.400000000000e+01 1.400010000000e+01 0.000000000000e+00 0.000000000000e+00 
7.000000000000e+02 2.000000000000e+02 9.000000000000e+00 9.000100000000e+00 0.000000000000e+00 0.000000000000e+00 
8.000000000000e+02 2.000000000000e+02 4.000000000000e+00 4.000100000000e+00 0.000000000000e+00 0.000000000000e+00 
8.100000000000e+02 2.000000000000e+02 4.000000000000e+00 4.000100000000e+00 0.000000000000e+00 0.000000000000e+00 
0.000000000000e+00 3.000000000000e+02 4.600000000000e+01 4.600010000000e+01 0.000000000000e+00 0.000000000000e+00 
1.000000000000e+02 3.000000000000e+02 4.100000000000e+01 4.100010000000e+01 0.000000000000e+00 0.000000000000e+00 
2.000000000000e+02 3.000000000000e+02 3.600000000000e+01 3.600010000000e+01 0.000000000000e+00 0.000000000000e+00 
3.000000000000e+02 3.000000000000e+02 3.100000000000e+01 3.100010000000e+01 0.000000000000e+00 0.000000000000e+00 
4.000000000000e+02 3.000000000000e+02 2.600000000000e+01 2.600010000000e+01 0.000000000000e+00 0.000000000000e+00 
5.000000000000e+02 3.000000000000e+02 2.100000000000e+01 2.100010000000e+01 0.000000000000e+00 0.000000000000e+00 
6.000000000000e+02 3.000000000000e+02 1.600000000000e+01 1.600010000000e+01 0.000000000000e+00 0.000000000000e+00 
7.000000000000e+02 3.000000000000e+02 1.100000000000e+01 1.100010000000e+01 0.000000000000e+00 0.000000000000e+00 
8.000000000000e+02 3.000000000000e+02 6.000000000000e+00 6.000100000000e+00 0.000000000000e+00 0.000000000000e+00 
8.100000000000e+02 3.000000000000e+02 6.000000000000e+00 6.000100000000e+00 0.000000000000e+00 0.000000000000e+00 
0.000000000000e+00 4.000000000000e+02 4.800000000000e+01 4.800010000000e+01 0.000000000000e+00 0.000000000000e+00 
1.000000000000e+02 4.000000000000e+02 4.300000000000e+01 4.300010000000e+01 0.000000000000e+00 0.000000000000e+00 
2.000000000000e+02 4.000000000000e+02 3.800000000000e+01 3.800010000000e+01 0.000000000000e+00 0.000000000000e+00 
3.000000000000e+02 4.000000000000e+02 3.300000000000e+01 3.300010000000e+01 0.000000000000e+00 0.000000000000e+00 
4.000000000000e+02 4.000000000000e+02 2.800000000000e+01 2.800010000000e+01 0.000000000000e+00 0.000000000000e+00 
5.000000000000e+02 4.000000000000e+02 2.300000000000e+01 2.300010000000e+01 0.000000000000e+00 0.000000000000e+00 
6.000000000000e+02 4.000000000000e+02 1.800000000000e+01 1.800010000000e+01 0.000000000000e+00 0.000000000000e+00 
7.000000000000e+02 4.000000000000e+02 1.300000000000e+01 1.300010000000e+01 0.000000000000e+00 0.000000000000e+00 
8.000000000000e+02 4.000000000000e+02 8.000000000000e+00 8.000100000000e+00 0.000000000000e+00 0.000000000000e+00 
8.100000000000e+02 4.000000000000e+02 8.000000000000e+00 8.000100000000e+00 0.000000000000e+00 0.000000000000e+00 
0.000000000000e+00 5.000000000000e+02 5.000000000000e+01 5.000010000000e+01 0.000000000000e+00 0.000000000000e+00 
1.000000000000e+02 5.000000000000e+02 4.500000000000e+01 4.500010000000e+01 0.000000000000e+00 0.000000000000e+00 
2.000000000000e+02 5.000000000000e+02 4.000000000000e+01 4.000010000000e+01 0.000000000000e+00 0.000000000000e+00 
3.000000000000e+02 5.000000000000e+02 3.500000000000e+01 3.500010000000e+01 0.000000000000e+00 0.000000000000e+00 
4.000000000000e+02 5.000000000000e+02 3.000000000000e+01 3.000010000000e+01 0.000000000000e+00 0.000000000000e+00 
5.000000000000e+02 5.000000000000e+02 2.500000000000e+01 2.500010000000e+01 0.000000000000e+00 0.000000000000e+00 
6.000000000000e+02 5.000000000000e+02 2.000000000000e+01 2.000010000000e+01 0.000000000000e+00 0.000000000000e+00 
7.000000000000e+02 5.000000000000e+02 1.500000000000e+01 1.500010000000e+01 0.000000000000e+00 0.000000000000e+00 
8.000000000000e+02 5.000000000000e+02 1.000000000000e+01 1.000010000000e+01 0.000000000000e+00 0.000000000000e+00 
8.100000000000e+02 5.000000000000e+02 1.000000000000e+01 1.000010000000e+01 0.000000000000e+00 0.000000000000e+00 
0.000000000000e+00 6.000000000000e+02 5.200000000000e+01 5.200010000000e+01 0.000000000000e+00 0.000000000000e+00 
1.000000000000e+02 6.000000000000e+02 4.700000000000e+01 4.700010000000e+01 0.000000000000e+00 0.000000000000e+00 
2.000000000000e+02 6.000000000000e+02 4.200000000000e+01 4.200010000000e+01 0.000000000000e+00 0.000000000000e+00 
3.000000000000e+02 6.000000000000e+02 3.700000000000e+01 3.700010000000e+01 0.000000000000e+00 0.000000000000e+00 
4.000000000000e+02 6.000000000000e+02 3.200000000000e+01 3.200010000000e+01 0.000000000000e+00 0.000000000000e+00 
5.000000000000e+02 6.000000000000e+02 2.700000000000e+01 2.700010000000e+01 0.000000000000e+00 0.000000000000e+00 
6.000000000000e+02 6.000000000000e+02 2.200000000000e+01 2.200010000000e+01 0.000000000000e+00 0.000000000000e+00 
7.000000000000e+02 6.000000000000e+02 1.700000000000e+01 1.700010000000e+01 0.000000000000e+00 0.000000000000e+00 
8.000000000000e+02 6.000000000000e+02 1.200000000000e+01 1.200010000000e+01 0.000000000000e+00 0.000000000000e+00 
8.100000000000e+02 6.000000000000e+02 1.200000000000e+01 1.200010000000e+01 0.000000000000e+00 0.000000000000e+00 
0.000000000000e+00 7.000000000000e+02 5.400000000000e+01 5.400010000000e+01 0.000000000000e+00 0.000000000000e+00 
1.000000000000e+02 7.000000000000e+02 4.900000000000e+01 4.900010000000e+01 0.000000000000e+00 0.000000000000e+00 
2.000000000000e+02 7.000000000000e+02 4.400000000000e+01 4.400010000000e+01 0.000000000000e+00 0.000000000000e+00 
3.000000000000e+02 7.000000000000e+02 3.900000000000e+01 3.900010000000e+01 0.000000000000e+00 0.000000000000e+00 
4.000000000000e+02 7.000000000000e+02 3.400000000000e+01 3.400010000000e+01 0.000000000000e+00 0.000000000000e+00 
5.000000000000e+02 7.000000000000e+02 2.900000000000e+01 2.900010000000e+01 0.000000000000e+00 0.000000000000e+00 
6.000000000000e+02 7.000000000000e+02 2.400000000000e+01 2.400010000000e+01 0.000000000000e+00 0.000000000000e+00 
7.000000000000e+02 7.000000000000e+02 1.900000000000e+01 1.900010000000e+01 0.000000000000e+00 0.000000000000e+00 
8.000000000000e+02 7.000000000000e+02 1.400000000000e+01 1.400010000000e+01 0.000000000000e+00 0.000000000000e+00 
8.100000000000e+02 7.000000000000e+02 1.400000000000e+01 1.400010000000e+01 0.000000000000e+00 0.000000000000e+00 
0.000000000000e+00 8.000000000000e+02 5.600000000000e+01 5.600010000000e+01 0.000000000000e+00 0.000000000000e+00 
1.000000000000e+02 8.000000000000e+02 5.100000000000e+01 5.100010000000e+01 0.000000000000e+00 0.000000000000e+00 
2.000000000000e+02 8.000000000000e+02 4.600000000000e+01 4.600010000000e+01 0.000000000000e+00 0.000000000000e+00 
3.000000000000e+02 8.000000000000e+02 4.100000000000e+01 4.100010000000e+01 0.000000000000e+00 0.000000000000e+00 
4.000000000000e+02 8.000000000000e+02 3.600000000000e+01 3.600010000000e+01 0.000000000000e+00 0.000000000000e+00 
5.000000000000e+02 8.000000000000e+02 3.100000000000e+01 3.100010000000e+01 0.000000000000e+00 0.000000000000e+00 
6.000000000000e+02 8.000000000000e+02 2.600000000000e+01 2.600010000000e+01 0.000000000000e+00 0.000000000000e+00 
7.000000000000e+02 8.000000000000e+02 2.100000000000e+01 2.100010000000e+01 0.000000000000e+00 0.000000000000e+00 
8.000000000000e+02 8.000000000000e+02 1.600000000000e+01 1.600010000000e+01 0.000000000000e+00 0.000000000000e+00 
8.100000000000e+02 8.000000000000e+02 1.600000000000e+01 1.600010000000e+01 0.000000000000e+00 0.000000000000e+00 
0.000000000000e+00 9.000000000000e+02 5.800000000000e+01 5.800010000000e+01 0.000000000000e+00 0.000000000000e+00 
1.000000000000e+02 9.000000000000e+02 5.300000000000e+01 5.300010000000e+01 0.000000000000e+00 0.000000000000e+00 
2.000000000000e+02 9.000000000000e+02 4.800000000000e+01 4.800010000000e+01 0.000000000000e+00 0.000000000000e+00 
3.000000000000e+02 9.000000000000e+02 4.300000000000e+01 4.300010000000e+01 0.000000000000e+00 0.000000000000e+00 
4.000000000000e+02 9.000000000000e+02 3.800000000000e+01 3.800010000000e+01 0.000000000000e+00 0.000000000000e+00 
5.000000000000e+02 9.000000000000e+02 3.300000000000e+01 3.300010000000e+01 0.000000000000e+00 0.000000000000e+00 
6.000000000000e+02 9.000000000000e+02 2.800000000000e+01 2.800010000000e+01 0.000000000000e+00 0.000000000000e+00 
7.000000000000e+02 9.000000000000e+02 2.300000000000e+01 2.300010000000e+01 0.000000000000e+00 0.000000000000e+00 
8.000000000000e+02 9.000000000000e+02 1.800000000000e+01 1.800010000000e+01 0.000000000000e+00 0.000000000000e+00 
8.100000000000e+02 9.000000000000e+02 1.800000000000e+01 1.800010000000e+01 0.000000000000e+00 0.000000000000e+00 
0.000000000000e+00 1.000000000000e+03 6.000000000000e+01 6.000010000000e+01 0.000000000000e+00 0.000000000000e+00 
1.000000000000e+02 1.000000000000e+03 5.500000000000e+01 5.500010000000e+01 0.000000000000e+00 0.000000000000e+00 
2.000000000000e+02 1.000000000000e+03 5.000000000000e+01 5.000010000000e+01 0.000000000000e+00 0.000000000000e+00 
3.000000000000e+02 1.000000000000e+03 4.500000000000e+01 4.500010000000e+01 0.000000000000e+00 0.000000000000e+00 
4.000000000000e+02 1.000000000000e+03 4.000000000000e+01 4.000010000000e+01 0.000000000000e+00 0.000000000000e+00 
5.000000000000e+02 1.000000000000e+03 3.500000000000e+01 3.500010000000e+01 0.000000000000e+00 0.000000000000e+00 
6.000000000000e+02 1.000000000000e+03 3.000000000000e+01 3.000010000000e+01 0.000000000000e+00 0.000000000000e+00 
7.000000000000e+02 1.000000000000e+03 2.500000000000e+01 2.500010000000e+01 0.000000000000e+00 0.000000000000e+00 
8.000000000000e+02 1.000000000000e+03 2.000000000000e+01 2.000010000000e+01 0.000000000000e+00 0.000000000000e+00 
8.100000000000e+02 1.000000000000e+03 2.000000000000e+01 2.000010000000e+01 0.000000000000e+00 0.000000000000e+00 
1  2  12  11  
2  3  13  12  
3  4  14  13  
4  5  15  14  
5  6  16  15  
6  7  17  16  
7  8  18  17  
8  9  19  18  
11  12  22  21  
12  13  23  22  
13  14  24  23  
14  15  25  24  
15  16  26  25  
16  17  27  26  
17  18  28  27  
18  19  29  28  
21  22  32  31  
22  23  33  32  
23  24  34  33  
24  25  35  34  
25  26  36  35  
26  27  37  36  
27  28  38  37  
28  29  39  38  
31  32  42  41  
32  33  43  42  
33  34  44  43  
34  35  45  44  
35  36  46  45  
36  37  47  46  
37  38  48  47  
38  39  49  48  
41  42  52  51  
42  43  53  52  
43  44  54  53  
44  45  55  54  
45  46  56  55  
46  47  57  56  
47  48  58  57  
48  49  59  58  
51  52  62  61  
52  53  63  62  
53  54  64  63  
54  55  65  64  
55  56  66  65  
56  57  67  66  
57  58  68  67  
58  59  69  68  
61  62  72  71  
62  63  73  72  
63  64  74  73  
64  65  75  74  
65  66  76  75  
66  67  77  76  
67  68  78  77  
68  69  79  78  
71  72  82  81  
72  73  83  82  
73  74  84  83  
74  75  85  84  
75  76  86  85  
76  77  87  86  
77  78  88  87  
78  79  89  88  
81  82  92  91  
82  83  93  92  
83  84  94  93  
84  85  95  94  
85  86  96  95  
86  87  97  96  
87  88  98  97  
88  89  99  98  
91  92  102  101  
92  93  103  102  
93  94  104  103  
94  95  105  104  
95  96  106  105  
96  97  107  106  
97  98  108  107  
98  99  109  108  
9  10  20  19  
19  20  30  29  
29  30  40  39  
39  40  50  49  
49  50  60  59  
59  60  70  69  
69  70  80  79  
79  80  90  89  
89  90  100  99  
99  100  110  109  
VARIABLES  = "X","Y","Z", "HEAD", "WDEPTH", "FLUX"
ZONE T="1.700000000000e+02s", N=110, E=90, F=FEPOINT, ET=QUADRILATERAL
STRANDID=1, SOLUTIONTIME=1.700000000000e+02
0.000000000000e+00 0.000000000000e+00 4.000000000000e+01 4.000055108972e+01 5.510897154295e-04 0.000000000000e+00 
1.000000000000e+02 0.000000000000e+00 3.500000000000e+01 3.500064258332e+01 6.425833205839e-04 0.000000000000e+00 
2.000000000000e+02 0.000000000000e+00 3.000000000000e+01 3.000065169739e+01 6.516973871733e-04 0.000000000000e+00 
3.000000000000e+02 0.000000000000e+00 2.500000000000e+01 2.500065246115e+01 6.524611526650e-04 0.000000000000e+00 
4.000000000000e+02 0.000000000000e+00 2.000000000000e+01 2.000065251662e+01 6.525166242177e-04 0.000000000000e+00 
5.000000000000e+02 0.000000000000e+00 1.500000000000e+01 1.500065252026e+01 6.525202573595e-04 0.000000000000e+00 
6.000000000000e+02 0.000000000000e+00 1.000000000000e+01 1.000065252048e+01 6.525204778054e-04 0.000000000000e+00 
7.000000000000e+02 0.000000000000e+00 5.000000000000e+00 5.000652520965e+00 6.525209654562e-04 0.000000000000e+00 
8.000000000000e+02 0.000000000000e+00 0.000000000000e+00 7.514986438177e-04 7.514986438177e-04 3.223123016223e-04 
8.100000000000e+02 0.000000000000e+00 0.000000000000e+00 5.414017413950e-04 5.414017413950e-04 1.973146209549e-04 
0.000000000000e+00 1.000000000000e+02 4.200000000000e+01 4.200052161068e+01 5.216106828172e-04 0.000000000000e+00 
1.000000000000e+02 1.000000000000e+02 3.700000000000e+01 3.700060184014e+01 6.018401428278e-04 0.000000000000e+00 
2.000000000000e+02 1.000000000000e+02 3.200000000000e+01 3.200060936074e+01 6.093607439581e-04 0.000000000000e+00 
3.000000000000e+02 1.000000000000e+02 2.700000000000e+01 2.700060995629e+01 6.099562942055e-04 0.000000000000e+00 
4.000000000000e+02 1.000000000000e+02 2.200000000000e+01 2.200060999729e+01 6.099972863858e-04 0.000000000000e+00 
5.000000000000e+02 1.000000000000e+02 1.700000000000e+01 1.700060999983e+01 6.099998349924e-04 0.000000000000e+00 
6.000000000000e+02 1.000000000000e+02 1.200000000000e+01 1.200060999998e+01 6.099999819220e-04 0.000000000000e+00 
7.000000000000e+02 1.000000000000e+02 7.000000000000e+00 7.000610000315e+00 6.100003147393e-04 0.000000000000e+00 
8.000000000000e+02 1.000000000000e+02 2.000000000000e+00 2.000706444954e+00 7.064449539511e-04 0.000000000000e+00 
8.100000000000e+02 1.000000000000e+02 2.000000000000e+00 2.000610024739e+00 6.100247388789e-04 0.000000000000e+00 
0.000000000000e+00 2.000000000000e+02 4.400000000000e+01 4.400052161060e+01 5.216105980637e-04 0.000000000000e+00 
1.000000000000e+02 2.000000000000e+02 3.900000000000e+01 3.900060183992e+01 6.018399238883e-04 0.000000000000e+00 
2.000000000000e+02 2.000000000000e+02 3.400000000000e+01 3.400060936050e+01 6.093605021320e-04 0.000000000000e+00 
3.000000000000e+02 2.000000000000e+02 2.900000000000e+01 2.900060995605e+01 6.099560498320e-04 0.000000000000e+00 
4.000000000000e+02 2.000000000000e+02 2.400000000000e+01 2.400060999704e+01 6.099970417921e-04 0.000000000000e+00 
5.000000000000e+02 2.000000000000e+02 1.900000000000e+01 1.900060999959e+01 6.099995903774e-04 0.000000000000e+00 
6.000000000000e+02 2.000000000000e+02 1.400000000000e+01 1.400060999974e+01 6.099997373052e-04 0.000000000000e+00 
7.000000000000e+02 2.000000000000e+02 9.000000000000e+00 9.000610000070e+00 6.100000704166e-04 0.000000000000e+00 
8.000000000000e+02 2.000000000000e+02 4.000000000000e+00 4.000706444598e+00 7.064445980500e-04 0.000000000000e+00 
8.100000000000e+02 2.000000000000e+02 4.000000000000e+00 4.000610024805e+00 6.100248054839e-04 0.000000000000e+00 
0.000000000000e+00 3.000000000000e+02 4.600000000000e+01 4.600052161060e+01 5.216105980637e-04 0.000000000000e+00 
1.000000000000e+02 3.000000000000e+02 4.100000000000e+01 4.100060183992e+01 6.018399238883e-04 0.000000000000e+00 
2.000000000000e+02 3.000000000000e+02 3.600000000000e+01 3.600060936050e+01 6.093605021249e-04 0.000000000000e+00 
3.000000000000e+02 3.000000000000e+02 3.100000000000e+01 3.100060995605e+01 6.099560498320e-04 0.000000000000e+00 
4.000000000000e+02 3.000000000000e+02 2.600000000000e+01 2.600060999704e+01 6.099970417921e-04 0.000000000000e+00 
5.000000000000e+02 3.000000000000e+02 2.100000000000e+01 2.100060999959e+01 6.099995903774e-04 0.000000000000e+00 
6.000000000000e+02 3.000000000000e+02 1.600000000000e+01 1.600060999974e+01 6.099997373035e-04 0.000000000000e+00 
7.000000000000e+02 3.000000000000e+02 1.100000000000e+01 1.100061000007e+01 6.100000704148e-04 0.000000000000e+00 
8.000000000000e+02 3.000000000000e+02 6.000000000000e+00 6.000706444598e+00 7.064445980474e-04 0.000000000000e+00 
8.100000000000e+02 3.000000000000e+02 6.000000000000e+00 6.000610024805e+00 6.100248054839e-04 0.000000000000e+00 
0.000000000000e+00 4.000000000000e+02 4.800000000000e+01 4.800052161060e+01 5.216105980637e-04 0.000000000000e+00 
1.000000000000e+02 4.000000000000e+02 4.300000000000e+01 4.300060183992e+01 6.018399238741e-04 0.000000000000e+00 
2.000000000000e+02 4.000000000000e+02 3.800000000000e+01 3.800060936050e+01 6.093605021178e-04 0.000000000000e+00 
3.000000000000e+02 4.000000000000e+02 3.300000000000e+01 3.300060995605e+01 6.099560498072e-04 0.000000000000e+00 
4.000000000000e+02 4.000000000000e+02 2.800000000000e+01 2.800060999704e+01 6.099970417708e-04 0.000000000000e+00 
5.000000000000e+02 4.000000000000e+02 2.300000000000e+01 2.300060999959e+01 6.099995903597e-04 0.000000000000e+00 
6.000000000000e+02 4.000000000000e+02 1.800000000000e+01 1.800060999974e+01 6.099997372893e-04 0.000000000000e+00 
7.000000000000e+02 4.000000000000e+02 1.300000000000e+01 1.300061000007e+01 6.100000703970e-04 0.000000000000e+00 
8.000000000000e+02 4.000000000000e+02 8.000000000000e+00 8.000706444598e+00 7.064445980252e-04 0.000000000000e+00 
8.100000000000e+02 4.000000000000e+02 8.000000000000e+00 8.000610024805e+00 6.100248054839e-04 0.000000000000e+00 
0.000000000000e+00 5.000000000000e+02 5.000000000000e+01 5.000052161060e+01 5.216105978008e-04 0.000000000000e+00 
1.000000000000e+02 5.000000000000e+02 4.500000000000e+01 4.500060183992e+01 6.018399231920e-04 0.000000000000e+00 
2.000000000000e+02 5.000000000000e+02 4.000000000000e+01 4.000060936050e+01 6.093605013291e-04 0.000000000000e+00 
3.000000000000e+02 5.000000000000e+02 3.500000000000e+01 3.500060995605e+01 6.099560490114e-04 0.000000000000e+00 
4.000000000000e+02 5.000000000000e+02 3.000000000000e+01 3.000060999704e+01 6.099970409679e-04 0.000000000000e+00 
5.000000000000e+02 5.000000000000e+02 2.500000000000e+01 2.500060999959e+01 6.099995895532e-04 0.000000000000e+00 
6.000000000000e+02 5.000000000000e+02 2.000000000000e+01 2.000060999974e+01 6.099997364863e-04 0.000000000000e+00 
7.000000000000e+02 5.000000000000e+02 1.500000000000e+01 1.500061000007e+01 6.100000695923e-04 0.000000000000e+00 
8.000000000000e+02 5.000000000000e+02 1.000000000000e+01 1.000070644460e+01 7.064445967320e-04 0.000000000000e+00 
8.100000000000e+02 5.000000000000e+02 1.000000000000e+01 1.000061002481e+01 6.100248054839e-04 0.000000000000e+00 
0.000000000000e+00 6.000000000000e+02 5.200000000000e+01 5.200052161058e+01 5.216105843928e-04 0.000000000000e+00 
1.000000000000e+02 6.000000000000e+02 4.700000000000e+01 4.700060183989e+01 6.018398935765e-04 0.000000000000e+00 
2.000000000000e+02 6.000000000000e+02 4.200000000000e+01 4.200060936047e+01 6.093604678483e-04 0.000000000000e+00 
3.000000000000e+02 6.000000000000e+02 3.700000000000e+01 3.700060995601e+01 6.099560149337e-04 0.000000000000e+00 
4.000000000000e+02 6.000000000000e+02 3.200000000000e+01 3.200060999701e+01 6.099970068263e-04 0.000000000000e+00 
5.000000000000e+02 6.000000000000e+02 2.700000000000e+01 2.700060999956e+01 6.099995553939e-04 0.000000000000e+00 
6.000000000000e+02 6.000000000000e+02 2.200000000000e+01 2.200060999970e+01 6.099997023234e-04 0.000000000000e+00 
7.000000000000e+02 6.000000000000e+02 1.700000000000e+01 1.700061000004e+01 6.100000354294e-04 0.000000000000e+00 
8.000000000000e+02 6.000000000000e+02 1.200000000000e+01 1.200070644454e+01 7.064445438640e-04 0.000000000000e+00 
8.100000000000e+02 6.000000000000e+02 1.200000000000e+01 1.200061002481e+01 6.100248054661e-04 0.000000000000e+00 
0.000000000000e+00 7.000000000000e+02 5.400000000000e+01 5.400052160998e+01 5.216099763246e-04 0.000000000000e+00 
1.000000000000e+02 7.000000000000e+02 4.900000000000e+01 4.900060183869e+01 6.018386936972e-04 0.000000000000e+00 
2.000000000000e+02 7.000000000000e+02 4.400000000000e+01 4.400060935914e+01 6.093591413077e-04 0.000000000000e+00 
3.000000000000e+02 7.000000000000e+02 3.900000000000e+01 3.900060995467e+01 6.099546705585e-04 0.000000000000e+00 
4.000000000000e+02 7.000000000000e+02 3.400000000000e+01 3.400060999566e+01 6.099956604970e-04 0.000000000000e+00 
5.000000000000e+02 7.000000000000e+02 2.900000000000e+01 2.900060999821e+01 6.099982089012e-04 0.000000000000e+00 
6.000000000000e+02 7.000000000000e+02 2.400000000000e+01 2.400060999836e+01 6.099983558130e-04 0.000000000000e+00 
7.000000000000e+02 7.000000000000e+02 1.900000000000e+01 1.900060999869e+01 6.099986889083e-04 0.000000000000e+00 
8.000000000000e+02 7.000000000000e+02 1.400000000000e+01 1.400070644255e+01 7.064425452352e-04 0.000000000000e+00 
8.100000000000e+02 7.000000000000e+02 1.400000000000e+01 1.400061002480e+01 6.100248038621e-04 0.000000000000e+00 
0.000000000000e+00 8.000000000000e+02 5.600000000000e+01 5.600052158497e+01 5.215849725744e-04 0.000000000000e+00 
1.000000000000e+02 8.000000000000e+02 5.100000000000e+01 5.100060179478e+01 6.017947793850e-04 0.000000000000e+00 
2.000000000000e+02 8.000000000000e+02 4.600000000000e+01 4.600060931165e+01 6.093116546140e-04 0.000000000000e+00 
3.000000000000e+02 8.000000000000e+02 4.100000000000e+01 4.100060990673e+01 6.099067267726e-04 0.000000000000e+00 
4.000000000000e+02 8.000000000000e+02 3.600000000000e+01 3.600060994767e+01 6.099476709451e-04 0.000000000000e+00 
5.000000000000e+02 8.000000000000e+02 3.100000000000e+01 3.100060995022e+01 6.099502154520e-04 0.000000000000e+00 
6.000000000000e+02 8.000000000000e+02 2.600000000000e+01 2.600060995036e+01 6.099503620725e-04 0.000000000000e+00 
7.000000000000e+02 8.000000000000e+02 2.100000000000e+01 2.100060995069e+01 6.099506947628e-04 0.000000000000e+00 
8.000000000000e+02 8.000000000000e+02 1.600000000000e+01 1.600070637439e+01 7.063743871782e-04 0.000000000000e+00 
8.100000000000e+02 8.000000000000e+02 1.600000000000e+01 1.600061002454e+01 6.100245448692e-04 0.000000000000e+00 
0.000000000000e+00 9.000000000000e+02 5.800000000000e+01 5.800052068789e+01 5.206878868194e-04 0.000000000000e+00 
1.000000000000e+02 9.000000000000e+02 5.300000000000e+01 5.300060040114e+01 6.004011393301e-04 0.000000000000e+00 
2.000000000000e+02 9.000000000000e+02 4.800000000000e+01 4.800060783714e+01 6.078371383254e-04 0.000000000000e+00 
3.000000000000e+02 9.000000000000e+02 4.300000000000e+01 4.300060842293e+01 6.084229321601e-04 0.000000000000e+00 
4.000000000000e+02 9.000000000000e+02 3.800000000000e+01 3.800060846303e+01 6.084630296996e-04 0.000000000000e+00 
5.000000000000e+02 9.000000000000e+02 3.300000000000e+01 3.300060846551e+01 6.084655079022e-04 0.000000000000e+00 
6.000000000000e+02 9.000000000000e+02 2.800000000000e+01 2.800060846565e+01 6.084656498615e-04 0.000000000000e+00 
7.000000000000e+02 9.000000000000e+02 2.300000000000e+01 2.300060846597e+01 6.084659732366e-04 0.000000000000e+00 
8.000000000000e+02 9.000000000000e+02 1.800000000000e+01 1.800070436768e+01 7.043676778657e-04 0.000000000000e+00 
8.100000000000e+02 9.000000000000e+02 1.800000000000e+01 1.800060997886e+01 6.099788633378e-04 0.000000000000e+00 
0.000000000000e+00 1.000000000000e+03 6.000000000000e+01 6.000049388056e+01 4.938805578192e-04 0.000000000000e+00 
1.000000000000e+02 1.000000000000e+03 5.500000000000e+01 5.500056400375e+01 5.640037456445e-04 0.000000000000e+00 
2.000000000000e+02 1.000000000000e+03 5.000000000000e+01 5.000057015876e+01 5.701587580305e-04 0.000000000000e+00 
3.000000000000e+02 1.000000000000e+03 4.500000000000e+01 4.500057061675e+01 5.706167475026e-04 0.000000000000e+00 
4.000000000000e+02 1.000000000000e+03 4.000000000000e+01 4.000057064643e+01 5.706464326849e-04 0.000000000000e+00 
5.000000000000e+02 1.000000000000e+03 3.500000000000e+01 3.500057064817e+01 5.706481721859e-04 0.000000000000e+00 
6.000000000000e+02 1.000000000000e+03 3.000000000000e+01 3.000057064827e+01 5.706482667165e-04 0.000000000000e+00 
7.000000000000e+02 1.000000000000e+03 2.500000000000e+01 2.500057064843e+01 5.706484315198e-04 0.000000000000e+00 
8.000000000000e+02 1.000000000000e+03 2.000000000000e+01 2.000065628782e+01 6.562878230447e-04 0.000000000000e+00 
8.100000000000e+02 1.000000000000e+03 2.000000000000e+01 2.000060312646e+01 6.031264563582e-04 0.000000000000e+00 
1  2  12  11  
2  3  13  12  
3  4  14  13  
4  5  15  14  
5  6  16  15  
6  7  17  16  
7  8  18  17  
8  9  19  18  
11  12  22  21  
12  13  23  22  
13  14  24  23  
14  15  25  24  
15  16  26  25  
16  17  27  26  
17  18  28  27  
18  19  29  28  
21  22  32  31  
22  23  33  32  
23  24  34  33  
24  25  35  34  
25  26  36  35  
26  27  37  36  
27  28  38  37  
28  29  39  38  
31  32  42  41  
32  33  43  42  
33  34  44  43  
34  35  45  44  
35  36  46  45  
36  37  47  46  
37  38  48  47  
38  39  49  48  
41  42  52  51  
42  43  53  52  
43  44  54  53  
44  45  55  54  
45  46  56  55  
46  47  57  56  
47  48  58  57  
48  49  59  58  
51  52  62  61  
52  53  63  62  
53  54  64  63  
54  55  65  64  
55  56  66  65  
56  57  67  66  
57  58  68  67  
58  59  69  68  
61  62  72  71  
62  63  73  72  
63  64  74  73  
64  65  75  74  
65  66  76  75  
66  67  77  76  
67  68  78  77  
68  69  79  78  
71  72  82  81  
72  73  83  82  
73  74  84  83  
74  75  85  84  
75  76  86  85  
76  77  87  86  
77  78  88  87  
78  79  89  88  
81  82  92  91  
82  83  93  92  
83  84  94  93  
84  85  95  94  
85  86  96  95  
86  87  97  96  
87  88  98  97  
88  89  99  98  
91  92  102  101  
92  93  103  102  
93  94  104  103  
94  95  105  104  
95  96  106  105  
96  97  107  106  
97  98  108  107  
98  99  109  108  
9  10  20  19  
19  20  30  29  
29  30  40  39  
39  40  50  49  
49  50  60  59  
59  60  70  69  
69  70  80  79  
79  80  90  89  
89  90  100  99  
99  100  110  109  
VARIABLES  = "X","Y","Z", "HEAD", "WDEPTH", "FLUX"
ZONE T="4.200000000000e+02s", N=110, E=90, F=FEPOINT, ET=QUADRILATERAL
STRANDID=1, SOLUTIONTIME=4.200000000000e+02
0.000000000000e+00 0.000000000000e+00 4.000000000000e+01 4.000097286268e+01 9.728626843284e-04 0.000000000000e+00 
1.000000000000e+02 0.000000000000e+00 3.500000000000e+01 3.500148178150e+01 1.481781502825e-03 0.000000000000e+00 
2.000000000000e+02 0.000000000000e+00 3.000000000000e+01 3.000164347450e+01 1.643474498813e-03 0.000000000000e+00 
3.000000000000e+02 0.000000000000e+00 2.500000000000e+01 2.500168819456e+01 1.688194556401e-03 0.000000000000e+00 
4.000000000000e+02 0.000000000000e+00 2.000000000000e+01 2.000169863188e+01 1.698631884594e-03 0.000000000000e+00 
5.000000000000e+02 0.000000000000e+00 1.500000000000e+01 1.500170073466e+01 1.700734655236e-03 0.000000000000e+00 
6.000000000000e+02 0.000000000000e+00 1.000000000000e+01 1.000170111039e+01 1.701110388225e-03 0.000000000000e+00 
7.000000000000e+02 0.000000000000e+00 5.000000000000e+00 5.001701210016e+00 1.701210016306e-03 0.000000000000e+00 
8.000000000000e+02 0.000000000000e+00 0.000000000000e+00 2.781890163608e-03 2.781890163608e-03 2.296886258956e-03 