VARIABLES  = "X","Y","Z", "HEAD", "WDEPTH", "FLUX"
ZONE T="0.000000000000e+00s", N=110, E=180, F=FEPOINT, ET=QUADRILATERAL
STRANDID=1, SOLUTIONTIME=0.000000000000e+00
0.000000000000e+00 0.000000000000e+00 4.000000000000e+01 4.000010000000e+01 0.000000000000e+00 0.000000000000e+00 
1.000000000000e+02 0.000000000000e+00 3.500000000000e+01 3.500010000000e+01 0.000000000000e+00 0.000000000000e+00 
2.000000000000e+02 0.000000000000e+00 3.000000000000e+01 3.000010000000e+01 0.000000000000e+00 0.000000000000e+00 
3.000000000000e+02 0.000000000000e+00 2.500000000000e+01 2.500010000000e+01 0.000000000000e+00 0.000000000000e+00 
4.000000000000e+02 0.000000000000e+00 2.000000000000e+01 2.000010000000e+01 0.000000000000e+00 0.000000000000e+00 
5.000000000000e+02 0.000000000000e+00 1.500000000000e+01 1.500010000000e+01 0.000000000000e+00 0.000000000000e+00 
6.000000000000e+02 0.000000000000e+00 1.000000000000e+01 1.000010000000e+01 0.000000000000e+00 0.000000000000e+00 
7.000000000000e+02 0.000000000000e+00 5.000000000000e+00 5.000100000000e+00 0.000000000000e+00 0.000000000000e+00 
8.000000000000e+02 0.000000000000e+00 0.000000000000e+00 1.000000000000e-04 0.000000000000e+00 0.000000000000e+00 
8.100000000000e+02 0.000000000000e+00 0.000000000000e+00 1.000000000000e-04 0.000000000000e+00 0.000000000000e+00 
0.000000000000e+00 1.000000000000e+02 4.200000000000e+01 4.200010000000e+01 0.000000000000e+00 0.000000000000e+00 
1.000000000000e+02 1.000000000000e+02 3.700000000000e+01 3.700010000000e+01 0.000000000000e+00 0.000000000000e+00 
2.000000000000e+02 1.000000000000e+02 3.200000000000e+01 3.200010000000e+01 0.000000000000e+00 0.000000000000e+00 
3.000000000000e+02 1.000000000000e+02 2.700000000000e+01 2.700010000000e+01 0.000000000000e+00 0.000000000000e+00 
4.000000000000e+02 1.000000000000e+02 2.200000000000e+01 2.200010000000e+01 0.000000000000e+00 0.000000000000e+00 
5.000000000000e+02 1.000000000000e+02 1.700000000000e+01 1.700010000000e+01 0.000000000000e+00 0.000000000000e+00 
6.000000000000e+02 1.000000000000e+02 1.200000000000e+01 1.200010000000e+01 0.000000000000e+00 0.000000000000e+00 
7.000000000000e+02 1.000000000000e+02 7.000000000000e+00 7.000100000000e+00 0.000000000000e+00 0.000000000000e+00 
8.000000000000e+02 1.000000000000e+02 2.000000000000e+00 2.000100000000e+00 0.000000000000e+00 0.000000000000e+00 
8.100000000000e+02 1.000000000000e+02 2.000000000000e+00 2.000100000000e+00 0.000000000000e+00 0.000000000000e+00 
0.000000000000e+00 2.000000000000e+02 4.400000000000e+01 4.400010000000e+01 0.000000000000e+00 0.000000000000e+00 
1.000000000000e+02 2.000000000000e+02 3.900000000000e+01 3.900010000000e+01 0.000000000000e+00 0.000000000000e+00 
2.000000000000e+02 2.000000000000e+02 3.400000000000e+01 3.400010000000e+01 0.000000000000e+00 0.000000000000e+00 
3.000000000000e+02 2.000000000000e+02 2.900000000000e+01 2.900010000000e+01 0.000000000000e+00 0.000000000000e+00 
4.000000000000e+02 2.000000000000e+02 2.400000000000e+01 2.400010000000e+01 0.000000000000e+00 0.000000000000e+00 
5.000000000000e+02 2.000000000000e+02 1.900000000000e+01 1.900010000000e+01 0.000000000000e+00 0.000000000000e+00 
6.000000000000e+02 2.000000000000e+02 1.400000000000e+01 1.400010000000e+01 0.000000000000e+00 0.000000000000e+00 
7.000000000000e+02 2.000000000000e+02 9.000000000000e+00 9.000100000000e+00 0.000000000000e+00 0.000000000000e+00 
8.000000000000e+02 2.000000000000e+02 4.000000000000e+00 4.000100000000e+00 0.000000000000e+00 0.000000000000e+00 
8.100000000000e+02 2.000000000000e+02 4.000000000000e+00 4.000100000000e+00 0.000000000000e+00 0.000000000000e+00 
0.000000000000e+00 3.000000000000e+02 4.600000000000e+01 4.600010000000e+01 0.000000000000e+00 0.000000000000e+00 
1.000000000000e+02 3.000000000000e+02 4.100000000000e+01 4.100010000000e+01 0.000000000000e+00 0.000000000000e+00 
2.000000000000e+02 3.000000000000e+02 3.600000000000e+01 3.600010000000e+01 0.000000000000e+00 0.000000000000e+00 
3.000000000000e+02 3.000000000000e+02 3.100000000000e+01 3.100010000000e+01 0.000000000000e+00 0.000000000000e+00 
4.000000000000e+02 3.000000000000e+02 2.600000000000e+01 2.600010000000e+01 0.000000000000e+00 0.000000000000e+00 
5.000000000000e+02 3.000000000000e+02 2.100000000000e+01 2.100010000000e+01 0.000000000000e+00 0.000000000000e+00 
6.000000000000e+02 3.000000000000e+02 1.600000000000e+01 1.600010000000e+01 0.000000000000e+00 0.000000000000e+00 
7.000000000000e+02 3.000000000000e+02 1.100000000000e+01 1.100010000000e+01 0.000000000000e+00 0.000000000000e+00 
8.000000000000e+02 3.000000000000e+02 6.000000000000e+00 6.000100000000e+00 0.000000000000e+00 0.000000000000e+00 
8.100000000000e+02 3.000000000000e+02 6.000000000000e+00 6.000100000000e+00 0.000000000000e+00 0.000000000000e+00 
0.000000000000e+00 4.000000000000e+02 4.800000000000e+01 4.800010000000e+01 0.000000000000e+00 0.000000000000e+00 
1.000000000000e+02 4.000000000000e+02 4.300000000000e+01 4.300010000000e+01 0.000000000000e+00 0.000000000000e+00 
2.000000000000e+02 4.000000000000e+02 3.800000000000e+01 3.800010000000e+01 0.000000000000e+00 0.000000000000e+00 
3.000000000000e+02 4.000000000000e+02 3.300000000000e+01 3.300010000000e+01 0.000000000000e+00 0.000000000000e+00 
4.000000000000e+02 4.000000000000e+02 2.800000000000e+01 2.800010000000e+01 0.000000000000e+00 0.000000000000e+00 
5.000000000000e+02 4.000000000000e+02 2.300000000000e+01 2.300010000000e+01 0.000000000000e+00 0.000000000000e+00 
6.000000000000e+02 4.000000000000e+02 1.800000000000e+01 1.800010000000e+01 0.000000000000e+00 0.000000000000e+00 
7.000000000000e+02 4.000000000000e+02 1.300000000000e+01 1.300010000000e+01 0.000000000000e+00 0.000000000000e+00 
8.000000000000e+02 4.000000000000e+02 8.000000000000e+00 8.000100000000e+00 0.000000000000e+00 0.000000000000e+00 
8.100000000000e+02 4.000000000000e+02 8.000000000000e+00 8.000100000000e+00 0.000000000000e+00 0.000000000000e+00 
0.000000000000e+00 5.000000000000e+02 5.000000000000e+01 5.000010000000e+01 0.000000000000e+00 0.000000000000e+00 
1.000000000000e+02 5.000000000000e+02 4.500000000000e+01 4.500010000000e+01 0.000000000000e+00 0.000000000000e+00 
2.000000000000e+02 5.000000000000e+02 4.000000000000e+01 4.000010000000e+01 0.000000000000e+00 0.000000000000e+00 
3.000000000000e+02 5.000000000000e+02 3.500000000000e+01 3.500010000000e+01 0.000000000000e+00 0.000000000000e+00 
4.000000000000e+02 5.000000000000e+02 3.000000000000e+01 3.000010000000e+01 0.000000000000e+00 0.000000000000e+00 
5.000000000000e+02 5.000000000000e+02 2.500000000000e+01 2.500010000000e+01 0.000000000000e+00 0.000000000000e+00 
6.000000000000e+02 5.000000000000e+02 2.000000000000e+01 2.000010000000e+01 0.000000000000e+00 0.000000000000e+00 
7.000000000000e+02 5.000000000000e+02 1.500000000000e+01 1.500010000000e+01 0.000000000000e+00 0.000000000000e+00 
8.000000000000e+02 5.000000000000e+02 1.000000000000e+01 1.000010000000e+01 0.000000000000e+00 0.000000000000e+00 
8.100000000000e+02 5.000000000000e+02 1.000000000000e+01 1.000010000000e+01 0.000000000000e+00 0.000000000000e+00 
0.000000000000e+00 6.000000000000e+02 5.200000000000e+01 5.200010000000e+01 0.000000000000e+00 0.000000000000e+00 
1.000000000000e+02 6.000000000000e+02 4.700000000000e+01 4.700010000000e+01 0.000000000000e+00 0.000000000000e+00 
2.000000000000e+02 6.000000000000e+02 4.200000000000e+01 4.200010000000e+01 0.000000000000e+00 0.000000000000e+00 
3.000000000000e+02 6.000000000000e+02 3.700000000000e+01 3.700010000000e+01 0.000000000000e+00 0.000000000000e+00 
4.000000000000e+02 6.000000000000e+02 3.200000000000e+01 3.200010000000e+01 0.000000000000e+00 0.000000000000e+00 
5.000000000000e+02 6.000000000000e+02 2.700000000000e+01 2.700010000000e+01 0.000000000000e+00 0.000000000000e+00 
6.000000000000e+02 6.000000000000e+02 2.200000000000e+01 2.200010000000e+01 0.000000000000e+00 0.000000000000e+00 
7.000000000000e+02 6.000000000000e+02 1.700000000000e+01 1.700010000000e+01 0.000000000000e+00 0.000000000000e+00 
8.000000000000e+02 6.000000000000e+02 1.200000000000e+01 1.200010000000e+01 0.000000000000e+00 0.000000000000e+00 
8.100000000000e+02 6.000000000000e+02 1.200000000000e+01 1.200010000000e+01 0.000000000000e+00 0.000000000000e+00 
0.000000000000e+00 7.000000000000e+02 5.400000000000e+01 5.400010000000e+01 0.000000000000e+00 0.000000000000e+00 
1.000000000000e+02 7.000000000000e+02 4.900000000000e+01 4.900010000000e+01 0.000000000000e+00 0.000000000000e+00 
2.000000000000e+02 7.000000000000e+02 4.400000000000e+01 4.400010000000e+01 0.000000000000e+00 0.000000000000e+00 
3.000000000000e+02 7.000000000000e+02 3.900000000000e+01 3.900010000000e+01 0.000000000000e+00 0.000000000000e+00 
4.000000000000e+02 7.000000000000e+02 3.400000000000e+01 3.400010000000e+01 0.000000000000e+00 0.000000000000e+00 
5.000000000000e+02 7.000000000000e+02 2.900000000000e+01 2.900010000000e+01 0.000000000000e+00 0.000000000000e+00 
6.000000000000e+02 7.000000000000e+02 2.400000000000e+01 2.400010000000e+01 0.000000000000e+00 0.000000000000e+00 
7.000000000000e+02 7.000000000000e+02 1.900000000000e+01 1.900010000000e+01 0.000000000000e+00 0.000000000000e+00 
8.000000000000e+02 7.000000000000e+02 1.400000000000e+01 1.400010000000e+01 0.000000000000e+00 0.000000000000e+00 
8.100000000000e+02 7.000000000000e+02 1.400000000000e+01 1.400010000000e+01 0.000000000000e+00 0.000000000000e+00 
0.000000000000e+00 8.000000000000e+02 5.600000000000e+01 5.600010000000e+01 0.000000000000e+00 0.000000000000e+00 
1.000000000000e+02 8.000000000000e+02 5.100000000000e+01 5.100010000000e+01 0.000000000000e+00 0.000000000000e+00 
2.000000000000e+02 8.000000000000e+02 4.600000000000e+01 4.600010000000e+01 0.000000000000e+00 0.000000000000e+00 
3.000000000000e+02 8.000000000000e+02 4.100000000000e+01 4.100010000000e+01 0.000000000000e+00 0.000000000000e+00 
4.000000000000e+02 8.000000000000e+02 3.600000000000e+01 3.600010000000e+01 0.000000000000e+00 0.000000000000e+00 
5.000000000000e+02 8.000000000000e+02 3.100000000000e+01 3.100010000000e+01 0.000000000000e+00 0.000000000000e+00 
6.000000000000e+02 8.000000000000e+02 2.600000000000e+01 2.600010000000e+01 0.000000000000e+00 0.000000000000e+00 
7.000000000000e+02 8.000000000000e+02 2.100000000000e+01 2.100010000000e+01 0.000000000000e+00 0.000000000000e+00 
8.000000000000e+02 8.000000000000e+02 1.600000000000e+01 1.600010000000e+01 0.000000000000e+00 0.000000000000e+00 
8.100000000000e+02 8.000000000000e+02 1.600000000000e+01 1.600010000000e+01 0.000000000000e+00 0.000000000000e+00 
0.000000000000e+00 9.000000000000e+02 5.800000000000e+01 5.800010000000e+01 0.000000000000e+00 0.000000000000e+00 
1.000000000000e+02 9.000000000000e+02 5.300000000000e+01 5.300010000000e+01 0.000000000000e+00 0.000000000000e+00 
2.000000000000e+02 9.000000000000e+02 4.800000000000e+01 4.800010000000e+01 0.000000000000e+00 0.000000000000e+00 
3.000000000000e+02 9.000000000000e+02 4.300000000000e+01 4.300010000000e+01 0.000000000000e+00 0.000000000000e+00 
4.000000000000e+02 9.000000000000e+02 3.800000000000e+01 3.800010000000e+01 0.000000000000e+00 0.000000000000e+00 
5.000000000000e+02 9.000000000000e+02 3.300000000000e+01 3.300010000000e+01 0.000000000000e+00 0.000000000000e+00 
6.000000000000e+02 9.000000000000e+02 2.800000000000e+01 2.800010000000e+01 0.000000000000e+00 0.000000000000e+00 
7.000000000000e+02 9.000000000000e+02 2.300000000000e+01 2.300010000000e+01 0.000000000000e+00 0.000000000000e+00 
8.000000000000e+02 9.000000000000e+02 1.800000000000e+01 1.800010000000e+01 0.000000000000e+00 0.000000000000e+00 
8.100000000000e+02 9.000000000000e+02 1.800000000000e+01 1.800010000000e+01 0.000000000000e+00 0.000000000000e+00 
0.000000000000e+00 1.000000000000e+03 6.000000000000e+01 6.000010000000e+01 0.000000000000e+00 0.000000000000e+00 
1.000000000000e+02 1.000000000000e+03 5.500000000000e+01 5.500010000000e+01 0.000000000000e+00 0.000000000000e+00 
2.000000000000e+02 1.000000000000e+03 5.000000000000e+01 5.000010000000e+01 0.000000000000e+00 0.000000000000e+00 
3.000000000000e+02 1.000000000000e+03 4.500000000000e+01 4.500010000000e+01 0.000000000000e+00 0.000000000000e+00 
4.000000000000e+02 1.000000000000e+03 4.000000000000e+01 4.000010000000e+01 0.000000000000e+00 0.000000000000e+00 
5.000000000000e+02 1.000000000000e+03 3.500000000000e+01 3.500010000000e+01 0.000000000000e+00 0.000000000000e+00 
6.000000000000e+02 1.000000000000e+03 3.000000000000e+01 3.000010000000e+01 0.000000000000e+00 0.000000000000e+00 
7.000000000000e+02 1.000000000000e+03 2.500000000000e+01 2.500010000000e+01 0.000000000000e+00 0.000000000000e+00 
8.000000000000e+02 1.000000000000e+03 2.000000000000e+01 2.000010000000e+01 0.000000000000e+00 0.000000000000e+00 
8.100000000000e+02 1.000000000000e+03 2.000000000000e+01 2.000010000000e+01 0.000000000000e+00 0.000000000000e+00 
1  2  11  1
2  12  11  2
2  3  12  2
3  13  12  3
3  4  13  3
4  14  13  4
4  5  14  4
5  15  14  5
5  6  15  5
6  16  15  6
6  7  16  6
7  17  16  7
7  8  17  7
8  18  17  8
8  9  18  8
9  19  18  9
11  12  21  11
12  22  21  12
12  13  22  12
13  23  22  13
13  14  23  13
14  24  23  14
14  15  24  14
15  25  24  15
15  16  25  15
16  26  25  16
16  17  26  16
17  27  26  17
17  18  27  17
18  28  27  18
18  19  28  18
19  29  28  19
21  22  31  21
22  32  31  22
22  23  32  22
23  33  32  23
23  24  33  23
24  34  33  24
24  25  34  24
25  35  34  25
25  26  35  25
26  36  35  26
26  27  36  26
27  37  36  27
27  28  37  27
28  38  37  28
28  29  38  28
29  39  38  29
31  32  41  31
32  42  41  32
32  33  42  32
33  43  42  33
33  34  43  33
34  44  43  34
34  35  44  34
35  45  44  35
35  36  45  35
36  46  45  36
36  37  46  36
37  47  46  37
37  38  47  37
38  48  47  38
38  39  48  38
39  49  48  39
41  42  51  41
42  52  51  42
42  43  52  42
43  53  52  43
43  44  53  43
44  54  53  44
44  45  54  44
45  55  54  45
45  46  55  45
46  56  55  46
46  47  56  46
47  57  56  47
47  48  57  47
48  58  57  48
48  49  58  48
49  59  58  49
51  52  61  51
52  62  61  52
52  53  62  52
53  63  62  53
53  54  63  53
54  64  63  54
54  55  64  54
55  65  64  55
55  56  65  55
56  66  65  56
56  57  66  56
57  67  66  57
57  58  67  57
58  68  67  58
58  59  68  58
59  69  68  59
61  62  71  61
62  72  71  62
62  63  72  62
63  73  72  63
63  64  73  63
64  74  73  64
64  65  74  64
65  75  74  65
65  66  75  65
66  76  75  66
66  67  76  66
67  77  76  67
67  68  77  67
68  78  77  68
68  69  78  68
69  79  78  69
71  72  81  71
72  82  81  72
72  73  82  72
73  83  82  73
73  74  83  73
74  84  83  74
74  75  84  74
75  85  84  75
75  76  85  75
76  86  85  76
76  77  86  76
77  87  86  77
77  78  87  77
78  88  87  78
78  79  88  78
79  89  88  79
81  82  91  81
82  92  91  82
82  83  92  82
83  93  92  83
83  84  93  83
84  94  93  84
84  85  94  84
85  95  94  85
85  86  95  85
86  96  95  86
86  87  96  86
87  97  96  87
87  88  97  87
88  98  97  88
88  89  98  88
89  99  98  89
91  92  101  91
92  102  101  92
92  93  102  92
93  103  102  93
93  94  103  93
94  104  103  94
94  95  104  94
95  105  104  95
95  96  105  95
96  106  105  96
96  97  106  96
97  107  106  97
97  98  107  97
98  108  107  98
98  99  108  98
99  109  108  99
9  10  19  9
10  20  19  10
19  20  29  19
20  30  29  20
29  30  39  29
30  40  39  30
39  40  49  39
40  50  49  40
49  50  59  49
50  60  59  50
59  60  69  59
60  70  69  60
69  70  79  69
70  80  79  70
79  80  89  79
80  90  89  80
89  90  99  89
90  100  99  90
99  100  109  99
100  110  109  100
VARIABLES  = "X","Y","Z", "HEAD", "WDEPTH", "FLUX"
ZONE T="1.700000000000e+02s", N=110, E=180, F=FEPOINT, ET=QUADRILATERAL
STRANDID=1, SOLUTIONTIME=1.700000000000e+02
0.000000000000e+00 0.000000000000e+00 4.000000000000e+01 4.000052884892e+01 5.288489181723e-04 0.000000000000e+00 
1.000000000000e+02 0.000000000000e+00 3.500000000000e+01 3.500064122978e+01 6.412297793901e-04 0.000000000000e+00 
2.000000000000e+02 0.000000000000e+00 3.000000000000e+01 3.000065232798e+01 6.523279803368e-04 0.000000000000e+00 
3.000000000000e+02 0.000000000000e+00 2.500000000000e+01 2.500065325972e+01 6.532597188311e-04 0.000000000000e+00 
4.000000000000e+02 0.000000000000e+00 2.000000000000e+01 2.000065332750e+01 6.533275012863e-04 0.000000000000e+00 
5.000000000000e+02 0.000000000000e+00 1.500000000000e+01 1.500065333195e+01 6.533319455730e-04 0.000000000000e+00 
6.000000000000e+02 0.000000000000e+00 1.000000000000e+01 1.000065333222e+01 6.533322154425e-04 0.000000000000e+00 
7.000000000000e+02 0.000000000000e+00 5.000000000000e+00 5.000653332570e+00 6.533325701454e-04 0.000000000000e+00 
8.000000000000e+02 0.000000000000e+00 0.000000000000e+00 7.225649356508e-04 7.225649356508e-04 3.039290192016e-04 
8.100000000000e+02 0.000000000000e+00 0.000000000000e+00 5.569051061618e-04 5.569051061618e-04 2.058454861413e-04 
0.000000000000e+00 1.000000000000e+02 4.200000000000e+01 4.200052205177e+01 5.220517657349e-04 0.000000000000e+00 
1.000000000000e+02 1.000000000000e+02 3.700000000000e+01 3.700060253220e+01 6.025321968153e-04 0.000000000000e+00 
2.000000000000e+02 1.000000000000e+02 3.200000000000e+01 3.200061009464e+01 6.100946421626e-04 0.000000000000e+00 
3.000000000000e+02 1.000000000000e+02 2.700000000000e+01 2.700061069504e+01 6.106950371034e-04 0.000000000000e+00 
4.000000000000e+02 1.000000000000e+02 2.200000000000e+01 2.200061073647e+01 6.107364695893e-04 0.000000000000e+00 
5.000000000000e+02 1.000000000000e+02 1.700000000000e+01 1.700061073905e+01 6.107390522487e-04 0.000000000000e+00 
6.000000000000e+02 1.000000000000e+02 1.200000000000e+01 1.200061073920e+01 6.107392015391e-04 0.000000000000e+00 
7.000000000000e+02 1.000000000000e+02 7.000000000000e+00 7.000610739566e+00 6.107395659765e-04 0.000000000000e+00 
8.000000000000e+02 1.000000000000e+02 2.000000000000e+00 2.000707482310e+00 7.074823100499e-04 0.000000000000e+00 
8.100000000000e+02 1.000000000000e+02 2.000000000000e+00 2.000610127094e+00 6.101270938199e-04 0.000000000000e+00 
0.000000000000e+00 2.000000000000e+02 4.400000000000e+01 4.400052205179e+01 5.220517898437e-04 0.000000000000e+00 
1.000000000000e+02 2.000000000000e+02 3.900000000000e+01 3.900060253200e+01 6.025319971670e-04 0.000000000000e+00 
2.000000000000e+02 2.000000000000e+02 3.400000000000e+01 3.400061009440e+01 6.100944018854e-04 0.000000000000e+00 
3.000000000000e+02 2.000000000000e+02 2.900000000000e+01 2.900061069479e+01 6.106947920799e-04 0.000000000000e+00 
4.000000000000e+02 2.000000000000e+02 2.400000000000e+01 2.400061073622e+01 6.107362241394e-04 0.000000000000e+00 
5.000000000000e+02 2.000000000000e+02 1.900000000000e+01 1.900061073881e+01 6.107388067633e-04 0.000000000000e+00 
6.000000000000e+02 2.000000000000e+02 1.400000000000e+01 1.400061073896e+01 6.107389560484e-04 0.000000000000e+00 
7.000000000000e+02 2.000000000000e+02 9.000000000000e+00 9.000610739291e+00 6.107392913890e-04 0.000000000000e+00 
8.000000000000e+02 2.000000000000e+02 4.000000000000e+00 4.000707482174e+00 7.074821738202e-04 0.000000000000e+00 
8.100000000000e+02 2.000000000000e+02 4.000000000000e+00 4.000610127123e+00 6.101271226679e-04 0.000000000000e+00 
0.000000000000e+00 3.000000000000e+02 4.600000000000e+01 4.600052205179e+01 5.220517898437e-04 0.000000000000e+00 
1.000000000000e+02 3.000000000000e+02 4.100000000000e+01 4.100060253200e+01 6.025319971670e-04 0.000000000000e+00 
2.000000000000e+02 3.000000000000e+02 3.600000000000e+01 3.600061009440e+01 6.100944018854e-04 0.000000000000e+00 
3.000000000000e+02 3.000000000000e+02 3.100000000000e+01 3.100061069479e+01 6.106947920799e-04 0.000000000000e+00 
4.000000000000e+02 3.000000000000e+02 2.600000000000e+01 2.600061073622e+01 6.107362241359e-04 0.000000000000e+00 
5.000000000000e+02 3.000000000000e+02 2.100000000000e+01 2.100061073881e+01 6.107388067633e-04 0.000000000000e+00 
6.000000000000e+02 3.000000000000e+02 1.600000000000e+01 1.600061073896e+01 6.107389560484e-04 0.000000000000e+00 
7.000000000000e+02 3.000000000000e+02 1.100000000000e+01 1.100061073929e+01 6.107392913872e-04 0.000000000000e+00 
8.000000000000e+02 3.000000000000e+02 6.000000000000e+00 6.000707482174e+00 7.074821738184e-04 0.000000000000e+00 
8.100000000000e+02 3.000000000000e+02 6.000000000000e+00 6.000610127123e+00 6.101271226679e-04 0.000000000000e+00 
0.000000000000e+00 4.000000000000e+02 4.800000000000e+01 4.800052205179e+01 5.220517898437e-04 0.000000000000e+00 
1.000000000000e+02 4.000000000000e+02 4.300000000000e+01 4.300060253200e+01 6.025319971528e-04 0.000000000000e+00 
2.000000000000e+02 4.000000000000e+02 3.800000000000e+01 3.800061009440e+01 6.100944018712e-04 0.000000000000e+00 
3.000000000000e+02 4.000000000000e+02 3.300000000000e+01 3.300061069479e+01 6.106947920657e-04 0.000000000000e+00 
4.000000000000e+02 4.000000000000e+02 2.800000000000e+01 2.800061073622e+01 6.107362241217e-04 0.000000000000e+00 
5.000000000000e+02 4.000000000000e+02 2.300000000000e+01 2.300061073881e+01 6.107388067456e-04 0.000000000000e+00 
6.000000000000e+02 4.000000000000e+02 1.800000000000e+01 1.800061073896e+01 6.107389560306e-04 0.000000000000e+00 
7.000000000000e+02 4.000000000000e+02 1.300000000000e+01 1.300061073929e+01 6.107392913695e-04 0.000000000000e+00 
8.000000000000e+02 4.000000000000e+02 8.000000000000e+00 8.000707482174e+00 7.074821738051e-04 0.000000000000e+00 
8.100000000000e+02 4.000000000000e+02 8.000000000000e+00 8.000610127123e+00 6.101271226679e-04 0.000000000000e+00 
0.000000000000e+00 5.000000000000e+02 5.000000000000e+01 5.000052205179e+01 5.220517897939e-04 0.000000000000e+00 
1.000000000000e+02 5.000000000000e+02 4.500000000000e+01 4.500060253200e+01 6.025319965559e-04 0.000000000000e+00 
2.000000000000e+02 5.000000000000e+02 4.000000000000e+01 4.000061009440e+01 6.100944010967e-04 0.000000000000e+00 
3.000000000000e+02 5.000000000000e+02 3.500000000000e+01 3.500061069479e+01 6.106947912627e-04 0.000000000000e+00 
4.000000000000e+02 5.000000000000e+02 3.000000000000e+01 3.000061073622e+01 6.107362233081e-04 0.000000000000e+00 
5.000000000000e+02 5.000000000000e+02 2.500000000000e+01 2.500061073881e+01 6.107388059355e-04 0.000000000000e+00 
6.000000000000e+02 5.000000000000e+02 2.000000000000e+01 2.000061073896e+01 6.107389552241e-04 0.000000000000e+00 
7.000000000000e+02 5.000000000000e+02 1.500000000000e+01 1.500061073929e+01 6.107392905630e-04 0.000000000000e+00 
8.000000000000e+02 5.000000000000e+02 1.000000000000e+01 1.000070748217e+01 7.074821728494e-04 0.000000000000e+00 
8.100000000000e+02 5.000000000000e+02 1.000000000000e+01 1.000061012712e+01 6.101271226679e-04 0.000000000000e+00 
0.000000000000e+00 6.000000000000e+02 5.200000000000e+01 5.200052205179e+01 5.220517880460e-04 0.000000000000e+00 
1.000000000000e+02 6.000000000000e+02 4.700000000000e+01 4.700060253197e+01 6.025319708485e-04 0.000000000000e+00 
2.000000000000e+02 6.000000000000e+02 4.200000000000e+01 4.200061009437e+01 6.100943681844e-04 0.000000000000e+00 
3.000000000000e+02 6.000000000000e+02 3.700000000000e+01 3.700061069476e+01 6.106947571496e-04 0.000000000000e+00 
4.000000000000e+02 6.000000000000e+02 3.200000000000e+01 3.200061073619e+01 6.107361890386e-04 0.000000000000e+00 
5.000000000000e+02 6.000000000000e+02 2.700000000000e+01 2.700061073877e+01 6.107387716519e-04 0.000000000000e+00 
6.000000000000e+02 6.000000000000e+02 2.200000000000e+01 2.200061073892e+01 6.107389209333e-04 0.000000000000e+00 
7.000000000000e+02 6.000000000000e+02 1.700000000000e+01 1.700061073926e+01 6.107392562704e-04 0.000000000000e+00 
8.000000000000e+02 6.000000000000e+02 1.200000000000e+01 1.200070748213e+01 7.074821343505e-04 0.000000000000e+00 
8.100000000000e+02 6.000000000000e+02 1.200000000000e+01 1.200061012712e+01 6.101271226502e-04 0.000000000000e+00 
0.000000000000e+00 7.000000000000e+02 5.400000000000e+01 5.400052205171e+01 5.220517082165e-04 0.000000000000e+00 
1.000000000000e+02 7.000000000000e+02 4.900000000000e+01 4.900060253091e+01 6.025309136675e-04 0.000000000000e+00 
2.000000000000e+02 7.000000000000e+02 4.400000000000e+01 4.400061009306e+01 6.100930594215e-04 0.000000000000e+00 
3.000000000000e+02 7.000000000000e+02 3.900000000000e+01 3.900061069341e+01 6.106934108345e-04 0.000000000000e+00 
4.000000000000e+02 7.000000000000e+02 3.400000000000e+01 3.400061073484e+01 6.107348385598e-04 0.000000000000e+00 
5.000000000000e+02 7.000000000000e+02 2.900000000000e+01 2.900061073742e+01 6.107374207893e-04 0.000000000000e+00 
6.000000000000e+02 7.000000000000e+02 2.400000000000e+01 2.400061073757e+01 6.107375700424e-04 0.000000000000e+00 
7.000000000000e+02 7.000000000000e+02 1.900000000000e+01 1.900061073791e+01 6.107379053688e-04 0.000000000000e+00 
8.000000000000e+02 7.000000000000e+02 1.400000000000e+01 1.400070748070e+01 7.074806999690e-04 0.000000000000e+00 
8.100000000000e+02 7.000000000000e+02 1.400000000000e+01 1.400061012712e+01 6.101271206234e-04 0.000000000000e+00 
0.000000000000e+00 8.000000000000e+02 5.600000000000e+01 5.600052204841e+01 5.220484108364e-04 0.000000000000e+00 
1.000000000000e+02 8.000000000000e+02 5.100000000000e+01 5.100060249154e+01 6.024915362133e-04 0.000000000000e+00 
2.000000000000e+02 8.000000000000e+02 4.600000000000e+01 4.600061004604e+01 6.100460350709e-04 0.000000000000e+00 
3.000000000000e+02 8.000000000000e+02 4.100000000000e+01 4.100061064539e+01 6.106453943886e-04 0.000000000000e+00 
4.000000000000e+02 8.000000000000e+02 3.600000000000e+01 3.600061068672e+01 6.106867241158e-04 0.000000000000e+00 
5.000000000000e+02 8.000000000000e+02 3.100000000000e+01 3.100061068930e+01 6.106892981954e-04 0.000000000000e+00 
6.000000000000e+02 8.000000000000e+02 2.600000000000e+01 2.600061068945e+01 6.106894468410e-04 0.000000000000e+00 
7.000000000000e+02 8.000000000000e+02 2.100000000000e+01 2.100061068978e+01 6.106897817872e-04 0.000000000000e+00 
8.000000000000e+02 8.000000000000e+02 1.600000000000e+01 1.600070743246e+01 7.074324615246e-04 0.000000000000e+00 
8.100000000000e+02 8.000000000000e+02 1.600000000000e+01 1.600061012675e+01 6.101267479330e-04 0.000000000000e+00 
0.000000000000e+00 9.000000000000e+02 5.800000000000e+01 5.800052192932e+01 5.219293169958e-04 0.000000000000e+00 
1.000000000000e+02 9.000000000000e+02 5.300000000000e+01 5.300060121290e+01 6.012128999231e-04 0.000000000000e+00 
2.000000000000e+02 9.000000000000e+02 4.800000000000e+01 4.800060858035e+01 6.085803522495e-04 0.000000000000e+00 
3.000000000000e+02 9.000000000000e+02 4.300000000000e+01 4.300060915938e+01 6.091593750099e-04 0.000000000000e+00 
4.000000000000e+02 9.000000000000e+02 3.800000000000e+01 3.800060919895e+01 6.091989501940e-04 0.000000000000e+00 
5.000000000000e+02 9.000000000000e+02 3.300000000000e+01 3.300060920139e+01 6.092013938073e-04 0.000000000000e+00 
6.000000000000e+02 9.000000000000e+02 2.800000000000e+01 2.800060920153e+01 6.092015337131e-04 0.000000000000e+00 
7.000000000000e+02 9.000000000000e+02 2.300000000000e+01 2.300060920186e+01 6.092018611845e-04 0.000000000000e+00 
8.000000000000e+02 9.000000000000e+02 1.800000000000e+01 1.800070602899e+01 7.060289945109e-04 0.000000000000e+00 
8.100000000000e+02 9.000000000000e+02 1.800000000000e+01 1.800061005912e+01 6.100591176441e-04 0.000000000000e+00 
0.000000000000e+00 1.000000000000e+03 6.000000000000e+01 6.000051838398e+01 5.183839804701e-04 0.000000000000e+00 
1.000000000000e+02 1.000000000000e+03 5.500000000000e+01 5.500056671570e+01 5.667156980778e-04 0.000000000000e+00 
2.000000000000e+02 1.000000000000e+03 5.000000000000e+01 5.000057098376e+01 5.709837563543e-04 0.000000000000e+00 
3.000000000000e+02 1.000000000000e+03 4.500000000000e+01 4.500057130018e+01 5.713001823864e-04 0.000000000000e+00 
4.000000000000e+02 1.000000000000e+03 4.000000000000e+01 4.000057132065e+01 5.713206478930e-04 0.000000000000e+00 
5.000000000000e+02 1.000000000000e+03 3.500000000000e+01 3.500057132185e+01 5.713218462589e-04 0.000000000000e+00 
6.000000000000e+02 1.000000000000e+03 3.000000000000e+01 3.000057132191e+01 5.713219113872e-04 0.000000000000e+00 
7.000000000000e+02 1.000000000000e+03 2.500000000000e+01 2.500057132214e+01 5.713221405124e-04 0.000000000000e+00 
8.000000000000e+02 1.000000000000e+03 2.000000000000e+01 2.000067282748e+01 6.728274814058e-04 0.000000000000e+00 
8.100000000000e+02 1.000000000000e+03 2.000000000000e+01 2.000059986111e+01 5.998611146580e-04 0.000000000000e+00 
1  2  11  1
2  12  11  2
2  3  12  2
3  13  12  3
3  4  13  3
4  14  13  4
4  5  14  4
5  15  14  5
5  6  15  5
6  16  15  6
6  7  16  6
7  17  16  7
7  8  17  7
8  18  17  8
8  9  18  8
9  19  18  9
11  12  21  11
12  22  21  12
12  13  22  12
13  23  22  13
13  14  23  13
14  24  23  14
14  15  24  14
15  25  24  15
15  16  25  15
16  26  25  16
16  17  26  16
17  27  26  17
17  18  27  17
18  28  27  18
18  19  28  18
19  29  28  19
21  22  31  21
22  32  31  22
22  23  32  22
23  33  32  23
23  24  33  23
24  34  33  24
24  25  34  24
25  35  34  25
25  26  35  25
26  36  35  26
26  27  36  26
27  37  36  27
27  28  37  27
28  38  37  28
28  29  38  28
29  39  38  29
31  32  41  31
32  42  41  32
32  33  42  32
33  43  42  33
33  34  43  33
34  44  43  34
34  35  44  34
35  45  44  35
35  36  45  35
36  46  45  36
36  37  46  36
37  47  46  37
37  38  47  37
38  48  47  38
38  39  48  38
39  49  48  39
41  42  51  41
42  52  51  42
42  43  52  42
43  53  52  43
43  44  53  43
44  54  53  44
44  45  54  44
45  55  54  45
45  46  55  45
46  56  55  46
46  47  56  46
47  57  56  47
47  48  57  47
48  58  57  48
48  49  58  48
49  59  58  49
51  52  61  51
52  62  61  52
52  53  62  52
53  63  62  53
53  54  63  53
54  64  63  54
54  55  64  54
55  65  64  55
55  56  65  55
56  66  65  56
56  57  66  56
57  67  66  57
57  58  67  57
58  68  67  58
58  59  68  58
59  69  68  59
61  62  71  61
62  72  71  62
62  63  72  62
63  73  72  63
63  64  73  63
64  74  73  64
64  65  74  64
65  75  74  65
65  66  75  65
66  76  75  66
66  67  76  66
67  77  76  67
67  68  77  67
68  78  77  68
68  69  78  68
69  79  78  69
71  72  81  71
72  82  81  72