 TITLE = "Time curves in points"
 VARIABLES = "TIME "  "HEAD"  "WDEPTH"  "FLUX" 
 ZONE T="POINT=POINT1"
0.000000000000e+00 1.000000000000e-06 0.000000000000e+00 0.000000000000e+00 
1.000000000000e+00 4.000992265577e-03 4.000992265577e-03 9.033435975518e-05 
2.000000000000e+00 8.000971731750e-03 8.000971731750e-03 2.873963604982e-04 
3.000000000000e+00 1.200093964681e-02 1.200093964681e-02 5.656168897703e-04 
4.000000000000e+00 1.600089973601e-02 1.600089973601e-02 9.144375654669e-04 
5.000000000000e+00 2.000085560854e-02 2.000085560854e-02 1.327345625102e-03 
6.000000000000e+00 2.400080954782e-02 2.400080954782e-02 1.799741476489e-03 
7.000000000000e+00 2.800076304051e-02 2.800076304051e-02 2.328126562427e-03 
8.000000000000e+00 3.200071613263e-02 3.200071613263e-02 2.909709313600e-03 
9.000000000000e+00 3.600066884648e-02 3.600066884648e-02 3.542187587570e-03 
1.000000000000e+01 4.000062116549e-02 4.000062116549e-02 4.223615265819e-03 
1.100000000000e+01 4.400057304957e-02 4.400057304957e-02 4.952315617536e-03 
1.200000000000e+01 4.800052444311e-02 4.800052444311e-02 5.726821992038e-03 
1.300000000000e+01 5.200047529048e-02 5.200047529048e-02 6.545835643100e-03 
1.400000000000e+01 5.600042651711e-02 5.600042651711e-02 7.408195382189e-03 
1.500000000000e+01 6.000037700064e-02 6.000037700064e-02 8.312851910334e-03 
1.600000000000e+01 6.400032709485e-02 6.400032709485e-02 9.258852436030e-03 
1.700000000000e+01 6.800027651584e-02 6.800027651584e-02 1.024532466457e-02 
1.800000000000e+01 7.200022618041e-02 7.200022618041e-02 1.127146702184e-02 
1.900000000000e+01 7.600017486007e-02 7.600017486007e-02 1.233653669775e-02 
2.000000000000e+01 8.000012389175e-02 8.000012389175e-02 1.343984596109e-02 
2.100000000000e+01 8.400007266363e-02 8.400007266363e-02 1.458075208254e-02 
2.200000000000e+01 8.800002109248e-02 8.800002109248e-02 1.575865422163e-02 
2.300000000000e+01 9.199996928688e-02 9.199996928688e-02 1.697298856924e-02 
2.400000000000e+01 9.599991729906e-02 9.599991729906e-02 1.822322439911e-02 
2.500000000000e+01 9.999986514060e-02 9.999986514060e-02 1.950886081521e-02 
2.600000000000e+01 1.039998127790e-01 1.039998127790e-01 2.082942391850e-02 
2.700000000000e+01 1.079997601690e-01 1.079997601690e-01 2.218446436592e-02 
2.800000000000e+01 1.119997074351e-01 1.119997074351e-01 2.357355539676e-02 
2.900000000000e+01 1.159996546747e-01 1.159996546747e-01 2.499629079004e-02 
3.000000000000e+01 1.199996017896e-01 1.199996017896e-01 2.645228296760e-02 
3.100000000000e+01 1.239995486813e-01 1.239995486813e-01 2.794116177153e-02 
3.200000000000e+01 1.279994954447e-01 1.279994954447e-01 2.946257326432e-02 
3.300000000000e+01 1.319994420698e-01 1.319994420698e-01 3.101617828583e-02 
3.400000000000e+01 1.359993885318e-01 1.359993885318e-01 3.260165147985e-02 
3.500000000000e+01 1.399993348520e-01 1.399993348520e-01 3.421868042940e-02 
3.600000000000e+01 1.439992809655e-01 1.439992809655e-01 3.586696462812e-02 
3.700000000000e+01 1.479992267268e-01 1.479992267268e-01 3.754621476003e-02 
3.800000000000e+01 1.519991718175e-01 1.519991718175e-01 3.925615193467e-02 
3.900000000000e+01 1.559991155794e-01 1.559991155794e-01 4.099650696966e-02 
4.000000000000e+01 1.599990566035e-01 1.599990566035e-01 4.276701959790e-02 
4.100000000000e+01 1.639989920972e-01 1.639989920972e-01 4.456743760964e-02 
4.200000000000e+01 1.679989167629e-01 1.679989167629e-01 4.639751581642e-02 
4.300000000000e+01 1.719988208150e-01 1.719988208150e-01 4.825701457062e-02 
4.400000000000e+01 1.759986866252e-01 1.759986866252e-01 5.014569736534e-02 
4.500000000000e+01 1.799984846114e-01 1.799984846114e-01 5.206332870245e-02 
4.600000000000e+01 1.839981656820e-01 1.839981656820e-01 5.400966898364e-02 
4.700000000000e+01 1.879976519241e-01 1.879976519241e-01 5.598446916439e-02 
4.800000000000e+01 1.919968236879e-01 1.919968236879e-01 5.798746281965e-02 
4.900000000000e+01 1.959955030879e-01 1.959955030879e-01 6.001835594940e-02 
5.000000000000e+01 1.999934337448e-01 1.999934337448e-01 6.207681433956e-02 
5.100000000000e+01 2.039902563954e-01 2.039902563954e-01 6.416244738202e-02 
5.200000000000e+01 2.079854824968e-01 2.079854824968e-01 6.627479112329e-02 
5.300000000000e+01 2.119784639487e-01 2.119784639487e-01 6.841328672643e-02 
5.400000000000e+01 2.159683631899e-01 2.159683631899e-01 7.057725911111e-02 
5.500000000000e+01 2.199541233504e-01 2.199541233504e-01 7.276589420795e-02 
5.600000000000e+01 2.239344409824e-01 2.239344409824e-01 7.497821660500e-02 
5.700000000000e+01 2.279077431401e-01 2.279077431401e-01 7.721306875388e-02 
5.800000000000e+01 2.318721707594e-01 2.318721707594e-01 7.946909311907e-02 
5.900000000000e+01 2.358255696868e-01 2.358255696868e-01 8.174471829643e-02 
6.000000000000e+01 2.397654906000e-01 2.397654906000e-01 8.403815012723e-02 
6.100000000000e+01 2.436891983409e-01 2.436891983409e-01 8.634736939808e-02 
6.200000000000e+01 2.475936912598e-01 2.475936912598e-01 8.867013475906e-02 
6.300000000000e+01 2.514757294407e-01 2.514757294407e-01 9.100399321174e-02 
6.400000000000e+01 2.553318708504e-01 2.553318708504e-01 9.334629692035e-02 
6.500000000000e+01 2.591585152129e-01 2.591585152129e-01 9.569422566380e-02 
6.600000000000e+01 2.629519514178e-01 2.629519514178e-01 9.804481301764e-02 
6.700000000000e+01 2.667084101095e-01 2.667084101095e-01 1.003949802158e-01 
6.800000000000e+01 2.704241159982e-01 2.704241159982e-01 1.027415695816e-01 
6.900000000000e+01 2.740953387913e-01 2.740953387913e-01 1.050813781429e-01 
7.000000000000e+01 2.777184450462e-01 2.777184450462e-01 1.074111991537e-01 
7.100000000000e+01 2.812899426290e-01 2.812899426290e-01 1.097278535266e-01 
7.200000000000e+01 2.848065216065e-01 2.848065216065e-01 1.120282246032e-01 
7.300000000000e+01 2.882650897820e-01 2.882650897820e-01 1.143092903287e-01 
7.400000000000e+01 2.916628017137e-01 2.916628017137e-01 1.165681510717e-01 
7.500000000000e+01 2.949970804182e-01 2.949970804182e-01 1.188020520279e-01 
7.600000000000e+01 2.982656348216e-01 2.982656348216e-01 1.210084082423e-01 
7.700000000000e+01 3.014664678739e-01 3.014664678739e-01 1.231848147402e-01 
7.800000000000e+01 3.045978816797e-01 3.045978816797e-01 1.253290622498e-01 
7.900000000000e+01 3.076584765408e-01 3.076584765408e-01 1.274391454057e-01 
8.000000000000e+01 3.106471457273e-01 3.106471457273e-01 1.295132655804e-01 
8.100000000000e+01 3.135630660902e-01 3.135630660902e-01 1.315498331530e-01 
8.200000000000e+01 3.164056857905e-01 3.164056857905e-01 1.335474649038e-01 
8.300000000000e+01 3.191747102625e-01 3.191747102625e-01 1.355049818149e-01 
8.400000000000e+01 3.218700852904e-01 3.218700852904e-01 1.374214009200e-01 
8.500000000000e+01 3.244919796062e-01 3.244919796062e-01 1.392959270374e-01 
8.600000000000e+01 3.270407666845e-01 3.270407666845e-01 1.411279453953e-01 
8.700000000000e+01 3.295170057882e-01 3.295170057882e-01 1.429170088260e-01 
8.800000000000e+01 3.319214236540e-01 3.319214236540e-01 1.446628290790e-01 
8.900000000000e+01 3.342548962397e-01 3.342548962397e-01 1.463652637095e-01 
9.000000000000e+01 3.365184307525e-01 3.365184307525e-01 1.480243045465e-01 
9.100000000000e+01 3.387131490610e-01 3.387131490610e-01 1.496400662115e-01 
9.200000000000e+01 3.408402718767e-01 3.408402718767e-01 1.512127763061e-01 
9.300000000000e+01 3.429011033750e-01 3.429011033750e-01 1.527427614043e-01 
9.400000000000e+01 3.448970179059e-01 3.448970179059e-01 1.542304399331e-01 
9.500000000000e+01 3.468294462384e-01 3.468294462384e-01 1.556763075545e-01 
9.600000000000e+01 3.486998644126e-01 3.486998644126e-01 1.570809307666e-01 
9.700000000000e+01 3.505097829449e-01 3.505097829449e-01 1.584449376341e-01 
9.800000000000e+01 3.522607370152e-01 3.522607370152e-01 1.597690077627e-01 
9.900000000000e+01 3.539542778257e-01 3.539542778257e-01 1.610538656654e-01 
1.000000000000e+02 3.555919647621e-01 3.555919647621e-01 1.623002730085e-01 
1.010000000000e+02 3.571753588406e-01 3.571753588406e-01 1.635090244156e-01 
1.020000000000e+02 3.587060162262e-01 3.587060162262e-01 1.646809357738e-01 
1.030000000000e+02 3.601854827358e-01 3.601854827358e-01 1.658168435218e-01 
1.040000000000e+02 3.616152898215e-01 3.616152898215e-01 1.669175997186e-01 
1.050000000000e+02 3.629969500300e-01 3.629969500300e-01 1.679840636584e-01 
1.060000000000e+02 3.643319540710e-01 3.643319540710e-01 1.690171026598e-01 
1.070000000000e+02 3.656217675748e-01 3.656217675748e-01 1.700175850604e-01 
1.080000000000e+02 3.668678288079e-01 3.668678288079e-01 1.709863785780e-01 
1.090000000000e+02 3.680715467088e-01 3.680715467088e-01 1.719243471015e-01 
1.100000000000e+02 3.692342994136e-01 3.692342994136e-01 1.728323490580e-01 
1.110000000000e+02 3.703574325085e-01 3.703574325085e-01 1.737112323622e-01 
1.120000000000e+02 3.714422585760e-01 3.714422585760e-01 1.745618364780e-01 
1.130000000000e+02 3.724900564569e-01 3.724900564569e-01 1.753849890657e-01 
1.140000000000e+02 3.735020706075e-01 3.735020706075e-01 1.761815041538e-01 
1.150000000000e+02 3.744795109255e-01 3.744795109255e-01 1.769521816192e-01 
1.160000000000e+02 3.754235526786e-01 3.754235526786e-01 1.776978060880e-01 
1.170000000000e+02 3.763353365785e-01 3.763353365785e-01 1.784191461743e-01 
1.180000000000e+02 3.772159689971e-01 3.772159689971e-01 1.791169538781e-01 
1.190000000000e+02 3.780665223403e-01 3.780665223403e-01 1.797919643629e-01 
1.200000000000e+02 3.788880353419e-01 3.788880353419e-01 1.804448943933e-01 
1.210000000000e+02 3.796815136917e-01 3.796815136917e-01 1.810764438878e-01 
1.220000000000e+02 3.804479305962e-01 3.804479305962e-01 1.816872945710e-01 
1.230000000000e+02 3.811882273959e-01 3.811882273959e-01 1.822781102337e-01 
1.240000000000e+02 3.819033142447e-01 3.819033142447e-01 1.828495366754e-01 
1.250000000000e+02 3.825940708208e-01 3.825940708208e-01 1.834022018144e-01 
1.260000000000e+02 3.832613470727e-01 3.832613470727e-01 1.839367157735e-01 
1.270000000000e+02 3.839059639779e-01 3.839059639779e-01 1.844536710815e-01 
1.280000000000e+02 3.845287143263e-01 3.845287143263e-01 1.849536428612e-01 
1.290000000000e+02 3.851303635016e-01 3.851303635016e-01 1.854371891005e-01 
1.300000000000e+02 3.857116502745e-01 3.857116502745e-01 1.859048509016e-01 
1.310000000000e+02 3.862732875931e-01 3.862732875931e-01 1.863571528090e-01 
1.320000000000e+02 3.868159633713e-01 3.868159633713e-01 1.867946031258e-01 
1.330000000000e+02 3.873403413014e-01 3.873403413014e-01 1.872176943093e-01 
1.340000000000e+02 3.878470614868e-01 3.878470614868e-01 1.876269030743e-01 
1.350000000000e+02 3.883367414241e-01 3.883367414241e-01 1.880226911350e-01 
1.360000000000e+02 3.888099765953e-01 3.888099765953e-01 1.884055053252e-01 
1.370000000000e+02 3.892673412444e-01 3.892673412444e-01 1.887757780487e-01 
1.380000000000e+02 3.897093890914e-01 3.897093890914e-01 1.891339276285e-01 
1.390000000000e+02 3.901366540357e-01 3.901366540357e-01 1.894803587039e-01 
1.400000000000e+02 3.905496508541e-01 3.905496508541e-01 1.898154626500e-01 
1.410000000000e+02 3.909488758366e-01 3.909488758366e-01 1.901396176997e-01 
1.420000000000e+02 3.913348074448e-01 3.913348074448e-01 1.904531900338e-01 
1.430000000000e+02 3.917079070151e-01 3.917079070151e-01 1.907565331968e-01 
1.440000000000e+02 3.920686192656e-01 3.920686192656e-01 1.910499890648e-01 
1.450000000000e+02 3.924173729287e-01 3.924173729287e-01 1.913338880500e-01 
1.460000000000e+02 3.927545813313e-01 3.927545813313e-01 1.916085494673e-01 
1.470000000000e+02 3.930806429517e-01 3.930806429517e-01 1.918742818774e-01 
1.480000000000e+02 3.933959419576e-01 3.933959419576e-01 1.921313834385e-01 
1.490000000000e+02 3.937008487291e-01 3.937008487291e-01 1.923801422215e-01 
1.500000000000e+02 3.939957203662e-01 3.939957203662e-01 1.926208365773e-01 
1.510000000000e+02 3.942809011641e-01 3.942809011641e-01 1.928537353889e-01 
1.520000000000e+02 3.945567231060e-01 3.945567231060e-01 1.930790985960e-01 
1.530000000000e+02 3.948235062726e-01 3.948235062726e-01 1.932971768306e-01 
1.540000000000e+02 3.950815592990e-01 3.950815592990e-01 1.935082126389e-01 
1.550000000000e+02 3.953311798170e-01 3.953311798170e-01 1.937124401882e-01 
1.560000000000e+02 3.955726548481e-01 3.955726548481e-01 1.939100856772e-01 
1.570000000000e+02 3.958062611932e-01 3.958062611932e-01 1.941013676090e-01 
1.580000000000e+02 3.960322658108e-01 3.960322658108e-01 1.942864970419e-01 
1.590000000000e+02 3.962509261791e-01 3.962509261791e-01 1.944656778530e-01 
1.600000000000e+02 3.964624906467e-01 3.964624906467e-01 1.946391069734e-01 
1.610000000000e+02 3.966671987706e-01 3.966671987706e-01 1.948069746354e-01 
1.620000000000e+02 3.968652816387e-01 3.968652816387e-01 1.949694645933e-01 
1.630000000000e+02 3.970569621841e-01 3.970569621841e-01 1.951267543524e-01 
1.640000000000e+02 3.972424554846e-01 3.972424554846e-01 1.952790153806e-01 
1.650000000000e+02 3.974219690529e-01 3.974219690529e-01 1.954264133189e-01 
1.660000000000e+02 3.975957031149e-01 3.975957031149e-01 1.955691081829e-01 
1.670000000000e+02 3.977638508765e-01 3.977638508765e-01 1.957072545526e-01 
1.680000000000e+02 3.979265987828e-01 3.979265987828e-01 1.958410017684e-01 
1.690000000000e+02 3.980841267668e-01 3.980841267668e-01 1.959704941074e-01 
1.700000000000e+02 3.982366084859e-01 3.982366084859e-01 1.960958709597e-01 
1.710000000000e+02 3.983842115530e-01 3.983842115530e-01 1.962172670010e-01 
1.720000000000e+02 3.985270977571e-01 3.985270977571e-01 1.963348123505e-01 
1.730000000000e+02 3.986654232753e-01 3.986654232753e-01 1.964486327349e-01 
1.740000000000e+02 3.987993388780e-01 3.987993388780e-01 1.965588496377e-01 
1.750000000000e+02 3.989289901256e-01 3.989289901256e-01 1.966655804478e-01 
1.760000000000e+02 3.990545175631e-01 3.990545175631e-01 1.967689386258e-01 
1.770000000000e+02 3.991760568771e-01 3.991760568771e-01 1.968690337374e-01 
1.780000000000e+02 3.992937391087e-01 3.992937391087e-01 1.969659717471e-01 
1.790000000000e+02 3.994076907988e-01 3.994076907988e-01 1.970598550387e-01 
1.800000000000e+02 3.995180341546e-01 3.995180341546e-01 1.971507825623e-01 
1.810000000000e+02 3.996248872061e-01 3.996248872061e-01 1.972388499561e-01 
1.820000000000e+02 3.997283639566e-01 3.997283639566e-01 1.973241496605e-01 
1.830000000000e+02 3.998285745256e-01 3.998285745256e-01 1.974067710263e-01 
1.840000000000e+02 3.999256252885e-01 3.999256252885e-01 1.974868004223e-01 
1.850000000000e+02 4.000196190083e-01 4.000196190083e-01 1.975643213275e-01 
1.860000000000e+02 4.001106549660e-01 4.001106549660e-01 1.976394144480e-01 
1.870000000000e+02 4.001988290910e-01 4.001988290910e-01 1.977121578297e-01 
1.880000000000e+02 4.002842340634e-01 4.002842340634e-01 1.977826268702e-01 
1.890000000000e+02 4.003669594687e-01 4.003669594687e-01 1.978508946010e-01 
1.900000000000e+02 4.004470918364e-01 4.004470918364e-01 1.979170314501e-01 
1.910000000000e+02 4.005247148242e-01 4.005247148242e-01 1.979811056541e-01 
1.920000000000e+02 4.005999092725e-01 4.005999092725e-01 1.980431831327e-01 
1.930000000000e+02 4.006727533123e-01 4.006727533123e-01 1.981033276527e-01 
1.940000000000e+02 4.007433224656e-01 4.007433224656e-01 1.981616008598e-01 
1.950000000000e+02 4.008116897410e-01 4.008116897410e-01 1.982180623996e-01 
1.960000000000e+02 4.008779257120e-01 4.008779257120e-01 1.982727699352e-01 
1.970000000000e+02 4.009420986066e-01 4.009420986066e-01 1.983257792449e-01 
1.980000000000e+02 4.010042743879e-01 4.010042743879e-01 1.983771442774e-01 
1.990000000000e+02 4.010645168339e-01 4.010645168339e-01 1.984269172155e-01 
2.000000000000e+02 4.011228876120e-01 4.011228876120e-01 1.984751485353e-01 
2.010000000000e+02 4.011794463530e-01 4.011794463530e-01 1.985218870641e-01 
2.020000000000e+02 4.012342507208e-01 4.012342507208e-01 1.985671800359e-01 
2.030000000000e+02 4.012873564807e-01 4.012873564807e-01 1.986110731468e-01 
2.040000000000e+02 4.013388175644e-01 4.013388175644e-01 1.986536106045e-01 
2.050000000000e+02 4.013886861333e-01 4.013886861333e-01 1.986948351808e-01 
2.060000000000e+02 4.014370126388e-01 4.014370126388e-01 1.987347882584e-01 
2.070000000000e+02 4.014838458812e-01 4.014838458812e-01 1.987735098788e-01 
2.080000000000e+02 4.015292330658e-01 4.015292330658e-01 1.988110387861e-01 
2.090000000000e+02 4.015732198577e-01 4.015732198577e-01 1.988474124718e-01 
2.100000000000e+02 4.016158504342e-01 4.016158504342e-01 1.988826672173e-01 
2.110000000000e+02 4.016571675340e-01 4.016571675340e-01 1.989168381294e-01 
2.120000000000e+02 4.016972125078e-01 4.016972125078e-01 1.989499591865e-01 
2.130000000000e+02 4.017360253644e-01 4.017360253644e-01 1.989820632729e-01 
2.140000000000e+02 4.017736448162e-01 4.017736448162e-01 1.990131822144e-01 
2.150000000000e+02 4.018101083228e-01 4.018101083228e-01 1.990433468150e-01 
2.160000000000e+02 4.018454521332e-01 4.018454521332e-01 1.990725868903e-01 
2.170000000000e+02 4.018797113265e-01 4.018797113265e-01 1.991009313002e-01 
2.180000000000e+02 4.019129198547e-01 4.019129198547e-01 1.991284079888e-01 
2.190000000000e+02 4.019451105669e-01 4.019451105669e-01 1.991550439830e-01 
2.200000000000e+02 4.019763152651e-01 4.019763152651e-01 1.991808654678e-01 
2.210000000000e+02 4.020065647289e-01 4.020065647289e-01 1.992058977905e-01 
2.220000000000e+02 4.020358887493e-01 4.020358887493e-01 1.992301654829e-01 
2.230000000000e+02 4.020643161643e-01 4.020643161643e-01 1.992536923033e-01 
2.240000000000e+02 4.020918748882e-01 4.020918748882e-01 1.992765012471e-01 
2.250000000000e+02 4.021185919446e-01 4.021185919446e-01 1.992986145859e-01 
2.260000000000e+02 4.021444934939e-01 4.021444934939e-01 1.993200538785e-01 
2.270000000000e+02 4.021696048629e-01 4.021696048629e-01 1.993408400030e-01 
2.280000000000e+02 4.021939505721e-01 4.021939505721e-01 1.993609931761e-01 
2.290000000000e+02 4.022175543621e-01 4.022175543621e-01 1.993805329738e-01 
2.300000000000e+02 4.022404392196e-01 4.022404392196e-01 1.993994783541e-01 
2.310000000000e+02 4.022626274016e-01 4.022626274016e-01 1.994178476755e-01 
2.320000000000e+02 4.022841404601e-01 4.022841404601e-01 1.994356587176e-01 
2.330000000000e+02 4.023049992643e-01 4.023049992643e-01 1.994529286995e-01 
2.340000000000e+02 4.023252240237e-01 4.023252240237e-01 1.994696742978e-01 
2.350000000000e+02 4.023448343091e-01 4.023448343091e-01 1.994859116648e-01 
2.360000000000e+02 4.023638490738e-01 4.023638490738e-01 1.995016564444e-01 
2.370000000000e+02 4.023822866733e-01 4.023822866733e-01 1.995169237898e-01 
2.380000000000e+02 4.024001648851e-01 4.024001648851e-01 1.995317283783e-01 
2.390000000000e+02 4.024175009275e-01 4.024175009275e-01 1.995460844274e-01 
2.400000000000e+02 4.024343114772e-01 4.024343114772e-01 1.995600057088e-01 
