 TITLE = "Time curves in points"
 VARIABLES = "TIME "  "HEAD"  "WDEPTH"  "FLUX" 
 ZONE T="POINT=POINT1"
0.000000000000e+00 1.000000000000e-06 0.000000000000e+00 0.000000000000e+00 
1.000000000000e+00 4.000992265577e-03 4.000992265577e-03 9.033435975518e-05 
2.000000000000e+00 8.000971731750e-03 8.000971731750e-03 2.873963604982e-04 
3.000000000000e+00 1.200093964681e-02 1.200093964681e-02 5.656168897701e-04 
4.000000000000e+00 1.600089973601e-02 1.600089973601e-02 9.144375654671e-04 
5.000000000000e+00 2.000085560854e-02 2.000085560854e-02 1.327345625103e-03 
6.000000000000e+00 2.400080954782e-02 2.400080954782e-02 1.799741476490e-03 
7.000000000000e+00 2.800076304051e-02 2.800076304051e-02 2.328126562426e-03 
8.000000000000e+00 3.200071613262e-02 3.200071613262e-02 2.909709313598e-03 
9.000000000000e+00 3.600066884648e-02 3.600066884648e-02 3.542187587567e-03 
1.000000000000e+01 4.000062116549e-02 4.000062116549e-02 4.223615265823e-03 
1.100000000000e+01 4.400057304957e-02 4.400057304957e-02 4.952315617531e-03 
1.200000000000e+01 4.800052444311e-02 4.800052444311e-02 5.726821992039e-03 
1.300000000000e+01 5.200047529052e-02 5.200047529052e-02 6.545835643128e-03 
1.400000000000e+01 5.600042651712e-02 5.600042651712e-02 7.408195382179e-03 
1.500000000000e+01 6.000037700061e-02 6.000037700061e-02 8.312851910314e-03 
1.600000000000e+01 6.400032709480e-02 6.400032709480e-02 9.258852436003e-03 
1.700000000000e+01 6.800027651582e-02 6.800027651582e-02 1.024532466456e-02 
1.800000000000e+01 7.200022618040e-02 7.200022618040e-02 1.127146702183e-02 
1.900000000000e+01 7.600017486009e-02 7.600017486009e-02 1.233653669775e-02 
2.000000000000e+01 8.000012389184e-02 8.000012389184e-02 1.343984596116e-02 
2.100000000000e+01 8.400007266361e-02 8.400007266361e-02 1.458075208253e-02 
2.200000000000e+01 8.800002109254e-02 8.800002109254e-02 1.575865422173e-02 
2.300000000000e+01 9.199996928692e-02 9.199996928692e-02 1.697298856928e-02 
2.400000000000e+01 9.599991729904e-02 9.599991729904e-02 1.822322439907e-02 
2.500000000000e+01 9.999986514055e-02 9.999986514055e-02 1.950886081517e-02 
2.600000000000e+01 1.039998127790e-01 1.039998127790e-01 2.082942391849e-02 
2.700000000000e+01 1.079997601691e-01 1.079997601691e-01 2.218446436615e-02 
2.800000000000e+01 1.119997074352e-01 1.119997074352e-01 2.357355539695e-02 
2.900000000000e+01 1.159996546747e-01 1.159996546747e-01 2.499629078995e-02 
3.000000000000e+01 1.199996017896e-01 1.199996017896e-01 2.645228296764e-02 
3.100000000000e+01 1.239995486812e-01 1.239995486812e-01 2.794116177144e-02 
3.200000000000e+01 1.279994954445e-01 1.279994954445e-01 2.946257326423e-02 
3.300000000000e+01 1.319994420699e-01 1.319994420699e-01 3.101617828599e-02 
3.400000000000e+01 1.359993885319e-01 1.359993885319e-01 3.260165147982e-02 
3.500000000000e+01 1.399993348521e-01 1.399993348521e-01 3.421868042971e-02 
3.600000000000e+01 1.439992809653e-01 1.439992809653e-01 3.586696462806e-02 
3.700000000000e+01 1.479992267268e-01 1.479992267268e-01 3.754621475997e-02 
3.800000000000e+01 1.519991718178e-01 1.519991718178e-01 3.925615193493e-02 
3.900000000000e+01 1.559991155793e-01 1.559991155793e-01 4.099650696934e-02 
4.000000000000e+01 1.599990566035e-01 1.599990566035e-01 4.276701959815e-02 
4.100000000000e+01 1.639989920973e-01 1.639989920973e-01 4.456743761001e-02 
4.200000000000e+01 1.679989167625e-01 1.679989167625e-01 4.639751581582e-02 
4.300000000000e+01 1.719988208146e-01 1.719988208146e-01 4.825701456980e-02 
4.400000000000e+01 1.759986866252e-01 1.759986866252e-01 5.014569736527e-02 
4.500000000000e+01 1.799984846112e-01 1.799984846112e-01 5.206332870232e-02 
4.600000000000e+01 1.839981656824e-01 1.839981656824e-01 5.400966898421e-02 
4.700000000000e+01 1.879976519245e-01 1.879976519245e-01 5.598446916476e-02 
4.800000000000e+01 1.919968236879e-01 1.919968236879e-01 5.798746281982e-02 
4.900000000000e+01 1.959955030880e-01 1.959955030880e-01 6.001835594904e-02 
5.000000000000e+01 1.999934337448e-01 1.999934337448e-01 6.207681433961e-02 
5.100000000000e+01 2.039902563952e-01 2.039902563952e-01 6.416244738201e-02 
5.200000000000e+01 2.079854824972e-01 2.079854824972e-01 6.627479112394e-02 
5.300000000000e+01 2.119784639484e-01 2.119784639484e-01 6.841328672619e-02 
5.400000000000e+01 2.159683631890e-01 2.159683631890e-01 7.057725910970e-02 
5.500000000000e+01 2.199541233504e-01 2.199541233504e-01 7.276589420806e-02 
5.600000000000e+01 2.239344409823e-01 2.239344409823e-01 7.497821660545e-02 
5.700000000000e+01 2.279077431404e-01 2.279077431404e-01 7.721306875398e-02 
5.800000000000e+01 2.318721707594e-01 2.318721707594e-01 7.946909311888e-02 
5.900000000000e+01 2.358255696871e-01 2.358255696871e-01 8.174471829675e-02 
6.000000000000e+01 2.397654906012e-01 2.397654906012e-01 8.403815013061e-02 
6.100000000000e+01 2.436891983417e-01 2.436891983417e-01 8.634736939819e-02 
6.200000000000e+01 2.475936912600e-01 2.475936912600e-01 8.867013475903e-02 
6.300000000000e+01 2.514757294410e-01 2.514757294410e-01 9.100399321178e-02 
6.400000000000e+01 2.553318708513e-01 2.553318708513e-01 9.334629692237e-02 
6.500000000000e+01 2.591585152131e-01 2.591585152131e-01 9.569422566407e-02 
6.600000000000e+01 2.629519514171e-01 2.629519514171e-01 9.804481301595e-02 
6.700000000000e+01 2.667084101097e-01 2.667084101097e-01 1.003949802183e-01 
6.800000000000e+01 2.704241159981e-01 2.704241159981e-01 1.027415695810e-01 
6.900000000000e+01 2.740953387907e-01 2.740953387907e-01 1.050813781409e-01 
7.000000000000e+01 2.777184450446e-01 2.777184450446e-01 1.074111991515e-01 
7.100000000000e+01 2.812899426278e-01 2.812899426278e-01 1.097278535249e-01 
7.200000000000e+01 2.848065216049e-01 2.848065216049e-01 1.120282246010e-01 
7.300000000000e+01 2.882650897823e-01 2.882650897823e-01 1.143092903300e-01 
7.400000000000e+01 2.916628017138e-01 2.916628017138e-01 1.165681510708e-01 
7.500000000000e+01 2.949970804190e-01 2.949970804190e-01 1.188020520294e-01 
7.600000000000e+01 2.982656348231e-01 2.982656348231e-01 1.210084082454e-01 
7.700000000000e+01 3.014664678749e-01 3.014664678749e-01 1.231848147420e-01 
7.800000000000e+01 3.045978816790e-01 3.045978816790e-01 1.253290622486e-01 
7.900000000000e+01 3.076584765407e-01 3.076584765407e-01 1.274391454052e-01 
8.000000000000e+01 3.106471457278e-01 3.106471457278e-01 1.295132655817e-01 
8.100000000000e+01 3.135630660908e-01 3.135630660908e-01 1.315498331527e-01 
8.200000000000e+01 3.164056857912e-01 3.164056857912e-01 1.335474649057e-01 
8.300000000000e+01 3.191747102630e-01 3.191747102630e-01 1.355049818163e-01 
8.400000000000e+01 3.218700852910e-01 3.218700852910e-01 1.374214009227e-01 
8.500000000000e+01 3.244919796064e-01 3.244919796064e-01 1.392959270373e-01 
8.600000000000e+01 3.270407666851e-01 3.270407666851e-01 1.411279453979e-01 
8.700000000000e+01 3.295170057891e-01 3.295170057891e-01 1.429170088268e-01 
8.800000000000e+01 3.319214236545e-01 3.319214236545e-01 1.446628290812e-01 
8.900000000000e+01 3.342548962400e-01 3.342548962400e-01 1.463652637107e-01 
9.000000000000e+01 3.365184307523e-01 3.365184307523e-01 1.480243045459e-01 
9.100000000000e+01 3.387131490615e-01 3.387131490615e-01 1.496400662130e-01 
9.200000000000e+01 3.408402718765e-01 3.408402718765e-01 1.512127763060e-01 
9.300000000000e+01 3.429011033737e-01 3.429011033737e-01 1.527427614020e-01 
9.400000000000e+01 3.448970179044e-01 3.448970179044e-01 1.542304399314e-01 
9.500000000000e+01 3.468294462382e-01 3.468294462382e-01 1.556763075546e-01 
9.600000000000e+01 3.486998644130e-01 3.486998644130e-01 1.570809307671e-01 
9.700000000000e+01 3.505097829453e-01 3.505097829453e-01 1.584449376358e-01 
9.800000000000e+01 3.522607370157e-01 3.522607370157e-01 1.597690077457e-01 
9.900000000000e+01 3.539542778257e-01 3.539542778257e-01 1.610538656661e-01 
1.000000000000e+02 3.555919647606e-01 3.555919647606e-01 1.623002730068e-01 
1.010000000000e+02 3.571753588401e-01 3.571753588401e-01 1.635090244156e-01 
1.020000000000e+02 3.587060162252e-01 3.587060162252e-01 1.646809357730e-01 
1.030000000000e+02 3.601854827372e-01 3.601854827372e-01 1.658168435251e-01 
1.040000000000e+02 3.616152898216e-01 3.616152898216e-01 1.669175997188e-01 
1.050000000000e+02 3.629969500298e-01 3.629969500298e-01 1.679840636583e-01 
1.060000000000e+02 3.643319540707e-01 3.643319540707e-01 1.690171026593e-01 
1.070000000000e+02 3.656217675736e-01 3.656217675736e-01 1.700175850586e-01 
1.080000000000e+02 3.668678288084e-01 3.668678288084e-01 1.709863785802e-01 
1.090000000000e+02 3.680715467089e-01 3.680715467089e-01 1.719243471020e-01 
1.100000000000e+02 3.692342994145e-01 3.692342994145e-01 1.728323490603e-01 
1.110000000000e+02 3.703574325085e-01 3.703574325085e-01 1.737112323627e-01 
1.120000000000e+02 3.714422585763e-01 3.714422585763e-01 1.745618364782e-01 
1.130000000000e+02 3.724900564568e-01 3.724900564568e-01 1.753849890660e-01 
1.140000000000e+02 3.735020706066e-01 3.735020706066e-01 1.761815041525e-01 
1.150000000000e+02 3.744795109255e-01 3.744795109255e-01 1.769521816188e-01 
1.160000000000e+02 3.754235526781e-01 3.754235526781e-01 1.776978060876e-01 
1.170000000000e+02 3.763353365779e-01 3.763353365779e-01 1.784191461741e-01 
1.180000000000e+02 3.772159689971e-01 3.772159689971e-01 1.791169538786e-01 
1.190000000000e+02 3.780665223404e-01 3.780665223404e-01 1.797919643626e-01 
1.200000000000e+02 3.788880353419e-01 3.788880353419e-01 1.804448943934e-01 
1.210000000000e+02 3.796815136917e-01 3.796815136917e-01 1.810764438879e-01 
1.220000000000e+02 3.804479305962e-01 3.804479305962e-01 1.816872945708e-01 
1.230000000000e+02 3.811882273958e-01 3.811882273958e-01 1.822781102336e-01 
1.240000000000e+02 3.819033142441e-01 3.819033142441e-01 1.828495366738e-01 
1.250000000000e+02 3.825940708200e-01 3.825940708200e-01 1.834022018132e-01 
1.260000000000e+02 3.832613470721e-01 3.832613470721e-01 1.839367157726e-01 
1.270000000000e+02 3.839059639781e-01 3.839059639781e-01 1.844536710827e-01 
1.280000000000e+02 3.845287143263e-01 3.845287143263e-01 1.849536428609e-01 
1.290000000000e+02 3.851303635019e-01 3.851303635019e-01 1.854371891011e-01 
1.300000000000e+02 3.857116502743e-01 3.857116502743e-01 1.859048509012e-01 
1.310000000000e+02 3.862732875935e-01 3.862732875935e-01 1.863571528104e-01 
1.320000000000e+02 3.868159633712e-01 3.868159633712e-01 1.867946031255e-01 
1.330000000000e+02 3.873403413014e-01 3.873403413014e-01 1.872176943094e-01 
1.340000000000e+02 3.878470614868e-01 3.878470614868e-01 1.876269030741e-01 
1.350000000000e+02 3.883367414241e-01 3.883367414241e-01 1.880226911350e-01 
1.360000000000e+02 3.888099765952e-01 3.888099765952e-01 1.884055053250e-01 
1.370000000000e+02 3.892673412445e-01 3.892673412445e-01 1.887757780492e-01 
1.380000000000e+02 3.897093890913e-01 3.897093890913e-01 1.891339276280e-01 
1.390000000000e+02 3.901366540353e-01 3.901366540353e-01 1.894803587030e-01 
1.400000000000e+02 3.905496508539e-01 3.905496508539e-01 1.898154626500e-01 
1.410000000000e+02 3.909488758364e-01 3.909488758364e-01 1.901396176991e-01 
1.420000000000e+02 3.913348074447e-01 3.913348074447e-01 1.904531900338e-01 
1.430000000000e+02 3.917079070152e-01 3.917079070152e-01 1.907565331971e-01 
1.440000000000e+02 3.920686192656e-01 3.920686192656e-01 1.910499890644e-01 
1.450000000000e+02 3.924173729291e-01 3.924173729291e-01 1.913338880507e-01 
1.460000000000e+02 3.927545813316e-01 3.927545813316e-01 1.916085494676e-01 
1.470000000000e+02 3.930806429514e-01 3.930806429514e-01 1.918742818768e-01 
1.480000000000e+02 3.933959419573e-01 3.933959419573e-01 1.921313834374e-01 
1.490000000000e+02 3.937008487290e-01 3.937008487290e-01 1.923801422215e-01 
1.500000000000e+02 3.939957203662e-01 3.939957203662e-01 1.926208365774e-01 
1.510000000000e+02 3.942809011641e-01 3.942809011641e-01 1.928537353888e-01 
1.520000000000e+02 3.945567231058e-01 3.945567231058e-01 1.930790985957e-01 
1.530000000000e+02 3.948235062726e-01 3.948235062726e-01 1.932971768305e-01 
1.540000000000e+02 3.950815592991e-01 3.950815592991e-01 1.935082126391e-01 
1.550000000000e+02 3.953311798170e-01 3.953311798170e-01 1.937124401879e-01 
1.560000000000e+02 3.955726548481e-01 3.955726548481e-01 1.939100856775e-01 
1.570000000000e+02 3.958062611933e-01 3.958062611933e-01 1.941013676092e-01 
1.580000000000e+02 3.960322658110e-01 3.960322658110e-01 1.942864970422e-01 
1.590000000000e+02 3.962509261791e-01 3.962509261791e-01 1.944656778527e-01 
1.600000000000e+02 3.964624906467e-01 3.964624906467e-01 1.946391069734e-01 
1.610000000000e+02 3.966671987706e-01 3.966671987706e-01 1.948069746354e-01 
1.620000000000e+02 3.968652816386e-01 3.968652816386e-01 1.949694645930e-01 
1.630000000000e+02 3.970569621840e-01 3.970569621840e-01 1.951267543521e-01 
1.640000000000e+02 3.972424554847e-01 3.972424554847e-01 1.952790153808e-01 
1.650000000000e+02 3.974219690531e-01 3.974219690531e-01 1.954264133193e-01 
1.660000000000e+02 3.975957031149e-01 3.975957031149e-01 1.955691081830e-01 
1.670000000000e+02 3.977638508764e-01 3.977638508764e-01 1.957072545523e-01 
1.680000000000e+02 3.979265987828e-01 3.979265987828e-01 1.958410017683e-01 
1.690000000000e+02 3.980841267669e-01 3.980841267669e-01 1.959704941075e-01 
1.700000000000e+02 3.982366084861e-01 3.982366084861e-01 1.960958709603e-01 
1.710000000000e+02 3.983842115531e-01 3.983842115531e-01 1.962172670009e-01 
1.720000000000e+02 3.985270977570e-01 3.985270977570e-01 1.963348123505e-01 
1.730000000000e+02 3.986654232752e-01 3.986654232752e-01 1.964486327348e-01 
1.740000000000e+02 3.987993388780e-01 3.987993388780e-01 1.965588496375e-01 
1.750000000000e+02 3.989289901256e-01 3.989289901256e-01 1.966655804478e-01 
1.760000000000e+02 3.990545175631e-01 3.990545175631e-01 1.967689386258e-01 
1.770000000000e+02 3.991760568771e-01 3.991760568771e-01 1.968690337376e-01 
1.780000000000e+02 3.992937391087e-01 3.992937391087e-01 1.969659717472e-01 
1.790000000000e+02 3.994076907987e-01 3.994076907987e-01 1.970598550384e-01 
1.800000000000e+02 3.995180341546e-01 3.995180341546e-01 1.971507825624e-01 
1.810000000000e+02 3.996248872061e-01 3.996248872061e-01 1.972388499561e-01 
1.820000000000e+02 3.997283639566e-01 3.997283639566e-01 1.973241496606e-01 
1.830000000000e+02 3.998285745256e-01 3.998285745256e-01 1.974067710263e-01 
1.840000000000e+02 3.999256252885e-01 3.999256252885e-01 1.974868004224e-01 
1.850000000000e+02 4.000196190083e-01 4.000196190083e-01 1.975643213276e-01 
1.860000000000e+02 4.001106549660e-01 4.001106549660e-01 1.976394144479e-01 
1.870000000000e+02 4.001988290910e-01 4.001988290910e-01 1.977121578298e-01 
1.880000000000e+02 4.002842340635e-01 4.002842340635e-01 1.977826268705e-01 
1.890000000000e+02 4.003669594687e-01 4.003669594687e-01 1.978508946011e-01 
1.900000000000e+02 4.004470918365e-01 4.004470918365e-01 1.979170314501e-01 
1.910000000000e+02 4.005247148243e-01 4.005247148243e-01 1.979811056544e-01 
1.920000000000e+02 4.005999092725e-01 4.005999092725e-01 1.980431831325e-01 
1.930000000000e+02 4.006727533122e-01 4.006727533122e-01 1.981033276527e-01 
1.940000000000e+02 4.007433224655e-01 4.007433224655e-01 1.981616008596e-01 
1.950000000000e+02 4.008116897410e-01 4.008116897410e-01 1.982180623996e-01 
1.960000000000e+02 4.008779257120e-01 4.008779257120e-01 1.982727699351e-01 
1.970000000000e+02 4.009420986066e-01 4.009420986066e-01 1.983257792449e-01 
1.980000000000e+02 4.010042743880e-01 4.010042743880e-01 1.983771442775e-01 
1.990000000000e+02 4.010645168340e-01 4.010645168340e-01 1.984269172156e-01 
2.000000000000e+02 4.011228876121e-01 4.011228876121e-01 1.984751485353e-01 
2.010000000000e+02 4.011794463530e-01 4.011794463530e-01 1.985218870641e-01 
2.020000000000e+02 4.012342507209e-01 4.012342507209e-01 1.985671800361e-01 
2.030000000000e+02 4.012873564807e-01 4.012873564807e-01 1.986110731467e-01 
2.040000000000e+02 4.013388175645e-01 4.013388175645e-01 1.986536106045e-01 
2.050000000000e+02 4.013886861333e-01 4.013886861333e-01 1.986948351809e-01 
2.060000000000e+02 4.014370126388e-01 4.014370126388e-01 1.987347882585e-01 
2.070000000000e+02 4.014838458812e-01 4.014838458812e-01 1.987735098788e-01 
2.080000000000e+02 4.015292330659e-01 4.015292330659e-01 1.988110387861e-01 
2.090000000000e+02 4.015732198578e-01 4.015732198578e-01 1.988474124719e-01 
2.100000000000e+02 4.016158504342e-01 4.016158504342e-01 1.988826672174e-01 
2.110000000000e+02 4.016571675340e-01 4.016571675340e-01 1.989168381294e-01 
2.120000000000e+02 4.016972125078e-01 4.016972125078e-01 1.989499591864e-01 
2.130000000000e+02 4.017360253644e-01 4.017360253644e-01 1.989820632729e-01 
2.140000000000e+02 4.017736448162e-01 4.017736448162e-01 1.990131822144e-01 
2.150000000000e+02 4.018101083228e-01 4.018101083228e-01 1.990433468150e-01 
2.160000000000e+02 4.018454521332e-01 4.018454521332e-01 1.990725868903e-01 
2.170000000000e+02 4.018797113265e-01 4.018797113265e-01 1.991009313002e-01 
2.180000000000e+02 4.019129198547e-01 4.019129198547e-01 1.991284079888e-01 
2.190000000000e+02 4.019451105669e-01 4.019451105669e-01 1.991550439829e-01 
2.200000000000e+02 4.019763152654e-01 4.019763152654e-01 1.991808654690e-01 
2.210000000000e+02 4.020065647291e-01 4.020065647291e-01 1.992058977906e-01 
2.220000000000e+02 4.020358887497e-01 4.020358887497e-01 1.992301654841e-01 
2.230000000000e+02 4.020643161645e-01 4.020643161645e-01 1.992536923035e-01 
2.240000000000e+02 4.020918748883e-01 4.020918748883e-01 1.992765012472e-01 
2.250000000000e+02 4.021185919447e-01 4.021185919447e-01 1.992986145859e-01 
2.260000000000e+02 4.021444934939e-01 4.021444934939e-01 1.993200538784e-01 
2.270000000000e+02 4.021696048629e-01 4.021696048629e-01 1.993408400030e-01 
2.280000000000e+02 4.021939505720e-01 4.021939505720e-01 1.993609931760e-01 
2.290000000000e+02 4.022175543620e-01 4.022175543620e-01 1.993805329738e-01 
2.300000000000e+02 4.022404392195e-01 4.022404392195e-01 1.993994783540e-01 
2.310000000000e+02 4.022626274015e-01 4.022626274015e-01 1.994178476754e-01 
2.320000000000e+02 4.022841404600e-01 4.022841404600e-01 1.994356587175e-01 
2.330000000000e+02 4.023049992643e-01 4.023049992643e-01 1.994529286994e-01 
2.340000000000e+02 4.023252240237e-01 4.023252240237e-01 1.994696742978e-01 
2.350000000000e+02 4.023448343091e-01 4.023448343091e-01 1.994859116647e-01 
2.360000000000e+02 4.023638490737e-01 4.023638490737e-01 1.995016564443e-01 
2.370000000000e+02 4.023822866732e-01 4.023822866732e-01 1.995169237897e-01 
2.380000000000e+02 4.024001648851e-01 4.024001648851e-01 1.995317283782e-01 
2.390000000000e+02 4.024175009274e-01 4.024175009274e-01 1.995460844273e-01 
2.400000000000e+02 4.024343114772e-01 4.024343114772e-01 1.995600057088e-01 
