VARIABLES  = "X","Y","Z", "HEAD", "WDEPTH"
ZONE T="0.000000000000e+00s", N=101, E=100, F=FEPOINT, ET=QUADRILATERAL
STRANDID=1, SOLUTIONTIME=0.000000000000e+00
0.000000000000e+00 0.000000000000e+00 0.000000000000e+00 1.000000000000e-06 0.000000000000e+00 
1.000000000000e+00 0.000000000000e+00 1.000000000000e-02 1.000100000000e-02 0.000000000000e+00 
2.000000000000e+00 0.000000000000e+00 2.000000000000e-02 2.000100000000e-02 0.000000000000e+00 
3.000000000000e+00 0.000000000000e+00 3.000000000000e-02 3.000100000000e-02 0.000000000000e+00 
4.000000000000e+00 0.000000000000e+00 4.000000000000e-02 4.000100000000e-02 0.000000000000e+00 
5.000000000000e+00 0.000000000000e+00 5.000000000000e-02 5.000100000000e-02 0.000000000000e+00 
6.000000000000e+00 0.000000000000e+00 6.000000000000e-02 6.000100000000e-02 0.000000000000e+00 
7.000000000000e+00 0.000000000000e+00 7.000000000000e-02 7.000100000000e-02 0.000000000000e+00 
8.000000000000e+00 0.000000000000e+00 8.000000000000e-02 8.000100000000e-02 0.000000000000e+00 
9.000000000000e+00 0.000000000000e+00 9.000000000000e-02 9.000100000000e-02 0.000000000000e+00 
1.000000000000e+01 0.000000000000e+00 1.000000000000e-01 1.000010000000e-01 0.000000000000e+00 
1.100000000000e+01 0.000000000000e+00 1.100000000000e-01 1.100010000000e-01 0.000000000000e+00 
1.200000000000e+01 0.000000000000e+00 1.200000000000e-01 1.200010000000e-01 0.000000000000e+00 
1.300000000000e+01 0.000000000000e+00 1.300000000000e-01 1.300010000000e-01 0.000000000000e+00 
1.400000000000e+01 0.000000000000e+00 1.400000000000e-01 1.400010000000e-01 0.000000000000e+00 
1.500000000000e+01 0.000000000000e+00 1.500000000000e-01 1.500010000000e-01 0.000000000000e+00 
1.600000000000e+01 0.000000000000e+00 1.600000000000e-01 1.600010000000e-01 0.000000000000e+00 
1.700000000000e+01 0.000000000000e+00 1.700000000000e-01 1.700010000000e-01 0.000000000000e+00 
1.800000000000e+01 0.000000000000e+00 1.800000000000e-01 1.800010000000e-01 0.000000000000e+00 
1.900000000000e+01 0.000000000000e+00 1.900000000000e-01 1.900010000000e-01 0.000000000000e+00 
2.000000000000e+01 0.000000000000e+00 2.000000000000e-01 2.000010000000e-01 0.000000000000e+00 
2.100000000000e+01 0.000000000000e+00 2.100000000000e-01 2.100010000000e-01 0.000000000000e+00 
2.200000000000e+01 0.000000000000e+00 2.200000000000e-01 2.200010000000e-01 0.000000000000e+00 
2.300000000000e+01 0.000000000000e+00 2.300000000000e-01 2.300010000000e-01 0.000000000000e+00 
2.400000000000e+01 0.000000000000e+00 2.400000000000e-01 2.400010000000e-01 0.000000000000e+00 
2.500000000000e+01 0.000000000000e+00 2.500000000000e-01 2.500010000000e-01 0.000000000000e+00 
2.600000000000e+01 0.000000000000e+00 2.600000000000e-01 2.600010000000e-01 0.000000000000e+00 
2.700000000000e+01 0.000000000000e+00 2.700000000000e-01 2.700010000000e-01 0.000000000000e+00 
2.800000000000e+01 0.000000000000e+00 2.800000000000e-01 2.800010000000e-01 0.000000000000e+00 
2.900000000000e+01 0.000000000000e+00 2.900000000000e-01 2.900010000000e-01 0.000000000000e+00 
3.000000000000e+01 0.000000000000e+00 3.000000000000e-01 3.000010000000e-01 0.000000000000e+00 
3.100000000000e+01 0.000000000000e+00 3.100000000000e-01 3.100010000000e-01 0.000000000000e+00 
3.200000000000e+01 0.000000000000e+00 3.200000000000e-01 3.200010000000e-01 0.000000000000e+00 
3.300000000000e+01 0.000000000000e+00 3.300000000000e-01 3.300010000000e-01 0.000000000000e+00 
3.400000000000e+01 0.000000000000e+00 3.400000000000e-01 3.400010000000e-01 0.000000000000e+00 
3.500000000000e+01 0.000000000000e+00 3.500000000000e-01 3.500010000000e-01 0.000000000000e+00 
3.600000000000e+01 0.000000000000e+00 3.600000000000e-01 3.600010000000e-01 0.000000000000e+00 
3.700000000000e+01 0.000000000000e+00 3.700000000000e-01 3.700010000000e-01 0.000000000000e+00 
3.800000000000e+01 0.000000000000e+00 3.800000000000e-01 3.800010000000e-01 0.000000000000e+00 
3.900000000000e+01 0.000000000000e+00 3.900000000000e-01 3.900010000000e-01 0.000000000000e+00 
4.000000000000e+01 0.000000000000e+00 4.000000000000e-01 4.000010000000e-01 0.000000000000e+00 
4.100000000000e+01 0.000000000000e+00 4.100000000000e-01 4.100010000000e-01 0.000000000000e+00 
4.200000000000e+01 0.000000000000e+00 4.200000000000e-01 4.200010000000e-01 0.000000000000e+00 
4.300000000000e+01 0.000000000000e+00 4.300000000000e-01 4.300010000000e-01 0.000000000000e+00 
4.400000000000e+01 0.000000000000e+00 4.400000000000e-01 4.400010000000e-01 0.000000000000e+00 
4.500000000000e+01 0.000000000000e+00 4.500000000000e-01 4.500010000000e-01 0.000000000000e+00 
4.600000000000e+01 0.000000000000e+00 4.600000000000e-01 4.600010000000e-01 0.000000000000e+00 
4.700000000000e+01 0.000000000000e+00 4.700000000000e-01 4.700010000000e-01 0.000000000000e+00 
4.800000000000e+01 0.000000000000e+00 4.800000000000e-01 4.800010000000e-01 0.000000000000e+00 
4.900000000000e+01 0.000000000000e+00 4.900000000000e-01 4.900010000000e-01 0.000000000000e+00 
5.000000000000e+01 0.000000000000e+00 5.000000000000e-01 5.000010000000e-01 0.000000000000e+00 
5.100000000000e+01 0.000000000000e+00 5.100000000000e-01 5.100010000000e-01 0.000000000000e+00 
5.200000000000e+01 0.000000000000e+00 5.200000000000e-01 5.200010000000e-01 0.000000000000e+00 
5.300000000000e+01 0.000000000000e+00 5.300000000000e-01 5.300010000000e-01 0.000000000000e+00 
5.400000000000e+01 0.000000000000e+00 5.400000000000e-01 5.400010000000e-01 0.000000000000e+00 
5.500000000000e+01 0.000000000000e+00 5.500000000000e-01 5.500010000000e-01 0.000000000000e+00 
5.600000000000e+01 0.000000000000e+00 5.600000000000e-01 5.600010000000e-01 0.000000000000e+00 
5.700000000000e+01 0.000000000000e+00 5.700000000000e-01 5.700010000000e-01 0.000000000000e+00 
5.800000000000e+01 0.000000000000e+00 5.800000000000e-01 5.800010000000e-01 0.000000000000e+00 
5.900000000000e+01 0.000000000000e+00 5.900000000000e-01 5.900010000000e-01 0.000000000000e+00 
6.000000000000e+01 0.000000000000e+00 6.000000000000e-01 6.000010000000e-01 0.000000000000e+00 
6.100000000000e+01 0.000000000000e+00 6.100000000000e-01 6.100010000000e-01 0.000000000000e+00 
6.200000000000e+01 0.000000000000e+00 6.200000000000e-01 6.200010000000e-01 0.000000000000e+00 
6.300000000000e+01 0.000000000000e+00 6.300000000000e-01 6.300010000000e-01 0.000000000000e+00 
6.400000000000e+01 0.000000000000e+00 6.400000000000e-01 6.400010000000e-01 0.000000000000e+00 
6.500000000000e+01 0.000000000000e+00 6.500000000000e-01 6.500010000000e-01 0.000000000000e+00 
6.600000000000e+01 0.000000000000e+00 6.600000000000e-01 6.600010000000e-01 0.000000000000e+00 
6.700000000000e+01 0.000000000000e+00 6.700000000000e-01 6.700010000000e-01 0.000000000000e+00 
6.800000000000e+01 0.000000000000e+00 6.800000000000e-01 6.800010000000e-01 0.000000000000e+00 
6.900000000000e+01 0.000000000000e+00 6.900000000000e-01 6.900010000000e-01 0.000000000000e+00 
7.000000000000e+01 0.000000000000e+00 7.000000000000e-01 7.000010000000e-01 0.000000000000e+00 
7.100000000000e+01 0.000000000000e+00 7.100000000000e-01 7.100010000000e-01 0.000000000000e+00 
7.200000000000e+01 0.000000000000e+00 7.200000000000e-01 7.200010000000e-01 0.000000000000e+00 
7.300000000000e+01 0.000000000000e+00 7.300000000000e-01 7.300010000000e-01 0.000000000000e+00 
7.400000000000e+01 0.000000000000e+00 7.400000000000e-01 7.400010000000e-01 0.000000000000e+00 
7.500000000000e+01 0.000000000000e+00 7.500000000000e-01 7.500010000000e-01 0.000000000000e+00 
7.600000000000e+01 0.000000000000e+00 7.600000000000e-01 7.600010000000e-01 0.000000000000e+00 
7.700000000000e+01 0.000000000000e+00 7.700000000000e-01 7.700010000000e-01 0.000000000000e+00 
7.800000000000e+01 0.000000000000e+00 7.800000000000e-01 7.800010000000e-01 0.000000000000e+00 
7.900000000000e+01 0.000000000000e+00 7.900000000000e-01 7.900010000000e-01 0.000000000000e+00 
8.000000000000e+01 0.000000000000e+00 8.000000000000e-01 8.000010000000e-01 0.000000000000e+00 
8.100000000000e+01 0.000000000000e+00 8.100000000000e-01 8.100010000000e-01 0.000000000000e+00 
8.200000000000e+01 0.000000000000e+00 8.200000000000e-01 8.200010000000e-01 0.000000000000e+00 
8.300000000000e+01 0.000000000000e+00 8.300000000000e-01 8.300010000000e-01 0.000000000000e+00 
8.400000000000e+01 0.000000000000e+00 8.400000000000e-01 8.400010000000e-01 0.000000000000e+00 
8.500000000000e+01 0.000000000000e+00 8.500000000000e-01 8.500010000000e-01 0.000000000000e+00 
8.600000000000e+01 0.000000000000e+00 8.600000000000e-01 8.600010000000e-01 0.000000000000e+00 
8.700000000000e+01 0.000000000000e+00 8.700000000000e-01 8.700010000000e-01 0.000000000000e+00 
8.800000000000e+01 0.000000000000e+00 8.800000000000e-01 8.800010000000e-01 0.000000000000e+00 
8.900000000000e+01 0.000000000000e+00 8.900000000000e-01 8.900010000000e-01 0.000000000000e+00 
9.000000000000e+01 0.000000000000e+00 9.000000000000e-01 9.000010000000e-01 0.000000000000e+00 
9.100000000000e+01 0.000000000000e+00 9.100000000000e-01 9.100010000000e-01 0.000000000000e+00 
9.200000000000e+01 0.000000000000e+00 9.200000000000e-01 9.200010000000e-01 0.000000000000e+00 
9.300000000000e+01 0.000000000000e+00 9.300000000000e-01 9.300010000000e-01 0.000000000000e+00 
9.400000000000e+01 0.000000000000e+00 9.400000000000e-01 9.400010000000e-01 0.000000000000e+00 
9.500000000000e+01 0.000000000000e+00 9.500000000000e-01 9.500010000000e-01 0.000000000000e+00 
9.600000000000e+01 0.000000000000e+00 9.600000000000e-01 9.600010000000e-01 0.000000000000e+00 
9.700000000000e+01 0.000000000000e+00 9.700000000000e-01 9.700010000000e-01 0.000000000000e+00 
9.800000000000e+01 0.000000000000e+00 9.800000000000e-01 9.800010000000e-01 0.000000000000e+00 
9.900000000000e+01 0.000000000000e+00 9.900000000000e-01 9.900010000000e-01 0.000000000000e+00 
1.000000000000e+02 0.000000000000e+00 1.000000000000e+00 1.000001000000e+00 0.000000000000e+00 
1  2  2  1
2  3  3  2
3  4  4  3
4  5  5  4
5  6  6  5
6  7  7  6
7  8  8  7
8  9  9  8
9  10  10  9
10  11  11  10
11  12  12  11
12  13  13  12
13  14  14  13
14  15  15  14
15  16  16  15
16  17  17  16
17  18  18  17
18  19  19  18
19  20  20  19
20  21  21  20
21  22  22  21
22  23  23  22
23  24  24  23
24  25  25  24
25  26  26  25
26  27  27  26
27  28  28  27
28  29  29  28
29  30  30  29
30  31  31  30
31  32  32  31
32  33  33  32
33  34  34  33
34  35  35  34
35  36  36  35
36  37  37  36
37  38  38  37
38  39  39  38
39  40  40  39
40  41  41  40
41  42  42  41
42  43  43  42
43  44  44  43
44  45  45  44
45  46  46  45
46  47  47  46
47  48  48  47
48  49  49  48
49  50  50  49
50  51  51  50
51  52  52  51
52  53  53  52
53  54  54  53
54  55  55  54
55  56  56  55
56  57  57  56
57  58  58  57
58  59  59  58
59  60  60  59
60  61  61  60
61  62  62  61
62  63  63  62
63  64  64  63
64  65  65  64
65  66  66  65
66  67  67  66
67  68  68  67
68  69  69  68
69  70  70  69
70  71  71  70
71  72  72  71
72  73  73  72
73  74  74  73
74  75  75  74
75  76  76  75
76  77  77  76
77  78  78  77
78  79  79  78
79  80  80  79
80  81  81  80
81  82  82  81
82  83  83  82
83  84  84  83
84  85  85  84
85  86  86  85
86  87  87  86
87  88  88  87
88  89  89  88
89  90  90  89
90  91  91  90
91  92  92  91
92  93  93  92
93  94  94  93
94  95  95  94
95  96  96  95
96  97  97  96
97  98  98  97
98  99  99  98
99  100  100  99
100  101  101  100
VARIABLES  = "X","Y","Z", "HEAD", "WDEPTH"
ZONE T="1.000000000000e+00s", N=101, E=100, F=FEPOINT, ET=QUADRILATERAL
STRANDID=1, SOLUTIONTIME=1.000000000000e+00
0.000000000000e+00 0.000000000000e+00 0.000000000000e+00 4.001199995007e-03 4.001199995007e-03 
1.000000000000e+00 0.000000000000e+00 1.000000000000e-02 1.400119999499e-02 4.001199994995e-03 
2.000000000000e+00 0.000000000000e+00 2.000000000000e-02 2.400119999500e-02 4.001199995002e-03 
3.000000000000e+00 0.000000000000e+00 3.000000000000e-02 3.400119999500e-02 4.001199995000e-03 
4.000000000000e+00 0.000000000000e+00 4.000000000000e-02 4.400119999500e-02 4.001199995000e-03 
5.000000000000e+00 0.000000000000e+00 5.000000000000e-02 5.400119999500e-02 4.001199995000e-03 
6.000000000000e+00 0.000000000000e+00 6.000000000000e-02 6.400119999500e-02 4.001199995000e-03 
7.000000000000e+00 0.000000000000e+00 7.000000000000e-02 7.400119999500e-02 4.001199995000e-03 
8.000000000000e+00 0.000000000000e+00 8.000000000000e-02 8.400119999500e-02 4.001199995000e-03 
9.000000000000e+00 0.000000000000e+00 9.000000000000e-02 9.400119999500e-02 4.001199995000e-03 
1.000000000000e+01 0.000000000000e+00 1.000000000000e-01 1.040011999950e-01 4.001199995000e-03 
1.100000000000e+01 0.000000000000e+00 1.100000000000e-01 1.140011999950e-01 4.001199995000e-03 
1.200000000000e+01 0.000000000000e+00 1.200000000000e-01 1.240011999950e-01 4.001199995000e-03 
1.300000000000e+01 0.000000000000e+00 1.300000000000e-01 1.340011999950e-01 4.001199995000e-03 
1.400000000000e+01 0.000000000000e+00 1.400000000000e-01 1.440011999950e-01 4.001199995000e-03 
1.500000000000e+01 0.000000000000e+00 1.500000000000e-01 1.540011999950e-01 4.001199995000e-03 
1.600000000000e+01 0.000000000000e+00 1.600000000000e-01 1.640011999950e-01 4.001199995000e-03 
1.700000000000e+01 0.000000000000e+00 1.700000000000e-01 1.740011999950e-01 4.001199995000e-03 
1.800000000000e+01 0.000000000000e+00 1.800000000000e-01 1.840011999950e-01 4.001199995000e-03 
1.900000000000e+01 0.000000000000e+00 1.900000000000e-01 1.940011999950e-01 4.001199995000e-03 
2.000000000000e+01 0.000000000000e+00 2.000000000000e-01 2.040011999950e-01 4.001199995000e-03 
2.100000000000e+01 0.000000000000e+00 2.100000000000e-01 2.140011999950e-01 4.001199995000e-03 
2.200000000000e+01 0.000000000000e+00 2.200000000000e-01 2.240011999950e-01 4.001199995000e-03 
2.300000000000e+01 0.000000000000e+00 2.300000000000e-01 2.340011999950e-01 4.001199995000e-03 
2.400000000000e+01 0.000000000000e+00 2.400000000000e-01 2.440011999950e-01 4.001199995000e-03 
2.500000000000e+01 0.000000000000e+00 2.500000000000e-01 2.540011999950e-01 4.001199995000e-03 
2.600000000000e+01 0.000000000000e+00 2.600000000000e-01 2.640011999950e-01 4.001199995000e-03 
2.700000000000e+01 0.000000000000e+00 2.700000000000e-01 2.740011999950e-01 4.001199995000e-03 
2.800000000000e+01 0.000000000000e+00 2.800000000000e-01 2.840011999950e-01 4.001199995000e-03 
2.900000000000e+01 0.000000000000e+00 2.900000000000e-01 2.940011999950e-01 4.001199995000e-03 
3.000000000000e+01 0.000000000000e+00 3.000000000000e-01 3.040011999950e-01 4.001199995000e-03 
3.100000000000e+01 0.000000000000e+00 3.100000000000e-01 3.140011999950e-01 4.001199995000e-03 
3.200000000000e+01 0.000000000000e+00 3.200000000000e-01 3.240011999950e-01 4.001199995000e-03 
3.300000000000e+01 0.000000000000e+00 3.300000000000e-01 3.340011999950e-01 4.001199995000e-03 
3.400000000000e+01 0.000000000000e+00 3.400000000000e-01 3.440011999950e-01 4.001199995000e-03 
3.500000000000e+01 0.000000000000e+00 3.500000000000e-01 3.540011999950e-01 4.001199995000e-03 
3.600000000000e+01 0.000000000000e+00 3.600000000000e-01 3.640011999950e-01 4.001199995000e-03 
3.700000000000e+01 0.000000000000e+00 3.700000000000e-01 3.740011999950e-01 4.001199995000e-03 
3.800000000000e+01 0.000000000000e+00 3.800000000000e-01 3.840011999950e-01 4.001199995000e-03 
3.900000000000e+01 0.000000000000e+00 3.900000000000e-01 3.940011999950e-01 4.001199995000e-03 
4.000000000000e+01 0.000000000000e+00 4.000000000000e-01 4.040011999950e-01 4.001199995000e-03 
4.100000000000e+01 0.000000000000e+00 4.100000000000e-01 4.140011999950e-01 4.001199995000e-03 
4.200000000000e+01 0.000000000000e+00 4.200000000000e-01 4.240011999950e-01 4.001199995000e-03 
4.300000000000e+01 0.000000000000e+00 4.300000000000e-01 4.340011999950e-01 4.001199995000e-03 
4.400000000000e+01 0.000000000000e+00 4.400000000000e-01 4.440011999950e-01 4.001199995000e-03 
4.500000000000e+01 0.000000000000e+00 4.500000000000e-01 4.540011999950e-01 4.001199995000e-03 
4.600000000000e+01 0.000000000000e+00 4.600000000000e-01 4.640011999950e-01 4.001199995000e-03 
4.700000000000e+01 0.000000000000e+00 4.700000000000e-01 4.740011999950e-01 4.001199995000e-03 
4.800000000000e+01 0.000000000000e+00 4.800000000000e-01 4.840011999950e-01 4.001199995000e-03 
4.900000000000e+01 0.000000000000e+00 4.900000000000e-01 4.940011999950e-01 4.001199995000e-03 
5.000000000000e+01 0.000000000000e+00 5.000000000000e-01 5.040011999950e-01 4.001199995001e-03 
5.100000000000e+01 0.000000000000e+00 5.100000000000e-01 5.140011999950e-01 4.001199995000e-03 
5.200000000000e+01 0.000000000000e+00 5.200000000000e-01 5.240011999950e-01 4.001199995000e-03 
5.300000000000e+01 0.000000000000e+00 5.300000000000e-01 5.340011999950e-01 4.001199995000e-03 
5.400000000000e+01 0.000000000000e+00 5.400000000000e-01 5.440011999950e-01 4.001199995000e-03 
5.500000000000e+01 0.000000000000e+00 5.500000000000e-01 5.540011999950e-01 4.001199995000e-03 
5.600000000000e+01 0.000000000000e+00 5.600000000000e-01 5.640011999950e-01 4.001199995000e-03 
5.700000000000e+01 0.000000000000e+00 5.700000000000e-01 5.740011999950e-01 4.001199995000e-03 
5.800000000000e+01 0.000000000000e+00 5.800000000000e-01 5.840011999950e-01 4.001199995000e-03 
5.900000000000e+01 0.000000000000e+00 5.900000000000e-01 5.940011999950e-01 4.001199995000e-03 
6.000000000000e+01 0.000000000000e+00 6.000000000000e-01 6.040011999950e-01 4.001199995000e-03 
6.100000000000e+01 0.000000000000e+00 6.100000000000e-01 6.140011999950e-01 4.001199995000e-03 
6.200000000000e+01 0.000000000000e+00 6.200000000000e-01 6.240011999950e-01 4.001199995000e-03 
6.300000000000e+01 0.000000000000e+00 6.300000000000e-01 6.340011999950e-01 4.001199995000e-03 
6.400000000000e+01 0.000000000000e+00 6.400000000000e-01 6.440011999950e-01 4.001199995000e-03 
6.500000000000e+01 0.000000000000e+00 6.500000000000e-01 6.540011999950e-01 4.001199995000e-03 
6.600000000000e+01 0.000000000000e+00 6.600000000000e-01 6.640011999950e-01 4.001199995000e-03 
6.700000000000e+01 0.000000000000e+00 6.700000000000e-01 6.740011999950e-01 4.001199995000e-03 
6.800000000000e+01 0.000000000000e+00 6.800000000000e-01 6.840011999950e-01 4.001199995000e-03 
6.900000000000e+01 0.000000000000e+00 6.900000000000e-01 6.940011999950e-01 4.001199995000e-03 
7.000000000000e+01 0.000000000000e+00 7.000000000000e-01 7.040011999950e-01 4.001199995000e-03 
7.100000000000e+01 0.000000000000e+00 7.100000000000e-01 7.140011999950e-01 4.001199995000e-03 
7.200000000000e+01 0.000000000000e+00 7.200000000000e-01 7.240011999950e-01 4.001199995000e-03 
7.300000000000e+01 0.000000000000e+00 7.300000000000e-01 7.340011999950e-01 4.001199995000e-03 
7.400000000000e+01 0.000000000000e+00 7.400000000000e-01 7.440011999950e-01 4.001199995000e-03 
7.500000000000e+01 0.000000000000e+00 7.500000000000e-01 7.540011999950e-01 4.001199995000e-03 
7.600000000000e+01 0.000000000000e+00 7.600000000000e-01 7.640011999950e-01 4.001199995000e-03 
7.700000000000e+01 0.000000000000e+00 7.700000000000e-01 7.740011999950e-01 4.001199995000e-03 
7.800000000000e+01 0.000000000000e+00 7.800000000000e-01 7.840011999950e-01 4.001199995000e-03 
7.900000000000e+01 0.000000000000e+00 7.900000000000e-01 7.940011999950e-01 4.001199995000e-03 
8.000000000000e+01 0.000000000000e+00 8.000000000000e-01 8.040011999950e-01 4.001199995000e-03 
8.100000000000e+01 0.000000000000e+00 8.100000000000e-01 8.140011999950e-01 4.001199995000e-03 
8.200000000000e+01 0.000000000000e+00 8.200000000000e-01 8.240011999950e-01 4.001199995000e-03 
8.300000000000e+01 0.000000000000e+00 8.300000000000e-01 8.340011999950e-01 4.001199995000e-03 
8.400000000000e+01 0.000000000000e+00 8.400000000000e-01 8.440011999950e-01 4.001199995000e-03 
8.500000000000e+01 0.000000000000e+00 8.500000000000e-01 8.540011999950e-01 4.001199995000e-03 
8.600000000000e+01 0.000000000000e+00 8.600000000000e-01 8.640011999950e-01 4.001199995000e-03 
8.700000000000e+01 0.000000000000e+00 8.700000000000e-01 8.740011999950e-01 4.001199995000e-03 
8.800000000000e+01 0.000000000000e+00 8.800000000000e-01 8.840011999950e-01 4.001199995000e-03 
8.900000000000e+01 0.000000000000e+00 8.900000000000e-01 8.940011999950e-01 4.001199995000e-03 
9.000000000000e+01 0.000000000000e+00 9.000000000000e-01 9.040011999950e-01 4.001199994999e-03 
9.100000000000e+01 0.000000000000e+00 9.100000000000e-01 9.140011999950e-01 4.001199994984e-03 
9.200000000000e+01 0.000000000000e+00 9.200000000000e-01 9.240011999947e-01 4.001199994741e-03 
9.300000000000e+01 0.000000000000e+00 9.300000000000e-01 9.340011999912e-01 4.001199991182e-03 
9.400000000000e+01 0.000000000000e+00 9.400000000000e-01 9.440011999408e-01 4.001199940832e-03 
9.500000000000e+01 0.000000000000e+00 9.500000000000e-01 9.540011992470e-01 4.001199246952e-03 
9.600000000000e+01 0.000000000000e+00 9.600000000000e-01 9.640011898676e-01 4.001189867649e-03 
9.700000000000e+01 0.000000000000e+00 9.700000000000e-01 9.740010649577e-01 4.001064957747e-03 
9.800000000000e+01 0.000000000000e+00 9.800000000000e-01 9.839994207335e-01 3.999420733538e-03 
9.900000000000e+01 0.000000000000e+00 9.900000000000e-01 9.939779356860e-01 3.977935686024e-03 
1.000000000000e+02 0.000000000000e+00 1.000000000000e+00 1.003690210324e+00 3.690210323968e-03 
1  2  2  1
2  3  3  2
3  4  4  3
4  5  5  4
5  6  6  5
6  7  7  6
7  8  8  7
8  9  9  8
9  10  10  9
10  11  11  10
11  12  12  11
12  13  13  12
13  14  14  13
14  15  15  14
15  16  16  15
16  17  17  16
17  18  18  17
18  19  19  18
19  20  20  19
20  21  21  20
21  22  22  21
22  23  23  22
23  24  24  23
24  25  25  24
25  26  26  25
26  27  27  26
27  28  28  27
28  29  29  28
29  30  30  29
30  31  31  30
31  32  32  31
32  33  33  32
33  34  34  33
34  35  35  34
35  36  36  35
36  37  37  36
37  38  38  37
38  39  39  38
39  40  40  39
40  41  41  40
41  42  42  41
42  43  43  42
43  44  44  43
44  45  45  44
45  46  46  45
46  47  47  46
47  48  48  47
48  49  49  48
49  50  50  49
50  51  51  50
51  52  52  51
52  53  53  52
53  54  54  53
54  55  55  54
55  56  56  55
56  57  57  56
57  58  58  57
58  59  59  58
59  60  60  59
60  61  61  60
61  62  62  61
62  63  63  62
63  64  64  63
64  65  65  64
65  66  66  65
66  67  67  66
67  68  68  67
68  69  69  68
69  70  70  69
70  71  71  70
71  72  72  71
72  73  73  72
73  74  74  73
74  75  75  74
75  76  76  75
76  77  77  76
77  78  78  77
78  79  79  78
79  80  80  79
80  81  81  80
81  82  82  81
82  83  83  82
83  84  84  83
84  85  85  84
85  86  86  85
86  87  87  86
87  88  88  87
88  89  89  88
89  90  90  89
90  91  91  90
91  92  92  91
92  93  93  92
93  94  94  93
94  95  95  94
95  96  96  95
96  97  97  96
97  98  98  97
98  99  99  98
99  100  100  99
100  101  101  100
VARIABLES  = "X","Y","Z", "HEAD", "WDEPTH"
ZONE T="2.000000000000e+00s", N=101, E=100, F=FEPOINT, ET=QUADRILATERAL
STRANDID=1, SOLUTIONTIME=2.000000000000e+00
0.000000000000e+00 0.000000000000e+00 0.000000000000e+00 8.001400000188e-03 8.001400000188e-03 
1.000000000000e+00 0.000000000000e+00 1.000000000000e-02 1.800139998161e-02 8.001399981607e-03 
2.000000000000e+00 0.000000000000e+00 2.000000000000e-02 2.800139999183e-02 8.001399991826e-03 
3.000000000000e+00 0.000000000000e+00 3.000000000000e-02 3.800139999023e-02 8.001399990233e-03 
4.000000000000e+00 0.000000000000e+00 4.000000000000e-02 4.800139999002e-02 8.001399990019e-03 
5.000000000000e+00 0.000000000000e+00 5.000000000000e-02 5.800139999000e-02 8.001399990002e-03 
6.000000000000e+00 0.000000000000e+00 6.000000000000e-02 6.800139999000e-02 8.001399990001e-03 
7.000000000000e+00 0.000000000000e+00 7.000000000000e-02 7.800139999000e-02 8.001399990001e-03 
8.000000000000e+00 0.000000000000e+00 8.000000000000e-02 8.800139999000e-02 8.001399990001e-03 
9.000000000000e+00 0.000000000000e+00 9.000000000000e-02 9.800139999000e-02 8.001399990000e-03 
1.000000000000e+01 0.000000000000e+00 1.000000000000e-01 1.080013999900e-01 8.001399990000e-03 
1.100000000000e+01 0.000000000000e+00 1.100000000000e-01 1.180013999900e-01 8.001399990001e-03 
1.200000000000e+01 0.000000000000e+00 1.200000000000e-01 1.280013999900e-01 8.001399990000e-03 
1.300000000000e+01 0.000000000000e+00 1.300000000000e-01 1.380013999900e-01 8.001399990001e-03 
1.400000000000e+01 0.000000000000e+00 1.400000000000e-01 1.480013999900e-01 8.001399990001e-03 
1.500000000000e+01 0.000000000000e+00 1.500000000000e-01 1.580013999900e-01 8.001399990000e-03 
1.600000000000e+01 0.000000000000e+00 1.600000000000e-01 1.680013999900e-01 8.001399990001e-03 
1.700000000000e+01 0.000000000000e+00 1.700000000000e-01 1.780013999900e-01 8.001399990000e-03 
1.800000000000e+01 0.000000000000e+00 1.800000000000e-01 1.880013999900e-01 8.001399990000e-03 
1.900000000000e+01 0.000000000000e+00 1.900000000000e-01 1.980013999900e-01 8.001399990001e-03 
2.000000000000e+01 0.000000000000e+00 2.000000000000e-01 2.080013999900e-01 8.001399990000e-03 
2.100000000000e+01 0.000000000000e+00 2.100000000000e-01 2.180013999900e-01 8.001399990001e-03 
2.200000000000e+01 0.000000000000e+00 2.200000000000e-01 2.280013999900e-01 8.001399990000e-03 
2.300000000000e+01 0.000000000000e+00 2.300000000000e-01 2.380013999900e-01 8.001399990000e-03 
2.400000000000e+01 0.000000000000e+00 2.400000000000e-01 2.480013999900e-01 8.001399990001e-03 
2.500000000000e+01 0.000000000000e+00 2.500000000000e-01 2.580013999900e-01 8.001399990000e-03 
2.600000000000e+01 0.000000000000e+00 2.600000000000e-01 2.680013999900e-01 8.001399990001e-03 
2.700000000000e+01 0.000000000000e+00 2.700000000000e-01 2.780013999900e-01 8.001399990000e-03 
2.800000000000e+01 0.000000000000e+00 2.800000000000e-01 2.880013999900e-01 8.001399990000e-03 
2.900000000000e+01 0.000000000000e+00 2.900000000000e-01 2.980013999900e-01 8.001399990001e-03 
3.000000000000e+01 0.000000000000e+00 3.000000000000e-01 3.080013999900e-01 8.001399990000e-03 
3.100000000000e+01 0.000000000000e+00 3.100000000000e-01 3.180013999900e-01 8.001399990000e-03 
3.200000000000e+01 0.000000000000e+00 3.200000000000e-01 3.280013999900e-01 8.001399990000e-03 
3.300000000000e+01 0.000000000000e+00 3.300000000000e-01 3.380013999900e-01 8.001399990000e-03 
3.400000000000e+01 0.000000000000e+00 3.400000000000e-01 3.480013999900e-01 8.001399990000e-03 
3.500000000000e+01 0.000000000000e+00 3.500000000000e-01 3.580013999900e-01 8.001399990000e-03 
3.600000000000e+01 0.000000000000e+00 3.600000000000e-01 3.680013999900e-01 8.001399990000e-03 
3.700000000000e+01 0.000000000000e+00 3.700000000000e-01 3.780013999900e-01 8.001399990000e-03 
3.800000000000e+01 0.000000000000e+00 3.800000000000e-01 3.880013999900e-01 8.001399990000e-03 
3.900000000000e+01 0.000000000000e+00 3.900000000000e-01 3.980013999900e-01 8.001399990000e-03 
4.000000000000e+01 0.000000000000e+00 4.000000000000e-01 4.080013999900e-01 8.001399990000e-03 
4.100000000000e+01 0.000000000000e+00 4.100000000000e-01 4.180013999900e-01 8.001399990000e-03 
4.200000000000e+01 0.000000000000e+00 4.200000000000e-01 4.280013999900e-01 8.001399990001e-03 
4.300000000000e+01 0.000000000000e+00 4.300000000000e-01 4.380013999900e-01 8.001399990000e-03 
4.400000000000e+01 0.000000000000e+00 4.400000000000e-01 4.480013999900e-01 8.001399990001e-03 
4.500000000000e+01 0.000000000000e+00 4.500000000000e-01 4.580013999900e-01 8.001399990000e-03 
4.600000000000e+01 0.000000000000e+00 4.600000000000e-01 4.680013999900e-01 8.001399990001e-03 
4.700000000000e+01 0.000000000000e+00 4.700000000000e-01 4.780013999900e-01 8.001399990000e-03 
4.800000000000e+01 0.000000000000e+00 4.800000000000e-01 4.880013999900e-01 8.001399990001e-03 
4.900000000000e+01 0.000000000000e+00 4.900000000000e-01 4.980013999900e-01 8.001399989997e-03 
5.000000000000e+01 0.000000000000e+00 5.000000000000e-01 5.080013999900e-01 8.001399990004e-03 
5.100000000000e+01 0.000000000000e+00 5.100000000000e-01 5.180013999900e-01 8.001399989999e-03 
5.200000000000e+01 0.000000000000e+00 5.200000000000e-01 5.280013999900e-01 8.001399990001e-03 
5.300000000000e+01 0.000000000000e+00 5.300000000000e-01 5.380013999900e-01 8.001399990000e-03 
5.400000000000e+01 0.000000000000e+00 5.400000000000e-01 5.480013999900e-01 8.001399990000e-03 
5.500000000000e+01 0.000000000000e+00 5.500000000000e-01 5.580013999900e-01 8.001399990000e-03 
5.600000000000e+01 0.000000000000e+00 5.600000000000e-01 5.680013999900e-01 8.001399990001e-03 
5.700000000000e+01 0.000000000000e+00 5.700000000000e-01 5.780013999900e-01 8.001399990000e-03 
5.800000000000e+01 0.000000000000e+00 5.800000000000e-01 5.880013999900e-01 8.001399990001e-03 
5.900000000000e+01 0.000000000000e+00 5.900000000000e-01 5.980013999900e-01 8.001399990000e-03 
6.000000000000e+01 0.000000000000e+00 6.000000000000e-01 6.080013999900e-01 8.001399990000e-03 
6.100000000000e+01 0.000000000000e+00 6.100000000000e-01 6.180013999900e-01 8.001399990000e-03 
6.200000000000e+01 0.000000000000e+00 6.200000000000e-01 6.280013999900e-01 8.001399990000e-03 
6.300000000000e+01 0.000000000000e+00 6.300000000000e-01 6.380013999900e-01 8.001399990001e-03 
6.400000000000e+01 0.000000000000e+00 6.400000000000e-01 6.480013999900e-01 8.001399990000e-03 
6.500000000000e+01 0.000000000000e+00 6.500000000000e-01 6.580013999900e-01 8.001399990001e-03 
6.600000000000e+01 0.000000000000e+00 6.600000000000e-01 6.680013999900e-01 8.001399990000e-03 
6.700000000000e+01 0.000000000000e+00 6.700000000000e-01 6.780013999900e-01 8.001399990001e-03 
6.800000000000e+01 0.000000000000e+00 6.800000000000e-01 6.880013999900e-01 8.001399990000e-03 
6.900000000000e+01 0.000000000000e+00 6.900000000000e-01 6.980013999900e-01 8.001399990001e-03 
7.000000000000e+01 0.000000000000e+00 7.000000000000e-01 7.080013999900e-01 8.001399990001e-03 
7.100000000000e+01 0.000000000000e+00 7.100000000000e-01 7.180013999900e-01 8.001399990000e-03 
7.200000000000e+01 0.000000000000e+00 7.200000000000e-01 7.280013999900e-01 8.001399990001e-03 
7.300000000000e+01 0.000000000000e+00 7.300000000000e-01 7.380013999900e-01 8.001399990000e-03 