 TITLE = "Time curves in points"
 VARIABLES = "TIME "  "HEAD"  "WDEPTH"  "FLUX" 
 ZONE T="POINT=POINT0"
0.000000000000e+00 1.000000000000e-06 0.000000000000e+00 0.000000000000e+00 
1.000000000000e+00 4.000992265577e-03 4.000992265577e-03 9.033435975449e-05 
2.000000000000e+00 8.000971731750e-03 8.000971731750e-03 2.873963605017e-04 
3.000000000000e+00 1.200093964681e-02 1.200093964681e-02 5.656168897659e-04 
4.000000000000e+00 1.600089973601e-02 1.600089973601e-02 9.144375654731e-04 
5.000000000000e+00 2.000085560854e-02 2.000085560854e-02 1.327345625098e-03 
6.000000000000e+00 2.400080954782e-02 2.400080954782e-02 1.799741476499e-03 
7.000000000000e+00 2.800076304051e-02 2.800076304051e-02 2.328126562418e-03 
8.000000000000e+00 3.200071613263e-02 3.200071613263e-02 2.909709313603e-03 
9.000000000000e+00 3.600066884648e-02 3.600066884648e-02 3.542187587560e-03 
1.000000000000e+01 4.000062116549e-02 4.000062116549e-02 4.223615265831e-03 
1.100000000000e+01 4.400057304957e-02 4.400057304957e-02 4.952315617521e-03 
1.200000000000e+01 4.800052444311e-02 4.800052444311e-02 5.726821992036e-03 
1.300000000000e+01 5.200047529052e-02 5.200047529052e-02 6.545835643123e-03 
1.400000000000e+01 5.600042651713e-02 5.600042651713e-02 7.408195382187e-03 
1.500000000000e+01 6.000037700061e-02 6.000037700061e-02 8.312851910307e-03 
1.600000000000e+01 6.400032709481e-02 6.400032709481e-02 9.258852436010e-03 
1.700000000000e+01 6.800027651582e-02 6.800027651582e-02 1.024532466455e-02 
1.800000000000e+01 7.200022618039e-02 7.200022618039e-02 1.127146702182e-02 
1.900000000000e+01 7.600017486009e-02 7.600017486009e-02 1.233653669776e-02 
2.000000000000e+01 8.000012389184e-02 8.000012389184e-02 1.343984596115e-02 
2.100000000000e+01 8.400007266363e-02 8.400007266363e-02 1.458075208253e-02 
2.200000000000e+01 8.800002109254e-02 8.800002109254e-02 1.575865422172e-02 
2.300000000000e+01 9.199996928693e-02 9.199996928693e-02 1.697298856927e-02 
2.400000000000e+01 9.599991729904e-02 9.599991729904e-02 1.822322439906e-02 
2.500000000000e+01 9.999986514056e-02 9.999986514056e-02 1.950886081515e-02 
2.600000000000e+01 1.039998127790e-01 1.039998127790e-01 2.082942391846e-02 
2.700000000000e+01 1.079997601692e-01 1.079997601692e-01 2.218446436610e-02 
2.800000000000e+01 1.119997074353e-01 1.119997074353e-01 2.357355539688e-02 
2.900000000000e+01 1.159996546747e-01 1.159996546747e-01 2.499629078986e-02 
3.000000000000e+01 1.199996017894e-01 1.199996017894e-01 2.645228296753e-02 
3.100000000000e+01 1.239995486809e-01 1.239995486809e-01 2.794116177127e-02 
3.200000000000e+01 1.279994954441e-01 1.279994954441e-01 2.946257326408e-02 
3.300000000000e+01 1.319994420697e-01 1.319994420697e-01 3.101617828602e-02 
3.400000000000e+01 1.359993885315e-01 1.359993885315e-01 3.260165147986e-02 
3.500000000000e+01 1.399993348515e-01 1.399993348515e-01 3.421868042975e-02 
3.600000000000e+01 1.439992809646e-01 1.439992809646e-01 3.586696462808e-02 
3.700000000000e+01 1.479992267262e-01 1.479992267262e-01 3.754621475994e-02 
3.800000000000e+01 1.519991718171e-01 1.519991718171e-01 3.925615193387e-02 
3.900000000000e+01 1.559991155782e-01 1.559991155782e-01 4.099650696824e-02 
4.000000000000e+01 1.599990566028e-01 1.599990566028e-01 4.276701959810e-02 
4.100000000000e+01 1.639989920963e-01 1.639989920963e-01 4.456743761001e-02 
4.200000000000e+01 1.679989167613e-01 1.679989167613e-01 4.639751581432e-02 
4.300000000000e+01 1.719988208140e-01 1.719988208140e-01 4.825701456722e-02 
4.400000000000e+01 1.759986866244e-01 1.759986866244e-01 5.014569736238e-02 
4.500000000000e+01 1.799984846103e-01 1.799984846103e-01 5.206332869968e-02 
4.600000000000e+01 1.839981656813e-01 1.839981656813e-01 5.400966898140e-02 
4.700000000000e+01 1.879976519248e-01 1.879976519248e-01 5.598446916026e-02 
4.800000000000e+01 1.919968236869e-01 1.919968236869e-01 5.798746282024e-02 
4.900000000000e+01 1.959955030879e-01 1.959955030879e-01 6.001835594307e-02 
5.000000000000e+01 1.999934337452e-01 1.999934337452e-01 6.207681433173e-02 
5.100000000000e+01 2.039902563952e-01 2.039902563952e-01 6.416244737658e-02 
5.200000000000e+01 2.079854824972e-01 2.079854824972e-01 6.627479111045e-02 
5.300000000000e+01 2.119784639478e-01 2.119784639478e-01 6.841328672486e-02 
5.400000000000e+01 2.159683631891e-01 2.159683631891e-01 7.057725911238e-02 
5.500000000000e+01 2.199541233505e-01 2.199541233505e-01 7.276589420842e-02 
5.600000000000e+01 2.239344409827e-01 2.239344409827e-01 7.497821661649e-02 
5.700000000000e+01 2.279077431416e-01 2.279077431416e-01 7.721306876016e-02 
5.800000000000e+01 2.318721707605e-01 2.318721707605e-01 7.946909312353e-02 
5.900000000000e+01 2.358255696881e-01 2.358255696881e-01 8.174471830658e-02 
6.000000000000e+01 2.397654906023e-01 2.397654906023e-01 8.403815014223e-02 
6.100000000000e+01 2.436891983421e-01 2.436891983421e-01 8.634736940916e-02 
6.200000000000e+01 2.475936912604e-01 2.475936912604e-01 8.867013477113e-02 
6.300000000000e+01 2.514757294410e-01 2.514757294410e-01 9.100399322328e-02 
6.400000000000e+01 2.553318708516e-01 2.553318708516e-01 9.334629694727e-02 
6.500000000000e+01 2.591585152131e-01 2.591585152131e-01 9.569422567536e-02 
6.600000000000e+01 2.629519514168e-01 2.629519514168e-01 9.804481302095e-02 
6.700000000000e+01 2.667084101096e-01 2.667084101096e-01 1.003949802202e-01 
6.800000000000e+01 2.704241159975e-01 2.704241159975e-01 1.027415695913e-01 
6.900000000000e+01 2.740953387904e-01 2.740953387904e-01 1.050813781438e-01 
7.000000000000e+01 2.777184450448e-01 2.777184450448e-01 1.074111991659e-01 
7.100000000000e+01 2.812899426275e-01 2.812899426275e-01 1.097278535343e-01 
7.200000000000e+01 2.848065216035e-01 2.848065216035e-01 1.120282246023e-01 
7.300000000000e+01 2.882650897814e-01 2.882650897814e-01 1.143092903325e-01 
7.400000000000e+01 2.916628017123e-01 2.916628017123e-01 1.165681510733e-01 
7.500000000000e+01 2.949970804190e-01 2.949970804190e-01 1.188020520289e-01 
7.600000000000e+01 2.982656348212e-01 2.982656348212e-01 1.210084082678e-01 
7.700000000000e+01 3.014664678737e-01 3.014664678737e-01 1.231848147598e-01 
7.800000000000e+01 3.045978816801e-01 3.045978816801e-01 1.253290622475e-01 
7.900000000000e+01 3.076584765395e-01 3.076584765395e-01 1.274391454299e-01 
8.000000000000e+01 3.106471457281e-01 3.106471457281e-01 1.295132655778e-01 
8.100000000000e+01 3.135630660906e-01 3.135630660906e-01 1.315498331703e-01 
8.200000000000e+01 3.164056857923e-01 3.164056857923e-01 1.335474649047e-01 
8.300000000000e+01 3.191747102634e-01 3.191747102634e-01 1.355049818112e-01 
8.400000000000e+01 3.218700852880e-01 3.218700852880e-01 1.374214009401e-01 
8.500000000000e+01 3.244919796049e-01 3.244919796049e-01 1.392959270336e-01 
8.600000000000e+01 3.270407666846e-01 3.270407666846e-01 1.411279454004e-01 
8.700000000000e+01 3.295170057872e-01 3.295170057872e-01 1.429170088298e-01 
8.800000000000e+01 3.319214236549e-01 3.319214236549e-01 1.446628290805e-01 
8.900000000000e+01 3.342548962389e-01 3.342548962389e-01 1.463652637303e-01 
9.000000000000e+01 3.365184307527e-01 3.365184307527e-01 1.480243045300e-01 
9.100000000000e+01 3.387131490611e-01 3.387131490611e-01 1.496400662269e-01 
9.200000000000e+01 3.408402718761e-01 3.408402718761e-01 1.512127763123e-01 
9.300000000000e+01 3.429011033744e-01 3.429011033744e-01 1.527427614006e-01 
9.400000000000e+01 3.448970179041e-01 3.448970179041e-01 1.542304399410e-01 
9.500000000000e+01 3.468294462372e-01 3.468294462372e-01 1.556763075630e-01 
9.600000000000e+01 3.486998644101e-01 3.486998644101e-01 1.570809307760e-01 
9.700000000000e+01 3.505097829443e-01 3.505097829443e-01 1.584449376411e-01 
9.800000000000e+01 3.522607370156e-01 3.522607370156e-01 1.597690077553e-01 
9.900000000000e+01 3.539542778262e-01 3.539542778262e-01 1.610538656737e-01 
1.000000000000e+02 3.555919647613e-01 3.555919647613e-01 1.623002730091e-01 
1.010000000000e+02 3.571753588392e-01 3.571753588392e-01 1.635090244358e-01 
1.020000000000e+02 3.587060162254e-01 3.587060162254e-01 1.646809357727e-01 
1.030000000000e+02 3.601854827368e-01 3.601854827368e-01 1.658168435304e-01 
1.040000000000e+02 3.616152898215e-01 3.616152898215e-01 1.669175997270e-01 
1.050000000000e+02 3.629969500294e-01 3.629969500294e-01 1.679840636656e-01 
1.060000000000e+02 3.643319540711e-01 3.643319540711e-01 1.690171026570e-01 
1.070000000000e+02 3.656217675730e-01 3.656217675730e-01 1.700175850742e-01 
1.080000000000e+02 3.668678288081e-01 3.668678288081e-01 1.709863785851e-01 
1.090000000000e+02 3.680715467090e-01 3.680715467090e-01 1.719243471063e-01 
1.100000000000e+02 3.692342994143e-01 3.692342994143e-01 1.728323490707e-01 
1.110000000000e+02 3.703574325090e-01 3.703574325090e-01 1.737112323573e-01 
1.120000000000e+02 3.714422585761e-01 3.714422585761e-01 1.745618364861e-01 
1.130000000000e+02 3.724900564569e-01 3.724900564569e-01 1.753849890698e-01 
1.140000000000e+02 3.735020706068e-01 3.735020706068e-01 1.761815041629e-01 
1.150000000000e+02 3.744795109254e-01 3.744795109254e-01 1.769521816236e-01 
1.160000000000e+02 3.754235526788e-01 3.754235526788e-01 1.776978060836e-01 
1.170000000000e+02 3.763353365779e-01 3.763353365779e-01 1.784191461782e-01 
1.180000000000e+02 3.772159689974e-01 3.772159689974e-01 1.791169538777e-01 
1.190000000000e+02 3.780665223407e-01 3.780665223407e-01 1.797919643683e-01 
1.200000000000e+02 3.788880353416e-01 3.788880353416e-01 1.804448944003e-01 
1.210000000000e+02 3.796815136920e-01 3.796815136920e-01 1.810764438872e-01 
1.220000000000e+02 3.804479305959e-01 3.804479305959e-01 1.816872945763e-01 
1.230000000000e+02 3.811882273961e-01 3.811882273961e-01 1.822781102325e-01 
1.240000000000e+02 3.819033142439e-01 3.819033142439e-01 1.828495366786e-01 
1.250000000000e+02 3.825940708203e-01 3.825940708203e-01 1.834022018119e-01 
1.260000000000e+02 3.832613470718e-01 3.832613470718e-01 1.839367157773e-01 
1.270000000000e+02 3.839059639784e-01 3.839059639784e-01 1.844536710820e-01 
1.280000000000e+02 3.845287143261e-01 3.845287143261e-01 1.849536428660e-01 
1.290000000000e+02 3.851303635018e-01 3.851303635018e-01 1.854371891012e-01 
1.300000000000e+02 3.857116502747e-01 3.857116502747e-01 1.859048509029e-01 
1.310000000000e+02 3.862732875939e-01 3.862732875939e-01 1.863571528156e-01 
1.320000000000e+02 3.868159633717e-01 3.868159633717e-01 1.867946031306e-01 
1.330000000000e+02 3.873403413012e-01 3.873403413012e-01 1.872176943096e-01 
1.340000000000e+02 3.878470614866e-01 3.878470614866e-01 1.876269030747e-01 
1.350000000000e+02 3.883367414238e-01 3.883367414238e-01 1.880226911364e-01 
1.360000000000e+02 3.888099765949e-01 3.888099765949e-01 1.884055053263e-01 
1.370000000000e+02 3.892673412443e-01 3.892673412443e-01 1.887757780519e-01 
1.380000000000e+02 3.897093890912e-01 3.897093890912e-01 1.891339276305e-01 
1.390000000000e+02 3.901366540354e-01 3.901366540354e-01 1.894803587023e-01 
1.400000000000e+02 3.905496508537e-01 3.905496508537e-01 1.898154626524e-01 
1.410000000000e+02 3.909488758364e-01 3.909488758364e-01 1.901396176991e-01 
1.420000000000e+02 3.913348074445e-01 3.913348074445e-01 1.904531900341e-01 
1.430000000000e+02 3.917079070150e-01 3.917079070150e-01 1.907565331973e-01 
1.440000000000e+02 3.920686192655e-01 3.920686192655e-01 1.910499890648e-01 
1.450000000000e+02 3.924173729290e-01 3.924173729290e-01 1.913338880511e-01 
1.460000000000e+02 3.927545813317e-01 3.927545813317e-01 1.916085494673e-01 
1.470000000000e+02 3.930806429513e-01 3.930806429513e-01 1.918742818791e-01 
1.480000000000e+02 3.933959419574e-01 3.933959419574e-01 1.921313834371e-01 
1.490000000000e+02 3.937008487291e-01 3.937008487291e-01 1.923801422232e-01 
1.500000000000e+02 3.939957203661e-01 3.939957203661e-01 1.926208365797e-01 
1.510000000000e+02 3.942809011640e-01 3.942809011640e-01 1.928537353887e-01 
1.520000000000e+02 3.945567231058e-01 3.945567231058e-01 1.930790985956e-01 
1.530000000000e+02 3.948235062725e-01 3.948235062725e-01 1.932971768304e-01 
1.540000000000e+02 3.950815592991e-01 3.950815592991e-01 1.935082126390e-01 
1.550000000000e+02 3.953311798170e-01 3.953311798170e-01 1.937124401878e-01 
1.560000000000e+02 3.955726548480e-01 3.955726548480e-01 1.939100856787e-01 
1.570000000000e+02 3.958062611933e-01 3.958062611933e-01 1.941013676091e-01 
1.580000000000e+02 3.960322658109e-01 3.960322658109e-01 1.942864970434e-01 
1.590000000000e+02 3.962509261790e-01 3.962509261790e-01 1.944656778527e-01 
1.600000000000e+02 3.964624906467e-01 3.964624906467e-01 1.946391069731e-01 
1.610000000000e+02 3.966671987706e-01 3.966671987706e-01 1.948069746354e-01 
1.620000000000e+02 3.968652816385e-01 3.968652816385e-01 1.949694645929e-01 
1.630000000000e+02 3.970569621840e-01 3.970569621840e-01 1.951267543520e-01 
1.640000000000e+02 3.972424554847e-01 3.972424554847e-01 1.952790153807e-01 
1.650000000000e+02 3.974219690531e-01 3.974219690531e-01 1.954264133192e-01 
1.660000000000e+02 3.975957031150e-01 3.975957031150e-01 1.955691081829e-01 
1.670000000000e+02 3.977638508764e-01 3.977638508764e-01 1.957072545532e-01 
1.680000000000e+02 3.979265987827e-01 3.979265987827e-01 1.958410017683e-01 
1.690000000000e+02 3.980841267669e-01 3.980841267669e-01 1.959704941075e-01 
1.700000000000e+02 3.982366084861e-01 3.982366084861e-01 1.960958709611e-01 
1.710000000000e+02 3.983842115532e-01 3.983842115532e-01 1.962172670017e-01 
1.720000000000e+02 3.985270977570e-01 3.985270977570e-01 1.963348123512e-01 
1.730000000000e+02 3.986654232753e-01 3.986654232753e-01 1.964486327355e-01 
1.740000000000e+02 3.987993388781e-01 3.987993388781e-01 1.965588496383e-01 
1.750000000000e+02 3.989289901256e-01 3.989289901256e-01 1.966655804486e-01 
1.760000000000e+02 3.990545175630e-01 3.990545175630e-01 1.967689386265e-01 
1.770000000000e+02 3.991760568771e-01 3.991760568771e-01 1.968690337376e-01 
1.780000000000e+02 3.992937391086e-01 3.992937391086e-01 1.969659717472e-01 
1.790000000000e+02 3.994076907986e-01 3.994076907986e-01 1.970598550384e-01 
1.800000000000e+02 3.995180341545e-01 3.995180341545e-01 1.971507825624e-01 
1.810000000000e+02 3.996248872060e-01 3.996248872060e-01 1.972388499562e-01 
1.820000000000e+02 3.997283639566e-01 3.997283639566e-01 1.973241496606e-01 
1.830000000000e+02 3.998285745255e-01 3.998285745255e-01 1.974067710263e-01 
1.840000000000e+02 3.999256252884e-01 3.999256252884e-01 1.974868004224e-01 
1.850000000000e+02 4.000196190082e-01 4.000196190082e-01 1.975643213276e-01 
1.860000000000e+02 4.001106549659e-01 4.001106549659e-01 1.976394144478e-01 
1.870000000000e+02 4.001988290909e-01 4.001988290909e-01 1.977121578298e-01 
1.880000000000e+02 4.002842340635e-01 4.002842340635e-01 1.977826268708e-01 
1.890000000000e+02 4.003669594687e-01 4.003669594687e-01 1.978508946011e-01 
1.900000000000e+02 4.004470918364e-01 4.004470918364e-01 1.979170314502e-01 
1.910000000000e+02 4.005247148242e-01 4.005247148242e-01 1.979811056546e-01 
1.920000000000e+02 4.005999092724e-01 4.005999092724e-01 1.980431831326e-01 
1.930000000000e+02 4.006727533122e-01 4.006727533122e-01 1.981033276528e-01 
1.940000000000e+02 4.007433224655e-01 4.007433224655e-01 1.981616008597e-01 
1.950000000000e+02 4.008116897410e-01 4.008116897410e-01 1.982180623997e-01 
1.960000000000e+02 4.008779257120e-01 4.008779257120e-01 1.982727699352e-01 
1.970000000000e+02 4.009420986065e-01 4.009420986065e-01 1.983257792451e-01 
1.980000000000e+02 4.010042743880e-01 4.010042743880e-01 1.983771442775e-01 
1.990000000000e+02 4.010645168339e-01 4.010645168339e-01 1.984269172157e-01 
2.000000000000e+02 4.011228876121e-01 4.011228876121e-01 1.984751485353e-01 
2.010000000000e+02 4.011794463530e-01 4.011794463530e-01 1.985218870642e-01 
2.020000000000e+02 4.012342507208e-01 4.012342507208e-01 1.985671800362e-01 
2.030000000000e+02 4.012873564807e-01 4.012873564807e-01 1.986110731468e-01 
2.040000000000e+02 4.013388175644e-01 4.013388175644e-01 1.986536106046e-01 
2.050000000000e+02 4.013886861333e-01 4.013886861333e-01 1.986948351810e-01 
2.060000000000e+02 4.014370126388e-01 4.014370126388e-01 1.987347882586e-01 
2.070000000000e+02 4.014838458812e-01 4.014838458812e-01 1.987735098789e-01 
2.080000000000e+02 4.015292330658e-01 4.015292330658e-01 1.988110387862e-01 
2.090000000000e+02 4.015732198578e-01 4.015732198578e-01 1.988474124720e-01 
2.100000000000e+02 4.016158504342e-01 4.016158504342e-01 1.988826672175e-01 
2.110000000000e+02 4.016571675340e-01 4.016571675340e-01 1.989168381297e-01 
2.120000000000e+02 4.016972125078e-01 4.016972125078e-01 1.989499591867e-01 
2.130000000000e+02 4.017360253644e-01 4.017360253644e-01 1.989820632732e-01 
2.140000000000e+02 4.017736448162e-01 4.017736448162e-01 1.990131822147e-01 
2.150000000000e+02 4.018101083228e-01 4.018101083228e-01 1.990433468153e-01 
2.160000000000e+02 4.018454521331e-01 4.018454521331e-01 1.990725868906e-01 
2.170000000000e+02 4.018797113265e-01 4.018797113265e-01 1.991009313005e-01 
2.180000000000e+02 4.019129198547e-01 4.019129198547e-01 1.991284079890e-01 
2.190000000000e+02 4.019451105669e-01 4.019451105669e-01 1.991550439832e-01 
2.200000000000e+02 4.019763152654e-01 4.019763152654e-01 1.991808654691e-01 
2.210000000000e+02 4.020065647291e-01 4.020065647291e-01 1.992058977907e-01 
2.220000000000e+02 4.020358887497e-01 4.020358887497e-01 1.992301654842e-01 
2.230000000000e+02 4.020643161645e-01 4.020643161645e-01 1.992536923036e-01 
2.240000000000e+02 4.020918748883e-01 4.020918748883e-01 1.992765012472e-01 
2.250000000000e+02 4.021185919447e-01 4.021185919447e-01 1.992986145861e-01 
2.260000000000e+02 4.021444934939e-01 4.021444934939e-01 1.993200538787e-01 
2.270000000000e+02 4.021696048628e-01 4.021696048628e-01 1.993408400032e-01 
2.280000000000e+02 4.021939505720e-01 4.021939505720e-01 1.993609931762e-01 
2.290000000000e+02 4.022175543620e-01 4.022175543620e-01 1.993805329740e-01 
2.300000000000e+02 4.022404392195e-01 4.022404392195e-01 1.993994783542e-01 
2.310000000000e+02 4.022626274015e-01 4.022626274015e-01 1.994178476756e-01 
2.320000000000e+02 4.022841404600e-01 4.022841404600e-01 1.994356587176e-01 
2.330000000000e+02 4.023049992643e-01 4.023049992643e-01 1.994529286995e-01 
2.340000000000e+02 4.023252240237e-01 4.023252240237e-01 1.994696742979e-01 
2.350000000000e+02 4.023448343091e-01 4.023448343091e-01 1.994859116648e-01 
2.360000000000e+02 4.023638490737e-01 4.023638490737e-01 1.995016564444e-01 
2.370000000000e+02 4.023822866732e-01 4.023822866732e-01 1.995169237899e-01 
2.380000000000e+02 4.024001648851e-01 4.024001648851e-01 1.995317283784e-01 
2.390000000000e+02 4.024175009274e-01 4.024175009274e-01 1.995460844275e-01 
2.400000000000e+02 4.024343114772e-01 4.024343114772e-01 1.995600057090e-01 
