 TITLE = "Time curves in points"
 VARIABLES = "TIME "  "HEAD"  "WDEPTH"  "FLUX" 
 ZONE T="POINT=POINT0"
0.000000000000e+00 1.000000000000e-06 0.000000000000e+00 0.000000000000e+00 
1.000000000000e+00 4.001199995007e-03 4.001199995007e-03 1.806843768997e-04 
2.000000000000e+00 8.001400000188e-03 8.001400000188e-03 5.748440948154e-04 
3.000000000000e+00 1.200160002752e-02 1.200160002752e-02 1.131337729436e-03 
4.000000000000e+00 1.600180007607e-02 1.600180007607e-02 1.829046968222e-03 
5.000000000000e+00 2.000200013329e-02 2.000200013329e-02 2.654944928110e-03 
6.000000000000e+00 2.400220018560e-02 2.400220018560e-02 3.599831350035e-03 
7.000000000000e+00 2.800240022522e-02 2.800240022522e-02 4.656707675917e-03 
8.000000000000e+00 3.200260025057e-02 3.200260025057e-02 5.819990671419e-03 
9.000000000000e+00 3.600280026369e-02 3.600280026369e-02 7.085075479055e-03 
1.000000000000e+01 4.000300026771e-02 4.000300026771e-02 8.448069426589e-03 
1.100000000000e+01 4.400320026549e-02 4.400320026549e-02 9.905618745637e-03 
1.200000000000e+01 4.800340025914e-02 4.800340025914e-02 1.145478995746e-02 
1.300000000000e+01 5.200360025018e-02 5.200360025018e-02 1.309298540726e-02 
1.400000000000e+01 5.600380023957e-02 5.600380023957e-02 1.481788116376e-02 
1.500000000000e+01 6.000400022800e-02 6.000400022800e-02 1.662738014281e-02 
1.600000000000e+01 6.400420021589e-02 6.400420021589e-02 1.851957592954e-02 
1.700000000000e+01 6.800440020348e-02 6.800440020348e-02 2.049272432539e-02 
1.800000000000e+01 7.200460019107e-02 7.200460019107e-02 2.254522060290e-02 
1.900000000000e+01 7.600480017870e-02 7.600480017870e-02 2.467558106236e-02 
2.000000000000e+01 8.000500016646e-02 8.000500016646e-02 2.688242788962e-02 
2.100000000000e+01 8.400520015443e-02 8.400520015443e-02 2.916447658463e-02 
2.200000000000e+01 8.800540014261e-02 8.800540014261e-02 3.152052542073e-02 
2.300000000000e+01 9.200560013109e-02 9.200560013109e-02 3.394944652812e-02 
2.400000000000e+01 9.600580011979e-02 9.600580011979e-02 3.645017828932e-02 
2.500000000000e+01 1.000060001088e-01 1.000060001088e-01 3.902171880756e-02 
2.600000000000e+01 1.040062000980e-01 1.040062000980e-01 4.166312025740e-02 
2.700000000000e+01 1.080064000874e-01 1.080064000874e-01 4.437348397090e-02 
2.800000000000e+01 1.120066000771e-01 1.120066000771e-01 4.715195613695e-02 
2.900000000000e+01 1.160068000668e-01 1.160068000668e-01 4.999772401969e-02 
3.000000000000e+01 1.200070000563e-01 1.200070000563e-01 5.291001261651e-02 
3.100000000000e+01 1.240072000449e-01 1.240072000449e-01 5.588808169234e-02 
3.200000000000e+01 1.280074000307e-01 1.280074000307e-01 5.893122313441e-02 
3.300000000000e+01 1.320076000087e-01 1.320076000087e-01 6.203875858656e-02 
3.400000000000e+01 1.360077999675e-01 1.360077999675e-01 6.521003732335e-02 
3.500000000000e+01 1.400079998801e-01 1.400079998801e-01 6.844443433001e-02 
3.600000000000e+01 1.440081996831e-01 1.440081996831e-01 7.174134855769e-02 
3.700000000000e+01 1.480083992334e-01 1.480083992334e-01 7.510020132044e-02 
3.800000000000e+01 1.520085982150e-01 1.520085982150e-01 7.852043479099e-02 
3.900000000000e+01 1.560087959515e-01 1.560087959515e-01 8.200151053191e-02 
4.000000000000e+01 1.600089910435e-01 1.600089910435e-01 8.554290796681e-02 
4.100000000000e+01 1.640091807033e-01 1.640091807033e-01 8.914412264524e-02 
4.200000000000e+01 1.680093595864e-01 1.680093595864e-01 9.280466406974e-02 
4.300000000000e+01 1.720095178393e-01 1.720095178393e-01 9.652405276093e-02 
4.400000000000e+01 1.760096379873e-01 1.760096379873e-01 1.003018161145e-01 
4.500000000000e+01 1.800096901920e-01 1.800096901920e-01 1.041374824690e-01 
4.600000000000e+01 1.840096253432e-01 1.840096253432e-01 1.080305726994e-01 
4.700000000000e+01 1.880093654213e-01 1.880093654213e-01 1.119805885584e-01 
4.800000000000e+01 1.920087906108e-01 1.920087906108e-01 1.159869969892e-01 
4.900000000000e+01 1.960077227721e-01 1.960077227721e-01 1.200492097060e-01 
5.000000000000e+01 2.000059051001e-01 2.000059051001e-01 1.241665575412e-01 
5.100000000000e+01 2.040029781040e-01 2.040029781040e-01 1.283382593658e-01 
5.200000000000e+01 2.079984524192e-01 2.079984524192e-01 1.325633858213e-01 
5.300000000000e+01 2.119916793590e-01 2.119916793590e-01 1.368408185856e-01 
5.400000000000e+01 2.159818205087e-01 2.159818205087e-01 1.411692064380e-01 
5.500000000000e+01 2.199678179797e-01 2.199678179797e-01 1.455469198782e-01 
5.600000000000e+01 2.239483671542e-01 2.239483671542e-01 1.499720064635e-01 
5.700000000000e+01 2.279218938236e-01 2.279218938236e-01 1.544421493221e-01 
5.800000000000e+01 2.318865375166e-01 2.318865375166e-01 1.589546313502e-01 
5.900000000000e+01 2.358401425694e-01 2.358401425694e-01 1.635063075332e-01 
6.000000000000e+01 2.397802580876e-01 2.397802580876e-01 1.680935874952e-01 
6.100000000000e+01 2.437041474499e-01 2.437041474499e-01 1.727124298957e-01 
6.200000000000e+01 2.476088074482e-01 2.476088074482e-01 1.773583496874e-01 
6.300000000000e+01 2.514909966060e-01 2.514909966060e-01 1.820264385610e-01 
6.400000000000e+01 2.553472716891e-01 2.553472716891e-01 1.867113981733e-01 
6.500000000000e+01 2.591740310047e-01 2.591740310047e-01 1.914075851174e-01 
6.600000000000e+01 2.629675627651e-01 2.629675627651e-01 1.961090660039e-01 
6.700000000000e+01 2.667240966139e-01 2.667240966139e-01 2.008096805986e-01 
6.800000000000e+01 2.704398563622e-01 2.704398563622e-01 2.055031106624e-01 
6.900000000000e+01 2.741111120549e-01 2.741111120549e-01 2.101829520187e-01 
7.000000000000e+01 2.777342296683e-01 2.777342296683e-01 2.148427874099e-01 
7.100000000000e+01 2.813057169905e-01 2.813057169905e-01 2.194762578395e-01 
7.200000000000e+01 2.848222645364e-01 2.848222645364e-01 2.240771303629e-01 
7.300000000000e+01 2.882807806882e-01 2.882807806882e-01 2.286393606640e-01 
7.400000000000e+01 2.916784205500e-01 2.916784205500e-01 2.331571490494e-01 
7.500000000000e+01 2.950126083313e-01 2.950126083313e-01 2.376249889779e-01 
7.600000000000e+01 2.982810533207e-01 2.982810533207e-01 2.420377075407e-01 
7.700000000000e+01 3.014817597344e-01 3.014817597344e-01 2.463904977068e-01 
7.800000000000e+01 3.046130308960e-01 3.046130308960e-01 2.506789424154e-01 
7.900000000000e+01 3.076734683193e-01 3.076734683193e-01 2.548990308589e-01 
8.000000000000e+01 3.106619663493e-01 3.106619663493e-01 2.590471675035e-01 
8.100000000000e+01 3.135777030412e-01 3.135777030412e-01 2.631201745074e-01 
8.200000000000e+01 3.164201279685e-01 3.164201279685e-01 2.671152883026e-01 
8.300000000000e+01 3.191889476205e-01 3.191889476205e-01 2.710301511496e-01 
8.400000000000e+01 3.218841090121e-01 3.218841090121e-01 2.748627984777e-01 
8.500000000000e+01 3.245057820630e-01 3.245057820630e-01 2.786116428012e-01 
8.600000000000e+01 3.270543412485e-01 3.270543412485e-01 2.822754549598e-01 
8.700000000000e+01 3.295303469469e-01 3.295303469469e-01 2.858533433735e-01 
8.800000000000e+01 3.319345268487e-01 3.319345268487e-01 2.893447319338e-01 
8.900000000000e+01 3.342677577195e-01 3.342677577195e-01 2.927493370692e-01 
9.000000000000e+01 3.365310477560e-01 3.365310477560e-01 2.960671444613e-01 
9.100000000000e+01 3.387255197125e-01 3.387255197125e-01 2.992983858039e-01 
9.200000000000e+01 3.408523949344e-01 3.408523949344e-01 3.024435159429e-01 
9.300000000000e+01 3.429129783832e-01 3.429129783832e-01 3.055031906383e-01 
9.400000000000e+01 3.449086447149e-01 3.449086447149e-01 3.084782451808e-01 
9.500000000000e+01 3.468408254297e-01 3.468408254297e-01 3.113696739897e-01 
9.600000000000e+01 3.487109971023e-01 3.487109971023e-01 3.141786113284e-01 
9.700000000000e+01 3.505206706681e-01 3.505206706681e-01 3.169063131847e-01 
9.800000000000e+01 3.522713817380e-01 3.522713817380e-01 3.195541403736e-01 
9.900000000000e+01 3.539646818945e-01 3.539646818945e-01 3.221235428627e-01 
1.000000000000e+02 3.556021309234e-01 3.556021309234e-01 3.246160453256e-01 
1.010000000000e+02 3.571852899184e-01 3.571852899184e-01 3.270332338825e-01 
1.020000000000e+02 3.587157152046e-01 3.587157152046e-01 3.293767440024e-01 
1.030000000000e+02 3.601949530186e-01 3.601949530186e-01 3.316482495143e-01 
1.040000000000e+02 3.616245348852e-01 3.616245348852e-01 3.338494526718e-01 
1.050000000000e+02 3.630059736309e-01 3.630059736309e-01 3.359820752136e-01 
1.060000000000e+02 3.643407599800e-01 3.643407599800e-01 3.380478503596e-01 
1.070000000000e+02 3.656303596742e-01 3.656303596742e-01 3.400485156722e-01 
1.080000000000e+02 3.668762110683e-01 3.668762110683e-01 3.419858067269e-01 
1.090000000000e+02 3.680797231523e-01 3.680797231523e-01 3.438614515298e-01 
1.100000000000e+02 3.692422739547e-01 3.692422739547e-01 3.456771656190e-01 
1.110000000000e+02 3.703652092855e-01 3.703652092855e-01 3.474346477961e-01 
1.120000000000e+02 3.714498417794e-01 3.714498417794e-01 3.491355764213e-01 
1.130000000000e+02 3.724974502065e-01 3.724974502065e-01 3.507816062413e-01 
1.140000000000e+02 3.735092790169e-01 3.735092790169e-01 3.523743656816e-01 
1.150000000000e+02 3.744865380893e-01 3.744865380893e-01 3.539154545659e-01 
1.160000000000e+02 3.754304026591e-01 3.754304026591e-01 3.554064422215e-01 
1.170000000000e+02 3.763420134010e-01 3.763420134010e-01 3.568488659284e-01 
1.180000000000e+02 3.772224766444e-01 3.772224766444e-01 3.582442296749e-01 
1.190000000000e+02 3.780728647040e-01 3.780728647040e-01 3.595940031927e-01 
1.200000000000e+02 3.788942163065e-01 3.788942163065e-01 3.608996212333e-01 
1.210000000000e+02 3.796875371000e-01 3.796875371000e-01 3.621624830638e-01 
1.220000000000e+02 3.804538002303e-01 3.804538002303e-01 3.633839521526e-01 
1.230000000000e+02 3.811939469748e-01 3.811939469748e-01 3.645653560254e-01 
1.240000000000e+02 3.819088874210e-01 3.819088874210e-01 3.657079862696e-01 
1.250000000000e+02 3.825995011810e-01 3.825995011810e-01 3.668130986654e-01 
1.260000000000e+02 3.832666381351e-01 3.832666381351e-01 3.678819134321e-01 
1.270000000000e+02 3.839111191939e-01 3.839111191939e-01 3.689156155688e-01 
1.280000000000e+02 3.845337370773e-01 3.845337370773e-01 3.699153552799e-01 
1.290000000000e+02 3.851352571005e-01 3.851352571005e-01 3.708822484704e-01 
1.300000000000e+02 3.857164179654e-01 3.857164179654e-01 3.718173773025e-01 
1.310000000000e+02 3.862779325509e-01 3.862779325509e-01 3.727217907991e-01 
1.320000000000e+02 3.868204887010e-01 3.868204887010e-01 3.735965054918e-01 
1.330000000000e+02 3.873447500055e-01 3.873447500055e-01 3.744425060998e-01 
1.340000000000e+02 3.878513565726e-01 3.878513565726e-01 3.752607462379e-01 
1.350000000000e+02 3.883409257896e-01 3.883409257896e-01 3.760521491413e-01 
1.360000000000e+02 3.888140530709e-01 3.888140530709e-01 3.768176084078e-01 
1.370000000000e+02 3.892713125929e-01 3.892713125929e-01 3.775579887507e-01 
1.380000000000e+02 3.897132580112e-01 3.897132580112e-01 3.782741267552e-01 
1.390000000000e+02 3.901404231635e-01 3.901404231635e-01 3.789668316394e-01 
1.400000000000e+02 3.905533227541e-01 3.905533227541e-01 3.796368860135e-01 
1.410000000000e+02 3.909524530208e-01 3.909524530208e-01 3.802850466359e-01 
1.420000000000e+02 3.913382923843e-01 3.913382923843e-01 3.809120451625e-01 
1.430000000000e+02 3.917113020786e-01 3.917113020786e-01 3.815185888896e-01 
1.440000000000e+02 3.920719267635e-01 3.920719267635e-01 3.821053614860e-01 
1.450000000000e+02 3.924205951180e-01 3.924205951180e-01 3.826730237138e-01 
1.460000000000e+02 3.927577204159e-01 3.927577204159e-01 3.832222141378e-01 
1.470000000000e+02 3.930837010826e-01 3.930837010826e-01 3.837535498202e-01 
1.480000000000e+02 3.933989212341e-01 3.933989212341e-01 3.842676270026e-01 
1.490000000000e+02 3.937037511983e-01 3.937037511983e-01 3.847650217722e-01 
1.500000000000e+02 3.939985480182e-01 3.939985480182e-01 3.852462907122e-01 
1.510000000000e+02 3.942836559387e-01 3.942836559387e-01 3.857119715375e-01 
1.520000000000e+02 3.945594068758e-01 3.945594068758e-01 3.861625837137e-01 
1.530000000000e+02 3.948261208700e-01 3.948261208700e-01 3.865986290596e-01 
1.540000000000e+02 3.950841065235e-01 3.950841065235e-01 3.870205923340e-01 
1.550000000000e+02 3.953336614212e-01 3.953336614212e-01 3.874289418059e-01 
1.560000000000e+02 3.955750725377e-01 3.955750725377e-01 3.878241298084e-01 
1.570000000000e+02 3.958086166284e-01 3.958086166284e-01 3.882065932761e-01 
1.580000000000e+02 3.960345606070e-01 3.960345606070e-01 3.885767542669e-01 
1.590000000000e+02 3.962531619088e-01 3.962531619088e-01 3.889350204676e-01 
1.600000000000e+02 3.964646688411e-01 3.964646688411e-01 3.892817856849e-01 
1.610000000000e+02 3.966693209197e-01 3.966693209197e-01 3.896174303189e-01 
1.620000000000e+02 3.968673491936e-01 3.968673491936e-01 3.899423218236e-01 
1.630000000000e+02 3.970589765576e-01 3.970589765576e-01 3.902568151522e-01 
1.640000000000e+02 3.972444180526e-01 3.972444180526e-01 3.905612531871e-01 
1.650000000000e+02 3.974238811551e-01 3.974238811551e-01 3.908559671566e-01 
1.660000000000e+02 3.975975660555e-01 3.975975660555e-01 3.911412770375e-01 
1.670000000000e+02 3.977656659264e-01 3.977656659264e-01 3.914174919441e-01 
1.680000000000e+02 3.979283671797e-01 3.979283671797e-01 3.916849105049e-01 
1.690000000000e+02 3.980858497155e-01 3.980858497155e-01 3.919438212255e-01 
1.700000000000e+02 3.982382871599e-01 3.982382871599e-01 3.921945028401e-01 
1.710000000000e+02 3.983858470952e-01 3.983858470952e-01 3.924372246505e-01 
1.720000000000e+02 3.985286912805e-01 3.985286912805e-01 3.926722468536e-01 
1.730000000000e+02 3.986669758641e-01 3.986669758641e-01 3.928998208573e-01 
1.740000000000e+02 3.988008515881e-01 3.988008515881e-01 3.931201895861e-01 
1.750000000000e+02 3.989304639850e-01 3.989304639850e-01 3.933335877753e-01 
1.760000000000e+02 3.990559535667e-01 3.990559535667e-01 3.935402422558e-01 
1.770000000000e+02 3.991774560070e-01 3.991774560070e-01 3.937403722281e-01 
1.780000000000e+02 3.992951023160e-01 3.992951023160e-01 3.939341895273e-01 
1.790000000000e+02 3.994090190093e-01 3.994090190093e-01 3.941218988789e-01 
1.800000000000e+02 3.995193282695e-01 3.995193282695e-01 3.943036981441e-01 
1.810000000000e+02 3.996261481027e-01 3.996261481027e-01 3.944797785593e-01 
1.820000000000e+02 3.997295924880e-01 3.997295924880e-01 3.946503249642e-01 
1.830000000000e+02 3.998297715225e-01 3.998297715225e-01 3.948155160240e-01 
1.840000000000e+02 3.999267915598e-01 3.999267915598e-01 3.949755244421e-01 
1.850000000000e+02 4.000207553440e-01 4.000207553440e-01 3.951305171666e-01 
1.860000000000e+02 4.001117621384e-01 4.001117621384e-01 3.952806555888e-01 
1.870000000000e+02 4.001999078491e-01 4.001999078491e-01 3.954260957348e-01 
1.880000000000e+02 4.002852851446e-01 4.002852851446e-01 3.955669884502e-01 
1.890000000000e+02 4.003679835705e-01 4.003679835705e-01 3.957034795785e-01 
1.900000000000e+02 4.004480896597e-01 4.004480896597e-01 3.958357101329e-01 
1.910000000000e+02 4.005256870392e-01 4.005256870392e-01 3.959638164624e-01 
1.920000000000e+02 4.006008565321e-01 4.006008565321e-01 3.960879304114e-01 
1.930000000000e+02 4.006736762566e-01 4.006736762566e-01 3.962081794744e-01 
1.940000000000e+02 4.007442217207e-01 4.007442217207e-01 3.963246869447e-01 
1.950000000000e+02 4.008125659135e-01 4.008125659135e-01 3.964375720575e-01 
1.960000000000e+02 4.008787793936e-01 4.008787793936e-01 3.965469501292e-01 
1.970000000000e+02 4.009429303738e-01 4.009429303738e-01 3.966529326904e-01 
1.980000000000e+02 4.010050848027e-01 4.010050848027e-01 3.967556276151e-01 
1.990000000000e+02 4.010653064434e-01 4.010653064434e-01 3.968551392447e-01 
2.000000000000e+02 4.011236569493e-01 4.011236569493e-01 3.969515685084e-01 
2.010000000000e+02 4.011801959374e-01 4.011801959374e-01 3.970450130382e-01 
2.020000000000e+02 4.012349810582e-01 4.012349810582e-01 3.971355672814e-01 
2.030000000000e+02 4.012880680639e-01 4.012880680639e-01 3.972233226076e-01 
2.040000000000e+02 4.013395108735e-01 4.013395108735e-01 3.973083674131e-01 
2.050000000000e+02 4.013893616360e-01 4.013893616360e-01 3.973907872207e-01 
2.060000000000e+02 4.014376707907e-01 4.014376707907e-01 3.974706647772e-01 
2.070000000000e+02 4.014844871263e-01 4.014844871263e-01 3.975480801460e-01 
2.080000000000e+02 4.015298578367e-01 4.015298578367e-01 3.976231107974e-01 
2.090000000000e+02 4.015738285757e-01 4.015738285757e-01 3.976958316962e-01 
2.100000000000e+02 4.016164435094e-01 4.016164435094e-01 3.977663153848e-01 
2.110000000000e+02 4.016577453666e-01 4.016577453666e-01 3.978346320645e-01 
2.120000000000e+02 4.016977754876e-01 4.016977754876e-01 3.979008496740e-01 
2.130000000000e+02 4.017365738712e-01 4.017365738712e-01 3.979650339643e-01 
2.140000000000e+02 4.017741792199e-01 4.017741792199e-01 3.980272485722e-01 
2.150000000000e+02 4.018106289840e-01 4.018106289840e-01 3.980875550901e-01 
2.160000000000e+02 4.018459594032e-01 4.018459594032e-01 3.981460131341e-01 
2.170000000000e+02 4.018802055477e-01 4.018802055477e-01 3.982026804097e-01 
2.180000000000e+02 4.019134013574e-01 4.019134013574e-01 3.982576127748e-01 
2.190000000000e+02 4.019455796793e-01 4.019455796793e-01 3.983108643009e-01 
2.200000000000e+02 4.019767723048e-01 4.019767723048e-01 3.983624873325e-01 
2.210000000000e+02 4.020070100042e-01 4.020070100042e-01 3.984125325435e-01 
2.220000000000e+02 4.020363225613e-01 4.020363225613e-01 3.984610489924e-01 
2.230000000000e+02 4.020647388056e-01 4.020647388056e-01 3.985080841759e-01 
2.240000000000e+02 4.020922866447e-01 4.020922866447e-01 3.985536840795e-01 
2.250000000000e+02 4.021189930943e-01 4.021189930943e-01 3.985978932276e-01 
2.260000000000e+02 4.021448843081e-01 4.021448843081e-01 3.986407547313e-01 
2.270000000000e+02 4.021699856058e-01 4.021699856058e-01 3.986823103345e-01 
2.280000000000e+02 4.021943215012e-01 4.021943215012e-01 3.987226004586e-01 
2.290000000000e+02 4.022179157286e-01 4.022179157286e-01 3.987616642459e-01 
2.300000000000e+02 4.022407912679e-01 4.022407912679e-01 3.987995396010e-01 
2.310000000000e+02 4.022629703703e-01 4.022629703703e-01 3.988362632314e-01 
2.320000000000e+02 4.022844745813e-01 4.022844745813e-01 3.988718706861e-01 
2.330000000000e+02 4.023053247645e-01 4.023053247645e-01 3.989063963936e-01 
2.340000000000e+02 4.023255411234e-01 4.023255411234e-01 3.989398736978e-01 
2.350000000000e+02 4.023451432233e-01 4.023451432233e-01 3.989723348936e-01 
2.360000000000e+02 4.023641386950e-01 4.023641386950e-01 3.990034849844e-01 
2.370000000000e+02 4.023825603679e-01 4.023825603679e-01 3.990340023048e-01 
2.380000000000e+02 4.024004250888e-01 4.024004250888e-01 3.990635980633e-01 
2.390000000000e+02 4.024177494924e-01 4.024177494924e-01 3.990922996392e-01 
2.400000000000e+02 4.024345498613e-01 4.024345498613e-01 3.991201338837e-01 
