 TITLE = "Time curves in points"
 VARIABLES = "TIME "  "HEAD"  "WDEPTH"  "FLUX" 
 ZONE T="POINT=POINT0"
0.000000000000e+00 1.000000000000e-06 0.000000000000e+00 0.000000000000e+00 
1.000000000000e+00 4.000992265577e-03 4.000992265577e-03 9.033435975449e-05 
2.000000000000e+00 8.000971731750e-03 8.000971731750e-03 2.873963605017e-04 
3.000000000000e+00 1.200093964681e-02 1.200093964681e-02 5.656168897660e-04 
4.000000000000e+00 1.600089973601e-02 1.600089973601e-02 9.144375654730e-04 
5.000000000000e+00 2.000085560854e-02 2.000085560854e-02 1.327345625098e-03 
6.000000000000e+00 2.400080954782e-02 2.400080954782e-02 1.799741476498e-03 
7.000000000000e+00 2.800076304051e-02 2.800076304051e-02 2.328126562419e-03 
8.000000000000e+00 3.200071613263e-02 3.200071613263e-02 2.909709313605e-03 
9.000000000000e+00 3.600066884648e-02 3.600066884648e-02 3.542187587563e-03 
1.000000000000e+01 4.000062116550e-02 4.000062116550e-02 4.223615265827e-03 
1.100000000000e+01 4.400057304957e-02 4.400057304957e-02 4.952315617527e-03 
1.200000000000e+01 4.800052444311e-02 4.800052444311e-02 5.726821992035e-03 
1.300000000000e+01 5.200047529048e-02 5.200047529048e-02 6.545835643095e-03 
1.400000000000e+01 5.600042651713e-02 5.600042651713e-02 7.408195382196e-03 
1.500000000000e+01 6.000037700063e-02 6.000037700063e-02 8.312851910328e-03 
1.600000000000e+01 6.400032709485e-02 6.400032709485e-02 9.258852436037e-03 
1.700000000000e+01 6.800027651585e-02 6.800027651585e-02 1.024532466457e-02 
1.800000000000e+01 7.200022618039e-02 7.200022618039e-02 1.127146702183e-02 
1.900000000000e+01 7.600017486007e-02 7.600017486007e-02 1.233653669776e-02 
2.000000000000e+01 8.000012389175e-02 8.000012389175e-02 1.343984596108e-02 
2.100000000000e+01 8.400007266364e-02 8.400007266364e-02 1.458075208254e-02 
2.200000000000e+01 8.800002109248e-02 8.800002109248e-02 1.575865422162e-02 
2.300000000000e+01 9.199996928688e-02 9.199996928688e-02 1.697298856923e-02 
2.400000000000e+01 9.599991729906e-02 9.599991729906e-02 1.822322439910e-02 
2.500000000000e+01 9.999986514061e-02 9.999986514061e-02 1.950886081519e-02 
2.600000000000e+01 1.039998127790e-01 1.039998127790e-01 2.082942391847e-02 
2.700000000000e+01 1.079997601690e-01 1.079997601690e-01 2.218446436587e-02 
2.800000000000e+01 1.119997074351e-01 1.119997074351e-01 2.357355539669e-02 
2.900000000000e+01 1.159996546748e-01 1.159996546748e-01 2.499629078994e-02 
3.000000000000e+01 1.199996017895e-01 1.199996017895e-01 2.645228296750e-02 
3.100000000000e+01 1.239995486810e-01 1.239995486810e-01 2.794116177138e-02 
3.200000000000e+01 1.279994954443e-01 1.279994954443e-01 2.946257326417e-02 
3.300000000000e+01 1.319994420696e-01 1.319994420696e-01 3.101617828587e-02 
3.400000000000e+01 1.359993885315e-01 1.359993885315e-01 3.260165147989e-02 
3.500000000000e+01 1.399993348515e-01 1.399993348515e-01 3.421868042945e-02 
3.600000000000e+01 1.439992809647e-01 1.439992809647e-01 3.586696462814e-02 
3.700000000000e+01 1.479992267263e-01 1.479992267263e-01 3.754621476001e-02 
3.800000000000e+01 1.519991718167e-01 1.519991718167e-01 3.925615193360e-02 
3.900000000000e+01 1.559991155783e-01 1.559991155783e-01 4.099650696855e-02 
4.000000000000e+01 1.599990566028e-01 1.599990566028e-01 4.276701959786e-02 
4.100000000000e+01 1.639989920962e-01 1.639989920962e-01 4.456743760963e-02 
4.200000000000e+01 1.679989167617e-01 1.679989167617e-01 4.639751581493e-02 
4.300000000000e+01 1.719988208144e-01 1.719988208144e-01 4.825701456804e-02 
4.400000000000e+01 1.759986866244e-01 1.759986866244e-01 5.014569736245e-02 
4.500000000000e+01 1.799984846104e-01 1.799984846104e-01 5.206332869981e-02 
4.600000000000e+01 1.839981656809e-01 1.839981656809e-01 5.400966898084e-02 
4.700000000000e+01 1.879976519244e-01 1.879976519244e-01 5.598446915989e-02 
4.800000000000e+01 1.919968236869e-01 1.919968236869e-01 5.798746282008e-02 
4.900000000000e+01 1.959955030878e-01 1.959955030878e-01 6.001835594344e-02 
5.000000000000e+01 1.999934337452e-01 1.999934337452e-01 6.207681433168e-02 
5.100000000000e+01 2.039902563954e-01 2.039902563954e-01 6.416244737658e-02 
5.200000000000e+01 2.079854824967e-01 2.079854824967e-01 6.627479110980e-02 
5.300000000000e+01 2.119784639481e-01 2.119784639481e-01 6.841328672510e-02 
5.400000000000e+01 2.159683631899e-01 2.159683631899e-01 7.057725911378e-02 
5.500000000000e+01 2.199541233505e-01 2.199541233505e-01 7.276589420831e-02 
5.600000000000e+01 2.239344409828e-01 2.239344409828e-01 7.497821661605e-02 
5.700000000000e+01 2.279077431414e-01 2.279077431414e-01 7.721306876006e-02 
5.800000000000e+01 2.318721707605e-01 2.318721707605e-01 7.946909312372e-02 
5.900000000000e+01 2.358255696879e-01 2.358255696879e-01 8.174471830626e-02 
6.000000000000e+01 2.397654906010e-01 2.397654906010e-01 8.403815013884e-02 
6.100000000000e+01 2.436891983412e-01 2.436891983412e-01 8.634736940906e-02 
6.200000000000e+01 2.475936912602e-01 2.475936912602e-01 8.867013477116e-02 
6.300000000000e+01 2.514757294407e-01 2.514757294407e-01 9.100399322324e-02 
6.400000000000e+01 2.553318708507e-01 2.553318708507e-01 9.334629694525e-02 
6.500000000000e+01 2.591585152129e-01 2.591585152129e-01 9.569422567510e-02 
6.600000000000e+01 2.629519514175e-01 2.629519514175e-01 9.804481302263e-02 
6.700000000000e+01 2.667084101094e-01 2.667084101094e-01 1.003949802176e-01 
6.800000000000e+01 2.704241159976e-01 2.704241159976e-01 1.027415695918e-01 
6.900000000000e+01 2.740953387910e-01 2.740953387910e-01 1.050813781459e-01 
7.000000000000e+01 2.777184450464e-01 2.777184450464e-01 1.074111991680e-01 
7.100000000000e+01 2.812899426287e-01 2.812899426287e-01 1.097278535361e-01 
7.200000000000e+01 2.848065216051e-01 2.848065216051e-01 1.120282246045e-01 
7.300000000000e+01 2.882650897810e-01 2.882650897810e-01 1.143092903312e-01 
7.400000000000e+01 2.916628017122e-01 2.916628017122e-01 1.165681510742e-01 
7.500000000000e+01 2.949970804183e-01 2.949970804183e-01 1.188020520274e-01 
7.600000000000e+01 2.982656348198e-01 2.982656348198e-01 1.210084082648e-01 
7.700000000000e+01 3.014664678727e-01 3.014664678727e-01 1.231848147581e-01 
7.800000000000e+01 3.045978816807e-01 3.045978816807e-01 1.253290622487e-01 
7.900000000000e+01 3.076584765396e-01 3.076584765396e-01 1.274391454305e-01 
8.000000000000e+01 3.106471457277e-01 3.106471457277e-01 1.295132655765e-01 
8.100000000000e+01 3.135630660900e-01 3.135630660900e-01 1.315498331705e-01 
8.200000000000e+01 3.164056857916e-01 3.164056857916e-01 1.335474649028e-01 
8.300000000000e+01 3.191747102630e-01 3.191747102630e-01 1.355049818098e-01 
8.400000000000e+01 3.218700852874e-01 3.218700852874e-01 1.374214009374e-01 
8.500000000000e+01 3.244919796047e-01 3.244919796047e-01 1.392959270337e-01 
8.600000000000e+01 3.270407666840e-01 3.270407666840e-01 1.411279453978e-01 
8.700000000000e+01 3.295170057863e-01 3.295170057863e-01 1.429170088290e-01 
8.800000000000e+01 3.319214236544e-01 3.319214236544e-01 1.446628290783e-01 
8.900000000000e+01 3.342548962386e-01 3.342548962386e-01 1.463652637291e-01 
9.000000000000e+01 3.365184307529e-01 3.365184307529e-01 1.480243045307e-01 
9.100000000000e+01 3.387131490606e-01 3.387131490606e-01 1.496400662254e-01 
9.200000000000e+01 3.408402718762e-01 3.408402718762e-01 1.512127763123e-01 
9.300000000000e+01 3.429011033757e-01 3.429011033757e-01 1.527427614029e-01 
9.400000000000e+01 3.448970179055e-01 3.448970179055e-01 1.542304399426e-01 
9.500000000000e+01 3.468294462374e-01 3.468294462374e-01 1.556763075629e-01 
9.600000000000e+01 3.486998644097e-01 3.486998644097e-01 1.570809307756e-01 
9.700000000000e+01 3.505097829439e-01 3.505097829439e-01 1.584449376394e-01 
9.800000000000e+01 3.522607370151e-01 3.522607370151e-01 1.597690077639e-01 
9.900000000000e+01 3.539542778261e-01 3.539542778261e-01 1.610538656730e-01 
1.000000000000e+02 3.555919647627e-01 3.555919647627e-01 1.623002730108e-01 
1.010000000000e+02 3.571753588397e-01 3.571753588397e-01 1.635090244358e-01 
1.020000000000e+02 3.587060162264e-01 3.587060162264e-01 1.646809357735e-01 
1.030000000000e+02 3.601854827353e-01 3.601854827353e-01 1.658168435272e-01 
1.040000000000e+02 3.616152898213e-01 3.616152898213e-01 1.669175997268e-01 
1.050000000000e+02 3.629969500295e-01 3.629969500295e-01 1.679840636657e-01 
1.060000000000e+02 3.643319540714e-01 3.643319540714e-01 1.690171026575e-01 
1.070000000000e+02 3.656217675742e-01 3.656217675742e-01 1.700175850759e-01 
1.080000000000e+02 3.668678288076e-01 3.668678288076e-01 1.709863785829e-01 
1.090000000000e+02 3.680715467088e-01 3.680715467088e-01 1.719243471059e-01 
1.100000000000e+02 3.692342994133e-01 3.692342994133e-01 1.728323490684e-01 
1.110000000000e+02 3.703574325090e-01 3.703574325090e-01 1.737112323568e-01 
1.120000000000e+02 3.714422585758e-01 3.714422585758e-01 1.745618364858e-01 
1.130000000000e+02 3.724900564570e-01 3.724900564570e-01 1.753849890696e-01 
1.140000000000e+02 3.735020706077e-01 3.735020706077e-01 1.761815041642e-01 
1.150000000000e+02 3.744795109255e-01 3.744795109255e-01 1.769521816240e-01 
1.160000000000e+02 3.754235526793e-01 3.754235526793e-01 1.776978060840e-01 
1.170000000000e+02 3.763353365785e-01 3.763353365785e-01 1.784191461784e-01 
1.180000000000e+02 3.772159689975e-01 3.772159689975e-01 1.791169538772e-01 
1.190000000000e+02 3.780665223406e-01 3.780665223406e-01 1.797919643686e-01 
1.200000000000e+02 3.788880353416e-01 3.788880353416e-01 1.804448944003e-01 
1.210000000000e+02 3.796815136920e-01 3.796815136920e-01 1.810764438871e-01 
1.220000000000e+02 3.804479305959e-01 3.804479305959e-01 1.816872945765e-01 
1.230000000000e+02 3.811882273962e-01 3.811882273962e-01 1.822781102326e-01 
1.240000000000e+02 3.819033142445e-01 3.819033142445e-01 1.828495366802e-01 
1.250000000000e+02 3.825940708211e-01 3.825940708211e-01 1.834022018131e-01 
1.260000000000e+02 3.832613470725e-01 3.832613470725e-01 1.839367157782e-01 
1.270000000000e+02 3.839059639782e-01 3.839059639782e-01 1.844536710807e-01 
1.280000000000e+02 3.845287143260e-01 3.845287143260e-01 1.849536428663e-01 
1.290000000000e+02 3.851303635015e-01 3.851303635015e-01 1.854371891006e-01 
1.300000000000e+02 3.857116502749e-01 3.857116502749e-01 1.859048509033e-01 
1.310000000000e+02 3.862732875936e-01 3.862732875936e-01 1.863571528143e-01 
1.320000000000e+02 3.868159633718e-01 3.868159633718e-01 1.867946031308e-01 
1.330000000000e+02 3.873403413012e-01 3.873403413012e-01 1.872176943095e-01 
1.340000000000e+02 3.878470614866e-01 3.878470614866e-01 1.876269030749e-01 
1.350000000000e+02 3.883367414238e-01 3.883367414238e-01 1.880226911364e-01 
1.360000000000e+02 3.888099765951e-01 3.888099765951e-01 1.884055053265e-01 
1.370000000000e+02 3.892673412442e-01 3.892673412442e-01 1.887757780513e-01 
1.380000000000e+02 3.897093890913e-01 3.897093890913e-01 1.891339276310e-01 
1.390000000000e+02 3.901366540358e-01 3.901366540358e-01 1.894803587031e-01 
1.400000000000e+02 3.905496508540e-01 3.905496508540e-01 1.898154626524e-01 
1.410000000000e+02 3.909488758366e-01 3.909488758366e-01 1.901396176997e-01 
1.420000000000e+02 3.913348074446e-01 3.913348074446e-01 1.904531900340e-01 
1.430000000000e+02 3.917079070150e-01 3.917079070150e-01 1.907565331970e-01 
1.440000000000e+02 3.920686192655e-01 3.920686192655e-01 1.910499890651e-01 
1.450000000000e+02 3.924173729286e-01 3.924173729286e-01 1.913338880503e-01 
1.460000000000e+02 3.927545813315e-01 3.927545813315e-01 1.916085494669e-01 
1.470000000000e+02 3.930806429516e-01 3.930806429516e-01 1.918742818798e-01 
1.480000000000e+02 3.933959419577e-01 3.933959419577e-01 1.921313834383e-01 
1.490000000000e+02 3.937008487292e-01 3.937008487292e-01 1.923801422232e-01 
1.500000000000e+02 3.939957203661e-01 3.939957203661e-01 1.926208365796e-01 
1.510000000000e+02 3.942809011640e-01 3.942809011640e-01 1.928537353888e-01 
1.520000000000e+02 3.945567231060e-01 3.945567231060e-01 1.930790985959e-01 
1.530000000000e+02 3.948235062725e-01 3.948235062725e-01 1.932971768305e-01 
1.540000000000e+02 3.950815592990e-01 3.950815592990e-01 1.935082126388e-01 
1.550000000000e+02 3.953311798170e-01 3.953311798170e-01 1.937124401881e-01 
1.560000000000e+02 3.955726548480e-01 3.955726548480e-01 1.939100856785e-01 
1.570000000000e+02 3.958062611932e-01 3.958062611932e-01 1.941013676089e-01 
1.580000000000e+02 3.960322658107e-01 3.960322658107e-01 1.942864970431e-01 
1.590000000000e+02 3.962509261791e-01 3.962509261791e-01 1.944656778529e-01 
1.600000000000e+02 3.964624906466e-01 3.964624906466e-01 1.946391069731e-01 
1.610000000000e+02 3.966671987706e-01 3.966671987706e-01 1.948069746354e-01 
1.620000000000e+02 3.968652816386e-01 3.968652816386e-01 1.949694645931e-01 
1.630000000000e+02 3.970569621841e-01 3.970569621841e-01 1.951267543523e-01 
1.640000000000e+02 3.972424554845e-01 3.972424554845e-01 1.952790153805e-01 
1.650000000000e+02 3.974219690529e-01 3.974219690529e-01 1.954264133188e-01 
1.660000000000e+02 3.975957031149e-01 3.975957031149e-01 1.955691081829e-01 
1.670000000000e+02 3.977638508765e-01 3.977638508765e-01 1.957072545534e-01 
1.680000000000e+02 3.979265987828e-01 3.979265987828e-01 1.958410017683e-01 
1.690000000000e+02 3.980841267669e-01 3.980841267669e-01 1.959704941074e-01 
1.700000000000e+02 3.982366084859e-01 3.982366084859e-01 1.960958709606e-01 
1.710000000000e+02 3.983842115531e-01 3.983842115531e-01 1.962172670018e-01 
1.720000000000e+02 3.985270977571e-01 3.985270977571e-01 1.963348123513e-01 
1.730000000000e+02 3.986654232754e-01 3.986654232754e-01 1.964486327356e-01 
1.740000000000e+02 3.987993388781e-01 3.987993388781e-01 1.965588496384e-01 
1.750000000000e+02 3.989289901256e-01 3.989289901256e-01 1.966655804486e-01 
1.760000000000e+02 3.990545175630e-01 3.990545175630e-01 1.967689386265e-01 
1.770000000000e+02 3.991760568771e-01 3.991760568771e-01 1.968690337374e-01 
1.780000000000e+02 3.992937391086e-01 3.992937391086e-01 1.969659717471e-01 
1.790000000000e+02 3.994076907988e-01 3.994076907988e-01 1.970598550387e-01 
1.800000000000e+02 3.995180341545e-01 3.995180341545e-01 1.971507825623e-01 
1.810000000000e+02 3.996248872060e-01 3.996248872060e-01 1.972388499561e-01 
1.820000000000e+02 3.997283639566e-01 3.997283639566e-01 1.973241496605e-01 
1.830000000000e+02 3.998285745255e-01 3.998285745255e-01 1.974067710263e-01 
1.840000000000e+02 3.999256252884e-01 3.999256252884e-01 1.974868004223e-01 
1.850000000000e+02 4.000196190082e-01 4.000196190082e-01 1.975643213276e-01 
1.860000000000e+02 4.001106549659e-01 4.001106549659e-01 1.976394144478e-01 
1.870000000000e+02 4.001988290909e-01 4.001988290909e-01 1.977121578298e-01 
1.880000000000e+02 4.002842340634e-01 4.002842340634e-01 1.977826268705e-01 
1.890000000000e+02 4.003669594686e-01 4.003669594686e-01 1.978508946010e-01 
1.900000000000e+02 4.004470918364e-01 4.004470918364e-01 1.979170314502e-01 
1.910000000000e+02 4.005247148241e-01 4.005247148241e-01 1.979811056542e-01 
1.920000000000e+02 4.005999092725e-01 4.005999092725e-01 1.980431831328e-01 
1.930000000000e+02 4.006727533122e-01 4.006727533122e-01 1.981033276529e-01 
1.940000000000e+02 4.007433224656e-01 4.007433224656e-01 1.981616008599e-01 
1.950000000000e+02 4.008116897410e-01 4.008116897410e-01 1.982180623997e-01 
1.960000000000e+02 4.008779257120e-01 4.008779257120e-01 1.982727699353e-01 
1.970000000000e+02 4.009420986066e-01 4.009420986066e-01 1.983257792451e-01 
1.980000000000e+02 4.010042743879e-01 4.010042743879e-01 1.983771442773e-01 
1.990000000000e+02 4.010645168339e-01 4.010645168339e-01 1.984269172156e-01 
2.000000000000e+02 4.011228876120e-01 4.011228876120e-01 1.984751485353e-01 
2.010000000000e+02 4.011794463530e-01 4.011794463530e-01 1.985218870642e-01 
2.020000000000e+02 4.012342507208e-01 4.012342507208e-01 1.985671800360e-01 
2.030000000000e+02 4.012873564807e-01 4.012873564807e-01 1.986110731469e-01 
2.040000000000e+02 4.013388175644e-01 4.013388175644e-01 1.986536106045e-01 
2.050000000000e+02 4.013886861333e-01 4.013886861333e-01 1.986948351809e-01 
2.060000000000e+02 4.014370126387e-01 4.014370126387e-01 1.987347882584e-01 
2.070000000000e+02 4.014838458812e-01 4.014838458812e-01 1.987735098789e-01 
2.080000000000e+02 4.015292330658e-01 4.015292330658e-01 1.988110387861e-01 
2.090000000000e+02 4.015732198577e-01 4.015732198577e-01 1.988474124718e-01 
2.100000000000e+02 4.016158504342e-01 4.016158504342e-01 1.988826672175e-01 
2.110000000000e+02 4.016571675340e-01 4.016571675340e-01 1.989168381297e-01 
2.120000000000e+02 4.016972125078e-01 4.016972125078e-01 1.989499591868e-01 
2.130000000000e+02 4.017360253644e-01 4.017360253644e-01 1.989820632732e-01 
2.140000000000e+02 4.017736448162e-01 4.017736448162e-01 1.990131822147e-01 
2.150000000000e+02 4.018101083228e-01 4.018101083228e-01 1.990433468153e-01 
2.160000000000e+02 4.018454521331e-01 4.018454521331e-01 1.990725868906e-01 
2.170000000000e+02 4.018797113265e-01 4.018797113265e-01 1.991009313005e-01 
2.180000000000e+02 4.019129198547e-01 4.019129198547e-01 1.991284079890e-01 
2.190000000000e+02 4.019451105669e-01 4.019451105669e-01 1.991550439832e-01 
2.200000000000e+02 4.019763152651e-01 4.019763152651e-01 1.991808654678e-01 
2.210000000000e+02 4.020065647289e-01 4.020065647289e-01 1.992058977906e-01 
2.220000000000e+02 4.020358887493e-01 4.020358887493e-01 1.992301654829e-01 
2.230000000000e+02 4.020643161643e-01 4.020643161643e-01 1.992536923034e-01 
2.240000000000e+02 4.020918748882e-01 4.020918748882e-01 1.992765012472e-01 
2.250000000000e+02 4.021185919446e-01 4.021185919446e-01 1.992986145861e-01 
2.260000000000e+02 4.021444934939e-01 4.021444934939e-01 1.993200538787e-01 
2.270000000000e+02 4.021696048629e-01 4.021696048629e-01 1.993408400032e-01 
2.280000000000e+02 4.021939505720e-01 4.021939505720e-01 1.993609931763e-01 
2.290000000000e+02 4.022175543621e-01 4.022175543621e-01 1.993805329740e-01 
2.300000000000e+02 4.022404392195e-01 4.022404392195e-01 1.993994783543e-01 
2.310000000000e+02 4.022626274016e-01 4.022626274016e-01 1.994178476757e-01 
2.320000000000e+02 4.022841404601e-01 4.022841404601e-01 1.994356587177e-01 
2.330000000000e+02 4.023049992643e-01 4.023049992643e-01 1.994529286996e-01 
2.340000000000e+02 4.023252240237e-01 4.023252240237e-01 1.994696742979e-01 
2.350000000000e+02 4.023448343091e-01 4.023448343091e-01 1.994859116648e-01 
2.360000000000e+02 4.023638490738e-01 4.023638490738e-01 1.995016564445e-01 
2.370000000000e+02 4.023822866733e-01 4.023822866733e-01 1.995169237899e-01 
2.380000000000e+02 4.024001648851e-01 4.024001648851e-01 1.995317283785e-01 
2.390000000000e+02 4.024175009275e-01 4.024175009275e-01 1.995460844275e-01 
2.400000000000e+02 4.024343114772e-01 4.024343114772e-01 1.995600057090e-01 
