 TITLE = "Time curves in points"
 VARIABLES = "TIME "  "FLUX" 
 ZONE T="POINT=POINT1"
0.000000000000e+00 0.000000000000e+00 
2.000000000000e+00 -0.000000000000e+00 
4.000000000000e+00 -0.000000000000e+00 
6.000000000000e+00 -0.000000000000e+00 
8.000000000000e+00 -0.000000000000e+00 
1.000000000000e+01 -0.000000000000e+00 
1.200000000000e+01 -0.000000000000e+00 
1.400000000000e+01 -0.000000000000e+00 
1.600000000000e+01 -0.000000000000e+00 
1.800000000000e+01 -0.000000000000e+00 
2.000000000000e+01 -0.000000000000e+00 
2.200000000000e+01 -0.000000000000e+00 
2.400000000000e+01 -0.000000000000e+00 
2.600000000000e+01 -0.000000000000e+00 
2.800000000000e+01 -0.000000000000e+00 
3.000000000000e+01 -0.000000000000e+00 
3.200000000000e+01 -0.000000000000e+00 
3.400000000000e+01 -0.000000000000e+00 
3.600000000000e+01 -0.000000000000e+00 
3.800000000000e+01 -0.000000000000e+00 
4.000000000000e+01 -0.000000000000e+00 
4.200000000000e+01 -0.000000000000e+00 
4.400000000000e+01 -0.000000000000e+00 
4.600000000000e+01 -0.000000000000e+00 
4.800000000000e+01 -0.000000000000e+00 
5.000000000000e+01 -0.000000000000e+00 
5.200000000000e+01 -0.000000000000e+00 
5.400000000000e+01 -0.000000000000e+00 
5.600000000000e+01 -0.000000000000e+00 
5.800000000000e+01 -0.000000000000e+00 
6.000000000000e+01 -0.000000000000e+00 
6.200000000000e+01 -0.000000000000e+00 
6.400000000000e+01 -0.000000000000e+00 
6.600000000000e+01 -0.000000000000e+00 
6.800000000000e+01 -0.000000000000e+00 
7.000000000000e+01 -0.000000000000e+00 
7.200000000000e+01 -0.000000000000e+00 
7.400000000000e+01 -0.000000000000e+00 
7.600000000000e+01 -0.000000000000e+00 
7.800000000000e+01 -0.000000000000e+00 
8.000000000000e+01 -0.000000000000e+00 
8.200000000000e+01 -0.000000000000e+00 
8.400000000000e+01 -0.000000000000e+00 
8.600000000000e+01 -0.000000000000e+00 
8.800000000000e+01 -0.000000000000e+00 
9.000000000000e+01 -0.000000000000e+00 
9.200000000000e+01 -0.000000000000e+00 
9.400000000000e+01 -0.000000000000e+00 
9.600000000000e+01 -0.000000000000e+00 
9.800000000000e+01 -0.000000000000e+00 
1.000000000000e+02 -0.000000000000e+00 
1.020000000000e+02 -0.000000000000e+00 
1.040000000000e+02 -0.000000000000e+00 
1.060000000000e+02 -0.000000000000e+00 
1.080000000000e+02 -0.000000000000e+00 
1.100000000000e+02 -0.000000000000e+00 
1.120000000000e+02 -0.000000000000e+00 
1.140000000000e+02 -0.000000000000e+00 
1.160000000000e+02 -0.000000000000e+00 
1.180000000000e+02 -0.000000000000e+00 
1.200000000000e+02 -0.000000000000e+00 
1.220000000000e+02 -0.000000000000e+00 
1.240000000000e+02 -0.000000000000e+00 
1.260000000000e+02 -0.000000000000e+00 
1.280000000000e+02 -0.000000000000e+00 
1.300000000000e+02 -0.000000000000e+00 
1.320000000000e+02 -0.000000000000e+00 
1.340000000000e+02 -0.000000000000e+00 
1.360000000000e+02 -0.000000000000e+00 
1.380000000000e+02 -0.000000000000e+00 
1.400000000000e+02 -0.000000000000e+00 
1.420000000000e+02 -0.000000000000e+00 
1.440000000000e+02 -0.000000000000e+00 
1.460000000000e+02 -0.000000000000e+00 
1.480000000000e+02 -0.000000000000e+00 
1.500000000000e+02 -0.000000000000e+00 
1.520000000000e+02 -0.000000000000e+00 
1.540000000000e+02 -0.000000000000e+00 
1.560000000000e+02 -0.000000000000e+00 
1.580000000000e+02 -0.000000000000e+00 
1.600000000000e+02 -0.000000000000e+00 
1.620000000000e+02 -0.000000000000e+00 
1.640000000000e+02 -0.000000000000e+00 
1.660000000000e+02 -0.000000000000e+00 
1.680000000000e+02 -0.000000000000e+00 
1.700000000000e+02 -0.000000000000e+00 
1.720000000000e+02 -0.000000000000e+00 
1.740000000000e+02 -0.000000000000e+00 
1.760000000000e+02 -0.000000000000e+00 
1.780000000000e+02 -0.000000000000e+00 
1.800000000000e+02 -0.000000000000e+00 
1.820000000000e+02 -0.000000000000e+00 
1.840000000000e+02 -0.000000000000e+00 
1.860000000000e+02 -0.000000000000e+00 
1.880000000000e+02 -0.000000000000e+00 
1.900000000000e+02 -0.000000000000e+00 
1.920000000000e+02 -0.000000000000e+00 
1.940000000000e+02 -0.000000000000e+00 
1.960000000000e+02 -0.000000000000e+00 
1.980000000000e+02 -0.000000000000e+00 
2.000000000000e+02 -0.000000000000e+00 
2.020000000000e+02 -0.000000000000e+00 
2.040000000000e+02 -0.000000000000e+00 
2.060000000000e+02 -0.000000000000e+00 
2.080000000000e+02 -0.000000000000e+00 
2.100000000000e+02 -0.000000000000e+00 
2.120000000000e+02 -0.000000000000e+00 
2.140000000000e+02 -0.000000000000e+00 
2.160000000000e+02 -0.000000000000e+00 
2.180000000000e+02 -0.000000000000e+00 
2.200000000000e+02 -0.000000000000e+00 
2.220000000000e+02 -0.000000000000e+00 
2.240000000000e+02 -0.000000000000e+00 
2.260000000000e+02 -0.000000000000e+00 
2.280000000000e+02 -0.000000000000e+00 
2.300000000000e+02 -0.000000000000e+00 
2.320000000000e+02 -0.000000000000e+00 
2.340000000000e+02 -0.000000000000e+00 
2.360000000000e+02 -0.000000000000e+00 
2.380000000000e+02 -0.000000000000e+00 
2.400000000000e+02 -0.000000000000e+00 
2.420000000000e+02 -0.000000000000e+00 
2.440000000000e+02 -0.000000000000e+00 
2.460000000000e+02 -0.000000000000e+00 
2.480000000000e+02 -0.000000000000e+00 
2.500000000000e+02 -0.000000000000e+00 
2.520000000000e+02 -0.000000000000e+00 
2.540000000000e+02 -0.000000000000e+00 
2.560000000000e+02 -0.000000000000e+00 
2.580000000000e+02 -0.000000000000e+00 
2.600000000000e+02 -0.000000000000e+00 
2.620000000000e+02 -0.000000000000e+00 
2.640000000000e+02 -0.000000000000e+00 
2.660000000000e+02 -0.000000000000e+00 
2.680000000000e+02 -0.000000000000e+00 
2.700000000000e+02 -0.000000000000e+00 
2.720000000000e+02 -0.000000000000e+00 
2.740000000000e+02 -0.000000000000e+00 
2.760000000000e+02 -0.000000000000e+00 
2.780000000000e+02 -0.000000000000e+00 
2.800000000000e+02 -0.000000000000e+00 
2.820000000000e+02 -0.000000000000e+00 
2.840000000000e+02 -0.000000000000e+00 
2.860000000000e+02 -0.000000000000e+00 
2.880000000000e+02 -0.000000000000e+00 
2.900000000000e+02 -0.000000000000e+00 
2.920000000000e+02 -0.000000000000e+00 
2.940000000000e+02 -0.000000000000e+00 
2.960000000000e+02 -0.000000000000e+00 
2.980000000000e+02 -0.000000000000e+00 
3.000000000000e+02 -0.000000000000e+00 
3.020000000000e+02 -0.000000000000e+00 
3.040000000000e+02 -0.000000000000e+00 
3.060000000000e+02 -0.000000000000e+00 
3.080000000000e+02 -0.000000000000e+00 
3.100000000000e+02 -0.000000000000e+00 
3.120000000000e+02 -0.000000000000e+00 
3.140000000000e+02 -0.000000000000e+00 
3.160000000000e+02 -0.000000000000e+00 
3.180000000000e+02 -0.000000000000e+00 
3.200000000000e+02 -0.000000000000e+00 
3.220000000000e+02 -0.000000000000e+00 
3.240000000000e+02 -0.000000000000e+00 
3.260000000000e+02 -0.000000000000e+00 
3.280000000000e+02 -0.000000000000e+00 
3.300000000000e+02 -0.000000000000e+00 
3.320000000000e+02 -0.000000000000e+00 
3.340000000000e+02 -0.000000000000e+00 
3.360000000000e+02 -0.000000000000e+00 
3.380000000000e+02 -0.000000000000e+00 
3.400000000000e+02 -0.000000000000e+00 
3.420000000000e+02 -0.000000000000e+00 
3.440000000000e+02 -0.000000000000e+00 
3.460000000000e+02 -0.000000000000e+00 
3.480000000000e+02 -0.000000000000e+00 
3.500000000000e+02 -0.000000000000e+00 
3.520000000000e+02 -0.000000000000e+00 
3.540000000000e+02 -0.000000000000e+00 
3.560000000000e+02 -0.000000000000e+00 
3.580000000000e+02 -0.000000000000e+00 
3.600000000000e+02 -0.000000000000e+00 
3.620000000000e+02 -0.000000000000e+00 
3.640000000000e+02 -0.000000000000e+00 
3.660000000000e+02 -0.000000000000e+00 
3.680000000000e+02 -0.000000000000e+00 
3.700000000000e+02 -0.000000000000e+00 
3.720000000000e+02 -0.000000000000e+00 
3.740000000000e+02 -0.000000000000e+00 
3.760000000000e+02 -0.000000000000e+00 
3.780000000000e+02 -0.000000000000e+00 
3.800000000000e+02 -0.000000000000e+00 
3.820000000000e+02 -0.000000000000e+00 
3.840000000000e+02 -0.000000000000e+00 
3.860000000000e+02 -0.000000000000e+00 
3.880000000000e+02 -0.000000000000e+00 
3.900000000000e+02 -0.000000000000e+00 
3.920000000000e+02 -0.000000000000e+00 
3.940000000000e+02 -0.000000000000e+00 
3.960000000000e+02 -0.000000000000e+00 
3.980000000000e+02 -0.000000000000e+00 
4.000000000000e+02 -0.000000000000e+00 
4.020000000000e+02 -0.000000000000e+00 
4.040000000000e+02 -0.000000000000e+00 
4.060000000000e+02 -0.000000000000e+00 
4.080000000000e+02 -0.000000000000e+00 
4.100000000000e+02 -0.000000000000e+00 
4.120000000000e+02 -0.000000000000e+00 
4.140000000000e+02 -0.000000000000e+00 
4.160000000000e+02 -0.000000000000e+00 
4.180000000000e+02 -0.000000000000e+00 
4.200000000000e+02 2.279197170473e-09 
4.220000000000e+02 8.643023587539e-09 
4.240000000000e+02 1.202356273249e-08 
4.260000000000e+02 1.429111061469e-08 
4.280000000000e+02 1.561360239579e-08 
4.300000000000e+02 1.645476065805e-08 
4.320000000000e+02 1.710076390870e-08 
4.340000000000e+02 1.770872697641e-08 
4.360000000000e+02 1.836671598781e-08 
4.380000000000e+02 1.912931207086e-08 
4.400000000000e+02 2.003557477601e-08 
4.420000000000e+02 2.111764300023e-08 
4.440000000000e+02 2.240428692799e-08 
4.460000000000e+02 2.392256931504e-08 
4.480000000000e+02 2.569776155375e-08 
4.500000000000e+02 2.775373063619e-08 
4.520000000000e+02 3.011186659311e-08 
4.540000000000e+02 3.279188514342e-08 
4.560000000000e+02 3.581039590849e-08 
4.580000000000e+02 3.918285299028e-08 
4.600000000000e+02 4.292171825098e-08 
4.620000000000e+02 4.703986762848e-08 
4.640000000000e+02 5.154792068622e-08 
4.660000000000e+02 5.645910908905e-08 
4.680000000000e+02 6.178514765374e-08 
4.700000000000e+02 6.754251704636e-08 
4.720000000000e+02 7.374629590280e-08 
4.740000000000e+02 8.041796278563e-08 
4.760000000000e+02 8.757681034878e-08 
4.780000000000e+02 9.524959934100e-08 
4.800000000000e+02 1.034593580361e-07 
4.820000000000e+02 1.122373723148e-07 
4.840000000000e+02 1.216092308040e-07 
4.860000000000e+02 1.316096533917e-07 
4.880000000000e+02 1.422655844181e-07 
4.900000000000e+02 1.536142913688e-07 
4.920000000000e+02 1.656832129029e-07 
4.940000000000e+02 1.785116772642e-07 
4.960000000000e+02 1.921271472304e-07 
4.980000000000e+02 2.065708608530e-07 
5.000000000000e+02 2.218701012024e-07 
5.020000000000e+02 2.380680519779e-07 
5.040000000000e+02 2.551917377194e-07 
5.060000000000e+02 2.732863925705e-07 
5.080000000000e+02 2.923787415526e-07 
5.100000000000e+02 3.125161858572e-07 
5.120000000000e+02 3.337252661092e-07 
5.140000000000e+02 3.560550336221e-07 
5.160000000000e+02 3.795326647658e-07 
5.180000000000e+02 4.042087628697e-07 
5.200000000000e+02 4.301105621021e-07 
5.220000000000e+02 4.572907787140e-07 
5.240000000000e+02 4.857765990379e-07 
5.260000000000e+02 5.156228760771e-07 
5.280000000000e+02 5.468567871534e-07 
5.300000000000e+02 5.795353318590e-07 
5.320000000000e+02 6.136857263913e-07 
5.340000000000e+02 6.493671115814e-07 
5.360000000000e+02 6.866067992849e-07 
5.380000000000e+02 7.254660494819e-07 
5.400000000000e+02 7.659723358210e-07 
5.420000000000e+02 8.081889975417e-07 
5.440000000000e+02 8.521437463916e-07 
5.460000000000e+02 8.979019427682e-07 
5.480000000000e+02 9.454916233632e-07 
5.500000000000e+02 9.949800935449e-07 
5.520000000000e+02 1.046395814207e-06 
5.540000000000e+02 1.099807939460e-06 
5.560000000000e+02 1.155245467303e-06 
5.580000000000e+02 1.212779286822e-06 
5.600000000000e+02 1.272439059058e-06 
5.620000000000e+02 1.334297275474e-06 
5.640000000000e+02 1.398384402209e-06 
5.660000000000e+02 1.464774381163e-06 
5.680000000000e+02 1.533498640017e-06 
5.700000000000e+02 1.604632401588e-06 
5.720000000000e+02 1.678208224929e-06 
5.740000000000e+02 1.754302417830e-06 
5.760000000000e+02 1.832948837302e-06 
5.780000000000e+02 1.914224619210e-06 
5.800000000000e+02 1.998164994298e-06 
5.820000000000e+02 2.084847430028e-06 
5.840000000000e+02 2.174308161860e-06 
5.860000000000e+02 2.266623588679e-06 
5.880000000000e+02 2.361828969220e-06 
5.900000000000e+02 2.459995414947e-06 
5.920000000000e+02 2.561150654939e-06 
5.940000000000e+02 2.665349247286e-06 
5.960000000000e+02 2.772602762845e-06 
5.980000000000e+02 2.882905878535e-06 
6.000000000000e+02 2.996219711673e-06 
6.020000000000e+02 3.112462827912e-06 
6.040000000000e+02 3.231479549114e-06 
6.060000000000e+02 3.353046626807e-06 
6.080000000000e+02 3.476838134558e-06 
6.100000000000e+02 3.602437774371e-06 
6.120000000000e+02 3.729306740794e-06 
6.140000000000e+02 3.856843208408e-06 
6.160000000000e+02 3.984326560022e-06 
6.180000000000e+02 4.110996054492e-06 
6.200000000000e+02 4.236053150205e-06 
6.220000000000e+02 4.358712053602e-06 
6.240000000000e+02 4.478223860122e-06 
6.260000000000e+02 4.593922047694e-06 
6.280000000000e+02 4.705208311464e-06 
6.300000000000e+02 4.811651064897e-06 
6.320000000000e+02 4.912888295879e-06 
6.340000000000e+02 5.008735274246e-06 
6.360000000000e+02 5.099077604378e-06 
6.380000000000e+02 5.183953058518e-06 
6.400000000000e+02 5.263449126125e-06 
6.420000000000e+02 5.337766781659e-06 
6.440000000000e+02 5.407128510568e-06 
6.460000000000e+02 5.471831034781e-06 
6.480000000000e+02 5.532166911633e-06 
6.500000000000e+02 5.588470744718e-06 
6.520000000000e+02 5.641054520552e-06 
6.540000000000e+02 5.690249575398e-06 
6.560000000000e+02 5.736350746273e-06 
6.580000000000e+02 5.779671242491e-06 
6.600000000000e+02 5.820464335077e-06 
6.620000000000e+02 5.859005853664e-06 
6.640000000000e+02 5.895510919507e-06 
6.660000000000e+02 5.930211634872e-06 
6.680000000000e+02 5.963284235620e-06 
6.700000000000e+02 5.994919509363e-06 
6.720000000000e+02 6.025257891327e-06 
6.740000000000e+02 6.054453739315e-06 
6.760000000000e+02 6.082616475929e-06 
6.780000000000e+02 6.109869742390e-06 
6.800000000000e+02 6.136297158237e-06 
6.820000000000e+02 6.161997246021e-06 
6.840000000000e+02 6.187032753447e-06 
6.860000000000e+02 6.211482106102e-06 
6.880000000000e+02 6.235391513205e-06 
6.900000000000e+02 6.258823571934e-06 
6.920000000000e+02 6.281811587312e-06 
6.940000000000e+02 6.304405832797e-06 
6.960000000000e+02 6.326629663539e-06 
6.980000000000e+02 6.348523836609e-06 
7.000000000000e+02 6.370104106568e-06 
7.020000000000e+02 6.391403922732e-06 
7.040000000000e+02 6.412433277222e-06 
7.060000000000e+02 6.433220028880e-06 
7.080000000000e+02 6.453769827279e-06 
7.100000000000e+02 6.474106260720e-06 
7.120000000000e+02 6.494231724531e-06 
7.140000000000e+02 6.514166544967e-06 
7.160000000000e+02 6.533910690005e-06 
7.180000000000e+02 6.553481988769e-06 
7.200000000000e+02 6.572878608052e-06 
7.220000000000e+02 6.592116458920e-06 
7.240000000000e+02 6.611192378216e-06 
7.260000000000e+02 6.630120794609e-06 
7.280000000000e+02 6.648897568547e-06 
7.300000000000e+02 6.667535976709e-06 
7.320000000000e+02 6.686031166415e-06 
7.340000000000e+02 6.704395509560e-06 
7.360000000000e+02 6.722623638538e-06 
7.380000000000e+02 6.740727206037e-06 
7.400000000000e+02 6.758700477512e-06 
7.420000000000e+02 6.776554527014e-06 
7.440000000000e+02 6.794283362002e-06 
7.460000000000e+02 6.811897584417e-06 
7.480000000000e+02 6.829391025252e-06 
7.500000000000e+02 6.846773894709e-06 
7.520000000000e+02 6.864039908741e-06 
7.540000000000e+02 6.881198945690e-06 
7.560000000000e+02 6.898244651857e-06 
7.580000000000e+02 6.915186621945e-06 
7.600000000000e+02 6.932018464808e-06 
7.620000000000e+02 6.948749527480e-06 
7.640000000000e+02 6.965373406642e-06 
7.660000000000e+02 6.981899229858e-06 
7.680000000000e+02 6.998320600288e-06 
7.700000000000e+02 7.014646447172e-06 
7.720000000000e+02 7.030870394192e-06 
7.740000000000e+02 7.047001189841e-06 
7.760000000000e+02 7.063032488026e-06 
7.780000000000e+02 7.078972870465e-06 
7.800000000000e+02 7.094816029152e-06 
7.820000000000e+02 7.110570390610e-06 
7.840000000000e+02 7.126229689375e-06 
7.860000000000e+02 7.141802206231e-06 
7.880000000000e+02 7.157281723162e-06 
7.900000000000e+02 7.172676382291e-06 
7.920000000000e+02 7.187980015776e-06 
7.940000000000e+02 7.203200634365e-06 
7.960000000000e+02 7.218332121740e-06 
7.980000000000e+02 7.233382363048e-06 
8.000000000000e+02 7.248345295152e-06 
8.020000000000e+02 7.263228682715e-06 
8.040000000000e+02 7.278026516495e-06 
8.060000000000e+02 7.292746444843e-06 
8.080000000000e+02 7.307382513122e-06 
8.100000000000e+02 7.321942257429e-06 
8.120000000000e+02 7.336419777820e-06 
8.140000000000e+02 7.350822501875e-06 
8.160000000000e+02 7.365144584619e-06 
8.180000000000e+02 7.379393348309e-06 
8.200000000000e+02 7.393563002536e-06 
8.220000000000e+02 7.407660767342e-06 
8.240000000000e+02 7.421680906650e-06 
8.260000000000e+02 7.435630541448e-06 
8.280000000000e+02 7.449503989698e-06 
8.300000000000e+02 7.463308275705e-06 
8.320000000000e+02 7.477037770846e-06 
8.340000000000e+02 7.490699405869e-06 
8.360000000000e+02 7.504287605046e-06 
8.380000000000e+02 7.517809207549e-06 
8.400000000000e+02 7.531258689825e-06 
8.420000000000e+02 7.544642802591e-06 
8.440000000000e+02 7.557956073892e-06 
8.460000000000e+02 7.571205167261e-06 
8.480000000000e+02 7.584384662080e-06 
8.500000000000e+02 7.597501137351e-06 
8.520000000000e+02 7.610549223414e-06 
8.540000000000e+02 7.623535415839e-06 
8.560000000000e+02 7.636454394953e-06 
8.580000000000e+02 7.649312575927e-06 
8.600000000000e+02 7.662104688280e-06 
8.620000000000e+02 7.674837068554e-06 
8.640000000000e+02 7.687504495020e-06 
8.660000000000e+02 7.700113226253e-06 
8.680000000000e+02 7.712658089518e-06 
8.700000000000e+02 7.725145267889e-06 
8.720000000000e+02 7.737569635904e-06 
8.740000000000e+02 7.749937302893e-06 
8.760000000000e+02 7.762243190370e-06 
8.780000000000e+02 7.774493335315e-06 
8.800000000000e+02 7.786682705875e-06 
8.820000000000e+02 7.798817267959e-06 
8.840000000000e+02 7.810892035788e-06 
8.860000000000e+02 7.822912905692e-06 
8.880000000000e+02 7.834874937577e-06 
8.900000000000e+02 7.846783959725e-06 
8.920000000000e+02 7.858635076459e-06 
8.940000000000e+02 7.870434049768e-06 
8.960000000000e+02 7.882176027810e-06 
8.980000000000e+02 7.893866707759e-06 
9.000000000000e+02 7.905501281247e-06 
