VARIABLES  = "X","Y","Z", "Comp_A", "Comp_B", "Comp_C", "Comp_D", "Comp_E", "Biomass", "ConsTracer", "TEMPERATURE1"
ZONE T="0.000000000000e+00s", N=51, E=50, F=FEPOINT, ET=QUADRILATERAL
STRANDID=1, SOLUTIONTIME=0.000000000000e+00
0.000000000000e+00 0.000000000000e+00 0.000000000000e+00 0.000000000000e+00 0.000000000000e+00 0.000000000000e+00 0.000000000000e+00 0.000000000000e+00 1.000000000000e-09 0.000000000000e+00 3.051500000000e+02 
2.000000000000e-01 0.000000000000e+00 0.000000000000e+00 0.000000000000e+00 0.000000000000e+00 0.000000000000e+00 0.000000000000e+00 0.000000000000e+00 1.000000000000e-09 0.000000000000e+00 3.051500000000e+02 
4.000000000000e-01 0.000000000000e+00 0.000000000000e+00 0.000000000000e+00 0.000000000000e+00 0.000000000000e+00 0.000000000000e+00 0.000000000000e+00 1.000000000000e-09 0.000000000000e+00 3.051500000000e+02 
6.000000000000e-01 0.000000000000e+00 0.000000000000e+00 0.000000000000e+00 0.000000000000e+00 0.000000000000e+00 0.000000000000e+00 0.000000000000e+00 1.000000000000e-09 0.000000000000e+00 3.051500000000e+02 
8.000000000000e-01 0.000000000000e+00 0.000000000000e+00 0.000000000000e+00 0.000000000000e+00 0.000000000000e+00 0.000000000000e+00 0.000000000000e+00 1.000000000000e-09 0.000000000000e+00 3.051500000000e+02 
1.000000000000e+00 0.000000000000e+00 0.000000000000e+00 0.000000000000e+00 0.000000000000e+00 0.000000000000e+00 0.000000000000e+00 0.000000000000e+00 1.000000000000e-09 0.000000000000e+00 3.051500000000e+02 
1.200000000000e+00 0.000000000000e+00 0.000000000000e+00 0.000000000000e+00 0.000000000000e+00 0.000000000000e+00 0.000000000000e+00 0.000000000000e+00 1.000000000000e-09 0.000000000000e+00 3.051500000000e+02 
1.400000000000e+00 0.000000000000e+00 0.000000000000e+00 0.000000000000e+00 0.000000000000e+00 0.000000000000e+00 0.000000000000e+00 0.000000000000e+00 1.000000000000e-09 0.000000000000e+00 3.051500000000e+02 
1.600000000000e+00 0.000000000000e+00 0.000000000000e+00 0.000000000000e+00 0.000000000000e+00 0.000000000000e+00 0.000000000000e+00 0.000000000000e+00 1.000000000000e-09 0.000000000000e+00 3.051500000000e+02 
1.800000000000e+00 0.000000000000e+00 0.000000000000e+00 0.000000000000e+00 0.000000000000e+00 0.000000000000e+00 0.000000000000e+00 0.000000000000e+00 1.000000000000e-09 0.000000000000e+00 3.051500000000e+02 
2.000000000000e+00 0.000000000000e+00 0.000000000000e+00 0.000000000000e+00 0.000000000000e+00 0.000000000000e+00 0.000000000000e+00 0.000000000000e+00 1.000000000000e-09 0.000000000000e+00 3.051500000000e+02 
2.200000000000e+00 0.000000000000e+00 0.000000000000e+00 0.000000000000e+00 0.000000000000e+00 0.000000000000e+00 0.000000000000e+00 0.000000000000e+00 1.000000000000e-09 0.000000000000e+00 3.051500000000e+02 
2.400000000000e+00 0.000000000000e+00 0.000000000000e+00 0.000000000000e+00 0.000000000000e+00 0.000000000000e+00 0.000000000000e+00 0.000000000000e+00 1.000000000000e-09 0.000000000000e+00 3.051500000000e+02 
2.600000000000e+00 0.000000000000e+00 0.000000000000e+00 0.000000000000e+00 0.000000000000e+00 0.000000000000e+00 0.000000000000e+00 0.000000000000e+00 1.000000000000e-09 0.000000000000e+00 3.051500000000e+02 
2.800000000000e+00 0.000000000000e+00 0.000000000000e+00 0.000000000000e+00 0.000000000000e+00 0.000000000000e+00 0.000000000000e+00 0.000000000000e+00 1.000000000000e-09 0.000000000000e+00 3.051500000000e+02 
3.000000000000e+00 0.000000000000e+00 0.000000000000e+00 0.000000000000e+00 0.000000000000e+00 0.000000000000e+00 0.000000000000e+00 0.000000000000e+00 1.000000000000e-09 0.000000000000e+00 3.051500000000e+02 
3.200000000000e+00 0.000000000000e+00 0.000000000000e+00 0.000000000000e+00 0.000000000000e+00 0.000000000000e+00 0.000000000000e+00 0.000000000000e+00 1.000000000000e-09 0.000000000000e+00 3.051500000000e+02 
3.400000000000e+00 0.000000000000e+00 0.000000000000e+00 0.000000000000e+00 0.000000000000e+00 0.000000000000e+00 0.000000000000e+00 0.000000000000e+00 1.000000000000e-09 0.000000000000e+00 3.051500000000e+02 
3.600000000000e+00 0.000000000000e+00 0.000000000000e+00 0.000000000000e+00 0.000000000000e+00 0.000000000000e+00 0.000000000000e+00 0.000000000000e+00 1.000000000000e-09 0.000000000000e+00 3.051500000000e+02 
3.800000000000e+00 0.000000000000e+00 0.000000000000e+00 0.000000000000e+00 0.000000000000e+00 0.000000000000e+00 0.000000000000e+00 0.000000000000e+00 1.000000000000e-09 0.000000000000e+00 3.051500000000e+02 
4.000000000000e+00 0.000000000000e+00 0.000000000000e+00 0.000000000000e+00 0.000000000000e+00 0.000000000000e+00 0.000000000000e+00 0.000000000000e+00 1.000000000000e-09 0.000000000000e+00 3.051500000000e+02 
4.200000000000e+00 0.000000000000e+00 0.000000000000e+00 0.000000000000e+00 0.000000000000e+00 0.000000000000e+00 0.000000000000e+00 0.000000000000e+00 1.000000000000e-09 0.000000000000e+00 3.051500000000e+02 
4.400000000000e+00 0.000000000000e+00 0.000000000000e+00 0.000000000000e+00 0.000000000000e+00 0.000000000000e+00 0.000000000000e+00 0.000000000000e+00 1.000000000000e-09 0.000000000000e+00 3.051500000000e+02 
4.600000000000e+00 0.000000000000e+00 0.000000000000e+00 0.000000000000e+00 0.000000000000e+00 0.000000000000e+00 0.000000000000e+00 0.000000000000e+00 1.000000000000e-09 0.000000000000e+00 3.051500000000e+02 
4.800000000000e+00 0.000000000000e+00 0.000000000000e+00 0.000000000000e+00 0.000000000000e+00 0.000000000000e+00 0.000000000000e+00 0.000000000000e+00 1.000000000000e-09 0.000000000000e+00 3.051500000000e+02 
5.000000000000e+00 0.000000000000e+00 0.000000000000e+00 0.000000000000e+00 0.000000000000e+00 0.000000000000e+00 0.000000000000e+00 0.000000000000e+00 1.000000000000e-09 0.000000000000e+00 3.051500000000e+02 
5.200000000000e+00 0.000000000000e+00 0.000000000000e+00 0.000000000000e+00 0.000000000000e+00 0.000000000000e+00 0.000000000000e+00 0.000000000000e+00 1.000000000000e-09 0.000000000000e+00 3.051500000000e+02 
5.400000000000e+00 0.000000000000e+00 0.000000000000e+00 0.000000000000e+00 0.000000000000e+00 0.000000000000e+00 0.000000000000e+00 0.000000000000e+00 1.000000000000e-09 0.000000000000e+00 3.051500000000e+02 
5.600000000000e+00 0.000000000000e+00 0.000000000000e+00 0.000000000000e+00 0.000000000000e+00 0.000000000000e+00 0.000000000000e+00 0.000000000000e+00 1.000000000000e-09 0.000000000000e+00 3.051500000000e+02 
5.800000000000e+00 0.000000000000e+00 0.000000000000e+00 0.000000000000e+00 0.000000000000e+00 0.000000000000e+00 0.000000000000e+00 0.000000000000e+00 1.000000000000e-09 0.000000000000e+00 3.051500000000e+02 
6.000000000000e+00 0.000000000000e+00 0.000000000000e+00 0.000000000000e+00 0.000000000000e+00 0.000000000000e+00 0.000000000000e+00 0.000000000000e+00 1.000000000000e-09 0.000000000000e+00 3.051500000000e+02 
6.200000000000e+00 0.000000000000e+00 0.000000000000e+00 0.000000000000e+00 0.000000000000e+00 0.000000000000e+00 0.000000000000e+00 0.000000000000e+00 1.000000000000e-09 0.000000000000e+00 3.051500000000e+02 
6.400000000000e+00 0.000000000000e+00 0.000000000000e+00 0.000000000000e+00 0.000000000000e+00 0.000000000000e+00 0.000000000000e+00 0.000000000000e+00 1.000000000000e-09 0.000000000000e+00 3.051500000000e+02 
6.600000000000e+00 0.000000000000e+00 0.000000000000e+00 0.000000000000e+00 0.000000000000e+00 0.000000000000e+00 0.000000000000e+00 0.000000000000e+00 1.000000000000e-09 0.000000000000e+00 3.051500000000e+02 
6.800000000000e+00 0.000000000000e+00 0.000000000000e+00 0.000000000000e+00 0.000000000000e+00 0.000000000000e+00 0.000000000000e+00 0.000000000000e+00 1.000000000000e-09 0.000000000000e+00 3.051500000000e+02 
7.000000000000e+00 0.000000000000e+00 0.000000000000e+00 0.000000000000e+00 0.000000000000e+00 0.000000000000e+00 0.000000000000e+00 0.000000000000e+00 1.000000000000e-09 0.000000000000e+00 3.051500000000e+02 
7.200000000000e+00 0.000000000000e+00 0.000000000000e+00 0.000000000000e+00 0.000000000000e+00 0.000000000000e+00 0.000000000000e+00 0.000000000000e+00 1.000000000000e-09 0.000000000000e+00 3.051500000000e+02 
7.400000000000e+00 0.000000000000e+00 0.000000000000e+00 0.000000000000e+00 0.000000000000e+00 0.000000000000e+00 0.000000000000e+00 0.000000000000e+00 1.000000000000e-09 0.000000000000e+00 3.051500000000e+02 
7.600000000000e+00 0.000000000000e+00 0.000000000000e+00 0.000000000000e+00 0.000000000000e+00 0.000000000000e+00 0.000000000000e+00 0.000000000000e+00 1.000000000000e-09 0.000000000000e+00 3.051500000000e+02 
7.800000000000e+00 0.000000000000e+00 0.000000000000e+00 0.000000000000e+00 0.000000000000e+00 0.000000000000e+00 0.000000000000e+00 0.000000000000e+00 1.000000000000e-09 0.000000000000e+00 3.051500000000e+02 
8.000000000000e+00 0.000000000000e+00 0.000000000000e+00 0.000000000000e+00 0.000000000000e+00 0.000000000000e+00 0.000000000000e+00 0.000000000000e+00 1.000000000000e-09 0.000000000000e+00 3.051500000000e+02 
8.200000000000e+00 0.000000000000e+00 0.000000000000e+00 0.000000000000e+00 0.000000000000e+00 0.000000000000e+00 0.000000000000e+00 0.000000000000e+00 1.000000000000e-09 0.000000000000e+00 3.051500000000e+02 
8.400000000000e+00 0.000000000000e+00 0.000000000000e+00 0.000000000000e+00 0.000000000000e+00 0.000000000000e+00 0.000000000000e+00 0.000000000000e+00 1.000000000000e-09 0.000000000000e+00 3.051500000000e+02 
8.600000000000e+00 0.000000000000e+00 0.000000000000e+00 0.000000000000e+00 0.000000000000e+00 0.000000000000e+00 0.000000000000e+00 0.000000000000e+00 1.000000000000e-09 0.000000000000e+00 3.051500000000e+02 
8.800000000000e+00 0.000000000000e+00 0.000000000000e+00 0.000000000000e+00 0.000000000000e+00 0.000000000000e+00 0.000000000000e+00 0.000000000000e+00 1.000000000000e-09 0.000000000000e+00 3.051500000000e+02 
9.000000000000e+00 0.000000000000e+00 0.000000000000e+00 0.000000000000e+00 0.000000000000e+00 0.000000000000e+00 0.000000000000e+00 0.000000000000e+00 1.000000000000e-09 0.000000000000e+00 3.051500000000e+02 
9.200000000000e+00 0.000000000000e+00 0.000000000000e+00 0.000000000000e+00 0.000000000000e+00 0.000000000000e+00 0.000000000000e+00 0.000000000000e+00 1.000000000000e-09 0.000000000000e+00 3.051500000000e+02 
9.400000000000e+00 0.000000000000e+00 0.000000000000e+00 0.000000000000e+00 0.000000000000e+00 0.000000000000e+00 0.000000000000e+00 0.000000000000e+00 1.000000000000e-09 0.000000000000e+00 3.051500000000e+02 
9.600000000000e+00 0.000000000000e+00 0.000000000000e+00 0.000000000000e+00 0.000000000000e+00 0.000000000000e+00 0.000000000000e+00 0.000000000000e+00 1.000000000000e-09 0.000000000000e+00 3.051500000000e+02 
9.800000000000e+00 0.000000000000e+00 0.000000000000e+00 0.000000000000e+00 0.000000000000e+00 0.000000000000e+00 0.000000000000e+00 0.000000000000e+00 1.000000000000e-09 0.000000000000e+00 3.051500000000e+02 
1.000000000000e+01 0.000000000000e+00 0.000000000000e+00 0.000000000000e+00 0.000000000000e+00 0.000000000000e+00 0.000000000000e+00 0.000000000000e+00 1.000000000000e-09 0.000000000000e+00 3.051500000000e+02 
1  2  2  1
2  3  3  2
3  4  4  3
4  5  5  4
5  6  6  5
6  7  7  6
7  8  8  7
8  9  9  8
9  10  10  9
10  11  11  10
11  12  12  11
12  13  13  12
13  14  14  13
14  15  15  14
15  16  16  15
16  17  17  16
17  18  18  17
18  19  19  18
19  20  20  19
20  21  21  20
21  22  22  21
22  23  23  22
23  24  24  23
24  25  25  24
25  26  26  25
26  27  27  26
27  28  28  27
28  29  29  28
29  30  30  29
30  31  31  30
31  32  32  31
32  33  33  32
33  34  34  33
34  35  35  34
35  36  36  35
36  37  37  36
37  38  38  37
38  39  39  38
39  40  40  39
40  41  41  40
41  42  42  41
42  43  43  42
43  44  44  43
44  45  45  44
45  46  46  45
46  47  47  46
47  48  48  47
48  49  49  48
49  50  50  49
50  51  51  50
VARIABLES  = "X","Y","Z", "Comp_A", "Comp_B", "Comp_C", "Comp_D", "Comp_E", "Biomass", "ConsTracer", "TEMPERATURE1"
ZONE T="3.456000000000e+05s", N=51, E=50, F=FEPOINT, ET=QUADRILATERAL
STRANDID=1, SOLUTIONTIME=3.456000000000e+05
0.000000000000e+00 0.000000000000e+00 0.000000000000e+00 2.000000000000e-01 1.350000000000e+00 2.815372543940e-07 7.390352927842e-07 2.815372543940e-07 1.000000000000e-09 2.000000000000e-01 3.051500000000e+02 
2.000000000000e-01 0.000000000000e+00 0.000000000000e+00 1.975421092028e-01 1.333409023315e+00 3.125302932506e-07 8.203920197828e-07 3.125302932506e-07 1.465678021179e-06 1.975421242065e-01 3.051500000000e+02 
4.000000000000e-01 0.000000000000e+00 0.000000000000e+00 1.941247140294e-01 1.310341494720e+00 3.140518549632e-07 8.243861192784e-07 3.140518549632e-07 1.148641793603e-06 1.941247368349e-01 3.051500000000e+02 
6.000000000000e-01 0.000000000000e+00 0.000000000000e+00 1.896160729276e-01 1.279908139091e+00 2.882281742767e-07 7.565989574765e-07 2.882281742767e-07 8.526314604719e-07 1.896160977115e-01 3.051500000000e+02 
8.000000000000e-01 0.000000000000e+00 0.000000000000e+00 1.839152225849e-01 1.241427418246e+00 2.490949111933e-07 6.538741418823e-07 2.490949111933e-07 6.097902508241e-07 1.839152460377e-01 3.051500000000e+02 
1.000000000000e+00 0.000000000000e+00 0.000000000000e+00 1.769643425798e-01 1.194509019927e+00 2.061972816178e-07 5.412678642467e-07 2.061972816178e-07 4.238303009063e-07 1.769643631051e-01 3.051500000000e+02 
1.200000000000e+00 0.000000000000e+00 0.000000000000e+00 1.687589676265e-01 1.139122788199e+00 1.652543137458e-07 4.337925735828e-07 1.652543137458e-07 2.882557241446e-07 1.687589846987e-01 3.051500000000e+02 
1.400000000000e+00 0.000000000000e+00 0.000000000000e+00 1.593546452648e-01 1.075643660309e+00 1.291714445373e-07 3.390750419105e-07 1.291714445373e-07 1.928902657322e-07 1.593546589651e-01 3.051500000000e+02 
1.600000000000e+00 0.000000000000e+00 0.000000000000e+00 1.488689278364e-01 1.004865110320e+00 9.899988405479e-08 2.598746956438e-07 9.899988405479e-08 1.275702770930e-07 1.488689385434e-01 3.051500000000e+02 
1.800000000000e+00 0.000000000000e+00 0.000000000000e+00 1.374780854493e-01 9.279769599185e-01 7.469589500396e-08 1.960767243854e-07 7.469589500396e-08 8.371441749538e-08 1.374780936503e-01 3.051500000000e+02 
2.000000000000e+00 0.000000000000e+00 0.000000000000e+00 1.254085446103e-01 8.465075879950e-01 5.565425581824e-08 1.460924215229e-07 5.565425581824e-08 5.470434154190e-08 1.254085507945e-01 3.051500000000e+02 
2.200000000000e+00 0.000000000000e+00 0.000000000000e+00 1.129237161000e-01 7.622350180314e-01 4.104864553229e-08 1.077526945223e-07 4.104864553229e-08 3.571982353657e-08 1.129237207066e-01 3.051500000000e+02 
2.400000000000e+00 0.000000000000e+00 0.000000000000e+00 1.003074657713e-01 6.770753455302e-01 3.002876379127e-08 7.882550495208e-08 3.002876379127e-08 2.338612408838e-08 1.003074691697e-01 3.051500000000e+02 
2.600000000000e+00 0.000000000000e+00 0.000000000000e+00 8.784590685635e-02 5.929598358309e-01 2.182102468165e-08 5.728018978934e-08 2.182102468165e-08 1.540697657637e-08 8.784590934403e-02 3.051500000000e+02 
2.800000000000e+00 0.000000000000e+00 0.000000000000e+00 7.580938507042e-02 5.117133234376e-01 1.576952692165e-08 4.139500816933e-08 1.576952692165e-08 1.025257587331e-08 7.580938688009e-02 3.051500000000e+02 
3.000000000000e+00 0.000000000000e+00 0.000000000000e+00 6.443645687611e-02 4.349460652520e-01 1.134312396918e-08 2.977570041910e-08 1.134312396918e-08 6.919616219522e-09 6.443645818571e-02 3.051500000000e+02 
3.200000000000e+00 0.000000000000e+00 0.000000000000e+00 5.392135028158e-02 3.639691009572e-01 8.125352919949e-09 2.132905141487e-08 8.125352919949e-09 4.757619724967e-09 5.392135122497e-02 3.051500000000e+02 
3.400000000000e+00 0.000000000000e+00 0.000000000000e+00 4.440589701386e-02 2.997397952007e-01 5.797327895631e-09 1.521798572603e-08 5.797327895631e-09 3.348266914860e-09 4.440589769055e-02 3.051500000000e+02 
3.600000000000e+00 0.000000000000e+00 0.000000000000e+00 3.597633443880e-02 2.428402505757e-01 4.119222712003e-09 1.081295961901e-08 4.119222712003e-09 2.423947210648e-09 3.597633492204e-02 3.051500000000e+02 
3.800000000000e+00 0.000000000000e+00 0.000000000000e+00 2.866477589530e-02 1.934872324000e-01 2.913145818977e-09 7.647007774815e-09 2.913145818977e-09 1.813927202728e-09 2.866477623868e-02 3.051500000000e+02 
4.000000000000e+00 0.000000000000e+00 0.000000000000e+00 2.245464867480e-02 1.515688750985e-01 2.048551019990e-09 5.377446427475e-09 2.048551019990e-09 1.409308661797e-09 2.245464891735e-02 3.051500000000e+02 
4.200000000000e+00 0.000000000000e+00 0.000000000000e+00 1.728903933946e-02 1.167010131179e-01 1.430418364584e-09 3.754848207034e-09 1.430418364584e-09 1.140450820933e-09 1.728903950953e-02 3.051500000000e+02 
4.400000000000e+00 0.000000000000e+00 0.000000000000e+00 1.308072560673e-02 8.829489616173e-02 9.899955421565e-10 2.598738298161e-09 9.899955421565e-10 9.625089812717e-10 1.308072572488e-02 3.051500000000e+02 
4.600000000000e+00 0.000000000000e+00 0.000000000000e+00 9.722680816443e-03 6.562809435448e-02 6.777119568050e-10 1.778993886613e-09 6.777119568050e-10 8.461988938737e-10 9.722680897602e-03 3.051500000000e+02 
4.800000000000e+00 0.000000000000e+00 0.000000000000e+00 7.098007819493e-03 4.791155199790e-02 4.578490433454e-10 1.201853738782e-09 4.578490433454e-10 7.719319047817e-10 7.098007874487e-03 3.051500000000e+02 
5.000000000000e+00 0.000000000000e+00 0.000000000000e+00 5.088517869249e-03 3.434749509472e-02 3.045942526528e-10 7.995599132135e-10 3.045942526528e-10 7.261696836997e-10 5.088517905931e-03 3.051500000000e+02 
5.200000000000e+00 0.000000000000e+00 0.000000000000e+00 3.581482272204e-03 2.417500499481e-02 1.991771847787e-10 5.228401100440e-10 1.991771847787e-10 6.992754851531e-10 3.581482296245e-03 3.051500000000e+02 
5.400000000000e+00 0.000000000000e+00 0.000000000000e+00 2.474380793484e-03 1.670207013572e-02 1.278477849207e-10 3.356004354168e-10 1.278477849207e-10 6.843407364532e-10 2.474380808944e-03 3.051500000000e+02 
5.600000000000e+00 0.000000000000e+00 0.000000000000e+00 1.677724078910e-03 1.132463739374e-02 8.049159266743e-11 2.112904307520e-10 8.049159266743e-11 6.765482504783e-10 1.677724088658e-03 3.051500000000e+02 
5.800000000000e+00 0.000000000000e+00 0.000000000000e+00 1.116206691124e-03 7.534395079248e-03 4.969376304986e-11 1.304461280059e-10 4.969376304986e-11 6.727345370799e-10 1.116206697148e-03 3.051500000000e+02 
6.000000000000e+00 0.000000000000e+00 0.000000000000e+00 7.285505713496e-04 4.917716304620e-03 3.008793513169e-11 7.898082972068e-11 3.008793513169e-11 6.709812799478e-10 7.285505749980e-04 3.051500000000e+02 
6.200000000000e+00 0.000000000000e+00 0.000000000000e+00 4.664307757234e-04 3.148407705282e-03 1.787081906328e-11 4.691090004112e-11 1.787081906328e-11 6.702215969857e-10 4.664307778884e-04 3.051500000000e+02 
6.400000000000e+00 0.000000000000e+00 0.000000000000e+00 2.928521746278e-04 1.976752160811e-03 1.041583836877e-11 2.734157571803e-11 1.041583836877e-11 6.699100854297e-10 2.928521758858e-04 3.051500000000e+02 
6.600000000000e+00 0.000000000000e+00 0.000000000000e+00 1.802869151939e-04 1.216936667373e-03 5.958695915745e-12 1.564157677883e-11 5.958695915745e-12 6.697887298897e-10 1.802869159087e-04 3.051500000000e+02 
6.800000000000e+00 0.000000000000e+00 0.000000000000e+00 1.088063142804e-04 7.344426157486e-04 3.346415655576e-12 8.784341095886e-12 3.346415655576e-12 6.697436692221e-10 1.088063146765e-04 3.051500000000e+02 
7.000000000000e+00 0.000000000000e+00 0.000000000000e+00 6.436297985750e-05 4.344501110013e-04 1.844999749027e-12 4.843124341196e-12 1.844999749027e-12 6.697276827580e-10 6.436298007065e-05 3.051500000000e+02 
7.200000000000e+00 0.000000000000e+00 0.000000000000e+00 3.731008995874e-05 2.518431056474e-04 9.985581831588e-13 2.621215230792e-12 9.985581831588e-13 6.697222545001e-10 3.731009006924e-05 3.051500000000e+02 
7.400000000000e+00 0.000000000000e+00 0.000000000000e+00 2.119033987389e-05 1.430347933734e-04 5.304554890391e-13 1.392445658728e-12 5.304554890391e-13 6.697204885249e-10 2.119033992833e-05 3.051500000000e+02 
7.600000000000e+00 0.000000000000e+00 0.000000000000e+00 1.178911980127e-05 7.957655830524e-05 2.765250604418e-13 7.258782836596e-13 2.765250604418e-13 6.697199377478e-10 1.178911982609e-05 3.051500000000e+02 
7.800000000000e+00 0.000000000000e+00 0.000000000000e+00 6.423377696169e-06 4.335779930920e-05 1.414237171262e-13 3.712372574564e-13 1.414237171262e-13 6.697197730338e-10 6.423377706012e-06 3.051500000000e+02 
8.000000000000e+00 0.000000000000e+00 0.000000000000e+00 3.426785663113e-06 2.313080318724e-05 7.093993826790e-14 1.862173379532e-13 7.093993826790e-14 6.697197258021e-10 3.426785665853e-06 3.051500000000e+02 
8.200000000000e+00 0.000000000000e+00 0.000000000000e+00 1.789575419444e-06 1.207963408552e-05 3.489063860157e-14 9.158792632911e-14 3.489063860157e-14 6.697197128185e-10 1.789575419158e-06 3.051500000000e+02 
8.400000000000e+00 0.000000000000e+00 0.000000000000e+00 9.146305775084e-07 6.173756417002e-06 1.682046350078e-14 4.415371668955e-14 1.682046350078e-14 6.697197093982e-10 9.146305761980e-07 3.051500000000e+02 
8.600000000000e+00 0.000000000000e+00 0.000000000000e+00 4.573633960244e-07 3.087202943706e-06 7.945719525601e-15 2.085751375470e-14 7.945719525601e-15 6.697197085350e-10 4.573633945904e-07 3.051500000000e+02 
8.800000000000e+00 0.000000000000e+00 0.000000000000e+00 2.237063181698e-07 1.510017665010e-06 3.676585069199e-15 9.651035806648e-15 3.676585069199e-15 6.697197083265e-10 2.237063169564e-07 3.051500000000e+02 
9.000000000000e+00 0.000000000000e+00 0.000000000000e+00 1.069973202639e-07 7.222319247964e-07 1.665781373848e-15 4.372676106351e-15 1.665781373848e-15 6.697197082783e-10 1.069973193541e-07 3.051500000000e+02 
9.200000000000e+00 0.000000000000e+00 0.000000000000e+00 5.003098381974e-08 3.377091498131e-07 7.387721024392e-16 1.939276768903e-15 7.387721024392e-16 6.697197082676e-10 5.003098318833e-08 3.051500000000e+02 
9.400000000000e+00 0.000000000000e+00 0.000000000000e+00 2.287706895683e-08 1.544202214613e-07 3.207427153962e-16 8.419496279149e-16 3.207427153962e-16 6.697197082654e-10 2.287706853707e-08 3.051500000000e+02 
9.600000000000e+00 0.000000000000e+00 0.000000000000e+00 1.028489432846e-08 6.942304062780e-08 1.369320541047e-16 3.594466420249e-16 1.369320541047e-16 6.697197082649e-10 1.028489405494e-08 3.051500000000e+02 
9.800000000000e+00 0.000000000000e+00 0.000000000000e+00 4.782153965318e-09 3.227954192276e-08 6.031963821795e-17 1.583390503221e-16 6.031963821795e-17 6.697197082648e-10 4.782153779556e-09 3.051500000000e+02 
1.000000000000e+01 0.000000000000e+00 0.000000000000e+00 3.205511064603e-09 2.163720193713e-08 3.901166010822e-17 1.024056077841e-16 3.901166010822e-17 6.697197082648e-10 3.205510907148e-09 3.051500000000e+02 
1  2  2  1
2  3  3  2
3  4  4  3
4  5  5  4
5  6  6  5
6  7  7  6
7  8  8  7
8  9  9  8
9  10  10  9
10  11  11  10
11  12  12  11
12  13  13  12
13  14  14  13
14  15  15  14
15  16  16  15
16  17  17  16
17  18  18  17
18  19  19  18
19  20  20  19
20  21  21  20
21  22  22  21
22  23  23  22
23  24  24  23
24  25  25  24
25  26  26  25
26  27  27  26
27  28  28  27
28  29  29  28
29  30  30  29
30  31  31  30
31  32  32  31
32  33  33  32
33  34  34  33
34  35  35  34
35  36  36  35
36  37  37  36
37  38  38  37
38  39  39  38
39  40  40  39
40  41  41  40
41  42  42  41
42  43  43  42
43  44  44  43
44  45  45  44
45  46  46  45
46  47  47  46
47  48  48  47
48  49  49  48
49  50  50  49
50  51  51  50
VARIABLES  = "X","Y","Z", "Comp_A", "Comp_B", "Comp_C", "Comp_D", "Comp_E", "Biomass", "ConsTracer", "TEMPERATURE1"
ZONE T="6.912000000000e+05s", N=51, E=50, F=FEPOINT, ET=QUADRILATERAL
STRANDID=1, SOLUTIONTIME=6.912000000000e+05
0.000000000000e+00 0.000000000000e+00 0.000000000000e+00 2.000000000000e-01 1.350000000000e+00 4.748870548006e-04 1.246578518852e-03 4.748870548006e-04 1.000000000000e-09 2.000000000000e-01 3.051500000000e+02 
2.000000000000e-01 0.000000000000e+00 0.000000000000e+00 1.995588767841e-01 1.346662135934e+00 5.270068438629e-04 1.383392965140e-03 5.270068438629e-04 2.480442097268e-03 1.995841596372e-01 3.051500000000e+02 
4.000000000000e-01 0.000000000000e+00 0.000000000000e+00 1.989574353589e-01 1.342416490215e+00 5.286902285602e-04 1.387811849971e-03 5.286902285602e-04 1.932569290074e-03 1.989957648496e-01 3.051500000000e+02 
6.000000000000e-01 0.000000000000e+00 0.000000000000e+00 1.981540689748e-01 1.336948606996e+00 4.838165833934e-04 1.270018531408e-03 4.838165833934e-04 1.422779158878e-03 1.981955677987e-01 3.051500000000e+02 
8.000000000000e-01 0.000000000000e+00 0.000000000000e+00 1.971017367091e-01 1.329879851345e+00 4.164336948166e-04 1.093138448894e-03 4.164336948166e-04 1.006239800353e-03 1.971408155300e-01 3.051500000000e+02 
1.000000000000e+00 0.000000000000e+00 0.000000000000e+00 1.957521379796e-01 1.320842529931e+00 3.429132924194e-04 9.001473926009e-04 3.429132924194e-04 6.891654394469e-04 1.957861312041e-01 3.051500000000e+02 
1.200000000000e+00 0.000000000000e+00 0.000000000000e+00 1.940566284875e-01 1.309482296033e+00 2.730494966758e-04 7.167549287740e-04 2.730494966758e-04 4.599442511700e-04 1.940846948782e-01 3.051500000000e+02 
1.400000000000e+00 0.000000000000e+00 0.000000000000e+00 1.919673827333e-01 1.295461678140e+00 2.117828446323e-04 5.559299671598e-04 2.117828446323e-04 3.005377716976e-04 1.919897093751e-01 3.051500000000e+02 
1.600000000000e+00 0.000000000000e+00 0.000000000000e+00 1.894388428122e-01 1.278466062810e+00 1.608519222987e-04 4.222362960342e-04 1.608519222987e-04 1.929719466080e-04 1.894561147757e-01 3.051500000000e+02 
1.800000000000e+00 0.000000000000e+00 0.000000000000e+00 1.864294166177e-01 1.258212231402e+00 1.201085906495e-04 3.152850504550e-04 1.201085906495e-04 1.221122007191e-04 1.864424924059e-01 3.051500000000e+02 
2.000000000000e+00 0.000000000000e+00 0.000000000000e+00 1.829033462905e-01 1.234458921429e+00 8.844499043899e-05 2.321680999024e-04 8.844499043899e-05 7.633730473524e-05 1.829130771803e-01 3.051500000000e+02 
2.200000000000e+00 0.000000000000e+00 0.000000000000e+00 1.788326363112e-01 1.207018513211e+00 6.438527623767e-05 1.690113501239e-04 6.438527623767e-05 4.723997017787e-05 1.788397788411e-01 3.051500000000e+02 
2.400000000000e+00 0.000000000000e+00 0.000000000000e+00 1.741989152193e-01 1.175768800914e+00 4.642721775355e-05 1.218714466031e-04 4.642721775355e-05 2.898968728058e-05 1.742040995047e-01 3.051500000000e+02 
2.600000000000e+00 0.000000000000e+00 0.000000000000e+00 1.689951000436e-01 1.140663791700e+00 3.321503568983e-05 8.718946868581e-05 3.321503568983e-05 1.766936714323e-05 1.689988286746e-01 3.051500000000e+02 
2.800000000000e+00 0.000000000000e+00 0.000000000000e+00 1.632267377976e-01 1.101742551590e+00 2.360776074699e-05 6.197037196084e-05 2.360776074699e-05 1.071186134328e-05 1.632293994200e-01 3.051500000000e+02 
3.000000000000e+00 0.000000000000e+00 0.000000000000e+00 1.569129119139e-01 1.059135247491e+00 1.668854951504e-05 4.380744247698e-05 1.668854951504e-05 6.467814213516e-06 1.569148001733e-01 3.051500000000e+02 
3.200000000000e+00 0.000000000000e+00 0.000000000000e+00 1.500866248333e-01 1.013065724750e+00 1.174448759892e-05 3.082927994717e-05 1.174448759892e-05 3.894531858355e-06 1.500879576634e-01 3.051500000000e+02 
3.400000000000e+00 0.000000000000e+00 0.000000000000e+00 1.427945960955e-01 9.638501731866e-01 8.234659897621e-06 2.161598223125e-05 8.234659897621e-06 2.341539955675e-06 1.427955329777e-01 3.051500000000e+02 
3.600000000000e+00 0.000000000000e+00 0.000000000000e+00 1.350964527938e-01 9.118917037936e-01 5.756326902335e-06 1.511035811863e-05 5.756326902335e-06 1.407466289911e-06 1.350971091309e-01 3.051500000000e+02 
3.800000000000e+00 0.000000000000e+00 0.000000000000e+00 1.270633240823e-01 8.576709035997e-01 4.014043766252e-06 1.053686488641e-05 4.014043766252e-06 8.468650637116e-07 1.270637826284e-01 3.051500000000e+02 
4.000000000000e+00 0.000000000000e+00 0.000000000000e+00 1.187758947824e-01 8.017327349498e-01 2.793625921814e-06 7.333268044761e-06 2.793625921814e-06 5.107372685999e-07 1.187762144457e-01 3.051500000000e+02 
4.200000000000e+00 0.000000000000e+00 0.000000000000e+00 1.103220027148e-01 7.446703485780e-01 1.941272494154e-06 5.095840297154e-06 1.941272494154e-06 3.091591684666e-07 1.103222251793e-01 3.051500000000e+02 
4.400000000000e+00 0.000000000000e+00 0.000000000000e+00 1.017939022914e-01 6.871066374827e-01 1.347393752018e-06 3.536908599048e-06 1.347393752018e-06 1.881039376966e-07 1.017940569104e-01 3.051500000000e+02 
4.600000000000e+00 0.000000000000e+00 0.000000000000e+00 9.328532995235e-02 6.296744475367e-01 9.343924357582e-07 2.452780143865e-06 9.343924357582e-07 1.152177168461e-07 9.328543731466e-02 3.051500000000e+02 
4.800000000000e+00 0.000000000000e+00 0.000000000000e+00 8.488852884527e-02 5.729965082544e-01 6.476057725760e-07 1.699965153012e-06 6.476057725760e-07 7.116617643795e-08 8.488860334611e-02 3.051500000000e+02 
5.000000000000e+00 0.000000000000e+00 0.000000000000e+00 7.669138139915e-02 5.176660881181e-01 4.486879085895e-07 1.177805760047e-06 4.486879085895e-07 4.440673667730e-08 7.669143307747e-02 3.051500000000e+02 
5.200000000000e+00 0.000000000000e+00 0.000000000000e+00 6.877479799010e-02 4.642293756716e-01 3.108308185091e-07 8.159308985864e-07 3.108308185091e-07 2.804784564734e-08 6.877483383263e-02 3.051500000000e+02 
5.400000000000e+00 0.000000000000e+00 0.000000000000e+00 6.121048251444e-02 4.131704026058e-01 2.153443662188e-07 5.652789613243e-07 2.153443662188e-07 1.797010243555e-08 6.121050737583e-02 3.051500000000e+02 
5.600000000000e+00 0.000000000000e+00 0.000000000000e+00 5.405917397996e-02 3.648991783999e-01 1.492270008909e-07 3.917208773385e-07 1.492270008909e-07 1.170569436791e-08 5.405919122932e-02 3.051500000000e+02 
5.800000000000e+00 0.000000000000e+00 0.000000000000e+00 4.736942666189e-02 3.197434591378e-01 1.034503508068e-07 2.715571708678e-07 1.034503508068e-07 7.771389906338e-09 4.736943863523e-02 3.051500000000e+02 