 TITLE = "Time curves in points"
 VARIABLES = "TIME "  "HEAD" 
 ZONE T="POINT=POINTOBS"
0.000000000000e+00 0.000000000000e+00 
1.000000000000e-05 -1.555530158358e-05 
2.000000000000e-05 -1.085436804039e-04 
3.000000000000e-05 -4.077505610518e-04 
4.000000000000e-05 -1.100286813120e-03 
5.000000000000e-05 -2.399047074423e-03 
6.000000000000e-05 -4.504615943830e-03 
7.000000000000e-05 -7.576716128772e-03 
8.000000000000e-05 -1.172059051169e-02 
9.000000000000e-05 -1.698630640836e-02 
1.000000000000e-04 -2.337610781665e-02 
1.900000000000e-04 -1.291823067687e-01 
2.800000000000e-04 -2.536294117776e-01 
3.700000000000e-04 -3.813726324474e-01 
4.600000000000e-04 -5.054408236284e-01 
5.500000000000e-04 -6.230583463620e-01 
6.400000000000e-04 -7.334194243855e-01 
7.300000000000e-04 -8.365991225730e-01 
8.200000000000e-04 -9.330370719172e-01 
9.100000000000e-04 -1.023297016211e+00 
1.000000000000e-03 -1.107957562536e+00 
1.900000000000e-03 -1.672056634059e+00 
2.800000000000e-03 -2.080652285413e+00 
3.700000000000e-03 -2.395658992675e+00 
4.600000000000e-03 -2.649855108168e+00 
5.500000000000e-03 -2.862011226520e+00 
6.400000000000e-03 -3.043634185412e+00 
7.300000000000e-03 -3.202192552081e+00 
8.200000000000e-03 -3.342768942895e+00 
9.100000000000e-03 -3.468960856983e+00 
1.000000000000e-02 -3.583399480114e+00 
1.900000000000e-02 -4.268324298962e+00 
2.800000000000e-02 -4.735575696665e+00 
3.700000000000e-02 -5.083302403918e+00 
4.600000000000e-02 -5.357763242587e+00 
5.500000000000e-02 -5.583492160316e+00 
6.400000000000e-02 -5.774759810346e+00 
7.300000000000e-02 -5.940490264089e+00 
8.200000000000e-02 -6.086593324307e+00 
9.100000000000e-02 -6.217166772852e+00 
1.000000000000e-01 -6.335160267550e+00 
1.900000000000e-01 -7.033739349325e+00 
2.800000000000e-01 -7.507386634043e+00 
3.700000000000e-01 -7.858599984994e+00 
4.600000000000e-01 -8.135187884728e+00 
5.500000000000e-01 -8.362326510303e+00 
6.400000000000e-01 -8.554587137995e+00 
7.300000000000e-01 -8.721048467077e+00 
8.200000000000e-01 -8.867705331890e+00 
9.100000000000e-01 -8.998703966431e+00 
1.000000000000e+00 -9.117021427725e+00 
1.900000000000e+00 -9.803761280496e+00 
2.800000000000e+00 -1.024527499421e+01 
3.700000000000e+00 -1.054379159848e+01 
4.600000000000e+00 -1.075039045768e+01 
5.500000000000e+00 -1.089488681235e+01 
6.400000000000e+00 -1.099642349167e+01 
7.300000000000e+00 -1.106792137489e+01 
8.200000000000e+00 -1.111831366395e+01 
9.100000000000e+00 -1.115384507482e+01 
1.000000000000e+01 -1.117890267115e+01 
