 TITLE = "Profiles along polylines"
 VARIABLES = "DIST" "PRESSURE1" "SATURATION1" "SATURATION2" 
 ZONE T="TIME=0.000000000000e+00"
0.000000000000e+00 9.806700000000e+04 1.000000000000e+00 0.000000000000e+00 
3.333333330000e-01 9.806700000000e+04 1.000000000000e+00 0.000000000000e+00 
6.666666670000e-01 9.806700000000e+04 1.000000000000e+00 0.000000000000e+00 
1.000000000000e+00 9.806700000000e+04 1.000000000000e+00 0.000000000000e+00 
1.333333333000e+00 9.806700000000e+04 1.000000000000e+00 0.000000000000e+00 
1.666666667000e+00 9.806700000000e+04 1.000000000000e+00 0.000000000000e+00 
2.000000000000e+00 9.806700000000e+04 1.000000000000e+00 0.000000000000e+00 
2.333333333000e+00 9.806700000000e+04 1.000000000000e+00 0.000000000000e+00 
2.666666667000e+00 9.806700000000e+04 1.000000000000e+00 0.000000000000e+00 
3.000000000000e+00 9.806700000000e+04 1.000000000000e+00 0.000000000000e+00 
3.333333333000e+00 9.806700000000e+04 1.000000000000e+00 0.000000000000e+00 
3.666666667000e+00 9.806700000000e+04 1.000000000000e+00 0.000000000000e+00 
4.000000000000e+00 9.806700000000e+04 1.000000000000e+00 0.000000000000e+00 
4.333333333000e+00 9.806700000000e+04 1.000000000000e+00 0.000000000000e+00 
4.666666667000e+00 9.806700000000e+04 1.000000000000e+00 0.000000000000e+00 
5.000000000000e+00 9.806700000000e+04 8.999977480000e-01 1.000022520000e-01 
5.333333333000e+00 9.806700000000e+04 8.999977480000e-01 1.000022520000e-01 
5.666666667000e+00 9.806700000000e+04 8.999977480000e-01 1.000022520000e-01 
6.000000000000e+00 9.806700000000e+04 8.999977480000e-01 1.000022520000e-01 
6.333333333000e+00 9.806700000000e+04 8.999977480000e-01 1.000022520000e-01 
6.666666667000e+00 9.806700000000e+04 8.999977480000e-01 1.000022520000e-01 
7.000000000000e+00 9.806700000000e+04 8.999977480000e-01 1.000022520000e-01 
7.333333333000e+00 9.806700000000e+04 8.999977480000e-01 1.000022520000e-01 
7.666666667000e+00 9.806700000000e+04 8.999977480000e-01 1.000022520000e-01 
8.000000000000e+00 9.806700000000e+04 8.999977480000e-01 1.000022520000e-01 
8.333333333000e+00 9.806700000000e+04 8.999977480000e-01 1.000022520000e-01 
8.666666667000e+00 9.806700000000e+04 8.999977480000e-01 1.000022520000e-01 
9.000000000000e+00 9.806700000000e+04 8.999977480000e-01 1.000022520000e-01 
9.333333333000e+00 9.806700000000e+04 8.999977480000e-01 1.000022520000e-01 
9.666666667000e+00 9.806700000000e+04 8.999977480000e-01 1.000022520000e-01 
1.000000000000e+01 9.806700000000e+04 8.999977480000e-01 1.000022520000e-01 
1.033333333000e+01 9.806700000000e+04 1.000000000000e+00 0.000000000000e+00 
1.066666667000e+01 9.806700000000e+04 1.000000000000e+00 0.000000000000e+00 
1.100000000000e+01 9.806700000000e+04 1.000000000000e+00 0.000000000000e+00 
1.133333333000e+01 9.806700000000e+04 1.000000000000e+00 0.000000000000e+00 
1.166666667000e+01 9.806700000000e+04 1.000000000000e+00 0.000000000000e+00 
1.200000000000e+01 9.806700000000e+04 1.000000000000e+00 0.000000000000e+00 
1.233333333000e+01 9.806700000000e+04 1.000000000000e+00 0.000000000000e+00 
1.266666667000e+01 9.806700000000e+04 1.000000000000e+00 0.000000000000e+00 
1.300000000000e+01 9.806700000000e+04 1.000000000000e+00 0.000000000000e+00 
1.333333333000e+01 9.806700000000e+04 1.000000000000e+00 0.000000000000e+00 
1.366666667000e+01 9.806700000000e+04 1.000000000000e+00 0.000000000000e+00 
1.400000000000e+01 9.806700000000e+04 1.000000000000e+00 0.000000000000e+00 
1.433333333000e+01 9.806700000000e+04 1.000000000000e+00 0.000000000000e+00 
1.466666667000e+01 9.806700000000e+04 1.000000000000e+00 0.000000000000e+00 
1.500000000000e+01 9.806700000000e+04 1.000000000000e+00 0.000000000000e+00 
1.533333333000e+01 9.806700000000e+04 1.000000000000e+00 0.000000000000e+00 
1.566666667000e+01 9.806700000000e+04 1.000000000000e+00 0.000000000000e+00 
1.600000000000e+01 9.806700000000e+04 1.000000000000e+00 0.000000000000e+00 
1.633333333000e+01 9.806700000000e+04 1.000000000000e+00 0.000000000000e+00 
1.666666667000e+01 9.806700000000e+04 1.000000000000e+00 0.000000000000e+00 
1.700000000000e+01 9.806700000000e+04 1.000000000000e+00 0.000000000000e+00 
1.733333333000e+01 9.806700000000e+04 1.000000000000e+00 0.000000000000e+00 
1.766666667000e+01 9.806700000000e+04 1.000000000000e+00 0.000000000000e+00 
1.800000000000e+01 9.806700000000e+04 1.000000000000e+00 0.000000000000e+00 
1.833333333000e+01 9.806700000000e+04 1.000000000000e+00 0.000000000000e+00 
1.866666667000e+01 9.806700000000e+04 1.000000000000e+00 0.000000000000e+00 
1.900000000000e+01 9.806700000000e+04 1.000000000000e+00 0.000000000000e+00 
1.933333333000e+01 9.806700000000e+04 1.000000000000e+00 0.000000000000e+00 
1.966666667000e+01 9.806700000000e+04 1.000000000000e+00 0.000000000000e+00 
2.000000000000e+01 9.806700000000e+04 1.000000000000e+00 0.000000000000e+00 
2.033333333000e+01 9.806700000000e+04 1.000000000000e+00 0.000000000000e+00 
2.066666667000e+01 9.806700000000e+04 1.000000000000e+00 0.000000000000e+00 
2.100000000000e+01 9.806700000000e+04 1.000000000000e+00 0.000000000000e+00 
2.133333333000e+01 9.806700000000e+04 1.000000000000e+00 0.000000000000e+00 
2.166666667000e+01 9.806700000000e+04 1.000000000000e+00 0.000000000000e+00 
2.200000000000e+01 9.806700000000e+04 1.000000000000e+00 0.000000000000e+00 
2.233333333000e+01 9.806700000000e+04 1.000000000000e+00 0.000000000000e+00 
2.266666667000e+01 9.806700000000e+04 1.000000000000e+00 0.000000000000e+00 
2.300000000000e+01 9.806700000000e+04 1.000000000000e+00 0.000000000000e+00 
2.333333333000e+01 9.806700000000e+04 1.000000000000e+00 0.000000000000e+00 
2.366666667000e+01 9.806700000000e+04 1.000000000000e+00 0.000000000000e+00 
2.400000000000e+01 9.806700000000e+04 1.000000000000e+00 0.000000000000e+00 
2.433333333000e+01 9.806700000000e+04 1.000000000000e+00 0.000000000000e+00 
2.466666667000e+01 9.806700000000e+04 1.000000000000e+00 0.000000000000e+00 
2.500000000000e+01 9.806700000000e+04 1.000000000000e+00 0.000000000000e+00 
2.533333333000e+01 9.806700000000e+04 1.000000000000e+00 0.000000000000e+00 
2.566666667000e+01 9.806700000000e+04 1.000000000000e+00 0.000000000000e+00 
2.600000000000e+01 9.806700000000e+04 1.000000000000e+00 0.000000000000e+00 
2.633333333000e+01 9.806700000000e+04 1.000000000000e+00 0.000000000000e+00 
2.666666667000e+01 9.806700000000e+04 1.000000000000e+00 0.000000000000e+00 
2.700000000000e+01 9.806700000000e+04 1.000000000000e+00 0.000000000000e+00 
2.733333333000e+01 9.806700000000e+04 1.000000000000e+00 0.000000000000e+00 
2.766666667000e+01 9.806700000000e+04 1.000000000000e+00 0.000000000000e+00 
2.800000000000e+01 9.806700000000e+04 1.000000000000e+00 0.000000000000e+00 
2.833333333000e+01 9.806700000000e+04 1.000000000000e+00 0.000000000000e+00 
2.866666667000e+01 9.806700000000e+04 1.000000000000e+00 0.000000000000e+00 
2.900000000000e+01 9.806700000000e+04 1.000000000000e+00 0.000000000000e+00 
2.933333333000e+01 9.806700000000e+04 1.000000000000e+00 0.000000000000e+00 
2.966666667000e+01 9.806700000000e+04 1.000000000000e+00 0.000000000000e+00 
3.000000000000e+01 9.806700000000e+04 1.000000000000e+00 0.000000000000e+00 
3.033333333000e+01 9.806700000000e+04 1.000000000000e+00 0.000000000000e+00 
3.066666667000e+01 9.806700000000e+04 1.000000000000e+00 0.000000000000e+00 
3.100000000000e+01 9.806700000000e+04 1.000000000000e+00 0.000000000000e+00 
3.133333333000e+01 9.806700000000e+04 1.000000000000e+00 0.000000000000e+00 
3.166666667000e+01 9.806700000000e+04 1.000000000000e+00 0.000000000000e+00 
3.200000000000e+01 9.806700000000e+04 1.000000000000e+00 0.000000000000e+00 
3.233333333000e+01 9.806700000000e+04 1.000000000000e+00 0.000000000000e+00 
3.266666667000e+01 9.806700000000e+04 1.000000000000e+00 0.000000000000e+00 
3.300000000000e+01 9.806700000000e+04 1.000000000000e+00 0.000000000000e+00 
3.333333333000e+01 9.806700000000e+04 1.000000000000e+00 0.000000000000e+00 
3.366666667000e+01 9.806700000000e+04 1.000000000000e+00 0.000000000000e+00 
3.400000000000e+01 9.806700000000e+04 1.000000000000e+00 0.000000000000e+00 
3.433333333000e+01 9.806700000000e+04 1.000000000000e+00 0.000000000000e+00 
3.466666667000e+01 9.806700000000e+04 1.000000000000e+00 0.000000000000e+00 
3.500000000000e+01 9.806700000000e+04 1.000000000000e+00 0.000000000000e+00 
3.533333333000e+01 9.806700000000e+04 1.000000000000e+00 0.000000000000e+00 
3.566666667000e+01 9.806700000000e+04 1.000000000000e+00 0.000000000000e+00 
3.600000000000e+01 9.806700000000e+04 1.000000000000e+00 0.000000000000e+00 
3.633333333000e+01 9.806700000000e+04 1.000000000000e+00 0.000000000000e+00 
3.666666667000e+01 9.806700000000e+04 1.000000000000e+00 0.000000000000e+00 
3.700000000000e+01 9.806700000000e+04 1.000000000000e+00 0.000000000000e+00 
3.733333333000e+01 9.806700000000e+04 1.000000000000e+00 0.000000000000e+00 
3.766666667000e+01 9.806700000000e+04 1.000000000000e+00 0.000000000000e+00 
3.800000000000e+01 9.806700000000e+04 1.000000000000e+00 0.000000000000e+00 
3.833333333000e+01 9.806700000000e+04 1.000000000000e+00 0.000000000000e+00 
3.866666667000e+01 9.806700000000e+04 1.000000000000e+00 0.000000000000e+00 
3.900000000000e+01 9.806700000000e+04 1.000000000000e+00 0.000000000000e+00 
3.933333333000e+01 9.806700000000e+04 1.000000000000e+00 0.000000000000e+00 
3.966666667000e+01 9.806700000000e+04 1.000000000000e+00 0.000000000000e+00 
4.000000000000e+01 9.806700000000e+04 1.000000000000e+00 0.000000000000e+00 
4.033333333000e+01 9.806700000000e+04 1.000000000000e+00 0.000000000000e+00 
4.066666667000e+01 9.806700000000e+04 1.000000000000e+00 0.000000000000e+00 
4.100000000000e+01 9.806700000000e+04 1.000000000000e+00 0.000000000000e+00 
4.133333333000e+01 9.806700000000e+04 1.000000000000e+00 0.000000000000e+00 
4.166666667000e+01 9.806700000000e+04 1.000000000000e+00 0.000000000000e+00 
4.200000000000e+01 9.806700000000e+04 1.000000000000e+00 0.000000000000e+00 
4.233333333000e+01 9.806700000000e+04 1.000000000000e+00 0.000000000000e+00 
4.266666667000e+01 9.806700000000e+04 1.000000000000e+00 0.000000000000e+00 
4.300000000000e+01 9.806700000000e+04 1.000000000000e+00 0.000000000000e+00 
4.333333333000e+01 9.806700000000e+04 1.000000000000e+00 0.000000000000e+00 
4.366666667000e+01 9.806700000000e+04 1.000000000000e+00 0.000000000000e+00 
4.400000000000e+01 9.806700000000e+04 1.000000000000e+00 0.000000000000e+00 
4.433333333000e+01 9.806700000000e+04 1.000000000000e+00 0.000000000000e+00 
4.466666667000e+01 9.806700000000e+04 1.000000000000e+00 0.000000000000e+00 
4.500000000000e+01 9.806700000000e+04 1.000000000000e+00 0.000000000000e+00 
4.533333333000e+01 9.806700000000e+04 1.000000000000e+00 0.000000000000e+00 
4.566666667000e+01 9.806700000000e+04 1.000000000000e+00 0.000000000000e+00 
4.600000000000e+01 9.806700000000e+04 1.000000000000e+00 0.000000000000e+00 
4.633333333000e+01 9.806700000000e+04 1.000000000000e+00 0.000000000000e+00 
4.666666667000e+01 9.806700000000e+04 1.000000000000e+00 0.000000000000e+00 
4.700000000000e+01 9.806700000000e+04 1.000000000000e+00 0.000000000000e+00 
4.733333333000e+01 9.806700000000e+04 1.000000000000e+00 0.000000000000e+00 
4.766666667000e+01 9.806700000000e+04 1.000000000000e+00 0.000000000000e+00 
4.800000000000e+01 9.806700000000e+04 1.000000000000e+00 0.000000000000e+00 
4.833333333000e+01 9.806700000000e+04 1.000000000000e+00 0.000000000000e+00 
4.866666667000e+01 9.806700000000e+04 1.000000000000e+00 0.000000000000e+00 
4.900000000000e+01 9.806700000000e+04 1.000000000000e+00 0.000000000000e+00 
4.933333333000e+01 9.806700000000e+04 1.000000000000e+00 0.000000000000e+00 
4.966666667000e+01 9.806700000000e+04 1.000000000000e+00 0.000000000000e+00 
5.000000000000e+01 9.806700000000e+04 1.000000000000e+00 0.000000000000e+00 
 TITLE = "Profiles along polylines"
 VARIABLES = "DIST" "PRESSURE1" "SATURATION1" "SATURATION2" 
 ZONE T="TIME=2.160000000000e+04"
0.000000000000e+00 9.810000000000e+04 1.000000000000e+00 0.000000000000e+00 
3.333333330000e-01 9.806924754775e+04 1.000000000000e+00 0.000000000000e+00 
6.666666670000e-01 9.803849514963e+04 1.000000000000e+00 0.000000000000e+00 
1.000000000000e+00 9.800774288412e+04 1.000000000000e+00 0.000000000000e+00 
1.333333333000e+00 9.797699088834e+04 1.000000000000e+00 0.000000000000e+00 
1.666666667000e+00 9.794623941929e+04 1.000000000000e+00 0.000000000000e+00 
2.000000000000e+00 9.791548896838e+04 1.000000000000e+00 0.000000000000e+00 
2.333333333000e+00 9.788474047923e+04 1.000000000000e+00 0.000000000000e+00 
2.666666667000e+00 9.785399576734e+04 1.000000000000e+00 0.000000000000e+00 
3.000000000000e+00 9.782325832731e+04 1.000000000000e+00 0.000000000000e+00 
3.333333333000e+00 9.779253488540e+04 1.000000000000e+00 0.000000000000e+00 
3.666666667000e+00 9.776183838920e+04 1.000000000000e+00 0.000000000000e+00 
4.000000000000e+00 9.773119376254e+04 1.000000000000e+00 0.000000000000e+00 
4.333333333000e+00 9.770064898205e+04 1.000000000000e+00 0.000000000000e+00 
4.666666667000e+00 9.767029640043e+04 1.000000000000e+00 0.000000000000e+00 
5.000000000000e+00 9.762972921764e+04 8.999977480000e-01 1.000022520000e-01 
5.333333333000e+00 9.758112834305e+04 8.999977480000e-01 1.000022520000e-01 
5.666666667000e+00 9.753224250418e+04 8.999977480000e-01 1.000022520000e-01 
6.000000000000e+00 9.748320854797e+04 8.999977480000e-01 1.000022520000e-01 
6.333333333000e+00 9.743409749094e+04 8.999977480000e-01 1.000022520000e-01 
6.666666667000e+00 9.738494608257e+04 8.999977480000e-01 1.000022520000e-01 
7.000000000000e+00 9.733577313892e+04 8.999977480000e-01 1.000022520000e-01 
7.333333333000e+00 9.728658790432e+04 8.999977480000e-01 1.000022520000e-01 
7.666666667000e+00 9.723739416045e+04 8.999977480000e-01 1.000022520000e-01 
8.000000000000e+00 9.718819190761e+04 8.999977480000e-01 1.000022520000e-01 
8.333333333000e+00 9.713897736383e+04 8.999977480000e-01 1.000022520000e-01 
8.666666667000e+00 9.708974128447e+04 8.999977480000e-01 1.000022520000e-01 
9.000000000000e+00 9.704046485407e+04 8.999977480000e-01 1.000022520000e-01 
9.333333333000e+00 9.699111132286e+04 8.999977480000e-01 1.000022520000e-01 
9.666666667000e+00 9.694160967402e+04 8.999977480000e-01 1.000022520000e-01 
1.000000000000e+01 9.689182306121e+04 8.999977480000e-01 1.000022520000e-01 
1.033333333000e+01 9.685538883635e+04 1.000000000000e+00 0.000000000000e+00 
1.066666667000e+01 9.682423626859e+04 1.000000000000e+00 0.000000000000e+00 
1.100000000000e+01 9.679327590075e+04 1.000000000000e+00 0.000000000000e+00 
1.133333333000e+01 9.676241537909e+04 1.000000000000e+00 0.000000000000e+00 
1.166666667000e+01 9.673160672599e+04 1.000000000000e+00 0.000000000000e+00 
1.200000000000e+01 9.670082501969e+04 1.000000000000e+00 0.000000000000e+00 
1.233333333000e+01 9.667005731161e+04 1.000000000000e+00 0.000000000000e+00 
1.266666667000e+01 9.663929687459e+04 1.000000000000e+00 0.000000000000e+00 
1.300000000000e+01 9.660854021624e+04 1.000000000000e+00 0.000000000000e+00 
1.333333333000e+01 9.657778552041e+04 1.000000000000e+00 0.000000000000e+00 
1.366666667000e+01 9.654703184317e+04 1.000000000000e+00 0.000000000000e+00 
1.400000000000e+01 9.651627869648e+04 1.000000000000e+00 0.000000000000e+00 
1.433333333000e+01 9.648552582493e+04 1.000000000000e+00 0.000000000000e+00 
1.466666667000e+01 9.645477309539e+04 1.000000000000e+00 0.000000000000e+00 
1.500000000000e+01 9.642402044101e+04 1.000000000000e+00 0.000000000000e+00 
1.533333333000e+01 9.639326782520e+04 1.000000000000e+00 0.000000000000e+00 
1.566666667000e+01 9.636251522851e+04 1.000000000000e+00 0.000000000000e+00 
1.600000000000e+01 9.633176264313e+04 1.000000000000e+00 0.000000000000e+00 
1.633333333000e+01 9.630101006316e+04 1.000000000000e+00 0.000000000000e+00 
1.666666667000e+01 9.627025748506e+04 1.000000000000e+00 0.000000000000e+00 
1.700000000000e+01 9.623950490933e+04 1.000000000000e+00 0.000000000000e+00 
1.733333333000e+01 9.620875233435e+04 1.000000000000e+00 0.000000000000e+00 
1.766666667000e+01 9.617799975883e+04 1.000000000000e+00 0.000000000000e+00 
1.800000000000e+01 9.614724718442e+04 1.000000000000e+00 0.000000000000e+00 
1.833333333000e+01 9.611649461011e+04 1.000000000000e+00 0.000000000000e+00 
1.866666667000e+01 9.608574203491e+04 1.000000000000e+00 0.000000000000e+00 
1.900000000000e+01 9.605498946066e+04 1.000000000000e+00 0.000000000000e+00 
1.933333333000e+01 9.602423688640e+04 1.000000000000e+00 0.000000000000e+00 
1.966666667000e+01 9.599348431122e+04 1.000000000000e+00 0.000000000000e+00 
2.000000000000e+01 9.596273173695e+04 1.000000000000e+00 0.000000000000e+00 
2.033333333000e+01 9.593197916267e+04 1.000000000000e+00 0.000000000000e+00 
2.066666667000e+01 9.590122658746e+04 1.000000000000e+00 0.000000000000e+00 
2.100000000000e+01 9.587047401316e+04 1.000000000000e+00 0.000000000000e+00 
2.133333333000e+01 9.583972143884e+04 1.000000000000e+00 0.000000000000e+00 
2.166666667000e+01 9.580896886359e+04 1.000000000000e+00 0.000000000000e+00 
2.200000000000e+01 9.577821628925e+04 1.000000000000e+00 0.000000000000e+00 
2.233333333000e+01 9.574746371490e+04 1.000000000000e+00 0.000000000000e+00 
2.266666667000e+01 9.571671113962e+04 1.000000000000e+00 0.000000000000e+00 
2.300000000000e+01 9.568595856525e+04 1.000000000000e+00 0.000000000000e+00 
2.333333333000e+01 9.565520599088e+04 1.000000000000e+00 0.000000000000e+00 
2.366666667000e+01 9.562445341557e+04 1.000000000000e+00 0.000000000000e+00 
2.400000000000e+01 9.559370084118e+04 1.000000000000e+00 0.000000000000e+00 
2.433333333000e+01 9.556294826678e+04 1.000000000000e+00 0.000000000000e+00 
2.466666667000e+01 9.553219569145e+04 1.000000000000e+00 0.000000000000e+00 
2.500000000000e+01 9.550144311704e+04 1.000000000000e+00 0.000000000000e+00 
2.533333333000e+01 9.547069054262e+04 1.000000000000e+00 0.000000000000e+00 
2.566666667000e+01 9.543993796727e+04 1.000000000000e+00 0.000000000000e+00 
2.600000000000e+01 9.540918539285e+04 1.000000000000e+00 0.000000000000e+00 
2.633333333000e+01 9.537843281842e+04 1.000000000000e+00 0.000000000000e+00 
2.666666667000e+01 9.534768024306e+04 1.000000000000e+00 0.000000000000e+00 
2.700000000000e+01 9.531692766862e+04 1.000000000000e+00 0.000000000000e+00 
2.733333333000e+01 9.528617509418e+04 1.000000000000e+00 0.000000000000e+00 
2.766666667000e+01 9.525542251881e+04 1.000000000000e+00 0.000000000000e+00 
2.800000000000e+01 9.522466994437e+04 1.000000000000e+00 0.000000000000e+00 
2.833333333000e+01 9.519391736992e+04 1.000000000000e+00 0.000000000000e+00 
2.866666667000e+01 9.516316479454e+04 1.000000000000e+00 0.000000000000e+00 
2.900000000000e+01 9.513241222008e+04 1.000000000000e+00 0.000000000000e+00 
2.933333333000e+01 9.510165964562e+04 1.000000000000e+00 0.000000000000e+00 
2.966666667000e+01 9.507090707023e+04 1.000000000000e+00 0.000000000000e+00 
3.000000000000e+01 9.504015449576e+04 1.000000000000e+00 0.000000000000e+00 
3.033333333000e+01 9.500940192129e+04 1.000000000000e+00 0.000000000000e+00 
3.066666667000e+01 9.497864934589e+04 1.000000000000e+00 0.000000000000e+00 
3.100000000000e+01 9.494789677141e+04 1.000000000000e+00 0.000000000000e+00 
3.133333333000e+01 9.491714419692e+04 1.000000000000e+00 0.000000000000e+00 
3.166666667000e+01 9.488639162151e+04 1.000000000000e+00 0.000000000000e+00 
3.200000000000e+01 9.485563904701e+04 1.000000000000e+00 0.000000000000e+00 
3.233333333000e+01 9.482488647251e+04 1.000000000000e+00 0.000000000000e+00 
3.266666667000e+01 9.479413389707e+04 1.000000000000e+00 0.000000000000e+00 
3.300000000000e+01 9.476338132256e+04 1.000000000000e+00 0.000000000000e+00 
3.333333333000e+01 9.473262874803e+04 1.000000000000e+00 0.000000000000e+00 
3.366666667000e+01 9.470187617258e+04 1.000000000000e+00 0.000000000000e+00 
3.400000000000e+01 9.467112359804e+04 1.000000000000e+00 0.000000000000e+00 
3.433333333000e+01 9.464037102350e+04 1.000000000000e+00 0.000000000000e+00 
3.466666667000e+01 9.460961844802e+04 1.000000000000e+00 0.000000000000e+00 
3.500000000000e+01 9.457886587346e+04 1.000000000000e+00 0.000000000000e+00 
3.533333333000e+01 9.454811329889e+04 1.000000000000e+00 0.000000000000e+00 
3.566666667000e+01 9.451736072339e+04 1.000000000000e+00 0.000000000000e+00 
3.600000000000e+01 9.448660814881e+04 1.000000000000e+00 0.000000000000e+00 
3.633333333000e+01 9.445585557422e+04 1.000000000000e+00 0.000000000000e+00 
3.666666667000e+01 9.442510299870e+04 1.000000000000e+00 0.000000000000e+00 
3.700000000000e+01 9.439435042410e+04 1.000000000000e+00 0.000000000000e+00 
3.733333333000e+01 9.436359784949e+04 1.000000000000e+00 0.000000000000e+00 
3.766666667000e+01 9.433284527395e+04 1.000000000000e+00 0.000000000000e+00 
3.800000000000e+01 9.430209269932e+04 1.000000000000e+00 0.000000000000e+00 
3.833333333000e+01 9.427134012469e+04 1.000000000000e+00 0.000000000000e+00 
3.866666667000e+01 9.424058754913e+04 1.000000000000e+00 0.000000000000e+00 
3.900000000000e+01 9.420983497449e+04 1.000000000000e+00 0.000000000000e+00 
3.933333333000e+01 9.417908239984e+04 1.000000000000e+00 0.000000000000e+00 
3.966666667000e+01 9.414832982427e+04 1.000000000000e+00 0.000000000000e+00 
4.000000000000e+01 9.411757724962e+04 1.000000000000e+00 0.000000000000e+00 
4.033333333000e+01 9.408682467496e+04 1.000000000000e+00 0.000000000000e+00 
4.066666667000e+01 9.405607209937e+04 1.000000000000e+00 0.000000000000e+00 
4.100000000000e+01 9.402531952471e+04 1.000000000000e+00 0.000000000000e+00 
4.133333333000e+01 9.399456695004e+04 1.000000000000e+00 0.000000000000e+00 
4.166666667000e+01 9.396381437444e+04 1.000000000000e+00 0.000000000000e+00 
4.200000000000e+01 9.393306179977e+04 1.000000000000e+00 0.000000000000e+00 
4.233333333000e+01 9.390230922510e+04 1.000000000000e+00 0.000000000000e+00 
4.266666667000e+01 9.387155664950e+04 1.000000000000e+00 0.000000000000e+00 
4.300000000000e+01 9.384080407482e+04 1.000000000000e+00 0.000000000000e+00 
4.333333333000e+01 9.381005150014e+04 1.000000000000e+00 0.000000000000e+00 
4.366666667000e+01 9.377929892454e+04 1.000000000000e+00 0.000000000000e+00 
4.400000000000e+01 9.374854634985e+04 1.000000000000e+00 0.000000000000e+00 
4.433333333000e+01 9.371779377517e+04 1.000000000000e+00 0.000000000000e+00 
4.466666667000e+01 9.368704119957e+04 1.000000000000e+00 0.000000000000e+00 
4.500000000000e+01 9.365628862488e+04 1.000000000000e+00 0.000000000000e+00 
4.533333333000e+01 9.362553605020e+04 1.000000000000e+00 0.000000000000e+00 
4.566666667000e+01 9.359478347459e+04 1.000000000000e+00 0.000000000000e+00 
4.600000000000e+01 9.356403089991e+04 1.000000000000e+00 0.000000000000e+00 
4.633333333000e+01 9.353327832522e+04 1.000000000000e+00 0.000000000000e+00 
4.666666667000e+01 9.350252574962e+04 1.000000000000e+00 0.000000000000e+00 
4.700000000000e+01 9.347177317493e+04 1.000000000000e+00 0.000000000000e+00 
4.733333333000e+01 9.344102060025e+04 1.000000000000e+00 0.000000000000e+00 
4.766666667000e+01 9.341026802464e+04 1.000000000000e+00 0.000000000000e+00 
4.800000000000e+01 9.337951544996e+04 1.000000000000e+00 0.000000000000e+00 
4.833333333000e+01 9.334876287527e+04 1.000000000000e+00 0.000000000000e+00 
4.866666667000e+01 9.331801029966e+04 1.000000000000e+00 0.000000000000e+00 
4.900000000000e+01 9.328725772498e+04 1.000000000000e+00 0.000000000000e+00 
4.933333333000e+01 9.325650515029e+04 1.000000000000e+00 0.000000000000e+00 
4.966666667000e+01 9.322575257468e+04 1.000000000000e+00 0.000000000000e+00 
5.000000000000e+01 9.319500000000e+04 1.000000000000e+00 0.000000000000e+00 
 TITLE = "Profiles along polylines"
 VARIABLES = "DIST" "PRESSURE1" "SATURATION1" "SATURATION2" 
 ZONE T="TIME=4.320000000000e+04"
0.000000000000e+00 9.810000000000e+04 1.000000000000e+00 0.000000000000e+00 
3.333333330000e-01 9.806924754775e+04 1.000000000000e+00 0.000000000000e+00 
6.666666670000e-01 9.803849514963e+04 1.000000000000e+00 0.000000000000e+00 
1.000000000000e+00 9.800774288412e+04 1.000000000000e+00 0.000000000000e+00 
1.333333333000e+00 9.797699088834e+04 1.000000000000e+00 0.000000000000e+00 
1.666666667000e+00 9.794623941929e+04 1.000000000000e+00 0.000000000000e+00 
2.000000000000e+00 9.791548896838e+04 1.000000000000e+00 0.000000000000e+00 
2.333333333000e+00 9.788474047923e+04 1.000000000000e+00 0.000000000000e+00 
2.666666667000e+00 9.785399576734e+04 1.000000000000e+00 0.000000000000e+00 
3.000000000000e+00 9.782325832731e+04 1.000000000000e+00 0.000000000000e+00 
3.333333333000e+00 9.779253488540e+04 1.000000000000e+00 0.000000000000e+00 
3.666666667000e+00 9.776183838920e+04 1.000000000000e+00 0.000000000000e+00 
4.000000000000e+00 9.773119376254e+04 1.000000000000e+00 0.000000000000e+00 
4.333333333000e+00 9.770064898205e+04 1.000000000000e+00 0.000000000000e+00 
4.666666667000e+00 9.767029640043e+04 1.000000000000e+00 0.000000000000e+00 
5.000000000000e+00 9.762972921764e+04 8.999977480000e-01 1.000022520000e-01 
5.333333333000e+00 9.758112834305e+04 8.999977480000e-01 1.000022520000e-01 
5.666666667000e+00 9.753224250418e+04 8.999977480000e-01 1.000022520000e-01 
6.000000000000e+00 9.748320854797e+04 8.999977480000e-01 1.000022520000e-01 
6.333333333000e+00 9.743409749094e+04 8.999977480000e-01 1.000022520000e-01 
6.666666667000e+00 9.738494608257e+04 8.999977480000e-01 1.000022520000e-01 
7.000000000000e+00 9.733577313892e+04 8.999977480000e-01 1.000022520000e-01 
7.333333333000e+00 9.728658790432e+04 8.999977480000e-01 1.000022520000e-01 
7.666666667000e+00 9.723739416045e+04 8.999977480000e-01 1.000022520000e-01 
8.000000000000e+00 9.718819190761e+04 8.999977480000e-01 1.000022520000e-01 
8.333333333000e+00 9.713897736383e+04 8.999977480000e-01 1.000022520000e-01 
8.666666667000e+00 9.708974128447e+04 8.999977480000e-01 1.000022520000e-01 
9.000000000000e+00 9.704046485407e+04 8.999977480000e-01 1.000022520000e-01 
9.333333333000e+00 9.699111132286e+04 8.999977480000e-01 1.000022520000e-01 
9.666666667000e+00 9.694160967402e+04 8.999977480000e-01 1.000022520000e-01 
1.000000000000e+01 9.689182306121e+04 8.999977480000e-01 1.000022520000e-01 
1.033333333000e+01 9.685538883635e+04 1.000000000000e+00 0.000000000000e+00 
1.066666667000e+01 9.682423626859e+04 1.000000000000e+00 0.000000000000e+00 
1.100000000000e+01 9.679327590075e+04 1.000000000000e+00 0.000000000000e+00 
1.133333333000e+01 9.676241537909e+04 1.000000000000e+00 0.000000000000e+00 
1.166666667000e+01 9.673160672599e+04 1.000000000000e+00 0.000000000000e+00 
1.200000000000e+01 9.670082501969e+04 1.000000000000e+00 0.000000000000e+00 
1.233333333000e+01 9.667005731161e+04 1.000000000000e+00 0.000000000000e+00 
1.266666667000e+01 9.663929687459e+04 1.000000000000e+00 0.000000000000e+00 
1.300000000000e+01 9.660854021624e+04 1.000000000000e+00 0.000000000000e+00 
1.333333333000e+01 9.657778552041e+04 1.000000000000e+00 0.000000000000e+00 
1.366666667000e+01 9.654703184317e+04 1.000000000000e+00 0.000000000000e+00 
1.400000000000e+01 9.651627869648e+04 1.000000000000e+00 0.000000000000e+00 
1.433333333000e+01 9.648552582493e+04 1.000000000000e+00 0.000000000000e+00 
1.466666667000e+01 9.645477309539e+04 1.000000000000e+00 0.000000000000e+00 
1.500000000000e+01 9.642402044101e+04 1.000000000000e+00 0.000000000000e+00 
1.533333333000e+01 9.639326782520e+04 1.000000000000e+00 0.000000000000e+00 
1.566666667000e+01 9.636251522851e+04 1.000000000000e+00 0.000000000000e+00 
1.600000000000e+01 9.633176264313e+04 1.000000000000e+00 0.000000000000e+00 
1.633333333000e+01 9.630101006316e+04 1.000000000000e+00 0.000000000000e+00 
1.666666667000e+01 9.627025748506e+04 1.000000000000e+00 0.000000000000e+00 
1.700000000000e+01 9.623950490933e+04 1.000000000000e+00 0.000000000000e+00 
1.733333333000e+01 9.620875233435e+04 1.000000000000e+00 0.000000000000e+00 
1.766666667000e+01 9.617799975883e+04 1.000000000000e+00 0.000000000000e+00 
1.800000000000e+01 9.614724718442e+04 1.000000000000e+00 0.000000000000e+00 
1.833333333000e+01 9.611649461011e+04 1.000000000000e+00 0.000000000000e+00 
1.866666667000e+01 9.608574203491e+04 1.000000000000e+00 0.000000000000e+00 
1.900000000000e+01 9.605498946066e+04 1.000000000000e+00 0.000000000000e+00 
1.933333333000e+01 9.602423688640e+04 1.000000000000e+00 0.000000000000e+00 
1.966666667000e+01 9.599348431122e+04 1.000000000000e+00 0.000000000000e+00 
2.000000000000e+01 9.596273173695e+04 1.000000000000e+00 0.000000000000e+00 
2.033333333000e+01 9.593197916267e+04 1.000000000000e+00 0.000000000000e+00 
2.066666667000e+01 9.590122658746e+04 1.000000000000e+00 0.000000000000e+00 
2.100000000000e+01 9.587047401316e+04 1.000000000000e+00 0.000000000000e+00 
2.133333333000e+01 9.583972143884e+04 1.000000000000e+00 0.000000000000e+00 
2.166666667000e+01 9.580896886359e+04 1.000000000000e+00 0.000000000000e+00 
2.200000000000e+01 9.577821628925e+04 1.000000000000e+00 0.000000000000e+00 
2.233333333000e+01 9.574746371490e+04 1.000000000000e+00 0.000000000000e+00 
2.266666667000e+01 9.571671113962e+04 1.000000000000e+00 0.000000000000e+00 
2.300000000000e+01 9.568595856525e+04 1.000000000000e+00 0.000000000000e+00 
2.333333333000e+01 9.565520599088e+04 1.000000000000e+00 0.000000000000e+00 
2.366666667000e+01 9.562445341557e+04 1.000000000000e+00 0.000000000000e+00 
2.400000000000e+01 9.559370084118e+04 1.000000000000e+00 0.000000000000e+00 
2.433333333000e+01 9.556294826678e+04 1.000000000000e+00 0.000000000000e+00 
2.466666667000e+01 9.553219569145e+04 1.000000000000e+00 0.000000000000e+00 
2.500000000000e+01 9.550144311704e+04 1.000000000000e+00 0.000000000000e+00 
2.533333333000e+01 9.547069054262e+04 1.000000000000e+00 0.000000000000e+00 
2.566666667000e+01 9.543993796727e+04 1.000000000000e+00 0.000000000000e+00 
2.600000000000e+01 9.540918539285e+04 1.000000000000e+00 0.000000000000e+00 
2.633333333000e+01 9.537843281842e+04 1.000000000000e+00 0.000000000000e+00 
2.666666667000e+01 9.534768024306e+04 1.000000000000e+00 0.000000000000e+00 
2.700000000000e+01 9.531692766862e+04 1.000000000000e+00 0.000000000000e+00 