 TITLE = "Time curves in points"
 VARIABLES = "TIME "  "Tracer" 
 ZONE T="POINT=POINT8"
0.000000000000e+00 0.000000000000e+00 
2.160000000000e+04 7.945997169466e-17 
4.320000000000e+04 3.366862148476e-15 
6.480000000000e+04 3.898965308206e-14 
8.640000000000e+04 2.802355116615e-13 
1.080000000000e+05 1.526678032039e-12 
1.296000000000e+05 6.786238996491e-12 
1.512000000000e+05 2.569679068583e-11 
1.728000000000e+05 8.535311636847e-11 
1.944000000000e+05 2.538658699504e-10 
2.160000000000e+05 6.869684606659e-10 
2.376000000000e+05 1.712482340951e-09 
2.592000000000e+05 3.972213019114e-09 
2.808000000000e+05 8.644548598878e-09 
3.024000000000e+05 1.777267624554e-08 
3.240000000000e+05 3.472189702903e-08 
3.456000000000e+05 6.478422013648e-08 
3.672000000000e+05 1.159393333522e-07 
3.888000000000e+05 1.997686576153e-07 
4.104000000000e+05 3.325046958015e-07 
4.320000000000e+05 5.361828352404e-07 
4.536000000000e+05 8.398490080574e-07 
4.752000000000e+05 1.280765683653e-06 
4.968000000000e+05 1.905551985744e-06 
5.184000000000e+05 2.771192145755e-06 
5.400000000000e+05 3.945850251222e-06 
5.616000000000e+05 5.509438188361e-06 
5.832000000000e+05 7.553897056653e-06 
6.048000000000e+05 1.018316925375e-05 
6.264000000000e+05 1.351285764735e-05 
6.480000000000e+05 1.766958867644e-05 
6.696000000000e+05 2.279011652290e-05 
6.912000000000e+05 2.902022509849e-05 
7.128000000000e+05 3.651350213422e-05 
7.344000000000e+05 4.543007527890e-05 
7.560000000000e+05 5.593541261906e-05 
7.776000000000e+05 6.819930010574e-05 
7.992000000000e+05 8.239511493970e-05 
8.208000000000e+05 9.869951788566e-05 
8.424000000000e+05 1.172926881459e-04 
8.640000000000e+05 1.383592221002e-04 
8.856000000000e+05 1.620898121031e-04 
9.072000000000e+05 1.886838131278e-04 
9.288000000000e+05 2.183527941494e-04 
9.504000000000e+05 2.513251572404e-04 
9.720000000000e+05 2.878518904601e-04 
9.936000000000e+05 3.282135015814e-04 
1.015200000000e+06 3.727281577427e-04 
1.036800000000e+06 4.217610323950e-04 
1.058400000000e+06 4.757348351693e-04 
1.080000000000e+06 5.351414733635e-04 
1.101600000000e+06 6.005547659776e-04 
1.123200000000e+06 6.726441032872e-04 
1.144800000000e+06 7.521889174487e-04 
1.166400000000e+06 8.400938033359e-04 
1.188000000000e+06 9.374041043367e-04 
1.209600000000e+06 1.045321755852e-03 
1.231200000000e+06 1.165221160505e-03 
1.252800000000e+06 1.298664853878e-03 
1.274400000000e+06 1.447418708743e-03 
1.296000000000e+06 1.613466419302e-03 
1.317600000000e+06 1.799023005415e-03 
1.339200000000e+06 2.006547080012e-03 
1.360800000000e+06 2.238751631167e-03 
1.382400000000e+06 2.498613083174e-03 
1.404000000000e+06 2.789378418554e-03 
1.425600000000e+06 3.114570164472e-03 
1.447200000000e+06 3.477989072430e-03 
1.468800000000e+06 3.883714348585e-03 
1.490400000000e+06 4.336101323238e-03 
1.512000000000e+06 4.839776480880e-03 
1.533600000000e+06 5.399629806721e-03 
1.555200000000e+06 6.020804440611e-03 
1.576800000000e+06 6.708683663882e-03 
1.598400000000e+06 7.468875279390e-03 
1.620000000000e+06 8.307193477686e-03 
1.641600000000e+06 9.229638313765e-03 
1.663200000000e+06 1.024237294764e-02 
1.684800000000e+06 1.135169882859e-02 
1.706400000000e+06 1.256402902607e-02 
1.728000000000e+06 1.388585993059e-02 
1.749600000000e+06 1.532374156411e-02 
1.771200000000e+06 1.688424675332e-02 
1.792800000000e+06 1.857393942758e-02 
1.814400000000e+06 2.039934231038e-02 
1.836000000000e+06 2.236690427460e-02 
1.857600000000e+06 2.448296763115e-02 
1.879200000000e+06 2.675373561688e-02 
1.900800000000e+06 2.918524033921e-02 
1.922400000000e+06 3.178331142650e-02 
1.944000000000e+06 3.455354561984e-02 
1.965600000000e+06 3.750127752761e-02 
1.987200000000e+06 4.063155174817e-02 
2.008800000000e+06 4.394909654764e-02 
2.030400000000e+06 4.745829926099e-02 
2.052000000000e+06 5.116318356458e-02 
2.073600000000e+06 5.506738874761e-02 
2.095200000000e+06 5.917415108889e-02 
2.116800000000e+06 6.348628742460e-02 
2.138400000000e+06 6.800618097153e-02 
2.160000000000e+06 7.273576945021e-02 
2.181600000000e+06 7.767653553220e-02 
2.203200000000e+06 8.282949961693e-02 
2.224800000000e+06 8.819521492558e-02 
2.246400000000e+06 9.377376488209e-02 
2.268000000000e+06 9.956476273580e-02 
2.289600000000e+06 1.055673533658e-01 
2.311200000000e+06 1.117802171931e-01 
2.332800000000e+06 1.182015761165e-01 
2.354400000000e+06 1.248292013749e-01 
2.376000000000e+06 1.316604232330e-01 
2.397600000000e+06 1.386921423763e-01 
2.419200000000e+06 1.459208428978e-01 
2.440800000000e+06 1.533426067521e-01 
2.462400000000e+06 1.609531295485e-01 
2.484000000000e+06 1.687477375550e-01 
2.505600000000e+06 1.767214057795e-01 
2.527200000000e+06 1.848687769973e-01 
2.548800000000e+06 1.931841815939e-01 
2.570400000000e+06 2.016616580934e-01 
2.592000000000e+06 2.102949742455e-01 
2.613600000000e+06 2.190776485459e-01 
2.635200000000e+06 2.280029720728e-01 
2.656800000000e+06 2.370640305203e-01 
2.678400000000e+06 2.462537263218e-01 
2.700000000000e+06 2.555648007544e-01 
2.721600000000e+06 2.649898559281e-01 
2.743200000000e+06 2.745213765638e-01 
2.764800000000e+06 2.841517514740e-01 
2.786400000000e+06 2.938732946658e-01 
2.808000000000e+06 3.036782659898e-01 
2.829600000000e+06 3.135588912695e-01 
2.851200000000e+06 3.235073818480e-01 
2.872800000000e+06 3.335159534978e-01 
2.894400000000e+06 3.435768446452e-01 
2.916000000000e+06 3.536823338661e-01 
2.937600000000e+06 3.638247566184e-01 
2.959200000000e+06 3.739965211786e-01 
2.980800000000e+06 3.841901237591e-01 
3.002400000000e+06 3.943981627863e-01 
3.024000000000e+06 4.046133523244e-01 
3.045600000000e+06 4.148285346367e-01 
3.067200000000e+06 4.250366918781e-01 
3.088800000000e+06 4.352309569186e-01 
3.110400000000e+06 4.454046233013e-01 
3.132000000000e+06 4.555511543417e-01 
3.153600000000e+06 4.656641913774e-01 
3.175200000000e+06 4.757375611845e-01 
3.196800000000e+06 4.857652825736e-01 
3.218400000000e+06 4.957415721863e-01 
3.240000000000e+06 5.056608495130e-01 
3.261600000000e+06 5.155177411543e-01 
3.283200000000e+06 5.253070843507e-01 
3.304800000000e+06 5.350239298085e-01 
3.326400000000e+06 5.446635438470e-01 
3.348000000000e+06 5.542214098977e-01 
3.369600000000e+06 5.636932293830e-01 
3.391200000000e+06 5.730749220064e-01 
3.412800000000e+06 5.823626254831e-01 
3.434400000000e+06 5.915526947420e-01 
3.456000000000e+06 6.006417006307e-01 
3.477600000000e+06 6.096264281536e-01 
3.499200000000e+06 6.185038742741e-01 
3.520800000000e+06 6.272712453107e-01 
3.542400000000e+06 6.359259539576e-01 
3.564000000000e+06 6.444656159589e-01 
3.585600000000e+06 6.528880464651e-01 
3.607200000000e+06 6.611912561006e-01 
3.628800000000e+06 6.693734467682e-01 
3.650400000000e+06 6.774330072194e-01 
3.672000000000e+06 6.853685084138e-01 
3.693600000000e+06 6.931786986940e-01 
3.715200000000e+06 7.008624987995e-01 
3.736800000000e+06 7.084189967419e-01 
3.758400000000e+06 7.158474425640e-01 
3.780000000000e+06 7.231472430033e-01 
3.801600000000e+06 7.303179560795e-01 
3.823200000000e+06 7.373592856257e-01 
3.844800000000e+06 7.442710757801e-01 
3.866400000000e+06 7.510533054550e-01 
3.888000000000e+06 7.577060828004e-01 
3.909600000000e+06 7.642296396742e-01 
3.931200000000e+06 7.706243261359e-01 
3.952800000000e+06 7.768906049742e-01 
3.974400000000e+06 7.830290462816e-01 
3.996000000000e+06 7.890403220865e-01 
4.017600000000e+06 7.949252010534e-01 
4.039200000000e+06 8.006845432596e-01 
4.060800000000e+06 8.063192950582e-01 
4.082400000000e+06 8.118304840327e-01 
4.104000000000e+06 8.172192140528e-01 
4.125600000000e+06 8.224866604354e-01 
4.147200000000e+06 8.276340652169e-01 
4.168800000000e+06 8.326627325421e-01 
4.190400000000e+06 8.375740241723e-01 
4.212000000000e+06 8.423693551178e-01 
4.233600000000e+06 8.470501893966e-01 
4.255200000000e+06 8.516180359216e-01 
4.276800000000e+06 8.560744445192e-01 
4.298400000000e+06 8.604210020793e-01 
4.320000000000e+06 8.646593288385e-01 
4.341600000000e+06 8.687910747965e-01 
4.363200000000e+06 8.728179162670e-01 
4.384800000000e+06 8.767415525602e-01 
4.406400000000e+06 8.805637027997e-01 
4.428000000000e+06 8.842861028698e-01 
4.449600000000e+06 8.879105024946e-01 
4.471200000000e+06 8.914386624452e-01 
4.492800000000e+06 8.948723518748e-01 
4.514400000000e+06 8.982133457795e-01 
4.536000000000e+06 9.014634225819e-01 
4.557600000000e+06 9.046243618366e-01 
4.579200000000e+06 9.076979420537e-01 
4.600800000000e+06 9.106859386390e-01 
4.622400000000e+06 9.135901219474e-01 
4.644000000000e+06 9.164122554469e-01 
4.665600000000e+06 9.191540939906e-01 
4.687200000000e+06 9.218173821934e-01 
4.708800000000e+06 9.244038529104e-01 
4.730400000000e+06 9.269152258145e-01 
4.752000000000e+06 9.293532060692e-01 
4.773600000000e+06 9.317194830946e-01 
4.795200000000e+06 9.340157294221e-01 
4.816800000000e+06 9.362435996360e-01 
4.838400000000e+06 9.384047293982e-01 
4.860000000000e+06 9.405007345527e-01 
4.881600000000e+06 9.425332103077e-01 
4.903200000000e+06 9.445037304912e-01 
4.924800000000e+06 9.464138468773e-01 
4.946400000000e+06 9.482650885815e-01 
4.968000000000e+06 9.500589615197e-01 
4.989600000000e+06 9.517969479302e-01 
5.011200000000e+06 9.534805059549e-01 
5.032800000000e+06 9.551110692762e-01 
5.054400000000e+06 9.566900468090e-01 
5.076000000000e+06 9.582188224427e-01 
5.097600000000e+06 9.596987548318e-01 
5.119200000000e+06 9.611311772337e-01 
5.140800000000e+06 9.625173973882e-01 
5.162400000000e+06 9.638586974396e-01 
5.184000000000e+06 9.651563338967e-01 
5.205600000000e+06 9.664115376304e-01 
5.227200000000e+06 9.676255139040e-01 
5.248800000000e+06 9.687994424380e-01 
5.270400000000e+06 9.699344775028e-01 
5.292000000000e+06 9.710317480420e-01 
5.313600000000e+06 9.720923578198e-01 
5.335200000000e+06 9.731173855951e-01 
5.356800000000e+06 9.741078853169e-01 
5.378400000000e+06 9.750648863413e-01 
5.400000000000e+06 9.759893936685e-01 
5.421600000000e+06 9.768823881973e-01 
5.443200000000e+06 9.777448269957e-01 
5.464800000000e+06 9.785776435877e-01 
5.486400000000e+06 9.793817482529e-01 
5.508000000000e+06 9.801580283388e-01 
5.529600000000e+06 9.809073485844e-01 
5.551200000000e+06 9.816305514537e-01 
5.572800000000e+06 9.823284574784e-01 
5.594400000000e+06 9.830018656079e-01 
5.616000000000e+06 9.836515535668e-01 
5.637600000000e+06 9.842782782179e-01 
5.659200000000e+06 9.848827759303e-01 
5.680800000000e+06 9.854657629517e-01 
5.702400000000e+06 9.860279357839e-01 
5.724000000000e+06 9.865699715613e-01 
5.745600000000e+06 9.870925284304e-01 
5.767200000000e+06 9.875962459318e-01 
5.788800000000e+06 9.880817453815e-01 
5.810400000000e+06 9.885496302529e-01 
5.832000000000e+06 9.890004865582e-01 
5.853600000000e+06 9.894348832285e-01 
5.875200000000e+06 9.898533724924e-01 
5.896800000000e+06 9.902564902525e-01 
5.918400000000e+06 9.906447564602e-01 
5.940000000000e+06 9.910186754863e-01 
5.961600000000e+06 9.913787364898e-01 
5.983200000000e+06 9.917254137825e-01 
6.004800000000e+06 9.920591671900e-01 
6.026400000000e+06 9.923804424088e-01 
6.048000000000e+06 9.926896713586e-01 
6.069600000000e+06 9.929872725309e-01 
6.091200000000e+06 9.932736513321e-01 
6.112800000000e+06 9.935492004220e-01 
6.134400000000e+06 9.938143000473e-01 
6.156000000000e+06 9.940693183697e-01 
6.177600000000e+06 9.943146117891e-01 
6.199200000000e+06 9.945505252605e-01 
6.220800000000e+06 9.947773926063e-01 
6.242400000000e+06 9.949955368222e-01 
6.264000000000e+06 9.952052703780e-01 
6.285600000000e+06 9.954068955126e-01 
6.307200000000e+06 9.956007045225e-01 
6.328800000000e+06 9.957869800455e-01 
6.350400000000e+06 9.959659953377e-01 
6.372000000000e+06 9.961380145456e-01 
6.393600000000e+06 9.963032929715e-01 
6.415200000000e+06 9.964620773334e-01 
6.436800000000e+06 9.966146060192e-01 
6.458400000000e+06 9.967611093353e-01 
6.480000000000e+06 9.969018097488e-01 
6.501600000000e+06 9.970369221248e-01 
6.523200000000e+06 9.971666539576e-01 
6.544800000000e+06 9.972912055961e-01 
6.566400000000e+06 9.974107704644e-01 
6.588000000000e+06 9.975255352761e-01 
6.609600000000e+06 9.976356802439e-01 
6.631200000000e+06 9.977413792831e-01 
6.652800000000e+06 9.978428002105e-01 
6.674400000000e+06 9.979401049378e-01 
6.696000000000e+06 9.980334496600e-01 
6.717600000000e+06 9.981229850386e-01 
6.739200000000e+06 9.982088563798e-01 
6.760800000000e+06 9.982912038083e-01 
6.782400000000e+06 9.983701624357e-01 
6.804000000000e+06 9.984458625247e-01 
6.825600000000e+06 9.985184296482e-01 
6.847200000000e+06 9.985879848444e-01 
6.868800000000e+06 9.986546447673e-01 
6.890400000000e+06 9.987185218327e-01 
6.912000000000e+06 9.987797243598e-01 
6.933600000000e+06 9.988383567094e-01 
6.955200000000e+06 9.988945194172e-01 
6.976800000000e+06 9.989483093235e-01 
6.998400000000e+06 9.989998196991e-01 
7.020000000000e+06 9.990491403672e-01 
7.041600000000e+06 9.990963578216e-01 
7.063200000000e+06 9.991415553416e-01 
7.084800000000e+06 9.991848131027e-01 
7.106400000000e+06 9.992262082849e-01 
7.128000000000e+06 9.992658151766e-01 
7.149600000000e+06 9.993037052756e-01 
7.171200000000e+06 9.993399473874e-01 
7.192800000000e+06 9.993746077195e-01 
7.214400000000e+06 9.994077499736e-01 
7.236000000000e+06 9.994394354340e-01 
7.257600000000e+06 9.994697230538e-01 
7.279200000000e+06 9.994986695380e-01 
7.300800000000e+06 9.995263294238e-01 
7.322400000000e+06 9.995527551586e-01 
7.344000000000e+06 9.995779971754e-01 
7.365600000000e+06 9.996021039651e-01 
7.387200000000e+06 9.996251221472e-01 
7.408800000000e+06 9.996470965379e-01 
7.430400000000e+06 9.996680702154e-01 
7.452000000000e+06 9.996880845838e-01 
7.473600000000e+06 9.997071794344e-01 
7.495200000000e+06 9.997253930047e-01 
7.516800000000e+06 9.997427620361e-01 
7.538400000000e+06 9.997593218289e-01 
7.560000000000e+06 9.997751062958e-01 
7.581600000000e+06 9.997901480135e-01 
7.603200000000e+06 9.998044782722e-01 
7.624800000000e+06 9.998181271242e-01 
7.646400000000e+06 9.998311234298e-01 
7.668000000000e+06 9.998434949021e-01 
7.689600000000e+06 9.998552681503e-01 
7.711200000000e+06 9.998664687215e-01 
7.732800000000e+06 9.998771211405e-01 
7.754400000000e+06 9.998872489488e-01 
7.776000000000e+06 9.998968747419e-01 
7.797600000000e+06 9.999060202056e-01 
7.819200000000e+06 9.999147061501e-01 
7.840800000000e+06 9.999229525443e-01 
7.862400000000e+06 9.999307785474e-01 
7.884000000000e+06 9.999382025405e-01 
7.905600000000e+06 9.999452421564e-01 
7.927200000000e+06 9.999519143083e-01 
7.948800000000e+06 9.999582352183e-01 
7.970400000000e+06 9.999642204433e-01 
7.992000000000e+06 9.999698849016e-01 
8.013600000000e+06 9.999752428974e-01 
8.035200000000e+06 9.999803081451e-01 
8.056800000000e+06 9.999850937920e-01 
8.078400000000e+06 9.999896124406e-01 
8.100000000000e+06 9.999938761703e-01 
8.121600000000e+06 9.999978965579e-01 
8.143200000000e+06 1.000001684697e+00 
8.164800000000e+06 1.000005251218e+00 
8.186400000000e+06 1.000008606305e+00 
8.208000000000e+06 1.000011759715e+00 
8.229600000000e+06 1.000014720795e+00 
8.251200000000e+06 1.000017498496e+00 
8.272800000000e+06 1.000020101393e+00 
8.294400000000e+06 1.000022537693e+00 
8.316000000000e+06 1.000024815260e+00 
8.337600000000e+06 1.000026941618e+00 
8.359200000000e+06 1.000028923974e+00 
8.380800000000e+06 1.000030769222e+00 
8.402400000000e+06 1.000032483965e+00 
8.424000000000e+06 1.000034074518e+00 
8.445600000000e+06 1.000035546925e+00 
8.467200000000e+06 1.000036906970e+00 
8.488800000000e+06 1.000038160184e+00 
8.510400000000e+06 1.000039311859e+00 
8.532000000000e+06 1.000040367056e+00 
8.553600000000e+06 1.000041330615e+00 
8.575200000000e+06 1.000042207163e+00 
8.596800000000e+06 1.000043001125e+00 
8.618400000000e+06 1.000043716729e+00 
8.640000000000e+06 1.000044358018e+00 
8.661600000000e+06 1.000044928856e+00 
8.683200000000e+06 1.000045432932e+00 
8.704800000000e+06 1.000045873775e+00 
8.726400000000e+06 1.000046254751e+00 
8.748000000000e+06 1.000046579080e+00 
8.769600000000e+06 1.000046849834e+00 
8.791200000000e+06 1.000047069946e+00 
8.812800000000e+06 1.000047242217e+00 
8.834400000000e+06 1.000047369320e+00 
8.856000000000e+06 1.000047453807e+00 
8.877600000000e+06 1.000047498112e+00 
8.899200000000e+06 1.000047504557e+00 
8.920800000000e+06 1.000047475358e+00 
8.942400000000e+06 1.000047412626e+00 
8.964000000000e+06 1.000047318377e+00 
8.985600000000e+06 1.000047194530e+00 
9.007200000000e+06 1.000047042915e+00 
9.028800000000e+06 1.000046865275e+00 
9.050400000000e+06 1.000046663273e+00 
9.072000000000e+06 1.000046438490e+00 
9.093600000000e+06 1.000046192433e+00 
9.115200000000e+06 1.000045926537e+00 
9.136800000000e+06 1.000045642166e+00 
9.158400000000e+06 1.000045340619e+00 
9.180000000000e+06 1.000045023133e+00 
9.201600000000e+06 1.000044690882e+00 
9.223200000000e+06 1.000044344985e+00 
9.244800000000e+06 1.000043986502e+00 
9.266400000000e+06 1.000043616443e+00 
9.288000000000e+06 1.000043235766e+00 
9.309600000000e+06 1.000042845382e+00 
9.331200000000e+06 1.000042446155e+00 
9.352800000000e+06 1.000042038904e+00 
9.374400000000e+06 1.000041624407e+00 
9.396000000000e+06 1.000041203401e+00 
9.417600000000e+06 1.000040776586e+00 
9.439200000000e+06 1.000040344622e+00 
9.460800000000e+06 1.000039908138e+00 
9.482400000000e+06 1.000039467726e+00 
9.504000000000e+06 1.000039023948e+00 
9.525600000000e+06 1.000038577335e+00 
9.547200000000e+06 1.000038128388e+00 
9.568800000000e+06 1.000037677581e+00 
9.590400000000e+06 1.000037225362e+00 
9.612000000000e+06 1.000036772152e+00 
9.633600000000e+06 1.000036318350e+00 
9.655200000000e+06 1.000035864330e+00 
9.676800000000e+06 1.000035410445e+00 
9.698400000000e+06 1.000034957026e+00 
9.720000000000e+06 1.000034504387e+00 
9.741600000000e+06 1.000034052819e+00 
9.763200000000e+06 1.000033602597e+00 
9.784800000000e+06 1.000033153980e+00 
9.806400000000e+06 1.000032707208e+00 
9.828000000000e+06 1.000032262506e+00 
9.849600000000e+06 1.000031820085e+00 
9.871200000000e+06 1.000031380142e+00 
9.892800000000e+06 1.000030942859e+00 
9.914400000000e+06 1.000030508407e+00 
9.936000000000e+06 1.000030076943e+00 
9.957600000000e+06 1.000029648613e+00 
9.979200000000e+06 1.000029223553e+00 
1.000080000000e+07 1.000028801888e+00 
1.002240000000e+07 1.000028383733e+00 
1.004400000000e+07 1.000027969191e+00 
1.006560000000e+07 1.000027558362e+00 
1.008720000000e+07 1.000027151331e+00 
1.010880000000e+07 1.000026748179e+00 
1.013040000000e+07 1.000026348977e+00 
1.015200000000e+07 1.000025953792e+00 
1.017360000000e+07 1.000025562681e+00 
1.019520000000e+07 1.000025175695e+00 
1.021680000000e+07 1.000024792879e+00 
1.023840000000e+07 1.000024414274e+00 
1.026000000000e+07 1.000024039913e+00 
1.028160000000e+07 1.000023669825e+00 
1.030320000000e+07 1.000023304034e+00 
1.032480000000e+07 1.000022942559e+00 
1.034640000000e+07 1.000022585414e+00 
1.036800000000e+07 1.000022232611e+00 
1.038960000000e+07 1.000021884155e+00 
1.041120000000e+07 1.000021540051e+00 
1.043280000000e+07 1.000021200298e+00 
1.045440000000e+07 1.000020864892e+00 
1.047600000000e+07 1.000020533826e+00 
1.049760000000e+07 1.000020207090e+00 
1.051920000000e+07 1.000019884673e+00 
1.054080000000e+07 1.000019566560e+00 
1.056240000000e+07 1.000019252733e+00 
1.058400000000e+07 1.000018943173e+00 
1.060560000000e+07 1.000018637859e+00 
1.062720000000e+07 1.000018336766e+00 
1.064880000000e+07 1.000018039871e+00 
1.067040000000e+07 1.000017747146e+00 
1.069200000000e+07 1.000017458562e+00 
1.071360000000e+07 1.000017174090e+00 
1.073520000000e+07 1.000016893699e+00 
1.075680000000e+07 1.000016617356e+00 
1.077840000000e+07 1.000016345028e+00 
1.080000000000e+07 1.000016076681e+00 
