 TITLE = "Profiles along polylines"
 VARIABLES = "DIST" "PRESSURE1" "SATURATION1" "SATURATION2" 
 ZONE T="TIME=0.000000000000e+00"
0.000000000000e+00 9.806700000000e+04 1.000000000000e+00 0.000000000000e+00 
3.333333333333e-01 9.806700000000e+04 1.000000000000e+00 0.000000000000e+00 
6.666666666667e-01 9.806700000000e+04 1.000000000000e+00 0.000000000000e+00 
1.000000000000e+00 9.806700000000e+04 1.000000000000e+00 0.000000000000e+00 
1.333333333333e+00 9.806700000000e+04 1.000000000000e+00 0.000000000000e+00 
1.666666666667e+00 9.806700000000e+04 1.000000000000e+00 0.000000000000e+00 
2.000000000000e+00 9.806700000000e+04 1.000000000000e+00 0.000000000000e+00 
2.333333333333e+00 9.806700000000e+04 1.000000000000e+00 0.000000000000e+00 
2.666666666667e+00 9.806700000000e+04 1.000000000000e+00 0.000000000000e+00 
3.000000000000e+00 9.806700000000e+04 1.000000000000e+00 0.000000000000e+00 
3.333333333333e+00 9.806700000000e+04 1.000000000000e+00 0.000000000000e+00 
3.666666666667e+00 9.806700000000e+04 1.000000000000e+00 0.000000000000e+00 
4.000000000000e+00 9.806700000000e+04 1.000000000000e+00 0.000000000000e+00 
4.333333333333e+00 9.806700000000e+04 1.000000000000e+00 0.000000000000e+00 
4.666666666667e+00 9.806700000000e+04 1.000000000000e+00 0.000000000000e+00 
5.000000000000e+00 9.806700000000e+04 8.999977480000e-01 1.000022520000e-01 
5.333333333333e+00 9.806700000000e+04 8.999977480000e-01 1.000022520000e-01 
5.666666666667e+00 9.806700000000e+04 8.999977480000e-01 1.000022520000e-01 
6.000000000000e+00 9.806700000000e+04 8.999977480000e-01 1.000022520000e-01 
6.333333333333e+00 9.806700000000e+04 8.999977480000e-01 1.000022520000e-01 
6.666666666667e+00 9.806700000000e+04 8.999977480000e-01 1.000022520000e-01 
7.000000000000e+00 9.806700000000e+04 8.999977480000e-01 1.000022520000e-01 
7.333333333333e+00 9.806700000000e+04 8.999977480000e-01 1.000022520000e-01 
7.666666666667e+00 9.806700000000e+04 8.999977480000e-01 1.000022520000e-01 
8.000000000000e+00 9.806700000000e+04 8.999977480000e-01 1.000022520000e-01 
8.333333333333e+00 9.806700000000e+04 8.999977480000e-01 1.000022520000e-01 
8.666666666667e+00 9.806700000000e+04 8.999977480000e-01 1.000022520000e-01 
9.000000000000e+00 9.806700000000e+04 8.999977480000e-01 1.000022520000e-01 
9.333333333333e+00 9.806700000000e+04 8.999977480000e-01 1.000022520000e-01 
9.666666666667e+00 9.806700000000e+04 8.999977480000e-01 1.000022520000e-01 
1.000000000000e+01 9.806700000000e+04 8.999977480000e-01 1.000022520000e-01 
1.033333333333e+01 9.806700000000e+04 8.999977480000e-01 1.000022520000e-01 
1.066666666667e+01 9.806700000000e+04 1.000000000000e+00 0.000000000000e+00 
1.100000000000e+01 9.806700000000e+04 1.000000000000e+00 0.000000000000e+00 
1.133333333333e+01 9.806700000000e+04 1.000000000000e+00 0.000000000000e+00 
1.166666666667e+01 9.806700000000e+04 1.000000000000e+00 0.000000000000e+00 
1.200000000000e+01 9.806700000000e+04 1.000000000000e+00 0.000000000000e+00 
1.233333333333e+01 9.806700000000e+04 1.000000000000e+00 0.000000000000e+00 
1.266666666667e+01 9.806700000000e+04 1.000000000000e+00 0.000000000000e+00 
1.300000000000e+01 9.806700000000e+04 1.000000000000e+00 0.000000000000e+00 
1.333333333333e+01 9.806700000000e+04 1.000000000000e+00 0.000000000000e+00 
1.366666666667e+01 9.806700000000e+04 1.000000000000e+00 0.000000000000e+00 
1.400000000000e+01 9.806700000000e+04 1.000000000000e+00 0.000000000000e+00 
1.433333333333e+01 9.806700000000e+04 1.000000000000e+00 0.000000000000e+00 
1.466666666667e+01 9.806700000000e+04 1.000000000000e+00 0.000000000000e+00 
1.500000000000e+01 9.806700000000e+04 1.000000000000e+00 0.000000000000e+00 
1.533333333333e+01 9.806700000000e+04 1.000000000000e+00 0.000000000000e+00 
1.566666666667e+01 9.806700000000e+04 1.000000000000e+00 0.000000000000e+00 
1.600000000000e+01 9.806700000000e+04 1.000000000000e+00 0.000000000000e+00 
1.633333333333e+01 9.806700000000e+04 1.000000000000e+00 0.000000000000e+00 
1.666666666667e+01 9.806700000000e+04 1.000000000000e+00 0.000000000000e+00 
1.700000000000e+01 9.806700000000e+04 1.000000000000e+00 0.000000000000e+00 
1.733333333333e+01 9.806700000000e+04 1.000000000000e+00 0.000000000000e+00 
1.766666666667e+01 9.806700000000e+04 1.000000000000e+00 0.000000000000e+00 
1.800000000000e+01 9.806700000000e+04 1.000000000000e+00 0.000000000000e+00 
1.833333333333e+01 9.806700000000e+04 1.000000000000e+00 0.000000000000e+00 
1.866666666667e+01 9.806700000000e+04 1.000000000000e+00 0.000000000000e+00 
1.900000000000e+01 9.806700000000e+04 1.000000000000e+00 0.000000000000e+00 
1.933333333333e+01 9.806700000000e+04 1.000000000000e+00 0.000000000000e+00 
1.966666666667e+01 9.806700000000e+04 1.000000000000e+00 0.000000000000e+00 
2.000000000000e+01 9.806700000000e+04 1.000000000000e+00 0.000000000000e+00 
2.033333333333e+01 9.806700000000e+04 1.000000000000e+00 0.000000000000e+00 
2.066666666667e+01 9.806700000000e+04 1.000000000000e+00 0.000000000000e+00 
2.100000000000e+01 9.806700000000e+04 1.000000000000e+00 0.000000000000e+00 
2.133333333333e+01 9.806700000000e+04 1.000000000000e+00 0.000000000000e+00 
2.166666666667e+01 9.806700000000e+04 1.000000000000e+00 0.000000000000e+00 
2.200000000000e+01 9.806700000000e+04 1.000000000000e+00 0.000000000000e+00 
2.233333333333e+01 9.806700000000e+04 1.000000000000e+00 0.000000000000e+00 
2.266666666667e+01 9.806700000000e+04 1.000000000000e+00 0.000000000000e+00 
2.300000000000e+01 9.806700000000e+04 1.000000000000e+00 0.000000000000e+00 
2.333333333333e+01 9.806700000000e+04 1.000000000000e+00 0.000000000000e+00 
2.366666666667e+01 9.806700000000e+04 1.000000000000e+00 0.000000000000e+00 
2.400000000000e+01 9.806700000000e+04 1.000000000000e+00 0.000000000000e+00 
2.433333333333e+01 9.806700000000e+04 1.000000000000e+00 0.000000000000e+00 
2.466666666667e+01 9.806700000000e+04 1.000000000000e+00 0.000000000000e+00 
2.500000000000e+01 9.806700000000e+04 1.000000000000e+00 0.000000000000e+00 
2.533333333333e+01 9.806700000000e+04 1.000000000000e+00 0.000000000000e+00 
2.566666666667e+01 9.806700000000e+04 1.000000000000e+00 0.000000000000e+00 
2.600000000000e+01 9.806700000000e+04 1.000000000000e+00 0.000000000000e+00 
2.633333333333e+01 9.806700000000e+04 1.000000000000e+00 0.000000000000e+00 
2.666666666667e+01 9.806700000000e+04 1.000000000000e+00 0.000000000000e+00 
2.700000000000e+01 9.806700000000e+04 1.000000000000e+00 0.000000000000e+00 
2.733333333333e+01 9.806700000000e+04 1.000000000000e+00 0.000000000000e+00 
2.766666666667e+01 9.806700000000e+04 1.000000000000e+00 0.000000000000e+00 
2.800000000000e+01 9.806700000000e+04 1.000000000000e+00 0.000000000000e+00 
2.833333333333e+01 9.806700000000e+04 1.000000000000e+00 0.000000000000e+00 
2.866666666667e+01 9.806700000000e+04 1.000000000000e+00 0.000000000000e+00 
2.900000000000e+01 9.806700000000e+04 1.000000000000e+00 0.000000000000e+00 
2.933333333333e+01 9.806700000000e+04 1.000000000000e+00 0.000000000000e+00 
2.966666666667e+01 9.806700000000e+04 1.000000000000e+00 0.000000000000e+00 
3.000000000000e+01 9.806700000000e+04 1.000000000000e+00 0.000000000000e+00 
3.033333333333e+01 9.806700000000e+04 1.000000000000e+00 0.000000000000e+00 
3.066666666667e+01 9.806700000000e+04 1.000000000000e+00 0.000000000000e+00 
3.100000000000e+01 9.806700000000e+04 1.000000000000e+00 0.000000000000e+00 
3.133333333333e+01 9.806700000000e+04 1.000000000000e+00 0.000000000000e+00 
3.166666666667e+01 9.806700000000e+04 1.000000000000e+00 0.000000000000e+00 
3.200000000000e+01 9.806700000000e+04 1.000000000000e+00 0.000000000000e+00 
3.233333333333e+01 9.806700000000e+04 1.000000000000e+00 0.000000000000e+00 
3.266666666667e+01 9.806700000000e+04 1.000000000000e+00 0.000000000000e+00 
3.300000000000e+01 9.806700000000e+04 1.000000000000e+00 0.000000000000e+00 
3.333333333333e+01 9.806700000000e+04 1.000000000000e+00 0.000000000000e+00 
3.366666666667e+01 9.806700000000e+04 1.000000000000e+00 0.000000000000e+00 
3.400000000000e+01 9.806700000000e+04 1.000000000000e+00 0.000000000000e+00 
3.433333333333e+01 9.806700000000e+04 1.000000000000e+00 0.000000000000e+00 
3.466666666667e+01 9.806700000000e+04 1.000000000000e+00 0.000000000000e+00 
3.500000000000e+01 9.806700000000e+04 1.000000000000e+00 0.000000000000e+00 
3.533333333333e+01 9.806700000000e+04 1.000000000000e+00 0.000000000000e+00 
3.566666666667e+01 9.806700000000e+04 1.000000000000e+00 0.000000000000e+00 
3.600000000000e+01 9.806700000000e+04 1.000000000000e+00 0.000000000000e+00 
3.633333333333e+01 9.806700000000e+04 1.000000000000e+00 0.000000000000e+00 
3.666666666667e+01 9.806700000000e+04 1.000000000000e+00 0.000000000000e+00 
3.700000000000e+01 9.806700000000e+04 1.000000000000e+00 0.000000000000e+00 
3.733333333333e+01 9.806700000000e+04 1.000000000000e+00 0.000000000000e+00 
3.766666666667e+01 9.806700000000e+04 1.000000000000e+00 0.000000000000e+00 
3.800000000000e+01 9.806700000000e+04 1.000000000000e+00 0.000000000000e+00 
3.833333333333e+01 9.806700000000e+04 1.000000000000e+00 0.000000000000e+00 
3.866666666667e+01 9.806700000000e+04 1.000000000000e+00 0.000000000000e+00 
3.900000000000e+01 9.806700000000e+04 1.000000000000e+00 0.000000000000e+00 
3.933333333333e+01 9.806700000000e+04 1.000000000000e+00 0.000000000000e+00 
3.966666666667e+01 9.806700000000e+04 1.000000000000e+00 0.000000000000e+00 
4.000000000000e+01 9.806700000000e+04 1.000000000000e+00 0.000000000000e+00 
4.033333333333e+01 9.806700000000e+04 1.000000000000e+00 0.000000000000e+00 
4.066666666667e+01 9.806700000000e+04 1.000000000000e+00 0.000000000000e+00 
4.100000000000e+01 9.806700000000e+04 1.000000000000e+00 0.000000000000e+00 
4.133333333333e+01 9.806700000000e+04 1.000000000000e+00 0.000000000000e+00 
4.166666666667e+01 9.806700000000e+04 1.000000000000e+00 0.000000000000e+00 
4.200000000000e+01 9.806700000000e+04 1.000000000000e+00 0.000000000000e+00 
4.233333333333e+01 9.806700000000e+04 1.000000000000e+00 0.000000000000e+00 
4.266666666667e+01 9.806700000000e+04 1.000000000000e+00 0.000000000000e+00 
4.300000000000e+01 9.806700000000e+04 1.000000000000e+00 0.000000000000e+00 
4.333333333333e+01 9.806700000000e+04 1.000000000000e+00 0.000000000000e+00 
4.366666666667e+01 9.806700000000e+04 1.000000000000e+00 0.000000000000e+00 
4.400000000000e+01 9.806700000000e+04 1.000000000000e+00 0.000000000000e+00 
4.433333333333e+01 9.806700000000e+04 1.000000000000e+00 0.000000000000e+00 
4.466666666667e+01 9.806700000000e+04 1.000000000000e+00 0.000000000000e+00 
4.500000000000e+01 9.806700000000e+04 1.000000000000e+00 0.000000000000e+00 
4.533333333333e+01 9.806700000000e+04 1.000000000000e+00 0.000000000000e+00 
4.566666666667e+01 9.806700000000e+04 1.000000000000e+00 0.000000000000e+00 
4.600000000000e+01 9.806700000000e+04 1.000000000000e+00 0.000000000000e+00 
4.633333333333e+01 9.806700000000e+04 1.000000000000e+00 0.000000000000e+00 
4.666666666667e+01 9.806700000000e+04 1.000000000000e+00 0.000000000000e+00 
4.700000000000e+01 9.806700000000e+04 1.000000000000e+00 0.000000000000e+00 
4.733333333333e+01 9.806700000000e+04 1.000000000000e+00 0.000000000000e+00 
4.766666666667e+01 9.806700000000e+04 1.000000000000e+00 0.000000000000e+00 
4.800000000000e+01 9.806700000000e+04 1.000000000000e+00 0.000000000000e+00 
4.833333333333e+01 9.806700000000e+04 1.000000000000e+00 0.000000000000e+00 
4.866666666667e+01 9.806700000000e+04 1.000000000000e+00 0.000000000000e+00 
4.900000000000e+01 9.806700000000e+04 1.000000000000e+00 0.000000000000e+00 
4.933333333333e+01 9.806700000000e+04 1.000000000000e+00 0.000000000000e+00 
4.966666666667e+01 9.806700000000e+04 1.000000000000e+00 0.000000000000e+00 
5.000000000000e+01 9.806700000000e+04 1.000000000000e+00 0.000000000000e+00 
 TITLE = "Profiles along polylines"
 VARIABLES = "DIST" "PRESSURE1" "SATURATION1" "SATURATION2" 
 ZONE T="TIME=2.160000000000e+04"
0.000000000000e+00 9.810000000000e+04 1.000000000000e+00 0.000000000000e+00 
3.333333333333e-01 9.807033464147e+04 1.000000000000e+00 0.000000000000e+00 
6.666666666667e-01 9.804002580019e+04 1.000000000000e+00 0.000000000000e+00 
1.000000000000e+00 9.800950069268e+04 1.000000000000e+00 0.000000000000e+00 
1.333333333333e+00 9.797890242800e+04 1.000000000000e+00 0.000000000000e+00 
1.666666666667e+00 9.794827953919e+04 1.000000000000e+00 0.000000000000e+00 
2.000000000000e+00 9.791764896789e+04 1.000000000000e+00 0.000000000000e+00 
2.333333333333e+00 9.788701731456e+04 1.000000000000e+00 0.000000000000e+00 
2.666666666667e+00 9.785638835426e+04 1.000000000000e+00 0.000000000000e+00 
3.000000000000e+00 9.782576625792e+04 1.000000000000e+00 0.000000000000e+00 
3.333333333333e+00 9.779515797089e+04 1.000000000000e+00 0.000000000000e+00 
3.666666666667e+00 9.776457647977e+04 1.000000000000e+00 0.000000000000e+00 
4.000000000000e+00 9.773404664662e+04 1.000000000000e+00 0.000000000000e+00 
4.333333333333e+00 9.770361628058e+04 1.000000000000e+00 0.000000000000e+00 
4.666666666667e+00 9.767337739415e+04 1.000000000000e+00 0.000000000000e+00 
5.000000000000e+00 9.763296217452e+04 8.999977480000e-01 1.000022520000e-01 
5.333333333333e+00 9.758454336963e+04 8.999977480000e-01 1.000022520000e-01 
5.666666666667e+00 9.753584069412e+04 8.999977480000e-01 1.000022520000e-01 
6.000000000000e+00 9.748699050801e+04 8.999977480000e-01 1.000022520000e-01 
6.333333333333e+00 9.743806361098e+04 8.999977480000e-01 1.000022520000e-01 
6.666666666667e+00 9.738909670900e+04 8.999977480000e-01 1.000022520000e-01 
7.000000000000e+00 9.734010872800e+04 8.999977480000e-01 1.000022520000e-01 
7.333333333333e+00 9.729110922552e+04 8.999977480000e-01 1.000022520000e-01 
7.666666666667e+00 9.724210263839e+04 8.999977480000e-01 1.000022520000e-01 
8.000000000000e+00 9.719309025474e+04 8.999977480000e-01 1.000022520000e-01 
8.333333333333e+00 9.714407078644e+04 8.999977480000e-01 1.000022520000e-01 
8.666666666667e+00 9.709503979665e+04 8.999977480000e-01 1.000022520000e-01 
9.000000000000e+00 9.704598772787e+04 8.999977480000e-01 1.000022520000e-01 
9.333333333333e+00 9.699689565413e+04 8.999977480000e-01 1.000022520000e-01 
9.666666666667e+00 9.694772686950e+04 8.999977480000e-01 1.000022520000e-01 
1.000000000000e+01 9.689841057433e+04 8.999977480000e-01 1.000022520000e-01 
1.033333333333e+01 9.684881040870e+04 8.999977480000e-01 1.000022520000e-01 
1.066666666667e+01 9.681251263688e+04 1.000000000000e+00 0.000000000000e+00 
1.100000000000e+01 9.678147674752e+04 1.000000000000e+00 0.000000000000e+00 
1.133333333333e+01 9.675063234024e+04 1.000000000000e+00 0.000000000000e+00 
1.166666666667e+01 9.671988740671e+04 1.000000000000e+00 0.000000000000e+00 
1.200000000000e+01 9.668919414918e+04 1.000000000000e+00 0.000000000000e+00 
1.233333333333e+01 9.665852773703e+04 1.000000000000e+00 0.000000000000e+00 
1.266666666667e+01 9.662787527088e+04 1.000000000000e+00 0.000000000000e+00 
1.300000000000e+01 9.659723004960e+04 1.000000000000e+00 0.000000000000e+00 
1.333333333333e+01 9.656658859199e+04 1.000000000000e+00 0.000000000000e+00 
1.366666666667e+01 9.653594908957e+04 1.000000000000e+00 0.000000000000e+00 
1.400000000000e+01 9.650531060287e+04 1.000000000000e+00 0.000000000000e+00 
1.433333333333e+01 9.647467264382e+04 1.000000000000e+00 0.000000000000e+00 
1.466666666667e+01 9.644403495889e+04 1.000000000000e+00 0.000000000000e+00 
1.500000000000e+01 9.641339741637e+04 1.000000000000e+00 0.000000000000e+00 
1.533333333333e+01 9.638275994782e+04 1.000000000000e+00 0.000000000000e+00 
1.566666666667e+01 9.635212251770e+04 1.000000000000e+00 0.000000000000e+00 
1.600000000000e+01 9.632148510755e+04 1.000000000000e+00 0.000000000000e+00 
1.633333333333e+01 9.629084770778e+04 1.000000000000e+00 0.000000000000e+00 
1.666666666667e+01 9.626021031340e+04 1.000000000000e+00 0.000000000000e+00 
1.700000000000e+01 9.622957292182e+04 1.000000000000e+00 0.000000000000e+00 
1.733333333333e+01 9.619893553170e+04 1.000000000000e+00 0.000000000000e+00 
1.766666666667e+01 9.616829814234e+04 1.000000000000e+00 0.000000000000e+00 
1.800000000000e+01 9.613766075337e+04 1.000000000000e+00 0.000000000000e+00 
1.833333333333e+01 9.610702336461e+04 1.000000000000e+00 0.000000000000e+00 
1.866666666667e+01 9.607638597595e+04 1.000000000000e+00 0.000000000000e+00 
1.900000000000e+01 9.604574858736e+04 1.000000000000e+00 0.000000000000e+00 
1.933333333333e+01 9.601511119880e+04 1.000000000000e+00 0.000000000000e+00 
1.966666666667e+01 9.598447381025e+04 1.000000000000e+00 0.000000000000e+00 
2.000000000000e+01 9.595383642173e+04 1.000000000000e+00 0.000000000000e+00 
2.033333333333e+01 9.592319903322e+04 1.000000000000e+00 0.000000000000e+00 
2.066666666667e+01 9.589256164471e+04 1.000000000000e+00 0.000000000000e+00 
2.100000000000e+01 9.586192425621e+04 1.000000000000e+00 0.000000000000e+00 
2.133333333333e+01 9.583128686772e+04 1.000000000000e+00 0.000000000000e+00 
2.166666666667e+01 9.580064947923e+04 1.000000000000e+00 0.000000000000e+00 
2.200000000000e+01 9.577001209074e+04 1.000000000000e+00 0.000000000000e+00 
2.233333333333e+01 9.573937470226e+04 1.000000000000e+00 0.000000000000e+00 
2.266666666667e+01 9.570873731379e+04 1.000000000000e+00 0.000000000000e+00 
2.300000000000e+01 9.567809992532e+04 1.000000000000e+00 0.000000000000e+00 
2.333333333333e+01 9.564746253686e+04 1.000000000000e+00 0.000000000000e+00 
2.366666666667e+01 9.561682514842e+04 1.000000000000e+00 0.000000000000e+00 
2.400000000000e+01 9.558618775998e+04 1.000000000000e+00 0.000000000000e+00 
2.433333333333e+01 9.555555037156e+04 1.000000000000e+00 0.000000000000e+00 
2.466666666667e+01 9.552491298314e+04 1.000000000000e+00 0.000000000000e+00 
2.500000000000e+01 9.549427559473e+04 1.000000000000e+00 0.000000000000e+00 
2.533333333333e+01 9.546363820633e+04 1.000000000000e+00 0.000000000000e+00 
2.566666666667e+01 9.543300081793e+04 1.000000000000e+00 0.000000000000e+00 
2.600000000000e+01 9.540236342955e+04 1.000000000000e+00 0.000000000000e+00 
2.633333333333e+01 9.537172604117e+04 1.000000000000e+00 0.000000000000e+00 
2.666666666667e+01 9.534108865280e+04 1.000000000000e+00 0.000000000000e+00 
2.700000000000e+01 9.531045126445e+04 1.000000000000e+00 0.000000000000e+00 
2.733333333333e+01 9.527981387611e+04 1.000000000000e+00 0.000000000000e+00 
2.766666666667e+01 9.524917648778e+04 1.000000000000e+00 0.000000000000e+00 
2.800000000000e+01 9.521853909947e+04 1.000000000000e+00 0.000000000000e+00 
2.833333333333e+01 9.518790171117e+04 1.000000000000e+00 0.000000000000e+00 
2.866666666667e+01 9.515726432287e+04 1.000000000000e+00 0.000000000000e+00 
2.900000000000e+01 9.512662693459e+04 1.000000000000e+00 0.000000000000e+00 
2.933333333333e+01 9.509598954632e+04 1.000000000000e+00 0.000000000000e+00 
2.966666666667e+01 9.506535215807e+04 1.000000000000e+00 0.000000000000e+00 
3.000000000000e+01 9.503471476982e+04 1.000000000000e+00 0.000000000000e+00 
3.033333333333e+01 9.500407738159e+04 1.000000000000e+00 0.000000000000e+00 
3.066666666667e+01 9.497343999337e+04 1.000000000000e+00 0.000000000000e+00 
3.100000000000e+01 9.494280260517e+04 1.000000000000e+00 0.000000000000e+00 
3.133333333333e+01 9.491216521699e+04 1.000000000000e+00 0.000000000000e+00 
3.166666666667e+01 9.488152782881e+04 1.000000000000e+00 0.000000000000e+00 
3.200000000000e+01 9.485089044066e+04 1.000000000000e+00 0.000000000000e+00 
3.233333333333e+01 9.482025305251e+04 1.000000000000e+00 0.000000000000e+00 
3.266666666667e+01 9.478961566438e+04 1.000000000000e+00 0.000000000000e+00 
3.300000000000e+01 9.475897827627e+04 1.000000000000e+00 0.000000000000e+00 
3.333333333333e+01 9.472834088817e+04 1.000000000000e+00 0.000000000000e+00 
3.366666666667e+01 9.469770350008e+04 1.000000000000e+00 0.000000000000e+00 
3.400000000000e+01 9.466706611201e+04 1.000000000000e+00 0.000000000000e+00 
3.433333333333e+01 9.463642872395e+04 1.000000000000e+00 0.000000000000e+00 
3.466666666667e+01 9.460579133591e+04 1.000000000000e+00 0.000000000000e+00 
3.500000000000e+01 9.457515394789e+04 1.000000000000e+00 0.000000000000e+00 
3.533333333333e+01 9.454451655988e+04 1.000000000000e+00 0.000000000000e+00 
3.566666666667e+01 9.451387917189e+04 1.000000000000e+00 0.000000000000e+00 
3.600000000000e+01 9.448324178391e+04 1.000000000000e+00 0.000000000000e+00 
3.633333333333e+01 9.445260439595e+04 1.000000000000e+00 0.000000000000e+00 
3.666666666667e+01 9.442196700800e+04 1.000000000000e+00 0.000000000000e+00 
3.700000000000e+01 9.439132962006e+04 1.000000000000e+00 0.000000000000e+00 
3.733333333333e+01 9.436069223214e+04 1.000000000000e+00 0.000000000000e+00 
3.766666666667e+01 9.433005484424e+04 1.000000000000e+00 0.000000000000e+00 
3.800000000000e+01 9.429941745636e+04 1.000000000000e+00 0.000000000000e+00 
3.833333333333e+01 9.426878006849e+04 1.000000000000e+00 0.000000000000e+00 
3.866666666667e+01 9.423814268063e+04 1.000000000000e+00 0.000000000000e+00 
3.900000000000e+01 9.420750529279e+04 1.000000000000e+00 0.000000000000e+00 
3.933333333333e+01 9.417686790496e+04 1.000000000000e+00 0.000000000000e+00 
3.966666666667e+01 9.414623051714e+04 1.000000000000e+00 0.000000000000e+00 
4.000000000000e+01 9.411559312933e+04 1.000000000000e+00 0.000000000000e+00 
4.033333333333e+01 9.408495574154e+04 1.000000000000e+00 0.000000000000e+00 
4.066666666667e+01 9.405431835377e+04 1.000000000000e+00 0.000000000000e+00 
4.100000000000e+01 9.402368096601e+04 1.000000000000e+00 0.000000000000e+00 
4.133333333333e+01 9.399304357827e+04 1.000000000000e+00 0.000000000000e+00 
4.166666666667e+01 9.396240619054e+04 1.000000000000e+00 0.000000000000e+00 
4.200000000000e+01 9.393176880282e+04 1.000000000000e+00 0.000000000000e+00 
4.233333333333e+01 9.390113141510e+04 1.000000000000e+00 0.000000000000e+00 
4.266666666667e+01 9.387049402740e+04 1.000000000000e+00 0.000000000000e+00 
4.300000000000e+01 9.383985663971e+04 1.000000000000e+00 0.000000000000e+00 
4.333333333333e+01 9.380921925202e+04 1.000000000000e+00 0.000000000000e+00 
4.366666666667e+01 9.377858186434e+04 1.000000000000e+00 0.000000000000e+00 
4.400000000000e+01 9.374794447667e+04 1.000000000000e+00 0.000000000000e+00 
4.433333333333e+01 9.371730708900e+04 1.000000000000e+00 0.000000000000e+00 
4.466666666667e+01 9.368666970129e+04 1.000000000000e+00 0.000000000000e+00 
4.500000000000e+01 9.365603231346e+04 1.000000000000e+00 0.000000000000e+00 
4.533333333333e+01 9.362539492531e+04 1.000000000000e+00 0.000000000000e+00 
4.566666666667e+01 9.359475753625e+04 1.000000000000e+00 0.000000000000e+00 
4.600000000000e+01 9.356412014476e+04 1.000000000000e+00 0.000000000000e+00 
4.633333333333e+01 9.353348274667e+04 1.000000000000e+00 0.000000000000e+00 
4.666666666667e+01 9.350284533059e+04 1.000000000000e+00 0.000000000000e+00 
4.700000000000e+01 9.347220786511e+04 1.000000000000e+00 0.000000000000e+00 
4.733333333333e+01 9.344157026305e+04 1.000000000000e+00 0.000000000000e+00 
4.766666666667e+01 9.341093228031e+04 1.000000000000e+00 0.000000000000e+00 
4.800000000000e+01 9.338029322734e+04 1.000000000000e+00 0.000000000000e+00 
4.833333333333e+01 9.334965113790e+04 1.000000000000e+00 0.000000000000e+00 
4.866666666667e+01 9.331900035171e+04 1.000000000000e+00 0.000000000000e+00 
4.900000000000e+01 9.328832441653e+04 1.000000000000e+00 0.000000000000e+00 
4.933333333333e+01 9.325757505546e+04 1.000000000000e+00 0.000000000000e+00 
4.966666666667e+01 9.322660929611e+04 1.000000000000e+00 0.000000000000e+00 
5.000000000000e+01 9.319500000000e+04 1.000000000000e+00 0.000000000000e+00 
 ZONE T="TIME=4.320000000000e+04"
0.000000000000e+00 9.810000000000e+04 1.000000000000e+00 0.000000000000e+00 
3.333333333333e-01 9.807033464147e+04 1.000000000000e+00 0.000000000000e+00 
6.666666666667e-01 9.804002580019e+04 1.000000000000e+00 0.000000000000e+00 
1.000000000000e+00 9.800950069268e+04 1.000000000000e+00 0.000000000000e+00 
1.333333333333e+00 9.797890242800e+04 1.000000000000e+00 0.000000000000e+00 
1.666666666667e+00 9.794827953919e+04 1.000000000000e+00 0.000000000000e+00 
2.000000000000e+00 9.791764896789e+04 1.000000000000e+00 0.000000000000e+00 
2.333333333333e+00 9.788701731456e+04 1.000000000000e+00 0.000000000000e+00 
2.666666666667e+00 9.785638835426e+04 1.000000000000e+00 0.000000000000e+00 
3.000000000000e+00 9.782576625792e+04 1.000000000000e+00 0.000000000000e+00 
3.333333333333e+00 9.779515797089e+04 1.000000000000e+00 0.000000000000e+00 
3.666666666667e+00 9.776457647977e+04 1.000000000000e+00 0.000000000000e+00 
4.000000000000e+00 9.773404664662e+04 1.000000000000e+00 0.000000000000e+00 
4.333333333333e+00 9.770361628058e+04 1.000000000000e+00 0.000000000000e+00 
4.666666666667e+00 9.767337739415e+04 1.000000000000e+00 0.000000000000e+00 
5.000000000000e+00 9.763296217452e+04 8.999977480000e-01 1.000022520000e-01 
5.333333333333e+00 9.758454336963e+04 8.999977480000e-01 1.000022520000e-01 
5.666666666667e+00 9.753584069412e+04 8.999977480000e-01 1.000022520000e-01 
6.000000000000e+00 9.748699050801e+04 8.999977480000e-01 1.000022520000e-01 
6.333333333333e+00 9.743806361098e+04 8.999977480000e-01 1.000022520000e-01 
6.666666666667e+00 9.738909670900e+04 8.999977480000e-01 1.000022520000e-01 
7.000000000000e+00 9.734010872800e+04 8.999977480000e-01 1.000022520000e-01 
7.333333333333e+00 9.729110922552e+04 8.999977480000e-01 1.000022520000e-01 
7.666666666667e+00 9.724210263839e+04 8.999977480000e-01 1.000022520000e-01 
8.000000000000e+00 9.719309025474e+04 8.999977480000e-01 1.000022520000e-01 
8.333333333333e+00 9.714407078644e+04 8.999977480000e-01 1.000022520000e-01 
8.666666666667e+00 9.709503979665e+04 8.999977480000e-01 1.000022520000e-01 
9.000000000000e+00 9.704598772787e+04 8.999977480000e-01 1.000022520000e-01 
9.333333333333e+00 9.699689565413e+04 8.999977480000e-01 1.000022520000e-01 
9.666666666667e+00 9.694772686950e+04 8.999977480000e-01 1.000022520000e-01 
1.000000000000e+01 9.689841057433e+04 8.999977480000e-01 1.000022520000e-01 
1.033333333333e+01 9.684881040870e+04 8.999977480000e-01 1.000022520000e-01 
1.066666666667e+01 9.681251263688e+04 1.000000000000e+00 0.000000000000e+00 
1.100000000000e+01 9.678147674752e+04 1.000000000000e+00 0.000000000000e+00 
1.133333333333e+01 9.675063234024e+04 1.000000000000e+00 0.000000000000e+00 
1.166666666667e+01 9.671988740671e+04 1.000000000000e+00 0.000000000000e+00 
1.200000000000e+01 9.668919414918e+04 1.000000000000e+00 0.000000000000e+00 
1.233333333333e+01 9.665852773703e+04 1.000000000000e+00 0.000000000000e+00 
1.266666666667e+01 9.662787527088e+04 1.000000000000e+00 0.000000000000e+00 
1.300000000000e+01 9.659723004960e+04 1.000000000000e+00 0.000000000000e+00 
1.333333333333e+01 9.656658859199e+04 1.000000000000e+00 0.000000000000e+00 
1.366666666667e+01 9.653594908957e+04 1.000000000000e+00 0.000000000000e+00 
1.400000000000e+01 9.650531060287e+04 1.000000000000e+00 0.000000000000e+00 
1.433333333333e+01 9.647467264382e+04 1.000000000000e+00 0.000000000000e+00 
1.466666666667e+01 9.644403495889e+04 1.000000000000e+00 0.000000000000e+00 
1.500000000000e+01 9.641339741637e+04 1.000000000000e+00 0.000000000000e+00 
1.533333333333e+01 9.638275994782e+04 1.000000000000e+00 0.000000000000e+00 
1.566666666667e+01 9.635212251770e+04 1.000000000000e+00 0.000000000000e+00 
1.600000000000e+01 9.632148510755e+04 1.000000000000e+00 0.000000000000e+00 
1.633333333333e+01 9.629084770778e+04 1.000000000000e+00 0.000000000000e+00 
1.666666666667e+01 9.626021031340e+04 1.000000000000e+00 0.000000000000e+00 
1.700000000000e+01 9.622957292182e+04 1.000000000000e+00 0.000000000000e+00 
1.733333333333e+01 9.619893553170e+04 1.000000000000e+00 0.000000000000e+00 
1.766666666667e+01 9.616829814234e+04 1.000000000000e+00 0.000000000000e+00 
1.800000000000e+01 9.613766075337e+04 1.000000000000e+00 0.000000000000e+00 
1.833333333333e+01 9.610702336461e+04 1.000000000000e+00 0.000000000000e+00 
1.866666666667e+01 9.607638597595e+04 1.000000000000e+00 0.000000000000e+00 
1.900000000000e+01 9.604574858736e+04 1.000000000000e+00 0.000000000000e+00 
1.933333333333e+01 9.601511119880e+04 1.000000000000e+00 0.000000000000e+00 
1.966666666667e+01 9.598447381025e+04 1.000000000000e+00 0.000000000000e+00 
2.000000000000e+01 9.595383642173e+04 1.000000000000e+00 0.000000000000e+00 
2.033333333333e+01 9.592319903322e+04 1.000000000000e+00 0.000000000000e+00 
2.066666666667e+01 9.589256164471e+04 1.000000000000e+00 0.000000000000e+00 
2.100000000000e+01 9.586192425621e+04 1.000000000000e+00 0.000000000000e+00 
2.133333333333e+01 9.583128686772e+04 1.000000000000e+00 0.000000000000e+00 
2.166666666667e+01 9.580064947923e+04 1.000000000000e+00 0.000000000000e+00 
2.200000000000e+01 9.577001209074e+04 1.000000000000e+00 0.000000000000e+00 
2.233333333333e+01 9.573937470226e+04 1.000000000000e+00 0.000000000000e+00 
2.266666666667e+01 9.570873731379e+04 1.000000000000e+00 0.000000000000e+00 
2.300000000000e+01 9.567809992532e+04 1.000000000000e+00 0.000000000000e+00 
2.333333333333e+01 9.564746253686e+04 1.000000000000e+00 0.000000000000e+00 
2.366666666667e+01 9.561682514842e+04 1.000000000000e+00 0.000000000000e+00 
2.400000000000e+01 9.558618775998e+04 1.000000000000e+00 0.000000000000e+00 
2.433333333333e+01 9.555555037156e+04 1.000000000000e+00 0.000000000000e+00 
2.466666666667e+01 9.552491298314e+04 1.000000000000e+00 0.000000000000e+00 
2.500000000000e+01 9.549427559473e+04 1.000000000000e+00 0.000000000000e+00 
2.533333333333e+01 9.546363820633e+04 1.000000000000e+00 0.000000000000e+00 
2.566666666667e+01 9.543300081793e+04 1.000000000000e+00 0.000000000000e+00 
2.600000000000e+01 9.540236342955e+04 1.000000000000e+00 0.000000000000e+00 
2.633333333333e+01 9.537172604117e+04 1.000000000000e+00 0.000000000000e+00 
2.666666666667e+01 9.534108865280e+04 1.000000000000e+00 0.000000000000e+00 
2.700000000000e+01 9.531045126445e+04 1.000000000000e+00 0.000000000000e+00 
2.733333333333e+01 9.527981387611e+04 1.000000000000e+00 0.000000000000e+00 