 TITLE = "Profiles along polylines"
 VARIABLES = "DIST" "PRESSURE1" "SATURATION1" "SATURATION2" 
 ZONE T="TIME=0.000000000000e+00"
0.000000000000e+00 9.806700000000e+04 1.000000000000e+00 0.000000000000e+00 
3.333333333333e-01 9.806700000000e+04 1.000000000000e+00 0.000000000000e+00 
6.666666666667e-01 9.806700000000e+04 1.000000000000e+00 0.000000000000e+00 
1.000000000000e+00 9.806700000000e+04 1.000000000000e+00 0.000000000000e+00 
1.333333333333e+00 9.806700000000e+04 1.000000000000e+00 0.000000000000e+00 
1.666666666667e+00 9.806700000000e+04 1.000000000000e+00 0.000000000000e+00 
2.000000000000e+00 9.806700000000e+04 1.000000000000e+00 0.000000000000e+00 
2.333333333333e+00 9.806700000000e+04 1.000000000000e+00 0.000000000000e+00 
2.666666666667e+00 9.806700000000e+04 1.000000000000e+00 0.000000000000e+00 
3.000000000000e+00 9.806700000000e+04 1.000000000000e+00 0.000000000000e+00 
3.333333333333e+00 9.806700000000e+04 1.000000000000e+00 0.000000000000e+00 
3.666666666667e+00 9.806700000000e+04 1.000000000000e+00 0.000000000000e+00 
4.000000000000e+00 9.806700000000e+04 1.000000000000e+00 0.000000000000e+00 
4.333333333333e+00 9.806700000000e+04 1.000000000000e+00 0.000000000000e+00 
4.666666666667e+00 9.806700000000e+04 1.000000000000e+00 0.000000000000e+00 
5.000000000000e+00 9.806700000000e+04 8.999977480000e-01 1.000022520000e-01 
5.333333333333e+00 9.806700000000e+04 8.999977480000e-01 1.000022520000e-01 
5.666666666667e+00 9.806700000000e+04 8.999977480000e-01 1.000022520000e-01 
6.000000000000e+00 9.806700000000e+04 8.999977480000e-01 1.000022520000e-01 
6.333333333333e+00 9.806700000000e+04 8.999977480000e-01 1.000022520000e-01 
6.666666666667e+00 9.806700000000e+04 8.999977480000e-01 1.000022520000e-01 
7.000000000000e+00 9.806700000000e+04 8.999977480000e-01 1.000022520000e-01 
7.333333333333e+00 9.806700000000e+04 8.999977480000e-01 1.000022520000e-01 
7.666666666667e+00 9.806700000000e+04 8.999977480000e-01 1.000022520000e-01 
8.000000000000e+00 9.806700000000e+04 8.999977480000e-01 1.000022520000e-01 
8.333333333333e+00 9.806700000000e+04 8.999977480000e-01 1.000022520000e-01 
8.666666666667e+00 9.806700000000e+04 8.999977480000e-01 1.000022520000e-01 
9.000000000000e+00 9.806700000000e+04 8.999977480000e-01 1.000022520000e-01 
9.333333333333e+00 9.806700000000e+04 8.999977480000e-01 1.000022520000e-01 
9.666666666667e+00 9.806700000000e+04 8.999977480000e-01 1.000022520000e-01 
1.000000000000e+01 9.806700000000e+04 8.999977480000e-01 1.000022520000e-01 
1.033333333333e+01 9.806700000000e+04 8.999977480000e-01 1.000022520000e-01 
1.066666666667e+01 9.806700000000e+04 1.000000000000e+00 0.000000000000e+00 
1.100000000000e+01 9.806700000000e+04 1.000000000000e+00 0.000000000000e+00 
1.133333333333e+01 9.806700000000e+04 1.000000000000e+00 0.000000000000e+00 
1.166666666667e+01 9.806700000000e+04 1.000000000000e+00 0.000000000000e+00 
1.200000000000e+01 9.806700000000e+04 1.000000000000e+00 0.000000000000e+00 
1.233333333333e+01 9.806700000000e+04 1.000000000000e+00 0.000000000000e+00 
1.266666666667e+01 9.806700000000e+04 1.000000000000e+00 0.000000000000e+00 
1.300000000000e+01 9.806700000000e+04 1.000000000000e+00 0.000000000000e+00 
1.333333333333e+01 9.806700000000e+04 1.000000000000e+00 0.000000000000e+00 
1.366666666667e+01 9.806700000000e+04 1.000000000000e+00 0.000000000000e+00 
1.400000000000e+01 9.806700000000e+04 1.000000000000e+00 0.000000000000e+00 
1.433333333333e+01 9.806700000000e+04 1.000000000000e+00 0.000000000000e+00 
1.466666666667e+01 9.806700000000e+04 1.000000000000e+00 0.000000000000e+00 
1.500000000000e+01 9.806700000000e+04 1.000000000000e+00 0.000000000000e+00 
1.533333333333e+01 9.806700000000e+04 1.000000000000e+00 0.000000000000e+00 
1.566666666667e+01 9.806700000000e+04 1.000000000000e+00 0.000000000000e+00 
1.600000000000e+01 9.806700000000e+04 1.000000000000e+00 0.000000000000e+00 
1.633333333333e+01 9.806700000000e+04 1.000000000000e+00 0.000000000000e+00 
1.666666666667e+01 9.806700000000e+04 1.000000000000e+00 0.000000000000e+00 
1.700000000000e+01 9.806700000000e+04 1.000000000000e+00 0.000000000000e+00 
1.733333333333e+01 9.806700000000e+04 1.000000000000e+00 0.000000000000e+00 
1.766666666667e+01 9.806700000000e+04 1.000000000000e+00 0.000000000000e+00 
1.800000000000e+01 9.806700000000e+04 1.000000000000e+00 0.000000000000e+00 
1.833333333333e+01 9.806700000000e+04 1.000000000000e+00 0.000000000000e+00 
1.866666666667e+01 9.806700000000e+04 1.000000000000e+00 0.000000000000e+00 
1.900000000000e+01 9.806700000000e+04 1.000000000000e+00 0.000000000000e+00 
1.933333333333e+01 9.806700000000e+04 1.000000000000e+00 0.000000000000e+00 
1.966666666667e+01 9.806700000000e+04 1.000000000000e+00 0.000000000000e+00 
2.000000000000e+01 9.806700000000e+04 1.000000000000e+00 0.000000000000e+00 
2.033333333333e+01 9.806700000000e+04 1.000000000000e+00 0.000000000000e+00 
2.066666666667e+01 9.806700000000e+04 1.000000000000e+00 0.000000000000e+00 
2.100000000000e+01 9.806700000000e+04 1.000000000000e+00 0.000000000000e+00 
2.133333333333e+01 9.806700000000e+04 1.000000000000e+00 0.000000000000e+00 
2.166666666667e+01 9.806700000000e+04 1.000000000000e+00 0.000000000000e+00 
2.200000000000e+01 9.806700000000e+04 1.000000000000e+00 0.000000000000e+00 
2.233333333333e+01 9.806700000000e+04 1.000000000000e+00 0.000000000000e+00 
2.266666666667e+01 9.806700000000e+04 1.000000000000e+00 0.000000000000e+00 
2.300000000000e+01 9.806700000000e+04 1.000000000000e+00 0.000000000000e+00 
2.333333333333e+01 9.806700000000e+04 1.000000000000e+00 0.000000000000e+00 
2.366666666667e+01 9.806700000000e+04 1.000000000000e+00 0.000000000000e+00 
2.400000000000e+01 9.806700000000e+04 1.000000000000e+00 0.000000000000e+00 
2.433333333333e+01 9.806700000000e+04 1.000000000000e+00 0.000000000000e+00 
2.466666666667e+01 9.806700000000e+04 1.000000000000e+00 0.000000000000e+00 
2.500000000000e+01 9.806700000000e+04 1.000000000000e+00 0.000000000000e+00 
2.533333333333e+01 9.806700000000e+04 1.000000000000e+00 0.000000000000e+00 
2.566666666667e+01 9.806700000000e+04 1.000000000000e+00 0.000000000000e+00 
2.600000000000e+01 9.806700000000e+04 1.000000000000e+00 0.000000000000e+00 
2.633333333333e+01 9.806700000000e+04 1.000000000000e+00 0.000000000000e+00 
2.666666666667e+01 9.806700000000e+04 1.000000000000e+00 0.000000000000e+00 
2.700000000000e+01 9.806700000000e+04 1.000000000000e+00 0.000000000000e+00 
2.733333333333e+01 9.806700000000e+04 1.000000000000e+00 0.000000000000e+00 
2.766666666667e+01 9.806700000000e+04 1.000000000000e+00 0.000000000000e+00 
2.800000000000e+01 9.806700000000e+04 1.000000000000e+00 0.000000000000e+00 
2.833333333333e+01 9.806700000000e+04 1.000000000000e+00 0.000000000000e+00 
2.866666666667e+01 9.806700000000e+04 1.000000000000e+00 0.000000000000e+00 
2.900000000000e+01 9.806700000000e+04 1.000000000000e+00 0.000000000000e+00 
2.933333333333e+01 9.806700000000e+04 1.000000000000e+00 0.000000000000e+00 
2.966666666667e+01 9.806700000000e+04 1.000000000000e+00 0.000000000000e+00 
3.000000000000e+01 9.806700000000e+04 1.000000000000e+00 0.000000000000e+00 
3.033333333333e+01 9.806700000000e+04 1.000000000000e+00 0.000000000000e+00 
3.066666666667e+01 9.806700000000e+04 1.000000000000e+00 0.000000000000e+00 
3.100000000000e+01 9.806700000000e+04 1.000000000000e+00 0.000000000000e+00 
3.133333333333e+01 9.806700000000e+04 1.000000000000e+00 0.000000000000e+00 
3.166666666667e+01 9.806700000000e+04 1.000000000000e+00 0.000000000000e+00 
3.200000000000e+01 9.806700000000e+04 1.000000000000e+00 0.000000000000e+00 
3.233333333333e+01 9.806700000000e+04 1.000000000000e+00 0.000000000000e+00 
3.266666666667e+01 9.806700000000e+04 1.000000000000e+00 0.000000000000e+00 
3.300000000000e+01 9.806700000000e+04 1.000000000000e+00 0.000000000000e+00 
3.333333333333e+01 9.806700000000e+04 1.000000000000e+00 0.000000000000e+00 
3.366666666667e+01 9.806700000000e+04 1.000000000000e+00 0.000000000000e+00 
3.400000000000e+01 9.806700000000e+04 1.000000000000e+00 0.000000000000e+00 
3.433333333333e+01 9.806700000000e+04 1.000000000000e+00 0.000000000000e+00 
3.466666666667e+01 9.806700000000e+04 1.000000000000e+00 0.000000000000e+00 
3.500000000000e+01 9.806700000000e+04 1.000000000000e+00 0.000000000000e+00 
3.533333333333e+01 9.806700000000e+04 1.000000000000e+00 0.000000000000e+00 
3.566666666667e+01 9.806700000000e+04 1.000000000000e+00 0.000000000000e+00 
3.600000000000e+01 9.806700000000e+04 1.000000000000e+00 0.000000000000e+00 
3.633333333333e+01 9.806700000000e+04 1.000000000000e+00 0.000000000000e+00 
3.666666666667e+01 9.806700000000e+04 1.000000000000e+00 0.000000000000e+00 
3.700000000000e+01 9.806700000000e+04 1.000000000000e+00 0.000000000000e+00 
3.733333333333e+01 9.806700000000e+04 1.000000000000e+00 0.000000000000e+00 
3.766666666667e+01 9.806700000000e+04 1.000000000000e+00 0.000000000000e+00 
3.800000000000e+01 9.806700000000e+04 1.000000000000e+00 0.000000000000e+00 
3.833333333333e+01 9.806700000000e+04 1.000000000000e+00 0.000000000000e+00 
3.866666666667e+01 9.806700000000e+04 1.000000000000e+00 0.000000000000e+00 
3.900000000000e+01 9.806700000000e+04 1.000000000000e+00 0.000000000000e+00 
3.933333333333e+01 9.806700000000e+04 1.000000000000e+00 0.000000000000e+00 
3.966666666667e+01 9.806700000000e+04 1.000000000000e+00 0.000000000000e+00 
4.000000000000e+01 9.806700000000e+04 1.000000000000e+00 0.000000000000e+00 
4.033333333333e+01 9.806700000000e+04 1.000000000000e+00 0.000000000000e+00 
4.066666666667e+01 9.806700000000e+04 1.000000000000e+00 0.000000000000e+00 
4.100000000000e+01 9.806700000000e+04 1.000000000000e+00 0.000000000000e+00 
4.133333333333e+01 9.806700000000e+04 1.000000000000e+00 0.000000000000e+00 
4.166666666667e+01 9.806700000000e+04 1.000000000000e+00 0.000000000000e+00 
4.200000000000e+01 9.806700000000e+04 1.000000000000e+00 0.000000000000e+00 
4.233333333333e+01 9.806700000000e+04 1.000000000000e+00 0.000000000000e+00 
4.266666666667e+01 9.806700000000e+04 1.000000000000e+00 0.000000000000e+00 
4.300000000000e+01 9.806700000000e+04 1.000000000000e+00 0.000000000000e+00 
4.333333333333e+01 9.806700000000e+04 1.000000000000e+00 0.000000000000e+00 
4.366666666667e+01 9.806700000000e+04 1.000000000000e+00 0.000000000000e+00 
4.400000000000e+01 9.806700000000e+04 1.000000000000e+00 0.000000000000e+00 
4.433333333333e+01 9.806700000000e+04 1.000000000000e+00 0.000000000000e+00 
4.466666666667e+01 9.806700000000e+04 1.000000000000e+00 0.000000000000e+00 
4.500000000000e+01 9.806700000000e+04 1.000000000000e+00 0.000000000000e+00 
4.533333333333e+01 9.806700000000e+04 1.000000000000e+00 0.000000000000e+00 
4.566666666667e+01 9.806700000000e+04 1.000000000000e+00 0.000000000000e+00 
4.600000000000e+01 9.806700000000e+04 1.000000000000e+00 0.000000000000e+00 
4.633333333333e+01 9.806700000000e+04 1.000000000000e+00 0.000000000000e+00 
4.666666666667e+01 9.806700000000e+04 1.000000000000e+00 0.000000000000e+00 
4.700000000000e+01 9.806700000000e+04 1.000000000000e+00 0.000000000000e+00 
4.733333333333e+01 9.806700000000e+04 1.000000000000e+00 0.000000000000e+00 
4.766666666667e+01 9.806700000000e+04 1.000000000000e+00 0.000000000000e+00 
4.800000000000e+01 9.806700000000e+04 1.000000000000e+00 0.000000000000e+00 
4.833333333333e+01 9.806700000000e+04 1.000000000000e+00 0.000000000000e+00 
4.866666666667e+01 9.806700000000e+04 1.000000000000e+00 0.000000000000e+00 
4.900000000000e+01 9.806700000000e+04 1.000000000000e+00 0.000000000000e+00 
4.933333333333e+01 9.806700000000e+04 1.000000000000e+00 0.000000000000e+00 
4.966666666667e+01 9.806700000000e+04 1.000000000000e+00 0.000000000000e+00 
5.000000000000e+01 9.806700000000e+04 1.000000000000e+00 0.000000000000e+00 
 TITLE = "Profiles along polylines"
 VARIABLES = "DIST" "PRESSURE1" "SATURATION1" "SATURATION2" 
 ZONE T="TIME=2.160000000000e+04"
0.000000000000e+00 9.810000000000e+04 1.000000000000e+00 0.000000000000e+00 
3.333333333333e-01 9.807033464143e+04 1.000000000000e+00 0.000000000000e+00 
6.666666666667e-01 9.804002580010e+04 1.000000000000e+00 0.000000000000e+00 
1.000000000000e+00 9.800950069254e+04 1.000000000000e+00 0.000000000000e+00 
1.333333333333e+00 9.797890242781e+04 1.000000000000e+00 0.000000000000e+00 
1.666666666667e+00 9.794827953895e+04 1.000000000000e+00 0.000000000000e+00 
2.000000000000e+00 9.791764896759e+04 1.000000000000e+00 0.000000000000e+00 
2.333333333333e+00 9.788701731422e+04 1.000000000000e+00 0.000000000000e+00 
2.666666666667e+00 9.785638835386e+04 1.000000000000e+00 0.000000000000e+00 
3.000000000000e+00 9.782576625747e+04 1.000000000000e+00 0.000000000000e+00 
3.333333333333e+00 9.779515797039e+04 1.000000000000e+00 0.000000000000e+00 
3.666666666667e+00 9.776457647923e+04 1.000000000000e+00 0.000000000000e+00 
4.000000000000e+00 9.773404664603e+04 1.000000000000e+00 0.000000000000e+00 
4.333333333333e+00 9.770361627995e+04 1.000000000000e+00 0.000000000000e+00 
4.666666666667e+00 9.767337739347e+04 1.000000000000e+00 0.000000000000e+00 
5.000000000000e+00 9.763296217378e+04 8.999977480000e-01 1.000022520000e-01 
5.333333333333e+00 9.758454336881e+04 8.999977480000e-01 1.000022520000e-01 
5.666666666667e+00 9.753584069322e+04 8.999977480000e-01 1.000022520000e-01 
6.000000000000e+00 9.748699050703e+04 8.999977480000e-01 1.000022520000e-01 
6.333333333333e+00 9.743806360993e+04 8.999977480000e-01 1.000022520000e-01 
6.666666666667e+00 9.738909670787e+04 8.999977480000e-01 1.000022520000e-01 
7.000000000000e+00 9.734010872680e+04 8.999977480000e-01 1.000022520000e-01 
7.333333333333e+00 9.729110922424e+04 8.999977480000e-01 1.000022520000e-01 
7.666666666667e+00 9.724210263704e+04 8.999977480000e-01 1.000022520000e-01 
8.000000000000e+00 9.719309025331e+04 8.999977480000e-01 1.000022520000e-01 
8.333333333333e+00 9.714407078494e+04 8.999977480000e-01 1.000022520000e-01 
8.666666666667e+00 9.709503979508e+04 8.999977480000e-01 1.000022520000e-01 
9.000000000000e+00 9.704598772622e+04 8.999977480000e-01 1.000022520000e-01 
9.333333333333e+00 9.699689565240e+04 8.999977480000e-01 1.000022520000e-01 
9.666666666667e+00 9.694772686770e+04 8.999977480000e-01 1.000022520000e-01 
1.000000000000e+01 9.689841057246e+04 8.999977480000e-01 1.000022520000e-01 
1.033333333333e+01 9.684881040676e+04 8.999977480000e-01 1.000022520000e-01 
1.066666666667e+01 9.681251263489e+04 1.000000000000e+00 0.000000000000e+00 
1.100000000000e+01 9.678147674550e+04 1.000000000000e+00 0.000000000000e+00 
1.133333333333e+01 9.675063233817e+04 1.000000000000e+00 0.000000000000e+00 
1.166666666667e+01 9.671988740461e+04 1.000000000000e+00 0.000000000000e+00 
1.200000000000e+01 9.668919414706e+04 1.000000000000e+00 0.000000000000e+00 
1.233333333333e+01 9.665852773487e+04 1.000000000000e+00 0.000000000000e+00 
1.266666666667e+01 9.662787526868e+04 1.000000000000e+00 0.000000000000e+00 
1.300000000000e+01 9.659723004736e+04 1.000000000000e+00 0.000000000000e+00 
1.333333333333e+01 9.656658858971e+04 1.000000000000e+00 0.000000000000e+00 
1.366666666667e+01 9.653594908725e+04 1.000000000000e+00 0.000000000000e+00 
1.400000000000e+01 9.650531060052e+04 1.000000000000e+00 0.000000000000e+00 
1.433333333333e+01 9.647467264144e+04 1.000000000000e+00 0.000000000000e+00 
1.466666666667e+01 9.644403495649e+04 1.000000000000e+00 0.000000000000e+00 
1.500000000000e+01 9.641339741394e+04 1.000000000000e+00 0.000000000000e+00 
1.533333333333e+01 9.638275994537e+04 1.000000000000e+00 0.000000000000e+00 
1.566666666667e+01 9.635212251524e+04 1.000000000000e+00 0.000000000000e+00 
1.600000000000e+01 9.632148510508e+04 1.000000000000e+00 0.000000000000e+00 
1.633333333333e+01 9.629084770529e+04 1.000000000000e+00 0.000000000000e+00 
1.666666666667e+01 9.626021031090e+04 1.000000000000e+00 0.000000000000e+00 
1.700000000000e+01 9.622957291931e+04 1.000000000000e+00 0.000000000000e+00 
1.733333333333e+01 9.619893552918e+04 1.000000000000e+00 0.000000000000e+00 
1.766666666667e+01 9.616829813981e+04 1.000000000000e+00 0.000000000000e+00 
1.800000000000e+01 9.613766075084e+04 1.000000000000e+00 0.000000000000e+00 
1.833333333333e+01 9.610702336208e+04 1.000000000000e+00 0.000000000000e+00 
1.866666666667e+01 9.607638597343e+04 1.000000000000e+00 0.000000000000e+00 
1.900000000000e+01 9.604574858484e+04 1.000000000000e+00 0.000000000000e+00 
1.933333333333e+01 9.601511119629e+04 1.000000000000e+00 0.000000000000e+00 
1.966666666667e+01 9.598447380776e+04 1.000000000000e+00 0.000000000000e+00 
2.000000000000e+01 9.595383641924e+04 1.000000000000e+00 0.000000000000e+00 
2.033333333333e+01 9.592319903073e+04 1.000000000000e+00 0.000000000000e+00 
2.066666666667e+01 9.589256164223e+04 1.000000000000e+00 0.000000000000e+00 
2.100000000000e+01 9.586192425375e+04 1.000000000000e+00 0.000000000000e+00 
2.133333333333e+01 9.583128686527e+04 1.000000000000e+00 0.000000000000e+00 
2.166666666667e+01 9.580064947681e+04 1.000000000000e+00 0.000000000000e+00 
2.200000000000e+01 9.577001208837e+04 1.000000000000e+00 0.000000000000e+00 
2.233333333333e+01 9.573937469993e+04 1.000000000000e+00 0.000000000000e+00 
2.266666666667e+01 9.570873731151e+04 1.000000000000e+00 0.000000000000e+00 
2.300000000000e+01 9.567809992310e+04 1.000000000000e+00 0.000000000000e+00 
2.333333333333e+01 9.564746253470e+04 1.000000000000e+00 0.000000000000e+00 
2.366666666667e+01 9.561682514630e+04 1.000000000000e+00 0.000000000000e+00 
2.400000000000e+01 9.558618775791e+04 1.000000000000e+00 0.000000000000e+00 
2.433333333333e+01 9.555555036953e+04 1.000000000000e+00 0.000000000000e+00 
2.466666666667e+01 9.552491298116e+04 1.000000000000e+00 0.000000000000e+00 
2.500000000000e+01 9.549427559279e+04 1.000000000000e+00 0.000000000000e+00 
2.533333333333e+01 9.546363820445e+04 1.000000000000e+00 0.000000000000e+00 
2.566666666667e+01 9.543300081611e+04 1.000000000000e+00 0.000000000000e+00 
2.600000000000e+01 9.540236342779e+04 1.000000000000e+00 0.000000000000e+00 
2.633333333333e+01 9.537172603949e+04 1.000000000000e+00 0.000000000000e+00 
2.666666666667e+01 9.534108865121e+04 1.000000000000e+00 0.000000000000e+00 
2.700000000000e+01 9.531045126294e+04 1.000000000000e+00 0.000000000000e+00 
2.733333333333e+01 9.527981387469e+04 1.000000000000e+00 0.000000000000e+00 
2.766666666667e+01 9.524917648644e+04 1.000000000000e+00 0.000000000000e+00 
2.800000000000e+01 9.521853909821e+04 1.000000000000e+00 0.000000000000e+00 
2.833333333333e+01 9.518790170999e+04 1.000000000000e+00 0.000000000000e+00 
2.866666666667e+01 9.515726432178e+04 1.000000000000e+00 0.000000000000e+00 
2.900000000000e+01 9.512662693359e+04 1.000000000000e+00 0.000000000000e+00 
2.933333333333e+01 9.509598954541e+04 1.000000000000e+00 0.000000000000e+00 
2.966666666667e+01 9.506535215724e+04 1.000000000000e+00 0.000000000000e+00 
3.000000000000e+01 9.503471476909e+04 1.000000000000e+00 0.000000000000e+00 
3.033333333333e+01 9.500407738095e+04 1.000000000000e+00 0.000000000000e+00 
3.066666666667e+01 9.497343999283e+04 1.000000000000e+00 0.000000000000e+00 
3.100000000000e+01 9.494280260471e+04 1.000000000000e+00 0.000000000000e+00 
3.133333333333e+01 9.491216521662e+04 1.000000000000e+00 0.000000000000e+00 
3.166666666667e+01 9.488152782853e+04 1.000000000000e+00 0.000000000000e+00 
3.200000000000e+01 9.485089044046e+04 1.000000000000e+00 0.000000000000e+00 
3.233333333333e+01 9.482025305240e+04 1.000000000000e+00 0.000000000000e+00 
3.266666666667e+01 9.478961566436e+04 1.000000000000e+00 0.000000000000e+00 
3.300000000000e+01 9.475897827633e+04 1.000000000000e+00 0.000000000000e+00 
3.333333333333e+01 9.472834088832e+04 1.000000000000e+00 0.000000000000e+00 
3.366666666667e+01 9.469770350033e+04 1.000000000000e+00 0.000000000000e+00 
3.400000000000e+01 9.466706611235e+04 1.000000000000e+00 0.000000000000e+00 
3.433333333333e+01 9.463642872439e+04 1.000000000000e+00 0.000000000000e+00 
3.466666666667e+01 9.460579133644e+04 1.000000000000e+00 0.000000000000e+00 
3.500000000000e+01 9.457515394850e+04 1.000000000000e+00 0.000000000000e+00 
3.533333333333e+01 9.454451656056e+04 1.000000000000e+00 0.000000000000e+00 
3.566666666667e+01 9.451387917264e+04 1.000000000000e+00 0.000000000000e+00 
3.600000000000e+01 9.448324178472e+04 1.000000000000e+00 0.000000000000e+00 
3.633333333333e+01 9.445260439680e+04 1.000000000000e+00 0.000000000000e+00 
3.666666666667e+01 9.442196700891e+04 1.000000000000e+00 0.000000000000e+00 
3.700000000000e+01 9.439132962102e+04 1.000000000000e+00 0.000000000000e+00 
3.733333333333e+01 9.436069223316e+04 1.000000000000e+00 0.000000000000e+00 
3.766666666667e+01 9.433005484531e+04 1.000000000000e+00 0.000000000000e+00 
3.800000000000e+01 9.429941745747e+04 1.000000000000e+00 0.000000000000e+00 
3.833333333333e+01 9.426878006966e+04 1.000000000000e+00 0.000000000000e+00 
3.866666666667e+01 9.423814268185e+04 1.000000000000e+00 0.000000000000e+00 
3.900000000000e+01 9.420750529405e+04 1.000000000000e+00 0.000000000000e+00 
3.933333333333e+01 9.417686790626e+04 1.000000000000e+00 0.000000000000e+00 
3.966666666667e+01 9.414623051847e+04 1.000000000000e+00 0.000000000000e+00 
4.000000000000e+01 9.411559313069e+04 1.000000000000e+00 0.000000000000e+00 
4.033333333333e+01 9.408495574291e+04 1.000000000000e+00 0.000000000000e+00 
4.066666666667e+01 9.405431835514e+04 1.000000000000e+00 0.000000000000e+00 
4.100000000000e+01 9.402368096737e+04 1.000000000000e+00 0.000000000000e+00 
4.133333333333e+01 9.399304357962e+04 1.000000000000e+00 0.000000000000e+00 
4.166666666667e+01 9.396240619187e+04 1.000000000000e+00 0.000000000000e+00 
4.200000000000e+01 9.393176880414e+04 1.000000000000e+00 0.000000000000e+00 
4.233333333333e+01 9.390113141641e+04 1.000000000000e+00 0.000000000000e+00 
4.266666666667e+01 9.387049402869e+04 1.000000000000e+00 0.000000000000e+00 
4.300000000000e+01 9.383985664098e+04 1.000000000000e+00 0.000000000000e+00 
4.333333333333e+01 9.380921925328e+04 1.000000000000e+00 0.000000000000e+00 
4.366666666667e+01 9.377858186557e+04 1.000000000000e+00 0.000000000000e+00 
4.400000000000e+01 9.374794447787e+04 1.000000000000e+00 0.000000000000e+00 
4.433333333333e+01 9.371730709016e+04 1.000000000000e+00 0.000000000000e+00 
4.466666666667e+01 9.368666970240e+04 1.000000000000e+00 0.000000000000e+00 
4.500000000000e+01 9.365603231452e+04 1.000000000000e+00 0.000000000000e+00 
4.533333333333e+01 9.362539492632e+04 1.000000000000e+00 0.000000000000e+00 
4.566666666667e+01 9.359475753721e+04 1.000000000000e+00 0.000000000000e+00 
4.600000000000e+01 9.356412014567e+04 1.000000000000e+00 0.000000000000e+00 
4.633333333333e+01 9.353348274752e+04 1.000000000000e+00 0.000000000000e+00 
4.666666666667e+01 9.350284533138e+04 1.000000000000e+00 0.000000000000e+00 
4.700000000000e+01 9.347220786583e+04 1.000000000000e+00 0.000000000000e+00 
4.733333333333e+01 9.344157026369e+04 1.000000000000e+00 0.000000000000e+00 
4.766666666667e+01 9.341093228087e+04 1.000000000000e+00 0.000000000000e+00 
4.800000000000e+01 9.338029322780e+04 1.000000000000e+00 0.000000000000e+00 
4.833333333333e+01 9.334965113826e+04 1.000000000000e+00 0.000000000000e+00 
4.866666666667e+01 9.331900035199e+04 1.000000000000e+00 0.000000000000e+00 
4.900000000000e+01 9.328832441672e+04 1.000000000000e+00 0.000000000000e+00 
4.933333333333e+01 9.325757505557e+04 1.000000000000e+00 0.000000000000e+00 
4.966666666667e+01 9.322660929617e+04 1.000000000000e+00 0.000000000000e+00 
5.000000000000e+01 9.319500000000e+04 1.000000000000e+00 0.000000000000e+00 
 ZONE T="TIME=4.320000000000e+04"
0.000000000000e+00 9.810000000000e+04 1.000000000000e+00 0.000000000000e+00 
3.333333333333e-01 9.807033464143e+04 1.000000000000e+00 0.000000000000e+00 
6.666666666667e-01 9.804002580010e+04 1.000000000000e+00 0.000000000000e+00 
1.000000000000e+00 9.800950069254e+04 1.000000000000e+00 0.000000000000e+00 
1.333333333333e+00 9.797890242781e+04 1.000000000000e+00 0.000000000000e+00 
1.666666666667e+00 9.794827953895e+04 1.000000000000e+00 0.000000000000e+00 
2.000000000000e+00 9.791764896759e+04 1.000000000000e+00 0.000000000000e+00 
2.333333333333e+00 9.788701731422e+04 1.000000000000e+00 0.000000000000e+00 
2.666666666667e+00 9.785638835386e+04 1.000000000000e+00 0.000000000000e+00 
3.000000000000e+00 9.782576625747e+04 1.000000000000e+00 0.000000000000e+00 
3.333333333333e+00 9.779515797039e+04 1.000000000000e+00 0.000000000000e+00 
3.666666666667e+00 9.776457647923e+04 1.000000000000e+00 0.000000000000e+00 
4.000000000000e+00 9.773404664603e+04 1.000000000000e+00 0.000000000000e+00 
4.333333333333e+00 9.770361627995e+04 1.000000000000e+00 0.000000000000e+00 
4.666666666667e+00 9.767337739347e+04 1.000000000000e+00 0.000000000000e+00 
5.000000000000e+00 9.763296217378e+04 8.999977480000e-01 1.000022520000e-01 
5.333333333333e+00 9.758454336881e+04 8.999977480000e-01 1.000022520000e-01 
5.666666666667e+00 9.753584069322e+04 8.999977480000e-01 1.000022520000e-01 
6.000000000000e+00 9.748699050703e+04 8.999977480000e-01 1.000022520000e-01 
6.333333333333e+00 9.743806360993e+04 8.999977480000e-01 1.000022520000e-01 
6.666666666667e+00 9.738909670787e+04 8.999977480000e-01 1.000022520000e-01 
7.000000000000e+00 9.734010872680e+04 8.999977480000e-01 1.000022520000e-01 
7.333333333333e+00 9.729110922424e+04 8.999977480000e-01 1.000022520000e-01 
7.666666666667e+00 9.724210263704e+04 8.999977480000e-01 1.000022520000e-01 
8.000000000000e+00 9.719309025331e+04 8.999977480000e-01 1.000022520000e-01 
8.333333333333e+00 9.714407078494e+04 8.999977480000e-01 1.000022520000e-01 
8.666666666667e+00 9.709503979508e+04 8.999977480000e-01 1.000022520000e-01 
9.000000000000e+00 9.704598772622e+04 8.999977480000e-01 1.000022520000e-01 
9.333333333333e+00 9.699689565240e+04 8.999977480000e-01 1.000022520000e-01 
9.666666666667e+00 9.694772686770e+04 8.999977480000e-01 1.000022520000e-01 
1.000000000000e+01 9.689841057246e+04 8.999977480000e-01 1.000022520000e-01 
1.033333333333e+01 9.684881040676e+04 8.999977480000e-01 1.000022520000e-01 
1.066666666667e+01 9.681251263489e+04 1.000000000000e+00 0.000000000000e+00 
1.100000000000e+01 9.678147674550e+04 1.000000000000e+00 0.000000000000e+00 
1.133333333333e+01 9.675063233817e+04 1.000000000000e+00 0.000000000000e+00 
1.166666666667e+01 9.671988740461e+04 1.000000000000e+00 0.000000000000e+00 
1.200000000000e+01 9.668919414706e+04 1.000000000000e+00 0.000000000000e+00 
1.233333333333e+01 9.665852773487e+04 1.000000000000e+00 0.000000000000e+00 
1.266666666667e+01 9.662787526868e+04 1.000000000000e+00 0.000000000000e+00 
1.300000000000e+01 9.659723004736e+04 1.000000000000e+00 0.000000000000e+00 
1.333333333333e+01 9.656658858971e+04 1.000000000000e+00 0.000000000000e+00 
1.366666666667e+01 9.653594908725e+04 1.000000000000e+00 0.000000000000e+00 
1.400000000000e+01 9.650531060052e+04 1.000000000000e+00 0.000000000000e+00 
1.433333333333e+01 9.647467264144e+04 1.000000000000e+00 0.000000000000e+00 
1.466666666667e+01 9.644403495649e+04 1.000000000000e+00 0.000000000000e+00 
1.500000000000e+01 9.641339741394e+04 1.000000000000e+00 0.000000000000e+00 
1.533333333333e+01 9.638275994537e+04 1.000000000000e+00 0.000000000000e+00 
1.566666666667e+01 9.635212251524e+04 1.000000000000e+00 0.000000000000e+00 
1.600000000000e+01 9.632148510508e+04 1.000000000000e+00 0.000000000000e+00 
1.633333333333e+01 9.629084770529e+04 1.000000000000e+00 0.000000000000e+00 
1.666666666667e+01 9.626021031090e+04 1.000000000000e+00 0.000000000000e+00 
1.700000000000e+01 9.622957291931e+04 1.000000000000e+00 0.000000000000e+00 
1.733333333333e+01 9.619893552918e+04 1.000000000000e+00 0.000000000000e+00 
1.766666666667e+01 9.616829813981e+04 1.000000000000e+00 0.000000000000e+00 
1.800000000000e+01 9.613766075084e+04 1.000000000000e+00 0.000000000000e+00 
1.833333333333e+01 9.610702336208e+04 1.000000000000e+00 0.000000000000e+00 
1.866666666667e+01 9.607638597343e+04 1.000000000000e+00 0.000000000000e+00 
1.900000000000e+01 9.604574858484e+04 1.000000000000e+00 0.000000000000e+00 
1.933333333333e+01 9.601511119629e+04 1.000000000000e+00 0.000000000000e+00 
1.966666666667e+01 9.598447380776e+04 1.000000000000e+00 0.000000000000e+00 
2.000000000000e+01 9.595383641924e+04 1.000000000000e+00 0.000000000000e+00 
2.033333333333e+01 9.592319903073e+04 1.000000000000e+00 0.000000000000e+00 
2.066666666667e+01 9.589256164223e+04 1.000000000000e+00 0.000000000000e+00 
2.100000000000e+01 9.586192425375e+04 1.000000000000e+00 0.000000000000e+00 
2.133333333333e+01 9.583128686527e+04 1.000000000000e+00 0.000000000000e+00 
2.166666666667e+01 9.580064947681e+04 1.000000000000e+00 0.000000000000e+00 
2.200000000000e+01 9.577001208837e+04 1.000000000000e+00 0.000000000000e+00 
2.233333333333e+01 9.573937469993e+04 1.000000000000e+00 0.000000000000e+00 
2.266666666667e+01 9.570873731151e+04 1.000000000000e+00 0.000000000000e+00 
2.300000000000e+01 9.567809992310e+04 1.000000000000e+00 0.000000000000e+00 
2.333333333333e+01 9.564746253470e+04 1.000000000000e+00 0.000000000000e+00 
2.366666666667e+01 9.561682514630e+04 1.000000000000e+00 0.000000000000e+00 
2.400000000000e+01 9.558618775791e+04 1.000000000000e+00 0.000000000000e+00 
2.433333333333e+01 9.555555036953e+04 1.000000000000e+00 0.000000000000e+00 
2.466666666667e+01 9.552491298116e+04 1.000000000000e+00 0.000000000000e+00 
2.500000000000e+01 9.549427559279e+04 1.000000000000e+00 0.000000000000e+00 
2.533333333333e+01 9.546363820445e+04 1.000000000000e+00 0.000000000000e+00 
2.566666666667e+01 9.543300081611e+04 1.000000000000e+00 0.000000000000e+00 
2.600000000000e+01 9.540236342779e+04 1.000000000000e+00 0.000000000000e+00 
2.633333333333e+01 9.537172603949e+04 1.000000000000e+00 0.000000000000e+00 
2.666666666667e+01 9.534108865121e+04 1.000000000000e+00 0.000000000000e+00 
2.700000000000e+01 9.531045126294e+04 1.000000000000e+00 0.000000000000e+00 
2.733333333333e+01 9.527981387469e+04 1.000000000000e+00 0.000000000000e+00 