 TITLE = "Time curves in points"
 VARIABLES = "TIME "  "PRESSURE1"  "SATURATION1"  "TEMPERATURE1"  "DISPLACEMENT_X1"  "DISPLACEMENT_Y1"  "STRESS_XX"  "STRESS_XY"  "STRESS_YY"  "STRESS_ZZ"  "STRAIN_XX"  "STRAIN_XY"  "STRAIN_YY"  "STRAIN_PLS"  p_(1st_Invariant)  q_(2nd_Invariant)   Effective_Strain
 ZONE T="POINT=POINT7"
0.000000000000e+00 1.000000000000e+05 1.000000000000e+00 2.500000000000e+01 0.000000000000e+00 0.000000000000e+00 -1.262331305483e+06 1.487475914788e+03 -1.327249178965e+07 -1.357396928539e+06 0.000000000000e+00 0.000000000000e+00 0.000000000000e+00 0.000000000000e+00 5.297406674556e+06 1.196291125004e+07  0.000000000000e+00
1.000000000000e-03 1.413412075393e+05 1.000000000000e+00 2.500280428798e+01 -1.504869065863e-03 6.275986613041e-05 3.070085322002e+07 2.494766263040e+03 -4.473873004619e+07 -1.209258270402e+06 1.181701703645e-03 7.482728301300e-08 -1.174248285403e-03 0.000000000000e+00 5.082378365525e+06 6.559039902735e+07  2.040315948163e-03
2.000000000000e-03 1.644188658350e+05 1.000000000000e+00 2.501564381585e+01 -1.504147099242e-03 6.218178925580e-05 3.070085227719e+07 2.321106699476e+03 -4.472565521813e+07 -1.209681215905e+06 1.181717378030e-03 6.192685829113e-08 -1.173746939527e-03 0.000000000000e+00 5.078161385615e+06 6.557850336217e+07  2.039895832375e-03
3.000000000000e-03 1.801827041817e+05 1.000000000000e+00 2.504723888816e+01 -1.503346332434e-03 6.170888137625e-05 3.069410754482e+07 2.249807810310e+03 -4.472245291601e+07 -1.221466109593e+06 1.181904584022e-03 5.663036938157e-08 -1.173190272254e-03 0.000000000000e+00 5.083270493595e+06 6.556903734589e+07  2.039576630326e-03
4.000000000000e-03 1.909644181928e+05 1.000000000000e+00 2.510343997646e+01 -1.502475279999e-03 6.119466204120e-05 3.068219699430e+07 2.219699437883e+03 -4.473199229630e+07 -1.247024452892e+06 1.182411502039e-03 5.439374742992e-08 -1.172595282200e-03 0.000000000000e+00 5.098939918296e+06 6.556568304565e+07  2.039501609163e-03
1.000000000000e-02 2.067812192248e+05 1.000000000000e+00 2.594628110906e+01 -1.496500379925e-03 5.840317418081e-05 3.055743042247e+07 2.186579372935e+03 -4.503940862454e+07 -1.666692733418e+06 1.193364994077e-03 5.193339974802e-08 -1.168425923972e-03 0.000000000000e+00 5.382890311830e+06 6.570566451807e+07  2.045408945132e-03
2.000000000000e-02 2.050623432381e+05 1.000000000000e+00 2.758034036737e+01 -1.486779793075e-03 5.658609092434e-05 3.033723256556e+07 2.165587666518e+03 -4.566890470239e+07 -2.487245601896e+06 1.215663894506e-03 5.037401584277e-08 -1.161329528892e-03 0.000000000000e+00 5.939639246245e+06 6.602664227480e+07  2.058715950439e-03
3.000000000000e-02 1.950320234151e+05 1.000000000000e+00 2.908484135866e+01 -1.477693083083e-03 5.694119566394e-05 3.012801291431e+07 2.149780741075e+03 -4.624269193489e+07 -3.244600048590e+06 1.236023186908e-03 4.919978709557e-08 -1.154511318079e-03 0.000000000000e+00 6.453093023059e+06 6.631384391184e+07  2.070664740633e-03
4.000000000000e-02 1.817983138884e+05 1.000000000000e+00 3.039238211544e+01 -1.469210065414e-03 5.962713779817e-05 2.993240465992e+07 2.136430652379e+03 -4.672284572527e+07 -3.902283620744e+06 1.253185984425e-03 4.820806622105e-08 -1.147917354756e-03 0.000000000000e+00 6.897574895364e+06 6.653726064770e+07  2.080082525320e-03
5.000000000000e-02 1.676431580767e+05 1.000000000000e+00 3.151681237833e+01 -1.461368075318e-03 6.331042525814e-05 2.975158652630e+07 2.126323833696e+03 -4.712200774399e+07 -4.468035596749e+06 1.267483527143e-03 4.745727397600e-08 -1.141729727771e-03 0.000000000000e+00 7.279485604813e+06 6.670792082408e+07  2.087387096829e-03
6.000000000000e-02 1.532842749275e+05 1.000000000000e+00 3.248853657227e+01 -1.454178912725e-03 6.931261890357e-05 2.958680169054e+07 2.115698604204e+03 -4.744674031724e+07 -4.953755704278e+06 1.279403980094e-03 4.666797121372e-08 -1.135750190783e-03 0.000000000000e+00 7.604564776993e+06 6.683139407339e+07  2.092817804100e-03
7.000000000000e-02 1.396033970419e+05 1.000000000000e+00 3.333663388339e+01 -1.447543306246e-03 7.532910636625e-05 2.943374202201e+07 2.106488671432e+03 -4.772163691472e+07 -5.378091060764e+06 1.289479934218e-03 4.598380477926e-08 -1.130199608306e-03 0.000000000000e+00 7.888661984491e+06 6.692455499875e+07  2.097016780639e-03
8.000000000000e-02 1.272616252320e+05 1.000000000000e+00 3.408501698261e+01 -1.441311856861e-03 8.213097423383e-05 2.928994394127e+07 2.098096604585e+03 -4.795124804463e+07 -5.751394449701e+06 1.298004417094e-03 4.536039409920e-08 -1.124862467256e-03 0.000000000000e+00 8.137566184354e+06 6.698852441082e+07  2.100049402831e-03
9.000000000000e-02 1.171514309522e+05 1.000000000000e+00 3.475240659734e+01 -1.435394592876e-03 8.831851754695e-05 2.915214207215e+07 2.088249430117e+03 -4.815056769218e+07 -6.085621075746e+06 1.305300193780e-03 4.462888971014e-08 -1.119851636626e-03 0.000000000000e+00 8.361348898592e+06 6.703308380413e+07  2.102288954498e-03
1.000000000000e-01 1.102700030993e+05 1.000000000000e+00 3.535333115427e+01 -1.429803444818e-03 9.385858618984e-05 2.902031258697e+07 2.083863192283e+03 -4.832709957428e+07 -6.388066365018e+06 1.311637352217e-03 4.430305489961e-08 -1.115174852931e-03 0.000000000000e+00 8.564951117443e+06 6.706436460831e+07  2.103975402325e-03
2.000000000000e-01 1.323285360632e+05 1.000000000000e+00 3.882851230181e+01 -1.392995304279e-03 1.886873191484e-04 2.814121292755e+07 2.040576916809e+03 -4.898107369866e+07 -8.063022569423e+06 1.341197738174e-03 4.108750300728e-08 -1.077252661388e-03 0.000000000000e+00 9.634294446845e+06 6.683143233380e+07  2.098593221020e-03
3.000000000000e-01 1.634809514678e+05 1.000000000000e+00 4.114283854980e+01 -1.361750114801e-03 2.983618140599e-04 2.738671271968e+07 2.019615882718e+03 -4.907744150062e+07 -9.127774771846e+06 1.352721383686e-03 3.953039761765e-08 -1.041284097942e-03 0.000000000000e+00 1.027283451760e+07 6.624217151335e+07  2.079109180629e-03
4.000000000000e-01 1.951054538789e+05 1.000000000000e+00 4.283441461523e+01 -1.335942570883e-03 4.037949554031e-04 2.674139817205e+07 2.033045033943e+03 -4.897841497320e+07 -9.883462565326e+06 1.356820961389e-03 4.052799170865e-08 -1.009537566023e-03 0.000000000000e+00 1.070682645549e+07 6.558691125277e+07  2.056669870031e-03
5.000000000000e-01 2.250536304112e+05 1.000000000000e+00 4.415040921203e+01 -1.313480265307e-03 5.062208520388e-04 2.615981364616e+07 2.068634316438e+03 -4.876387878410e+07 -1.045403623757e+07 1.356411986825e-03 4.317176697971e-08 -9.803763426014e-04 0.000000000000e+00 1.101936712517e+07 6.489136210740e+07  2.032433388682e-03
6.000000000000e-01 2.527628371620e+05 1.000000000000e+00 4.521803578956e+01 -1.293889476192e-03 6.060904069047e-04 2.563383572321e+07 2.129701901682e+03 -4.848347988788e+07 -1.090130616093e+07 1.353488546840e-03 4.770821616924e-08 -9.533486435885e-04 0.000000000000e+00 1.125031677520e+07 6.418961315955e+07  2.007772736076e-03
7.000000000000e-01 2.783759205203e+05 1.000000000000e+00 4.611200689880e+01 -1.276936287821e-03 7.035861805971e-04 2.515857394199e+07 2.222014245195e+03 -4.817082576737e+07 -1.126293912636e+07 1.349268047968e-03 5.456570454450e-08 -9.283036946822e-04 0.000000000000e+00 1.142506365058e+07 6.350558873774e+07  1.983633670264e-03
8.000000000000e-01 3.021549831868e+05 1.000000000000e+00 4.687762356445e+01 -1.262853108533e-03 7.988763371314e-04 2.474374582109e+07 2.326357863884e+03 -4.785936527733e+07 -1.156190383813e+07 1.344964549914e-03 6.231694478992e-08 -9.056307586149e-04 0.000000000000e+00 1.155917443146e+07 6.287613886741e+07  1.961412243455e-03
9.000000000000e-01 3.242063891623e+05 1.000000000000e+00 4.754491141524e+01 -1.250337885125e-03 8.919238287064e-04 2.435777540664e+07 2.438993151015e+03 -4.753540388251e+07 -1.181406087551e+07 1.339994338766e-03 7.068413754825e-08 -8.842320739904e-04 0.000000000000e+00 1.166389645046e+07 6.226172720958e+07  1.939669347309e-03
1.000000000000e+00 3.447021168836e+05 1.000000000000e+00 4.813450181067e+01 -1.239348353907e-03 9.827875123180e-04 2.400343464188e+07 2.557180159157e+03 -4.720718412073e+07 -1.202826946688e+07 1.334789429469e-03 7.946374386736e-08 -8.640847351589e-04 0.000000000000e+00 1.174400631525e+07 6.167167907959e+07  1.918769511994e-03
2.000000000000e+00 4.796083514492e+05 1.000000000000e+00 5.134024697179e+01 -1.178978384044e-03 1.736041372572e-03 2.150622007396e+07 3.323177731074e+03 -4.404863086469e+07 -1.295235578120e+07 1.276358951478e-03 1.363664206383e-07 -7.124438368315e-04 0.000000000000e+00 1.183158885731e+07 5.679705239660e+07  1.745280068645e-03
3.000000000000e+00 5.833219211686e+05 1.000000000000e+00 5.340425544197e+01 -1.137701374542e-03 2.378736586387e-03 1.950373644327e+07 4.328020258643e+03 -4.112825248509e+07 -1.339998102494e+07 1.218607068534e-03 2.110118655434e-07 -5.873465593929e-04 0.000000000000e+00 1.167483235559e+07 5.257256820431e+07  1.595532503851e-03
4.000000000000e+00 6.697138761836e+05 1.000000000000e+00 5.490878741195e+01 -1.105879598521e-03 2.939075280619e-03 1.781600667862e+07 5.221421396606e+03 -3.849808263131e+07 -1.364444248894e+07 1.164999960224e-03 2.773788072207e-07 -4.805745390181e-04 0.000000000000e+00 1.144217281388e+07 4.888118302853e+07  1.465621487470e-03
5.000000000000e+00 7.455225949541e+05 1.000000000000e+00 5.611567461397e+01 -1.079871182614e-03 3.436395542865e-03 1.636152563373e+07 6.099560832785e+03 -3.615928545860e+07 -1.380212587126e+07 1.116833189901e-03 3.426120224797e-07 -3.878481184030e-04 0.000000000000e+00 1.119996189871e+07 4.565152942648e+07  1.353109212309e-03
6.000000000000e+00 8.142012781715e+05 1.000000000000e+00 5.716990263141e+01 -1.056431418572e-03 3.885136917848e-03 1.505452559545e+07 6.841804433764e+03 -3.405700964409e+07 -1.393300289544e+07 1.073148620805e-03 3.977501185524e-07 -3.049024415371e-04 0.000000000000e+00 1.097849564802e+07 4.276210723336e+07  1.253722286004e-03
7.000000000000e+00 8.779416451196e+05 1.000000000000e+00 5.804439804239e+01 -1.036460854732e-03 4.292354978651e-03 1.390612819440e+07 7.403859573539e+03 -3.215609875503e+07 -1.401383543452e+07 1.033496211647e-03 4.395027860786e-07 -2.312948284919e-04 0.000000000000e+00 1.075460199838e+07 4.018952082244e+07  1.166471013649e-03
8.000000000000e+00 9.374371332903e+05 1.000000000000e+00 5.888785285666e+01 -1.018443870295e-03 4.667777757615e-03 1.286381153843e+07 7.765826056313e+03 -3.045120791727e+07 -1.411065259885e+07 9.983776590997e-04 4.663917247990e-07 -1.643742455573e-04 0.000000000000e+00 1.056601632589e+07 3.788684953848e+07  1.089901403729e-03
9.000000000000e+00 9.937702907365e+05 1.000000000000e+00 5.965317849102e+01 -1.001899693697e-03 5.015892463053e-03 1.190753207015e+07 8.096398134798e+03 -2.888487287146e+07 -1.419586670511e+07 9.660238027961e-04 4.909485077721e-07 -1.030309913374e-04 0.000000000000e+00 1.039106916881e+07 3.578529742789e+07  1.021444313653e-03
1.000000000000e+01 1.047436482263e+06 1.000000000000e+00 6.034406425494e+01 -9.862265379604e-04 5.340063103820e-03 1.101645763835e+07 8.383677592932e+03 -2.742513091302e+07 -1.426743550736e+07 9.355850222699e-04 5.122892675192e-07 -4.615373451202e-05 0.000000000000e+00 1.022536959401e+07 3.383900377568e+07  9.594951960053e-04
1.100000000000e+01 1.098728740711e+06 1.000000000000e+00 6.099305104096e+01 -9.721138073206e-04 5.643901903512e-03 1.019842461700e+07 8.388232457512e+03 -2.608084127782e+07 -1.433702460100e+07 9.077856763835e-04 5.126276288880e-07 6.361761130623e-06 0.000000000000e+00 1.007314708727e+07 3.206314905393e+07  9.046220088977e-04
1.200000000000e+01 1.148046968305e+06 1.000000000000e+00 6.158495241901e+01 -9.592778330280e-04 5.929385863533e-03 9.442359123117e+06 8.512791879030e+03 -2.482889931225e+07 -1.439574626552e+07 8.818843341501e-04 5.218806144865e-07 5.504355310534e-05 0.000000000000e+00 9.927428818219e+06 3.042717157875e+07  8.556918495910e-04
1.300000000000e+01 1.195651375571e+06 1.000000000000e+00 6.212186577590e+01 -9.474396997295e-04 6.198104448461e-03 8.739385777954e+06 8.606625813895e+03 -2.365105573062e+07 -1.444152402654e+07 8.574742124533e-04 5.288511353622e-07 1.004923458323e-04 0.000000000000e+00 9.784397993069e+06 2.890770830710e+07  8.119063865642e-04
1.400000000000e+01 1.242259564818e+06 1.000000000000e+00 6.260772773420e+01 -9.366407407715e-04 6.451598475856e-03 8.088136160445e+06 8.610933751282e+03 -2.254135658995e+07 -1.447436059057e+07 8.345045847527e-04 5.291711535681e-07 1.429293862927e-04 0.000000000000e+00 9.642527006691e+06 2.749826317360e+07  7.730150861067e-04
1.500000000000e+01 1.287424572375e+06 1.000000000000e+00 6.304640619305e+01 -9.267789945164e-04 6.690804609473e-03 7.483367901756e+06 8.580747857365e+03 -2.149656865773e+07 -1.449621186670e+07 8.128533825435e-04 5.269287728771e-07 1.825474140316e-04 0.000000000000e+00 9.503137540891e+06 2.619106800769e+07  7.386952889207e-04
1.600000000000e+01 1.331285561731e+06 1.000000000000e+00 6.344141480422e+01 -9.174928131994e-04 6.916730418230e-03 6.915777850274e+06 8.557023764648e+03 -2.050538980377e+07 -1.450770815134e+07 7.921984712036e-04 5.251664117039e-07 2.197896334652e-04 0.000000000000e+00 9.365773368279e+06 2.496856836617e+07  7.083570544138e-04
1.700000000000e+01 1.373981478497e+06 1.000000000000e+00 6.379585170360e+01 -9.083481458613e-04 7.130270555184e-03 6.373602877416e+06 8.502926626982e+03 -1.955546511599e+07 -1.450975613485e+07 7.721366115991e-04 5.211477671915e-07 2.551486183986e-04 0.000000000000e+00 9.230539457807e+06 2.381061594712e+07  6.813860796662e-04
1.800000000000e+01 1.415647055702e+06 1.000000000000e+00 6.411243627664e+01 -8.992790786008e-04 7.332206095945e-03 5.854216404879e+06 8.415627066659e+03 -1.864247701011e+07 -1.450280027777e+07 7.525867536422e-04 5.146626569961e-07 2.888012447829e-04 0.000000000000e+00 9.097020294335e+06 2.271159907262e+07  6.576061010360e-04
1.900000000000e+01 1.456374310886e+06 1.000000000000e+00 6.439355793897e+01 -8.902538723014e-04 7.523233165414e-03 5.355631646946e+06 8.312608252628e+03 -1.776369578627e+07 -1.448745392106e+07 7.334978836695e-04 5.070098308110e-07 3.208716827047e-04 0.000000000000e+00 8.965172686793e+06 2.166778162595e+07  6.368829194545e-04
2.000000000000e+01 1.496247488479e+06 1.000000000000e+00 6.464132393761e+01 -8.819091224280e-04 7.703973822825e-03 4.889870609421e+06 7.997400340440e+03 -1.693137907846e+07 -1.446452540805e+07 7.153465575067e-04 4.835943859056e-07 3.509346727970e-04 0.000000000000e+00 8.835344625696e+06 2.069837353421e+07  6.195455055146e-04
2.100000000000e+01 1.535192835061e+06 1.000000000000e+00 6.490430945776e+01 -8.738723949340e-04 7.876690335407e-03 4.445728824640e+06 7.858508208166e+03 -1.614951919744e+07 -1.445551546715e+07 6.985152076960e-04 4.732766846509e-07 3.796405277161e-04 0.000000000000e+00 8.719768613319e+06 1.980266769963e+07  6.056949855927e-04
2.200000000000e+01 1.573367421283e+06 1.000000000000e+00 6.515088868552e+01 -8.658842329319e-04 8.041797187259e-03 4.016468794089e+06 7.701103115819e+03 -1.539524094223e+07 -1.444457071708e+07 6.821647444157e-04 4.615837349337e-07 4.072500579070e-04 0.000000000000e+00 8.607780955075e+06 1.895426844327e+07  5.944664462375e-04
2.300000000000e+01 1.610838605104e+06 1.000000000000e+00 6.537661456312e+01 -8.586549638620e-04 8.199576993176e-03 3.616318281068e+06 7.462998823993e+03 -1.467976916052e+07 -1.442923606329e+07 6.667324382199e-04 4.438959875409e-07 4.332551512298e-04 0.000000000000e+00 8.497562314250e+06 1.817212079363e+07  5.859842131167e-04
2.400000000000e+01 1.647648407447e+06 1.000000000000e+00 6.558092363964e+01 -8.518217130560e-04 8.350295133998e-03 3.237620841275e+06 7.271035922939e+03 -1.399300430729e+07 -1.440858172497e+07 6.518993721755e-04 4.296358863198e-07 4.579963989261e-04 0.000000000000e+00 8.387988396995e+06 1.744213189116e+07  5.797986561855e-04
2.500000000000e+01 1.683854231988e+06 1.000000000000e+00 6.576416195622e+01 -8.452483766821e-04 8.494208146901e-03 2.876859262014e+06 7.095331190724e+03 -1.333116102488e+07 -1.438264835052e+07 6.375364167519e-04 4.165835347838e-07 4.816159097934e-04 0.000000000000e+00 8.278983371126e+06 1.675852696847e+07  5.756382601045e-04
2.600000000000e+01 1.719493205417e+06 1.000000000000e+00 6.592693404044e+01 -8.387712197073e-04 8.631565358730e-03 2.529736028290e+06 6.917231269735e+03 -1.269080964820e+07 -1.435190792619e+07 6.235014808815e-04 4.033532549389e-07 5.042586023093e-04 0.000000000000e+00 8.170993848701e+06 1.611543433907e+07  5.732585258492e-04
2.700000000000e+01 1.754594764117e+06 1.000000000000e+00 6.606991882819e+01 -8.323474997246e-04 8.762600882830e-03 2.194911510704e+06 6.744084757562e+03 -1.207013860457e+07 -1.431645647631e+07 6.097483735183e-04 3.904909426060e-07 5.259953300771e-04 0.000000000000e+00 8.063894523390e+06 1.551069219072e+07  5.724856563512e-04
2.800000000000e+01 1.789200952596e+06 1.000000000000e+00 6.619379705610e+01 -8.258807235706e-04 8.887535626120e-03 1.869864990761e+06 6.556747845705e+03 -1.146608838225e+07 -1.427637058276e+07 5.961863124458e-04 3.765744862967e-07 5.469425765745e-04 0.000000000000e+00 7.957531324748e+06 1.494065794326e+07  5.731535996529e-04
2.900000000000e+01 1.823338945330e+06 1.000000000000e+00 6.629922534896e+01 -8.193240078913e-04 9.006579601268e-03 1.553066157072e+06 6.357399973881e+03 -1.087763232752e+07 -1.423203116328e+07 5.827726058996e-04 3.617657872469e-07 5.671526230264e-04 0.000000000000e+00 7.852199111245e+06 1.440388482800e+07  5.751220640458e-04
3.000000000000e+01 1.857014548118e+06 1.000000000000e+00 6.638683107441e+01 -8.127043397026e-04 9.119930648550e-03 1.245093908546e+06 6.182424143565e+03 -1.030412013900e+07 -1.418328903262e+07 5.695232146725e-04 3.487675827091e-07 5.866440823183e-04 0.000000000000e+00 7.747438421024e+06 1.390085475672e+07  5.782740809131e-04
3.100000000000e+01 1.890151149754e+06 1.000000000000e+00 6.649419015611e+01 -8.059178583380e-04 9.229141634883e-03 9.407725905743e+05 5.979260074821e+03 -9.755201853381e+06 -1.414769620269e+07 5.568978320363e-04 3.336753947453e-07 6.057104563869e-04 0.000000000000e+00 7.654041821832e+06 1.344172572531e+07  5.828394687368e-04
3.200000000000e+01 1.922830117964e+06 1.000000000000e+00 6.659549687561e+01 -7.988904876890e-04 9.334317954048e-03 6.384950331915e+05 5.770720367138e+03 -9.215846442932e+06 -1.411223869662e+07 5.443533868224e-04 3.181838736031e-07 6.244266642639e-04 0.000000000000e+00 7.563196702121e+06 1.301282153119e+07  5.884902743439e-04
3.300000000000e+01 1.955077302385e+06 1.000000000000e+00 6.668654153658e+01 -7.916204445469e-04 9.435518364910e-03 3.375930928149e+05 5.561694817743e+03 -8.683242207706e+06 -1.407480187669e+07 5.317865185825e-04 3.026562613624e-07 6.428185968321e-04 0.000000000000e+00 7.473483663861e+06 1.261272570730e+07  5.951223915232e-04
3.400000000000e+01 1.986915499709e+06 1.000000000000e+00 6.676628765349e+01 -7.841480795300e-04 9.532767089399e-03 3.907265903268e+04 5.370267475975e+03 -8.158035491223e+06 -1.403491528763e+07 5.192171148768e-04 2.884359445453e-07 6.608447729934e-04 0.000000000000e+00 7.384626039940e+06 1.224352089739e+07  6.026446378626e-04
3.500000000000e+01 2.018386123655e+06 1.000000000000e+00 6.683449116360e+01 -7.761433958648e-04 9.626131952794e-03 -2.643588203391e+05 5.153351511882e+03 -7.632701562180e+06 -1.399242388977e+07 5.063685508652e-04 2.723221872126e-07 6.787789241515e-04 0.000000000000e+00 7.296494757429e+06 1.189954773800e+07  6.110956222027e-04
3.600000000000e+01 2.049530942101e+06 1.000000000000e+00 6.689117753486e+01 -7.672373870843e-04 9.715660805701e-03 -5.804371536377e+05 4.965878456924e+03 -7.099398639301e+06 -1.394730483442e+07 4.929526478584e-04 2.583956174158e-07 6.969114678027e-04 0.000000000000e+00 7.209046875786e+06 1.157721852743e+07  6.205995116935e-04
3.700000000000e+01 2.080435816392e+06 1.000000000000e+00 6.693649244500e+01 -7.560751932610e-04 9.801408890970e-03 -9.387315683799e+05 5.155305502281e+03 -6.529373234959e+06 -1.389985380468e+07 4.778821027777e-04 2.724673407851e-07 7.163213731452e-04 0.000000000000e+00 7.122652869340e+06 1.125988692572e+07  6.317995508323e-04
3.800000000000e+01 2.113302495236e+06 1.000000000000e+00 6.697096015536e+01 -7.005074978957e-04 9.883200826590e-03 -2.248743642320e+06 1.735459783242e+04 -5.033755303087e+06 -1.385644347994e+07 4.276121279696e-04 1.178700485310e-06 7.702605128387e-04 0.000000000000e+00 7.046314141783e+06 1.049610926080e+07  6.684196441187e-04
3.900000000000e+01 2.143157947788e+06 1.000000000000e+00 6.699389720464e+01 -7.033640817572e-04 9.962027414626e-03 -2.289729620657e+06 2.801894563263e+03 -4.774862312818e+06 -1.379930769985e+07 4.239676055136e-04 9.764252817240e-08 7.777543520737e-04 0.000000000000e+00 6.954633211108e+06 1.049016047794e+07  6.744684877519e-04
4.000000000000e+01 2.172544101843e+06 1.000000000000e+00 6.700587688268e+01 -7.088083381593e-04 1.003697052155e-02 -2.272155683694e+06 2.802338188347e+03 -4.587729733086e+06 -1.374229703524e+07 4.225028127726e-04 9.767548317861e-08 7.825874517784e-04 0.000000000000e+00 6.867394150675e+06 1.050552653157e+07  6.784588237221e-04
4.200000000000e+01 2.229827605392e+06 1.000000000000e+00 6.705899311872e+01 -7.187655542972e-04 1.017731616578e-02 -2.240743614706e+06 2.801351543263e+03 -4.248388345934e+06 -1.365000173020e+07 4.202414354335e-04 9.760218954381e-08 7.917634491140e-04 0.000000000000e+00 6.713044563615e+06 1.054969642752e+07  6.861198463878e-04
4.400000000000e+01 2.285593809494e+06 1.000000000000e+00 6.709089078917e+01 -7.279368906875e-04 1.030815480831e-02 -2.210083346260e+06 2.801945543627e+03 -3.921678843886e+06 -1.355429309696e+07 4.178253533124e-04 9.764631528512e-08 8.003434813838e-04 0.000000000000e+00 6.562018429034e+06 1.059263797336e+07  6.933425883271e-04
5.000000000000e+01 2.437116678573e+06 1.000000000000e+00 6.687731638601e+01 -7.470801251768e-04 1.058185623196e-02 -2.128151283047e+06 2.800089089274e+03 -3.101745360701e+06 -1.320999569502e+07 4.080803550169e-04 9.750840724750e-08 8.180099644015e-04 0.000000000000e+00 6.146630779589e+06 1.062854488779e+07  7.084180332644e-04
6.500000000000e+01 2.768502507756e+06 1.000000000000e+00 6.609227659032e+01 -7.732310702525e-04 1.104619356708e-02 -1.951647217775e+06 2.801701279577e+03 -1.424332342255e+06 -1.238099897306e+07 3.838449134828e-04 9.762816995575e-08 8.495225696997e-04 0.000000000000e+00 5.252326177697e+06 1.070275734961e+07  7.368450484067e-04
8.000000000000e+01 3.023556374630e+06 1.000000000000e+00 6.508884968118e+01 -7.825516205041e-04 1.126656085837e-02 -1.822304635629e+06 2.801180143671e+03 -2.783567213184e+05 -1.164869696013e+07 3.614492774822e-04 9.758945700270e-08 8.648875894255e-04 0.000000000000e+00 4.583119439025e+06 1.068237907732e+07  7.523716879340e-04
1.000000000000e+02 3.324236305531e+06 1.000000000000e+00 6.398428875966e+01 -7.869692718099e-04 1.145104463912e-02 -1.692122459396e+06 2.802179739485e+03 8.468731975357e+05 -1.088689150792e+07 3.379889843746e-04 9.766371269174e-08 8.783862124724e-04 0.000000000000e+00 3.910713589927e+06 1.069279098453e+07  7.674073602674e-04
1.860000000000e+02 3.922717201764e+06 1.000000000000e+00 6.134131221386e+01 -7.794008195158e-04 1.167037122534e-02 -1.422845066833e+06 2.803026705991e+03 3.075417711275e+06 -9.215175026877e+06 2.858983896596e-04 9.772663020362e-08 8.990683965440e-04 0.000000000000e+00 2.520867460812e+06 1.077064276689e+07  7.956253469817e-04
2.720000000000e+02 4.213038211969e+06 1.000000000000e+00 5.933681595054e+01 -7.566940130446e-04 1.150228223566e-02 -1.321508471872e+06 2.802123527703e+03 3.729106523971e+06 -8.288390985091e+06 2.552389130632e-04 9.765953695937e-08 8.889248594635e-04 0.000000000000e+00 1.960264310997e+06 1.045147016646e+07  7.927459379913e-04
3.580000000000e+02 4.354403691727e+06 1.000000000000e+00 5.793077727829e+01 -7.368018594853e-04 1.132638846738e-02 -1.265052926524e+06 2.803716195658e+03 4.035059337950e+06 -7.688303810643e+06 2.350468811252e-04 9.777784943601e-08 8.779998689318e-04 0.000000000000e+00 1.639432466406e+06 1.016825040543e+07  7.872481845210e-04
4.440000000000e+02 4.426532453839e+06 1.000000000000e+00 5.685962552591e+01 -7.200919701769e-04 1.116180022880e-02 -1.231509543740e+06 2.804077036125e+03 4.172874512605e+06 -7.262496998022e+06 2.204770965884e-04 9.780465472783e-08 8.673030366644e-04 0.000000000000e+00 1.440377343053e+06 9.908277990279e+06  7.807715932579e-04
5.300000000000e+02 4.465496889446e+06 1.000000000000e+00 5.603562150135e+01 -7.064226642839e-04 1.101915354851e-02 -1.210682815957e+06 2.803612085759e+03 4.228812576749e+06 -6.951418653481e+06 2.096963222517e-04 9.777011555781e-08 8.578263976782e-04 0.000000000000e+00 1.311096297563e+06 9.683536946961e+06  7.745680499949e-04
6.160000000000e+02 4.488012314786e+06 1.000000000000e+00 5.540773413179e+01 -6.955243485190e-04 1.090092839905e-02 -1.197787883048e+06 2.805526326276e+03 4.241512204738e+06 -6.724227468974e+06 2.017367471923e-04 9.791231628196e-08 8.498595684362e-04 0.000000000000e+00 1.226834382428e+06 9.496710318826e+06  7.690976043937e-04
7.020000000000e+02 4.501822576458e+06 1.000000000000e+00 5.494614336095e+01 -6.873206703504e-04 1.081024137537e-02 -1.189531675935e+06 2.805452116662e+03 4.238556467295e+06 -6.561254372931e+06 1.959901198892e-04 9.790680356779e-08 8.436964974781e-04 0.000000000000e+00 1.170743193857e+06 9.352954266758e+06  7.647743183563e-04
7.880000000000e+02 4.511441113274e+06 1.000000000000e+00 5.458452954715e+01 -6.804501185821e-04 1.072851960947e-02 -1.186694085718e+06 2.806222512524e+03 4.200192557476e+06 -6.445463548281e+06 1.917947140388e-04 9.796403297466e-08 8.379707501978e-04 0.000000000000e+00 1.143988358841e+06 9.219632453041e+06  7.604353088226e-04
8.740000000000e+02 4.519827167133e+06 1.000000000000e+00 5.400168344939e+01 -6.700959057207e-04 1.061299352038e-02 -1.176150119038e+06 2.805126480366e+03 4.197614212446e+06 -6.239297997694e+06 1.845287694937e-04 9.788261344286e-08 8.302174055035e-04 0.000000000000e+00 1.072611301429e+06 9.039966626765e+06  7.550581697227e-04
9.370000000000e+02 4.525201002277e+06 1.000000000000e+00 5.359758949594e+01 -6.620307585092e-04 1.051803791744e-02 -1.172976531984e+06 2.805789763059e+03 4.153469249191e+06 -6.110271691427e+06 1.798542399230e-04 9.793188587152e-08 8.237853297784e-04 0.000000000000e+00 1.043259658073e+06 8.890791120089e+06  7.502056795315e-04
1.000000000000e+03 4.529391016053e+06 1.000000000000e+00 5.327744951566e+01 -6.551942235169e-04 1.043853630684e-02 -1.170961345399e+06 2.806503193179e+03 4.112202870889e+06 -6.010071993423e+06 1.762073866417e-04 9.798488353755e-08 8.185308755156e-04 0.000000000000e+00 1.022943489311e+06 8.768959792573e+06  7.461974803109e-04
1.100000000000e+03 4.533536316160e+06 1.000000000000e+00 5.295519145957e+01 -6.480216049863e-04 1.035536424590e-02 -1.169449499584e+06 2.806152278257e+03 4.064743235358e+06 -5.911129057720e+06 1.725885175887e-04 9.795881557198e-08 8.130930657269e-04 0.000000000000e+00 1.005278440649e+06 8.642869138003e+06  7.420085119788e-04
1.200000000000e+03 4.536797682874e+06 1.000000000000e+00 5.267850939785e+01 -6.420852981401e-04 1.028624568968e-02 -1.167760735549e+06 2.805829896722e+03 4.028480918770e+06 -5.824725369955e+06 1.694419632787e-04 9.793486722932e-08 8.085368998510e-04 0.000000000000e+00 9.880017289115e+05 8.537387432361e+06  7.385407547455e-04
1.300000000000e+03 4.539703052077e+06 1.000000000000e+00 5.241293296211e+01 -6.364521114613e-04 1.022045729483e-02 -1.166060297121e+06 2.806589422961e+03 3.994654485347e+06 -5.741474367035e+06 1.664129423119e-04 9.799128917854e-08 8.041883093582e-04 0.000000000000e+00 9.709600596029e+05 8.436813476336e+06  7.352447146026e-04
1.400000000000e+03 4.542442562524e+06 1.000000000000e+00 5.214105380058e+01 -6.306492528997e-04 1.015248039653e-02 -1.164447637520e+06 2.806428193508e+03 3.958677962691e+06 -5.656688761932e+06 1.633236614789e-04 9.797931213345e-08 7.997028588985e-04 0.000000000000e+00 9.541528122536e+05 8.333125786300e+06  7.318394022726e-04
1.500000000000e+03 4.545082446453e+06 1.000000000000e+00 5.185280185966e+01 -6.244026001619e-04 1.007909383826e-02 -1.162993505161e+06 2.807032649825e+03 3.917775308093e+06 -5.567698076846e+06 1.600723038062e-04 9.802421460268e-08 7.948782491389e-04 0.000000000000e+00 9.376387579713e+05 8.221614400790e+06  7.281597418431e-04
1.600000000000e+03 4.547643486991e+06 1.000000000000e+00 5.154203532847e+01 -6.175450038206e-04 9.998324042602e-03 -1.161745661590e+06 2.807895962624e+03 3.870222019251e+06 -5.472884359061e+06 1.565969999068e-04 9.808834641064e-08 7.895903317499e-04 0.000000000000e+00 9.214693338000e+05 8.099391943597e+06  7.241050090486e-04
1.700000000000e+03 4.550130771773e+06 1.000000000000e+00 5.120496310406e+01 -6.099736888732e-04 9.908952071031e-03 -1.160733856709e+06 2.807387854850e+03 3.814931907886e+06 -5.371255505154e+06 1.528597952287e-04 9.805060126172e-08 7.837619130398e-04 0.000000000000e+00 9.056858179923e+05 7.964666622937e+06  7.196132271127e-04
1.800000000000e+03 4.552544175197e+06 1.000000000000e+00 5.083929706477e+01 -6.016268284335e-04 9.810238660621e-03 -1.159974860875e+06 2.808209698950e+03 3.751274675055e+06 -5.262204794075e+06 1.488375315197e-04 9.811165253768e-08 7.773470465517e-04 0.000000000000e+00 8.903016599650e+05 7.816377737984e+06  7.146486233852e-04
1.900000000000e+03 4.554883463306e+06 1.000000000000e+00 5.044375052886e+01 -5.924694763543e-04 9.701767532940e-03 -1.159483262759e+06 2.807792095228e+03 3.678838613844e+06 -5.145409776387e+06 1.445176902212e-04 9.808063054696e-08 7.703184636211e-04 0.000000000000e+00 8.753514751008e+05 7.653900172733e+06  7.091905822448e-04
2.000000000000e+03 4.557147803229e+06 1.000000000000e+00 5.001772135123e+01 -5.824845787968e-04 9.583348706305e-03 -1.159262020657e+06 2.808820195063e+03 3.597482189132e+06 -5.020703049669e+06 1.398939436498e-04 9.815700367750e-08 7.626646894252e-04 0.000000000000e+00 8.608276270647e+05 7.476981558257e+06  7.032322530887e-04