 TITLE = "Time curves in points"
 VARIABLES = "TIME "  "PRESSURE1"  "SATURATION1"  "TEMPERATURE1"  "DISPLACEMENT_X1"  "DISPLACEMENT_Y1"  "STRESS_XX"  "STRESS_XY"  "STRESS_YY"  "STRESS_ZZ"  "STRAIN_XX"  "STRAIN_XY"  "STRAIN_YY"  "STRAIN_PLS"  p_(1st_Invariant)  q_(2nd_Invariant)   Effective_Strain
 ZONE T="POINT=POINT18"
0.000000000000e+00 1.000000000000e+05 1.000000000000e+00 2.500000000000e+01 0.000000000000e+00 0.000000000000e+00 -3.130685851467e+07 -1.409868786187e+04 -1.352808692198e+07 -1.044743363099e+07 0.000000000000e+00 0.000000000000e+00 0.000000000000e+00 0.000000000000e+00 1.842745968921e+07 1.950246065449e+07  0.000000000000e+00
1.000000000000e-03 3.083645742071e+05 1.000000000000e+00 2.500000000001e+01 -8.662244974222e-05 6.303357989643e-05 -3.055838071867e+07 -1.351274458835e+04 -1.354850590104e+07 -1.022901598592e+07 1.968794846285e-05 4.352721460426e-08 -8.871074610624e-06 0.000000000000e+00 1.811196753521e+07 1.888966676004e+07  2.531738973556e-05
2.000000000000e-03 3.159688612153e+05 1.000000000000e+00 2.499999999999e+01 -8.632253221594e-05 6.240423680111e-05 -3.056028853461e+07 -1.356057323457e+04 -1.354810875826e+07 -1.022946918786e+07 1.963391994288e-05 3.997422945666e-08 -8.839490378133e-06 0.000000000000e+00 1.811262216025e+07 1.889141270507e+07  2.524254429937e-05
3.000000000000e-03 3.211298073682e+05 1.000000000000e+00 2.499999999994e+01 -8.609449512659e-05 6.190710840093e-05 -3.056195848897e+07 -1.358869039103e+04 -1.354821131425e+07 -1.023000094095e+07 1.959164389588e-05 3.788552640517e-08 -8.823548771707e-06 0.000000000000e+00 1.811339024806e+07 1.889269327883e+07  2.519046753917e-05
4.000000000000e-03 3.246441156061e+05 1.000000000000e+00 2.499999999989e+01 -8.590847900462e-05 6.138370477912e-05 -3.056365716730e+07 -1.360814633841e+04 -1.354895990959e+07 -1.023073512304e+07 1.955581974939e-05 3.644022745757e-08 -8.824084121141e-06 0.000000000000e+00 1.811445073331e+07 1.889364137023e+07  2.515672333283e-05
1.000000000000e-02 3.282971800417e+05 1.000000000000e+00 2.499999999994e+01 -8.482614427875e-05 5.856324153900e-05 -3.057639618381e+07 -1.367044749209e+04 -1.355744044670e+07 -1.023710098913e+07 1.931910273397e-05 3.181214175521e-08 -8.902629044643e-06 0.000000000000e+00 1.812364587321e+07 1.889917404013e+07  2.498956533245e-05
2.000000000000e-02 3.209719639921e+05 1.000000000000e+00 2.499999999911e+01 -8.240937571880e-05 5.672180155597e-05 -3.060071389624e+07 -1.373049300913e+04 -1.356495051839e+07 -1.024664932456e+07 1.877052587399e-05 2.735161763243e-08 -8.826922105999e-06 0.000000000000e+00 1.813743791306e+07 1.891451073152e+07  2.441178833193e-05
3.000000000000e-02 3.083466438113e+05 1.000000000000e+00 2.499999998948e+01 -7.952401881293e-05 5.706014570095e-05 -3.062653422316e+07 -1.377137075702e+04 -1.356608637100e+07 -1.025473618207e+07 1.811185415319e-05 2.431498493162e-08 -8.568741923723e-06 0.000000000000e+00 1.814911892541e+07 1.893456118214e+07  2.359364695583e-05
4.000000000000e-02 2.935042419455e+05 1.000000000000e+00 2.499999996592e+01 -7.633502920774e-05 5.973253386397e-05 -3.065213614810e+07 -1.380189676876e+04 -1.356039141997e+07 -1.026070831105e+07 1.738274744583e-05 2.204733834546e-08 -8.135393237563e-06 0.000000000000e+00 1.815774529304e+07 1.895820559361e+07  2.257789795733e-05
5.000000000000e-02 2.781875260762e+05 1.000000000000e+00 2.500000002206e+01 -7.295418071656e-05 6.340830689597e-05 -3.067809836485e+07 -1.382578870168e+04 -1.355155554796e+07 -1.026584641981e+07 1.660928057783e-05 2.027250904312e-08 -7.616359666409e-06 0.000000000000e+00 1.816516677754e+07 1.898388171207e+07  2.145648208551e-05
6.000000000000e-02 2.628168561542e+05 1.000000000000e+00 2.500000066198e+01 -6.945361224347e-05 6.940146871151e-05 -3.070230226680e+07 -1.384478199944e+04 -1.353614633592e+07 -1.026848562252e+07 1.580830603455e-05 1.886157835246e-08 -6.945989975543e-06 0.000000000000e+00 1.816897807508e+07 1.901179277056e+07  2.019788897251e-05
7.000000000000e-02 2.482547341943e+05 1.000000000000e+00 2.500000344145e+01 -6.587159645280e-05 7.541233127786e-05 -3.072708719729e+07 -1.385930029943e+04 -1.352040512376e+07 -1.027120113759e+07 1.498858489047e-05 1.778307606688e-08 -6.260454392508e-06 0.000000000000e+00 1.817289781955e+07 1.904037370290e+07  1.891262189776e-05
8.000000000000e-02 2.351204382354e+05 1.000000000000e+00 2.500001194551e+01 -6.223008437538e-05 8.220939120313e-05 -3.075144996607e+07 -1.387145447149e+04 -1.350244849301e+07 -1.027312899226e+07 1.415528808067e-05 1.688019471398e-08 -5.521887791497e-06 0.000000000000e+00 1.817567581711e+07 1.906986288185e+07  1.757919772599e-05
9.000000000000e-02 2.243278820478e+05 1.000000000000e+00 2.500003296209e+01 -5.854371354702e-05 8.839175178293e-05 -3.077686146780e+07 -1.388204461669e+04 -1.348600559643e+07 -1.027583263995e+07 1.331185350204e-05 1.609349821356e-08 -4.810730432615e-06 0.000000000000e+00 1.817956656806e+07 1.909937494321e+07  1.626004571685e-05
1.000000000000e-01 2.168957684082e+05 1.000000000000e+00 2.500007761001e+01 -5.482766634957e-05 9.392755991531e-05 -3.080323477943e+07 -1.389119589776e+04 -1.347118736149e+07 -1.027932451862e+07 1.246197170653e-05 1.541368876250e-08 -4.130640498407e-06 0.000000000000e+00 1.818458221985e+07 1.912877291270e+07  1.496126891369e-05
2.000000000000e-01 2.305341307151e+05 1.000000000000e+00 2.502667785427e+01 -1.815300692049e-05 1.887325306014e-04 -3.102021463454e+07 -1.394678900149e+04 -1.322435742580e+07 -1.028084925256e+07 4.459352920229e-06 1.128391534281e-08 5.093961516438e-06 0.000000000000e+00 1.817514043763e+07 1.943552440358e+07  4.808209876293e-06
3.000000000000e-01 2.539214394194e+05 1.000000000000e+00 2.509252329424e+01 1.674728439038e-05 2.983914997838e-04 -3.121653821577e+07 -1.396835786702e+04 -1.295949457588e+07 -1.028545181489e+07 -2.661713496414e-06 9.681656760470e-09 1.510267682823e-05 0.000000000000e+00 1.815382820218e+07 1.973045483216e+07  1.659442213709e-05
4.000000000000e-01 2.778423091103e+05 1.000000000000e+00 2.519884269878e+01 4.885302697690e-05 4.038126593885e-04 -3.141006264541e+07 -1.396511424357e+04 -1.273105400941e+07 -1.031486823992e+07 -8.757153667533e-06 9.922611645190e-09 2.468022222662e-05 0.000000000000e+00 1.815199496491e+07 1.999689618976e+07  3.003214783318e-05
5.000000000000e-01 3.006475961306e+05 1.000000000000e+00 2.534048625288e+01 7.779491995201e-05 5.062272701480e-04 -3.159833783834e+07 -1.395303845191e+04 -1.253435887337e+07 -1.036480220788e+07 -1.389554202323e-05 1.081967045436e-08 3.384073180422e-05 0.000000000000e+00 1.816583297320e+07 2.023618632049e+07  4.252666080522e-05
6.000000000000e-01 3.220252544701e+05 1.000000000000e+00 2.551037594283e+01 1.034842303458e-04 6.060825136945e-04 -3.178026028039e+07 -1.394305055446e+04 -1.236497909977e+07 -1.043087288620e+07 -1.819860753331e-05 1.156162855072e-08 4.258603430394e-05 0.000000000000e+00 1.819203742212e+07 2.045105643636e+07  5.403486429703e-05
7.000000000000e-01 3.420510716151e+05 1.000000000000e+00 2.570176351378e+01 1.260309635646e-04 7.035621290650e-04 -3.195550315349e+07 -1.393998365239e+04 -1.221881554050e+07 -1.050925025234e+07 -2.179646922079e-05 1.178945556195e-08 5.092612581919e-05 0.000000000000e+00 1.822785631544e+07 2.064464071916e+07  6.464183252639e-05
8.000000000000e-01 3.610102804769e+05 1.000000000000e+00 2.590902648960e+01 1.456355809008e-04 7.988316071487e-04 -3.212390934798e+07 -1.394557403517e+04 -1.209215542009e+07 -1.059673786164e+07 -2.480201667053e-05 1.137416998378e-08 5.888018435136e-05 0.000000000000e+00 1.827093420991e+07 2.081979488586e+07  7.444705395203e-05
9.000000000000e-01 3.788545362835e+05 1.000000000000e+00 2.612776105893e+01 1.626318534928e-04 8.918571417150e-04 -3.228641379236e+07 -1.395795476857e+04 -1.198222752428e+07 -1.069122118016e+07 -2.732851563097e-05 1.045445835987e-08 6.647260088329e-05 0.000000000000e+00 1.831995416560e+07 2.097951608467e+07  8.355867564136e-05
1.000000000000e+00 3.956971755042e+05 1.000000000000e+00 2.635461483039e+01 1.772982612999e-04 9.826964948496e-04 -3.244336142733e+07 -1.397593020895e+04 -1.188658350730e+07 -1.079089938458e+07 -2.945566590868e-05 9.119139931161e-09 7.372742624964e-05 0.000000000000e+00 1.837361477307e+07 2.112595473136e+07  9.206009081525e-05
2.000000000000e+00 5.150057005443e+05 1.000000000000e+00 2.862803369777e+01 2.303591079691e-04 1.735802161573e-03 -3.369496957713e+07 -1.415002797571e+04 -1.148001640155e+07 -1.184702810123e+07 -3.671633056873e-05 -3.813837028090e-09 1.280561282245e-04 0.000000000000e+00 1.900733802664e+07 2.203375354151e+07  1.498272741699e-04
3.000000000000e+00 6.107955401172e+05 1.000000000000e+00 3.070915668382e+01 2.466366233192e-04 2.378438325932e-03 -3.473675819175e+07 -1.424914365508e+04 -1.129153580810e+07 -1.283353588586e+07 -3.876961853952e-05 -1.117671606679e-08 1.716985536960e-04 0.000000000000e+00 1.962060996190e+07 2.271352661376e+07  1.940107328689e-04
4.000000000000e+00 6.926709466894e+05 1.000000000000e+00 3.256538004208e+01 2.486462075430e-04 2.938759417250e-03 -3.562639427184e+07 -1.429705676220e+04 -1.119370380725e+07 -1.372103178692e+07 -3.884911090339e-05 -1.473597545290e-08 2.082964471958e-04 0.000000000000e+00 2.018037662200e+07 2.327219244169e+07  2.301929533277e-04
5.000000000000e+00 7.655249111925e+05 1.000000000000e+00 3.421390787346e+01 2.454343560654e-04 3.436085856325e-03 -3.640058918735e+07 -1.431732023421e+04 -1.113430752857e+07 -1.451206653075e+07 -3.822363156555e-05 -1.624126194501e-08 2.398838851750e-04 0.000000000000e+00 2.068232108222e+07 2.375818699669e+07  2.611025821655e-04
6.000000000000e+00 8.320077753292e+05 1.000000000000e+00 3.568672709171e+01 2.408993816972e-04 3.884839608365e-03 -3.708757483569e+07 -1.432476665893e+04 -1.109018160476e+07 -1.521983772871e+07 -3.745159686577e-05 -1.679442492457e-08 2.678114925548e-04 0.000000000000e+00 2.113253138972e+07 2.419832299850e+07  2.883671037992e-04
7.000000000000e+00 8.939780013256e+05 1.000000000000e+00 3.700928499243e+01 2.355414629648e-04 4.292070488312e-03 -3.769902861348e+07 -1.432661054563e+04 -1.105686410374e+07 -1.585553493473e+07 -3.655112667432e-05 -1.693139936483e-08 2.926606102444e-04 0.000000000000e+00 2.153714255065e+07 2.459645928901e+07  3.125432666807e-04
8.000000000000e+00 9.520385251083e+05 1.000000000000e+00 3.821072828023e+01 2.308271860590e-04 4.667502220980e-03 -3.825552989436e+07 -1.432642436079e+04 -1.102482538312e+07 -1.643279776008e+07 -3.577998359392e-05 -1.691756849106e-08 3.152918105237e-04 0.000000000000e+00 2.190438434586e+07 2.496988488852e+07  3.346195894979e-04
9.000000000000e+00 1.007090265161e+06 1.000000000000e+00 3.931176278117e+01 2.264783895039e-04 5.015626778580e-03 -3.876509334219e+07 -1.432465219324e+04 -1.099493354016e+07 -1.696153450031e+07 -3.506783273344e-05 -1.678592175883e-08 3.360408721848e-04 0.000000000000e+00 2.224052046089e+07 2.531974043896e+07  3.548766639468e-04
1.000000000000e+01 1.059630026795e+06 1.000000000000e+00 4.032707741051e+01 2.223405997812e-04 5.339804389657e-03 -3.923408570221e+07 -1.432286058291e+04 -1.096738429142e+07 -1.744883550660e+07 -3.438779730025e-05 -1.665283070556e-08 3.551638816578e-04 0.000000000000e+00 2.255010183341e+07 2.564774819992e+07  3.735467947128e-04
1.100000000000e+01 1.109950421428e+06 1.000000000000e+00 4.126965433923e+01 2.185183636839e-04 5.643646221182e-03 -3.966912007634e+07 -1.432154718179e+04 -1.094064331672e+07 -1.790077464599e+07 -3.375990601931e-05 -1.655526376562e-08 3.729434287523e-04 0.000000000000e+00 2.283684601302e+07 2.595795541317e+07  3.909182372714e-04
1.200000000000e+01 1.158413882779e+06 1.000000000000e+00 4.214857043246e+01 2.148162396480e-04 5.929133291999e-03 -4.007359109208e+07 -1.432000984964e+04 -1.091542484336e+07 -1.832174552136e+07 -3.314705409051e-05 -1.644106194806e-08 3.895161759908e-04 0.000000000000e+00 2.310358715227e+07 2.625067866820e+07  4.071030497539e-04
1.300000000000e+01 1.205265299516e+06 1.000000000000e+00 4.297047234280e+01 2.111467727472e-04 6.197855244551e-03 -4.045037279070e+07 -1.431884488917e+04 -1.089192190673e+07 -1.871498237803e+07 -3.253586250563e-05 -1.635452202764e-08 4.049950825994e-04 0.000000000000e+00 2.335242569182e+07 2.652669146695e+07  4.222042922615e-04
1.400000000000e+01 1.251209076377e+06 1.000000000000e+00 4.374060669033e+01 2.074635212127e-04 6.451351686679e-03 -4.080155662780e+07 -1.431746834132e+04 -1.086955711195e+07 -1.908276968841e+07 -3.191916206950e-05 -1.625226418770e-08 4.194864465053e-04 0.000000000000e+00 2.358462780939e+07 2.678701543567e+07  4.363225508420e-04
1.500000000000e+01 1.295783112604e+06 1.000000000000e+00 4.446330111696e+01 2.037530107063e-04 6.690557676055e-03 -4.112943959291e+07 -1.431665673014e+04 -1.084878782734e+07 -1.942744565152e+07 -3.129542214366e-05 -1.619197307136e-08 4.330601271348e-04 0.000000000000e+00 2.380189102392e+07 2.703228636505e+07  4.495256137752e-04
1.600000000000e+01 1.339126535002e+06 1.000000000000e+00 4.514221972373e+01 2.000295305040e-04 6.916484507932e-03 -4.143592426183e+07 -1.431557446285e+04 -1.082943505191e+07 -1.975080849077e+07 -3.066851867424e-05 -1.611157607223e-08 4.457895642513e-04 0.000000000000e+00 2.400538926817e+07 2.726346971141e+07  4.618880816689e-04
1.700000000000e+01 1.381365795013e+06 1.000000000000e+00 4.578051418650e+01 1.963140057162e-04 7.130022965228e-03 -4.172270050193e+07 -1.431478908078e+04 -1.081131600877e+07 -2.005441275822e+07 -3.004347765851e-05 -1.605323340460e-08 4.577392872160e-04 0.000000000000e+00 2.419614308964e+07 2.748148878815e+07  4.734764476010e-04
1.800000000000e+01 1.422617137087e+06 1.000000000000e+00 4.638092535821e+01 1.926077038185e-04 7.331958625010e-03 -4.199108791120e+07 -1.431404148426e+04 -1.079428015892e+07 -2.033956807153e+07 -2.942066979426e-05 -1.599769766298e-08 4.689635304191e-04 0.000000000000e+00 2.437497871388e+07 2.768702652855e+07  4.843444958045e-04
1.900000000000e+01 1.462968263806e+06 1.000000000000e+00 4.694585756710e+01 1.889117174176e-04 7.522982952083e-03 -4.224224877108e+07 -1.431324183552e+04 -1.077820993915e+07 -2.060742908731e+07 -2.880037828899e-05 -1.593829518494e-08 4.795095477399e-04 0.000000000000e+00 2.454262926585e+07 2.788069171167e+07  4.945391039073e-04
2.000000000000e+01 1.502501691781e+06 1.000000000000e+00 4.747743433837e+01 1.851895340844e-04 7.703715516313e-03 -4.247688889949e+07 -1.431330448564e+04 -1.076302292814e+07 -2.085892584395e+07 -2.817427495501e-05 -1.594294919388e-08 4.894149448237e-04 0.000000000000e+00 2.469961255719e+07 2.806273424338e+07  5.040929378310e-04
2.100000000000e+01 1.541134806753e+06 1.000000000000e+00 4.798107936901e+01 1.818959749134e-04 7.876430747587e-03 -4.269990728491e+07 -1.431278574302e+04 -1.074606255109e+07 -2.109666391766e+07 -2.762754367573e-05 -1.590441402777e-08 4.988751729947e-04 0.000000000000e+00 2.484754458455e+07 2.823901994618e+07  5.132469345154e-04
2.200000000000e+01 1.579004510446e+06 1.000000000000e+00 4.845978443253e+01 1.788139618717e-04 8.041534172248e-03 -4.291163111931e+07 -1.431247810893e+04 -1.072868432024e+07 -2.132218358954e+07 -2.711512685498e-05 -1.588156120970e-08 5.078970950962e-04 0.000000000000e+00 2.498749967636e+07 2.840835937856e+07  5.219831263853e-04
2.300000000000e+01 1.616186665030e+06 1.000000000000e+00 4.891512912805e+01 1.757817182618e-04 8.199308753574e-03 -4.311196692621e+07 -1.431207342020e+04 -1.071154721470e+07 -2.153619454817e+07 -2.660719264805e-05 -1.585149861846e-08 5.164825946226e-04 0.000000000000e+00 2.511990289636e+07 2.856987373177e+07  5.302870598997e-04
2.400000000000e+01 1.652735096516e+06 1.000000000000e+00 4.934818842890e+01 1.727692542744e-04 8.350021710934e-03 -4.330142334554e+07 -1.431191056046e+04 -1.069485984059e+07 -2.173928174488e+07 -2.610090663090e-05 -1.583940046678e-08 5.246456501103e-04 0.000000000000e+00 2.524518831033e+07 2.872363502583e+07  5.381710168590e-04
2.500000000000e+01 1.688695977542e+06 1.000000000000e+00 4.975985277405e+01 1.697622404629e-04 8.493931526279e-03 -4.348040957584e+07 -1.431162221984e+04 -1.067867978548e+07 -2.193189414302e+07 -2.559479182549e-05 -1.581798087736e-08 5.324007983736e-04 0.000000000000e+00 2.536366116811e+07 2.886977707664e+07  5.456485973868e-04
2.600000000000e+01 1.724104670126e+06 1.000000000000e+00 5.015092723402e+01 1.667626570992e-04 8.631284026877e-03 -4.364937271211e+07 -1.431112265806e+04 -1.066300831934e+07 -2.211444692892e+07 -2.509003341067e-05 -1.578087057403e-08 5.397634134495e-04 0.000000000000e+00 2.547560932012e+07 2.900853270521e+07  5.527356828536e-04
2.700000000000e+01 1.758987597520e+06 1.000000000000e+00 5.052216335441e+01 1.637691547970e-04 8.762316616412e-03 -4.380867862137e+07 -1.431112292432e+04 -1.064782589133e+07 -2.228730659654e+07 -2.458660810008e-05 -1.578089035346e-08 5.467478341446e-04 0.000000000000e+00 2.558127036975e+07 2.914009563772e+07  5.594464861937e-04
2.800000000000e+01 1.793380872209e+06 1.000000000000e+00 5.087426952318e+01 1.607856234856e-04 8.887247784565e-03 -4.395871268707e+07 -1.431096133128e+04 -1.063311664592e+07 -2.245083175438e+07 -2.408551039220e-05 -1.576888629891e-08 5.533679691224e-04 0.000000000000e+00 2.568088702912e+07 2.926468787566e+07  5.657953444298e-04
2.900000000000e+01 1.827308105636e+06 1.000000000000e+00 5.120791443358e+01 1.578128229718e-04 9.006286269514e-03 -4.409980859610e+07 -1.431065918727e+04 -1.061885960259e+07 -2.260535016974e+07 -2.358696015705e-05 -1.574644131542e-08 5.596367718737e-04 0.000000000000e+00 2.577467278948e+07 2.938250222016e+07  5.717952361704e-04
3.000000000000e+01 1.860783375016e+06 1.000000000000e+00 5.152372880643e+01 1.548506085416e-04 9.119634111303e-03 -4.423226654338e+07 -1.431048526053e+04 -1.060502162595e+07 -2.275116266413e+07 -2.309093412145e-05 -1.573352104298e-08 5.655666465119e-04 0.000000000000e+00 2.586281694449e+07 2.949372302260e+07  5.774584710643e-04
3.100000000000e+01 1.893718169478e+06 1.000000000000e+00 5.182510665162e+01 1.522492219439e-04 9.228840119195e-03 -4.435945309172e+07 -1.431045778016e+04 -1.058955527997e+07 -2.288988034304e+07 -2.266263498622e-05 -1.573147964397e-08 5.712934817219e-04 0.000000000000e+00 2.594629623824e+07 2.960276826261e+07  5.829552758756e-04
3.200000000000e+01 1.926179427185e+06 1.000000000000e+00 5.211364154383e+01 1.498274818154e-04 9.334011286022e-03 -4.448117359287e+07 -1.431013378719e+04 -1.057357190826e+07 -2.302232683962e+07 -2.226424087018e-05 -1.570741159475e-08 5.768065911155e-04 0.000000000000e+00 2.602569078025e+07 2.970841870584e+07  5.882547930924e-04
3.300000000000e+01 1.958197674991e+06 1.000000000000e+00 5.238991063906e+01 1.474881704545e-04 9.435206284927e-03 -4.459726466774e+07 -1.431018694990e+04 -1.055753596640e+07 -2.314878439409e+07 -2.187920019907e-05 -1.571136082482e-08 5.820992066938e-04 0.000000000000e+00 2.610119500941e+07 2.981007549275e+07  5.933414292416e-04
3.400000000000e+01 1.989804972375e+06 1.000000000000e+00 5.265417597812e+01 1.451895351603e-04 9.532452174530e-03 -4.470771345770e+07 -1.431027327496e+04 -1.054169827201e+07 -2.326941103529e+07 -2.150116572444e-05 -1.571777354330e-08 5.871678820156e-04 0.000000000000e+00 2.617294092167e+07 2.990746817529e+07  5.982083386903e-04
3.500000000000e+01 2.021024758956e+06 1.000000000000e+00 5.290662582761e+01 1.429314341393e-04 9.625812221461e-03 -4.481268263101e+07 -1.431021108683e+04 -1.052610202947e+07 -2.338433230441e+07 -2.113151645159e-05 -1.571315385364e-08 5.920156753059e-04 0.000000000000e+00 2.624103898830e+07 3.000065933911e+07  6.028592626132e-04
3.600000000000e+01 2.051884719322e+06 1.000000000000e+00 5.314744268009e+01 1.407267852413e-04 9.715335566350e-03 -4.491241999717e+07 -1.431003060333e+04 -1.051079875452e+07 -2.349370104586e+07 -2.077377965516e-05 -1.569974650844e-08 5.966463502005e-04 0.000000000000e+00 2.630563993252e+07 3.008978270282e+07  6.072997757938e-04
3.700000000000e+01 2.082413000752e+06 1.000000000000e+00 5.337681950422e+01 1.386155389135e-04 9.801090675159e-03 -4.500737050289e+07 -1.430976286274e+04 -1.049576315856e+07 -2.359771038616e+07 -2.043730865642e-05 -1.567985720724e-08 6.010680192617e-04 0.000000000000e+00 2.636694801587e+07 3.017521199241e+07  6.115428527381e-04
3.800000000000e+01 2.112845139535e+06 1.000000000000e+00 5.359497491803e+01 1.374456537698e-04 9.883173875099e-03 -4.510475869884e+07 -1.429977788395e+04 -1.048020840676e+07 -2.369836817642e+07 -2.031586658226e-05 -1.493811592597e-08 6.053844851095e-04 0.000000000000e+00 2.642777842734e+07 3.026395556372e+07  6.157938131763e-04
3.900000000000e+01 2.142894966782e+06 1.000000000000e+00 5.380210113052e+01 1.356417094838e-04 9.961651216349e-03 -4.519140306075e+07 -1.430765904475e+04 -1.046546249838e+07 -2.379218532140e+07 -2.004944892512e-05 -1.552357358510e-08 6.094168270916e-04 0.000000000000e+00 2.648301696017e+07 3.034320547712e+07  6.196848568558e-04
4.000000000000e+01 2.172437344417e+06 1.000000000000e+00 5.399839085424e+01 1.331140643659e-04 1.003659575906e-02 -4.526665497098e+07 -1.431014436905e+04 -1.045160546839e+07 -2.387905858332e+07 -1.961779871965e-05 -1.570819767596e-08 6.131582379340e-04 0.000000000000e+00 2.653243967423e+07 3.041228926721e+07  6.231987631633e-04
4.200000000000e+01 2.229794042558e+06 1.000000000000e+00 5.435964317814e+01 1.281380949771e-04 1.017694172469e-02 -4.539990214727e+07 -1.431062848354e+04 -1.042144477507e+07 -2.403599209279e+07 -1.873802063005e-05 -1.574416046647e-08 6.201074511802e-04 0.000000000000e+00 2.661911300504e+07 3.053904271900e+07  6.296855972491e-04
4.400000000000e+01 2.285576884379e+06 1.000000000000e+00 5.469216524630e+01 1.232642005906e-04 1.030778148319e-02 -4.551907126086e+07 -1.431044451383e+04 -1.039111349197e+07 -2.417861952421e+07 -1.786671168193e-05 -1.573049414517e-08 6.265316320053e-04 0.000000000000e+00 2.669626809235e+07 3.065521854969e+07  6.356533379606e-04
5.000000000000e+01 2.437105137907e+06 1.000000000000e+00 5.537542487307e+01 1.092955717455e-04 1.058148205032e-02 -4.573804526003e+07 -1.430954207577e+04 -1.033121563414e+07 -2.446428036414e+07 -1.538977188218e-05 -1.566345588931e-08 6.393666693510e-04 0.000000000000e+00 2.684451375277e+07 3.087038551948e+07  6.471988032143e-04
6.500000000000e+01 2.768492778246e+06 1.000000000000e+00 5.631568444907e+01 8.291893091556e-05 1.104582160664e-02 -4.593497240965e+07 -1.430714725233e+04 -1.011750398830e+07 -2.478603131352e+07 -1.075345931949e-05 -1.548555471986e-08 6.592552800305e-04 0.000000000000e+00 2.694616923716e+07 3.118762315133e+07  6.646972519048e-04
8.000000000000e+01 3.023548866355e+06 1.000000000000e+00 5.663856843990e+01 6.338609291003e-05 1.126618827703e-02 -4.589868330480e+07 -1.430545291415e+04 -9.966249633678e+06 -2.484100393860e+07 -7.363737922353e-06 -1.535968959800e-08 6.669151392765e-04 0.000000000000e+00 2.690197895903e+07 3.127159408574e+07  6.706273306705e-04
1.000000000000e+02 3.324229702403e+06 1.000000000000e+00 5.678970180489e+01 4.516998035509e-05 1.145067467530e-02 -4.577216464559e+07 -1.430389912546e+04 -9.782623135716e+06 -2.479919399942e+07 -4.217414035425e-06 -1.524426529520e-08 6.721826114600e-04 0.000000000000e+00 2.678466059358e+07 3.130983251257e+07  6.743012107415e-04
1.860000000000e+02 3.922714136886e+06 1.000000000000e+00 5.651433973951e+01 1.193183399914e-05 1.167000294065e-02 -4.520793863177e+07 -1.430092055698e+04 -9.307809560556e+06 -2.438799055212e+07 1.466281292433e-06 -1.502300020830e-08 6.745452733517e-04 0.000000000000e+00 2.630124624815e+07 3.122260872513e+07  6.738133297463e-04
2.720000000000e+02 4.213036725824e+06 1.000000000000e+00 5.565863375131e+01 -2.821786371531e-06 1.150191365704e-02 -4.462984594676e+07 -1.429985954521e+04 -9.181081925246e+06 -2.387553743680e+07 3.904322451966e-06 -1.494418219098e-08 6.602183269513e-04 0.000000000000e+00 2.589548843627e+07 3.084869885487e+07  6.582748502025e-04
3.580000000000e+02 4.354402968101e+06 1.000000000000e+00 5.491482433731e+01 -1.084608263591e-05 1.132602079210e-02 -4.417518949836e+07 -1.429888033778e+04 -9.107108743431e+06 -2.345575034888e+07 5.199470127039e-06 -1.487144106717e-08 6.473738104388e-04 0.000000000000e+00 2.557934953022e+07 3.053645517388e+07  6.447897989320e-04
4.440000000000e+02 4.426532084789e+06 1.000000000000e+00 5.428887029511e+01 -1.599726083283e-05 1.116143203776e-02 -4.381511312378e+07 -1.429841730436e+04 -9.072247922846e+06 -2.311760520455e+07 6.014058679249e-06 -1.483704429889e-08 6.361089641283e-04 0.000000000000e+00 2.533498875039e+07 3.027149487782e+07  6.331233585723e-04
5.300000000000e+02 4.465496690187e+06 1.000000000000e+00 5.377624833817e+01 -1.945864545138e-05 1.101878567022e-02 -4.353094637518e+07 -1.429824374925e+04 -9.056777257806e+06 -2.284789099338e+07 6.550867212668e-06 -1.482415163367e-08 6.266656324151e-04 0.000000000000e+00 2.514520487545e+07 3.005372822934e+07  6.234160136105e-04
6.160000000000e+02 4.488012199713e+06 1.000000000000e+00 5.336720501762e+01 -2.179981119776e-05 1.090056145745e-02 -4.331021267828e+07 -1.429787213591e+04 -9.051837399481e+06 -2.263673911166e+07 6.906763204745e-06 -1.479654607100e-08 6.190063286888e-04 0.000000000000e+00 2.499959639647e+07 2.987958807579e+07  6.155820082305e-04
7.020000000000e+02 4.501822505910e+06 1.000000000000e+00 5.305912787442e+01 -2.340244083505e-05 1.080987437737e-02 -4.314632641823e+07 -1.429777844736e+04 -9.051098680774e+06 -2.247932515531e+07 7.147163056556e-06 -1.478958635028e-08 6.131869627192e-04 0.000000000000e+00 2.489225008477e+07 2.974834439494e+07  6.096448036669e-04
7.880000000000e+02 4.511441064185e+06 1.000000000000e+00 5.280009926943e+01 -2.437372952516e-05 1.072815284507e-02 -4.301540609190e+07 -1.429759555378e+04 -9.060579569711e+06 -2.235209981098e+07 7.284405245180e-06 -1.477599997018e-08 6.081093026265e-04 0.000000000000e+00 2.480936182420e+07 2.963585841057e+07  6.045000186617e-04
8.740000000000e+02 4.519827124394e+06 1.000000000000e+00 5.241137386212e+01 -2.639042491716e-05 1.061262594671e-02 -4.280842958423e+07 -1.429757661344e+04 -9.059153865718e+06 -2.215327268894e+07 7.587096711125e-06 -1.477459297369e-08 6.007772499561e-04 0.000000000000e+00 2.467361871296e+07 2.947122573099e+07  5.970198603555e-04
9.370000000000e+02 4.525200964882e+06 1.000000000000e+00 5.210907649638e+01 -2.727047657521e-05 1.051767037401e-02 -4.265519369789e+07 -1.429727919683e+04 -9.065190748173e+06 -2.200317584113e+07 7.703689570863e-06 -1.475249916796e-08 5.949779971177e-04 0.000000000000e+00 2.457452009573e+07 2.934439319919e+07  5.911638002693e-04
1.000000000000e+03 4.529390986869e+06 1.000000000000e+00 5.185429705005e+01 -2.772356974254e-05 1.043816917343e-02 -4.252651526501e+07 -1.429735607028e+04 -9.066838958003e+06 -2.187580900609e+07 7.752406062274e-06 -1.475820976733e-08 5.901860097368e-04 0.000000000000e+00 2.448972107637e+07 2.924100329794e+07  5.863482454501e-04
1.100000000000e+03 4.533536297959e+06 1.000000000000e+00 5.158773657506e+01 -2.801752846512e-05 1.035499652352e-02 -4.239254320654e+07 -1.429714469343e+04 -9.067266259169e+06 -2.174237750751e+07 7.772484000818e-06 -1.474250748682e-08 5.852141114605e-04 0.000000000000e+00 2.440072899107e+07 2.913471381895e+07  5.813668386602e-04
1.200000000000e+03 4.536797668574e+06 1.000000000000e+00 5.136659202183e+01 -2.839111404404e-05 1.028587748929e-02 -4.228093103685e+07 -1.429712202907e+04 -9.068580393405e+06 -2.163181558273e+07 7.811493097616e-06 -1.474082384870e-08 5.810587149829e-04 0.000000000000e+00 2.432710900433e+07 2.904550145177e+07  5.771926144646e-04
1.300000000000e+03 4.539703039346e+06 1.000000000000e+00 5.115655250786e+01 -2.878531566272e-05 1.022008937815e-02 -4.217484558783e+07 -1.429701599304e+04 -9.070264728625e+06 -2.152690927482e+07 7.855289767453e-06 -1.473294688686e-08 5.770996339523e-04 0.000000000000e+00 2.425733986376e+07 2.896048832140e+07  5.732123593286e-04
1.400000000000e+03 4.542442550523e+06 1.000000000000e+00 5.094021040182e+01 -2.916775021203e-05 1.015211221829e-02 -4.206578286422e+07 -1.429704303020e+04 -9.072107938138e+06 -2.141895142412e+07 7.896327904337e-06 -1.473495536117e-08 5.730213088589e-04 0.000000000000e+00 2.418561407549e+07 2.887317097362e+07  5.691142318561e-04
1.500000000000e+03 4.545082434890e+06 1.000000000000e+00 5.070749560140e+01 -2.951963894407e-05 1.007872620534e-02 -4.194884242868e+07 -1.429728117888e+04 -9.074031303668e+06 -2.130292379679e+07 7.930232209007e-06 -1.475264640643e-08 5.686402719810e-04 0.000000000000e+00 2.410859917638e+07 2.877980368889e+07  5.647169191323e-04
1.600000000000e+03 4.547643475773e+06 1.000000000000e+00 5.045226626657e+01 -2.982951622048e-05 9.997957241559e-03 -4.182104434536e+07 -1.429718316492e+04 -9.076007366435e+06 -2.117577455648e+07 7.954332092431e-06 -1.474536536953e-08 5.638441892955e-04 0.000000000000e+00 2.402427542276e+07 2.867812933157e+07  5.599094015317e-04
1.700000000000e+03 4.550130760878e+06 1.000000000000e+00 5.017073127700e+01 -3.009024087992e-05 9.908584339589e-03 -4.168055275680e+07 -1.429711606498e+04 -9.078025936041e+06 -2.103562301233e+07 7.966962313068e-06 -1.474038080199e-08 5.585635850700e-04 0.000000000000e+00 2.393140056839e+07 2.856679220298e+07  5.546230221284e-04
1.800000000000e+03 4.552544164626e+06 1.000000000000e+00 4.986060250018e+01 -3.029782098156e-05 9.809871061429e-03 -4.152625687027e+07 -1.429714943192e+04 -9.080080666596e+06 -2.088133318633e+07 7.967187418733e-06 -1.474285948935e-08 5.527565015408e-04 0.000000000000e+00 2.382922357440e+07 2.844501724064e+07  5.488162826287e-04
1.900000000000e+03 4.554883453060e+06 1.000000000000e+00 4.952059324682e+01 -3.044955604119e-05 9.701399572746e-03 -4.135754058135e+07 -1.429703384601e+04 -9.082179109982e+06 -2.071227217812e+07 7.954383559624e-06 -1.473427310710e-08 5.463991504818e-04 0.000000000000e+00 2.371733062315e+07 2.831242092045e+07  5.424657003874e-04