 TITLE = "Time curves in points"
 VARIABLES = "TIME "  "PRESSURE1"  "SATURATION1"  "TEMPERATURE1"  "DISPLACEMENT_X1"  "DISPLACEMENT_Y1"  "STRESS_XX"  "STRESS_XY"  "STRESS_YY"  "STRESS_ZZ"  "STRAIN_XX"  "STRAIN_XY"  "STRAIN_YY"  "STRAIN_PLS"  p_(1st_Invariant)  q_(2nd_Invariant)   Effective_Strain
 ZONE T="POINT=POINT8"
0.000000000000e+00 1.000000000000e+05 1.000000000000e+00 2.500000000000e+01 0.000000000000e+00 0.000000000000e+00 -1.862400571852e+07 -6.140100975330e+03 -1.726483383688e+07 -7.763601866620e+06 0.000000000000e+00 0.000000000000e+00 0.000000000000e+00 0.000000000000e+00 1.455081380734e+07 1.024864271960e+07  0.000000000000e+00
1.000000000000e-03 1.897522717761e+05 1.000000000000e+00 2.500000402545e+01 -8.141942484546e-04 6.276064698948e-05 -8.549125883066e+06 -4.870908233210e+03 -2.679264255634e+07 -7.599482676253e+06 3.681139668176e-04 9.428288941470e-08 -3.599858937937e-04 0.000000000000e+00 1.431375037189e+07 1.873639841813e+07  6.305660935439e-04
2.000000000000e-03 2.084844070581e+05 1.000000000000e+00 2.500004129614e+01 -8.135543678962e-04 6.217341232348e-05 -8.546497315259e+06 -5.121011981550e+03 -2.678123626225e+07 -7.595290384570e+06 3.680558856451e-04 7.570375382370e-08 -3.597179451329e-04 0.000000000000e+00 1.430767465403e+07 1.872846998102e+07  6.302844271280e-04
3.000000000000e-03 2.212358636005e+05 1.000000000000e+00 2.500021259078e+01 -8.128848317724e-04 6.169745566369e-05 -8.547851469405e+06 -5.226966804031e+03 -2.677130180424e+07 -7.592794352656e+06 3.679128787343e-04 6.783282415365e-08 -3.594416607352e-04 0.000000000000e+00 1.430398254210e+07 1.871926264841e+07  6.299217600247e-04
4.000000000000e-03 2.299404161370e+05 1.000000000000e+00 2.500074197247e+01 -8.121353814463e-04 6.118371477643e-05 -8.552792191613e+06 -5.270548692580e+03 -2.676225747217e+07 -7.591792511575e+06 3.676921549550e-04 6.459531243287e-08 -3.591429396412e-04 0.000000000000e+00 1.430228072512e+07 1.870848790879e+07  6.294721803549e-04
1.000000000000e-02 2.422636896225e+05 1.000000000000e+00 2.508100420461e+01 -8.042331090891e-04 5.838934858540e-05 -8.649138841422e+06 -5.325978198759e+03 -2.672153428396e+07 -7.638278756669e+06 3.658401970656e-04 6.047769197386e-08 -3.559037321186e-04 0.000000000000e+00 1.433631729402e+07 1.859844250010e+07  6.250683312984e-04
2.000000000000e-02 2.389194442018e+05 1.000000000000e+00 2.543889432663e+01 -7.870362251233e-04 5.657193530056e-05 -8.869701005096e+06 -5.361446215874e+03 -2.671766008644e+07 -7.832784482648e+06 3.648723865226e-04 5.784292498818e-08 -3.485353349598e-04 0.000000000000e+00 1.447338185806e+07 1.838835960989e+07  6.178832152227e-04
3.000000000000e-02 2.281317474452e+05 1.000000000000e+00 2.593499907333e+01 -7.691108405992e-04 5.692465230635e-05 -9.100833652196e+06 -5.383100848719e+03 -2.676883128650e+07 -8.095180134840e+06 3.660335838546e-04 5.623429511971e-08 -3.406898553092e-04 0.000000000000e+00 1.465494835785e+07 1.819168629626e+07  6.121716264486e-04
4.000000000000e-02 2.144253653967e+05 1.000000000000e+00 2.649268611841e+01 -7.518810784983e-04 5.960972226476e-05 -9.322654738027e+06 -5.403189139226e+03 -2.685146093249e+07 -8.385120850152e+06 3.685637415210e-04 5.474202211057e-08 -3.329897298772e-04 0.000000000000e+00 1.485307884022e+07 1.801588060014e+07  6.078234459853e-04
5.000000000000e-02 1.999260184664e+05 1.000000000000e+00 2.706394563609e+01 -7.358857581089e-04 6.329390731325e-05 -9.529315073143e+06 -5.416489573373e+03 -2.695182137838e+07 -8.679905490231e+06 3.718369299911e-04 5.375398985970e-08 -3.257682598074e-04 0.000000000000e+00 1.505368064725e+07 1.786236698830e+07  6.045827816660e-04
6.000000000000e-02 1.852654330480e+05 1.000000000000e+00 2.762301486876e+01 -7.212781679537e-04 6.929504921906e-05 -9.716758124714e+06 -5.428468657004e+03 -2.705419308343e+07 -8.964693334788e+06 3.754525937306e-04 5.286411507566e-08 -3.189928031973e-04 0.000000000000e+00 1.524521484764e+07 1.772543977398e+07  6.020695494345e-04
7.000000000000e-02 1.713197479364e+05 1.000000000000e+00 2.815767675716e+01 -7.079501678194e-04 7.531283728415e-05 -9.889105854474e+06 -5.439233736779e+03 -2.715889225899e+07 -9.236663650380e+06 3.791528612043e-04 5.206442343526e-08 -3.127798751389e-04 0.000000000000e+00 1.542822058795e+07 1.760507965188e+07  6.001495939926e-04
8.000000000000e-02 1.587386335393e+05 1.000000000000e+00 2.866318602226e+01 -6.957350640473e-04 8.211475086420e-05 -1.004733637854e+07 -5.448112146997e+03 -2.725928354773e+07 -9.492563156372e+06 3.827805662473e-04 5.140488439049e-08 -3.070038556408e-04 0.000000000000e+00 1.559972769421e+07 1.749593424541e+07  5.985711711272e-04
9.000000000000e-02 1.484204296669e+05 1.000000000000e+00 2.913867303407e+01 -6.844666677322e-04 8.830090803512e-05 -1.019521310949e+07 -5.455881115510e+03 -2.735766051154e+07 -9.733985354263e+06 3.862551121624e-04 5.082776101521e-08 -3.016907469466e-04 0.000000000000e+00 1.576228632510e+07 1.739764979128e+07  5.972770877201e-04
1.000000000000e-01 1.413689395457e+05 1.000000000000e+00 2.958516568313e+01 -6.740537061868e-04 9.384146671162e-05 -1.033384687833e+07 -5.464988919181e+03 -2.745362549868e+07 -9.961564351534e+06 3.895587920753e-04 5.015118131396e-08 -2.968022265701e-04 0.000000000000e+00 1.591634557618e+07 1.730892539503e+07  5.962126622217e-04
2.000000000000e-01 1.609113465756e+05 1.000000000000e+00 3.249981870886e+01 -6.105807504039e-04 1.886690361302e-04 -1.117864240434e+07 -5.503894588984e+03 -2.797152092953e+07 -1.139407824901e+07 4.113883315869e-04 4.726104584284e-08 -2.628306835243e-04 0.000000000000e+00 1.684808052763e+07 1.668620641950e+07  5.885964752302e-04
3.000000000000e-01 1.897684167318e+05 1.000000000000e+00 3.456723702577e+01 -5.651880235113e-04 2.983395510737e-04 -1.178963215207e+07 -5.523244124292e+03 -2.822497569081e+07 -1.237865490743e+07 4.252644168412e-04 4.582365179138e-08 -2.356747273442e-04 0.000000000000e+00 1.746442091677e+07 1.614889362231e+07  5.801865933713e-04
4.000000000000e-01 2.191248737762e+05 1.000000000000e+00 3.613366903686e+01 -5.311110050916e-04 4.037674996539e-04 -1.226969429541e+07 -5.529171237550e+03 -2.836849951581e+07 -1.311484928718e+07 4.347778999077e-04 4.538335194936e-08 -2.136612495967e-04 0.000000000000e+00 1.791768103280e+07 1.569330821102e+07  5.723444307387e-04
5.000000000000e-01 2.469765835129e+05 1.000000000000e+00 3.737981490638e+01 -5.040595884884e-04 5.061883671791e-04 -1.266964437562e+07 -5.530543210068e+03 -2.844039900702e+07 -1.369305807288e+07 4.413989375406e-04 4.528143399089e-08 -1.948554758013e-04 0.000000000000e+00 1.826770048517e+07 1.528476897746e+07  5.646332302084e-04
6.000000000000e-01 2.728380511316e+05 1.000000000000e+00 3.840699932436e+01 -4.820550535950e-04 6.060512083222e-04 -1.301196857584e+07 -5.531908139090e+03 -2.846692956564e+07 -1.416353816586e+07 4.461590135568e-04 4.518003926359e-08 -1.783659216681e-04 0.000000000000e+00 1.854747876911e+07 1.491256384503e+07  5.571820503012e-04
7.000000000000e-01 2.968189504268e+05 1.000000000000e+00 3.927684797067e+01 -4.639817818026e-04 7.035420651873e-04 -1.331001539075e+07 -5.534459554723e+03 -2.846506726338e+07 -1.455703866386e+07 4.497044360719e-04 4.499050553083e-08 -1.636810176585e-04 0.000000000000e+00 1.877737377266e+07 1.457161809156e+07  5.501214785652e-04
8.000000000000e-01 3.191955069579e+05 1.000000000000e+00 4.002870654053e+01 -4.493074318859e-04 7.988249306811e-04 -1.356981751487e+07 -5.539870511999e+03 -2.844808467158e+07 -1.489316348736e+07 4.525392791919e-04 4.458854870462e-08 -1.505655993758e-04 0.000000000000e+00 1.897035522460e+07 1.426271626656e+07  5.436898497341e-04
9.000000000000e-01 3.400202934397e+05 1.000000000000e+00 4.068907690810e+01 -4.369180901102e-04 8.918651034850e-04 -1.380508661119e+07 -5.546466073989e+03 -2.841677474296e+07 -1.518556269160e+07 4.546612546287e-04 4.409859267108e-08 -1.385421172980e-04 0.000000000000e+00 1.913580801525e+07 1.397269303313e+07  5.374946636289e-04
1.000000000000e+00 3.594526905246e+05 1.000000000000e+00 4.127662943239e+01 -4.264792904232e-04 9.827206483185e-04 -1.401898860647e+07 -5.555705329272e+03 -2.837550647666e+07 -1.544304518593e+07 4.562799588791e-04 4.341224799288e-08 -1.274456604749e-04 0.000000000000e+00 1.927918008969e+07 1.370011464788e+07  5.315869671307e-04
2.000000000000e+00 4.898300370408e+05 1.000000000000e+00 4.458659385047e+01 -3.857453687327e-04 1.735943011397e-03 -1.543384172112e+07 -5.631629064776e+03 -2.772167485749e+07 -1.682948484150e+07 4.552246018276e-04 3.777219906973e-08 -5.166415598449e-05 0.000000000000e+00 1.999500047337e+07 1.165286781318e+07  4.831329239865e-04
3.000000000000e+00 5.912502393109e+05 1.000000000000e+00 4.679648586261e+01 -3.682531021796e-04 2.378634887864e-03 -1.651669208147e+07 -5.557006068185e+03 -2.702802303117e+07 -1.771907467407e+07 4.480463536532e-04 4.331562167366e-08 7.141962774372e-06 0.000000000000e+00 2.042126326224e+07 9.964700372574e+06  4.445184112092e-04
4.000000000000e+00 6.763376842059e+05 1.000000000000e+00 4.845563679296e+01 -3.601303876915e-04 2.938977924394e-03 -1.740511955280e+07 -5.440217230374e+03 -2.636932760483e+07 -1.836799518044e+07 4.391503806685e-04 5.199136391103e-08 5.571055456048e-05 0.000000000000e+00 2.071414744602e+07 8.523662757756e+06  4.141152250250e-04
5.000000000000e+00 7.512946355432e+05 1.000000000000e+00 4.980826726303e+01 -3.560008294062e-04 3.436309463328e-03 -1.816254705139e+07 -5.294171435678e+03 -2.577027381806e+07 -1.888825654175e+07 4.303413527125e-04 6.284048008843e-08 9.728511720382e-05 0.000000000000e+00 2.094035913706e+07 7.272086728771e+06  3.908865267495e-04
6.000000000000e+00 8.193404637507e+05 1.000000000000e+00 5.098668253450e+01 -3.526477105910e-04 3.885062673160e-03 -1.883812220054e+07 -5.165342364374e+03 -2.522689651806e+07 -1.933978461999e+07 4.220196043646e-04 7.241063967106e-08 1.342387455386e-04 0.000000000000e+00 2.113493444620e+07 6.153305983296e+06  3.734557814777e-04
7.000000000000e+00 8.825714157559e+05 1.000000000000e+00 5.199331978804e+01 -3.510861350490e-04 4.292290227701e-03 -1.942672882056e+07 -5.061748449484e+03 -2.473118972691e+07 -1.971936911527e+07 4.142559254459e-04 8.010618763426e-08 1.667495647488e-04 0.000000000000e+00 2.129242922091e+07 5.164370407906e+06  3.610213471517e-04
8.000000000000e+00 9.416537060918e+05 1.000000000000e+00 5.293566927960e+01 -3.492433363485e-04 4.667718003190e-03 -1.996738004376e+07 -4.990297558528e+03 -2.428771994143e+07 -2.007788563166e+07 4.074909220498e-04 8.541396810529e-08 1.965376273897e-04 0.000000000000e+00 2.144432853895e+07 4.266169397154e+06  3.529711226391e-04
9.000000000000e+00 9.976178889083e+05 1.000000000000e+00 5.379586488110e+01 -3.476130099441e-04 5.015838427526e-03 -2.046213347300e+07 -4.923397598087e+03 -2.388007311908e+07 -2.040464799195e+07 4.012512537746e-04 9.038367945235e-08 2.238156827446e-04 0.000000000000e+00 2.158228486134e+07 3.447052455229e+06  3.482667507674e-04
1.000000000000e+01 1.050959049152e+06 1.000000000000e+00 5.457935807192e+01 -3.460553642573e-04 5.340012219315e-03 -2.091883658096e+07 -4.864950266610e+03 -2.349862124781e+07 -2.070102007793e+07 3.952961015295e-04 9.472548121924e-08 2.489920011567e-04 0.000000000000e+00 2.170615930223e+07 2.695315127078e+06  3.461653998798e-04
1.100000000000e+01 1.101971525748e+06 1.000000000000e+00 5.531115847719e+01 -3.447697207512e-04 5.643853148112e-03 -2.134051960743e+07 -4.859102137412e+03 -2.314734118582e+07 -2.097789002160e+07 3.899173298829e-04 9.515991367391e-08 2.723232870816e-04 0.000000000000e+00 2.182191693828e+07 2.012804567239e+06  3.464274166869e-04
1.200000000000e+01 1.151043677121e+06 1.000000000000e+00 5.598519287632e+01 -3.438944952257e-04 5.929337830446e-03 -2.172948674819e+07 -4.833391335389e+03 -2.281927403830e+07 -2.123169570733e+07 3.848970472672e-04 9.706985896707e-08 2.939357066023e-04 0.000000000000e+00 2.192681883127e+07 1.406409859361e+06  3.484379131508e-04
1.300000000000e+01 1.198431142852e+06 1.000000000000e+00 5.660414097440e+01 -3.433639850163e-04 6.198057888270e-03 -2.208898556739e+07 -4.811022002910e+03 -2.250912880943e+07 -2.146275858572e+07 3.801265694659e-04 9.873158080836e-08 3.140377220145e-04 0.000000000000e+00 2.202029098751e+07 9.120608798413e+05  3.517695935601e-04
1.400000000000e+01 1.244848089696e+06 1.000000000000e+00 5.717202786384e+01 -3.432328326883e-04 6.451553680655e-03 -2.242031193062e+07 -4.804696346369e+03 -2.221503971423e+07 -2.167231585221e+07 3.756037173013e-04 9.920148672285e-08 3.327445868775e-04 0.000000000000e+00 2.210255583235e+07 6.694484734382e+05  3.561137996857e-04
1.500000000000e+01 1.289842830218e+06 1.000000000000e+00 5.769272757371e+01 -3.434613901096e-04 6.690759207067e-03 -2.272633389553e+07 -4.806967352448e+03 -2.193654974872e+07 -2.186244645962e+07 3.712991811654e-04 9.903278341413e-08 3.501504938715e-04 0.000000000000e+00 2.217511003463e+07 8.293643468175e+05  3.611895458840e-04
1.600000000000e+01 1.333555268483e+06 1.000000000000e+00 5.816975980579e+01 -3.438657037065e-04 6.916685377187e-03 -2.301085739610e+07 -4.806720683812e+03 -2.167038383503e+07 -2.203454150026e+07 3.671232669396e-04 9.905110736996e-08 3.664287578895e-04 0.000000000000e+00 2.223859424380e+07 1.200585592307e+06  3.667765456967e-04
1.700000000000e+01 1.376119091317e+06 1.000000000000e+00 5.860621954810e+01 -3.442254411803e-04 7.130223572640e-03 -2.327806974806e+07 -4.812478856937e+03 -2.141320437244e+07 -2.218993907841e+07 3.629701467693e-04 9.862335736635e-08 3.817530479741e-04 0.000000000000e+00 2.229373773297e+07 1.622529966842e+06  3.727167643267e-04
1.800000000000e+01 1.417665494257e+06 1.000000000000e+00 5.900482333236e+01 -3.445131538361e-04 7.332159532222e-03 -2.352942469058e+07 -4.824945473810e+03 -2.116385989700e+07 -2.232968061943e+07 3.588245061423e-04 9.769726582722e-08 3.962048142996e-04 0.000000000000e+00 2.234098840234e+07 2.048726466157e+06  3.789001357805e-04
1.900000000000e+01 1.458284177490e+06 1.000000000000e+00 5.936796184715e+01 -3.447180415257e-04 7.523184191130e-03 -2.376611672019e+07 -4.839271111431e+03 -2.092168749479e+07 -2.245476229350e+07 3.546789786508e-04 9.663307560395e-08 4.098456799902e-04 0.000000000000e+00 2.238085550283e+07 2.465855520952e+06  3.852363432153e-04
2.000000000000e+01 1.498058933073e+06 1.000000000000e+00 5.969774740413e+01 -3.451909825322e-04 7.703918650060e-03 -2.398481052503e+07 -4.890795810717e+03 -2.069048763499e+07 -2.256606291764e+07 3.506900890820e-04 9.280552651409e-08 4.225671265364e-04 0.000000000000e+00 2.241378702589e+07 2.862108858642e+06  3.916075045246e-04
2.100000000000e+01 1.536914098402e+06 1.000000000000e+00 6.002784237796e+01 -3.452661816289e-04 7.876633329070e-03 -2.419627916031e+07 -4.910443177301e+03 -2.047344235382e+07 -2.267961681270e+07 3.470532558739e-04 9.134600785358e-08 4.348465245109e-04 0.000000000000e+00 2.244977944228e+07 3.242462720074e+06  3.982745098386e-04
2.200000000000e+01 1.575000746812e+06 1.000000000000e+00 6.034057872358e+01 -3.451804477311e-04 8.041736790879e-03 -2.439868460405e+07 -4.935272419199e+03 -2.026345296688e+07 -2.278649874812e+07 3.435052398506e-04 8.950154988406e-08 4.466160307699e-04 0.000000000000e+00 2.248287877302e+07 3.610068564638e+06  4.050269201008e-04
2.300000000000e+01 1.612388172488e+06 1.000000000000e+00 6.063232558030e+01 -3.454008175475e-04 8.199513742240e-03 -2.458690508175e+07 -4.974720921947e+03 -2.006340864942e+07 -2.288476339444e+07 3.401640232564e-04 8.657108967990e-08 4.576960779960e-04 0.000000000000e+00 2.251169237520e+07 3.957240034499e+06  4.117105120042e-04
2.400000000000e+01 1.649122696109e+06 1.000000000000e+00 6.090262542673e+01 -3.457553790166e-04 8.350228268226e-03 -2.476343505409e+07 -5.007117155310e+03 -1.987011641563e+07 -2.297404039733e+07 3.369231986768e-04 8.416451234433e-08 4.681915067868e-04 0.000000000000e+00 2.253586395568e+07 4.288414336705e+06  4.183012909674e-04
2.500000000000e+01 1.685258508133e+06 1.000000000000e+00 6.115184454688e+01 -3.461809642819e-04 8.494139270896e-03 -2.492948973720e+07 -5.036045910740e+03 -1.968246674914e+07 -2.305448949464e+07 3.337435626329e-04 8.201551908382e-08 4.781494608711e-04 0.000000000000e+00 2.255548199366e+07 4.605299431826e+06  4.247733374021e-04
2.600000000000e+01 1.720830930678e+06 1.000000000000e+00 6.138059466342e+01 -3.465948885915e-04 8.631491727421e-03 -2.508657257633e+07 -5.062822533628e+03 -1.949943807542e+07 -2.312646929139e+07 3.305825924872e-04 8.002639852644e-08 4.876212040598e-04 0.000000000000e+00 2.257082664772e+07 4.909866905196e+06  4.311150966124e-04
2.700000000000e+01 1.755869154182e+06 1.000000000000e+00 6.158955581002e+01 -3.469777621494e-04 8.762523885032e-03 -2.523523951367e+07 -5.089675924097e+03 -1.932054932225e+07 -2.319024024060e+07 3.274293129281e-04 7.803157523448e-08 4.966342787196e-04 0.000000000000e+00 2.258200969217e+07 5.202895603395e+06  4.373133423222e-04
2.800000000000e+01 1.790413798117e+06 1.000000000000e+00 6.177940892914e+01 -3.472802266028e-04 8.887457425192e-03 -2.537639107856e+07 -5.121714372387e+03 -1.914499789054e+07 -2.324607004038e+07 3.242602187952e-04 7.565157621865e-08 5.052284387463e-04 0.000000000000e+00 2.258915300316e+07 5.485776105499e+06  4.433677907688e-04
2.900000000000e+01 1.824490651884e+06 1.000000000000e+00 6.195081186402e+01 -3.474800526852e-04 9.006496856444e-03 -2.551067355131e+07 -5.153835794970e+03 -1.897249363313e+07 -2.329429576826e+07 3.210638254145e-04 7.326541339816e-08 5.134269810573e-04 0.000000000000e+00 2.259248765090e+07 5.759264718134e+06  4.492732246213e-04
3.000000000000e+01 1.858108449564e+06 1.000000000000e+00 6.210439119759e+01 -3.475917825671e-04 9.119846045490e-03 -2.563807819588e+07 -5.182001225886e+03 -1.880288123972e+07 -2.333508751072e+07 3.178467747647e-04 7.117312424442e-08 5.212419918181e-04 0.000000000000e+00 2.259201564877e+07 6.023484802303e+06  4.550216648561e-04
3.100000000000e+01 1.891186849834e+06 1.000000000000e+00 6.226590502672e+01 -3.471903801423e-04 9.229052736430e-03 -2.576570762374e+07 -5.215219151501e+03 -1.864056842642e+07 -2.338096595991e+07 3.148103098427e-04 6.870550691306e-08 5.289748101392e-04 0.000000000000e+00 2.259574733669e+07 6.281963600300e+06  4.608613362254e-04
3.200000000000e+01 1.923803508599e+06 1.000000000000e+00 6.242060102855e+01 -3.465303664353e-04 9.334225610893e-03 -2.589084513932e+07 -5.249446277150e+03 -1.848074704968e+07 -2.342446255693e+07 3.117779328678e-04 6.616292043623e-08 5.365266205932e-04 0.000000000000e+00 2.259868491531e+07 6.535789359269e+06  4.666788472429e-04
3.300000000000e+01 1.955985196901e+06 1.000000000000e+00 6.256492306584e+01 -3.456765663020e-04 9.435421214397e-03 -2.601290937682e+07 -5.284098519744e+03 -1.832221879347e+07 -2.346379497287e+07 3.087050366383e-04 6.358875384357e-08 5.438757312731e-04 0.000000000000e+00 2.259964104772e+07 6.785303200009e+06  4.724430603734e-04
3.400000000000e+01 1.987757367210e+06 1.000000000000e+00 6.269791394810e+01 -3.446676438960e-04 9.532668626256e-03 -2.613157909178e+07 -5.315150260784e+03 -1.816494140470e+07 -2.349851861713e+07 3.055870397268e-04 6.128205308054e-08 5.510071982141e-04 0.000000000000e+00 2.259834637120e+07 7.030204082603e+06  4.781335838746e-04
3.500000000000e+01 2.019156671974e+06 1.000000000000e+00 6.281934767946e+01 -3.433320227793e-04 9.626030873232e-03 -2.624907387252e+07 -5.352707004389e+03 -1.800666951393e+07 -2.352854653010e+07 3.023382703522e-04 5.849212355562e-08 5.580011909241e-04 0.000000000000e+00 2.259476330552e+07 7.274262722837e+06  4.838064221751e-04
3.600000000000e+01 2.050221244270e+06 1.000000000000e+00 6.292925655316e+01 -3.414730837694e-04 9.715555720002e-03 -2.636791577584e+07 -5.384451318380e+03 -1.784498065314e+07 -2.355391985229e+07 2.988665801958e-04 5.613397451633e-08 5.649492148636e-04 0.000000000000e+00 2.258893876042e+07 7.521673912667e+06  4.895348994254e-04
3.700000000000e+01 2.081022622880e+06 1.000000000000e+00 6.302778449203e+01 -3.383620999043e-04 9.801307288684e-03 -2.649732285706e+07 -5.346374006431e+03 -1.767138865588e+07 -2.357490852357e+07 2.948396106841e-04 5.896257483251e-08 5.721764968381e-04 0.000000000000e+00 2.258120667884e+07 7.787468728366e+06  4.955966650631e-04
3.800000000000e+01 2.113330364229e+06 1.000000000000e+00 6.311537564157e+01 -3.112785216392e-04 9.883304629365e-03 -2.692087149989e+07 -3.277186166293e+03 -1.722103087687e+07 -2.359728250421e+07 2.799388375168e-04 2.126736715285e-07 5.897351050536e-04 0.000000000000e+00 2.257972829366e+07 8.537851052197e+06  5.109438548623e-04
3.900000000000e+01 2.143157947788e+06 1.000000000000e+00 6.319159883550e+01 -3.156512646851e-04 9.961885806685e-03 -2.694619668285e+07 -5.746217593892e+03 -1.713811726106e+07 -2.360644318622e+07 2.793384417673e-04 2.925990833539e-08 5.931550075439e-04 0.000000000000e+00 2.256358571004e+07 8.636892200046e+06  5.139764927096e-04
4.000000000000e+01 2.172544101843e+06 1.000000000000e+00 6.325687785189e+01 -3.213944979066e-04 1.003682858519e-02 -2.695057000155e+07 -5.744959366296e+03 -1.707570571582e+07 -2.361163841336e+07 2.793689697953e-04 2.935337667110e-08 5.956661162327e-04 0.000000000000e+00 2.254597137691e+07 8.700000662827e+06  5.161923252657e-04
4.200000000000e+01 2.229827605392e+06 1.000000000000e+00 6.339719070174e+01 -3.315981194594e-04 1.017717482803e-02 -2.696175753304e+07 -5.745815181818e+03 -1.696136023874e+07 -2.362940543383e+07 2.796133508142e-04 2.928980180372e-08 6.005731518559e-04 0.000000000000e+00 2.251750773520e+07 8.819737563194e+06  5.205223029399e-04
4.400000000000e+01 2.285593809495e+06 1.000000000000e+00 6.351556358873e+01 -3.411918661134e-04 1.030801344737e-02 -2.696771668713e+07 -5.744129165208e+03 -1.684923728382e+07 -2.363859601693e+07 2.797333753204e-04 2.941504875193e-08 6.050790832679e-04 0.000000000000e+00 2.248518332930e+07 8.932028320849e+06  5.245099108443e-04
5.000000000000e+01 2.437116678573e+06 1.000000000000e+00 6.356115187483e+01 -3.643702192989e-04 1.058171365106e-02 -2.692666714611e+07 -5.743651843386e+03 -1.654857887007e+07 -2.355086785666e+07 2.779995980341e-04 2.945050694445e-08 6.129879212543e-04 0.000000000000e+00 2.234203795761e+07 9.168778165513e+06  5.316272895595e-04
6.500000000000e+01 2.768502507756e+06 1.000000000000e+00 6.327264371380e+01 -4.024774780889e-04 1.104605202298e-02 -2.671030685990e+07 -5.741515175531e+03 -1.584395935312e+07 -2.317135504213e+07 2.719396469823e-04 2.960923084220e-08 6.250633130586e-04 0.000000000000e+00 2.190854041839e+07 9.599286782878e+06  5.428405132892e-04
8.000000000000e+01 3.023556374630e+06 1.000000000000e+00 6.265086950878e+01 -4.247572022147e-04 1.126641791887e-02 -2.645463105061e+07 -5.739785983954e+03 -1.531270038378e+07 -2.271593090924e+07 2.645204235341e-04 2.973768507366e-08 6.278800355554e-04 0.000000000000e+00 2.149442078121e+07 9.821622004935e+06  5.460011934373e-04
1.000000000000e+02 3.324236305531e+06 1.000000000000e+00 6.190767060370e+01 -4.431644429586e-04 1.145090353652e-02 -2.615612832536e+07 -5.738275747052e+03 -1.475851884231e+07 -2.219837739810e+07 2.563842514866e-04 2.984987410069e-08 6.292405052529e-04 0.000000000000e+00 2.103767485526e+07 1.002299823474e+07  5.480411887714e-04
1.860000000000e+02 3.922717201764e+06 1.000000000000e+00 5.994700809414e+01 -4.680963706936e-04 1.167023031723e-02 -2.539767118315e+07 -5.734932471122e+03 -1.355078643485e+07 -2.091921562156e+07 2.370437936401e-04 3.009823174116e-08 6.265874144014e-04 0.000000000000e+00 1.995589107985e+07 1.036096492786e+07  5.479716169204e-04
2.720000000000e+02 4.213038211969e+06 1.000000000000e+00 5.827378534171e+01 -4.674910938397e-04 1.150214081343e-02 -2.490695632868e+07 -5.734570977675e+03 -1.308096033186e+07 -2.004393332330e+07 2.227598600138e-04 3.012508554009e-08 6.115276128629e-04 0.000000000000e+00 1.934394999461e+07 1.029529903060e+07  5.360635912033e-04
3.580000000000e+02 4.354403691727e+06 1.000000000000e+00 5.705890390729e+01 -4.627502718650e-04 1.132624738540e-02 -2.456378161129e+07 -5.733323687938e+03 -1.280575534866e+07 -1.943235056545e+07 2.127904185109e-04 3.021774134916e-08 5.990335812330e-04 0.000000000000e+00 1.893396250846e+07 1.021015983136e+07  5.259775564999e-04
4.440000000000e+02 4.426532453839e+06 1.000000000000e+00 5.611635431592e+01 -4.573487924138e-04 1.116165901914e-02 -2.431015255794e+07 -5.733522751680e+03 -1.263715058249e+07 -1.897520935815e+07 2.052313956501e-04 3.020295375684e-08 5.883165134200e-04 0.000000000000e+00 1.864083749952e+07 1.012155571904e+07  5.171994096349e-04
5.300000000000e+02 4.465496889446e+06 1.000000000000e+00 5.538231376721e+01 -4.522556147110e-04 1.101901223723e-02 -2.411916397309e+07 -5.732861797089e+03 -1.252903350384e+07 -1.862815867942e+07 1.994348035917e-04 3.025205324080e-08 5.794418368455e-04 0.000000000000e+00 1.842545205212e+07 1.004195669506e+07  5.098688233183e-04
6.160000000000e+02 4.488012314786e+06 1.000000000000e+00 5.481765606841e+01 -4.478189472186e-04 1.090078751386e-02 -2.397613223147e+07 -5.732254293303e+03 -1.245959079391e+07 -1.836650167851e+07 1.950287225322e-04 3.029718209344e-08 5.723024488948e-04 0.000000000000e+00 1.826740823463e+07 9.974729945589e+06  5.039353955293e-04
7.020000000000e+02 4.501822576458e+06 1.000000000000e+00 5.440041979532e+01 -4.443351894460e-04 1.081010066455e-02 -2.387205350857e+07 -5.732165988314e+03 -1.241389465515e+07 -1.817533700639e+07 1.917941015613e-04 3.030374189266e-08 5.668993319413e-04 0.000000000000e+00 1.815376172337e+07 9.923114388367e+06  4.994315615365e-04
7.880000000000e+02 4.511441113274e+06 1.000000000000e+00 5.406843927210e+01 -4.410706940600e-04 1.072837942526e-02 -2.379459943779e+07 -5.732594172341e+03 -1.239474527216e+07 -1.803002946400e+07 1.892738297583e-04 3.027193393633e-08 5.622134574492e-04 0.000000000000e+00 1.807312472465e+07 9.872779929662e+06  4.954757944486e-04
8.740000000000e+02 4.519827167133e+06 1.000000000000e+00 5.354181640403e+01 -4.366780713473e-04 1.061285235276e-02 -2.366299433973e+07 -5.732555438834e+03 -1.233649548138e+07 -1.778850185815e+07 1.851909937552e-04 3.027481128261e-08 5.554059957469e-04 0.000000000000e+00 1.792933055975e+07 9.811315126161e+06  4.898115338978e-04
9.370000000000e+02 4.525201002277e+06 1.000000000000e+00 5.316712255178e+01 -4.326471137996e-04 1.051789655376e-02 -2.357368906790e+07 -5.731895066279e+03 -1.231279152498e+07 -1.762332387977e+07 1.823728646542e-04 3.032386752949e-08 5.501512463589e-04 0.000000000000e+00 1.783660149088e+07 9.757474323909e+06  4.853798508380e-04
1.000000000000e+03 4.529391016052e+06 1.000000000000e+00 5.286584965629e+01 -4.289966931361e-04 1.043839560534e-02 -2.350076452452e+07 -5.732312384473e+03 -1.229404281429e+07 -1.749029153746e+07 1.801402892656e-04 3.029286674936e-08 5.459064257559e-04 0.000000000000e+00 1.776169962542e+07 9.713845658857e+06  4.817931203365e-04
1.100000000000e+03 4.533536316160e+06 1.000000000000e+00 5.255967195153e+01 -4.250197379319e-04 1.035522296732e-02 -2.342632960661e+07 -5.732201566636e+03 -1.227621505598e+07 -1.735537829344e+07 1.778939514387e-04 3.030109893159e-08 5.415575362866e-04 0.000000000000e+00 1.768597431867e+07 9.669012376675e+06  4.781119280674e-04
1.200000000000e+03 4.536797682874e+06 1.000000000000e+00 5.229905566997e+01 -4.218358443044e-04 1.028610402571e-02 -2.336321970046e+07 -5.732390900207e+03 -1.226014273547e+07 -1.724033567197e+07 1.759650220124e-04 3.028703415205e-08 5.378814965368e-04 0.000000000000e+00 1.762123270263e+07 9.632511244832e+06  4.750072280105e-04
1.300000000000e+03 4.539703052077e+06 1.000000000000e+00 5.204954421879e+01 -4.188461475101e-04 1.022031588957e-02 -2.330294398735e+07 -5.732044209343e+03 -1.224467203698e+07 -1.713021045447e+07 1.741134689923e-04 3.031278833049e-08 5.343657572592e-04 0.000000000000e+00 1.755927549294e+07 9.598351435612e+06  4.720402415740e-04
1.400000000000e+03 4.542442562524e+06 1.000000000000e+00 5.179372965818e+01 -4.157463349877e-04 1.015233824768e-02 -2.324123487368e+07 -5.731107020076e+03 -1.222930700072e+07 -1.701748081122e+07 1.722184207509e-04 3.038240810462e-08 5.307493575710e-04 0.000000000000e+00 1.749600756187e+07 9.563589169926e+06  4.689874748880e-04
1.500000000000e+03 4.545082446453e+06 1.000000000000e+00 5.152154209752e+01 -4.123591139155e-04 1.007895251230e-02 -2.317565410233e+07 -5.731980312475e+03 -1.221382292705e+07 -1.689782340020e+07 1.702098598488e-04 3.031753495500e-08 5.268800621837e-04 0.000000000000e+00 1.742910014319e+07 9.526619510769e+06  4.657186033781e-04
1.600000000000e+03 4.547643486991e+06 1.000000000000e+00 5.122683981314e+01 -4.085771419372e-04 9.998183239357e-03 -2.310471599905e+07 -5.731436885204e+03 -1.219809963500e+07 -1.676860686514e+07 1.680452323825e-04 3.035790383793e-08 5.226645988720e-04 0.000000000000e+00 1.735714083306e+07 9.486577172683e+06  4.621538616411e-04
1.700000000000e+03 4.550130771773e+06 1.000000000000e+00 5.090583175429e+01 -4.043347618504e-04 9.908809784780e-03 -2.302750464247e+07 -5.730344039715e+03 -1.218207175621e+07 -1.662820995353e+07 1.656983403385e-04 3.043908664569e-08 5.180451776527e-04 0.000000000000e+00 1.727926211740e+07 9.443059062005e+06  4.582439554455e-04
1.800000000000e+03 4.552544175197e+06 1.000000000000e+00 5.055622983281e+01 -3.995904725256e-04 9.810096507501e-03 -2.294348016155e+07 -5.730784100244e+03 -1.216570723724e+07 -1.647566025852e+07 1.631531181012e-04 3.040639643502e-08 5.129868711145e-04 0.000000000000e+00 1.719494921910e+07 9.395982535185e+06  4.539593209620e-04
1.900000000000e+03 4.554883463306e+06 1.000000000000e+00 5.017674738919e+01 -3.943224891210e-04 9.701625737444e-03 -2.285233196421e+07 -5.731440844375e+03 -1.214899441141e+07 -1.631041077260e+07 1.604007845250e-04 3.035760972809e-08 5.074697951681e-04 0.000000000000e+00 1.710391238274e+07 9.345473526639e+06  4.492832671948e-04
2.000000000000e+03 4.557147803229e+06 1.000000000000e+00 4.976678229369e+01 -3.885205213763e-04 9.583205681789e-03 -2.275391131963e+07 -5.730455451730e+03 -1.213191318224e+07 -1.613220010277e+07 1.574371550159e-04 3.043081032457e-08 5.014849873723e-04 0.000000000000e+00 1.700600820155e+07 9.291835027206e+06  4.442086034988e-04